Protein in INSANE! Membrane UpperLeaflet>POPC=1.0 LowerLeaflet>POPC=1.0
248785
    1AU     AUC    1  48.603  26.846   7.535
    1AU     AUC    2  48.855  26.851   7.369
    1AU     AUC    3  48.844  26.838   7.699
    1AU     AUC    4  48.333  26.854   7.380
    1AU     AUC    5  48.359  26.883   7.705
    1AU     AUC    6  48.442  27.099   7.513
    1AU     AUC    7  48.789  27.111   7.516
    1AU     AUC    8  48.424  26.592   7.543
    1AU     AUC    9  48.755  26.570   7.545
    1AU     AUC   10  48.597  26.686   7.798
    1AU     AUC   11  48.616  27.026   7.779
    1AU     AUC   12  48.590  26.673   7.287
    1AU     AUC   13  48.610  26.979   7.271
    1AU     AUC   14  49.158  26.842   7.204
    1AU     AUC   15  49.166  26.822   7.545
    1AU     AUC   16  49.124  26.809   7.899
    1AU     AUC   17  48.031  26.828   7.228
    1AU     AUC   18  48.030  26.887   7.556
    1AU     AUC   19  48.059  26.926   7.888
    1AU     AUC   20  48.277  27.412   7.474
    1AU     AUC   21  48.637  27.386   7.457
    1AU     AUC   22  49.003  27.374   7.487
    1AU     AUC   23  48.220  26.303   7.548
    1AU     AUC   24  48.571  26.279   7.529
    1AU     AUC   25  48.927  26.268   7.546
    1AU     AUC   26  48.556  26.520   8.101
    1AU     AUC   27  48.593  26.862   8.101
    1AU     AUC   28  48.650  27.226   8.062
    1AU     AUC   29  48.621  26.483   6.997
    1AU     AUC   30  48.569  26.824   6.973
    1AU     AUC   31  48.566  27.147   6.957
    1AU     AUC   32  48.838  26.624   8.012
    1AU     AUC   33  48.894  27.000   7.987
    1AU     AUC   34  48.893  26.686   7.072
    1AU     AUC   35  48.858  26.998   7.079
    1AU     AUC   36  48.304  26.744   8.000
    1AU     AUC   37  48.351  27.094   7.971
    1AU     AUC   38  48.315  26.643   7.103
    1AU     AUC   39  48.269  26.971   7.083
    1AU     AUC   40  49.096  27.114   7.346
    1AU     AUC   41  49.062  27.111   7.705
    1AU     AUC   42  48.137  27.126   7.383
    1AU     AUC   43  48.182  27.192   7.713
    1AU     AUC   44  49.059  26.563   7.407
    1AU     AUC   45  49.007  26.517   7.739
    1AU     AUC   46  48.138  26.540   7.373
    1AU     AUC   47  48.164  26.614   7.716
    1AU     AUC   48  48.502  27.344   7.782
    1AU     AUC   49  48.841  27.299   7.793
    1AU     AUC   50  48.389  26.411   7.817
    1AU     AUC   51  48.707  26.358   7.809
    1AU     AUC   52  48.412  27.277   7.215
    1AU     AUC   53  48.777  27.293   7.226
    1AU     AUC   54  48.443  26.379   7.258
    1AU     AUC   55  48.803  26.424   7.274
    1AU    AUSL   56  49.102  26.714   8.316
    1AU    AUSL   57  48.852  26.341   8.222
    1AU     AUL   58  49.159  26.342   8.389
    1AU    AUSL   59  48.687  26.656   8.460
    1AU    AUSL   60  48.449  27.065   8.451
    1AU     AUL   61  48.685  26.940   8.710
    1AU    AUSL   62  48.786  27.013   8.204
    1AU    AUSL   63  49.237  27.072   8.126
    1AU     AUL   64  49.055  27.037   8.435
    1AU    AUSL   65  49.010  26.874   6.840
    1AU    AUSL   66  48.871  27.270   6.981
    1AU     AUL   67  49.085  27.202   6.681
    1AU    AUSL   68  48.822  26.552   6.612
    1AU    AUSL   69  49.329  26.622   6.982
    1AU     AUL   70  49.197  26.696   6.665
    1AU    AUSL   71  48.654  27.056   6.670
    1AU    AUSL   72  48.476  26.670   6.829
    1AU     AUL   73  48.607  26.749   6.524
    1AU    AUSL   74  48.065  27.027   8.243
    1AU    AUSL   75  48.428  27.336   8.111
    1AU     AUL   76  48.265  27.304   8.412
    1AU    AUSL   77  48.366  26.714   8.191
    1AU    AUSL   78  47.917  26.637   8.105
    1AU     AUL   79  47.974  26.726   8.341
    1AU    AUSL   80  48.040  26.652   6.795
    1AU    AUSL   81  48.289  26.302   6.947
    1AU     AUL   82  48.313  26.388   6.641
    1AU    AUSL   83  48.226  27.020   6.675
    1AU    AUSL   84  47.946  27.001   7.050
    1AU     AUL   85  47.829  26.882   6.776
    1AU    AUSL   86  49.394  27.309   7.476
    1AU    AUSL   87  49.269  27.099   7.096
    1AU     AUL   88  49.564  27.304   7.128
    1AU    AUSL   89  49.559  26.913   7.367
    1AU    AUSL   90  49.508  26.615   7.768
    1AU     AUL   91  49.770  26.699   7.571
    1AU    AUSL   92  49.281  26.968   7.718
    1AU    AUSL   93  49.239  27.412   7.853
    1AU     AUL   94  49.487  27.152   7.878
    1AU    AUSL   95  48.028  27.489   7.522
    1AU    AUSL   96  48.065  27.241   7.878
    1AU     AUL   97  47.756  27.486   7.745
    1AU    AUSL   98  47.827  27.110   7.444
    1AU    AUSL   99  47.980  27.426   7.106
    1AU     AUL  100  47.744  27.351   7.263
    1AU    AUSL  101  47.700  27.032   7.888
    1AU    AUSL  102  47.667  26.726   7.349
    1AU     AUL  103  47.545  27.043   7.590
    1AU    AUSL  104  49.286  26.266   7.615
    1AU    AUSL  105  49.112  26.549   7.925
    1AU     AUL  106  49.419  26.455   8.001
    1AU    AUSL  107  49.244  26.636   7.397
    1AU    AUSL  108  49.234  26.234   7.188
    1AU     AUL  109  49.478  26.444   7.250
    1AU    AUSL  110  47.820  26.347   7.553
    1AU    AUSL  111  48.031  26.557   7.205
    1AU     AUL  112  47.681  26.450   7.213
    1AU    AUSL  113  47.937  26.748   7.694
    1AU    AUSL  114  48.127  26.364   7.849
    1AU     AUL  115  47.746  26.517   7.848
    1AU    AUSL  116  48.669  27.672   7.966
    1AU    AUSL  117  48.214  27.651   7.878
    1AU     AUL  118  48.436  27.696   8.194
    1AU    AUSL  119  48.501  27.527   7.591
    1AU    AUSL  120  48.752  27.660   7.247
    1AU     AUL  121  48.521  27.867   7.554
    1AU    AUSL  122  48.939  27.603   7.623
    1AU    AUSL  123  48.933  27.402   8.153
    1AU     AUL  124  49.052  27.692   7.941
    1AU    AUSL  125  48.527  26.206   7.970
    1AU    AUSL  126  48.951  26.147   7.849
    1AU     AUL  127  48.712  26.085   8.223
    1AU    AUSL  128  48.219  25.984   7.699
    1AU    AUSL  129  48.247  26.321   8.274
    1AU     AUL  130  48.255  26.023   8.050
    1AU    AUSL  131  48.651  25.909   7.667
    1AU    AUSL  132  48.444  26.154   7.362
    1AU     AUL  133  48.327  25.809   7.487
    1AU    AUSL  134  48.579  27.545   6.843
    1AU    AUSL  135  49.151  27.523   7.199
    1AU     AUL  136  48.895  27.633   6.936
    1AU    AUSL  137  48.330  27.639   7.210
    1AU    AUSL  138  48.353  27.228   7.014
    1AU     AUL  139  48.260  27.534   6.856
    1AU    AUSL  140  48.669  26.102   6.981
    1AU    AUSL  141  48.036  26.116   7.258
    1AU     AUL  142  48.332  25.968   7.043
    1AU    AUSL  143  48.876  26.126   7.381
    1AU    AUSL  144  48.899  26.459   7.018
    1AU     AUL  145  48.993  26.086   7.050
    1AU       S  146  49.124  25.891   8.227
    1AU     LIG  147  49.171  25.657   8.352
    1AU     LIG  148  49.293  25.497   8.479
    1AU     LIG  149  49.451  25.320   8.590
    1AU       S  150  49.158  26.681   8.719
    1AU     LIG  151  49.321  26.739   8.921
    1AU     LIG  152  49.411  26.795   9.146
    1AU     LIG  153  49.517  26.762   9.383
    1AU       S  154  48.836  26.488   8.725
    1AU     LIG  155  48.892  26.394   9.005
    1AU     LIG  156  49.058  26.410   9.203
    1AU     LIG  157  49.192  26.365   9.419
    1AU       S  158  48.211  26.978   8.757
    1AU     LIG  159  48.174  27.002   9.059
    1AU     LIG  160  48.056  26.987   9.261
    1AU     LIG  161  47.908  26.964   9.479
    1AU       S  162  48.736  27.412   8.566
    1AU     LIG  163  48.853  27.549   8.771
    1AU     LIG  164  49.066  27.469   8.933
    1AU     LIG  165  49.289  27.343   8.947
    1AU       S  166  49.428  27.304   8.334
    1AU     LIG  167  49.611  27.344   8.555
    1AU     LIG  168  49.751  27.501   8.669
    1AU     LIG  169  49.927  27.677   8.744
    1AU       S  170  49.029  26.933   6.306
    1AU     LIG  171  49.244  26.988   6.093
    1AU     LIG  172  49.378  26.822   5.955
    1AU     LIG  173  49.438  26.631   5.795
    1AU       S  174  49.244  27.633   6.652
    1AU     LIG  175  49.290  27.826   6.462
    1AU     LIG  176  49.453  27.916   6.288
    1AU     LIG  177  49.618  28.007   6.123
    1AU       S  178  49.504  26.344   6.768
    1AU     LIG  179  49.666  26.257   6.527
    1AU     LIG  180  49.680  26.038   6.388
    1AU     LIG  181  49.696  25.783   6.348
    1AU       S  182  48.950  26.638   6.240
    1AU     LIG  183  48.972  26.514   6.011
    1AU     LIG  184  48.959  26.441   5.771
    1AU     LIG  185  49.030  26.421   5.521
    1AU       S  186  48.216  26.698   6.303
    1AU     LIG  187  48.271  26.665   6.024
    1AU     LIG  188  48.277  26.611   5.795
    1AU     LIG  189  48.201  26.570   5.540
    1AU       S  190  48.786  27.079   6.264
    1AU     LIG  191  48.687  27.013   5.973
    1AU     LIG  192  48.829  26.938   5.780
    1AU     LIG  193  49.022  26.930   5.607
    1AU       S  194  47.935  27.066   8.643
    1AU     LIG  195  47.724  27.041   8.819
    1AU     LIG  196  47.670  26.825   8.977
    1AU     LIG  197  47.600  26.693   9.166
    1AU       S  198  47.966  27.624   8.268
    1AU     LIG  199  47.880  27.779   8.501
    1AU     LIG  200  47.739  27.790   8.694
    1AU     LIG  201  47.570  27.879   8.877
    1AU       S  202  47.689  26.358   8.284
    1AU     LIG  203  47.443  26.289   8.381
    1AU     LIG  204  47.298  26.097   8.457
    1AU     LIG  205  47.171  25.915   8.575
    1AU       S  206  48.260  26.686   8.684
    1AU     LIG  207  48.183  26.510   8.887
    1AU     LIG  208  48.070  26.490   9.105
    1AU     LIG  209  48.025  26.476   9.361
    1AU       S  210  47.954  26.610   6.418
    1AU     LIG  211  47.775  26.540   6.208
    1AU     LIG  212  47.764  26.611   5.957
    1AU     LIG  213  47.752  26.721   5.737
    1AU       S  214  47.988  26.062   6.745
    1AU     LIG  215  47.914  25.875   6.540
    1AU     LIG  216  47.756  25.833   6.354
    1AU     LIG  217  47.572  25.784   6.184
    1AU       S  218  47.618  27.288   6.798
    1AU     LIG  219  47.411  27.457   6.744
    1AU     LIG  220  47.359  27.656   6.588
    1AU     LIG  221  47.335  27.779   6.367
    1AU       S  222  48.116  26.966   6.393
    1AU     LIG  223  47.949  27.067   6.139
    1AU     LIG  224  48.032  27.104   5.913
    1AU     LIG  225  48.140  27.084   5.679
    1AU       S  226  49.475  27.447   6.708
    1AU     LIG  227  49.690  27.493   6.537
    1AU     LIG  228  49.847  27.605   6.389
    1AU     LIG  229  50.028  27.724   6.245
    1AU       S  230  49.727  27.423   7.556
    1AU     LIG  231  49.940  27.627   7.540
    1AU     LIG  232  50.184  27.671   7.511
    1AU     LIG  233  50.437  27.734   7.532
    1AU       S  234  49.903  27.124   7.388
    1AU     LIG  235  50.172  27.195   7.293
    1AU     LIG  236  50.412  27.261   7.306
    1AU     LIG  237  50.634  27.375   7.226
    1AU       S  238  49.767  26.245   7.790
    1AU     LIG  239  50.002  26.143   7.920
    1AU     LIG  240  50.255  26.138   7.859
    1AU     LIG  241  50.504  26.106   7.780
    1AU       S  242  49.464  27.552   8.127
    1AU     LIG  243  49.659  27.729   8.210
    1AU     LIG  244  49.704  27.928   8.357
    1AU     LIG  245  49.723  28.107   8.540
    1AU       S  246  49.874  27.156   7.663
    1AU     LIG  247  50.112  27.227   7.814
    1AU     LIG  248  50.349  27.294   7.811
    1AU     LIG  249  50.579  27.384   7.878
    1AU       S  250  47.800  27.401   8.203
    1AU     LIG  251  47.561  27.393   8.380
    1AU     LIG  252  47.375  27.532   8.444
    1AU     LIG  253  47.199  27.651   8.594
    1AU       S  254  47.967  27.825   7.463
    1AU     LIG  255  47.807  28.033   7.335
    1AU     LIG  256  47.561  28.013   7.239
    1AU     LIG  257  47.373  27.856   7.123
    1AU       S  258  47.403  27.044   7.139
    1AU     LIG  259  47.165  27.049   7.071
    1AU     LIG  260  46.910  27.125   7.141
    1AU     LIG  261  46.765  27.338   7.163
    1AU       S  262  47.833  27.698   6.929
    1AU     LIG  263  47.760  27.906   6.787
    1AU     LIG  264  47.618  28.085   6.702
    1AU     LIG  265  47.487  28.240   6.537
    1AU       S  266  47.314  26.640   7.449
    1AU     LIG  267  47.037  26.630   7.337
    1AU     LIG  268  46.794  26.612   7.332
    1AU     LIG  269  46.560  26.491   7.284
    1AU       S  270  47.505  26.959   8.097
    1AU     LIG  271  47.192  27.063   8.182
    1AU     LIG  272  47.075  27.275   8.094
    1AU     LIG  273  46.895  27.422   7.968
    1AU       S  274  49.497  26.075   7.606
    1AU     LIG  275  49.631  25.773   7.622
    1AU     LIG  276  49.859  25.707   7.697
    1AU     LIG  277  50.130  25.693   7.655
    1AU       S  278  49.341  26.014   8.066
    1AU     LIG  279  49.588  25.878   8.105
    1AU     LIG  280  49.718  25.790   8.287
    1AU     LIG  281  49.765  25.720   8.537
    1AU       S  282  49.754  26.225   7.519
    1AU     LIG  283  49.977  26.103   7.383
    1AU     LIG  284  50.218  26.104   7.343
    1AU     LIG  285  50.459  26.032   7.280
    1AU       S  286  49.446  26.082   6.925
    1AU     LIG  287  49.511  25.822   6.822
    1AU     LIG  288  49.384  25.599   6.774
    1AU     LIG  289  49.343  25.380   6.659
    1AU       S  290  47.811  26.257   6.817
    1AU     LIG  291  47.578  26.267   6.620
    1AU     LIG  292  47.401  26.150   6.527
    1AU     LIG  293  47.195  25.992   6.465
    1AU       S  294  47.396  26.349   7.583
    1AU     LIG  295  47.179  26.183   7.588
    1AU     LIG  296  46.952  26.135   7.482
    1AU     LIG  297  46.719  26.031   7.441
    1AU       S  298  47.808  26.128   8.082
    1AU     LIG  299  47.632  25.920   8.068
    1AU     LIG  300  47.512  25.734   8.174
    1AU     LIG  301  47.379  25.548   8.287
    1AU       S  302  47.338  26.644   7.713
    1AU     LIG  303  47.104  26.616   7.888
    1AU     LIG  304  46.865  26.524   7.835
    1AU     LIG  305  46.656  26.389   7.809
    1AU       S  306  48.007  27.843   7.989
    1AU     LIG  307  47.772  28.032   8.062
    1AU     LIG  308  47.547  27.995   8.206
    1AU     LIG  309  47.415  28.072   8.412
    1AU       S  310  48.750  28.029   8.053
    1AU     LIG  311  48.861  28.216   8.255
    1AU     LIG  312  48.749  28.406   8.380
    1AU     LIG  313  48.604  28.607   8.444
    1AU       S  314  48.512  28.164   7.925
    1AU     LIG  315  48.423  28.389   7.968
    1AU     LIG  316  48.397  28.648   7.984
    1AU     LIG  317  48.406  28.899   8.012
    1AU       S  318  48.677  28.007   7.131
    1AU     LIG  319  48.743  28.276   7.146
    1AU     LIG  320  48.777  28.508   7.130
    1AU     LIG  321  48.840  28.751   7.042
    1AU       S  322  49.187  27.519   8.364
    1AU     LIG  323  49.262  27.738   8.543
    1AU     LIG  324  49.363  27.819   8.736
    1AU     LIG  325  49.489  27.837   8.967
    1AU       S  326  48.889  28.080   7.734
    1AU     LIG  327  48.921  28.353   7.718
    1AU     LIG  328  48.896  28.563   7.875
    1AU     LIG  329  48.908  28.747   8.040
    1AU       S  330  48.610  25.670   8.062
    1AU     LIG  331  48.729  25.464   8.213
    1AU     LIG  332  48.717  25.257   8.334
    1AU     LIG  333  48.698  25.020   8.434
    1AU       S  334  49.093  25.903   7.902
    1AU     LIG  335  49.197  25.599   7.827
    1AU     LIG  336  49.357  25.465   7.925
    1AU     LIG  337  49.569  25.365   8.057
    1AU       S  338  48.358  25.584   7.896
    1AU     LIG  339  48.309  25.317   7.918
    1AU     LIG  340  48.331  25.099   8.033
    1AU     LIG  341  48.321  24.861   8.129
    1AU       S  342  47.952  26.210   8.386
    1AU     LIG  343  47.825  25.992   8.570
    1AU     LIG  344  47.688  25.818   8.640
    1AU     LIG  345  47.551  25.624   8.762
    1AU       S  346  48.676  25.680   7.221
    1AU     LIG  347  48.615  25.352   7.210
    1AU     LIG  348  48.600  25.156   7.090
    1AU     LIG  349  48.600  24.889   7.027
    1AU       S  350  48.690  25.633   7.758
    1AU     LIG  351  48.790  25.331   7.712
    1AU     LIG  352  48.803  25.134   7.838
    1AU     LIG  353  48.797  24.888   7.941
    1AU       S  354  48.529  27.927   6.835
    1AU     LIG  355  48.535  28.156   6.681
    1AU     LIG  356  48.658  28.372   6.641
    1AU     LIG  357  48.724  28.606   6.564
    1AU       S  358  49.368  27.703   6.958
    1AU     LIG  359  49.566  27.907   6.901
    1AU     LIG  360  49.725  27.981   6.721
    1AU     LIG  361  49.873  28.103   6.558
    1AU       S  362  48.326  27.948   7.112
    1AU     LIG  363  48.214  28.226   7.085
    1AU     LIG  364  48.271  28.452   6.998
    1AU     LIG  365  48.345  28.677   6.907
    1AU       S  366  47.888  27.358   6.654
    1AU     LIG  367  47.828  27.493   6.415
    1AU     LIG  368  47.838  27.723   6.319
    1AU     LIG  369  47.811  27.962   6.239
    1AU       S  370  47.833  26.026   7.029
    1AU     LIG  371  47.576  25.853   6.950
    1AU     LIG  372  47.489  25.711   6.784
    1AU     LIG  373  47.403  25.538   6.606
    1AU       S  374  48.746  25.719   6.941
    1AU     LIG  375  48.863  25.540   6.769
    1AU     LIG  376  48.836  25.330   6.646
    1AU     LIG  377  48.760  25.092   6.582
    1AU       S  378  48.939  25.720   7.324
    1AU     LIG  379  49.103  25.479   7.293
    1AU     LIG  380  49.110  25.273   7.128
    1AU     LIG  381  49.095  25.056   6.984
    1AU       S  382  49.200  26.229   6.673
    1AU     LIG  383  49.186  26.051   6.470
    1AU     LIG  384  49.176  25.823   6.376
    1AU     LIG  385  49.227  25.620   6.221
    2AU     AUC  386  18.842  -1.181   7.535
    2AU     AUC  387  19.094  -1.176   7.369
    2AU     AUC  388  19.083  -1.189   7.699
    2AU     AUC  389  18.572  -1.173   7.380
    2AU     AUC  390  18.598  -1.144   7.705
    2AU     AUC  391  18.681  -0.928   7.513
    2AU     AUC  392  19.028  -0.916   7.516
    2AU     AUC  393  18.663  -1.435   7.543
    2AU     AUC  394  18.994  -1.457   7.545
    2AU     AUC  395  18.836  -1.341   7.798
    2AU     AUC  396  18.855  -1.001   7.779
    2AU     AUC  397  18.829  -1.354   7.287
    2AU     AUC  398  18.849  -1.048   7.271
    2AU     AUC  399  19.397  -1.185   7.204
    2AU     AUC  400  19.405  -1.205   7.545
    2AU     AUC  401  19.363  -1.218   7.899
    2AU     AUC  402  18.270  -1.199   7.228
    2AU     AUC  403  18.269  -1.140   7.556
    2AU     AUC  404  18.298  -1.101   7.888
    2AU     AUC  405  18.516  -0.615   7.474
    2AU     AUC  406  18.876  -0.641   7.457
    2AU     AUC  407  19.242  -0.653   7.487
    2AU     AUC  408  18.459  -1.724   7.548
    2AU     AUC  409  18.810  -1.748   7.529
    2AU     AUC  410  19.166  -1.759   7.546
    2AU     AUC  411  18.795  -1.507   8.101
    2AU     AUC  412  18.832  -1.165   8.101
    2AU     AUC  413  18.889  -0.801   8.062
    2AU     AUC  414  18.860  -1.544   6.997
    2AU     AUC  415  18.808  -1.203   6.973
    2AU     AUC  416  18.805  -0.880   6.957
    2AU     AUC  417  19.077  -1.403   8.012
    2AU     AUC  418  19.133  -1.027   7.987
    2AU     AUC  419  19.132  -1.341   7.072
    2AU     AUC  420  19.097  -1.029   7.079
    2AU     AUC  421  18.543  -1.283   8.000
    2AU     AUC  422  18.590  -0.933   7.971
    2AU     AUC  423  18.554  -1.384   7.103
    2AU     AUC  424  18.508  -1.056   7.083
    2AU     AUC  425  19.335  -0.913   7.346
    2AU     AUC  426  19.301  -0.916   7.705
    2AU     AUC  427  18.376  -0.901   7.383
    2AU     AUC  428  18.421  -0.835   7.713
    2AU     AUC  429  19.298  -1.464   7.407
    2AU     AUC  430  19.246  -1.510   7.739
    2AU     AUC  431  18.377  -1.487   7.373
    2AU     AUC  432  18.403  -1.413   7.716
    2AU     AUC  433  18.741  -0.683   7.782
    2AU     AUC  434  19.080  -0.728   7.793
    2AU     AUC  435  18.628  -1.616   7.817
    2AU     AUC  436  18.946  -1.669   7.809
    2AU     AUC  437  18.651  -0.750   7.215
    2AU     AUC  438  19.016  -0.734   7.226
    2AU     AUC  439  18.682  -1.648   7.258
    2AU     AUC  440  19.042  -1.603   7.274
    2AU    AUSL  441  19.341  -1.313   8.316
    2AU    AUSL  442  19.091  -1.686   8.222
    2AU     AUL  443  19.398  -1.685   8.389
    2AU    AUSL  444  18.926  -1.371   8.460
    2AU    AUSL  445  18.688  -0.962   8.451
    2AU     AUL  446  18.924  -1.087   8.710
    2AU    AUSL  447  19.025  -1.014   8.204
    2AU    AUSL  448  19.476  -0.955   8.126
    2AU     AUL  449  19.294  -0.990   8.435
    2AU    AUSL  450  19.249  -1.153   6.840
    2AU    AUSL  451  19.110  -0.757   6.981
    2AU     AUL  452  19.324  -0.825   6.681
    2AU    AUSL  453  19.061  -1.475   6.612
    2AU    AUSL  454  19.568  -1.405   6.982
    2AU     AUL  455  19.436  -1.331   6.665
    2AU    AUSL  456  18.893  -0.971   6.670
    2AU    AUSL  457  18.715  -1.357   6.829
    2AU     AUL  458  18.846  -1.278   6.524
    2AU    AUSL  459  18.304  -1.000   8.243
    2AU    AUSL  460  18.667  -0.691   8.111
    2AU     AUL  461  18.504  -0.723   8.412
    2AU    AUSL  462  18.605  -1.313   8.191
    2AU    AUSL  463  18.156  -1.390   8.105
    2AU     AUL  464  18.213  -1.301   8.341
    2AU    AUSL  465  18.279  -1.375   6.795
    2AU    AUSL  466  18.528  -1.725   6.947
    2AU     AUL  467  18.552  -1.639   6.641
    2AU    AUSL  468  18.465  -1.007   6.675
    2AU    AUSL  469  18.185  -1.026   7.050
    2AU     AUL  470  18.068  -1.145   6.776
    2AU    AUSL  471  19.633  -0.718   7.476
    2AU    AUSL  472  19.508  -0.928   7.096
    2AU     AUL  473  19.803  -0.723   7.128
    2AU    AUSL  474  19.798  -1.114   7.367
    2AU    AUSL  475  19.747  -1.412   7.768
    2AU     AUL  476  20.009  -1.328   7.571
    2AU    AUSL  477  19.520  -1.059   7.718
    2AU    AUSL  478  19.478  -0.615   7.853
    2AU     AUL  479  19.726  -0.875   7.878
    2AU    AUSL  480  18.267  -0.538   7.522
    2AU    AUSL  481  18.304  -0.786   7.878
    2AU     AUL  482  17.995  -0.541   7.745
    2AU    AUSL  483  18.066  -0.917   7.444
    2AU    AUSL  484  18.219  -0.601   7.106
    2AU     AUL  485  17.983  -0.676   7.263
    2AU    AUSL  486  17.939  -0.995   7.888
    2AU    AUSL  487  17.906  -1.301   7.349
    2AU     AUL  488  17.784  -0.984   7.590
    2AU    AUSL  489  19.525  -1.761   7.615
    2AU    AUSL  490  19.351  -1.478   7.925
    2AU     AUL  491  19.658  -1.572   8.001
    2AU    AUSL  492  19.483  -1.391   7.397
    2AU    AUSL  493  19.473  -1.793   7.188
    2AU     AUL  494  19.717  -1.583   7.250
    2AU    AUSL  495  18.059  -1.680   7.553
    2AU    AUSL  496  18.270  -1.470   7.205
    2AU     AUL  497  17.920  -1.577   7.213
    2AU    AUSL  498  18.176  -1.279   7.694
    2AU    AUSL  499  18.366  -1.663   7.849
    2AU     AUL  500  17.985  -1.510   7.848
    2AU    AUSL  501  18.908  -0.355   7.966
    2AU    AUSL  502  18.453  -0.376   7.878
    2AU     AUL  503  18.675  -0.331   8.194
    2AU    AUSL  504  18.740  -0.500   7.591
    2AU    AUSL  505  18.991  -0.367   7.247
    2AU     AUL  506  18.760  -0.160   7.554
    2AU    AUSL  507  19.178  -0.424   7.623
    2AU    AUSL  508  19.172  -0.625   8.153
    2AU     AUL  509  19.291  -0.335   7.941
    2AU    AUSL  510  18.766  -1.821   7.970
    2AU    AUSL  511  19.190  -1.880   7.849
    2AU     AUL  512  18.951  -1.942   8.223
    2AU    AUSL  513  18.458  -2.043   7.699
    2AU    AUSL  514  18.486  -1.706   8.274
    2AU     AUL  515  18.494  -2.004   8.050
    2AU    AUSL  516  18.890  -2.118   7.667
    2AU    AUSL  517  18.683  -1.873   7.362
    2AU     AUL  518  18.566  -2.218   7.487
    2AU    AUSL  519  18.818  -0.482   6.843
    2AU    AUSL  520  19.390  -0.504   7.199
    2AU     AUL  521  19.134  -0.394   6.936
    2AU    AUSL  522  18.569  -0.388   7.210
    2AU    AUSL  523  18.592  -0.799   7.014
    2AU     AUL  524  18.499  -0.493   6.856
    2AU    AUSL  525  18.908  -1.925   6.981
    2AU    AUSL  526  18.275  -1.911   7.258
    2AU     AUL  527  18.571  -2.059   7.043
    2AU    AUSL  528  19.115  -1.901   7.381
    2AU    AUSL  529  19.138  -1.568   7.018
    2AU     AUL  530  19.232  -1.941   7.050
    2AU       S  531  19.363  -2.136   8.227
    2AU     LIG  532  19.410  -2.370   8.352
    2AU     LIG  533  19.532  -2.530   8.479
    2AU     LIG  534  19.690  -2.707   8.590
    2AU       S  535  19.397  -1.346   8.719
    2AU     LIG  536  19.560  -1.288   8.921
    2AU     LIG  537  19.650  -1.232   9.146
    2AU     LIG  538  19.756  -1.265   9.383
    2AU       S  539  19.075  -1.539   8.725
    2AU     LIG  540  19.131  -1.633   9.005
    2AU     LIG  541  19.297  -1.617   9.203
    2AU     LIG  542  19.431  -1.662   9.419
    2AU       S  543  18.450  -1.049   8.757
    2AU     LIG  544  18.413  -1.025   9.059
    2AU     LIG  545  18.295  -1.040   9.261
    2AU     LIG  546  18.147  -1.063   9.479
    2AU       S  547  18.975  -0.615   8.566
    2AU     LIG  548  19.092  -0.478   8.771
    2AU     LIG  549  19.305  -0.558   8.933
    2AU     LIG  550  19.528  -0.684   8.947
    2AU       S  551  19.667  -0.723   8.334
    2AU     LIG  552  19.850  -0.683   8.555
    2AU     LIG  553  19.990  -0.526   8.669
    2AU     LIG  554  20.166  -0.350   8.744
    2AU       S  555  19.268  -1.094   6.306
    2AU     LIG  556  19.483  -1.039   6.093
    2AU     LIG  557  19.617  -1.205   5.955
    2AU     LIG  558  19.677  -1.396   5.795
    2AU       S  559  19.483  -0.394   6.652
    2AU     LIG  560  19.529  -0.201   6.462
    2AU     LIG  561  19.692  -0.111   6.288
    2AU     LIG  562  19.857  -0.020   6.123
    2AU       S  563  19.743  -1.683   6.768
    2AU     LIG  564  19.905  -1.770   6.527
    2AU     LIG  565  19.919  -1.989   6.388
    2AU     LIG  566  19.935  -2.244   6.348
    2AU       S  567  19.189  -1.389   6.240
    2AU     LIG  568  19.211  -1.513   6.011
    2AU     LIG  569  19.198  -1.586   5.771
    2AU     LIG  570  19.269  -1.606   5.521
    2AU       S  571  18.455  -1.329   6.303
    2AU     LIG  572  18.510  -1.362   6.024
    2AU     LIG  573  18.516  -1.416   5.795
    2AU     LIG  574  18.440  -1.457   5.540
    2AU       S  575  19.025  -0.948   6.264
    2AU     LIG  576  18.926  -1.014   5.973
    2AU     LIG  577  19.068  -1.089   5.780
    2AU     LIG  578  19.261  -1.097   5.607
    2AU       S  579  18.174  -0.961   8.643
    2AU     LIG  580  17.963  -0.986   8.819
    2AU     LIG  581  17.909  -1.202   8.977
    2AU     LIG  582  17.839  -1.334   9.166
    2AU       S  583  18.205  -0.403   8.268
    2AU     LIG  584  18.119  -0.248   8.501
    2AU     LIG  585  17.978  -0.237   8.694
    2AU     LIG  586  17.809  -0.148   8.877
    2AU       S  587  17.928  -1.669   8.284
    2AU     LIG  588  17.682  -1.738   8.381
    2AU     LIG  589  17.537  -1.930   8.457
    2AU     LIG  590  17.410  -2.112   8.575
    2AU       S  591  18.499  -1.341   8.684
    2AU     LIG  592  18.422  -1.517   8.887
    2AU     LIG  593  18.309  -1.537   9.105
    2AU     LIG  594  18.264  -1.551   9.361
    2AU       S  595  18.193  -1.417   6.418
    2AU     LIG  596  18.014  -1.487   6.208
    2AU     LIG  597  18.003  -1.416   5.957
    2AU     LIG  598  17.991  -1.306   5.737
    2AU       S  599  18.227  -1.965   6.745
    2AU     LIG  600  18.153  -2.152   6.540
    2AU     LIG  601  17.995  -2.194   6.354
    2AU     LIG  602  17.811  -2.243   6.184
    2AU       S  603  17.857  -0.739   6.798
    2AU     LIG  604  17.650  -0.570   6.744
    2AU     LIG  605  17.598  -0.371   6.588
    2AU     LIG  606  17.574  -0.248   6.367
    2AU       S  607  18.355  -1.061   6.393
    2AU     LIG  608  18.188  -0.960   6.139
    2AU     LIG  609  18.271  -0.923   5.913
    2AU     LIG  610  18.379  -0.943   5.679
    2AU       S  611  19.714  -0.580   6.708
    2AU     LIG  612  19.929  -0.534   6.537
    2AU     LIG  613  20.086  -0.422   6.389
    2AU     LIG  614  20.267  -0.303   6.245
    2AU       S  615  19.966  -0.604   7.556
    2AU     LIG  616  20.179  -0.400   7.540
    2AU     LIG  617  20.423  -0.356   7.511
    2AU     LIG  618  20.676  -0.293   7.532
    2AU       S  619  20.142  -0.903   7.388
    2AU     LIG  620  20.411  -0.832   7.293
    2AU     LIG  621  20.651  -0.766   7.306
    2AU     LIG  622  20.873  -0.652   7.226
    2AU       S  623  20.006  -1.782   7.790
    2AU     LIG  624  20.241  -1.884   7.920
    2AU     LIG  625  20.494  -1.889   7.859
    2AU     LIG  626  20.743  -1.921   7.780
    2AU       S  627  19.703  -0.475   8.127
    2AU     LIG  628  19.898  -0.298   8.210
    2AU     LIG  629  19.943  -0.099   8.357
    2AU     LIG  630  19.962   0.080   8.540
    2AU       S  631  20.113  -0.871   7.663
    2AU     LIG  632  20.351  -0.800   7.814
    2AU     LIG  633  20.588  -0.733   7.811
    2AU     LIG  634  20.818  -0.643   7.878
    2AU       S  635  18.039  -0.626   8.203
    2AU     LIG  636  17.800  -0.634   8.380
    2AU     LIG  637  17.614  -0.495   8.444
    2AU     LIG  638  17.438  -0.376   8.594
    2AU       S  639  18.206  -0.202   7.463
    2AU     LIG  640  18.046   0.006   7.335
    2AU     LIG  641  17.800  -0.014   7.239
    2AU     LIG  642  17.612  -0.171   7.123
    2AU       S  643  17.642  -0.983   7.139
    2AU     LIG  644  17.404  -0.978   7.071
    2AU     LIG  645  17.149  -0.902   7.141
    2AU     LIG  646  17.004  -0.689   7.163
    2AU       S  647  18.072  -0.329   6.929
    2AU     LIG  648  17.999  -0.121   6.787
    2AU     LIG  649  17.857   0.058   6.702
    2AU     LIG  650  17.726   0.213   6.537
    2AU       S  651  17.553  -1.387   7.449
    2AU     LIG  652  17.276  -1.397   7.337
    2AU     LIG  653  17.033  -1.415   7.332
    2AU     LIG  654  16.799  -1.536   7.284
    2AU       S  655  17.744  -1.068   8.097
    2AU     LIG  656  17.431  -0.964   8.182
    2AU     LIG  657  17.314  -0.752   8.094
    2AU     LIG  658  17.134  -0.605   7.968
    2AU       S  659  19.736  -1.952   7.606
    2AU     LIG  660  19.870  -2.254   7.622
    2AU     LIG  661  20.098  -2.320   7.697
    2AU     LIG  662  20.369  -2.334   7.655
    2AU       S  663  19.580  -2.013   8.066
    2AU     LIG  664  19.827  -2.149   8.105
    2AU     LIG  665  19.957  -2.237   8.287
    2AU     LIG  666  20.004  -2.307   8.537
    2AU       S  667  19.993  -1.802   7.519
    2AU     LIG  668  20.216  -1.924   7.383
    2AU     LIG  669  20.457  -1.923   7.343
    2AU     LIG  670  20.698  -1.995   7.280
    2AU       S  671  19.685  -1.945   6.925
    2AU     LIG  672  19.750  -2.205   6.822
    2AU     LIG  673  19.623  -2.428   6.774
    2AU     LIG  674  19.582  -2.647   6.659
    2AU       S  675  18.050  -1.770   6.817
    2AU     LIG  676  17.817  -1.760   6.620
    2AU     LIG  677  17.640  -1.877   6.527
    2AU     LIG  678  17.434  -2.035   6.465
    2AU       S  679  17.635  -1.678   7.583
    2AU     LIG  680  17.418  -1.844   7.588
    2AU     LIG  681  17.191  -1.892   7.482
    2AU     LIG  682  16.958  -1.996   7.441
    2AU       S  683  18.047  -1.899   8.082
    2AU     LIG  684  17.871  -2.107   8.068
    2AU     LIG  685  17.751  -2.293   8.174
    2AU     LIG  686  17.618  -2.479   8.287
    2AU       S  687  17.577  -1.383   7.713
    2AU     LIG  688  17.343  -1.411   7.888
    2AU     LIG  689  17.104  -1.503   7.835
    2AU     LIG  690  16.895  -1.638   7.809
    2AU       S  691  18.246  -0.184   7.989
    2AU     LIG  692  18.011   0.005   8.062
    2AU     LIG  693  17.786  -0.032   8.206
    2AU     LIG  694  17.654   0.045   8.412
    2AU       S  695  18.989   0.002   8.053
    2AU     LIG  696  19.100   0.189   8.255
    2AU     LIG  697  18.988   0.379   8.380
    2AU     LIG  698  18.843   0.580   8.444
    2AU       S  699  18.751   0.137   7.925
    2AU     LIG  700  18.662   0.362   7.968
    2AU     LIG  701  18.636   0.621   7.984
    2AU     LIG  702  18.645   0.872   8.012
    2AU       S  703  18.916  -0.020   7.131
    2AU     LIG  704  18.982   0.249   7.146
    2AU     LIG  705  19.016   0.481   7.130
    2AU     LIG  706  19.079   0.724   7.042
    2AU       S  707  19.426  -0.508   8.364
    2AU     LIG  708  19.501  -0.289   8.543
    2AU     LIG  709  19.602  -0.208   8.736
    2AU     LIG  710  19.728  -0.190   8.967
    2AU       S  711  19.128   0.053   7.734
    2AU     LIG  712  19.160   0.326   7.718
    2AU     LIG  713  19.135   0.536   7.875
    2AU     LIG  714  19.147   0.720   8.040
    2AU       S  715  18.849  -2.357   8.062
    2AU     LIG  716  18.968  -2.563   8.213
    2AU     LIG  717  18.956  -2.770   8.334
    2AU     LIG  718  18.937  -3.007   8.434
    2AU       S  719  19.332  -2.124   7.902
    2AU     LIG  720  19.436  -2.428   7.827
    2AU     LIG  721  19.596  -2.562   7.925
    2AU     LIG  722  19.808  -2.662   8.057
    2AU       S  723  18.597  -2.443   7.896
    2AU     LIG  724  18.548  -2.710   7.918
    2AU     LIG  725  18.570  -2.928   8.033
    2AU     LIG  726  18.560  -3.166   8.129
    2AU       S  727  18.191  -1.817   8.386
    2AU     LIG  728  18.064  -2.035   8.570
    2AU     LIG  729  17.927  -2.209   8.640
    2AU     LIG  730  17.790  -2.403   8.762
    2AU       S  731  18.915  -2.347   7.221
    2AU     LIG  732  18.854  -2.675   7.210
    2AU     LIG  733  18.839  -2.871   7.090
    2AU     LIG  734  18.839  -3.138   7.027
    2AU       S  735  18.929  -2.394   7.758
    2AU     LIG  736  19.029  -2.696   7.712
    2AU     LIG  737  19.042  -2.893   7.838
    2AU     LIG  738  19.036  -3.139   7.941
    2AU       S  739  18.768  -0.100   6.835
    2AU     LIG  740  18.774   0.129   6.681
    2AU     LIG  741  18.897   0.345   6.641
    2AU     LIG  742  18.963   0.579   6.564
    2AU       S  743  19.607  -0.324   6.958
    2AU     LIG  744  19.805  -0.120   6.901
    2AU     LIG  745  19.964  -0.046   6.721
    2AU     LIG  746  20.112   0.076   6.558
    2AU       S  747  18.565  -0.079   7.112
    2AU     LIG  748  18.453   0.199   7.085
    2AU     LIG  749  18.510   0.425   6.998
    2AU     LIG  750  18.584   0.650   6.907
    2AU       S  751  18.127  -0.669   6.654
    2AU     LIG  752  18.067  -0.534   6.415
    2AU     LIG  753  18.077  -0.304   6.319
    2AU     LIG  754  18.050  -0.065   6.239
    2AU       S  755  18.072  -2.001   7.029
    2AU     LIG  756  17.815  -2.174   6.950
    2AU     LIG  757  17.728  -2.316   6.784
    2AU     LIG  758  17.642  -2.489   6.606
    2AU       S  759  18.985  -2.308   6.941
    2AU     LIG  760  19.102  -2.487   6.769
    2AU     LIG  761  19.075  -2.697   6.646
    2AU     LIG  762  18.999  -2.935   6.582
    2AU       S  763  19.178  -2.307   7.324
    2AU     LIG  764  19.342  -2.548   7.293
    2AU     LIG  765  19.349  -2.754   7.128
    2AU     LIG  766  19.334  -2.971   6.984
    2AU       S  767  19.439  -1.798   6.673
    2AU     LIG  768  19.425  -1.976   6.470
    2AU     LIG  769  19.415  -2.204   6.376
    2AU     LIG  770  19.466  -2.407   6.221
    3AU     AUC  771  34.521  22.275   7.535
    3AU     AUC  772  34.773  22.280   7.369
    3AU     AUC  773  34.762  22.267   7.699
    3AU     AUC  774  34.251  22.283   7.380
    3AU     AUC  775  34.277  22.312   7.705
    3AU     AUC  776  34.360  22.528   7.513
    3AU     AUC  777  34.707  22.540   7.516
    3AU     AUC  778  34.342  22.021   7.543
    3AU     AUC  779  34.673  21.999   7.545
    3AU     AUC  780  34.515  22.115   7.798
    3AU     AUC  781  34.534  22.455   7.779
    3AU     AUC  782  34.508  22.102   7.287
    3AU     AUC  783  34.528  22.408   7.271
    3AU     AUC  784  35.076  22.271   7.204
    3AU     AUC  785  35.084  22.251   7.545
    3AU     AUC  786  35.042  22.238   7.899
    3AU     AUC  787  33.949  22.257   7.228
    3AU     AUC  788  33.948  22.316   7.556
    3AU     AUC  789  33.977  22.355   7.888
    3AU     AUC  790  34.195  22.841   7.474
    3AU     AUC  791  34.555  22.815   7.457
    3AU     AUC  792  34.921  22.803   7.487
    3AU     AUC  793  34.138  21.732   7.548
    3AU     AUC  794  34.489  21.708   7.529
    3AU     AUC  795  34.845  21.697   7.546
    3AU     AUC  796  34.474  21.949   8.101
    3AU     AUC  797  34.511  22.291   8.101
    3AU     AUC  798  34.568  22.655   8.062
    3AU     AUC  799  34.539  21.912   6.997
    3AU     AUC  800  34.487  22.253   6.973
    3AU     AUC  801  34.484  22.576   6.957
    3AU     AUC  802  34.756  22.053   8.012
    3AU     AUC  803  34.812  22.429   7.987
    3AU     AUC  804  34.811  22.115   7.072
    3AU     AUC  805  34.776  22.427   7.079
    3AU     AUC  806  34.222  22.173   8.000
    3AU     AUC  807  34.269  22.523   7.971
    3AU     AUC  808  34.233  22.072   7.103
    3AU     AUC  809  34.187  22.400   7.083
    3AU     AUC  810  35.014  22.543   7.346
    3AU     AUC  811  34.980  22.540   7.705
    3AU     AUC  812  34.055  22.555   7.383
    3AU     AUC  813  34.100  22.621   7.713
    3AU     AUC  814  34.977  21.992   7.407
    3AU     AUC  815  34.925  21.946   7.739
    3AU     AUC  816  34.056  21.969   7.373
    3AU     AUC  817  34.082  22.043   7.716
    3AU     AUC  818  34.420  22.773   7.782
    3AU     AUC  819  34.759  22.728   7.793
    3AU     AUC  820  34.307  21.840   7.817
    3AU     AUC  821  34.625  21.787   7.809
    3AU     AUC  822  34.330  22.706   7.215
    3AU     AUC  823  34.695  22.722   7.226
    3AU     AUC  824  34.361  21.808   7.258
    3AU     AUC  825  34.721  21.853   7.274
    3AU    AUSL  826  35.020  22.143   8.316
    3AU    AUSL  827  34.770  21.770   8.222
    3AU     AUL  828  35.077  21.771   8.389
    3AU    AUSL  829  34.605  22.085   8.460
    3AU    AUSL  830  34.367  22.494   8.451
    3AU     AUL  831  34.603  22.369   8.710
    3AU    AUSL  832  34.704  22.442   8.204
    3AU    AUSL  833  35.155  22.501   8.126
    3AU     AUL  834  34.973  22.466   8.435
    3AU    AUSL  835  34.928  22.303   6.840
    3AU    AUSL  836  34.789  22.699   6.981
    3AU     AUL  837  35.003  22.631   6.681
    3AU    AUSL  838  34.740  21.981   6.612
    3AU    AUSL  839  35.247  22.051   6.982
    3AU     AUL  840  35.115  22.125   6.665
    3AU    AUSL  841  34.572  22.485   6.670
    3AU    AUSL  842  34.394  22.099   6.829
    3AU     AUL  843  34.525  22.178   6.524
    3AU    AUSL  844  33.983  22.456   8.243
    3AU    AUSL  845  34.346  22.765   8.111
    3AU     AUL  846  34.183  22.733   8.412
    3AU    AUSL  847  34.284  22.143   8.191
    3AU    AUSL  848  33.835  22.066   8.105
    3AU     AUL  849  33.892  22.155   8.341
    3AU    AUSL  850  33.958  22.081   6.795
    3AU    AUSL  851  34.207  21.731   6.947
    3AU     AUL  852  34.231  21.817   6.641
    3AU    AUSL  853  34.144  22.449   6.675
    3AU    AUSL  854  33.864  22.430   7.050
    3AU     AUL  855  33.747  22.311   6.776
    3AU    AUSL  856  35.312  22.738   7.476
    3AU    AUSL  857  35.187  22.528   7.096
    3AU     AUL  858  35.482  22.733   7.128
    3AU    AUSL  859  35.477  22.342   7.367
    3AU    AUSL  860  35.426  22.044   7.768
    3AU     AUL  861  35.688  22.128   7.571
    3AU    AUSL  862  35.199  22.397   7.718
    3AU    AUSL  863  35.157  22.841   7.853
    3AU     AUL  864  35.405  22.581   7.878
    3AU    AUSL  865  33.946  22.918   7.522
    3AU    AUSL  866  33.983  22.670   7.878
    3AU     AUL  867  33.674  22.915   7.745
    3AU    AUSL  868  33.745  22.539   7.444
    3AU    AUSL  869  33.898  22.855   7.106
    3AU     AUL  870  33.662  22.780   7.263
    3AU    AUSL  871  33.618  22.461   7.888
    3AU    AUSL  872  33.585  22.155   7.349
    3AU     AUL  873  33.463  22.472   7.590
    3AU    AUSL  874  35.204  21.695   7.615
    3AU    AUSL  875  35.030  21.978   7.925
    3AU     AUL  876  35.337  21.884   8.001
    3AU    AUSL  877  35.162  22.065   7.397
    3AU    AUSL  878  35.152  21.663   7.188
    3AU     AUL  879  35.396  21.873   7.250
    3AU    AUSL  880  33.738  21.776   7.553
    3AU    AUSL  881  33.949  21.986   7.205
    3AU     AUL  882  33.599  21.879   7.213
    3AU    AUSL  883  33.855  22.177   7.694
    3AU    AUSL  884  34.045  21.793   7.849
    3AU     AUL  885  33.664  21.946   7.848
    3AU    AUSL  886  34.587  23.101   7.966
    3AU    AUSL  887  34.132  23.080   7.878
    3AU     AUL  888  34.354  23.125   8.194
    3AU    AUSL  889  34.419  22.956   7.591
    3AU    AUSL  890  34.670  23.089   7.247
    3AU     AUL  891  34.439  23.296   7.554
    3AU    AUSL  892  34.857  23.032   7.623
    3AU    AUSL  893  34.851  22.831   8.153
    3AU     AUL  894  34.970  23.121   7.941
    3AU    AUSL  895  34.445  21.635   7.970
    3AU    AUSL  896  34.869  21.576   7.849
    3AU     AUL  897  34.630  21.514   8.223
    3AU    AUSL  898  34.137  21.413   7.699
    3AU    AUSL  899  34.165  21.750   8.274
    3AU     AUL  900  34.173  21.452   8.050
    3AU    AUSL  901  34.569  21.338   7.667
    3AU    AUSL  902  34.362  21.583   7.362
    3AU     AUL  903  34.245  21.238   7.487
    3AU    AUSL  904  34.497  22.974   6.843
    3AU    AUSL  905  35.069  22.952   7.199
    3AU     AUL  906  34.813  23.062   6.936
    3AU    AUSL  907  34.248  23.068   7.210
    3AU    AUSL  908  34.271  22.657   7.014
    3AU     AUL  909  34.178  22.963   6.856
    3AU    AUSL  910  34.587  21.531   6.981
    3AU    AUSL  911  33.954  21.545   7.258
    3AU     AUL  912  34.250  21.397   7.043
    3AU    AUSL  913  34.794  21.555   7.381
    3AU    AUSL  914  34.817  21.888   7.018
    3AU     AUL  915  34.911  21.515   7.050
    3AU       S  916  35.042  21.320   8.227
    3AU     LIG  917  35.089  21.086   8.352
    3AU     LIG  918  35.211  20.926   8.479
    3AU     LIG  919  35.369  20.749   8.590
    3AU       S  920  35.076  22.110   8.719
    3AU     LIG  921  35.239  22.168   8.921
    3AU     LIG  922  35.329  22.224   9.146
    3AU     LIG  923  35.435  22.191   9.383
    3AU       S  924  34.754  21.917   8.725
    3AU     LIG  925  34.810  21.823   9.005
    3AU     LIG  926  34.976  21.839   9.203
    3AU     LIG  927  35.110  21.794   9.419
    3AU       S  928  34.129  22.407   8.757
    3AU     LIG  929  34.092  22.431   9.059
    3AU     LIG  930  33.974  22.416   9.261
    3AU     LIG  931  33.826  22.393   9.479
    3AU       S  932  34.654  22.841   8.566
    3AU     LIG  933  34.771  22.978   8.771
    3AU     LIG  934  34.984  22.898   8.933
    3AU     LIG  935  35.207  22.772   8.947
    3AU       S  936  35.346  22.733   8.334
    3AU     LIG  937  35.529  22.773   8.555
    3AU     LIG  938  35.669  22.930   8.669
    3AU     LIG  939  35.845  23.106   8.744
    3AU       S  940  34.947  22.362   6.306
    3AU     LIG  941  35.162  22.417   6.093
    3AU     LIG  942  35.296  22.251   5.955
    3AU     LIG  943  35.356  22.060   5.795
    3AU       S  944  35.162  23.062   6.652
    3AU     LIG  945  35.208  23.255   6.462
    3AU     LIG  946  35.371  23.345   6.288
    3AU     LIG  947  35.536  23.436   6.123
    3AU       S  948  35.422  21.773   6.768
    3AU     LIG  949  35.584  21.686   6.527
    3AU     LIG  950  35.598  21.467   6.388
    3AU     LIG  951  35.614  21.212   6.348
    3AU       S  952  34.868  22.067   6.240
    3AU     LIG  953  34.890  21.943   6.011
    3AU     LIG  954  34.877  21.870   5.771
    3AU     LIG  955  34.948  21.850   5.521
    3AU       S  956  34.134  22.127   6.303
    3AU     LIG  957  34.189  22.094   6.024
    3AU     LIG  958  34.195  22.040   5.795
    3AU     LIG  959  34.119  21.999   5.540
    3AU       S  960  34.704  22.508   6.264
    3AU     LIG  961  34.605  22.442   5.973
    3AU     LIG  962  34.747  22.367   5.780
    3AU     LIG  963  34.940  22.359   5.607
    3AU       S  964  33.853  22.495   8.643
    3AU     LIG  965  33.642  22.470   8.819
    3AU     LIG  966  33.588  22.254   8.977
    3AU     LIG  967  33.518  22.122   9.166
    3AU       S  968  33.884  23.053   8.268
    3AU     LIG  969  33.798  23.208   8.501
    3AU     LIG  970  33.657  23.219   8.694
    3AU     LIG  971  33.488  23.308   8.877
    3AU       S  972  33.607  21.787   8.284
    3AU     LIG  973  33.361  21.718   8.381
    3AU     LIG  974  33.216  21.526   8.457
    3AU     LIG  975  33.089  21.344   8.575
    3AU       S  976  34.178  22.115   8.684
    3AU     LIG  977  34.101  21.939   8.887
    3AU     LIG  978  33.988  21.919   9.105
    3AU     LIG  979  33.943  21.905   9.361
    3AU       S  980  33.872  22.039   6.418
    3AU     LIG  981  33.693  21.969   6.208
    3AU     LIG  982  33.682  22.040   5.957
    3AU     LIG  983  33.670  22.150   5.737
    3AU       S  984  33.906  21.491   6.745
    3AU     LIG  985  33.832  21.304   6.540
    3AU     LIG  986  33.674  21.262   6.354
    3AU     LIG  987  33.490  21.213   6.184
    3AU       S  988  33.536  22.717   6.798
    3AU     LIG  989  33.329  22.886   6.744
    3AU     LIG  990  33.277  23.085   6.588
    3AU     LIG  991  33.253  23.208   6.367
    3AU       S  992  34.034  22.395   6.393
    3AU     LIG  993  33.867  22.496   6.139
    3AU     LIG  994  33.950  22.533   5.913
    3AU     LIG  995  34.058  22.513   5.679
    3AU       S  996  35.393  22.876   6.708
    3AU     LIG  997  35.608  22.922   6.537
    3AU     LIG  998  35.765  23.034   6.389
    3AU     LIG  999  35.946  23.153   6.245
    3AU       S 1000  35.645  22.852   7.556
    3AU     LIG 1001  35.858  23.056   7.540
    3AU     LIG 1002  36.102  23.100   7.511
    3AU     LIG 1003  36.355  23.163   7.532
    3AU       S 1004  35.821  22.553   7.388
    3AU     LIG 1005  36.090  22.624   7.293
    3AU     LIG 1006  36.330  22.690   7.306
    3AU     LIG 1007  36.552  22.804   7.226
    3AU       S 1008  35.685  21.674   7.790
    3AU     LIG 1009  35.920  21.572   7.920
    3AU     LIG 1010  36.173  21.567   7.859
    3AU     LIG 1011  36.422  21.535   7.780
    3AU       S 1012  35.382  22.981   8.127
    3AU     LIG 1013  35.577  23.158   8.210
    3AU     LIG 1014  35.622  23.357   8.357
    3AU     LIG 1015  35.641  23.536   8.540
    3AU       S 1016  35.792  22.585   7.663
    3AU     LIG 1017  36.030  22.656   7.814
    3AU     LIG 1018  36.267  22.723   7.811
    3AU     LIG 1019  36.497  22.813   7.878
    3AU       S 1020  33.718  22.830   8.203
    3AU     LIG 1021  33.479  22.822   8.380
    3AU     LIG 1022  33.293  22.961   8.444
    3AU     LIG 1023  33.117  23.080   8.594
    3AU       S 1024  33.885  23.254   7.463
    3AU     LIG 1025  33.725  23.462   7.335
    3AU     LIG 1026  33.479  23.442   7.239
    3AU     LIG 1027  33.291  23.285   7.123
    3AU       S 1028  33.321  22.473   7.139
    3AU     LIG 1029  33.083  22.478   7.071
    3AU     LIG 1030  32.828  22.554   7.141
    3AU     LIG 1031  32.683  22.767   7.163
    3AU       S 1032  33.751  23.127   6.929
    3AU     LIG 1033  33.678  23.335   6.787
    3AU     LIG 1034  33.536  23.514   6.702
    3AU     LIG 1035  33.405  23.669   6.537
    3AU       S 1036  33.232  22.069   7.449
    3AU     LIG 1037  32.955  22.059   7.337
    3AU     LIG 1038  32.712  22.041   7.332
    3AU     LIG 1039  32.478  21.920   7.284
    3AU       S 1040  33.423  22.388   8.097
    3AU     LIG 1041  33.110  22.492   8.182
    3AU     LIG 1042  32.993  22.704   8.094
    3AU     LIG 1043  32.813  22.851   7.968
    3AU       S 1044  35.415  21.504   7.606
    3AU     LIG 1045  35.549  21.202   7.622
    3AU     LIG 1046  35.777  21.136   7.697
    3AU     LIG 1047  36.048  21.122   7.655
    3AU       S 1048  35.259  21.443   8.066
    3AU     LIG 1049  35.506  21.307   8.105
    3AU     LIG 1050  35.636  21.219   8.287
    3AU     LIG 1051  35.683  21.149   8.537
    3AU       S 1052  35.672  21.654   7.519
    3AU     LIG 1053  35.895  21.532   7.383
    3AU     LIG 1054  36.136  21.533   7.343
    3AU     LIG 1055  36.377  21.461   7.280
    3AU       S 1056  35.364  21.511   6.925
    3AU     LIG 1057  35.429  21.251   6.822
    3AU     LIG 1058  35.302  21.028   6.774
    3AU     LIG 1059  35.261  20.809   6.659
    3AU       S 1060  33.729  21.686   6.817
    3AU     LIG 1061  33.496  21.696   6.620
    3AU     LIG 1062  33.319  21.579   6.527
    3AU     LIG 1063  33.113  21.421   6.465
    3AU       S 1064  33.314  21.778   7.583
    3AU     LIG 1065  33.097  21.612   7.588
    3AU     LIG 1066  32.870  21.564   7.482
    3AU     LIG 1067  32.637  21.460   7.441
    3AU       S 1068  33.726  21.557   8.082
    3AU     LIG 1069  33.550  21.349   8.068
    3AU     LIG 1070  33.430  21.163   8.174
    3AU     LIG 1071  33.297  20.977   8.287
    3AU       S 1072  33.256  22.073   7.713
    3AU     LIG 1073  33.022  22.045   7.888
    3AU     LIG 1074  32.783  21.953   7.835
    3AU     LIG 1075  32.574  21.818   7.809
    3AU       S 1076  33.925  23.272   7.989
    3AU     LIG 1077  33.690  23.461   8.062
    3AU     LIG 1078  33.465  23.424   8.206
    3AU     LIG 1079  33.333  23.501   8.412
    3AU       S 1080  34.668  23.458   8.053
    3AU     LIG 1081  34.779  23.645   8.255
    3AU     LIG 1082  34.667  23.835   8.380
    3AU     LIG 1083  34.522  24.036   8.444
    3AU       S 1084  34.430  23.593   7.925
    3AU     LIG 1085  34.341  23.818   7.968
    3AU     LIG 1086  34.315  24.077   7.984
    3AU     LIG 1087  34.324  24.328   8.012
    3AU       S 1088  34.595  23.436   7.131
    3AU     LIG 1089  34.661  23.705   7.146
    3AU     LIG 1090  34.695  23.937   7.130
    3AU     LIG 1091  34.758  24.180   7.042
    3AU       S 1092  35.105  22.948   8.364
    3AU     LIG 1093  35.180  23.167   8.543
    3AU     LIG 1094  35.281  23.248   8.736
    3AU     LIG 1095  35.407  23.266   8.967
    3AU       S 1096  34.807  23.509   7.734
    3AU     LIG 1097  34.839  23.782   7.718
    3AU     LIG 1098  34.814  23.992   7.875
    3AU     LIG 1099  34.826  24.176   8.040
    3AU       S 1100  34.528  21.099   8.062
    3AU     LIG 1101  34.647  20.893   8.213
    3AU     LIG 1102  34.635  20.686   8.334
    3AU     LIG 1103  34.616  20.449   8.434
    3AU       S 1104  35.011  21.332   7.902
    3AU     LIG 1105  35.115  21.028   7.827
    3AU     LIG 1106  35.275  20.894   7.925
    3AU     LIG 1107  35.487  20.794   8.057
    3AU       S 1108  34.276  21.013   7.896
    3AU     LIG 1109  34.227  20.746   7.918
    3AU     LIG 1110  34.249  20.528   8.033
    3AU     LIG 1111  34.239  20.290   8.129
    3AU       S 1112  33.870  21.639   8.386
    3AU     LIG 1113  33.743  21.421   8.570
    3AU     LIG 1114  33.606  21.247   8.640
    3AU     LIG 1115  33.469  21.053   8.762
    3AU       S 1116  34.594  21.109   7.221
    3AU     LIG 1117  34.533  20.781   7.210
    3AU     LIG 1118  34.518  20.585   7.090
    3AU     LIG 1119  34.518  20.318   7.027
    3AU       S 1120  34.608  21.062   7.758
    3AU     LIG 1121  34.708  20.760   7.712
    3AU     LIG 1122  34.721  20.563   7.838
    3AU     LIG 1123  34.715  20.317   7.941
    3AU       S 1124  34.447  23.356   6.835
    3AU     LIG 1125  34.453  23.585   6.681
    3AU     LIG 1126  34.576  23.801   6.641
    3AU     LIG 1127  34.642  24.035   6.564
    3AU       S 1128  35.286  23.132   6.958
    3AU     LIG 1129  35.484  23.336   6.901
    3AU     LIG 1130  35.643  23.410   6.721
    3AU     LIG 1131  35.791  23.532   6.558
    3AU       S 1132  34.244  23.377   7.112
    3AU     LIG 1133  34.132  23.655   7.085
    3AU     LIG 1134  34.189  23.881   6.998
    3AU     LIG 1135  34.263  24.106   6.907
    3AU       S 1136  33.806  22.787   6.654
    3AU     LIG 1137  33.746  22.922   6.415
    3AU     LIG 1138  33.756  23.152   6.319
    3AU     LIG 1139  33.729  23.391   6.239
    3AU       S 1140  33.751  21.455   7.029
    3AU     LIG 1141  33.494  21.282   6.950
    3AU     LIG 1142  33.407  21.140   6.784
    3AU     LIG 1143  33.321  20.967   6.606
    3AU       S 1144  34.664  21.148   6.941
    3AU     LIG 1145  34.781  20.969   6.769
    3AU     LIG 1146  34.754  20.759   6.646
    3AU     LIG 1147  34.678  20.521   6.582
    3AU       S 1148  34.857  21.149   7.324
    3AU     LIG 1149  35.021  20.908   7.293
    3AU     LIG 1150  35.028  20.702   7.128
    3AU     LIG 1151  35.013  20.485   6.984
    3AU       S 1152  35.118  21.658   6.673
    3AU     LIG 1153  35.104  21.480   6.470
    3AU     LIG 1154  35.094  21.252   6.376
    3AU     LIG 1155  35.145  21.049   6.221
    4AU     AUC 1156   3.718  41.299   7.535
    4AU     AUC 1157   3.970  41.304   7.369
    4AU     AUC 1158   3.959  41.291   7.699
    4AU     AUC 1159   3.448  41.307   7.380
    4AU     AUC 1160   3.474  41.336   7.705
    4AU     AUC 1161   3.557  41.552   7.513
    4AU     AUC 1162   3.904  41.564   7.516
    4AU     AUC 1163   3.539  41.045   7.543
    4AU     AUC 1164   3.870  41.023   7.545
    4AU     AUC 1165   3.712  41.139   7.798
    4AU     AUC 1166   3.731  41.479   7.779
    4AU     AUC 1167   3.705  41.126   7.287
    4AU     AUC 1168   3.725  41.432   7.271
    4AU     AUC 1169   4.273  41.295   7.204
    4AU     AUC 1170   4.281  41.275   7.545
    4AU     AUC 1171   4.239  41.262   7.899
    4AU     AUC 1172   3.146  41.281   7.228
    4AU     AUC 1173   3.145  41.340   7.556
    4AU     AUC 1174   3.174  41.379   7.888
    4AU     AUC 1175   3.392  41.865   7.474
    4AU     AUC 1176   3.752  41.839   7.457
    4AU     AUC 1177   4.118  41.827   7.487
    4AU     AUC 1178   3.335  40.756   7.548
    4AU     AUC 1179   3.686  40.732   7.529
    4AU     AUC 1180   4.042  40.721   7.546
    4AU     AUC 1181   3.671  40.973   8.101
    4AU     AUC 1182   3.708  41.315   8.101
    4AU     AUC 1183   3.765  41.679   8.062
    4AU     AUC 1184   3.736  40.936   6.997
    4AU     AUC 1185   3.684  41.277   6.973
    4AU     AUC 1186   3.681  41.600   6.957
    4AU     AUC 1187   3.953  41.077   8.012
    4AU     AUC 1188   4.009  41.453   7.987
    4AU     AUC 1189   4.008  41.139   7.072
    4AU     AUC 1190   3.973  41.451   7.079
    4AU     AUC 1191   3.419  41.197   8.000
    4AU     AUC 1192   3.466  41.547   7.971
    4AU     AUC 1193   3.430  41.096   7.103
    4AU     AUC 1194   3.384  41.424   7.083
    4AU     AUC 1195   4.211  41.567   7.346
    4AU     AUC 1196   4.177  41.564   7.705
    4AU     AUC 1197   3.252  41.579   7.383
    4AU     AUC 1198   3.297  41.645   7.713
    4AU     AUC 1199   4.174  41.016   7.407
    4AU     AUC 1200   4.122  40.970   7.739
    4AU     AUC 1201   3.253  40.993   7.373
    4AU     AUC 1202   3.279  41.067   7.716
    4AU     AUC 1203   3.617  41.797   7.782
    4AU     AUC 1204   3.956  41.752   7.793
    4AU     AUC 1205   3.504  40.864   7.817
    4AU     AUC 1206   3.822  40.811   7.809
    4AU     AUC 1207   3.527  41.730   7.215
    4AU     AUC 1208   3.892  41.746   7.226
    4AU     AUC 1209   3.558  40.832   7.258
    4AU     AUC 1210   3.918  40.877   7.274
    4AU    AUSL 1211   4.217  41.167   8.316
    4AU    AUSL 1212   3.967  40.794   8.222
    4AU     AUL 1213   4.274  40.795   8.389
    4AU    AUSL 1214   3.802  41.109   8.460
    4AU    AUSL 1215   3.564  41.518   8.451
    4AU     AUL 1216   3.800  41.393   8.710
    4AU    AUSL 1217   3.901  41.466   8.204
    4AU    AUSL 1218   4.352  41.525   8.126
    4AU     AUL 1219   4.170  41.490   8.435
    4AU    AUSL 1220   4.125  41.327   6.840
    4AU    AUSL 1221   3.986  41.723   6.981
    4AU     AUL 1222   4.200  41.655   6.681
    4AU    AUSL 1223   3.937  41.005   6.612
    4AU    AUSL 1224   4.444  41.075   6.982
    4AU     AUL 1225   4.312  41.149   6.665
    4AU    AUSL 1226   3.769  41.509   6.670
    4AU    AUSL 1227   3.591  41.123   6.829
    4AU     AUL 1228   3.722  41.202   6.524
    4AU    AUSL 1229   3.180  41.480   8.243
    4AU    AUSL 1230   3.543  41.789   8.111
    4AU     AUL 1231   3.380  41.757   8.412
    4AU    AUSL 1232   3.481  41.167   8.191
    4AU    AUSL 1233   3.032  41.090   8.105
    4AU     AUL 1234   3.089  41.179   8.341
    4AU    AUSL 1235   3.155  41.105   6.795
    4AU    AUSL 1236   3.404  40.755   6.947
    4AU     AUL 1237   3.428  40.841   6.641
    4AU    AUSL 1238   3.341  41.473   6.675
    4AU    AUSL 1239   3.061  41.454   7.050
    4AU     AUL 1240   2.944  41.335   6.776
    4AU    AUSL 1241   4.509  41.762   7.476
    4AU    AUSL 1242   4.384  41.552   7.096
    4AU     AUL 1243   4.679  41.757   7.128
    4AU    AUSL 1244   4.674  41.366   7.367
    4AU    AUSL 1245   4.623  41.068   7.768
    4AU     AUL 1246   4.885  41.152   7.571
    4AU    AUSL 1247   4.396  41.421   7.718
    4AU    AUSL 1248   4.354  41.865   7.853
    4AU     AUL 1249   4.602  41.605   7.878
    4AU    AUSL 1250   3.143  41.942   7.522
    4AU    AUSL 1251   3.180  41.694   7.878
    4AU     AUL 1252   2.871  41.939   7.745
    4AU    AUSL 1253   2.942  41.563   7.444
    4AU    AUSL 1254   3.095  41.879   7.106
    4AU     AUL 1255   2.859  41.804   7.263
    4AU    AUSL 1256   2.815  41.485   7.888
    4AU    AUSL 1257   2.782  41.179   7.349
    4AU     AUL 1258   2.660  41.496   7.590
    4AU    AUSL 1259   4.401  40.719   7.615
    4AU    AUSL 1260   4.227  41.002   7.925
    4AU     AUL 1261   4.534  40.908   8.001
    4AU    AUSL 1262   4.359  41.089   7.397
    4AU    AUSL 1263   4.349  40.687   7.188
    4AU     AUL 1264   4.593  40.897   7.250
    4AU    AUSL 1265   2.935  40.800   7.553
    4AU    AUSL 1266   3.146  41.010   7.205
    4AU     AUL 1267   2.796  40.903   7.213
    4AU    AUSL 1268   3.052  41.201   7.694
    4AU    AUSL 1269   3.242  40.817   7.849
    4AU     AUL 1270   2.861  40.970   7.848
    4AU    AUSL 1271   3.784  42.125   7.966
    4AU    AUSL 1272   3.329  42.104   7.878
    4AU     AUL 1273   3.551  42.149   8.194
    4AU    AUSL 1274   3.616  41.980   7.591
    4AU    AUSL 1275   3.867  42.113   7.247
    4AU     AUL 1276   3.636  42.320   7.554
    4AU    AUSL 1277   4.054  42.056   7.623
    4AU    AUSL 1278   4.048  41.855   8.153
    4AU     AUL 1279   4.167  42.145   7.941
    4AU    AUSL 1280   3.642  40.659   7.970
    4AU    AUSL 1281   4.066  40.600   7.849
    4AU     AUL 1282   3.827  40.538   8.223
    4AU    AUSL 1283   3.334  40.437   7.699
    4AU    AUSL 1284   3.362  40.774   8.274
    4AU     AUL 1285   3.370  40.476   8.050
    4AU    AUSL 1286   3.766  40.362   7.667
    4AU    AUSL 1287   3.559  40.607   7.362
    4AU     AUL 1288   3.442  40.262   7.487
    4AU    AUSL 1289   3.694  41.998   6.843
    4AU    AUSL 1290   4.266  41.976   7.199
    4AU     AUL 1291   4.010  42.086   6.936
    4AU    AUSL 1292   3.445  42.092   7.210
    4AU    AUSL 1293   3.468  41.681   7.014
    4AU     AUL 1294   3.375  41.987   6.856
    4AU    AUSL 1295   3.784  40.555   6.981
    4AU    AUSL 1296   3.151  40.569   7.258
    4AU     AUL 1297   3.447  40.421   7.043
    4AU    AUSL 1298   3.991  40.579   7.381
    4AU    AUSL 1299   4.014  40.912   7.018
    4AU     AUL 1300   4.108  40.539   7.050
    4AU       S 1301   4.239  40.344   8.227
    4AU     LIG 1302   4.286  40.110   8.352
    4AU     LIG 1303   4.408  39.950   8.479
    4AU     LIG 1304   4.566  39.773   8.590
    4AU       S 1305   4.273  41.134   8.719
    4AU     LIG 1306   4.436  41.192   8.921
    4AU     LIG 1307   4.526  41.248   9.146
    4AU     LIG 1308   4.632  41.215   9.383
    4AU       S 1309   3.951  40.941   8.725
    4AU     LIG 1310   4.007  40.847   9.005
    4AU     LIG 1311   4.173  40.863   9.203
    4AU     LIG 1312   4.307  40.818   9.419
    4AU       S 1313   3.326  41.431   8.757
    4AU     LIG 1314   3.289  41.455   9.059
    4AU     LIG 1315   3.171  41.440   9.261
    4AU     LIG 1316   3.023  41.417   9.479
    4AU       S 1317   3.851  41.865   8.566
    4AU     LIG 1318   3.968  42.002   8.771
    4AU     LIG 1319   4.181  41.922   8.933
    4AU     LIG 1320   4.404  41.796   8.947
    4AU       S 1321   4.543  41.757   8.334
    4AU     LIG 1322   4.726  41.797   8.555
    4AU     LIG 1323   4.866  41.954   8.669
    4AU     LIG 1324   5.042  42.130   8.744
    4AU       S 1325   4.144  41.386   6.306
    4AU     LIG 1326   4.359  41.441   6.093
    4AU     LIG 1327   4.493  41.275   5.955
    4AU     LIG 1328   4.553  41.084   5.795
    4AU       S 1329   4.359  42.086   6.652
    4AU     LIG 1330   4.405  42.279   6.462
    4AU     LIG 1331   4.568  42.369   6.288
    4AU     LIG 1332   4.733  42.460   6.123
    4AU       S 1333   4.619  40.797   6.768
    4AU     LIG 1334   4.781  40.710   6.527
    4AU     LIG 1335   4.795  40.491   6.388
    4AU     LIG 1336   4.811  40.236   6.348
    4AU       S 1337   4.065  41.091   6.240
    4AU     LIG 1338   4.087  40.967   6.011
    4AU     LIG 1339   4.074  40.894   5.771
    4AU     LIG 1340   4.145  40.874   5.521
    4AU       S 1341   3.331  41.151   6.303
    4AU     LIG 1342   3.386  41.118   6.024
    4AU     LIG 1343   3.392  41.064   5.795
    4AU     LIG 1344   3.316  41.023   5.540
    4AU       S 1345   3.901  41.532   6.264
    4AU     LIG 1346   3.802  41.466   5.973
    4AU     LIG 1347   3.944  41.391   5.780
    4AU     LIG 1348   4.137  41.383   5.607
    4AU       S 1349   3.050  41.519   8.643
    4AU     LIG 1350   2.839  41.494   8.819
    4AU     LIG 1351   2.785  41.278   8.977
    4AU     LIG 1352   2.715  41.146   9.166
    4AU       S 1353   3.081  42.077   8.268
    4AU     LIG 1354   2.995  42.232   8.501
    4AU     LIG 1355   2.854  42.243   8.694
    4AU     LIG 1356   2.685  42.332   8.877
    4AU       S 1357   2.804  40.811   8.284
    4AU     LIG 1358   2.558  40.742   8.381
    4AU     LIG 1359   2.413  40.550   8.457
    4AU     LIG 1360   2.286  40.368   8.575
    4AU       S 1361   3.375  41.139   8.684
    4AU     LIG 1362   3.298  40.963   8.887
    4AU     LIG 1363   3.185  40.943   9.105
    4AU     LIG 1364   3.140  40.929   9.361
    4AU       S 1365   3.069  41.063   6.418
    4AU     LIG 1366   2.890  40.993   6.208
    4AU     LIG 1367   2.879  41.064   5.957
    4AU     LIG 1368   2.867  41.174   5.737
    4AU       S 1369   3.103  40.515   6.745
    4AU     LIG 1370   3.029  40.328   6.540
    4AU     LIG 1371   2.871  40.286   6.354
    4AU     LIG 1372   2.687  40.237   6.184
    4AU       S 1373   2.733  41.741   6.798
    4AU     LIG 1374   2.526  41.910   6.744
    4AU     LIG 1375   2.474  42.109   6.588
    4AU     LIG 1376   2.450  42.232   6.367
    4AU       S 1377   3.231  41.419   6.393
    4AU     LIG 1378   3.064  41.520   6.139
    4AU     LIG 1379   3.147  41.557   5.913
    4AU     LIG 1380   3.255  41.537   5.679
    4AU       S 1381   4.590  41.900   6.708
    4AU     LIG 1382   4.805  41.946   6.537
    4AU     LIG 1383   4.962  42.058   6.389
    4AU     LIG 1384   5.143  42.177   6.245
    4AU       S 1385   4.842  41.876   7.556
    4AU     LIG 1386   5.055  42.080   7.540
    4AU     LIG 1387   5.299  42.124   7.511
    4AU     LIG 1388   5.552  42.187   7.532
    4AU       S 1389   5.018  41.577   7.388
    4AU     LIG 1390   5.287  41.648   7.293
    4AU     LIG 1391   5.527  41.714   7.306
    4AU     LIG 1392   5.749  41.828   7.226
    4AU       S 1393   4.882  40.698   7.790
    4AU     LIG 1394   5.117  40.596   7.920
    4AU     LIG 1395   5.370  40.591   7.859
    4AU     LIG 1396   5.619  40.559   7.780
    4AU       S 1397   4.579  42.005   8.127
    4AU     LIG 1398   4.774  42.182   8.210
    4AU     LIG 1399   4.819  42.381   8.357
    4AU     LIG 1400   4.838  42.560   8.540
    4AU       S 1401   4.989  41.609   7.663
    4AU     LIG 1402   5.227  41.680   7.814
    4AU     LIG 1403   5.464  41.747   7.811
    4AU     LIG 1404   5.694  41.837   7.878
    4AU       S 1405   2.915  41.854   8.203
    4AU     LIG 1406   2.676  41.846   8.380
    4AU     LIG 1407   2.490  41.985   8.444
    4AU     LIG 1408   2.314  42.104   8.594
    4AU       S 1409   3.082  42.278   7.463
    4AU     LIG 1410   2.922  42.486   7.335
    4AU     LIG 1411   2.676  42.466   7.239
    4AU     LIG 1412   2.488  42.309   7.123
    4AU       S 1413   2.518  41.497   7.139
    4AU     LIG 1414   2.280  41.502   7.071
    4AU     LIG 1415   2.025  41.578   7.141
    4AU     LIG 1416   1.880  41.791   7.163
    4AU       S 1417   2.948  42.151   6.929
    4AU     LIG 1418   2.875  42.359   6.787
    4AU     LIG 1419   2.733  42.538   6.702
    4AU     LIG 1420   2.602  42.693   6.537
    4AU       S 1421   2.429  41.093   7.449
    4AU     LIG 1422   2.152  41.083   7.337
    4AU     LIG 1423   1.909  41.065   7.332
    4AU     LIG 1424   1.675  40.944   7.284
    4AU       S 1425   2.620  41.412   8.097
    4AU     LIG 1426   2.307  41.516   8.182
    4AU     LIG 1427   2.190  41.728   8.094
    4AU     LIG 1428   2.010  41.875   7.968
    4AU       S 1429   4.612  40.528   7.606
    4AU     LIG 1430   4.746  40.226   7.622
    4AU     LIG 1431   4.974  40.160   7.697
    4AU     LIG 1432   5.245  40.146   7.655
    4AU       S 1433   4.456  40.467   8.066
    4AU     LIG 1434   4.703  40.331   8.105
    4AU     LIG 1435   4.833  40.243   8.287
    4AU     LIG 1436   4.880  40.173   8.537
    4AU       S 1437   4.869  40.678   7.519
    4AU     LIG 1438   5.092  40.556   7.383
    4AU     LIG 1439   5.333  40.557   7.343
    4AU     LIG 1440   5.574  40.485   7.280
    4AU       S 1441   4.561  40.535   6.925
    4AU     LIG 1442   4.626  40.275   6.822
    4AU     LIG 1443   4.499  40.052   6.774
    4AU     LIG 1444   4.458  39.833   6.659
    4AU       S 1445   2.926  40.710   6.817
    4AU     LIG 1446   2.693  40.720   6.620
    4AU     LIG 1447   2.516  40.603   6.527
    4AU     LIG 1448   2.310  40.445   6.465
    4AU       S 1449   2.511  40.802   7.583
    4AU     LIG 1450   2.294  40.636   7.588
    4AU     LIG 1451   2.067  40.588   7.482
    4AU     LIG 1452   1.834  40.484   7.441
    4AU       S 1453   2.923  40.581   8.082
    4AU     LIG 1454   2.747  40.373   8.068
    4AU     LIG 1455   2.627  40.187   8.174
    4AU     LIG 1456   2.494  40.001   8.287
    4AU       S 1457   2.453  41.097   7.713
    4AU     LIG 1458   2.219  41.069   7.888
    4AU     LIG 1459   1.980  40.977   7.835
    4AU     LIG 1460   1.771  40.842   7.809
    4AU       S 1461   3.122  42.296   7.989
    4AU     LIG 1462   2.887  42.485   8.062
    4AU     LIG 1463   2.662  42.448   8.206
    4AU     LIG 1464   2.530  42.525   8.412
    4AU       S 1465   3.865  42.482   8.053
    4AU     LIG 1466   3.976  42.669   8.255
    4AU     LIG 1467   3.864  42.859   8.380
    4AU     LIG 1468   3.719  43.060   8.444
    4AU       S 1469   3.627  42.617   7.925
    4AU     LIG 1470   3.538  42.842   7.968
    4AU     LIG 1471   3.512  43.101   7.984
    4AU     LIG 1472   3.521  43.352   8.012
    4AU       S 1473   3.792  42.460   7.131
    4AU     LIG 1474   3.858  42.729   7.146
    4AU     LIG 1475   3.892  42.961   7.130
    4AU     LIG 1476   3.955  43.204   7.042
    4AU       S 1477   4.302  41.972   8.364
    4AU     LIG 1478   4.377  42.191   8.543
    4AU     LIG 1479   4.478  42.272   8.736
    4AU     LIG 1480   4.604  42.290   8.967
    4AU       S 1481   4.004  42.533   7.734
    4AU     LIG 1482   4.036  42.806   7.718
    4AU     LIG 1483   4.011  43.016   7.875
    4AU     LIG 1484   4.023  43.200   8.040
    4AU       S 1485   3.725  40.123   8.062
    4AU     LIG 1486   3.844  39.917   8.213
    4AU     LIG 1487   3.832  39.710   8.334
    4AU     LIG 1488   3.813  39.473   8.434
    4AU       S 1489   4.208  40.356   7.902
    4AU     LIG 1490   4.312  40.052   7.827
    4AU     LIG 1491   4.472  39.918   7.925
    4AU     LIG 1492   4.684  39.818   8.057
    4AU       S 1493   3.473  40.037   7.896
    4AU     LIG 1494   3.424  39.770   7.918
    4AU     LIG 1495   3.446  39.552   8.033
    4AU     LIG 1496   3.436  39.314   8.129
    4AU       S 1497   3.067  40.663   8.386
    4AU     LIG 1498   2.940  40.445   8.570
    4AU     LIG 1499   2.803  40.271   8.640
    4AU     LIG 1500   2.666  40.077   8.762
    4AU       S 1501   3.791  40.133   7.221
    4AU     LIG 1502   3.730  39.805   7.210
    4AU     LIG 1503   3.715  39.609   7.090
    4AU     LIG 1504   3.715  39.342   7.027
    4AU       S 1505   3.805  40.086   7.758
    4AU     LIG 1506   3.905  39.784   7.712
    4AU     LIG 1507   3.918  39.587   7.838
    4AU     LIG 1508   3.912  39.341   7.941
    4AU       S 1509   3.644  42.380   6.835
    4AU     LIG 1510   3.650  42.609   6.681
    4AU     LIG 1511   3.773  42.825   6.641
    4AU     LIG 1512   3.839  43.059   6.564
    4AU       S 1513   4.483  42.156   6.958
    4AU     LIG 1514   4.681  42.360   6.901
    4AU     LIG 1515   4.840  42.434   6.721
    4AU     LIG 1516   4.988  42.556   6.558
    4AU       S 1517   3.441  42.401   7.112
    4AU     LIG 1518   3.329  42.679   7.085
    4AU     LIG 1519   3.386  42.905   6.998
    4AU     LIG 1520   3.460  43.130   6.907
    4AU       S 1521   3.003  41.811   6.654
    4AU     LIG 1522   2.943  41.946   6.415
    4AU     LIG 1523   2.953  42.176   6.319
    4AU     LIG 1524   2.926  42.415   6.239
    4AU       S 1525   2.948  40.479   7.029
    4AU     LIG 1526   2.691  40.306   6.950
    4AU     LIG 1527   2.604  40.164   6.784
    4AU     LIG 1528   2.518  39.991   6.606
    4AU       S 1529   3.861  40.172   6.941
    4AU     LIG 1530   3.978  39.993   6.769
    4AU     LIG 1531   3.951  39.783   6.646
    4AU     LIG 1532   3.875  39.545   6.582
    4AU       S 1533   4.054  40.173   7.324
    4AU     LIG 1534   4.218  39.932   7.293
    4AU     LIG 1535   4.225  39.726   7.128
    4AU     LIG 1536   4.210  39.509   6.984
    4AU       S 1537   4.315  40.682   6.673
    4AU     LIG 1538   4.301  40.504   6.470
    4AU     LIG 1539   4.291  40.276   6.376
    4AU     LIG 1540   4.342  40.073   6.221
    5AU     AUC 1541  25.044  45.090   7.535
    5AU     AUC 1542  25.296  45.095   7.369
    5AU     AUC 1543  25.285  45.082   7.699
    5AU     AUC 1544  24.774  45.098   7.380
    5AU     AUC 1545  24.800  45.127   7.705
    5AU     AUC 1546  24.883  45.343   7.513
    5AU     AUC 1547  25.230  45.355   7.516
    5AU     AUC 1548  24.865  44.836   7.543
    5AU     AUC 1549  25.196  44.814   7.545
    5AU     AUC 1550  25.038  44.930   7.798
    5AU     AUC 1551  25.057  45.270   7.779
    5AU     AUC 1552  25.031  44.917   7.287
    5AU     AUC 1553  25.051  45.223   7.271
    5AU     AUC 1554  25.599  45.086   7.204
    5AU     AUC 1555  25.607  45.066   7.545
    5AU     AUC 1556  25.565  45.053   7.899
    5AU     AUC 1557  24.472  45.072   7.228
    5AU     AUC 1558  24.471  45.131   7.556
    5AU     AUC 1559  24.500  45.170   7.888
    5AU     AUC 1560  24.718  45.656   7.474
    5AU     AUC 1561  25.078  45.630   7.457
    5AU     AUC 1562  25.444  45.618   7.487
    5AU     AUC 1563  24.661  44.547   7.548
    5AU     AUC 1564  25.012  44.523   7.529
    5AU     AUC 1565  25.368  44.512   7.546
    5AU     AUC 1566  24.997  44.764   8.101
    5AU     AUC 1567  25.034  45.106   8.101
    5AU     AUC 1568  25.091  45.470   8.062
    5AU     AUC 1569  25.062  44.727   6.997
    5AU     AUC 1570  25.010  45.068   6.973
    5AU     AUC 1571  25.007  45.391   6.957
    5AU     AUC 1572  25.279  44.868   8.012
    5AU     AUC 1573  25.335  45.244   7.987
    5AU     AUC 1574  25.334  44.930   7.072
    5AU     AUC 1575  25.299  45.242   7.079
    5AU     AUC 1576  24.745  44.988   8.000
    5AU     AUC 1577  24.792  45.338   7.971
    5AU     AUC 1578  24.756  44.887   7.103
    5AU     AUC 1579  24.710  45.215   7.083
    5AU     AUC 1580  25.537  45.358   7.346
    5AU     AUC 1581  25.503  45.355   7.705
    5AU     AUC 1582  24.578  45.370   7.383
    5AU     AUC 1583  24.623  45.436   7.713
    5AU     AUC 1584  25.500  44.807   7.407
    5AU     AUC 1585  25.448  44.761   7.739
    5AU     AUC 1586  24.579  44.784   7.373
    5AU     AUC 1587  24.605  44.858   7.716
    5AU     AUC 1588  24.943  45.588   7.782
    5AU     AUC 1589  25.282  45.543   7.793
    5AU     AUC 1590  24.830  44.655   7.817
    5AU     AUC 1591  25.148  44.602   7.809
    5AU     AUC 1592  24.853  45.521   7.215
    5AU     AUC 1593  25.218  45.537   7.226
    5AU     AUC 1594  24.884  44.623   7.258
    5AU     AUC 1595  25.244  44.668   7.274
    5AU    AUSL 1596  25.543  44.958   8.316
    5AU    AUSL 1597  25.293  44.585   8.222
    5AU     AUL 1598  25.600  44.586   8.389
    5AU    AUSL 1599  25.128  44.900   8.460
    5AU    AUSL 1600  24.890  45.309   8.451
    5AU     AUL 1601  25.126  45.184   8.710
    5AU    AUSL 1602  25.227  45.257   8.204
    5AU    AUSL 1603  25.678  45.316   8.126
    5AU     AUL 1604  25.496  45.281   8.435
    5AU    AUSL 1605  25.451  45.118   6.840
    5AU    AUSL 1606  25.312  45.514   6.981
    5AU     AUL 1607  25.526  45.446   6.681
    5AU    AUSL 1608  25.263  44.796   6.612
    5AU    AUSL 1609  25.770  44.866   6.982
    5AU     AUL 1610  25.638  44.940   6.665
    5AU    AUSL 1611  25.095  45.300   6.670
    5AU    AUSL 1612  24.917  44.914   6.829
    5AU     AUL 1613  25.048  44.993   6.524
    5AU    AUSL 1614  24.506  45.271   8.243
    5AU    AUSL 1615  24.869  45.580   8.111
    5AU     AUL 1616  24.706  45.548   8.412
    5AU    AUSL 1617  24.807  44.958   8.191
    5AU    AUSL 1618  24.358  44.881   8.105
    5AU     AUL 1619  24.415  44.970   8.341
    5AU    AUSL 1620  24.481  44.896   6.795
    5AU    AUSL 1621  24.730  44.546   6.947
    5AU     AUL 1622  24.754  44.632   6.641
    5AU    AUSL 1623  24.667  45.264   6.675
    5AU    AUSL 1624  24.387  45.245   7.050
    5AU     AUL 1625  24.270  45.126   6.776
    5AU    AUSL 1626  25.835  45.553   7.476
    5AU    AUSL 1627  25.710  45.343   7.096
    5AU     AUL 1628  26.005  45.548   7.128
    5AU    AUSL 1629  26.000  45.157   7.367
    5AU    AUSL 1630  25.949  44.859   7.768
    5AU     AUL 1631  26.211  44.943   7.571
    5AU    AUSL 1632  25.722  45.212   7.718
    5AU    AUSL 1633  25.680  45.656   7.853
    5AU     AUL 1634  25.928  45.396   7.878
    5AU    AUSL 1635  24.469  45.733   7.522
    5AU    AUSL 1636  24.506  45.485   7.878
    5AU     AUL 1637  24.197  45.730   7.745
    5AU    AUSL 1638  24.268  45.354   7.444
    5AU    AUSL 1639  24.421  45.670   7.106
    5AU     AUL 1640  24.185  45.595   7.263
    5AU    AUSL 1641  24.141  45.276   7.888
    5AU    AUSL 1642  24.108  44.970   7.349
    5AU     AUL 1643  23.986  45.287   7.590
    5AU    AUSL 1644  25.727  44.510   7.615
    5AU    AUSL 1645  25.553  44.793   7.925
    5AU     AUL 1646  25.860  44.699   8.001
    5AU    AUSL 1647  25.685  44.880   7.397
    5AU    AUSL 1648  25.675  44.478   7.188
    5AU     AUL 1649  25.919  44.688   7.250
    5AU    AUSL 1650  24.261  44.591   7.553
    5AU    AUSL 1651  24.472  44.801   7.205
    5AU     AUL 1652  24.122  44.694   7.213
    5AU    AUSL 1653  24.378  44.992   7.694
    5AU    AUSL 1654  24.568  44.608   7.849
    5AU     AUL 1655  24.187  44.761   7.848
    5AU    AUSL 1656  25.110  45.916   7.966
    5AU    AUSL 1657  24.655  45.895   7.878
    5AU     AUL 1658  24.877  45.940   8.194
    5AU    AUSL 1659  24.942  45.771   7.591
    5AU    AUSL 1660  25.193  45.904   7.247
    5AU     AUL 1661  24.962  46.111   7.554
    5AU    AUSL 1662  25.380  45.847   7.623
    5AU    AUSL 1663  25.374  45.646   8.153
    5AU     AUL 1664  25.493  45.936   7.941
    5AU    AUSL 1665  24.968  44.450   7.970
    5AU    AUSL 1666  25.392  44.391   7.849
    5AU     AUL 1667  25.153  44.329   8.223
    5AU    AUSL 1668  24.660  44.228   7.699
    5AU    AUSL 1669  24.688  44.565   8.274
    5AU     AUL 1670  24.696  44.267   8.050
    5AU    AUSL 1671  25.092  44.153   7.667
    5AU    AUSL 1672  24.885  44.398   7.362
    5AU     AUL 1673  24.768  44.053   7.487
    5AU    AUSL 1674  25.020  45.789   6.843
    5AU    AUSL 1675  25.592  45.767   7.199
    5AU     AUL 1676  25.336  45.877   6.936
    5AU    AUSL 1677  24.771  45.883   7.210
    5AU    AUSL 1678  24.794  45.472   7.014
    5AU     AUL 1679  24.701  45.778   6.856
    5AU    AUSL 1680  25.110  44.346   6.981
    5AU    AUSL 1681  24.477  44.360   7.258
    5AU     AUL 1682  24.773  44.212   7.043
    5AU    AUSL 1683  25.317  44.370   7.381
    5AU    AUSL 1684  25.340  44.703   7.018
    5AU     AUL 1685  25.434  44.330   7.050
    5AU       S 1686  25.565  44.135   8.227
    5AU     LIG 1687  25.612  43.901   8.352
    5AU     LIG 1688  25.734  43.741   8.479
    5AU     LIG 1689  25.892  43.564   8.590
    5AU       S 1690  25.599  44.925   8.719
    5AU     LIG 1691  25.762  44.983   8.921
    5AU     LIG 1692  25.852  45.039   9.146
    5AU     LIG 1693  25.958  45.006   9.383
    5AU       S 1694  25.277  44.732   8.725
    5AU     LIG 1695  25.333  44.638   9.005
    5AU     LIG 1696  25.499  44.654   9.203
    5AU     LIG 1697  25.633  44.609   9.419
    5AU       S 1698  24.652  45.222   8.757
    5AU     LIG 1699  24.615  45.246   9.059
    5AU     LIG 1700  24.497  45.231   9.261
    5AU     LIG 1701  24.349  45.208   9.479
    5AU       S 1702  25.177  45.656   8.566
    5AU     LIG 1703  25.294  45.793   8.771
    5AU     LIG 1704  25.507  45.713   8.933
    5AU     LIG 1705  25.730  45.587   8.947
    5AU       S 1706  25.869  45.548   8.334
    5AU     LIG 1707  26.052  45.588   8.555
    5AU     LIG 1708  26.192  45.745   8.669
    5AU     LIG 1709  26.368  45.921   8.744
    5AU       S 1710  25.470  45.177   6.306
    5AU     LIG 1711  25.685  45.232   6.093
    5AU     LIG 1712  25.819  45.066   5.955
    5AU     LIG 1713  25.879  44.875   5.795
    5AU       S 1714  25.685  45.877   6.652
    5AU     LIG 1715  25.731  46.070   6.462
    5AU     LIG 1716  25.894  46.160   6.288
    5AU     LIG 1717  26.059  46.251   6.123
    5AU       S 1718  25.945  44.588   6.768
    5AU     LIG 1719  26.107  44.501   6.527
    5AU     LIG 1720  26.121  44.282   6.388
    5AU     LIG 1721  26.137  44.027   6.348
    5AU       S 1722  25.391  44.882   6.240
    5AU     LIG 1723  25.413  44.758   6.011
    5AU     LIG 1724  25.400  44.685   5.771
    5AU     LIG 1725  25.471  44.665   5.521
    5AU       S 1726  24.657  44.942   6.303
    5AU     LIG 1727  24.712  44.909   6.024
    5AU     LIG 1728  24.718  44.855   5.795
    5AU     LIG 1729  24.642  44.814   5.540
    5AU       S 1730  25.227  45.323   6.264
    5AU     LIG 1731  25.128  45.257   5.973
    5AU     LIG 1732  25.270  45.182   5.780
    5AU     LIG 1733  25.463  45.174   5.607
    5AU       S 1734  24.376  45.310   8.643
    5AU     LIG 1735  24.165  45.285   8.819
    5AU     LIG 1736  24.111  45.069   8.977
    5AU     LIG 1737  24.041  44.937   9.166
    5AU       S 1738  24.407  45.868   8.268
    5AU     LIG 1739  24.321  46.023   8.501
    5AU     LIG 1740  24.180  46.034   8.694
    5AU     LIG 1741  24.011  46.123   8.877
    5AU       S 1742  24.130  44.602   8.284
    5AU     LIG 1743  23.884  44.533   8.381
    5AU     LIG 1744  23.739  44.341   8.457
    5AU     LIG 1745  23.612  44.159   8.575
    5AU       S 1746  24.701  44.930   8.684
    5AU     LIG 1747  24.624  44.754   8.887
    5AU     LIG 1748  24.511  44.734   9.105
    5AU     LIG 1749  24.466  44.720   9.361
    5AU       S 1750  24.395  44.854   6.418
    5AU     LIG 1751  24.216  44.784   6.208
    5AU     LIG 1752  24.205  44.855   5.957
    5AU     LIG 1753  24.193  44.965   5.737
    5AU       S 1754  24.429  44.306   6.745
    5AU     LIG 1755  24.355  44.119   6.540
    5AU     LIG 1756  24.197  44.077   6.354
    5AU     LIG 1757  24.013  44.028   6.184
    5AU       S 1758  24.059  45.532   6.798
    5AU     LIG 1759  23.852  45.701   6.744
    5AU     LIG 1760  23.800  45.900   6.588
    5AU     LIG 1761  23.776  46.023   6.367
    5AU       S 1762  24.557  45.210   6.393
    5AU     LIG 1763  24.390  45.311   6.139
    5AU     LIG 1764  24.473  45.348   5.913
    5AU     LIG 1765  24.581  45.328   5.679
    5AU       S 1766  25.916  45.691   6.708
    5AU     LIG 1767  26.131  45.737   6.537
    5AU     LIG 1768  26.288  45.849   6.389
    5AU     LIG 1769  26.469  45.968   6.245
    5AU       S 1770  26.168  45.667   7.556
    5AU     LIG 1771  26.381  45.871   7.540
    5AU     LIG 1772  26.625  45.915   7.511
    5AU     LIG 1773  26.878  45.978   7.532
    5AU       S 1774  26.344  45.368   7.388
    5AU     LIG 1775  26.613  45.439   7.293
    5AU     LIG 1776  26.853  45.505   7.306
    5AU     LIG 1777  27.075  45.619   7.226
    5AU       S 1778  26.208  44.489   7.790
    5AU     LIG 1779  26.443  44.387   7.920
    5AU     LIG 1780  26.696  44.382   7.859
    5AU     LIG 1781  26.945  44.350   7.780
    5AU       S 1782  25.905  45.796   8.127
    5AU     LIG 1783  26.100  45.973   8.210
    5AU     LIG 1784  26.145  46.172   8.357
    5AU     LIG 1785  26.164  46.351   8.540
    5AU       S 1786  26.315  45.400   7.663
    5AU     LIG 1787  26.553  45.471   7.814
    5AU     LIG 1788  26.790  45.538   7.811
    5AU     LIG 1789  27.020  45.628   7.878
    5AU       S 1790  24.241  45.645   8.203
    5AU     LIG 1791  24.002  45.637   8.380
    5AU     LIG 1792  23.816  45.776   8.444
    5AU     LIG 1793  23.640  45.895   8.594
    5AU       S 1794  24.408  46.069   7.463
    5AU     LIG 1795  24.248  46.277   7.335
    5AU     LIG 1796  24.002  46.257   7.239
    5AU     LIG 1797  23.814  46.100   7.123
    5AU       S 1798  23.844  45.288   7.139
    5AU     LIG 1799  23.606  45.293   7.071
    5AU     LIG 1800  23.351  45.369   7.141
    5AU     LIG 1801  23.206  45.582   7.163
    5AU       S 1802  24.274  45.942   6.929
    5AU     LIG 1803  24.201  46.150   6.787
    5AU     LIG 1804  24.059  46.329   6.702
    5AU     LIG 1805  23.928  46.484   6.537
    5AU       S 1806  23.755  44.884   7.449
    5AU     LIG 1807  23.478  44.874   7.337
    5AU     LIG 1808  23.235  44.856   7.332
    5AU     LIG 1809  23.001  44.735   7.284
    5AU       S 1810  23.946  45.203   8.097
    5AU     LIG 1811  23.633  45.307   8.182
    5AU     LIG 1812  23.516  45.519   8.094
    5AU     LIG 1813  23.336  45.666   7.968
    5AU       S 1814  25.938  44.319   7.606
    5AU     LIG 1815  26.072  44.017   7.622
    5AU     LIG 1816  26.300  43.951   7.697
    5AU     LIG 1817  26.571  43.937   7.655
    5AU       S 1818  25.782  44.258   8.066
    5AU     LIG 1819  26.029  44.122   8.105
    5AU     LIG 1820  26.159  44.034   8.287
    5AU     LIG 1821  26.206  43.964   8.537
    5AU       S 1822  26.195  44.469   7.519
    5AU     LIG 1823  26.418  44.347   7.383
    5AU     LIG 1824  26.659  44.348   7.343
    5AU     LIG 1825  26.900  44.276   7.280
    5AU       S 1826  25.887  44.326   6.925
    5AU     LIG 1827  25.952  44.066   6.822
    5AU     LIG 1828  25.825  43.843   6.774
    5AU     LIG 1829  25.784  43.624   6.659
    5AU       S 1830  24.252  44.501   6.817
    5AU     LIG 1831  24.019  44.511   6.620
    5AU     LIG 1832  23.842  44.394   6.527
    5AU     LIG 1833  23.636  44.236   6.465
    5AU       S 1834  23.837  44.593   7.583
    5AU     LIG 1835  23.620  44.427   7.588
    5AU     LIG 1836  23.393  44.379   7.482
    5AU     LIG 1837  23.160  44.275   7.441
    5AU       S 1838  24.249  44.372   8.082
    5AU     LIG 1839  24.073  44.164   8.068
    5AU     LIG 1840  23.953  43.978   8.174
    5AU     LIG 1841  23.820  43.792   8.287
    5AU       S 1842  23.779  44.888   7.713
    5AU     LIG 1843  23.545  44.860   7.888
    5AU     LIG 1844  23.306  44.768   7.835
    5AU     LIG 1845  23.097  44.633   7.809
    5AU       S 1846  24.448  46.087   7.989
    5AU     LIG 1847  24.213  46.276   8.062
    5AU     LIG 1848  23.988  46.239   8.206
    5AU     LIG 1849  23.856  46.316   8.412
    5AU       S 1850  25.191  46.273   8.053
    5AU     LIG 1851  25.302  46.460   8.255
    5AU     LIG 1852  25.190  46.650   8.380
    5AU     LIG 1853  25.045  46.851   8.444
    5AU       S 1854  24.953  46.408   7.925
    5AU     LIG 1855  24.864  46.633   7.968
    5AU     LIG 1856  24.838  46.892   7.984
    5AU     LIG 1857  24.847  47.143   8.012
    5AU       S 1858  25.118  46.251   7.131
    5AU     LIG 1859  25.184  46.520   7.146
    5AU     LIG 1860  25.218  46.752   7.130
    5AU     LIG 1861  25.281  46.995   7.042
    5AU       S 1862  25.628  45.763   8.364
    5AU     LIG 1863  25.703  45.982   8.543
    5AU     LIG 1864  25.804  46.063   8.736
    5AU     LIG 1865  25.930  46.081   8.967
    5AU       S 1866  25.330  46.324   7.734
    5AU     LIG 1867  25.362  46.597   7.718
    5AU     LIG 1868  25.337  46.807   7.875
    5AU     LIG 1869  25.349  46.991   8.040
    5AU       S 1870  25.051  43.914   8.062
    5AU     LIG 1871  25.170  43.708   8.213
    5AU     LIG 1872  25.158  43.501   8.334
    5AU     LIG 1873  25.139  43.264   8.434
    5AU       S 1874  25.534  44.147   7.902
    5AU     LIG 1875  25.638  43.843   7.827
    5AU     LIG 1876  25.798  43.709   7.925
    5AU     LIG 1877  26.010  43.609   8.057
    5AU       S 1878  24.799  43.828   7.896
    5AU     LIG 1879  24.750  43.561   7.918
    5AU     LIG 1880  24.772  43.343   8.033
    5AU     LIG 1881  24.762  43.105   8.129
    5AU       S 1882  24.393  44.454   8.386
    5AU     LIG 1883  24.266  44.236   8.570
    5AU     LIG 1884  24.129  44.062   8.640
    5AU     LIG 1885  23.992  43.868   8.762
    5AU       S 1886  25.117  43.924   7.221
    5AU     LIG 1887  25.056  43.596   7.210
    5AU     LIG 1888  25.041  43.400   7.090
    5AU     LIG 1889  25.041  43.133   7.027
    5AU       S 1890  25.131  43.877   7.758
    5AU     LIG 1891  25.231  43.575   7.712
    5AU     LIG 1892  25.244  43.378   7.838
    5AU     LIG 1893  25.238  43.132   7.941
    5AU       S 1894  24.970  46.171   6.835
    5AU     LIG 1895  24.976  46.400   6.681
    5AU     LIG 1896  25.099  46.616   6.641
    5AU     LIG 1897  25.165  46.850   6.564
    5AU       S 1898  25.809  45.947   6.958
    5AU     LIG 1899  26.007  46.151   6.901
    5AU     LIG 1900  26.166  46.225   6.721
    5AU     LIG 1901  26.314  46.347   6.558
    5AU       S 1902  24.767  46.192   7.112
    5AU     LIG 1903  24.655  46.470   7.085
    5AU     LIG 1904  24.712  46.696   6.998
    5AU     LIG 1905  24.786  46.921   6.907
    5AU       S 1906  24.329  45.602   6.654
    5AU     LIG 1907  24.269  45.737   6.415
    5AU     LIG 1908  24.279  45.967   6.319
    5AU     LIG 1909  24.252  46.206   6.239
    5AU       S 1910  24.274  44.270   7.029
    5AU     LIG 1911  24.017  44.097   6.950
    5AU     LIG 1912  23.930  43.955   6.784
    5AU     LIG 1913  23.844  43.782   6.606
    5AU       S 1914  25.187  43.963   6.941
    5AU     LIG 1915  25.304  43.784   6.769
    5AU     LIG 1916  25.277  43.574   6.646
    5AU     LIG 1917  25.201  43.336   6.582
    5AU       S 1918  25.380  43.964   7.324
    5AU     LIG 1919  25.544  43.723   7.293
    5AU     LIG 1920  25.551  43.517   7.128
    5AU     LIG 1921  25.536  43.300   6.984
    5AU       S 1922  25.641  44.473   6.673
    5AU     LIG 1923  25.627  44.295   6.470
    5AU     LIG 1924  25.617  44.067   6.376
    5AU     LIG 1925  25.668  43.864   6.221
    6AU     AUC 1926  14.286   7.327   7.535
    6AU     AUC 1927  14.538   7.332   7.369
    6AU     AUC 1928  14.527   7.319   7.699
    6AU     AUC 1929  14.016   7.335   7.380
    6AU     AUC 1930  14.042   7.364   7.705
    6AU     AUC 1931  14.125   7.580   7.513
    6AU     AUC 1932  14.472   7.592   7.516
    6AU     AUC 1933  14.107   7.073   7.543
    6AU     AUC 1934  14.438   7.051   7.545
    6AU     AUC 1935  14.280   7.167   7.798
    6AU     AUC 1936  14.299   7.507   7.779
    6AU     AUC 1937  14.273   7.154   7.287
    6AU     AUC 1938  14.293   7.460   7.271
    6AU     AUC 1939  14.841   7.323   7.204
    6AU     AUC 1940  14.849   7.303   7.545
    6AU     AUC 1941  14.807   7.290   7.899
    6AU     AUC 1942  13.714   7.309   7.228
    6AU     AUC 1943  13.713   7.368   7.556
    6AU     AUC 1944  13.742   7.407   7.888
    6AU     AUC 1945  13.960   7.893   7.474
    6AU     AUC 1946  14.320   7.867   7.457
    6AU     AUC 1947  14.686   7.855   7.487
    6AU     AUC 1948  13.903   6.784   7.548
    6AU     AUC 1949  14.254   6.760   7.529
    6AU     AUC 1950  14.610   6.749   7.546
    6AU     AUC 1951  14.239   7.001   8.101
    6AU     AUC 1952  14.276   7.343   8.101
    6AU     AUC 1953  14.333   7.707   8.062
    6AU     AUC 1954  14.304   6.964   6.997
    6AU     AUC 1955  14.252   7.305   6.973
    6AU     AUC 1956  14.249   7.628   6.957
    6AU     AUC 1957  14.521   7.105   8.012
    6AU     AUC 1958  14.577   7.481   7.987
    6AU     AUC 1959  14.576   7.167   7.072
    6AU     AUC 1960  14.541   7.479   7.079
    6AU     AUC 1961  13.987   7.225   8.000
    6AU     AUC 1962  14.034   7.575   7.971
    6AU     AUC 1963  13.998   7.124   7.103
    6AU     AUC 1964  13.952   7.452   7.083
    6AU     AUC 1965  14.779   7.595   7.346
    6AU     AUC 1966  14.745   7.592   7.705
    6AU     AUC 1967  13.820   7.607   7.383
    6AU     AUC 1968  13.865   7.673   7.713
    6AU     AUC 1969  14.742   7.044   7.407
    6AU     AUC 1970  14.690   6.998   7.739
    6AU     AUC 1971  13.821   7.021   7.373
    6AU     AUC 1972  13.847   7.095   7.716
    6AU     AUC 1973  14.185   7.825   7.782
    6AU     AUC 1974  14.524   7.780   7.793
    6AU     AUC 1975  14.072   6.892   7.817
    6AU     AUC 1976  14.390   6.839   7.809
    6AU     AUC 1977  14.095   7.758   7.215
    6AU     AUC 1978  14.460   7.774   7.226
    6AU     AUC 1979  14.126   6.860   7.258
    6AU     AUC 1980  14.486   6.905   7.274
    6AU    AUSL 1981  14.785   7.195   8.316
    6AU    AUSL 1982  14.535   6.822   8.222
    6AU     AUL 1983  14.842   6.823   8.389
    6AU    AUSL 1984  14.370   7.137   8.460
    6AU    AUSL 1985  14.132   7.546   8.451
    6AU     AUL 1986  14.368   7.421   8.710
    6AU    AUSL 1987  14.469   7.494   8.204
    6AU    AUSL 1988  14.920   7.553   8.126
    6AU     AUL 1989  14.738   7.518   8.435
    6AU    AUSL 1990  14.693   7.355   6.840
    6AU    AUSL 1991  14.554   7.751   6.981
    6AU     AUL 1992  14.768   7.683   6.681
    6AU    AUSL 1993  14.505   7.033   6.612
    6AU    AUSL 1994  15.012   7.103   6.982
    6AU     AUL 1995  14.880   7.177   6.665
    6AU    AUSL 1996  14.337   7.537   6.670
    6AU    AUSL 1997  14.159   7.151   6.829
    6AU     AUL 1998  14.290   7.230   6.524
    6AU    AUSL 1999  13.748   7.508   8.243
    6AU    AUSL 2000  14.111   7.817   8.111
    6AU     AUL 2001  13.948   7.785   8.412
    6AU    AUSL 2002  14.049   7.195   8.191
    6AU    AUSL 2003  13.600   7.118   8.105
    6AU     AUL 2004  13.657   7.207   8.341
    6AU    AUSL 2005  13.723   7.133   6.795
    6AU    AUSL 2006  13.972   6.783   6.947
    6AU     AUL 2007  13.996   6.869   6.641
    6AU    AUSL 2008  13.909   7.501   6.675
    6AU    AUSL 2009  13.629   7.482   7.050
    6AU     AUL 2010  13.512   7.363   6.776
    6AU    AUSL 2011  15.077   7.790   7.476
    6AU    AUSL 2012  14.952   7.580   7.096
    6AU     AUL 2013  15.247   7.785   7.128
    6AU    AUSL 2014  15.242   7.394   7.367
    6AU    AUSL 2015  15.191   7.096   7.768
    6AU     AUL 2016  15.453   7.180   7.571
    6AU    AUSL 2017  14.964   7.449   7.718
    6AU    AUSL 2018  14.922   7.893   7.853
    6AU     AUL 2019  15.170   7.633   7.878
    6AU    AUSL 2020  13.711   7.970   7.522
    6AU    AUSL 2021  13.748   7.722   7.878
    6AU     AUL 2022  13.439   7.967   7.745
    6AU    AUSL 2023  13.510   7.591   7.444
    6AU    AUSL 2024  13.663   7.907   7.106
    6AU     AUL 2025  13.427   7.832   7.263
    6AU    AUSL 2026  13.383   7.513   7.888
    6AU    AUSL 2027  13.350   7.207   7.349
    6AU     AUL 2028  13.228   7.524   7.590
    6AU    AUSL 2029  14.969   6.747   7.615
    6AU    AUSL 2030  14.795   7.030   7.925
    6AU     AUL 2031  15.102   6.936   8.001
    6AU    AUSL 2032  14.927   7.117   7.397
    6AU    AUSL 2033  14.917   6.715   7.188
    6AU     AUL 2034  15.161   6.925   7.250
    6AU    AUSL 2035  13.503   6.828   7.553
    6AU    AUSL 2036  13.714   7.038   7.205
    6AU     AUL 2037  13.364   6.931   7.213
    6AU    AUSL 2038  13.620   7.229   7.694
    6AU    AUSL 2039  13.810   6.845   7.849
    6AU     AUL 2040  13.429   6.998   7.848
    6AU    AUSL 2041  14.352   8.153   7.966
    6AU    AUSL 2042  13.897   8.132   7.878
    6AU     AUL 2043  14.119   8.177   8.194
    6AU    AUSL 2044  14.184   8.008   7.591
    6AU    AUSL 2045  14.435   8.141   7.247
    6AU     AUL 2046  14.204   8.348   7.554
    6AU    AUSL 2047  14.622   8.084   7.623
    6AU    AUSL 2048  14.616   7.883   8.153
    6AU     AUL 2049  14.735   8.173   7.941
    6AU    AUSL 2050  14.210   6.687   7.970
    6AU    AUSL 2051  14.634   6.628   7.849
    6AU     AUL 2052  14.395   6.566   8.223
    6AU    AUSL 2053  13.902   6.465   7.699
    6AU    AUSL 2054  13.930   6.802   8.274
    6AU     AUL 2055  13.938   6.504   8.050
    6AU    AUSL 2056  14.334   6.390   7.667
    6AU    AUSL 2057  14.127   6.635   7.362
    6AU     AUL 2058  14.010   6.290   7.487
    6AU    AUSL 2059  14.262   8.026   6.843
    6AU    AUSL 2060  14.834   8.004   7.199
    6AU     AUL 2061  14.578   8.114   6.936
    6AU    AUSL 2062  14.013   8.120   7.210
    6AU    AUSL 2063  14.036   7.709   7.014
    6AU     AUL 2064  13.943   8.015   6.856
    6AU    AUSL 2065  14.352   6.583   6.981
    6AU    AUSL 2066  13.719   6.597   7.258
    6AU     AUL 2067  14.015   6.449   7.043
    6AU    AUSL 2068  14.559   6.607   7.381
    6AU    AUSL 2069  14.582   6.940   7.018
    6AU     AUL 2070  14.676   6.567   7.050
    6AU       S 2071  14.807   6.372   8.227
    6AU     LIG 2072  14.854   6.138   8.352
    6AU     LIG 2073  14.976   5.978   8.479
    6AU     LIG 2074  15.134   5.801   8.590
    6AU       S 2075  14.841   7.162   8.719
    6AU     LIG 2076  15.004   7.220   8.921
    6AU     LIG 2077  15.094   7.276   9.146
    6AU     LIG 2078  15.200   7.243   9.383
    6AU       S 2079  14.519   6.969   8.725
    6AU     LIG 2080  14.575   6.875   9.005
    6AU     LIG 2081  14.741   6.891   9.203
    6AU     LIG 2082  14.875   6.846   9.419
    6AU       S 2083  13.894   7.459   8.757
    6AU     LIG 2084  13.857   7.483   9.059
    6AU     LIG 2085  13.739   7.468   9.261
    6AU     LIG 2086  13.591   7.445   9.479
    6AU       S 2087  14.419   7.893   8.566
    6AU     LIG 2088  14.536   8.030   8.771
    6AU     LIG 2089  14.749   7.950   8.933
    6AU     LIG 2090  14.972   7.824   8.947
    6AU       S 2091  15.111   7.785   8.334
    6AU     LIG 2092  15.294   7.825   8.555
    6AU     LIG 2093  15.434   7.982   8.669
    6AU     LIG 2094  15.610   8.158   8.744
    6AU       S 2095  14.712   7.414   6.306
    6AU     LIG 2096  14.927   7.469   6.093
    6AU     LIG 2097  15.061   7.303   5.955
    6AU     LIG 2098  15.121   7.112   5.795
    6AU       S 2099  14.927   8.114   6.652
    6AU     LIG 2100  14.973   8.307   6.462
    6AU     LIG 2101  15.136   8.397   6.288
    6AU     LIG 2102  15.301   8.488   6.123
    6AU       S 2103  15.187   6.825   6.768
    6AU     LIG 2104  15.349   6.738   6.527
    6AU     LIG 2105  15.363   6.519   6.388
    6AU     LIG 2106  15.379   6.264   6.348
    6AU       S 2107  14.633   7.119   6.240
    6AU     LIG 2108  14.655   6.995   6.011
    6AU     LIG 2109  14.642   6.922   5.771
    6AU     LIG 2110  14.713   6.902   5.521
    6AU       S 2111  13.899   7.179   6.303
    6AU     LIG 2112  13.954   7.146   6.024
    6AU     LIG 2113  13.960   7.092   5.795
    6AU     LIG 2114  13.884   7.051   5.540
    6AU       S 2115  14.469   7.560   6.264
    6AU     LIG 2116  14.370   7.494   5.973
    6AU     LIG 2117  14.512   7.419   5.780
    6AU     LIG 2118  14.705   7.411   5.607
    6AU       S 2119  13.618   7.547   8.643
    6AU     LIG 2120  13.407   7.522   8.819
    6AU     LIG 2121  13.353   7.306   8.977
    6AU     LIG 2122  13.283   7.174   9.166
    6AU       S 2123  13.649   8.105   8.268
    6AU     LIG 2124  13.563   8.260   8.501
    6AU     LIG 2125  13.422   8.271   8.694
    6AU     LIG 2126  13.253   8.360   8.877
    6AU       S 2127  13.372   6.839   8.284
    6AU     LIG 2128  13.126   6.770   8.381
    6AU     LIG 2129  12.981   6.578   8.457
    6AU     LIG 2130  12.854   6.396   8.575
    6AU       S 2131  13.943   7.167   8.684
    6AU     LIG 2132  13.866   6.991   8.887
    6AU     LIG 2133  13.753   6.971   9.105
    6AU     LIG 2134  13.708   6.957   9.361
    6AU       S 2135  13.637   7.091   6.418
    6AU     LIG 2136  13.458   7.021   6.208
    6AU     LIG 2137  13.447   7.092   5.957
    6AU     LIG 2138  13.435   7.202   5.737
    6AU       S 2139  13.671   6.543   6.745
    6AU     LIG 2140  13.597   6.356   6.540
    6AU     LIG 2141  13.439   6.314   6.354
    6AU     LIG 2142  13.255   6.265   6.184
    6AU       S 2143  13.301   7.769   6.798
    6AU     LIG 2144  13.094   7.938   6.744
    6AU     LIG 2145  13.042   8.137   6.588
    6AU     LIG 2146  13.018   8.260   6.367
    6AU       S 2147  13.799   7.447   6.393
    6AU     LIG 2148  13.632   7.548   6.139
    6AU     LIG 2149  13.715   7.585   5.913
    6AU     LIG 2150  13.823   7.565   5.679
    6AU       S 2151  15.158   7.928   6.708
    6AU     LIG 2152  15.373   7.974   6.537
    6AU     LIG 2153  15.530   8.086   6.389
    6AU     LIG 2154  15.711   8.205   6.245
    6AU       S 2155  15.410   7.904   7.556
    6AU     LIG 2156  15.623   8.108   7.540
    6AU     LIG 2157  15.867   8.152   7.511
    6AU     LIG 2158  16.120   8.215   7.532
    6AU       S 2159  15.586   7.605   7.388
    6AU     LIG 2160  15.855   7.676   7.293
    6AU     LIG 2161  16.095   7.742   7.306
    6AU     LIG 2162  16.317   7.856   7.226
    6AU       S 2163  15.450   6.726   7.790
    6AU     LIG 2164  15.685   6.624   7.920
    6AU     LIG 2165  15.938   6.619   7.859
    6AU     LIG 2166  16.187   6.587   7.780
    6AU       S 2167  15.147   8.033   8.127
    6AU     LIG 2168  15.342   8.210   8.210
    6AU     LIG 2169  15.387   8.409   8.357
    6AU     LIG 2170  15.406   8.588   8.540
    6AU       S 2171  15.557   7.637   7.663
    6AU     LIG 2172  15.795   7.708   7.814
    6AU     LIG 2173  16.032   7.775   7.811
    6AU     LIG 2174  16.262   7.865   7.878
    6AU       S 2175  13.483   7.882   8.203
    6AU     LIG 2176  13.244   7.874   8.380
    6AU     LIG 2177  13.058   8.013   8.444
    6AU     LIG 2178  12.882   8.132   8.594
    6AU       S 2179  13.650   8.306   7.463
    6AU     LIG 2180  13.490   8.514   7.335
    6AU     LIG 2181  13.244   8.494   7.239
    6AU     LIG 2182  13.056   8.337   7.123
    6AU       S 2183  13.086   7.525   7.139
    6AU     LIG 2184  12.848   7.530   7.071
    6AU     LIG 2185  12.593   7.606   7.141
    6AU     LIG 2186  12.448   7.819   7.163
    6AU       S 2187  13.516   8.179   6.929
    6AU     LIG 2188  13.443   8.387   6.787
    6AU     LIG 2189  13.301   8.566   6.702
    6AU     LIG 2190  13.170   8.721   6.537
    6AU       S 2191  12.997   7.121   7.449
    6AU     LIG 2192  12.720   7.111   7.337
    6AU     LIG 2193  12.477   7.093   7.332
    6AU     LIG 2194  12.243   6.972   7.284
    6AU       S 2195  13.188   7.440   8.097
    6AU     LIG 2196  12.875   7.544   8.182
    6AU     LIG 2197  12.758   7.756   8.094
    6AU     LIG 2198  12.578   7.903   7.968
    6AU       S 2199  15.180   6.556   7.606
    6AU     LIG 2200  15.314   6.254   7.622
    6AU     LIG 2201  15.542   6.188   7.697
    6AU     LIG 2202  15.813   6.174   7.655
    6AU       S 2203  15.024   6.495   8.066
    6AU     LIG 2204  15.271   6.359   8.105
    6AU     LIG 2205  15.401   6.271   8.287
    6AU     LIG 2206  15.448   6.201   8.537
    6AU       S 2207  15.437   6.706   7.519
    6AU     LIG 2208  15.660   6.584   7.383
    6AU     LIG 2209  15.901   6.585   7.343
    6AU     LIG 2210  16.142   6.513   7.280
    6AU       S 2211  15.129   6.563   6.925
    6AU     LIG 2212  15.194   6.303   6.822
    6AU     LIG 2213  15.067   6.080   6.774
    6AU     LIG 2214  15.026   5.861   6.659
    6AU       S 2215  13.494   6.738   6.817
    6AU     LIG 2216  13.261   6.748   6.620
    6AU     LIG 2217  13.084   6.631   6.527
    6AU     LIG 2218  12.878   6.473   6.465
    6AU       S 2219  13.079   6.830   7.583
    6AU     LIG 2220  12.862   6.664   7.588
    6AU     LIG 2221  12.635   6.616   7.482
    6AU     LIG 2222  12.402   6.512   7.441
    6AU       S 2223  13.491   6.609   8.082
    6AU     LIG 2224  13.315   6.401   8.068
    6AU     LIG 2225  13.195   6.215   8.174
    6AU     LIG 2226  13.062   6.029   8.287
    6AU       S 2227  13.021   7.125   7.713
    6AU     LIG 2228  12.787   7.097   7.888
    6AU     LIG 2229  12.548   7.005   7.835
    6AU     LIG 2230  12.339   6.870   7.809
    6AU       S 2231  13.690   8.324   7.989
    6AU     LIG 2232  13.455   8.513   8.062
    6AU     LIG 2233  13.230   8.476   8.206
    6AU     LIG 2234  13.098   8.553   8.412
    6AU       S 2235  14.433   8.510   8.053
    6AU     LIG 2236  14.544   8.697   8.255
    6AU     LIG 2237  14.432   8.887   8.380
    6AU     LIG 2238  14.287   9.088   8.444
    6AU       S 2239  14.195   8.645   7.925
    6AU     LIG 2240  14.106   8.870   7.968
    6AU     LIG 2241  14.080   9.129   7.984
    6AU     LIG 2242  14.089   9.380   8.012
    6AU       S 2243  14.360   8.488   7.131
    6AU     LIG 2244  14.426   8.757   7.146
    6AU     LIG 2245  14.460   8.989   7.130
    6AU     LIG 2246  14.523   9.232   7.042
    6AU       S 2247  14.870   8.000   8.364
    6AU     LIG 2248  14.945   8.219   8.543
    6AU     LIG 2249  15.046   8.300   8.736
    6AU     LIG 2250  15.172   8.318   8.967
    6AU       S 2251  14.572   8.561   7.734
    6AU     LIG 2252  14.604   8.834   7.718
    6AU     LIG 2253  14.579   9.044   7.875
    6AU     LIG 2254  14.591   9.228   8.040
    6AU       S 2255  14.293   6.151   8.062
    6AU     LIG 2256  14.412   5.945   8.213
    6AU     LIG 2257  14.400   5.738   8.334
    6AU     LIG 2258  14.381   5.501   8.434
    6AU       S 2259  14.776   6.384   7.902
    6AU     LIG 2260  14.880   6.080   7.827
    6AU     LIG 2261  15.040   5.946   7.925
    6AU     LIG 2262  15.252   5.846   8.057
    6AU       S 2263  14.041   6.065   7.896
    6AU     LIG 2264  13.992   5.798   7.918
    6AU     LIG 2265  14.014   5.580   8.033
    6AU     LIG 2266  14.004   5.342   8.129
    6AU       S 2267  13.635   6.691   8.386
    6AU     LIG 2268  13.508   6.473   8.570
    6AU     LIG 2269  13.371   6.299   8.640
    6AU     LIG 2270  13.234   6.105   8.762
    6AU       S 2271  14.359   6.161   7.221
    6AU     LIG 2272  14.298   5.833   7.210
    6AU     LIG 2273  14.283   5.637   7.090
    6AU     LIG 2274  14.283   5.370   7.027
    6AU       S 2275  14.373   6.114   7.758
    6AU     LIG 2276  14.473   5.812   7.712
    6AU     LIG 2277  14.486   5.615   7.838
    6AU     LIG 2278  14.480   5.369   7.941
    6AU       S 2279  14.212   8.408   6.835
    6AU     LIG 2280  14.218   8.637   6.681
    6AU     LIG 2281  14.341   8.853   6.641
    6AU     LIG 2282  14.407   9.087   6.564
    6AU       S 2283  15.051   8.184   6.958
    6AU     LIG 2284  15.249   8.388   6.901
    6AU     LIG 2285  15.408   8.462   6.721
    6AU     LIG 2286  15.556   8.584   6.558
    6AU       S 2287  14.009   8.429   7.112
    6AU     LIG 2288  13.897   8.707   7.085
    6AU     LIG 2289  13.954   8.933   6.998
    6AU     LIG 2290  14.028   9.158   6.907
    6AU       S 2291  13.571   7.839   6.654
    6AU     LIG 2292  13.511   7.974   6.415
    6AU     LIG 2293  13.521   8.204   6.319
    6AU     LIG 2294  13.494   8.443   6.239
    6AU       S 2295  13.516   6.507   7.029
    6AU     LIG 2296  13.259   6.334   6.950
    6AU     LIG 2297  13.172   6.192   6.784
    6AU     LIG 2298  13.086   6.019   6.606
    6AU       S 2299  14.429   6.200   6.941
    6AU     LIG 2300  14.546   6.021   6.769
    6AU     LIG 2301  14.519   5.811   6.646
    6AU     LIG 2302  14.443   5.573   6.582
    6AU       S 2303  14.622   6.201   7.324
    6AU     LIG 2304  14.786   5.960   7.293
    6AU     LIG 2305  14.793   5.754   7.128
    6AU     LIG 2306  14.778   5.537   6.984
    6AU       S 2307  14.883   6.710   6.673
    6AU     LIG 2308  14.869   6.532   6.470
    6AU     LIG 2309  14.859   6.304   6.376
    6AU     LIG 2310  14.910   6.101   6.221
    7AU     AUC 2311  37.279  34.003   7.535
    7AU     AUC 2312  37.531  34.008   7.369
    7AU     AUC 2313  37.520  33.995   7.699
    7AU     AUC 2314  37.009  34.011   7.380
    7AU     AUC 2315  37.035  34.040   7.705
    7AU     AUC 2316  37.118  34.256   7.513
    7AU     AUC 2317  37.465  34.268   7.516
    7AU     AUC 2318  37.100  33.749   7.543
    7AU     AUC 2319  37.431  33.727   7.545
    7AU     AUC 2320  37.273  33.843   7.798
    7AU     AUC 2321  37.292  34.183   7.779
    7AU     AUC 2322  37.266  33.830   7.287
    7AU     AUC 2323  37.286  34.136   7.271
    7AU     AUC 2324  37.834  33.999   7.204
    7AU     AUC 2325  37.842  33.979   7.545
    7AU     AUC 2326  37.800  33.966   7.899
    7AU     AUC 2327  36.707  33.985   7.228
    7AU     AUC 2328  36.706  34.044   7.556
    7AU     AUC 2329  36.735  34.083   7.888
    7AU     AUC 2330  36.953  34.569   7.474
    7AU     AUC 2331  37.313  34.543   7.457
    7AU     AUC 2332  37.679  34.531   7.487
    7AU     AUC 2333  36.896  33.460   7.548
    7AU     AUC 2334  37.247  33.436   7.529
    7AU     AUC 2335  37.603  33.425   7.546
    7AU     AUC 2336  37.232  33.677   8.101
    7AU     AUC 2337  37.269  34.019   8.101
    7AU     AUC 2338  37.326  34.383   8.062
    7AU     AUC 2339  37.297  33.640   6.997
    7AU     AUC 2340  37.245  33.981   6.973
    7AU     AUC 2341  37.242  34.304   6.957
    7AU     AUC 2342  37.514  33.781   8.012
    7AU     AUC 2343  37.570  34.157   7.987
    7AU     AUC 2344  37.569  33.843   7.072
    7AU     AUC 2345  37.534  34.155   7.079
    7AU     AUC 2346  36.980  33.901   8.000
    7AU     AUC 2347  37.027  34.251   7.971
    7AU     AUC 2348  36.991  33.800   7.103
    7AU     AUC 2349  36.945  34.128   7.083
    7AU     AUC 2350  37.772  34.271   7.346
    7AU     AUC 2351  37.738  34.268   7.705
    7AU     AUC 2352  36.813  34.283   7.383
    7AU     AUC 2353  36.858  34.349   7.713
    7AU     AUC 2354  37.735  33.720   7.407
    7AU     AUC 2355  37.683  33.674   7.739
    7AU     AUC 2356  36.814  33.697   7.373
    7AU     AUC 2357  36.840  33.771   7.716
    7AU     AUC 2358  37.178  34.501   7.782
    7AU     AUC 2359  37.517  34.456   7.793
    7AU     AUC 2360  37.065  33.568   7.817
    7AU     AUC 2361  37.383  33.515   7.809
    7AU     AUC 2362  37.088  34.434   7.215
    7AU     AUC 2363  37.453  34.450   7.226
    7AU     AUC 2364  37.119  33.536   7.258
    7AU     AUC 2365  37.479  33.581   7.274
    7AU    AUSL 2366  37.778  33.871   8.316
    7AU    AUSL 2367  37.528  33.498   8.222
    7AU     AUL 2368  37.835  33.499   8.389
    7AU    AUSL 2369  37.363  33.813   8.460
    7AU    AUSL 2370  37.125  34.222   8.451
    7AU     AUL 2371  37.361  34.097   8.710
    7AU    AUSL 2372  37.462  34.170   8.204
    7AU    AUSL 2373  37.913  34.229   8.126
    7AU     AUL 2374  37.731  34.194   8.435
    7AU    AUSL 2375  37.686  34.031   6.840
    7AU    AUSL 2376  37.547  34.427   6.981
    7AU     AUL 2377  37.761  34.359   6.681
    7AU    AUSL 2378  37.498  33.709   6.612
    7AU    AUSL 2379  38.005  33.779   6.982
    7AU     AUL 2380  37.873  33.853   6.665
    7AU    AUSL 2381  37.330  34.213   6.670
    7AU    AUSL 2382  37.152  33.827   6.829
    7AU     AUL 2383  37.283  33.906   6.524
    7AU    AUSL 2384  36.741  34.184   8.243
    7AU    AUSL 2385  37.104  34.493   8.111
    7AU     AUL 2386  36.941  34.461   8.412
    7AU    AUSL 2387  37.042  33.871   8.191
    7AU    AUSL 2388  36.593  33.794   8.105
    7AU     AUL 2389  36.650  33.883   8.341
    7AU    AUSL 2390  36.716  33.809   6.795
    7AU    AUSL 2391  36.965  33.459   6.947
    7AU     AUL 2392  36.989  33.545   6.641
    7AU    AUSL 2393  36.902  34.177   6.675
    7AU    AUSL 2394  36.622  34.158   7.050
    7AU     AUL 2395  36.505  34.039   6.776
    7AU    AUSL 2396  38.070  34.466   7.476
    7AU    AUSL 2397  37.945  34.256   7.096
    7AU     AUL 2398  38.240  34.461   7.128
    7AU    AUSL 2399  38.235  34.070   7.367
    7AU    AUSL 2400  38.184  33.772   7.768
    7AU     AUL 2401  38.446  33.856   7.571
    7AU    AUSL 2402  37.957  34.125   7.718
    7AU    AUSL 2403  37.915  34.569   7.853
    7AU     AUL 2404  38.163  34.309   7.878
    7AU    AUSL 2405  36.704  34.646   7.522
    7AU    AUSL 2406  36.741  34.398   7.878
    7AU     AUL 2407  36.432  34.643   7.745
    7AU    AUSL 2408  36.503  34.267   7.444
    7AU    AUSL 2409  36.656  34.583   7.106
    7AU     AUL 2410  36.420  34.508   7.263
    7AU    AUSL 2411  36.376  34.189   7.888
    7AU    AUSL 2412  36.343  33.883   7.349
    7AU     AUL 2413  36.221  34.200   7.590
    7AU    AUSL 2414  37.962  33.423   7.615
    7AU    AUSL 2415  37.788  33.706   7.925
    7AU     AUL 2416  38.095  33.612   8.001
    7AU    AUSL 2417  37.920  33.793   7.397
    7AU    AUSL 2418  37.910  33.391   7.188
    7AU     AUL 2419  38.154  33.601   7.250
    7AU    AUSL 2420  36.496  33.504   7.553
    7AU    AUSL 2421  36.707  33.714   7.205
    7AU     AUL 2422  36.357  33.607   7.213
    7AU    AUSL 2423  36.613  33.905   7.694
    7AU    AUSL 2424  36.803  33.521   7.849
    7AU     AUL 2425  36.422  33.674   7.848
    7AU    AUSL 2426  37.345  34.829   7.966
    7AU    AUSL 2427  36.890  34.808   7.878
    7AU     AUL 2428  37.112  34.853   8.194
    7AU    AUSL 2429  37.177  34.684   7.591
    7AU    AUSL 2430  37.428  34.817   7.247
    7AU     AUL 2431  37.197  35.024   7.554
    7AU    AUSL 2432  37.615  34.760   7.623
    7AU    AUSL 2433  37.609  34.559   8.153
    7AU     AUL 2434  37.728  34.849   7.941
    7AU    AUSL 2435  37.203  33.363   7.970
    7AU    AUSL 2436  37.627  33.304   7.849
    7AU     AUL 2437  37.388  33.242   8.223
    7AU    AUSL 2438  36.895  33.141   7.699
    7AU    AUSL 2439  36.923  33.478   8.274
    7AU     AUL 2440  36.931  33.180   8.050
    7AU    AUSL 2441  37.327  33.066   7.667
    7AU    AUSL 2442  37.120  33.311   7.362
    7AU     AUL 2443  37.003  32.966   7.487
    7AU    AUSL 2444  37.255  34.702   6.843
    7AU    AUSL 2445  37.827  34.680   7.199
    7AU     AUL 2446  37.571  34.790   6.936
    7AU    AUSL 2447  37.006  34.796   7.210
    7AU    AUSL 2448  37.029  34.385   7.014
    7AU     AUL 2449  36.936  34.691   6.856
    7AU    AUSL 2450  37.345  33.259   6.981
    7AU    AUSL 2451  36.712  33.273   7.258
    7AU     AUL 2452  37.008  33.125   7.043
    7AU    AUSL 2453  37.552  33.283   7.381
    7AU    AUSL 2454  37.575  33.616   7.018
    7AU     AUL 2455  37.669  33.243   7.050
    7AU       S 2456  37.800  33.048   8.227
    7AU     LIG 2457  37.847  32.814   8.352
    7AU     LIG 2458  37.969  32.654   8.479
    7AU     LIG 2459  38.127  32.477   8.590
    7AU       S 2460  37.834  33.838   8.719
    7AU     LIG 2461  37.997  33.896   8.921
    7AU     LIG 2462  38.087  33.952   9.146
    7AU     LIG 2463  38.193  33.919   9.383
    7AU       S 2464  37.512  33.645   8.725
    7AU     LIG 2465  37.568  33.551   9.005
    7AU     LIG 2466  37.734  33.567   9.203
    7AU     LIG 2467  37.868  33.522   9.419
    7AU       S 2468  36.887  34.135   8.757
    7AU     LIG 2469  36.850  34.159   9.059
    7AU     LIG 2470  36.732  34.144   9.261
    7AU     LIG 2471  36.584  34.121   9.479
    7AU       S 2472  37.412  34.569   8.566
    7AU     LIG 2473  37.529  34.706   8.771
    7AU     LIG 2474  37.742  34.626   8.933
    7AU     LIG 2475  37.965  34.500   8.947
    7AU       S 2476  38.104  34.461   8.334
    7AU     LIG 2477  38.287  34.501   8.555
    7AU     LIG 2478  38.427  34.658   8.669
    7AU     LIG 2479  38.603  34.834   8.744
    7AU       S 2480  37.705  34.090   6.306
    7AU     LIG 2481  37.920  34.145   6.093
    7AU     LIG 2482  38.054  33.979   5.955
    7AU     LIG 2483  38.114  33.788   5.795
    7AU       S 2484  37.920  34.790   6.652
    7AU     LIG 2485  37.966  34.983   6.462
    7AU     LIG 2486  38.129  35.073   6.288
    7AU     LIG 2487  38.294  35.164   6.123
    7AU       S 2488  38.180  33.501   6.768
    7AU     LIG 2489  38.342  33.414   6.527
    7AU     LIG 2490  38.356  33.195   6.388
    7AU     LIG 2491  38.372  32.940   6.348
    7AU       S 2492  37.626  33.795   6.240
    7AU     LIG 2493  37.648  33.671   6.011
    7AU     LIG 2494  37.635  33.598   5.771
    7AU     LIG 2495  37.706  33.578   5.521
    7AU       S 2496  36.892  33.855   6.303
    7AU     LIG 2497  36.947  33.822   6.024
    7AU     LIG 2498  36.953  33.768   5.795
    7AU     LIG 2499  36.877  33.727   5.540
    7AU       S 2500  37.462  34.236   6.264
    7AU     LIG 2501  37.363  34.170   5.973
    7AU     LIG 2502  37.505  34.095   5.780
    7AU     LIG 2503  37.698  34.087   5.607
    7AU       S 2504  36.611  34.223   8.643
    7AU     LIG 2505  36.400  34.198   8.819
    7AU     LIG 2506  36.346  33.982   8.977
    7AU     LIG 2507  36.276  33.850   9.166
    7AU       S 2508  36.642  34.781   8.268
    7AU     LIG 2509  36.556  34.936   8.501
    7AU     LIG 2510  36.415  34.947   8.694
    7AU     LIG 2511  36.246  35.036   8.877
    7AU       S 2512  36.365  33.515   8.284
    7AU     LIG 2513  36.119  33.446   8.381
    7AU     LIG 2514  35.974  33.254   8.457
    7AU     LIG 2515  35.847  33.072   8.575
    7AU       S 2516  36.936  33.843   8.684
    7AU     LIG 2517  36.859  33.667   8.887
    7AU     LIG 2518  36.746  33.647   9.105
    7AU     LIG 2519  36.701  33.633   9.361
    7AU       S 2520  36.630  33.767   6.418
    7AU     LIG 2521  36.451  33.697   6.208
    7AU     LIG 2522  36.440  33.768   5.957
    7AU     LIG 2523  36.428  33.878   5.737
    7AU       S 2524  36.664  33.219   6.745
    7AU     LIG 2525  36.590  33.032   6.540
    7AU     LIG 2526  36.432  32.990   6.354
    7AU     LIG 2527  36.248  32.941   6.184
    7AU       S 2528  36.294  34.445   6.798
    7AU     LIG 2529  36.087  34.614   6.744
    7AU     LIG 2530  36.035  34.813   6.588
    7AU     LIG 2531  36.011  34.936   6.367
    7AU       S 2532  36.792  34.123   6.393
    7AU     LIG 2533  36.625  34.224   6.139
    7AU     LIG 2534  36.708  34.261   5.913
    7AU     LIG 2535  36.816  34.241   5.679
    7AU       S 2536  38.151  34.604   6.708
    7AU     LIG 2537  38.366  34.650   6.537
    7AU     LIG 2538  38.523  34.762   6.389
    7AU     LIG 2539  38.704  34.881   6.245
    7AU       S 2540  38.403  34.580   7.556
    7AU     LIG 2541  38.616  34.784   7.540
    7AU     LIG 2542  38.860  34.828   7.511
    7AU     LIG 2543  39.113  34.891   7.532
    7AU       S 2544  38.579  34.281   7.388
    7AU     LIG 2545  38.848  34.352   7.293
    7AU     LIG 2546  39.088  34.418   7.306
    7AU     LIG 2547  39.310  34.532   7.226
    7AU       S 2548  38.443  33.402   7.790
    7AU     LIG 2549  38.678  33.300   7.920
    7AU     LIG 2550  38.931  33.295   7.859
    7AU     LIG 2551  39.180  33.263   7.780
    7AU       S 2552  38.140  34.709   8.127
    7AU     LIG 2553  38.335  34.886   8.210
    7AU     LIG 2554  38.380  35.085   8.357
    7AU     LIG 2555  38.399  35.264   8.540
    7AU       S 2556  38.550  34.313   7.663
    7AU     LIG 2557  38.788  34.384   7.814
    7AU     LIG 2558  39.025  34.451   7.811
    7AU     LIG 2559  39.255  34.541   7.878
    7AU       S 2560  36.476  34.558   8.203
    7AU     LIG 2561  36.237  34.550   8.380
    7AU     LIG 2562  36.051  34.689   8.444
    7AU     LIG 2563  35.875  34.808   8.594
    7AU       S 2564  36.643  34.982   7.463
    7AU     LIG 2565  36.483  35.190   7.335
    7AU     LIG 2566  36.237  35.170   7.239
    7AU     LIG 2567  36.049  35.013   7.123
    7AU       S 2568  36.079  34.201   7.139
    7AU     LIG 2569  35.841  34.206   7.071
    7AU     LIG 2570  35.586  34.282   7.141
    7AU     LIG 2571  35.441  34.495   7.163
    7AU       S 2572  36.509  34.855   6.929
    7AU     LIG 2573  36.436  35.063   6.787
    7AU     LIG 2574  36.294  35.242   6.702
    7AU     LIG 2575  36.163  35.397   6.537
    7AU       S 2576  35.990  33.797   7.449
    7AU     LIG 2577  35.713  33.787   7.337
    7AU     LIG 2578  35.470  33.769   7.332
    7AU     LIG 2579  35.236  33.648   7.284
    7AU       S 2580  36.181  34.116   8.097
    7AU     LIG 2581  35.868  34.220   8.182
    7AU     LIG 2582  35.751  34.432   8.094
    7AU     LIG 2583  35.571  34.579   7.968
    7AU       S 2584  38.173  33.232   7.606
    7AU     LIG 2585  38.307  32.930   7.622
    7AU     LIG 2586  38.535  32.864   7.697
    7AU     LIG 2587  38.806  32.850   7.655
    7AU       S 2588  38.017  33.171   8.066
    7AU     LIG 2589  38.264  33.035   8.105
    7AU     LIG 2590  38.394  32.947   8.287
    7AU     LIG 2591  38.441  32.877   8.537
    7AU       S 2592  38.430  33.382   7.519
    7AU     LIG 2593  38.653  33.260   7.383
    7AU     LIG 2594  38.894  33.261   7.343
    7AU     LIG 2595  39.135  33.189   7.280
    7AU       S 2596  38.122  33.239   6.925
    7AU     LIG 2597  38.187  32.979   6.822
    7AU     LIG 2598  38.060  32.756   6.774
    7AU     LIG 2599  38.019  32.537   6.659
    7AU       S 2600  36.487  33.414   6.817
    7AU     LIG 2601  36.254  33.424   6.620
    7AU     LIG 2602  36.077  33.307   6.527
    7AU     LIG 2603  35.871  33.149   6.465
    7AU       S 2604  36.072  33.506   7.583
    7AU     LIG 2605  35.855  33.340   7.588
    7AU     LIG 2606  35.628  33.292   7.482
    7AU     LIG 2607  35.395  33.188   7.441
    7AU       S 2608  36.484  33.285   8.082
    7AU     LIG 2609  36.308  33.077   8.068
    7AU     LIG 2610  36.188  32.891   8.174
    7AU     LIG 2611  36.055  32.705   8.287
    7AU       S 2612  36.014  33.801   7.713
    7AU     LIG 2613  35.780  33.773   7.888
    7AU     LIG 2614  35.541  33.681   7.835
    7AU     LIG 2615  35.332  33.546   7.809
    7AU       S 2616  36.683  35.000   7.989
    7AU     LIG 2617  36.448  35.189   8.062
    7AU     LIG 2618  36.223  35.152   8.206
    7AU     LIG 2619  36.091  35.229   8.412
    7AU       S 2620  37.426  35.186   8.053
    7AU     LIG 2621  37.537  35.373   8.255
    7AU     LIG 2622  37.425  35.563   8.380
    7AU     LIG 2623  37.280  35.764   8.444
    7AU       S 2624  37.188  35.321   7.925
    7AU     LIG 2625  37.099  35.546   7.968
    7AU     LIG 2626  37.073  35.805   7.984
    7AU     LIG 2627  37.082  36.056   8.012
    7AU       S 2628  37.353  35.164   7.131
    7AU     LIG 2629  37.419  35.433   7.146
    7AU     LIG 2630  37.453  35.665   7.130
    7AU     LIG 2631  37.516  35.908   7.042
    7AU       S 2632  37.863  34.676   8.364
    7AU     LIG 2633  37.938  34.895   8.543
    7AU     LIG 2634  38.039  34.976   8.736
    7AU     LIG 2635  38.165  34.994   8.967
    7AU       S 2636  37.565  35.237   7.734
    7AU     LIG 2637  37.597  35.510   7.718
    7AU     LIG 2638  37.572  35.720   7.875
    7AU     LIG 2639  37.584  35.904   8.040
    7AU       S 2640  37.286  32.827   8.062
    7AU     LIG 2641  37.405  32.621   8.213
    7AU     LIG 2642  37.393  32.414   8.334
    7AU     LIG 2643  37.374  32.177   8.434
    7AU       S 2644  37.769  33.060   7.902
    7AU     LIG 2645  37.873  32.756   7.827
    7AU     LIG 2646  38.033  32.622   7.925
    7AU     LIG 2647  38.245  32.522   8.057
    7AU       S 2648  37.034  32.741   7.896
    7AU     LIG 2649  36.985  32.474   7.918
    7AU     LIG 2650  37.007  32.256   8.033
    7AU     LIG 2651  36.997  32.018   8.129
    7AU       S 2652  36.628  33.367   8.386
    7AU     LIG 2653  36.501  33.149   8.570
    7AU     LIG 2654  36.364  32.975   8.640
    7AU     LIG 2655  36.227  32.781   8.762
    7AU       S 2656  37.352  32.837   7.221
    7AU     LIG 2657  37.291  32.509   7.210
    7AU     LIG 2658  37.276  32.313   7.090
    7AU     LIG 2659  37.276  32.046   7.027
    7AU       S 2660  37.366  32.790   7.758
    7AU     LIG 2661  37.466  32.488   7.712
    7AU     LIG 2662  37.479  32.291   7.838
    7AU     LIG 2663  37.473  32.045   7.941
    7AU       S 2664  37.205  35.084   6.835
    7AU     LIG 2665  37.211  35.313   6.681
    7AU     LIG 2666  37.334  35.529   6.641
    7AU     LIG 2667  37.400  35.763   6.564
    7AU       S 2668  38.044  34.860   6.958
    7AU     LIG 2669  38.242  35.064   6.901
    7AU     LIG 2670  38.401  35.138   6.721
    7AU     LIG 2671  38.549  35.260   6.558
    7AU       S 2672  37.002  35.105   7.112
    7AU     LIG 2673  36.890  35.383   7.085
    7AU     LIG 2674  36.947  35.609   6.998
    7AU     LIG 2675  37.021  35.834   6.907
    7AU       S 2676  36.564  34.515   6.654
    7AU     LIG 2677  36.504  34.650   6.415
    7AU     LIG 2678  36.514  34.880   6.319
    7AU     LIG 2679  36.487  35.119   6.239
    7AU       S 2680  36.509  33.183   7.029
    7AU     LIG 2681  36.252  33.010   6.950
    7AU     LIG 2682  36.165  32.868   6.784
    7AU     LIG 2683  36.079  32.695   6.606
    7AU       S 2684  37.422  32.876   6.941
    7AU     LIG 2685  37.539  32.697   6.769
    7AU     LIG 2686  37.512  32.487   6.646
    7AU     LIG 2687  37.436  32.249   6.582
    7AU       S 2688  37.615  32.877   7.324
    7AU     LIG 2689  37.779  32.636   7.293
    7AU     LIG 2690  37.786  32.430   7.128
    7AU     LIG 2691  37.771  32.213   6.984
    7AU       S 2692  37.876  33.386   6.673
    7AU     LIG 2693  37.862  33.208   6.470
    7AU     LIG 2694  37.852  32.980   6.376
    7AU     LIG 2695  37.903  32.777   6.221
    8AU     AUC 2696   4.252  13.932   7.535
    8AU     AUC 2697   4.504  13.937   7.369
    8AU     AUC 2698   4.493  13.924   7.699
    8AU     AUC 2699   3.982  13.940   7.380
    8AU     AUC 2700   4.008  13.969   7.705
    8AU     AUC 2701   4.091  14.185   7.513
    8AU     AUC 2702   4.438  14.197   7.516
    8AU     AUC 2703   4.073  13.678   7.543
    8AU     AUC 2704   4.404  13.656   7.545
    8AU     AUC 2705   4.246  13.772   7.798
    8AU     AUC 2706   4.265  14.112   7.779
    8AU     AUC 2707   4.239  13.759   7.287
    8AU     AUC 2708   4.259  14.065   7.271
    8AU     AUC 2709   4.807  13.928   7.204
    8AU     AUC 2710   4.815  13.908   7.545
    8AU     AUC 2711   4.773  13.895   7.899
    8AU     AUC 2712   3.680  13.914   7.228
    8AU     AUC 2713   3.679  13.973   7.556
    8AU     AUC 2714   3.708  14.012   7.888
    8AU     AUC 2715   3.926  14.498   7.474
    8AU     AUC 2716   4.286  14.472   7.457
    8AU     AUC 2717   4.652  14.460   7.487
    8AU     AUC 2718   3.869  13.389   7.548
    8AU     AUC 2719   4.220  13.365   7.529
    8AU     AUC 2720   4.576  13.354   7.546
    8AU     AUC 2721   4.205  13.606   8.101
    8AU     AUC 2722   4.242  13.948   8.101
    8AU     AUC 2723   4.299  14.312   8.062
    8AU     AUC 2724   4.270  13.569   6.997
    8AU     AUC 2725   4.218  13.910   6.973
    8AU     AUC 2726   4.215  14.233   6.957
    8AU     AUC 2727   4.487  13.710   8.012
    8AU     AUC 2728   4.543  14.086   7.987
    8AU     AUC 2729   4.542  13.772   7.072
    8AU     AUC 2730   4.507  14.084   7.079
    8AU     AUC 2731   3.953  13.830   8.000
    8AU     AUC 2732   4.000  14.180   7.971
    8AU     AUC 2733   3.964  13.729   7.103
    8AU     AUC 2734   3.918  14.057   7.083
    8AU     AUC 2735   4.745  14.200   7.346
    8AU     AUC 2736   4.711  14.197   7.705
    8AU     AUC 2737   3.786  14.212   7.383
    8AU     AUC 2738   3.831  14.278   7.713
    8AU     AUC 2739   4.708  13.649   7.407
    8AU     AUC 2740   4.656  13.603   7.739
    8AU     AUC 2741   3.787  13.626   7.373
    8AU     AUC 2742   3.813  13.700   7.716
    8AU     AUC 2743   4.151  14.430   7.782
    8AU     AUC 2744   4.490  14.385   7.793
    8AU     AUC 2745   4.038  13.497   7.817
    8AU     AUC 2746   4.356  13.444   7.809
    8AU     AUC 2747   4.061  14.363   7.215
    8AU     AUC 2748   4.426  14.379   7.226
    8AU     AUC 2749   4.092  13.465   7.258
    8AU     AUC 2750   4.452  13.510   7.274
    8AU    AUSL 2751   4.751  13.800   8.316
    8AU    AUSL 2752   4.501  13.427   8.222
    8AU     AUL 2753   4.808  13.428   8.389
    8AU    AUSL 2754   4.336  13.742   8.460
    8AU    AUSL 2755   4.098  14.151   8.451
    8AU     AUL 2756   4.334  14.026   8.710
    8AU    AUSL 2757   4.435  14.099   8.204
    8AU    AUSL 2758   4.886  14.158   8.126
    8AU     AUL 2759   4.704  14.123   8.435
    8AU    AUSL 2760   4.659  13.960   6.840
    8AU    AUSL 2761   4.520  14.356   6.981
    8AU     AUL 2762   4.734  14.288   6.681
    8AU    AUSL 2763   4.471  13.638   6.612
    8AU    AUSL 2764   4.978  13.708   6.982
    8AU     AUL 2765   4.846  13.782   6.665
    8AU    AUSL 2766   4.303  14.142   6.670
    8AU    AUSL 2767   4.125  13.756   6.829
    8AU     AUL 2768   4.256  13.835   6.524
    8AU    AUSL 2769   3.714  14.113   8.243
    8AU    AUSL 2770   4.077  14.422   8.111
    8AU     AUL 2771   3.914  14.390   8.412
    8AU    AUSL 2772   4.015  13.800   8.191
    8AU    AUSL 2773   3.566  13.723   8.105
    8AU     AUL 2774   3.623  13.812   8.341
    8AU    AUSL 2775   3.689  13.738   6.795
    8AU    AUSL 2776   3.938  13.388   6.947
    8AU     AUL 2777   3.962  13.474   6.641
    8AU    AUSL 2778   3.875  14.106   6.675
    8AU    AUSL 2779   3.595  14.087   7.050
    8AU     AUL 2780   3.478  13.968   6.776
    8AU    AUSL 2781   5.043  14.395   7.476
    8AU    AUSL 2782   4.918  14.185   7.096
    8AU     AUL 2783   5.213  14.390   7.128
    8AU    AUSL 2784   5.208  13.999   7.367
    8AU    AUSL 2785   5.157  13.701   7.768
    8AU     AUL 2786   5.419  13.785   7.571
    8AU    AUSL 2787   4.930  14.054   7.718
    8AU    AUSL 2788   4.888  14.498   7.853
    8AU     AUL 2789   5.136  14.238   7.878
    8AU    AUSL 2790   3.677  14.575   7.522
    8AU    AUSL 2791   3.714  14.327   7.878
    8AU     AUL 2792   3.405  14.572   7.745
    8AU    AUSL 2793   3.476  14.196   7.444
    8AU    AUSL 2794   3.629  14.512   7.106
    8AU     AUL 2795   3.393  14.437   7.263
    8AU    AUSL 2796   3.349  14.118   7.888
    8AU    AUSL 2797   3.316  13.812   7.349
    8AU     AUL 2798   3.194  14.129   7.590
    8AU    AUSL 2799   4.935  13.352   7.615
    8AU    AUSL 2800   4.761  13.635   7.925
    8AU     AUL 2801   5.068  13.541   8.001
    8AU    AUSL 2802   4.893  13.722   7.397
    8AU    AUSL 2803   4.883  13.320   7.188
    8AU     AUL 2804   5.127  13.530   7.250
    8AU    AUSL 2805   3.469  13.433   7.553
    8AU    AUSL 2806   3.680  13.643   7.205
    8AU     AUL 2807   3.330  13.536   7.213
    8AU    AUSL 2808   3.586  13.834   7.694
    8AU    AUSL 2809   3.776  13.450   7.849
    8AU     AUL 2810   3.395  13.603   7.848
    8AU    AUSL 2811   4.318  14.758   7.966
    8AU    AUSL 2812   3.863  14.737   7.878
    8AU     AUL 2813   4.085  14.782   8.194
    8AU    AUSL 2814   4.150  14.613   7.591
    8AU    AUSL 2815   4.401  14.746   7.247
    8AU     AUL 2816   4.170  14.953   7.554
    8AU    AUSL 2817   4.588  14.689   7.623
    8AU    AUSL 2818   4.582  14.488   8.153
    8AU     AUL 2819   4.701  14.778   7.941
    8AU    AUSL 2820   4.176  13.292   7.970
    8AU    AUSL 2821   4.600  13.233   7.849
    8AU     AUL 2822   4.361  13.171   8.223
    8AU    AUSL 2823   3.868  13.070   7.699
    8AU    AUSL 2824   3.896  13.407   8.274
    8AU     AUL 2825   3.904  13.109   8.050
    8AU    AUSL 2826   4.300  12.995   7.667
    8AU    AUSL 2827   4.093  13.240   7.362
    8AU     AUL 2828   3.976  12.895   7.487
    8AU    AUSL 2829   4.228  14.631   6.843
    8AU    AUSL 2830   4.800  14.609   7.199
    8AU     AUL 2831   4.544  14.719   6.936
    8AU    AUSL 2832   3.979  14.725   7.210
    8AU    AUSL 2833   4.002  14.314   7.014
    8AU     AUL 2834   3.909  14.620   6.856
    8AU    AUSL 2835   4.318  13.188   6.981
    8AU    AUSL 2836   3.685  13.202   7.258
    8AU     AUL 2837   3.981  13.054   7.043
    8AU    AUSL 2838   4.525  13.212   7.381
    8AU    AUSL 2839   4.548  13.545   7.018
    8AU     AUL 2840   4.642  13.172   7.050
    8AU       S 2841   4.773  12.977   8.227
    8AU     LIG 2842   4.820  12.743   8.352
    8AU     LIG 2843   4.942  12.583   8.479
    8AU     LIG 2844   5.100  12.406   8.590
    8AU       S 2845   4.807  13.767   8.719
    8AU     LIG 2846   4.970  13.825   8.921
    8AU     LIG 2847   5.060  13.881   9.146
    8AU     LIG 2848   5.166  13.848   9.383
    8AU       S 2849   4.485  13.574   8.725
    8AU     LIG 2850   4.541  13.480   9.005
    8AU     LIG 2851   4.707  13.496   9.203
    8AU     LIG 2852   4.841  13.451   9.419
    8AU       S 2853   3.860  14.064   8.757
    8AU     LIG 2854   3.823  14.088   9.059
    8AU     LIG 2855   3.705  14.073   9.261
    8AU     LIG 2856   3.557  14.050   9.479
    8AU       S 2857   4.385  14.498   8.566
    8AU     LIG 2858   4.502  14.635   8.771
    8AU     LIG 2859   4.715  14.555   8.933
    8AU     LIG 2860   4.938  14.429   8.947
    8AU       S 2861   5.077  14.390   8.334
    8AU     LIG 2862   5.260  14.430   8.555
    8AU     LIG 2863   5.400  14.587   8.669
    8AU     LIG 2864   5.576  14.763   8.744
    8AU       S 2865   4.678  14.019   6.306
    8AU     LIG 2866   4.893  14.074   6.093
    8AU     LIG 2867   5.027  13.908   5.955
    8AU     LIG 2868   5.087  13.717   5.795
    8AU       S 2869   4.893  14.719   6.652
    8AU     LIG 2870   4.939  14.912   6.462
    8AU     LIG 2871   5.102  15.002   6.288
    8AU     LIG 2872   5.267  15.093   6.123
    8AU       S 2873   5.153  13.430   6.768
    8AU     LIG 2874   5.315  13.343   6.527
    8AU     LIG 2875   5.329  13.124   6.388
    8AU     LIG 2876   5.345  12.869   6.348
    8AU       S 2877   4.599  13.724   6.240
    8AU     LIG 2878   4.621  13.600   6.011
    8AU     LIG 2879   4.608  13.527   5.771
    8AU     LIG 2880   4.679  13.507   5.521
    8AU       S 2881   3.865  13.784   6.303
    8AU     LIG 2882   3.920  13.751   6.024
    8AU     LIG 2883   3.926  13.697   5.795
    8AU     LIG 2884   3.850  13.656   5.540
    8AU       S 2885   4.435  14.165   6.264
    8AU     LIG 2886   4.336  14.099   5.973
    8AU     LIG 2887   4.478  14.024   5.780
    8AU     LIG 2888   4.671  14.016   5.607
    8AU       S 2889   3.584  14.152   8.643
    8AU     LIG 2890   3.373  14.127   8.819
    8AU     LIG 2891   3.319  13.911   8.977
    8AU     LIG 2892   3.249  13.779   9.166
    8AU       S 2893   3.615  14.710   8.268
    8AU     LIG 2894   3.529  14.865   8.501
    8AU     LIG 2895   3.388  14.876   8.694
    8AU     LIG 2896   3.219  14.965   8.877
    8AU       S 2897   3.338  13.444   8.284
    8AU     LIG 2898   3.092  13.375   8.381
    8AU     LIG 2899   2.947  13.183   8.457
    8AU     LIG 2900   2.820  13.001   8.575
    8AU       S 2901   3.909  13.772   8.684
    8AU     LIG 2902   3.832  13.596   8.887
    8AU     LIG 2903   3.719  13.576   9.105
    8AU     LIG 2904   3.674  13.562   9.361
    8AU       S 2905   3.603  13.696   6.418
    8AU     LIG 2906   3.424  13.626   6.208
    8AU     LIG 2907   3.413  13.697   5.957
    8AU     LIG 2908   3.401  13.807   5.737
    8AU       S 2909   3.637  13.148   6.745
    8AU     LIG 2910   3.563  12.961   6.540
    8AU     LIG 2911   3.405  12.919   6.354
    8AU     LIG 2912   3.221  12.870   6.184
    8AU       S 2913   3.267  14.374   6.798
    8AU     LIG 2914   3.060  14.543   6.744
    8AU     LIG 2915   3.008  14.742   6.588
    8AU     LIG 2916   2.984  14.865   6.367
    8AU       S 2917   3.765  14.052   6.393
    8AU     LIG 2918   3.598  14.153   6.139
    8AU     LIG 2919   3.681  14.190   5.913
    8AU     LIG 2920   3.789  14.170   5.679
    8AU       S 2921   5.124  14.533   6.708
    8AU     LIG 2922   5.339  14.579   6.537
    8AU     LIG 2923   5.496  14.691   6.389
    8AU     LIG 2924   5.677  14.810   6.245
    8AU       S 2925   5.376  14.509   7.556
    8AU     LIG 2926   5.589  14.713   7.540
    8AU     LIG 2927   5.833  14.757   7.511
    8AU     LIG 2928   6.086  14.820   7.532
    8AU       S 2929   5.552  14.210   7.388
    8AU     LIG 2930   5.821  14.281   7.293
    8AU     LIG 2931   6.061  14.347   7.306
    8AU     LIG 2932   6.283  14.461   7.226
    8AU       S 2933   5.416  13.331   7.790
    8AU     LIG 2934   5.651  13.229   7.920
    8AU     LIG 2935   5.904  13.224   7.859
    8AU     LIG 2936   6.153  13.192   7.780
    8AU       S 2937   5.113  14.638   8.127
    8AU     LIG 2938   5.308  14.815   8.210
    8AU     LIG 2939   5.353  15.014   8.357
    8AU     LIG 2940   5.372  15.193   8.540
    8AU       S 2941   5.523  14.242   7.663
    8AU     LIG 2942   5.761  14.313   7.814
    8AU     LIG 2943   5.998  14.380   7.811
    8AU     LIG 2944   6.228  14.470   7.878
    8AU       S 2945   3.449  14.487   8.203
    8AU     LIG 2946   3.210  14.479   8.380
    8AU     LIG 2947   3.024  14.618   8.444
    8AU     LIG 2948   2.848  14.737   8.594
    8AU       S 2949   3.616  14.911   7.463
    8AU     LIG 2950   3.456  15.119   7.335
    8AU     LIG 2951   3.210  15.099   7.239
    8AU     LIG 2952   3.022  14.942   7.123
    8AU       S 2953   3.052  14.130   7.139
    8AU     LIG 2954   2.814  14.135   7.071
    8AU     LIG 2955   2.559  14.211   7.141
    8AU     LIG 2956   2.414  14.424   7.163
    8AU       S 2957   3.482  14.784   6.929
    8AU     LIG 2958   3.409  14.992   6.787
    8AU     LIG 2959   3.267  15.171   6.702
    8AU     LIG 2960   3.136  15.326   6.537
    8AU       S 2961   2.963  13.726   7.449
    8AU     LIG 2962   2.686  13.716   7.337
    8AU     LIG 2963   2.443  13.698   7.332
    8AU     LIG 2964   2.209  13.577   7.284
    8AU       S 2965   3.154  14.045   8.097
    8AU     LIG 2966   2.841  14.149   8.182
    8AU     LIG 2967   2.724  14.361   8.094
    8AU     LIG 2968   2.544  14.508   7.968
    8AU       S 2969   5.146  13.161   7.606
    8AU     LIG 2970   5.280  12.859   7.622
    8AU     LIG 2971   5.508  12.793   7.697
    8AU     LIG 2972   5.779  12.779   7.655
    8AU       S 2973   4.990  13.100   8.066
    8AU     LIG 2974   5.237  12.964   8.105
    8AU     LIG 2975   5.367  12.876   8.287
    8AU     LIG 2976   5.414  12.806   8.537
    8AU       S 2977   5.403  13.311   7.519
    8AU     LIG 2978   5.626  13.189   7.383
    8AU     LIG 2979   5.867  13.190   7.343
    8AU     LIG 2980   6.108  13.118   7.280
    8AU       S 2981   5.095  13.168   6.925
    8AU     LIG 2982   5.160  12.908   6.822
    8AU     LIG 2983   5.033  12.685   6.774
    8AU     LIG 2984   4.992  12.466   6.659
    8AU       S 2985   3.460  13.343   6.817
    8AU     LIG 2986   3.227  13.353   6.620
    8AU     LIG 2987   3.050  13.236   6.527
    8AU     LIG 2988   2.844  13.078   6.465
    8AU       S 2989   3.045  13.435   7.583
    8AU     LIG 2990   2.828  13.269   7.588
    8AU     LIG 2991   2.601  13.221   7.482
    8AU     LIG 2992   2.368  13.117   7.441
    8AU       S 2993   3.457  13.214   8.082
    8AU     LIG 2994   3.281  13.006   8.068
    8AU     LIG 2995   3.161  12.820   8.174
    8AU     LIG 2996   3.028  12.634   8.287
    8AU       S 2997   2.987  13.730   7.713
    8AU     LIG 2998   2.753  13.702   7.888
    8AU     LIG 2999   2.514  13.610   7.835
    8AU     LIG 3000   2.305  13.475   7.809
    8AU       S 3001   3.656  14.929   7.989
    8AU     LIG 3002   3.421  15.118   8.062
    8AU     LIG 3003   3.196  15.081   8.206
    8AU     LIG 3004   3.064  15.158   8.412
    8AU       S 3005   4.399  15.115   8.053
    8AU     LIG 3006   4.510  15.302   8.255
    8AU     LIG 3007   4.398  15.492   8.380
    8AU     LIG 3008   4.253  15.693   8.444
    8AU       S 3009   4.161  15.250   7.925
    8AU     LIG 3010   4.072  15.475   7.968
    8AU     LIG 3011   4.046  15.734   7.984
    8AU     LIG 3012   4.055  15.985   8.012
    8AU       S 3013   4.326  15.093   7.131
    8AU     LIG 3014   4.392  15.362   7.146
    8AU     LIG 3015   4.426  15.594   7.130
    8AU     LIG 3016   4.489  15.837   7.042
    8AU       S 3017   4.836  14.605   8.364
    8AU     LIG 3018   4.911  14.824   8.543
    8AU     LIG 3019   5.012  14.905   8.736
    8AU     LIG 3020   5.138  14.923   8.967
    8AU       S 3021   4.538  15.166   7.734
    8AU     LIG 3022   4.570  15.439   7.718
    8AU     LIG 3023   4.545  15.649   7.875
    8AU     LIG 3024   4.557  15.833   8.040
    8AU       S 3025   4.259  12.756   8.062
    8AU     LIG 3026   4.378  12.550   8.213
    8AU     LIG 3027   4.366  12.343   8.334
    8AU     LIG 3028   4.347  12.106   8.434
    8AU       S 3029   4.742  12.989   7.902
    8AU     LIG 3030   4.846  12.685   7.827
    8AU     LIG 3031   5.006  12.551   7.925
    8AU     LIG 3032   5.218  12.451   8.057
    8AU       S 3033   4.007  12.670   7.896
    8AU     LIG 3034   3.958  12.403   7.918
    8AU     LIG 3035   3.980  12.185   8.033
    8AU     LIG 3036   3.970  11.947   8.129
    8AU       S 3037   3.601  13.296   8.386
    8AU     LIG 3038   3.474  13.078   8.570
    8AU     LIG 3039   3.337  12.904   8.640
    8AU     LIG 3040   3.200  12.710   8.762
    8AU       S 3041   4.325  12.766   7.221
    8AU     LIG 3042   4.264  12.438   7.210
    8AU     LIG 3043   4.249  12.242   7.090
    8AU     LIG 3044   4.249  11.975   7.027
    8AU       S 3045   4.339  12.719   7.758
    8AU     LIG 3046   4.439  12.417   7.712
    8AU     LIG 3047   4.452  12.220   7.838
    8AU     LIG 3048   4.446  11.974   7.941
    8AU       S 3049   4.178  15.013   6.835
    8AU     LIG 3050   4.184  15.242   6.681
    8AU     LIG 3051   4.307  15.458   6.641
    8AU     LIG 3052   4.373  15.692   6.564
    8AU       S 3053   5.017  14.789   6.958
    8AU     LIG 3054   5.215  14.993   6.901
    8AU     LIG 3055   5.374  15.067   6.721
    8AU     LIG 3056   5.522  15.189   6.558
    8AU       S 3057   3.975  15.034   7.112
    8AU     LIG 3058   3.863  15.312   7.085
    8AU     LIG 3059   3.920  15.538   6.998
    8AU     LIG 3060   3.994  15.763   6.907
    8AU       S 3061   3.537  14.444   6.654
    8AU     LIG 3062   3.477  14.579   6.415
    8AU     LIG 3063   3.487  14.809   6.319
    8AU     LIG 3064   3.460  15.048   6.239
    8AU       S 3065   3.482  13.112   7.029
    8AU     LIG 3066   3.225  12.939   6.950
    8AU     LIG 3067   3.138  12.797   6.784
    8AU     LIG 3068   3.052  12.624   6.606
    8AU       S 3069   4.395  12.805   6.941
    8AU     LIG 3070   4.512  12.626   6.769
    8AU     LIG 3071   4.485  12.416   6.646
    8AU     LIG 3072   4.409  12.178   6.582
    8AU       S 3073   4.588  12.806   7.324
    8AU     LIG 3074   4.752  12.565   7.293
    8AU     LIG 3075   4.759  12.359   7.128
    8AU     LIG 3076   4.744  12.142   6.984
    8AU       S 3077   4.849  13.315   6.673
    8AU     LIG 3078   4.835  13.137   6.470
    8AU     LIG 3079   4.825  12.909   6.376
    8AU     LIG 3080   4.876  12.706   6.221
    9AU     AUC 3081  14.494  18.529   7.535
    9AU     AUC 3082  14.746  18.534   7.369
    9AU     AUC 3083  14.735  18.521   7.699
    9AU     AUC 3084  14.224  18.537   7.380
    9AU     AUC 3085  14.250  18.566   7.705
    9AU     AUC 3086  14.333  18.782   7.513
    9AU     AUC 3087  14.680  18.794   7.516
    9AU     AUC 3088  14.315  18.275   7.543
    9AU     AUC 3089  14.646  18.253   7.545
    9AU     AUC 3090  14.488  18.369   7.798
    9AU     AUC 3091  14.507  18.709   7.779
    9AU     AUC 3092  14.481  18.356   7.287
    9AU     AUC 3093  14.501  18.662   7.271
    9AU     AUC 3094  15.049  18.525   7.204
    9AU     AUC 3095  15.057  18.505   7.545
    9AU     AUC 3096  15.015  18.492   7.899
    9AU     AUC 3097  13.922  18.511   7.228
    9AU     AUC 3098  13.921  18.570   7.556
    9AU     AUC 3099  13.950  18.609   7.888
    9AU     AUC 3100  14.168  19.095   7.474
    9AU     AUC 3101  14.528  19.069   7.457
    9AU     AUC 3102  14.894  19.057   7.487
    9AU     AUC 3103  14.111  17.986   7.548
    9AU     AUC 3104  14.462  17.962   7.529
    9AU     AUC 3105  14.818  17.951   7.546
    9AU     AUC 3106  14.447  18.203   8.101
    9AU     AUC 3107  14.484  18.545   8.101
    9AU     AUC 3108  14.541  18.909   8.062
    9AU     AUC 3109  14.512  18.166   6.997
    9AU     AUC 3110  14.460  18.507   6.973
    9AU     AUC 3111  14.457  18.830   6.957
    9AU     AUC 3112  14.729  18.307   8.012
    9AU     AUC 3113  14.785  18.683   7.987
    9AU     AUC 3114  14.784  18.369   7.072
    9AU     AUC 3115  14.749  18.681   7.079
    9AU     AUC 3116  14.195  18.427   8.000
    9AU     AUC 3117  14.242  18.777   7.971
    9AU     AUC 3118  14.206  18.326   7.103
    9AU     AUC 3119  14.160  18.654   7.083
    9AU     AUC 3120  14.987  18.797   7.346
    9AU     AUC 3121  14.953  18.794   7.705
    9AU     AUC 3122  14.028  18.809   7.383
    9AU     AUC 3123  14.073  18.875   7.713
    9AU     AUC 3124  14.950  18.246   7.407
    9AU     AUC 3125  14.898  18.200   7.739
    9AU     AUC 3126  14.029  18.223   7.373
    9AU     AUC 3127  14.055  18.297   7.716
    9AU     AUC 3128  14.393  19.027   7.782
    9AU     AUC 3129  14.732  18.982   7.793
    9AU     AUC 3130  14.280  18.094   7.817
    9AU     AUC 3131  14.598  18.041   7.809
    9AU     AUC 3132  14.303  18.960   7.215
    9AU     AUC 3133  14.668  18.976   7.226
    9AU     AUC 3134  14.334  18.062   7.258
    9AU     AUC 3135  14.694  18.107   7.274
    9AU    AUSL 3136  14.993  18.397   8.316
    9AU    AUSL 3137  14.743  18.024   8.222
    9AU     AUL 3138  15.050  18.025   8.389
    9AU    AUSL 3139  14.578  18.339   8.460
    9AU    AUSL 3140  14.340  18.748   8.451
    9AU     AUL 3141  14.576  18.623   8.710
    9AU    AUSL 3142  14.677  18.696   8.204
    9AU    AUSL 3143  15.128  18.755   8.126
    9AU     AUL 3144  14.946  18.720   8.435
    9AU    AUSL 3145  14.901  18.557   6.840
    9AU    AUSL 3146  14.762  18.953   6.981
    9AU     AUL 3147  14.976  18.885   6.681
    9AU    AUSL 3148  14.713  18.235   6.612
    9AU    AUSL 3149  15.220  18.305   6.982
    9AU     AUL 3150  15.088  18.379   6.665
    9AU    AUSL 3151  14.545  18.739   6.670
    9AU    AUSL 3152  14.367  18.353   6.829
    9AU     AUL 3153  14.498  18.432   6.524
    9AU    AUSL 3154  13.956  18.710   8.243
    9AU    AUSL 3155  14.319  19.019   8.111
    9AU     AUL 3156  14.156  18.987   8.412
    9AU    AUSL 3157  14.257  18.397   8.191
    9AU    AUSL 3158  13.808  18.320   8.105
    9AU     AUL 3159  13.865  18.409   8.341
    9AU    AUSL 3160  13.931  18.335   6.795
    9AU    AUSL 3161  14.180  17.985   6.947
    9AU     AUL 3162  14.204  18.071   6.641
    9AU    AUSL 3163  14.117  18.703   6.675
    9AU    AUSL 3164  13.837  18.684   7.050
    9AU     AUL 3165  13.720  18.565   6.776
    9AU    AUSL 3166  15.285  18.992   7.476
    9AU    AUSL 3167  15.160  18.782   7.096
    9AU     AUL 3168  15.455  18.987   7.128
    9AU    AUSL 3169  15.450  18.596   7.367
    9AU    AUSL 3170  15.399  18.298   7.768
    9AU     AUL 3171  15.661  18.382   7.571
    9AU    AUSL 3172  15.172  18.651   7.718
    9AU    AUSL 3173  15.130  19.095   7.853
    9AU     AUL 3174  15.378  18.835   7.878
    9AU    AUSL 3175  13.919  19.172   7.522
    9AU    AUSL 3176  13.956  18.924   7.878
    9AU     AUL 3177  13.647  19.169   7.745
    9AU    AUSL 3178  13.718  18.793   7.444
    9AU    AUSL 3179  13.871  19.109   7.106
    9AU     AUL 3180  13.635  19.034   7.263
    9AU    AUSL 3181  13.591  18.715   7.888
    9AU    AUSL 3182  13.558  18.409   7.349
    9AU     AUL 3183  13.436  18.726   7.590
    9AU    AUSL 3184  15.177  17.949   7.615
    9AU    AUSL 3185  15.003  18.232   7.925
    9AU     AUL 3186  15.310  18.138   8.001
    9AU    AUSL 3187  15.135  18.319   7.397
    9AU    AUSL 3188  15.125  17.917   7.188
    9AU     AUL 3189  15.369  18.127   7.250
    9AU    AUSL 3190  13.711  18.030   7.553
    9AU    AUSL 3191  13.922  18.240   7.205
    9AU     AUL 3192  13.572  18.133   7.213
    9AU    AUSL 3193  13.828  18.431   7.694
    9AU    AUSL 3194  14.018  18.047   7.849
    9AU     AUL 3195  13.637  18.200   7.848
    9AU    AUSL 3196  14.560  19.355   7.966
    9AU    AUSL 3197  14.105  19.334   7.878
    9AU     AUL 3198  14.327  19.379   8.194
    9AU    AUSL 3199  14.392  19.210   7.591
    9AU    AUSL 3200  14.643  19.343   7.247
    9AU     AUL 3201  14.412  19.550   7.554
    9AU    AUSL 3202  14.830  19.286   7.623
    9AU    AUSL 3203  14.824  19.085   8.153
    9AU     AUL 3204  14.943  19.375   7.941
    9AU    AUSL 3205  14.418  17.889   7.970
    9AU    AUSL 3206  14.842  17.830   7.849
    9AU     AUL 3207  14.603  17.768   8.223
    9AU    AUSL 3208  14.110  17.667   7.699
    9AU    AUSL 3209  14.138  18.004   8.274
    9AU     AUL 3210  14.146  17.706   8.050
    9AU    AUSL 3211  14.542  17.592   7.667
    9AU    AUSL 3212  14.335  17.837   7.362
    9AU     AUL 3213  14.218  17.492   7.487
    9AU    AUSL 3214  14.470  19.228   6.843
    9AU    AUSL 3215  15.042  19.206   7.199
    9AU     AUL 3216  14.786  19.316   6.936
    9AU    AUSL 3217  14.221  19.322   7.210
    9AU    AUSL 3218  14.244  18.911   7.014
    9AU     AUL 3219  14.151  19.217   6.856
    9AU    AUSL 3220  14.560  17.785   6.981
    9AU    AUSL 3221  13.927  17.799   7.258
    9AU     AUL 3222  14.223  17.651   7.043
    9AU    AUSL 3223  14.767  17.809   7.381
    9AU    AUSL 3224  14.790  18.142   7.018
    9AU     AUL 3225  14.884  17.769   7.050
    9AU       S 3226  15.015  17.574   8.227
    9AU     LIG 3227  15.062  17.340   8.352
    9AU     LIG 3228  15.184  17.180   8.479
    9AU     LIG 3229  15.342  17.003   8.590
    9AU       S 3230  15.049  18.364   8.719
    9AU     LIG 3231  15.212  18.422   8.921
    9AU     LIG 3232  15.302  18.478   9.146
    9AU     LIG 3233  15.408  18.445   9.383
    9AU       S 3234  14.727  18.171   8.725
    9AU     LIG 3235  14.783  18.077   9.005
    9AU     LIG 3236  14.949  18.093   9.203
    9AU     LIG 3237  15.083  18.048   9.419
    9AU       S 3238  14.102  18.661   8.757
    9AU     LIG 3239  14.065  18.685   9.059
    9AU     LIG 3240  13.947  18.670   9.261
    9AU     LIG 3241  13.799  18.647   9.479
    9AU       S 3242  14.627  19.095   8.566
    9AU     LIG 3243  14.744  19.232   8.771
    9AU     LIG 3244  14.957  19.152   8.933
    9AU     LIG 3245  15.180  19.026   8.947
    9AU       S 3246  15.319  18.987   8.334
    9AU     LIG 3247  15.502  19.027   8.555
    9AU     LIG 3248  15.642  19.184   8.669
    9AU     LIG 3249  15.818  19.360   8.744
    9AU       S 3250  14.920  18.616   6.306
    9AU     LIG 3251  15.135  18.671   6.093
    9AU     LIG 3252  15.269  18.505   5.955
    9AU     LIG 3253  15.329  18.314   5.795
    9AU       S 3254  15.135  19.316   6.652
    9AU     LIG 3255  15.181  19.509   6.462
    9AU     LIG 3256  15.344  19.599   6.288
    9AU     LIG 3257  15.509  19.690   6.123
    9AU       S 3258  15.395  18.027   6.768
    9AU     LIG 3259  15.557  17.940   6.527
    9AU     LIG 3260  15.571  17.721   6.388
    9AU     LIG 3261  15.587  17.466   6.348
    9AU       S 3262  14.841  18.321   6.240
    9AU     LIG 3263  14.863  18.197   6.011
    9AU     LIG 3264  14.850  18.124   5.771
    9AU     LIG 3265  14.921  18.104   5.521
    9AU       S 3266  14.107  18.381   6.303
    9AU     LIG 3267  14.162  18.348   6.024
    9AU     LIG 3268  14.168  18.294   5.795
    9AU     LIG 3269  14.092  18.253   5.540
    9AU       S 3270  14.677  18.762   6.264
    9AU     LIG 3271  14.578  18.696   5.973
    9AU     LIG 3272  14.720  18.621   5.780
    9AU     LIG 3273  14.913  18.613   5.607
    9AU       S 3274  13.826  18.749   8.643
    9AU     LIG 3275  13.615  18.724   8.819
    9AU     LIG 3276  13.561  18.508   8.977
    9AU     LIG 3277  13.491  18.376   9.166
    9AU       S 3278  13.857  19.307   8.268
    9AU     LIG 3279  13.771  19.462   8.501
    9AU     LIG 3280  13.630  19.473   8.694
    9AU     LIG 3281  13.461  19.562   8.877
    9AU       S 3282  13.580  18.041   8.284
    9AU     LIG 3283  13.334  17.972   8.381
    9AU     LIG 3284  13.189  17.780   8.457
    9AU     LIG 3285  13.062  17.598   8.575
    9AU       S 3286  14.151  18.369   8.684
    9AU     LIG 3287  14.074  18.193   8.887
    9AU     LIG 3288  13.961  18.173   9.105
    9AU     LIG 3289  13.916  18.159   9.361
    9AU       S 3290  13.845  18.293   6.418
    9AU     LIG 3291  13.666  18.223   6.208
    9AU     LIG 3292  13.655  18.294   5.957
    9AU     LIG 3293  13.643  18.404   5.737
    9AU       S 3294  13.879  17.745   6.745
    9AU     LIG 3295  13.805  17.558   6.540
    9AU     LIG 3296  13.647  17.516   6.354
    9AU     LIG 3297  13.463  17.467   6.184
    9AU       S 3298  13.509  18.971   6.798
    9AU     LIG 3299  13.302  19.140   6.744
    9AU     LIG 3300  13.250  19.339   6.588
    9AU     LIG 3301  13.226  19.462   6.367
    9AU       S 3302  14.007  18.649   6.393
    9AU     LIG 3303  13.840  18.750   6.139
    9AU     LIG 3304  13.923  18.787   5.913
    9AU     LIG 3305  14.031  18.767   5.679
    9AU       S 3306  15.366  19.130   6.708
    9AU     LIG 3307  15.581  19.176   6.537
    9AU     LIG 3308  15.738  19.288   6.389
    9AU     LIG 3309  15.919  19.407   6.245
    9AU       S 3310  15.618  19.106   7.556
    9AU     LIG 3311  15.831  19.310   7.540
    9AU     LIG 3312  16.075  19.354   7.511
    9AU     LIG 3313  16.328  19.417   7.532
    9AU       S 3314  15.794  18.807   7.388
    9AU     LIG 3315  16.063  18.878   7.293
    9AU     LIG 3316  16.303  18.944   7.306
    9AU     LIG 3317  16.525  19.058   7.226
    9AU       S 3318  15.658  17.928   7.790
    9AU     LIG 3319  15.893  17.826   7.920
    9AU     LIG 3320  16.146  17.821   7.859
    9AU     LIG 3321  16.395  17.789   7.780
    9AU       S 3322  15.355  19.235   8.127
    9AU     LIG 3323  15.550  19.412   8.210
    9AU     LIG 3324  15.595  19.611   8.357
    9AU     LIG 3325  15.614  19.790   8.540
    9AU       S 3326  15.765  18.839   7.663
    9AU     LIG 3327  16.003  18.910   7.814
    9AU     LIG 3328  16.240  18.977   7.811
    9AU     LIG 3329  16.470  19.067   7.878
    9AU       S 3330  13.691  19.084   8.203
    9AU     LIG 3331  13.452  19.076   8.380
    9AU     LIG 3332  13.266  19.215   8.444
    9AU     LIG 3333  13.090  19.334   8.594
    9AU       S 3334  13.858  19.508   7.463
    9AU     LIG 3335  13.698  19.716   7.335
    9AU     LIG 3336  13.452  19.696   7.239
    9AU     LIG 3337  13.264  19.539   7.123
    9AU       S 3338  13.294  18.727   7.139
    9AU     LIG 3339  13.056  18.732   7.071
    9AU     LIG 3340  12.801  18.808   7.141
    9AU     LIG 3341  12.656  19.021   7.163
    9AU       S 3342  13.724  19.381   6.929
    9AU     LIG 3343  13.651  19.589   6.787
    9AU     LIG 3344  13.509  19.768   6.702
    9AU     LIG 3345  13.378  19.923   6.537
    9AU       S 3346  13.205  18.323   7.449
    9AU     LIG 3347  12.928  18.313   7.337
    9AU     LIG 3348  12.685  18.295   7.332
    9AU     LIG 3349  12.451  18.174   7.284
    9AU       S 3350  13.396  18.642   8.097
    9AU     LIG 3351  13.083  18.746   8.182
    9AU     LIG 3352  12.966  18.958   8.094
    9AU     LIG 3353  12.786  19.105   7.968
    9AU       S 3354  15.388  17.758   7.606
    9AU     LIG 3355  15.522  17.456   7.622
    9AU     LIG 3356  15.750  17.390   7.697
    9AU     LIG 3357  16.021  17.376   7.655
    9AU       S 3358  15.232  17.697   8.066
    9AU     LIG 3359  15.479  17.561   8.105
    9AU     LIG 3360  15.609  17.473   8.287
    9AU     LIG 3361  15.656  17.403   8.537
    9AU       S 3362  15.645  17.908   7.519
    9AU     LIG 3363  15.868  17.786   7.383
    9AU     LIG 3364  16.109  17.787   7.343
    9AU     LIG 3365  16.350  17.715   7.280
    9AU       S 3366  15.337  17.765   6.925
    9AU     LIG 3367  15.402  17.505   6.822
    9AU     LIG 3368  15.275  17.282   6.774
    9AU     LIG 3369  15.234  17.063   6.659
    9AU       S 3370  13.702  17.940   6.817
    9AU     LIG 3371  13.469  17.950   6.620
    9AU     LIG 3372  13.292  17.833   6.527
    9AU     LIG 3373  13.086  17.675   6.465
    9AU       S 3374  13.287  18.032   7.583
    9AU     LIG 3375  13.070  17.866   7.588
    9AU     LIG 3376  12.843  17.818   7.482
    9AU     LIG 3377  12.610  17.714   7.441
    9AU       S 3378  13.699  17.811   8.082
    9AU     LIG 3379  13.523  17.603   8.068
    9AU     LIG 3380  13.403  17.417   8.174
    9AU     LIG 3381  13.270  17.231   8.287
    9AU       S 3382  13.229  18.327   7.713
    9AU     LIG 3383  12.995  18.299   7.888
    9AU     LIG 3384  12.756  18.207   7.835
    9AU     LIG 3385  12.547  18.072   7.809
    9AU       S 3386  13.898  19.526   7.989
    9AU     LIG 3387  13.663  19.715   8.062
    9AU     LIG 3388  13.438  19.678   8.206
    9AU     LIG 3389  13.306  19.755   8.412
    9AU       S 3390  14.641  19.712   8.053
    9AU     LIG 3391  14.752  19.899   8.255
    9AU     LIG 3392  14.640  20.089   8.380
    9AU     LIG 3393  14.495  20.290   8.444
    9AU       S 3394  14.403  19.847   7.925
    9AU     LIG 3395  14.314  20.072   7.968
    9AU     LIG 3396  14.288  20.331   7.984
    9AU     LIG 3397  14.297  20.582   8.012
    9AU       S 3398  14.568  19.690   7.131
    9AU     LIG 3399  14.634  19.959   7.146
    9AU     LIG 3400  14.668  20.191   7.130
    9AU     LIG 3401  14.731  20.434   7.042
    9AU       S 3402  15.078  19.202   8.364
    9AU     LIG 3403  15.153  19.421   8.543
    9AU     LIG 3404  15.254  19.502   8.736
    9AU     LIG 3405  15.380  19.520   8.967
    9AU       S 3406  14.780  19.763   7.734
    9AU     LIG 3407  14.812  20.036   7.718
    9AU     LIG 3408  14.787  20.246   7.875
    9AU     LIG 3409  14.799  20.430   8.040
    9AU       S 3410  14.501  17.353   8.062
    9AU     LIG 3411  14.620  17.147   8.213
    9AU     LIG 3412  14.608  16.940   8.334
    9AU     LIG 3413  14.589  16.703   8.434
    9AU       S 3414  14.984  17.586   7.902
    9AU     LIG 3415  15.088  17.282   7.827
    9AU     LIG 3416  15.248  17.148   7.925
    9AU     LIG 3417  15.460  17.048   8.057
    9AU       S 3418  14.249  17.267   7.896
    9AU     LIG 3419  14.200  17.000   7.918
    9AU     LIG 3420  14.222  16.782   8.033
    9AU     LIG 3421  14.212  16.544   8.129
    9AU       S 3422  13.843  17.893   8.386
    9AU     LIG 3423  13.716  17.675   8.570
    9AU     LIG 3424  13.579  17.501   8.640
    9AU     LIG 3425  13.442  17.307   8.762
    9AU       S 3426  14.567  17.363   7.221
    9AU     LIG 3427  14.506  17.035   7.210
    9AU     LIG 3428  14.491  16.839   7.090
    9AU     LIG 3429  14.491  16.572   7.027
    9AU       S 3430  14.581  17.316   7.758
    9AU     LIG 3431  14.681  17.014   7.712
    9AU     LIG 3432  14.694  16.817   7.838
    9AU     LIG 3433  14.688  16.571   7.941
    9AU       S 3434  14.420  19.610   6.835
    9AU     LIG 3435  14.426  19.839   6.681
    9AU     LIG 3436  14.549  20.055   6.641
    9AU     LIG 3437  14.615  20.289   6.564
    9AU       S 3438  15.259  19.386   6.958
    9AU     LIG 3439  15.457  19.590   6.901
    9AU     LIG 3440  15.616  19.664   6.721
    9AU     LIG 3441  15.764  19.786   6.558
    9AU       S 3442  14.217  19.631   7.112
    9AU     LIG 3443  14.105  19.909   7.085
    9AU     LIG 3444  14.162  20.135   6.998
    9AU     LIG 3445  14.236  20.360   6.907
    9AU       S 3446  13.779  19.041   6.654
    9AU     LIG 3447  13.719  19.176   6.415
    9AU     LIG 3448  13.729  19.406   6.319
    9AU     LIG 3449  13.702  19.645   6.239
    9AU       S 3450  13.724  17.709   7.029
    9AU     LIG 3451  13.467  17.536   6.950
    9AU     LIG 3452  13.380  17.394   6.784
    9AU     LIG 3453  13.294  17.221   6.606
    9AU       S 3454  14.637  17.402   6.941
    9AU     LIG 3455  14.754  17.223   6.769
    9AU     LIG 3456  14.727  17.013   6.646
    9AU     LIG 3457  14.651  16.775   6.582
    9AU       S 3458  14.830  17.403   7.324
    9AU     LIG 3459  14.994  17.162   7.293
    9AU     LIG 3460  15.001  16.956   7.128
    9AU     LIG 3461  14.986  16.739   6.984
    9AU       S 3462  15.091  17.912   6.673
    9AU     LIG 3463  15.077  17.734   6.470
    9AU     LIG 3464  15.067  17.506   6.376
    9AU     LIG 3465  15.118  17.303   6.221
   10AU     AUC 3466  24.056  17.080   7.535
   10AU     AUC 3467  24.308  17.085   7.369
   10AU     AUC 3468  24.297  17.072   7.699
   10AU     AUC 3469  23.786  17.088   7.380
   10AU     AUC 3470  23.812  17.117   7.705
   10AU     AUC 3471  23.895  17.333   7.513
   10AU     AUC 3472  24.242  17.345   7.516
   10AU     AUC 3473  23.877  16.826   7.543
   10AU     AUC 3474  24.208  16.804   7.545
   10AU     AUC 3475  24.050  16.920   7.798
   10AU     AUC 3476  24.069  17.260   7.779
   10AU     AUC 3477  24.043  16.907   7.287
   10AU     AUC 3478  24.063  17.213   7.271
   10AU     AUC 3479  24.611  17.076   7.204
   10AU     AUC 3480  24.619  17.056   7.545
   10AU     AUC 3481  24.577  17.043   7.899
   10AU     AUC 3482  23.484  17.062   7.228
   10AU     AUC 3483  23.483  17.121   7.556
   10AU     AUC 3484  23.512  17.160   7.888
   10AU     AUC 3485  23.730  17.646   7.474
   10AU     AUC 3486  24.090  17.620   7.457
   10AU     AUC 3487  24.456  17.608   7.487
   10AU     AUC 3488  23.673  16.537   7.548
   10AU     AUC 3489  24.024  16.513   7.529
   10AU     AUC 3490  24.380  16.502   7.546
   10AU     AUC 3491  24.009  16.754   8.101
   10AU     AUC 3492  24.046  17.096   8.101
   10AU     AUC 3493  24.103  17.460   8.062
   10AU     AUC 3494  24.074  16.717   6.997
   10AU     AUC 3495  24.022  17.058   6.973
   10AU     AUC 3496  24.019  17.381   6.957
   10AU     AUC 3497  24.291  16.858   8.012
   10AU     AUC 3498  24.347  17.234   7.987
   10AU     AUC 3499  24.346  16.920   7.072
   10AU     AUC 3500  24.311  17.232   7.079
   10AU     AUC 3501  23.757  16.978   8.000
   10AU     AUC 3502  23.804  17.328   7.971
   10AU     AUC 3503  23.768  16.877   7.103
   10AU     AUC 3504  23.722  17.205   7.083
   10AU     AUC 3505  24.549  17.348   7.346
   10AU     AUC 3506  24.515  17.345   7.705
   10AU     AUC 3507  23.590  17.360   7.383
   10AU     AUC 3508  23.635  17.426   7.713
   10AU     AUC 3509  24.512  16.797   7.407
   10AU     AUC 3510  24.460  16.751   7.739
   10AU     AUC 3511  23.591  16.774   7.373
   10AU     AUC 3512  23.617  16.848   7.716
   10AU     AUC 3513  23.955  17.578   7.782
   10AU     AUC 3514  24.294  17.533   7.793
   10AU     AUC 3515  23.842  16.645   7.817
   10AU     AUC 3516  24.160  16.592   7.809
   10AU     AUC 3517  23.865  17.511   7.215
   10AU     AUC 3518  24.230  17.527   7.226
   10AU     AUC 3519  23.896  16.613   7.258
   10AU     AUC 3520  24.256  16.658   7.274
   10AU    AUSL 3521  24.555  16.948   8.316
   10AU    AUSL 3522  24.305  16.575   8.222
   10AU     AUL 3523  24.612  16.576   8.389
   10AU    AUSL 3524  24.140  16.890   8.460
   10AU    AUSL 3525  23.902  17.299   8.451
   10AU     AUL 3526  24.138  17.174   8.710
   10AU    AUSL 3527  24.239  17.247   8.204
   10AU    AUSL 3528  24.690  17.306   8.126
   10AU     AUL 3529  24.508  17.271   8.435
   10AU    AUSL 3530  24.463  17.108   6.840
   10AU    AUSL 3531  24.324  17.504   6.981
   10AU     AUL 3532  24.538  17.436   6.681
   10AU    AUSL 3533  24.275  16.786   6.612
   10AU    AUSL 3534  24.782  16.856   6.982
   10AU     AUL 3535  24.650  16.930   6.665
   10AU    AUSL 3536  24.107  17.290   6.670
   10AU    AUSL 3537  23.929  16.904   6.829
   10AU     AUL 3538  24.060  16.983   6.524
   10AU    AUSL 3539  23.518  17.261   8.243
   10AU    AUSL 3540  23.881  17.570   8.111
   10AU     AUL 3541  23.718  17.538   8.412
   10AU    AUSL 3542  23.819  16.948   8.191
   10AU    AUSL 3543  23.370  16.871   8.105
   10AU     AUL 3544  23.427  16.960   8.341
   10AU    AUSL 3545  23.493  16.886   6.795
   10AU    AUSL 3546  23.742  16.536   6.947
   10AU     AUL 3547  23.766  16.622   6.641
   10AU    AUSL 3548  23.679  17.254   6.675
   10AU    AUSL 3549  23.399  17.235   7.050
   10AU     AUL 3550  23.282  17.116   6.776
   10AU    AUSL 3551  24.847  17.543   7.476
   10AU    AUSL 3552  24.722  17.333   7.096
   10AU     AUL 3553  25.017  17.538   7.128
   10AU    AUSL 3554  25.012  17.147   7.367
   10AU    AUSL 3555  24.961  16.849   7.768
   10AU     AUL 3556  25.223  16.933   7.571
   10AU    AUSL 3557  24.734  17.202   7.718
   10AU    AUSL 3558  24.692  17.646   7.853
   10AU     AUL 3559  24.940  17.386   7.878
   10AU    AUSL 3560  23.481  17.723   7.522
   10AU    AUSL 3561  23.518  17.475   7.878
   10AU     AUL 3562  23.209  17.720   7.745
   10AU    AUSL 3563  23.280  17.344   7.444
   10AU    AUSL 3564  23.433  17.660   7.106
   10AU     AUL 3565  23.197  17.585   7.263
   10AU    AUSL 3566  23.153  17.266   7.888
   10AU    AUSL 3567  23.120  16.960   7.349
   10AU     AUL 3568  22.998  17.277   7.590
   10AU    AUSL 3569  24.739  16.500   7.615
   10AU    AUSL 3570  24.565  16.783   7.925
   10AU     AUL 3571  24.872  16.689   8.001
   10AU    AUSL 3572  24.697  16.870   7.397
   10AU    AUSL 3573  24.687  16.468   7.188
   10AU     AUL 3574  24.931  16.678   7.250
   10AU    AUSL 3575  23.273  16.581   7.553
   10AU    AUSL 3576  23.484  16.791   7.205
   10AU     AUL 3577  23.134  16.684   7.213
   10AU    AUSL 3578  23.390  16.982   7.694
   10AU    AUSL 3579  23.580  16.598   7.849
   10AU     AUL 3580  23.199  16.751   7.848
   10AU    AUSL 3581  24.122  17.906   7.966
   10AU    AUSL 3582  23.667  17.885   7.878
   10AU     AUL 3583  23.889  17.930   8.194
   10AU    AUSL 3584  23.954  17.761   7.591
   10AU    AUSL 3585  24.205  17.894   7.247
   10AU     AUL 3586  23.974  18.101   7.554
   10AU    AUSL 3587  24.392  17.837   7.623
   10AU    AUSL 3588  24.386  17.636   8.153
   10AU     AUL 3589  24.505  17.926   7.941
   10AU    AUSL 3590  23.980  16.440   7.970
   10AU    AUSL 3591  24.404  16.381   7.849
   10AU     AUL 3592  24.165  16.319   8.223
   10AU    AUSL 3593  23.672  16.218   7.699
   10AU    AUSL 3594  23.700  16.555   8.274
   10AU     AUL 3595  23.708  16.257   8.050
   10AU    AUSL 3596  24.104  16.143   7.667
   10AU    AUSL 3597  23.897  16.388   7.362
   10AU     AUL 3598  23.780  16.043   7.487
   10AU    AUSL 3599  24.032  17.779   6.843
   10AU    AUSL 3600  24.604  17.757   7.199
   10AU     AUL 3601  24.348  17.867   6.936
   10AU    AUSL 3602  23.783  17.873   7.210
   10AU    AUSL 3603  23.806  17.462   7.014
   10AU     AUL 3604  23.713  17.768   6.856
   10AU    AUSL 3605  24.122  16.336   6.981
   10AU    AUSL 3606  23.489  16.350   7.258
   10AU     AUL 3607  23.785  16.202   7.043
   10AU    AUSL 3608  24.329  16.360   7.381
   10AU    AUSL 3609  24.352  16.693   7.018
   10AU     AUL 3610  24.446  16.320   7.050
   10AU       S 3611  24.577  16.125   8.227
   10AU     LIG 3612  24.624  15.891   8.352
   10AU     LIG 3613  24.746  15.731   8.479
   10AU     LIG 3614  24.904  15.554   8.590
   10AU       S 3615  24.611  16.915   8.719
   10AU     LIG 3616  24.774  16.973   8.921
   10AU     LIG 3617  24.864  17.029   9.146
   10AU     LIG 3618  24.970  16.996   9.383
   10AU       S 3619  24.289  16.722   8.725
   10AU     LIG 3620  24.345  16.628   9.005
   10AU     LIG 3621  24.511  16.644   9.203
   10AU     LIG 3622  24.645  16.599   9.419
   10AU       S 3623  23.664  17.212   8.757
   10AU     LIG 3624  23.627  17.236   9.059
   10AU     LIG 3625  23.509  17.221   9.261
   10AU     LIG 3626  23.361  17.198   9.479
   10AU       S 3627  24.189  17.646   8.566
   10AU     LIG 3628  24.306  17.783   8.771
   10AU     LIG 3629  24.519  17.703   8.933
   10AU     LIG 3630  24.742  17.577   8.947
   10AU       S 3631  24.881  17.538   8.334
   10AU     LIG 3632  25.064  17.578   8.555
   10AU     LIG 3633  25.204  17.735   8.669
   10AU     LIG 3634  25.380  17.911   8.744
   10AU       S 3635  24.482  17.167   6.306
   10AU     LIG 3636  24.697  17.222   6.093
   10AU     LIG 3637  24.831  17.056   5.955
   10AU     LIG 3638  24.891  16.865   5.795
   10AU       S 3639  24.697  17.867   6.652
   10AU     LIG 3640  24.743  18.060   6.462
   10AU     LIG 3641  24.906  18.150   6.288
   10AU     LIG 3642  25.071  18.241   6.123
   10AU       S 3643  24.957  16.578   6.768
   10AU     LIG 3644  25.119  16.491   6.527
   10AU     LIG 3645  25.133  16.272   6.388
   10AU     LIG 3646  25.149  16.017   6.348
   10AU       S 3647  24.403  16.872   6.240
   10AU     LIG 3648  24.425  16.748   6.011
   10AU     LIG 3649  24.412  16.675   5.771
   10AU     LIG 3650  24.483  16.655   5.521
   10AU       S 3651  23.669  16.932   6.303
   10AU     LIG 3652  23.724  16.899   6.024
   10AU     LIG 3653  23.730  16.845   5.795
   10AU     LIG 3654  23.654  16.804   5.540
   10AU       S 3655  24.239  17.313   6.264
   10AU     LIG 3656  24.140  17.247   5.973
   10AU     LIG 3657  24.282  17.172   5.780
   10AU     LIG 3658  24.475  17.164   5.607
   10AU       S 3659  23.388  17.300   8.643
   10AU     LIG 3660  23.177  17.275   8.819
   10AU     LIG 3661  23.123  17.059   8.977
   10AU     LIG 3662  23.053  16.927   9.166
   10AU       S 3663  23.419  17.858   8.268
   10AU     LIG 3664  23.333  18.013   8.501
   10AU     LIG 3665  23.192  18.024   8.694
   10AU     LIG 3666  23.023  18.113   8.877
   10AU       S 3667  23.142  16.592   8.284
   10AU     LIG 3668  22.896  16.523   8.381
   10AU     LIG 3669  22.751  16.331   8.457
   10AU     LIG 3670  22.624  16.149   8.575
   10AU       S 3671  23.713  16.920   8.684
   10AU     LIG 3672  23.636  16.744   8.887
   10AU     LIG 3673  23.523  16.724   9.105
   10AU     LIG 3674  23.478  16.710   9.361
   10AU       S 3675  23.407  16.844   6.418
   10AU     LIG 3676  23.228  16.774   6.208
   10AU     LIG 3677  23.217  16.845   5.957
   10AU     LIG 3678  23.205  16.955   5.737
   10AU       S 3679  23.441  16.296   6.745
   10AU     LIG 3680  23.367  16.109   6.540
   10AU     LIG 3681  23.209  16.067   6.354
   10AU     LIG 3682  23.025  16.018   6.184
   10AU       S 3683  23.071  17.522   6.798
   10AU     LIG 3684  22.864  17.691   6.744
   10AU     LIG 3685  22.812  17.890   6.588
   10AU     LIG 3686  22.788  18.013   6.367
   10AU       S 3687  23.569  17.200   6.393
   10AU     LIG 3688  23.402  17.301   6.139
   10AU     LIG 3689  23.485  17.338   5.913
   10AU     LIG 3690  23.593  17.318   5.679
   10AU       S 3691  24.928  17.681   6.708
   10AU     LIG 3692  25.143  17.727   6.537
   10AU     LIG 3693  25.300  17.839   6.389
   10AU     LIG 3694  25.481  17.958   6.245
   10AU       S 3695  25.180  17.657   7.556
   10AU     LIG 3696  25.393  17.861   7.540
   10AU     LIG 3697  25.637  17.905   7.511
   10AU     LIG 3698  25.890  17.968   7.532
   10AU       S 3699  25.356  17.358   7.388
   10AU     LIG 3700  25.625  17.429   7.293
   10AU     LIG 3701  25.865  17.495   7.306
   10AU     LIG 3702  26.087  17.609   7.226
   10AU       S 3703  25.220  16.479   7.790
   10AU     LIG 3704  25.455  16.377   7.920
   10AU     LIG 3705  25.708  16.372   7.859
   10AU     LIG 3706  25.957  16.340   7.780
   10AU       S 3707  24.917  17.786   8.127
   10AU     LIG 3708  25.112  17.963   8.210
   10AU     LIG 3709  25.157  18.162   8.357
   10AU     LIG 3710  25.176  18.341   8.540
   10AU       S 3711  25.327  17.390   7.663
   10AU     LIG 3712  25.565  17.461   7.814
   10AU     LIG 3713  25.802  17.528   7.811
   10AU     LIG 3714  26.032  17.618   7.878
   10AU       S 3715  23.253  17.635   8.203
   10AU     LIG 3716  23.014  17.627   8.380
   10AU     LIG 3717  22.828  17.766   8.444
   10AU     LIG 3718  22.652  17.885   8.594
   10AU       S 3719  23.420  18.059   7.463
   10AU     LIG 3720  23.260  18.267   7.335
   10AU     LIG 3721  23.014  18.247   7.239
   10AU     LIG 3722  22.826  18.090   7.123
   10AU       S 3723  22.856  17.278   7.139
   10AU     LIG 3724  22.618  17.283   7.071
   10AU     LIG 3725  22.363  17.359   7.141
   10AU     LIG 3726  22.218  17.572   7.163
   10AU       S 3727  23.286  17.932   6.929
   10AU     LIG 3728  23.213  18.140   6.787
   10AU     LIG 3729  23.071  18.319   6.702
   10AU     LIG 3730  22.940  18.474   6.537
   10AU       S 3731  22.767  16.874   7.449
   10AU     LIG 3732  22.490  16.864   7.337
   10AU     LIG 3733  22.247  16.846   7.332
   10AU     LIG 3734  22.013  16.725   7.284
   10AU       S 3735  22.958  17.193   8.097
   10AU     LIG 3736  22.645  17.297   8.182
   10AU     LIG 3737  22.528  17.509   8.094
   10AU     LIG 3738  22.348  17.656   7.968
   10AU       S 3739  24.950  16.309   7.606
   10AU     LIG 3740  25.084  16.007   7.622
   10AU     LIG 3741  25.312  15.941   7.697
   10AU     LIG 3742  25.583  15.927   7.655
   10AU       S 3743  24.794  16.248   8.066
   10AU     LIG 3744  25.041  16.112   8.105
   10AU     LIG 3745  25.171  16.024   8.287
   10AU     LIG 3746  25.218  15.954   8.537
   10AU       S 3747  25.207  16.459   7.519
   10AU     LIG 3748  25.430  16.337   7.383
   10AU     LIG 3749  25.671  16.338   7.343
   10AU     LIG 3750  25.912  16.266   7.280
   10AU       S 3751  24.899  16.316   6.925
   10AU     LIG 3752  24.964  16.056   6.822
   10AU     LIG 3753  24.837  15.833   6.774
   10AU     LIG 3754  24.796  15.614   6.659
   10AU       S 3755  23.264  16.491   6.817
   10AU     LIG 3756  23.031  16.501   6.620
   10AU     LIG 3757  22.854  16.384   6.527
   10AU     LIG 3758  22.648  16.226   6.465
   10AU       S 3759  22.849  16.583   7.583
   10AU     LIG 3760  22.632  16.417   7.588
   10AU     LIG 3761  22.405  16.369   7.482
   10AU     LIG 3762  22.172  16.265   7.441
   10AU       S 3763  23.261  16.362   8.082
   10AU     LIG 3764  23.085  16.154   8.068
   10AU     LIG 3765  22.965  15.968   8.174
   10AU     LIG 3766  22.832  15.782   8.287
   10AU       S 3767  22.791  16.878   7.713
   10AU     LIG 3768  22.557  16.850   7.888
   10AU     LIG 3769  22.318  16.758   7.835
   10AU     LIG 3770  22.109  16.623   7.809
   10AU       S 3771  23.460  18.077   7.989
   10AU     LIG 3772  23.225  18.266   8.062
   10AU     LIG 3773  23.000  18.229   8.206
   10AU     LIG 3774  22.868  18.306   8.412
   10AU       S 3775  24.203  18.263   8.053
   10AU     LIG 3776  24.314  18.450   8.255
   10AU     LIG 3777  24.202  18.640   8.380
   10AU     LIG 3778  24.057  18.841   8.444
   10AU       S 3779  23.965  18.398   7.925
   10AU     LIG 3780  23.876  18.623   7.968
   10AU     LIG 3781  23.850  18.882   7.984
   10AU     LIG 3782  23.859  19.133   8.012
   10AU       S 3783  24.130  18.241   7.131
   10AU     LIG 3784  24.196  18.510   7.146
   10AU     LIG 3785  24.230  18.742   7.130
   10AU     LIG 3786  24.293  18.985   7.042
   10AU       S 3787  24.640  17.753   8.364
   10AU     LIG 3788  24.715  17.972   8.543
   10AU     LIG 3789  24.816  18.053   8.736
   10AU     LIG 3790  24.942  18.071   8.967
   10AU       S 3791  24.342  18.314   7.734
   10AU     LIG 3792  24.374  18.587   7.718
   10AU     LIG 3793  24.349  18.797   7.875
   10AU     LIG 3794  24.361  18.981   8.040
   10AU       S 3795  24.063  15.904   8.062
   10AU     LIG 3796  24.182  15.698   8.213
   10AU     LIG 3797  24.170  15.491   8.334
   10AU     LIG 3798  24.151  15.254   8.434
   10AU       S 3799  24.546  16.137   7.902
   10AU     LIG 3800  24.650  15.833   7.827
   10AU     LIG 3801  24.810  15.699   7.925
   10AU     LIG 3802  25.022  15.599   8.057
   10AU       S 3803  23.811  15.818   7.896
   10AU     LIG 3804  23.762  15.551   7.918
   10AU     LIG 3805  23.784  15.333   8.033
   10AU     LIG 3806  23.774  15.095   8.129
   10AU       S 3807  23.405  16.444   8.386
   10AU     LIG 3808  23.278  16.226   8.570
   10AU     LIG 3809  23.141  16.052   8.640
   10AU     LIG 3810  23.004  15.858   8.762
   10AU       S 3811  24.129  15.914   7.221
   10AU     LIG 3812  24.068  15.586   7.210
   10AU     LIG 3813  24.053  15.390   7.090
   10AU     LIG 3814  24.053  15.123   7.027
   10AU       S 3815  24.143  15.867   7.758
   10AU     LIG 3816  24.243  15.565   7.712
   10AU     LIG 3817  24.256  15.368   7.838
   10AU     LIG 3818  24.250  15.122   7.941
   10AU       S 3819  23.982  18.161   6.835
   10AU     LIG 3820  23.988  18.390   6.681
   10AU     LIG 3821  24.111  18.606   6.641
   10AU     LIG 3822  24.177  18.840   6.564
   10AU       S 3823  24.821  17.937   6.958
   10AU     LIG 3824  25.019  18.141   6.901
   10AU     LIG 3825  25.178  18.215   6.721
   10AU     LIG 3826  25.326  18.337   6.558
   10AU       S 3827  23.779  18.182   7.112
   10AU     LIG 3828  23.667  18.460   7.085
   10AU     LIG 3829  23.724  18.686   6.998
   10AU     LIG 3830  23.798  18.911   6.907
   10AU       S 3831  23.341  17.592   6.654
   10AU     LIG 3832  23.281  17.727   6.415
   10AU     LIG 3833  23.291  17.957   6.319
   10AU     LIG 3834  23.264  18.196   6.239
   10AU       S 3835  23.286  16.260   7.029
   10AU     LIG 3836  23.029  16.087   6.950
   10AU     LIG 3837  22.942  15.945   6.784
   10AU     LIG 3838  22.856  15.772   6.606
   10AU       S 3839  24.199  15.953   6.941
   10AU     LIG 3840  24.316  15.774   6.769
   10AU     LIG 3841  24.289  15.564   6.646
   10AU     LIG 3842  24.213  15.326   6.582
   10AU       S 3843  24.392  15.954   7.324
   10AU     LIG 3844  24.556  15.713   7.293
   10AU     LIG 3845  24.563  15.507   7.128
   10AU     LIG 3846  24.548  15.290   6.984
   10AU       S 3847  24.653  16.463   6.673
   10AU     LIG 3848  24.639  16.285   6.470
   10AU     LIG 3849  24.629  16.057   6.376
   10AU     LIG 3850  24.680  15.854   6.221
   11POPC   NC3 3851  38.487  26.055   9.464
   11POPC   PO4 3852  38.425  25.994   9.164
   11POPC   GL1 3853  38.469  26.047   8.864
   11POPC   GL2 3854  38.325  25.972   8.864
   11POPC   C1A 3855  38.456  26.030   8.564
   11POPC   D2A 3856  38.487  26.045   8.264
   11POPC   C3A 3857  38.504  26.003   7.964
   11POPC   C4A 3858  38.427  26.067   7.664
   11POPC   C1B 3859  38.304  25.858   8.564
   11POPC   C2B 3860  38.218  25.898   8.264
   11POPC   C3B 3861  38.255  25.910   7.964
   11POPC   C4B 3862  38.272  25.924   7.664
   12POPC   NC3 3863   1.978  22.918   9.464
   12POPC   PO4 3864   1.942  22.948   9.164
   12POPC   GL1 3865   1.951  22.903   8.864
   12POPC   GL2 3866   1.838  22.950   8.864
   12POPC   C1A 3867   2.018  22.958   8.564
   12POPC   D2A 3868   2.028  22.935   8.264
   12POPC   C3A 3869   2.033  22.941   7.964
   12POPC   C4A 3870   1.998  22.935   7.664
   12POPC   C1B 3871   1.734  22.890   8.564
   12POPC   C2B 3872   1.744  22.870   8.264
   12POPC   C3B 3873   1.723  22.939   7.964
   12POPC   C4B 3874   1.697  22.917   7.664
   13POPC   NC3 3875  27.586  15.169   9.464
   13POPC   PO4 3876  27.563  15.131   9.164
   13POPC   GL1 3877  27.634  15.186   8.864
   13POPC   GL2 3878  27.758  15.210   8.864
   13POPC   C1A 3879  27.562  15.151   8.564
   13POPC   D2A 3880  27.556  15.216   8.264
   13POPC   C3A 3881  27.576  15.163   7.964
   13POPC   C4A 3882  27.630  15.216   7.664
   13POPC   C1B 3883  27.832  15.310   8.564
   13POPC   C2B 3884  27.781  15.308   8.264
   13POPC   C3B 3885  27.816  15.316   7.964
   13POPC   C4B 3886  27.860  15.241   7.664
   14POPC   NC3 3887  36.935  31.497   9.464
   14POPC   PO4 3888  36.937  31.427   9.164
   14POPC   GL1 3889  36.873  31.518   8.864
   14POPC   GL2 3890  37.033  31.470   8.864
   14POPC   C1A 3891  36.941  31.507   8.564
   14POPC   D2A 3892  36.930  31.443   8.264
   14POPC   C3A 3893  36.865  31.510   7.964
   14POPC   C4A 3894  36.946  31.430   7.664
   14POPC   C1B 3895  37.133  31.509   8.564
   14POPC   C2B 3896  37.110  31.541   8.264
   14POPC   C3B 3897  37.185  31.516   7.964
   14POPC   C4B 3898  37.127  31.499   7.664
   15POPC   NC3 3899  29.932  26.000   9.464
   15POPC   PO4 3900  29.911  26.014   9.164
   15POPC   GL1 3901  29.911  26.073   8.864
   15POPC   GL2 3902  29.878  26.207   8.864
   15POPC   C1A 3903  29.958  25.998   8.564
   15POPC   D2A 3904  29.938  26.036   8.264
   15POPC   C3A 3905  29.895  26.069   7.964
   15POPC   C4A 3906  29.946  26.052   7.664
   15POPC   C1B 3907  29.872  26.288   8.564
   15POPC   C2B 3908  29.864  26.294   8.264
   15POPC   C3B 3909  29.876  26.284   7.964
   15POPC   C4B 3910  29.845  26.309   7.664
   16POPC   NC3 3911   7.377  30.698   9.464
   16POPC   PO4 3912   7.401  30.683   9.164
   16POPC   GL1 3913   7.453  30.746   8.864
   16POPC   GL2 3914   7.366  30.855   8.864
   16POPC   C1A 3915   7.402  30.740   8.564
   16POPC   D2A 3916   7.397  30.691   8.264
   16POPC   C3A 3917   7.387  30.694   7.964
   16POPC   C4A 3918   7.398  30.693   7.664
   16POPC   C1B 3919   7.344  30.945   8.564
   16POPC   C2B 3920   7.376  30.971   8.264
   16POPC   C3B 3921   7.371  30.906   7.964
   16POPC   C4B 3922   7.324  30.937   7.664
   17POPC   NC3 3923  38.464  42.298   9.464
   17POPC   PO4 3924  38.438  42.372   9.164
   17POPC   GL1 3925  38.424  42.323   8.864
   17POPC   GL2 3926  38.565  42.484   8.864
   17POPC   C1A 3927  38.455  42.296   8.564
   17POPC   D2A 3928  38.428  42.307   8.264
   17POPC   C3A 3929  38.417  42.371   7.964
   17POPC   C4A 3930  38.440  42.315   7.664
   17POPC   C1B 3931  38.599  42.525   8.564
   17POPC   C2B 3932  38.553  42.529   8.264
   17POPC   C3B 3933  38.639  42.491   7.964
   17POPC   C4B 3934  38.598  42.589   7.664
   18POPC   NC3 3935  11.283   9.721   9.464
   18POPC   PO4 3936  11.266   9.725   9.164
   18POPC   GL1 3937  11.275   9.740   8.864
   18POPC   GL2 3938  11.319   9.839   8.864
   18POPC   C1A 3939  11.318   9.759   8.564
   18POPC   D2A 3940  11.251   9.707   8.264
   18POPC   C3A 3941  11.284   9.779   7.964
   18POPC   C4A 3942  11.345   9.774   7.664
   18POPC   C1B 3943  11.268   9.992   8.564
   18POPC   C2B 3944  11.252  10.005   8.264
   18POPC   C3B 3945  11.262  10.012   7.964
   18POPC   C4B 3946  11.300   9.999   7.664
   19POPC   NC3 3947  42.365  41.591   9.464
   19POPC   PO4 3948  42.335  41.530   9.164
   19POPC   GL1 3949  42.293  41.600   8.864
   19POPC   GL2 3950  42.441  41.524   8.864
   19POPC   C1A 3951  42.293  41.538   8.564
   19POPC   D2A 3952  42.323  41.519   8.264
   19POPC   C3A 3953  42.296  41.594   7.964
   19POPC   C4A 3954  42.368  41.574   7.664
   19POPC   C1B 3955  42.509  41.423   8.564
   19POPC   C2B 3956  42.518  41.419   8.264
   19POPC   C3B 3957  42.562  41.437   7.964
   19POPC   C4B 3958  42.509  41.371   7.664
   20POPC   NC3 3959  38.466  15.975   9.464
   20POPC   PO4 3960  38.500  15.954   9.164
   20POPC   GL1 3961  38.499  15.999   8.864
   20POPC   GL2 3962  38.345  15.957   8.864
   20POPC   C1A 3963  38.504  15.935   8.564
   20POPC   D2A 3964  38.472  15.930   8.264
   20POPC   C3A 3965  38.409  15.983   7.964
   20POPC   C4A 3966  38.504  15.993   7.664
   20POPC   C1B 3967  38.235  15.947   8.564
   20POPC   C2B 3968  38.258  15.933   8.264
   20POPC   C3B 3969  38.227  15.898   7.964
   20POPC   C4B 3970  38.232  15.882   7.664
   21POPC   NC3 3971  26.817  26.829   9.464
   21POPC   PO4 3972  26.782  26.812   9.164
   21POPC   GL1 3973  26.842  26.795   8.864
   21POPC   GL2 3974  26.942  26.770   8.864
   21POPC   C1A 3975  26.857  26.776   8.564
   21POPC   D2A 3976  26.782  26.792   8.264
   21POPC   C3A 3977  26.800  26.781   7.964
   21POPC   C4A 3978  26.865  26.782   7.664
   21POPC   C1B 3979  27.071  26.736   8.564
   21POPC   C2B 3980  27.079  26.750   8.264
   21POPC   C3B 3981  27.070  26.727   7.964
   21POPC   C4B 3982  27.090  26.691   7.664
   22POPC   NC3 3983  21.351  33.008   9.464
   22POPC   PO4 3984  21.391  32.998   9.164
   22POPC   GL1 3985  21.398  32.992   8.864
   22POPC   GL2 3986  21.452  32.942   8.864
   22POPC   C1A 3987  21.372  33.009   8.564
   22POPC   D2A 3988  21.402  33.006   8.264
   22POPC   C3A 3989  21.356  33.034   7.964
   22POPC   C4A 3990  21.434  33.035   7.664
   22POPC   C1B 3991  21.488  32.796   8.564
   22POPC   C2B 3992  21.410  32.812   8.264
   22POPC   C3B 3993  21.499  32.782   7.964
   22POPC   C4B 3994  21.420  32.823   7.664
   23POPC   NC3 3995  44.678  19.034   9.464
   23POPC   PO4 3996  44.651  19.049   9.164
   23POPC   GL1 3997  44.677  19.071   8.864
   23POPC   GL2 3998  44.764  19.032   8.864
   23POPC   C1A 3999  44.674  19.035   8.564
   23POPC   D2A 4000  44.631  19.021   8.264
   23POPC   C3A 4001  44.628  19.079   7.964
   23POPC   C4A 4002  44.672  19.014   7.664
   23POPC   C1B 4003  44.901  19.005   8.564
   23POPC   C2B 4004  44.890  19.081   8.264
   23POPC   C3B 4005  44.899  19.061   7.964
   23POPC   C4B 4006  44.895  19.059   7.664
   24POPC   NC3 4007  30.651  36.124   9.464
   24POPC   PO4 4008  30.665  36.086   9.164
   24POPC   GL1 4009  30.728  36.128   8.864
   24POPC   GL2 4010  30.615  36.107   8.864
   24POPC   C1A 4011  30.746  36.128   8.564
   24POPC   D2A 4012  30.699  36.101   8.264
   24POPC   C3A 4013  30.704  36.170   7.964
   24POPC   C4A 4014  30.697  36.107   7.664
   24POPC   C1B 4015  30.422  36.172   8.564
   24POPC   C2B 4016  30.495  36.169   8.264
   24POPC   C3B 4017  30.407  36.201   7.964
   24POPC   C4B 4018  30.421  36.161   7.664
   25POPC   NC3 4019  32.199   4.331   9.464
   25POPC   PO4 4020  32.261   4.269   9.164
   25POPC   GL1 4021  32.213   4.298   8.864
   25POPC   GL2 4022  32.089   4.394   8.864
   25POPC   C1A 4023  32.284   4.276   8.564
   25POPC   D2A 4024  32.208   4.355   8.264
   25POPC   C3A 4025  32.261   4.343   7.964
   25POPC   C4A 4026  32.234   4.331   7.664
   25POPC   C1B 4027  32.019   4.449   8.564
   25POPC   C2B 4028  31.980   4.372   8.264
   25POPC   C3B 4029  32.009   4.385   7.964
   25POPC   C4B 4030  32.009   4.430   7.664
   26POPC   NC3 4031  15.934  36.168   9.464
   26POPC   PO4 4032  15.974  36.143   9.164
   26POPC   GL1 4033  15.985  36.152   8.864
   26POPC   GL2 4034  15.831  36.203   8.864
   26POPC   C1A 4035  15.982  36.129   8.564
   26POPC   D2A 4036  15.912  36.164   8.264
   26POPC   C3A 4037  16.004  36.097   7.964
   26POPC   C4A 4038  15.970  36.091   7.664
   26POPC   C1B 4039  15.769  36.242   8.564
   26POPC   C2B 4040  15.751  36.269   8.264
   26POPC   C3B 4041  15.762  36.230   7.964
   26POPC   C4B 4042  15.710  36.320   7.664
   27POPC   NC3 4043  15.905  22.168   9.464
   27POPC   PO4 4044  15.942  22.134   9.164
   27POPC   GL1 4045  15.927  22.194   8.864
   27POPC   GL2 4046  15.826  22.274   8.864
   27POPC   C1A 4047  15.963  22.142   8.564
   27POPC   D2A 4048  15.918  22.209   8.264
   27POPC   C3A 4049  15.975  22.174   7.964
   27POPC   C4A 4050  15.983  22.204   7.664
   27POPC   C1B 4051  15.792  22.312   8.564
   27POPC   C2B 4052  15.780  22.268   8.264
   27POPC   C3B 4053  15.782  22.342   7.964
   27POPC   C4B 4054  15.754  22.338   7.664
   28POPC   NC3 4055  12.863  34.527   9.464
   28POPC   PO4 4056  12.845  34.539   9.164
   28POPC   GL1 4057  12.832  34.625   8.864
   28POPC   GL2 4058  12.860  34.438   8.864
   28POPC   C1A 4059  12.873  34.571   8.564
   28POPC   D2A 4060  12.819  34.589   8.264
   28POPC   C3A 4061  12.824  34.547   7.964
   28POPC   C4A 4062  12.804  34.565   7.664
   28POPC   C1B 4063  12.978  34.347   8.564
   28POPC   C2B 4064  12.955  34.377   8.264
   28POPC   C3B 4065  12.908  34.349   7.964
   28POPC   C4B 4066  12.909  34.307   7.664
   29POPC   NC3 4067  25.295  38.479   9.464
   29POPC   PO4 4068  25.286  38.462   9.164
   29POPC   GL1 4069  25.297  38.430   8.864
   29POPC   GL2 4070  25.253  38.357   8.864
   29POPC   C1A 4071  25.274  38.426   8.564
   29POPC   D2A 4072  25.287  38.454   8.264
   29POPC   C3A 4073  25.311  38.456   7.964
   29POPC   C4A 4074  25.223  38.502   7.664
   29POPC   C1B 4075  25.261  38.198   8.564
   29POPC   C2B 4076  25.326  38.187   8.264
   29POPC   C3B 4077  25.274  38.194   7.964
   29POPC   C4B 4078  25.275  38.164   7.664
   30POPC   NC3 4079  13.608   2.026   9.464
   30POPC   PO4 4080  13.605   1.942   9.164
   30POPC   GL1 4081  13.659   1.949   8.864
   30POPC   GL2 4082  13.545   1.926   8.864
   30POPC   C1A 4083  13.596   1.995   8.564
   30POPC   D2A 4084  13.639   1.969   8.264
   30POPC   C3A 4085  13.596   2.031   7.964
   30POPC   C4A 4086  13.621   2.029   7.664
   30POPC   C1B 4087  13.422   1.875   8.564
   30POPC   C2B 4088  13.430   1.883   8.264
   30POPC   C3B 4089  13.372   1.859   7.964
   30POPC   C4B 4090  13.373   1.896   7.664
   31POPC   NC3 4091  41.591   9.741   9.464
   31POPC   PO4 4092  41.534   9.740   9.164
   31POPC   GL1 4093  41.604   9.722   8.864
   31POPC   GL2 4094  41.549   9.879   8.864
   31POPC   C1A 4095  41.561   9.711   8.564
   31POPC   D2A 4096  41.563   9.725   8.264
   31POPC   C3A 4097  41.567   9.716   7.964
   31POPC   C4A 4098  41.589   9.744   7.664
   31POPC   C1B 4099  41.642  10.025   8.564
   31POPC   C2B 4100  41.567   9.958   8.264
   31POPC   C3B 4101  41.622   9.991   7.964
   31POPC   C4B 4102  41.584   9.971   7.664
   32POPC   NC3 4103   5.874  29.151   9.464
   32POPC   PO4 4104   5.885  29.193   9.164
   32POPC   GL1 4105   5.854  29.103   8.864
   32POPC   GL2 4106   5.801  29.037   8.864
   32POPC   C1A 4107   5.911  29.157   8.564
   32POPC   D2A 4108   5.916  29.175   8.264
   32POPC   C3A 4109   5.834  29.176   7.964
   32POPC   C4A 4110   5.831  29.176   7.664
   32POPC   C1B 4111   5.663  29.007   8.564
   32POPC   C2B 4112   5.673  29.046   8.264
   32POPC   C3B 4113   5.660  28.957   7.964
   32POPC   C4B 4114   5.678  28.967   7.664
   33POPC   NC3 4115   7.441  33.020   9.464
   33POPC   PO4 4116   7.466  33.007   9.164
   33POPC   GL1 4117   7.462  33.034   8.864
   33POPC   GL2 4118   7.513  32.992   8.864
   33POPC   C1A 4119   7.414  33.027   8.564
   33POPC   D2A 4120   7.403  33.031   8.264
   33POPC   C3A 4121   7.456  32.979   7.964
   33POPC   C4A 4122   7.379  32.996   7.664
   33POPC   C1B 4123   7.626  33.013   8.564
   33POPC   C2B 4124   7.686  33.090   8.264
   33POPC   C3B 4125   7.629  33.000   7.964
   33POPC   C4B 4126   7.709  33.021   7.664
   34POPC   NC3 4127  21.372  44.651   9.464
   34POPC   PO4 4128  21.355  44.622   9.164
   34POPC   GL1 4129  21.388  44.619   8.864
   34POPC   GL2 4130  21.286  44.627   8.864
   34POPC   C1A 4131  21.372  44.621   8.564
   34POPC   D2A 4132  21.417  44.657   8.264
   34POPC   C3A 4133  21.355  44.640   7.964
   34POPC   C4A 4134  21.376  44.647   7.664
   34POPC   C1B 4135  21.182  44.498   8.564
   34POPC   C2B 4136  21.173  44.489   8.264
   34POPC   C3B 4137  21.224  44.522   7.964
   34POPC   C4B 4138  21.230  44.526   7.664
   35POPC   NC3 4139  11.275  10.557   9.464
   35POPC   PO4 4140  11.272  10.533   9.164
   35POPC   GL1 4141  11.343  10.546   8.864
   35POPC   GL2 4142  11.220  10.587   8.864
   35POPC   C1A 4143  11.344  10.533   8.564
   35POPC   D2A 4144  11.283  10.484   8.264
   35POPC   C3A 4145  11.279  10.525   7.964
   35POPC   C4A 4146  11.317  10.563   7.664
   35POPC   C1B 4147  11.074  10.730   8.564
   35POPC   C2B 4148  11.075  10.681   8.264
   35POPC   C3B 4149  11.159  10.659   7.964
   35POPC   C4B 4150  11.094  10.660   7.664
   36POPC   NC3 4151  35.394  31.489   9.464
   36POPC   PO4 4152  35.318  31.467   9.164
   36POPC   GL1 4153  35.303  31.448   8.864
   36POPC   GL2 4154  35.248  31.532   8.864
   36POPC   C1A 4155  35.332  31.446   8.564
   36POPC   D2A 4156  35.303  31.479   8.264
   36POPC   C3A 4157  35.387  31.513   7.964
   36POPC   C4A 4158  35.323  31.449   7.664
   36POPC   C1B 4159  35.091  31.520   8.564
   36POPC   C2B 4160  35.072  31.535   8.264
   36POPC   C3B 4161  35.100  31.538   7.964
   36POPC   C4B 4162  35.114  31.502   7.664
   37POPC   NC3 4163  19.046  24.517   9.464
   37POPC   PO4 4164  19.029  24.527   9.164
   37POPC   GL1 4165  19.107  24.535   8.864
   37POPC   GL2 4166  18.947  24.597   8.864
   37POPC   C1A 4167  19.053  24.448   8.564
   37POPC   D2A 4168  19.065  24.465   8.264
   37POPC   C3A 4169  19.049  24.512   7.964
   37POPC   C4A 4170  19.084  24.514   7.664
   37POPC   C1B 4171  18.856  24.715   8.564
   37POPC   C2B 4172  18.919  24.691   8.264
   37POPC   C3B 4173  18.864  24.668   7.964
   37POPC   C4B 4174  18.944  24.694   7.664
   38POPC   NC3 4175  41.582  32.995   9.464
   38POPC   PO4 4176  41.596  33.026   9.164
   38POPC   GL1 4177  41.596  33.005   8.864
   38POPC   GL2 4178  41.444  32.955   8.864
   38POPC   C1A 4179  41.588  33.040   8.564
   38POPC   D2A 4180  41.531  33.023   8.264
   38POPC   C3A 4181  41.580  33.008   7.964
   38POPC   C4A 4182  41.518  33.009   7.664
   38POPC   C1B 4183  41.407  32.847   8.564
   38POPC   C2B 4184  41.345  32.835   8.264
   38POPC   C3B 4185  41.438  32.843   7.964
   38POPC   C4B 4186  41.353  32.868   7.664
   39POPC   NC3 4187  33.785  14.420   9.464
   39POPC   PO4 4188  33.774  14.354   9.164
   39POPC   GL1 4189  33.813  14.441   8.864
   39POPC   GL2 4190  33.812  14.571   8.864
   39POPC   C1A 4191  33.808  14.386   8.564
   39POPC   D2A 4192  33.767  14.422   8.264
   39POPC   C3A 4193  33.826  14.375   7.964
   39POPC   C4A 4194  33.779  14.418   7.664
   39POPC   C1B 4195  33.805  14.642   8.564
   39POPC   C2B 4196  33.767  14.697   8.264
   39POPC   C3B 4197  33.802  14.657   7.964
   39POPC   C4B 4198  33.756  14.697   7.664
   40POPC   NC3 4199  18.321   5.892   9.464
   40POPC   PO4 4200  18.244   5.894   9.164
   40POPC   GL1 4201  18.315   5.833   8.864
   40POPC   GL2 4202  18.185   5.894   8.864
   40POPC   C1A 4203  18.317   5.833   8.564
   40POPC   D2A 4204  18.287   5.897   8.264
   40POPC   C3A 4205  18.293   5.863   7.964
   40POPC   C4A 4206  18.319   5.890   7.664
   40POPC   C1B 4207  18.025   6.007   8.564
   40POPC   C2B 4208  18.098   5.983   8.264
   40POPC   C3B 4209  18.085   5.933   7.964
   40POPC   C4B 4210  18.088   6.003   7.664
   41POPC   NC3 4211   0.414  42.380   9.464
   41POPC   PO4 4212   0.485  42.316   9.164
   41POPC   GL1 4213   0.484  42.368   8.864
   41POPC   GL2 4214   0.551  42.407   8.864
   41POPC   C1A 4215   0.469  42.322   8.564
   41POPC   D2A 4216   0.440  42.324   8.264
   41POPC   C3A 4217   0.403  42.367   7.964
   41POPC   C4A 4218   0.402  42.305   7.664
   41POPC   C1B 4219   0.665  42.371   8.564
   41POPC   C2B 4220   0.724  42.406   8.264
   41POPC   C3B 4221   0.629  42.353   7.964
   41POPC   C4B 4222   0.688  42.445   7.664
   42POPC   NC3 4223  28.360  43.074   9.464
   42POPC   PO4 4224  28.392  43.131   9.164
   42POPC   GL1 4225  28.361  43.122   8.864
   42POPC   GL2 4226  28.477  43.068   8.864
   42POPC   C1A 4227  28.413  43.070   8.564
   42POPC   D2A 4228  28.327  43.094   8.264
   42POPC   C3A 4229  28.403  43.062   7.964
   42POPC   C4A 4230  28.366  43.116   7.664
   42POPC   C1B 4231  28.554  42.970   8.564
   42POPC   C2B 4232  28.621  43.030   8.264
   42POPC   C3B 4233  28.572  43.039   7.964
   42POPC   C4B 4234  28.572  42.995   7.664
   43POPC   NC3 4235   1.946   8.150   9.464
   43POPC   PO4 4236   2.022   8.205   9.164
   43POPC   GL1 4237   1.999   8.175   8.864
   43POPC   GL2 4238   1.933   8.294   8.864
   43POPC   C1A 4239   1.942   8.244   8.564
   43POPC   D2A 4240   1.942   8.224   8.264
   43POPC   C3A 4241   1.997   8.161   7.964
   43POPC   C4A 4242   1.989   8.148   7.664
   43POPC   C1B 4243   1.903   8.489   8.564
   43POPC   C2B 4244   1.920   8.484   8.264
   43POPC   C3B 4245   1.914   8.399   7.964
   43POPC   C4B 4246   1.984   8.435   7.664
   44POPC   NC3 4247  20.580  24.532   9.464
   44POPC   PO4 4248  20.614  24.516   9.164
   44POPC   GL1 4249  20.613  24.538   8.864
   44POPC   GL2 4250  20.660  24.588   8.864
   44POPC   C1A 4251  20.621  24.454   8.564
   44POPC   D2A 4252  20.656  24.466   8.264
   44POPC   C3A 4253  20.614  24.478   7.964
   44POPC   C4A 4254  20.588  24.477   7.664
   44POPC   C1B 4255  20.631  24.688   8.564
   44POPC   C2B 4256  20.623  24.736   8.264
   44POPC   C3B 4257  20.594  24.688   7.964
   44POPC   C4B 4258  20.622  24.696   7.664
   45POPC   NC3 4259  23.709  19.862   9.464
   45POPC   PO4 4260  23.667  19.795   9.164
   45POPC   GL1 4261  23.743  19.802   8.864
   45POPC   GL2 4262  23.672  19.687   8.864
   45POPC   C1A 4263  23.707  19.815   8.564
   45POPC   D2A 4264  23.751  19.821   8.264
   45POPC   C3A 4265  23.757  19.846   7.964
   45POPC   C4A 4266  23.689  19.858   7.664
   45POPC   C1B 4267  23.616  19.652   8.564
   45POPC   C2B 4268  23.639  19.653   8.264
   45POPC   C3B 4269  23.568  19.633   7.964
   45POPC   C4B 4270  23.593  19.606   7.664
   46POPC   NC3 4271  15.955  29.136   9.464
   46POPC   PO4 4272  15.915  29.175   9.164
   46POPC   GL1 4273  15.909  29.150   8.864
   46POPC   GL2 4274  16.127  29.157   8.864
   46POPC   C1A 4275  15.988  29.162   8.564
   46POPC   D2A 4276  16.004  29.097   8.264
   46POPC   C3A 4277  15.927  29.108   7.964
   46POPC   C4A 4278  15.919  29.102   7.664
   46POPC   C1B 4279  16.235  29.140   8.564
   46POPC   C2B 4280  16.159  29.200   8.264
   46POPC   C3B 4281  16.229  29.179   7.964
   46POPC   C4B 4282  16.164  29.114   7.664
   47POPC   NC3 4283  43.096  36.919   9.464
   47POPC   PO4 4284  43.099  36.889   9.164
   47POPC   GL1 4285  43.123  36.880   8.864
   47POPC   GL2 4286  43.022  36.868   8.864
   47POPC   C1A 4287  43.060  36.908   8.564
   47POPC   D2A 4288  43.110  36.921   8.264
   47POPC   C3A 4289  43.089  36.858   7.964
   47POPC   C4A 4290  43.154  36.890   7.664
   47POPC   C1B 4291  42.867  36.929   8.564
   47POPC   C2B 4292  42.881  36.907   8.264
   47POPC   C3B 4293  42.818  36.946   7.964
   47POPC   C4B 4294  42.911  36.952   7.664
   48POPC   NC3 4295  34.550  11.325   9.464
   48POPC   PO4 4296  34.622  11.268   9.164
   48POPC   GL1 4297  34.532  11.334   8.864
   48POPC   GL2 4298  34.682  11.334   8.864
   48POPC   C1A 4299  34.618  11.292   8.564
   48POPC   D2A 4300  34.584  11.318   8.264
   48POPC   C3A 4301  34.604  11.298   7.964
   48POPC   C4A 4302  34.588  11.337   7.664
   48POPC   C1B 4303  34.747  11.454   8.564
   48POPC   C2B 4304  34.774  11.455   8.264
   48POPC   C3B 4305  34.836  11.403   7.964
   48POPC   C4B 4306  34.837  11.392   7.664
   49POPC   NC3 4307  37.649  29.174   9.464
   49POPC   PO4 4308  37.637  29.165   9.164
   49POPC   GL1 4309  37.705  29.108   8.864
   49POPC   GL2 4310  37.625  29.272   8.864
   49POPC   C1A 4311  37.667  29.145   8.564
   49POPC   D2A 4312  37.678  29.101   8.264
   49POPC   C3A 4313  37.673  29.160   7.964
   49POPC   C4A 4314  37.643  29.123   7.664
   49POPC   C1B 4315  37.589  29.336   8.564
   49POPC   C2B 4316  37.586  29.322   8.264
   49POPC   C3B 4317  37.577  29.351   7.964
   49POPC   C4B 4318  37.573  29.390   7.664
   50POPC   NC3 4319  25.315  40.038   9.464
   50POPC   PO4 4320  25.237  40.012   9.164
   50POPC   GL1 4321  25.292  40.033   8.864
   50POPC   GL2 4322  25.390  40.044   8.864
   50POPC   C1A 4323  25.242  39.962   8.564
   50POPC   D2A 4324  25.221  40.046   8.264
   50POPC   C3A 4325  25.250  40.018   7.964
   50POPC   C4A 4326  25.256  39.980   7.664
   50POPC   C1B 4327  25.478  40.102   8.564
   50POPC   C2B 4328  25.483  40.104   8.264
   50POPC   C3B 4329  25.474  40.106   7.964
   50POPC   C4B 4330  25.497  40.101   7.664
   51POPC   NC3 4331  33.777  39.273   9.464
   51POPC   PO4 4332  33.791  39.268   9.164
   51POPC   GL1 4333  33.802  39.255   8.864
   51POPC   GL2 4334  33.821  39.324   8.864
   51POPC   C1A 4335  33.821  39.183   8.564
   51POPC   D2A 4336  33.790  39.255   8.264
   51POPC   C3A 4337  33.781  39.198   7.964
   51POPC   C4A 4338  33.752  39.246   7.664
   51POPC   C1B 4339  33.891  39.488   8.564
   51POPC   C2B 4340  33.962  39.488   8.264
   51POPC   C3B 4341  33.955  39.409   7.964
   51POPC   C4B 4342  33.914  39.422   7.664
   52POPC   NC3 4343  30.695   1.193   9.464
   52POPC   PO4 4344  30.740   1.205   9.164
   52POPC   GL1 4345  30.717   1.239   8.864
   52POPC   GL2 4346  30.634   1.145   8.864
   52POPC   C1A 4347  30.680   1.218   8.564
   52POPC   D2A 4348  30.658   1.184   8.264
   52POPC   C3A 4349  30.714   1.262   7.964
   52POPC   C4A 4350  30.712   1.180   7.664
   52POPC   C1B 4351  30.473   1.013   8.564
   52POPC   C2B 4352  30.508   1.040   8.264
   52POPC   C3B 4353  30.524   1.033   7.964
   52POPC   C4B 4354  30.515   1.050   7.664
   53POPC   NC3 4355  14.396  10.478   9.464
   53POPC   PO4 4356  14.415  10.532   9.164
   53POPC   GL1 4357  14.371  10.517   8.864
   53POPC   GL2 4358  14.290  10.442   8.864
   53POPC   C1A 4359  14.413  10.507   8.564
   53POPC   D2A 4360  14.428  10.532   8.264
   53POPC   C3A 4361  14.354  10.494   7.964
   53POPC   C4A 4362  14.391  10.569   7.664
   53POPC   C1B 4363  14.133  10.454   8.564
   53POPC   C2B 4364  14.133  10.450   8.264
   53POPC   C3B 4365  14.159  10.414   7.964
   53POPC   C4B 4366  14.214  10.402   7.664
   54POPC   NC3 4367   8.969   1.940   9.464
   54POPC   PO4 4368   8.925   2.032   9.164
   54POPC   GL1 4369   8.929   2.031   8.864
   54POPC   GL2 4370   8.819   1.995   8.864
   54POPC   C1A 4371   8.994   1.997   8.564
   54POPC   D2A 4372   8.993   1.944   8.264
   54POPC   C3A 4373   8.987   1.941   7.964
   54POPC   C4A 4374   8.987   1.953   7.664
   54POPC   C1B 4375   8.761   1.924   8.564
   54POPC   C2B 4376   8.707   1.945   8.264
   54POPC   C3B 4377   8.760   1.953   7.964
   54POPC   C4B 4378   8.691   1.988   7.664
   55POPC   NC3 4379  16.760  40.821   9.464
   55POPC   PO4 4380  16.698  40.740   9.164
   55POPC   GL1 4381  16.702  40.773   8.864
   55POPC   GL2 4382  16.852  40.888   8.864
   55POPC   C1A 4383  16.764  40.764   8.564
   55POPC   D2A 4384  16.760  40.776   8.264
   55POPC   C3A 4385  16.736  40.797   7.964
   55POPC   C4A 4386  16.778  40.737   7.664
   55POPC   C1B 4387  16.885  40.909   8.564
   55POPC   C2B 4388  16.922  40.951   8.264
   55POPC   C3B 4389  16.875  40.937   7.964
   55POPC   C4B 4390  16.918  40.910   7.664
   56POPC   NC3 4391  12.062  22.940   9.464
   56POPC   PO4 4392  12.110  22.910   9.164
   56POPC   GL1 4393  12.075  22.895   8.864
   56POPC   GL2 4394  12.077  23.024   8.864
   56POPC   C1A 4395  12.062  22.951   8.564
   56POPC   D2A 4396  12.049  22.898   8.264
   56POPC   C3A 4397  12.040  22.958   7.964
   56POPC   C4A 4398  12.119  22.982   7.664
   56POPC   C1B 4399  12.012  23.169   8.564
   56POPC   C2B 4400  11.988  23.160   8.264
   56POPC   C3B 4401  12.022  23.133   7.964
   56POPC   C4B 4402  11.978  23.181   7.664
   57POPC   NC3 4403  40.009  17.502   9.464
   57POPC   PO4 4404  40.046  17.482   9.164
   57POPC   GL1 4405  40.043  17.497   8.864
   57POPC   GL2 4406  39.935  17.592   8.864
   57POPC   C1A 4407  40.044  17.505   8.564
   57POPC   D2A 4408  40.036  17.529   8.264
   57POPC   C3A 4409  40.007  17.494   7.964
   57POPC   C4A 4410  40.034  17.511   7.664
   57POPC   C1B 4411  39.795  17.610   8.564
   57POPC   C2B 4412  39.828  17.657   8.264
   57POPC   C3B 4413  39.764  17.649   7.964
   57POPC   C4B 4414  39.820  17.680   7.664
   58POPC   NC3 4415   5.059   0.407   9.464
   58POPC   PO4 4416   5.139   0.406   9.164
   58POPC   GL1 4417   5.085   0.471   8.864
   58POPC   GL2 4418   5.046   0.362   8.864
   58POPC   C1A 4419   5.049   0.412   8.564
   58POPC   D2A 4420   5.103   0.465   8.264
   58POPC   C3A 4421   5.110   0.395   7.964
   58POPC   C4A 4422   5.079   0.429   7.664
   58POPC   C1B 4423   4.913   0.287   8.564
   58POPC   C2B 4424   4.903   0.291   8.264
   58POPC   C3B 4425   4.891   0.225   7.964
   58POPC   C4B 4426   4.929   0.232   7.664
   59POPC   NC3 4427   4.271   6.597   9.464
   59POPC   PO4 4428   4.285   6.680   9.164
   59POPC   GL1 4429   4.358   6.688   8.864
   59POPC   GL2 4430   4.200   6.529   8.864
   59POPC   C1A 4431   4.356   6.615   8.564
   59POPC   D2A 4432   4.340   6.672   8.264
   59POPC   C3A 4433   4.312   6.651   7.964
   59POPC   C4A 4434   4.291   6.640   7.664
   59POPC   C1B 4435   4.147   6.471   8.564
   59POPC   C2B 4436   4.139   6.461   8.264
   59POPC   C3B 4437   4.134   6.490   7.964
   59POPC   C4B 4438   4.146   6.535   7.664
   60POPC   NC3 4439  19.077  15.170   9.464
   60POPC   PO4 4440  19.012  15.167   9.164
   60POPC   GL1 4441  19.061  15.171   8.864
   60POPC   GL2 4442  18.951  15.168   8.864
   60POPC   C1A 4443  19.054  15.205   8.564
   60POPC   D2A 4444  19.099  15.151   8.264
   60POPC   C3A 4445  19.016  15.193   7.964
   60POPC   C4A 4446  19.071  15.216   7.664
   60POPC   C1B 4447  18.816  15.054   8.564
   60POPC   C2B 4448  18.842  15.035   8.264
   60POPC   C3B 4449  18.844  15.085   7.964
   60POPC   C4B 4450  18.807  15.035   7.664
   61POPC   NC3 4451  20.574  13.638   9.464
   61POPC   PO4 4452  20.583  13.627   9.164
   61POPC   GL1 4453  20.615  13.659   8.864
   61POPC   GL2 4454  20.531  13.538   8.864
   61POPC   C1A 4455  20.650  13.645   8.564
   61POPC   D2A 4456  20.630  13.615   8.264
   61POPC   C3A 4457  20.586  13.624   7.964
   61POPC   C4A 4458  20.574  13.592   7.664
   61POPC   C1B 4459  20.372  13.553   8.564
   61POPC   C2B 4460  20.386  13.516   8.264
   61POPC   C3B 4461  20.374  13.555   7.964
   61POPC   C4B 4462  20.419  13.485   7.664
   62POPC   NC3 4463   6.644  36.124   9.464
   62POPC   PO4 4464   6.665  36.132   9.164
   62POPC   GL1 4465   6.638  36.121   8.864
   62POPC   GL2 4466   6.761  36.265   8.864
   62POPC   C1A 4467   6.604  36.139   8.564
   62POPC   D2A 4468   6.688  36.138   8.264
   62POPC   C3A 4469   6.658  36.086   7.964
   62POPC   C4A 4470   6.610  36.133   7.664
   62POPC   C1B 4471   6.791  36.293   8.564
   62POPC   C2B 4472   6.855  36.290   8.264
   62POPC   C3B 4473   6.824  36.324   7.964
   62POPC   C4B 4474   6.769  36.360   7.664
   63POPC   NC3 4475   3.518  15.928   9.464
   63POPC   PO4 4476   3.532  15.988   9.164
   63POPC   GL1 4477   3.575  15.976   8.864
   63POPC   GL2 4478   3.393  15.934   8.864
   63POPC   C1A 4479   3.541  15.964   8.564
   63POPC   D2A 4480   3.579  15.977   8.264
   63POPC   C3A 4481   3.528  15.925   7.964
   63POPC   C4A 4482   3.500  15.977   7.664
   63POPC   C1B 4483   3.283  15.917   8.564
   63POPC   C2B 4484   3.295  15.920   8.264
   63POPC   C3B 4485   3.290  15.860   7.964
   63POPC   C4B 4486   3.316  15.893   7.664
   64POPC   NC3 4487   1.196  44.616   9.464
   64POPC   PO4 4488   1.227  44.625   9.164
   64POPC   GL1 4489   1.169  44.685   8.864
   64POPC   GL2 4490   1.277  44.716   8.864
   64POPC   C1A 4491   1.194  44.623   8.564
   64POPC   D2A 4492   1.199  44.648   8.264
   64POPC   C3A 4493   1.216  44.643   7.964
   64POPC   C4A 4494   1.170  44.701   7.664
   64POPC   C1B 4495   1.363  44.861   8.564
   64POPC   C2B 4496   1.379  44.831   8.264
   64POPC   C3B 4497   1.412  44.829   7.964
   64POPC   C4B 4498   1.367  44.838   7.664
   65POPC   NC3 4499  12.091  38.414   9.464
   65POPC   PO4 4500  12.072  38.446   9.164
   65POPC   GL1 4501  12.028  38.445   8.864
   65POPC   GL2 4502  12.150  38.493   8.864
   65POPC   C1A 4503  12.080  38.412   8.564
   65POPC   D2A 4504  12.113  38.426   8.264
   65POPC   C3A 4505  12.081  38.415   7.964
   65POPC   C4A 4506  12.098  38.504   7.664
   65POPC   C1B 4507  12.209  38.606   8.564
   65POPC   C2B 4508  12.211  38.577   8.264
   65POPC   C3B 4509  12.221  38.609   7.964
   65POPC   C4B 4510  12.279  38.638   7.664
   66POPC   NC3 4511   2.754  18.274   9.464
   66POPC   PO4 4512   2.763  18.296   9.164
   66POPC   GL1 4513   2.749  18.294   8.864
   66POPC   GL2 4514   2.784  18.130   8.864
   66POPC   C1A 4515   2.756  18.301   8.564
   66POPC   D2A 4516   2.805  18.262   8.264
   66POPC   C3A 4517   2.803  18.253   7.964
   66POPC   C4A 4518   2.796  18.268   7.664
   66POPC   C1B 4519   2.710  17.993   8.564
   66POPC   C2B 4520   2.726  18.043   8.264
   66POPC   C3B 4521   2.728  18.033   7.964
   66POPC   C4B 4522   2.744  18.020   7.664
   67POPC   NC3 4523  35.306   1.947   9.464
   67POPC   PO4 4524  35.369   1.988   9.164
   67POPC   GL1 4525  35.312   1.974   8.864
   67POPC   GL2 4526  35.402   1.868   8.864
   67POPC   C1A 4527  35.306   1.989   8.564
   67POPC   D2A 4528  35.398   2.015   8.264
   67POPC   C3A 4529  35.345   1.983   7.964
   67POPC   C4A 4530  35.388   2.008   7.664
   67POPC   C1B 4531  35.449   1.793   8.564
   67POPC   C2B 4532  35.421   1.770   8.264
   67POPC   C3B 4533  35.468   1.732   7.964
   67POPC   C4B 4534  35.486   1.746   7.664
   68POPC   NC3 4535   1.219  43.890   9.464
   68POPC   PO4 4536   1.252  43.904   9.164
   68POPC   GL1 4537   1.206  43.916   8.864
   68POPC   GL2 4538   1.095  43.989   8.864
   68POPC   C1A 4539   1.193  43.848   8.564
   68POPC   D2A 4540   1.252  43.856   8.264
   68POPC   C3A 4541   1.237  43.933   7.964
   68POPC   C4A 4542   1.232  43.894   7.664
   68POPC   C1B 4543   1.059  44.116   8.564
   68POPC   C2B 4544   1.084  44.036   8.264
   68POPC   C3B 4545   1.008  44.102   7.964
   68POPC   C4B 4546   1.098  44.106   7.664
   69POPC   NC3 4547  10.489  40.057   9.464
   69POPC   PO4 4548  10.499  39.971   9.164
   69POPC   GL1 4549  10.544  39.991   8.864
   69POPC   GL2 4550  10.543  39.921   8.864
   69POPC   C1A 4551  10.559  39.996   8.564
   69POPC   D2A 4552  10.564  40.040   8.264
   69POPC   C3A 4553  10.536  40.039   7.964
   69POPC   C4A 4554  10.510  40.055   7.664
   69POPC   C1B 4555  10.551  39.791   8.564
   69POPC   C2B 4556  10.561  39.797   8.264
   69POPC   C3B 4557  10.522  39.777   7.964
   69POPC   C4B 4558  10.501  39.770   7.664
   70POPC   NC3 4559   8.231  14.370   9.464
   70POPC   PO4 4560   8.157  14.413   9.164
   70POPC   GL1 4561   8.174  14.451   8.864
   70POPC   GL2 4562   8.116  14.338   8.864
   70POPC   C1A 4563   8.152  14.400   8.564
   70POPC   D2A 4564   8.213  14.361   8.264
   70POPC   C3A 4565   8.194  14.367   7.964
   70POPC   C4A 4566   8.184  14.439   7.664
   70POPC   C1B 4567   8.025  14.300   8.564
   70POPC   C2B 4568   7.992  14.255   8.264
   70POPC   C3B 4569   7.950  14.261   7.964
   70POPC   C4B 4570   8.016  14.290   7.664
   71POPC   NC3 4571   0.400  24.458   9.464
   71POPC   PO4 4572   0.486  24.457   9.164
   71POPC   GL1 4573   0.399  24.514   8.864
   71POPC   GL2 4574   0.525  24.438   8.864
   71POPC   C1A 4575   0.450  24.458   8.564
   71POPC   D2A 4576   0.477  24.498   8.264
   71POPC   C3A 4577   0.427  24.467   7.964
   71POPC   C4A 4578   0.423  24.483   7.664
   71POPC   C1B 4579   0.681  24.372   8.564
   71POPC   C2B 4580   0.711  24.401   8.264
   71POPC   C3B 4581   0.630  24.450   7.964
   71POPC   C4B 4582   0.711  24.470   7.664
   72POPC   NC3 4583  19.823  26.782   9.464
   72POPC   PO4 4584  19.786  26.845   9.164
   72POPC   GL1 4585  19.863  26.804   8.864
   72POPC   GL2 4586  19.777  26.722   8.864
   72POPC   C1A 4587  19.792  26.843   8.564
   72POPC   D2A 4588  19.827  26.787   8.264
   72POPC   C3A 4589  19.876  26.843   7.964
   72POPC   C4A 4590  19.857  26.822   7.664
   72POPC   C1B 4591  19.696  26.622   8.564
   72POPC   C2B 4592  19.713  26.604   8.264
   72POPC   C3B 4593  19.697  26.643   7.964
   72POPC   C4B 4594  19.658  26.619   7.664
   73POPC   NC3 4595   1.260  13.674   9.464
   73POPC   PO4 4596   1.200  13.666   9.164
   73POPC   GL1 4597   1.203  13.580   8.864
   73POPC   GL2 4598   1.361  13.633   8.864
   73POPC   C1A 4599   1.250  13.614   8.564
   73POPC   D2A 4600   1.221  13.631   8.264
   73POPC   C3A 4601   1.236  13.640   7.964
   73POPC   C4A 4602   1.238  13.645   7.664
   73POPC   C1B 4603   1.424  13.624   8.564
   73POPC   C2B 4604   1.464  13.617   8.264
   73POPC   C3B 4605   1.442  13.574   7.964
   73POPC   C4B 4606   1.467  13.567   7.664
   74POPC   NC3 4607  35.344  30.704   9.464
   74POPC   PO4 4608  35.355  30.741   9.164
   74POPC   GL1 4609  35.352  30.665   8.864
   74POPC   GL2 4610  35.475  30.833   8.864
   74POPC   C1A 4611  35.319  30.711   8.564
   74POPC   D2A 4612  35.371  30.665   8.264
   74POPC   C3A 4613  35.321  30.703   7.964
   74POPC   C4A 4614  35.353  30.678   7.664
   74POPC   C1B 4615  35.546  30.893   8.564
   74POPC   C2B 4616  35.500  30.909   8.264
   74POPC   C3B 4617  35.529  30.874   7.964
   74POPC   C4B 4618  35.539  30.905   7.664
   75POPC   NC3 4619  29.959   6.664   9.464
   75POPC   PO4 4620  29.938   6.608   9.164
   75POPC   GL1 4621  29.888   6.680   8.864
   75POPC   GL2 4622  30.006   6.571   8.864
   75POPC   C1A 4623  29.955   6.682   8.564
   75POPC   D2A 4624  29.924   6.634   8.264
   75POPC   C3A 4625  29.949   6.623   7.964
   75POPC   C4A 4626  29.884   6.625   7.664
   75POPC   C1B 4627  30.006   6.448   8.564
   75POPC   C2B 4628  30.083   6.380   8.264
   75POPC   C3B 4629  29.999   6.424   7.964
   75POPC   C4B 4630  30.044   6.392   7.664
   76POPC   NC3 4631  36.932  14.397   9.464
   76POPC   PO4 4632  36.862  14.370   9.164
   76POPC   GL1 4633  36.946  14.422   8.864
   76POPC   GL2 4634  37.036  14.335   8.864
   76POPC   C1A 4635  36.946  14.378   8.564
   76POPC   D2A 4636  36.905  14.409   8.264
   76POPC   C3A 4637  36.907  14.451   7.964
   76POPC   C4A 4638  36.876  14.408   7.664
   76POPC   C1B 4639  37.121  14.363   8.564
   76POPC   C2B 4640  37.171  14.298   8.264
   76POPC   C3B 4641  37.160  14.357   7.964
   76POPC   C4B 4642  37.142  14.358   7.664
   77POPC   NC3 4643   8.189   3.531   9.464
   77POPC   PO4 4644   8.214   3.566   9.164
   77POPC   GL1 4645   8.164   3.577   8.864
   77POPC   GL2 4646   8.284   3.458   8.864
   77POPC   C1A 4647   8.218   3.545   8.564
   77POPC   D2A 4648   8.226   3.493   8.264
   77POPC   C3A 4649   8.188   3.523   7.964
   77POPC   C4A 4650   8.200   3.523   7.664
   77POPC   C1B 4651   8.439   3.429   8.564
   77POPC   C2B 4652   8.370   3.401   8.264
   77POPC   C3B 4653   8.388   3.373   7.964
   77POPC   C4B 4654   8.441   3.445   7.664
   78POPC   NC3 4655  43.848  22.965   9.464
   78POPC   PO4 4656  43.893  22.931   9.164
   78POPC   GL1 4657  43.902  22.968   8.864
   78POPC   GL2 4658  44.001  23.026   8.864
   78POPC   C1A 4659  43.883  22.894   8.564
   78POPC   D2A 4660  43.877  22.943   8.264
   78POPC   C3A 4661  43.915  22.986   7.964
   78POPC   C4A 4662  43.917  22.949   7.664
   78POPC   C1B 4663  44.039  23.156   8.564
   78POPC   C2B 4664  44.014  23.115   8.264
   78POPC   C3B 4665  44.022  23.103   7.964
   78POPC   C4B 4666  44.000  23.171   7.664
   79POPC   NC3 4667  41.589  27.564   9.464
   79POPC   PO4 4668  41.601  27.604   9.164
   79POPC   GL1 4669  41.585  27.564   8.864
   79POPC   GL2 4670  41.397  27.490   8.864
   79POPC   C1A 4671  41.557  27.552   8.564
   79POPC   D2A 4672  41.562  27.594   8.264
   79POPC   C3A 4673  41.516  27.583   7.964
   79POPC   C4A 4674  41.601  27.595   7.664
   79POPC   C1B 4675  41.328  27.510   8.564
   79POPC   C2B 4676  41.371  27.479   8.264
   79POPC   C3B 4677  41.340  27.484   7.964
   79POPC   C4B 4678  41.298  27.520   7.664
   80POPC   NC3 4679  26.824   3.512   9.464
   80POPC   PO4 4680  26.789   3.550   9.164
   80POPC   GL1 4681  26.837   3.587   8.864
   80POPC   GL2 4682  26.736   3.406   8.864
   80POPC   C1A 4683  26.796   3.539   8.564
   80POPC   D2A 4684  26.847   3.530   8.264
   80POPC   C3A 4685  26.773   3.506   7.964
   80POPC   C4A 4686  26.841   3.579   7.664
   80POPC   C1B 4687  26.713   3.281   8.564
   80POPC   C2B 4688  26.683   3.309   8.264
   80POPC   C3B 4689  26.749   3.277   7.964
   80POPC   C4B 4690  26.736   3.322   7.664
   81POPC   NC3 4691  24.480   5.878   9.464
   81POPC   PO4 4692  24.480   5.842   9.164
   81POPC   GL1 4693  24.441   5.865   8.864
   81POPC   GL2 4694  24.600   5.803   8.864
   81POPC   C1A 4695  24.534   5.855   8.564
   81POPC   D2A 4696  24.440   5.833   8.264
   81POPC   C3A 4697  24.483   5.861   7.964
   81POPC   C4A 4698  24.465   5.871   7.664
   81POPC   C1B 4699  24.728   5.774   8.564
   81POPC   C2B 4700  24.733   5.724   8.264
   81POPC   C3B 4701  24.703   5.706   7.964
   81POPC   C4B 4702  24.681   5.715   7.664
   82POPC   NC3 4703  16.746  24.470   9.464
   82POPC   PO4 4704  16.757  24.490   9.164
   82POPC   GL1 4705  16.774  24.472   8.864
   82POPC   GL2 4706  16.830  24.450   8.864
   82POPC   C1A 4707  16.737  24.470   8.564
   82POPC   D2A 4708  16.702  24.509   8.264
   82POPC   C3A 4709  16.738  24.517   7.964
   82POPC   C4A 4710  16.766  24.539   7.664
   82POPC   C1B 4711  16.926  24.376   8.564
   82POPC   C2B 4712  16.912  24.290   8.264
   82POPC   C3B 4713  16.965  24.341   7.964
   82POPC   C4B 4714  16.943  24.319   7.664
   83POPC   NC3 4715  15.223   2.798   9.464
   83POPC   PO4 4716  15.184   2.758   9.164
   83POPC   GL1 4717  15.209   2.748   8.864
   83POPC   GL2 4718  15.262   2.866   8.864
   83POPC   C1A 4719  15.132   2.787   8.564
   83POPC   D2A 4720  15.132   2.724   8.264
   83POPC   C3A 4721  15.137   2.761   7.964
   83POPC   C4A 4722  15.212   2.811   7.664
   83POPC   C1B 4723  15.320   2.933   8.564
   83POPC   C2B 4724  15.320   3.002   8.264
   83POPC   C3B 4725  15.298   2.980   7.964
   83POPC   C4B 4726  15.324   3.004   7.664
   84POPC   NC3 4727  41.558  38.423   9.464
   84POPC   PO4 4728  41.570  38.407   9.164
   84POPC   GL1 4729  41.575  38.491   8.864
   84POPC   GL2 4730  41.436  38.564   8.864
   84POPC   C1A 4731  41.511  38.447   8.564
   84POPC   D2A 4732  41.565  38.413   8.264
   84POPC   C3A 4733  41.532  38.438   7.964
   84POPC   C4A 4734  41.579  38.496   7.664
   84POPC   C1B 4735  41.369  38.678   8.564
   84POPC   C2B 4736  41.402  38.657   8.264
   84POPC   C3B 4737  41.429  38.584   7.964
   84POPC   C4B 4738  41.341  38.648   7.664
   85POPC   NC3 4739   1.255  37.707   9.464
   85POPC   PO4 4740   1.259  37.677   9.164
   85POPC   GL1 4741   1.204  37.674   8.864
   85POPC   GL2 4742   1.060  37.699   8.864
   85POPC   C1A 4743   1.229  37.649   8.564
   85POPC   D2A 4744   1.178  37.722   8.264
   85POPC   C3A 4745   1.173  37.685   7.964
   85POPC   C4A 4746   1.178  37.721   7.664
   85POPC   C1B 4747   0.962  37.698   8.564
   85POPC   C2B 4748   0.942  37.690   8.264
   85POPC   C3B 4749   1.012  37.648   7.964
   85POPC   C4B 4750   0.968  37.661   7.664
   86POPC   NC3 4751  33.769  26.800   9.464
   86POPC   PO4 4752  33.776  26.825   9.164
   86POPC   GL1 4753  33.826  26.793   8.864
   86POPC   GL2 4754  33.887  26.968   8.864
   86POPC   C1A 4755  33.819  26.819   8.564
   86POPC   D2A 4756  33.826  26.855   8.264
   86POPC   C3A 4757  33.799  26.788   7.964
   86POPC   C4A 4758  33.756  26.848   7.664
   86POPC   C1B 4759  33.884  27.001   8.564
   86POPC   C2B 4760  33.878  27.040   8.264
   86POPC   C3B 4761  33.865  27.090   7.964
   86POPC   C4B 4762  33.937  27.075   7.664
   87POPC   NC3 4763   7.401  38.502   9.464
   87POPC   PO4 4764   7.424  38.425   9.164
   87POPC   GL1 4765   7.381  38.440   8.864
   87POPC   GL2 4766   7.493  38.387   8.864
   87POPC   C1A 4767   7.392  38.474   8.564
   87POPC   D2A 4768   7.395  38.448   8.264
   87POPC   C3A 4769   7.449  38.481   7.964
   87POPC   C4A 4770   7.374  38.473   7.664
   87POPC   C1B 4771   7.528  38.283   8.564
   87POPC   C2B 4772   7.525  38.253   8.264
   87POPC   C3B 4773   7.531  38.226   7.964
   87POPC   C4B 4774   7.526  38.219   7.664
   88POPC   NC3 4775  38.426  25.288   9.464
   88POPC   PO4 4776  38.494  25.308   9.164
   88POPC   GL1 4777  38.448  25.225   8.864
   88POPC   GL2 4778  38.375  25.424   8.864
   88POPC   C1A 4779  38.463  25.236   8.564
   88POPC   D2A 4780  38.459  25.296   8.264
   88POPC   C3A 4781  38.448  25.315   7.964
   88POPC   C4A 4782  38.487  25.304   7.664
   88POPC   C1B 4783  38.335  25.509   8.564
   88POPC   C2B 4784  38.339  25.523   8.264
   88POPC   C3B 4785  38.346  25.498   7.964
   88POPC   C4B 4786  38.333  25.529   7.664
   89POPC   NC3 4787  37.639   2.729   9.464
   89POPC   PO4 4788  37.675   2.716   9.164
   89POPC   GL1 4789  37.646   2.772   8.864
   89POPC   GL2 4790  37.815   2.737   8.864
   89POPC   C1A 4791  37.666   2.775   8.564
   89POPC   D2A 4792  37.683   2.813   8.264
   89POPC   C3A 4793  37.637   2.760   7.964
   89POPC   C4A 4794  37.726   2.784   7.664
   89POPC   C1B 4795  37.953   2.736   8.564
   89POPC   C2B 4796  37.936   2.741   8.264
   89POPC   C3B 4797  37.925   2.780   7.964
   89POPC   C4B 4798  37.911   2.729   7.664
   90POPC   NC3 4799   1.957  23.710   9.464
   90POPC   PO4 4800   2.036  23.747   9.164
   90POPC   GL1 4801   2.024  23.665   8.864
   90POPC   GL2 4802   2.101  23.565   8.864
   90POPC   C1A 4803   2.011  23.764   8.564
   90POPC   D2A 4804   1.962  23.740   8.264
   90POPC   C3A 4805   2.015  23.699   7.964
   90POPC   C4A 4806   1.940  23.754   7.664
   90POPC   C1B 4807   2.120  23.521   8.564
   90POPC   C2B 4808   2.124  23.457   8.264
   90POPC   C3B 4809   2.140  23.511   7.964
   90POPC   C4B 4810   2.113  23.540   7.664
   91POPC   NC3 4811  15.959  15.984   9.464
   91POPC   PO4 4812  15.965  15.949   9.164
   91POPC   GL1 4813  15.922  15.919   8.864
   91POPC   GL2 4814  15.871  15.977   8.864
   91POPC   C1A 4815  15.967  15.992   8.564
   91POPC   D2A 4816  15.995  15.961   8.264
   91POPC   C3A 4817  15.942  15.946   7.964
   91POPC   C4A 4818  15.958  15.966   7.664
   91POPC   C1B 4819  15.751  15.917   8.564
   91POPC   C2B 4820  15.708  15.898   8.264
   91POPC   C3B 4821  15.661  15.886   7.964
   91POPC   C4B 4822  15.687  15.892   7.664
   92POPC   NC3 4823  43.157  14.434   9.464
   92POPC   PO4 4824  43.077  14.355   9.164
   92POPC   GL1 4825  43.124  14.443   8.864
   92POPC   GL2 4826  43.005  14.361   8.864
   92POPC   C1A 4827  43.090  14.415   8.564
   92POPC   D2A 4828  43.108  14.443   8.264
   92POPC   C3A 4829  43.125  14.392   7.964
   92POPC   C4A 4830  43.112  14.370   7.664
   92POPC   C1B 4831  42.889  14.271   8.564
   92POPC   C2B 4832  42.911  14.240   8.264
   92POPC   C3B 4833  42.889  14.308   7.964
   92POPC   C4B 4834  42.929  14.214   7.664
   93POPC   NC3 4835  15.947  40.820   9.464
   93POPC   PO4 4836  15.917  40.790   9.164
   93POPC   GL1 4837  15.968  40.760   8.864
   93POPC   GL2 4838  16.009  40.866   8.864
   93POPC   C1A 4839  15.983  40.778   8.564
   93POPC   D2A 4840  15.966  40.812   8.264
   93POPC   C3A 4841  15.963  40.793   7.964
   93POPC   C4A 4842  15.961  40.746   7.664
   93POPC   C1B 4843  16.147  40.949   8.564
   93POPC   C2B 4844  16.191  40.884   8.264
   93POPC   C3B 4845  16.147  40.903   7.964
   93POPC   C4B 4846  16.178  40.945   7.664
   94POPC   NC3 4847  25.261   6.684   9.464
   94POPC   PO4 4848  25.249   6.680   9.164
   94POPC   GL1 4849  25.234   6.674   8.864
   94POPC   GL2 4850  25.374   6.698   8.864
   94POPC   C1A 4851  25.234   6.626   8.564
   94POPC   D2A 4852  25.251   6.651   8.264
   94POPC   C3A 4853  25.248   6.678   7.964
   94POPC   C4A 4854  25.247   6.638   7.664
   94POPC   C1B 4855  25.472   6.694   8.564
   94POPC   C2B 4856  25.525   6.700   8.264
   94POPC   C3B 4857  25.495   6.738   7.964
   94POPC   C4B 4858  25.469   6.767   7.664
   95POPC   NC3 4859  12.090  37.652   9.464
   95POPC   PO4 4860  12.034  37.706   9.164
   95POPC   GL1 4861  12.110  37.640   8.864
   95POPC   GL2 4862  12.176  37.734   8.864
   95POPC   C1A 4863  12.075  37.648   8.564
   95POPC   D2A 4864  12.094  37.704   8.264
   95POPC   C3A 4865  12.086  37.708   7.964
   95POPC   C4A 4866  12.062  37.661   7.664
   95POPC   C1B 4867  12.251  37.880   8.564
   95POPC   C2B 4868  12.277  37.883   8.264
   95POPC   C3B 4869  12.223  37.847   7.964
   95POPC   C4B 4870  12.257  37.882   7.664
   96POPC   NC3 4871  25.257  37.671   9.464
   96POPC   PO4 4872  25.227  37.650   9.164
   96POPC   GL1 4873  25.270  37.664   8.864
   96POPC   GL2 4874  25.191  37.814   8.864
   96POPC   C1A 4875  25.233  37.706   8.564
   96POPC   D2A 4876  25.226  37.722   8.264
   96POPC   C3A 4877  25.239  37.724   7.964
   96POPC   C4A 4878  25.223  37.720   7.664
   96POPC   C1B 4879  25.102  37.861   8.564
   96POPC   C2B 4880  25.129  37.837   8.264
   96POPC   C3B 4881  25.127  37.844   7.964
   96POPC   C4B 4882  25.068  37.871   7.664
   97POPC   NC3 4883  37.704  27.568   9.464
   97POPC   PO4 4884  37.707  27.585   9.164
   97POPC   GL1 4885  37.675  27.568   8.864
   97POPC   GL2 4886  37.754  27.712   8.864
   97POPC   C1A 4887  37.727  27.547   8.564
   97POPC   D2A 4888  37.637  27.635   8.264
   97POPC   C3A 4889  37.664  27.627   7.964
   97POPC   C4A 4890  37.718  27.570   7.664
   97POPC   C1B 4891  37.767  27.831   8.564
   97POPC   C2B 4892  37.817  27.769   8.264
   97POPC   C3B 4893  37.795  27.827   7.964
   97POPC   C4B 4894  37.820  27.821   7.664
   98POPC   NC3 4895  22.192  24.508   9.464
   98POPC   PO4 4896  22.161  24.454   9.164
   98POPC   GL1 4897  22.117  24.456   8.864
   98POPC   GL2 4898  22.258  24.604   8.864
   98POPC   C1A 4899  22.158  24.512   8.564
   98POPC   D2A 4900  22.124  24.506   8.264
   98POPC   C3A 4901  22.212  24.490   7.964
   98POPC   C4A 4902  22.174  24.474   7.664
   98POPC   C1B 4903  22.400  24.634   8.564
   98POPC   C2B 4904  22.393  24.594   8.264
   98POPC   C3B 4905  22.408  24.669   7.964
   98POPC   C4B 4906  22.407  24.594   7.664
   99POPC   NC3 4907   9.718  29.919   9.464
   99POPC   PO4 4908   9.744  29.918   9.164
   99POPC   GL1 4909   9.733  29.918   8.864
   99POPC   GL2 4910   9.654  29.791   8.864
   99POPC   C1A 4911   9.784  29.941   8.564
   99POPC   D2A 4912   9.755  29.932   8.264
   99POPC   C3A 4913   9.759  29.967   7.964
   99POPC   C4A 4914   9.770  29.945   7.664
   99POPC   C1B 4915   9.581  29.735   8.564
   99POPC   C2B 4916   9.662  29.692   8.264
   99POPC   C3B 4917   9.603  29.675   7.964
   99POPC   C4B 4918   9.672  29.721   7.664
  100POPC   NC3 4919   8.245   2.012   9.464
  100POPC   PO4 4920   8.162   1.972   9.164
  100POPC   GL1 4921   8.148   2.010   8.864
  100POPC   GL2 4922   8.119   2.160   8.864
  100POPC   C1A 4923   8.204   2.017   8.564
  100POPC   D2A 4924   8.167   1.974   8.264
  100POPC   C3A 4925   8.213   1.981   7.964
  100POPC   C4A 4926   8.192   1.965   7.664
  100POPC   C1B 4927   8.104   2.209   8.564
  100POPC   C2B 4928   8.169   2.208   8.264
  100POPC   C3B 4929   8.099   2.198   7.964
  100POPC   C4B 4930   8.124   2.271   7.664
  101POPC   NC3 4931  40.016  14.447   9.464
  101POPC   PO4 4932  40.019  14.372   9.164
  101POPC   GL1 4933  40.049  14.430   8.864
  101POPC   GL2 4934  39.930  14.357   8.864
  101POPC   C1A 4935  40.034  14.399   8.564
  101POPC   D2A 4936  39.974  14.367   8.264
  101POPC   C3A 4937  39.979  14.383   7.964
  101POPC   C4A 4938  40.045  14.430   7.664
  101POPC   C1B 4939  39.860  14.201   8.564
  101POPC   C2B 4940  39.813  14.250   8.264
  101POPC   C3B 4941  39.844  14.208   7.964
  101POPC   C4B 4942  39.798  14.228   7.664
  102POPC   NC3 4943  17.480  32.255   9.464
  102POPC   PO4 4944  17.528  32.224   9.164
  102POPC   GL1 4945  17.532  32.285   8.864
  102POPC   GL2 4946  17.544  32.124   8.864
  102POPC   C1A 4947  17.464  32.202   8.564
  102POPC   D2A 4948  17.557  32.241   8.264
  102POPC   C3A 4949  17.523  32.253   7.964
  102POPC   C4A 4950  17.508  32.276   7.664
  102POPC   C1B 4951  17.626  31.977   8.564
  102POPC   C2B 4952  17.571  32.018   8.264
  102POPC   C3B 4953  17.577  32.036   7.964
  102POPC   C4B 4954  17.558  32.041   7.664
  103POPC   NC3 4955   0.445  14.388   9.464
  103POPC   PO4 4956   0.472  14.402   9.164
  103POPC   GL1 4957   0.479  14.420   8.864
  103POPC   GL2 4958   0.523  14.281   8.864
  103POPC   C1A 4959   0.442  14.382   8.564
  103POPC   D2A 4960   0.469  14.395   8.264
  103POPC   C3A 4961   0.453  14.363   7.964
  103POPC   C4A 4962   0.458  14.434   7.664
  103POPC   C1B 4963   0.584  14.192   8.564
  103POPC   C2B 4964   0.573  14.212   8.264
  103POPC   C3B 4965   0.587  14.207   7.964
  103POPC   C4B 4966   0.561  14.188   7.664
  104POPC   NC3 4967  43.104  15.943   9.464
  104POPC   PO4 4968  43.079  15.974   9.164
  104POPC   GL1 4969  43.126  15.937   8.864
  104POPC   GL2 4970  43.045  16.070   8.864
  104POPC   C1A 4971  43.135  15.968   8.564
  104POPC   D2A 4972  43.084  15.909   8.264
  104POPC   C3A 4973  43.138  15.943   7.964
  104POPC   C4A 4974  43.060  15.967   7.664
  104POPC   C1B 4975  42.986  16.193   8.564
  104POPC   C2B 4976  43.010  16.230   8.264
  104POPC   C3B 4977  43.060  16.230   7.964
  104POPC   C4B 4978  43.007  16.226   7.664
  105POPC   NC3 4979  44.695  42.346   9.464
  105POPC   PO4 4980  44.661  42.358   9.164
  105POPC   GL1 4981  44.694  42.310   8.864
  105POPC   GL2 4982  44.624  42.452   8.864
  105POPC   C1A 4983  44.626  42.367   8.564
  105POPC   D2A 4984  44.645  42.342   8.264
  105POPC   C3A 4985  44.632  42.300   7.964
  105POPC   C4A 4986  44.680  42.339   7.664
  105POPC   C1B 4987  44.604  42.583   8.564
  105POPC   C2B 4988  44.596  42.546   8.264
  105POPC   C3B 4989  44.551  42.558   7.964
  105POPC   C4B 4990  44.640  42.584   7.664
  106POPC   NC3 4991  28.328   8.947   9.464
  106POPC   PO4 4992  28.325   8.950   9.164
  106POPC   GL1 4993  28.408   8.991   8.864
  106POPC   GL2 4994  28.286   8.975   8.864
  106POPC   C1A 4995  28.408   8.964   8.564
  106POPC   D2A 4996  28.404   9.015   8.264
  106POPC   C3A 4997  28.410   8.956   7.964
  106POPC   C4A 4998  28.383   8.972   7.664
  106POPC   C1B 4999  28.118   9.067   8.564
  106POPC   C2B 5000  28.104   9.080   8.264
  106POPC   C3B 5001  28.146   9.077   7.964
  106POPC   C4B 5002  28.093   9.021   7.664
  107POPC   NC3 5003  24.498  29.946   9.464
  107POPC   PO4 5004  24.535  29.925   9.164
  107POPC   GL1 5005  24.479  29.932   8.864
  107POPC   GL2 5006  24.372  30.005   8.864
  107POPC   C1A 5007  24.512  29.970   8.564
  107POPC   D2A 5008  24.507  29.923   8.264
  107POPC   C3A 5009  24.491  29.898   7.964
  107POPC   C4A 5010  24.524  29.965   7.664
  107POPC   C1B 5011  24.296  30.073   8.564
  107POPC   C2B 5012  24.276  30.061   8.264
  107POPC   C3B 5013  24.286  30.031   7.964
  107POPC   C4B 5014  24.302  30.026   7.664
  108POPC   NC3 5015   8.977  10.560   9.464
  108POPC   PO4 5016   8.939  10.486   9.164
  108POPC   GL1 5017   9.010  10.487   8.864
  108POPC   GL2 5018   8.838  10.506   8.864
  108POPC   C1A 5019   8.987  10.567   8.564
  108POPC   D2A 5020   8.948  10.520   8.264
  108POPC   C3A 5021   8.934  10.554   7.964
  108POPC   C4A 5022   9.020  10.548   7.664
  108POPC   C1B 5023   8.676  10.560   8.564
  108POPC   C2B 5024   8.695  10.507   8.264
  108POPC   C3B 5025   8.714  10.550   7.964
  108POPC   C4B 5026   8.688  10.559   7.664
  109POPC   NC3 5027  27.587  39.257   9.464
  109POPC   PO4 5028  27.556  39.267   9.164
  109POPC   GL1 5029  27.571  39.248   8.864
  109POPC   GL2 5030  27.475  39.341   8.864
  109POPC   C1A 5031  27.582  39.237   8.564
  109POPC   D2A 5032  27.574  39.246   8.264
  109POPC   C3A 5033  27.633  39.202   7.964
  109POPC   C4A 5034  27.554  39.209   7.664
  109POPC   C1B 5035  27.446  39.380   8.564
  109POPC   C2B 5036  27.460  39.476   8.264
  109POPC   C3B 5037  27.414  39.379   7.964
  109POPC   C4B 5038  27.418  39.414   7.664
  110POPC   NC3 5039  19.012   2.782   9.464
  110POPC   PO4 5040  19.102   2.724   9.164
  110POPC   GL1 5041  19.060   2.785   8.864
  110POPC   GL2 5042  18.921   2.807   8.864
  110POPC   C1A 5043  19.052   2.758   8.564
  110POPC   D2A 5044  19.018   2.784   8.264
  110POPC   C3A 5045  19.088   2.762   7.964
  110POPC   C4A 5046  19.021   2.779   7.664
  110POPC   C1B 5047  18.904   2.954   8.564
  110POPC   C2B 5048  18.831   2.958   8.264
  110POPC   C3B 5049  18.928   2.910   7.964
  110POPC   C4B 5050  18.881   2.900   7.664
  111POPC   NC3 5051   9.786  33.019   9.464
  111POPC   PO4 5052   9.782  33.009   9.164
  111POPC   GL1 5053   9.717  33.065   8.864
  111POPC   GL2 5054   9.660  33.043   8.864
  111POPC   C1A 5055   9.773  32.999   8.564
  111POPC   D2A 5056   9.798  33.071   8.264
  111POPC   C3A 5057   9.789  33.026   7.964
  111POPC   C4A 5058   9.775  33.072   7.664
  111POPC   C1B 5059   9.469  33.031   8.564
  111POPC   C2B 5060   9.509  33.078   8.264
  111POPC   C3B 5061   9.512  33.062   7.964
  111POPC   C4B 5062   9.471  33.037   7.664
  112POPC   NC3 5063  16.757  11.260   9.464
  112POPC   PO4 5064  16.776  11.296   9.164
  112POPC   GL1 5065  16.726  11.308   8.864
  112POPC   GL2 5066  16.597  11.250   8.864
  112POPC   C1A 5067  16.761  11.252   8.564
  112POPC   D2A 5068  16.711  11.255   8.264
  112POPC   C3A 5069  16.731  11.291   7.964
  112POPC   C4A 5070  16.723  11.337   7.664
  112POPC   C1B 5071  16.512  11.144   8.564
  112POPC   C2B 5072  16.515  11.134   8.264
  112POPC   C3B 5073  16.546  11.098   7.964
  112POPC   C4B 5074  16.566  11.138   7.664
  113POPC   NC3 5075  28.411  17.460   9.464
  113POPC   PO4 5076  28.323  17.501   9.164
  113POPC   GL1 5077  28.418  17.552   8.864
  113POPC   GL2 5078  28.241  17.486   8.864
  113POPC   C1A 5079  28.338  17.538   8.564
  113POPC   D2A 5080  28.375  17.473   8.264
  113POPC   C3A 5081  28.404  17.553   7.964
  113POPC   C4A 5082  28.340  17.479   7.664
  113POPC   C1B 5083  28.140  17.420   8.564
  113POPC   C2B 5084  28.107  17.459   8.264
  113POPC   C3B 5085  28.170  17.439   7.964
  113POPC   C4B 5086  28.101  17.416   7.664
  114POPC   NC3 5087  40.788   9.774   9.464
  114POPC   PO4 5088  40.798   9.704   9.164
  114POPC   GL1 5089  40.764   9.734   8.864
  114POPC   GL2 5090  40.827   9.878   8.864
  114POPC   C1A 5091  40.777   9.728   8.564
  114POPC   D2A 5092  40.809   9.759   8.264
  114POPC   C3A 5093  40.805   9.701   7.964
  114POPC   C4A 5094  40.811   9.764   7.664
  114POPC   C1B 5095  40.928   9.909   8.564
  114POPC   C2B 5096  40.907   9.953   8.264
  114POPC   C3B 5097  40.978   9.983   7.964
  114POPC   C4B 5098  40.961   9.936   7.664
  115POPC   NC3 5099   8.963   9.768   9.464
  115POPC   PO4 5100   8.983   9.722   9.164
  115POPC   GL1 5101   8.955   9.712   8.864
  115POPC   GL2 5102   8.931   9.661   8.864
  115POPC   C1A 5103   9.016   9.723   8.564
  115POPC   D2A 5104   9.011   9.797   8.264
  115POPC   C3A 5105   9.002   9.794   7.964
  115POPC   C4A 5106   9.016   9.747   7.664
  115POPC   C1B 5107   8.874   9.510   8.564
  115POPC   C2B 5108   8.956   9.493   8.264
  115POPC   C3B 5109   8.915   9.518   7.964
  115POPC   C4B 5110   8.883   9.516   7.664
  116POPC   NC3 5111   1.211  36.165   9.464
  116POPC   PO4 5112   1.208  36.169   9.164
  116POPC   GL1 5113   1.237  36.173   8.864
  116POPC   GL2 5114   1.210  35.969   8.864
  116POPC   C1A 5115   1.189  36.168   8.564
  116POPC   D2A 5116   1.230  36.155   8.264
  116POPC   C3A 5117   1.216  36.146   7.964
  116POPC   C4A 5118   1.194  36.148   7.664
  116POPC   C1B 5119   1.299  35.916   8.564
  116POPC   C2B 5120   1.335  35.904   8.264
  116POPC   C3B 5121   1.303  35.906   7.964
  116POPC   C4B 5122   1.237  35.862   7.664
  117POPC   NC3 5123  39.240  19.851   9.464
  117POPC   PO4 5124  39.221  19.878   9.164
  117POPC   GL1 5125  39.229  19.858   8.864
  117POPC   GL2 5126  39.362  19.709   8.864
  117POPC   C1A 5127  39.225  19.816   8.564
  117POPC   D2A 5128  39.247  19.834   8.264
  117POPC   C3A 5129  39.246  19.822   7.964
  117POPC   C4A 5130  39.267  19.832   7.664
  117POPC   C1B 5131  39.386  19.642   8.564
  117POPC   C2B 5132  39.465  19.703   8.264
  117POPC   C3B 5133  39.442  19.667   7.964
  117POPC   C4B 5134  39.418  19.664   7.664
  118POPC   NC3 5135   2.784  43.906   9.464
  118POPC   PO4 5136   2.778  43.908   9.164
  118POPC   GL1 5137   2.801  43.843   8.864
  118POPC   GL2 5138   2.689  43.795   8.864
  118POPC   C1A 5139   2.761  43.916   8.564
  118POPC   D2A 5140   2.718  43.857   8.264
  118POPC   C3A 5141   2.811  43.896   7.964
  118POPC   C4A 5142   2.805  43.871   7.664
  118POPC   C1B 5143   2.698  43.686   8.564
  118POPC   C2B 5144   2.736  43.681   8.264
  118POPC   C3B 5145   2.732  43.601   7.964
  118POPC   C4B 5146   2.734  43.694   7.664
  119POPC   NC3 5147  12.109  26.865   9.464
  119POPC   PO4 5148  12.071  26.782   9.164
  119POPC   GL1 5149  12.091  26.782   8.864
  119POPC   GL2 5150  12.158  26.730   8.864
  119POPC   C1A 5151  12.033  26.836   8.564
  119POPC   D2A 5152  12.074  26.777   8.264
  119POPC   C3A 5153  12.028  26.782   7.964
  119POPC   C4A 5154  12.035  26.771   7.664
  119POPC   C1B 5155  12.269  26.665   8.564
  119POPC   C2B 5156  12.284  26.627   8.264
  119POPC   C3B 5157  12.231  26.614   7.964
  119POPC   C4B 5158  12.219  26.634   7.664
  120POPC   NC3 5159  19.015  27.566   9.464
  120POPC   PO4 5160  19.014  27.632   9.164
  120POPC   GL1 5161  19.050  27.590   8.864
  120POPC   GL2 5162  18.950  27.593   8.864
  120POPC   C1A 5163  19.017  27.602   8.564
  120POPC   D2A 5164  19.088  27.615   8.264
  120POPC   C3A 5165  19.092  27.627   7.964
  120POPC   C4A 5166  19.069  27.546   7.664
  120POPC   C1B 5167  18.809  27.624   8.564
  120POPC   C2B 5168  18.782  27.686   8.264
  120POPC   C3B 5169  18.773  27.635   7.964
  120POPC   C4B 5170  18.772  27.704   7.664
  121POPC   NC3 5171  39.193  30.649   9.464
  121POPC   PO4 5172  39.209  30.664   9.164
  121POPC   GL1 5173  39.258  30.698   8.864
  121POPC   GL2 5174  39.266  30.591   8.864
  121POPC   C1A 5175  39.216  30.678   8.564
  121POPC   D2A 5176  39.246  30.676   8.264
  121POPC   C3A 5177  39.281  30.654   7.964
  121POPC   C4A 5178  39.267  30.746   7.664
  121POPC   C1B 5179  39.259  30.434   8.564
  121POPC   C2B 5180  39.234  30.412   8.264
  121POPC   C3B 5181  39.242  30.484   7.964
  121POPC   C4B 5182  39.229  30.417   7.664
  122POPC   NC3 5183  29.149  33.752   9.464
  122POPC   PO4 5184  29.169  33.815   9.164
  122POPC   GL1 5185  29.191  33.806   8.864
  122POPC   GL2 5186  29.045  33.788   8.864
  122POPC   C1A 5187  29.113  33.766   8.564
  122POPC   D2A 5188  29.110  33.820   8.264
  122POPC   C3A 5189  29.126  33.754   7.964
  122POPC   C4A 5190  29.180  33.774   7.664
  122POPC   C1B 5191  28.892  33.798   8.564
  122POPC   C2B 5192  28.885  33.890   8.264
  122POPC   C3B 5193  28.873  33.817   7.964
  122POPC   C4B 5194  28.937  33.802   7.664
  123POPC   NC3 5195  22.986  25.262   9.464
  123POPC   PO4 5196  22.973  25.285   9.164
  123POPC   GL1 5197  22.933  25.244   8.864
  123POPC   GL2 5198  22.983  25.144   8.864
  123POPC   C1A 5199  22.980  25.217   8.564
  123POPC   D2A 5200  22.932  25.256   8.264
  123POPC   C3A 5201  22.948  25.293   7.964
  123POPC   C4A 5202  22.961  25.304   7.664
  123POPC   C1B 5203  23.105  25.095   8.564
  123POPC   C2B 5204  23.162  25.076   8.264
  123POPC   C3B 5205  23.169  25.139   7.964
  123POPC   C4B 5206  23.095  25.079   7.664
  124POPC   NC3 5207  25.279  42.365   9.464
  124POPC   PO4 5208  25.301  42.368   9.164
  124POPC   GL1 5209  25.290  42.322   8.864
  124POPC   GL2 5210  25.190  42.216   8.864
  124POPC   C1A 5211  25.302  42.321   8.564
  124POPC   D2A 5212  25.307  42.323   8.264
  124POPC   C3A 5213  25.274  42.334   7.964
  124POPC   C4A 5214  25.253  42.361   7.664
  124POPC   C1B 5215  25.181  42.114   8.564
  124POPC   C2B 5216  25.137  42.072   8.264
  124POPC   C3B 5217  25.132  42.061   7.964
  124POPC   C4B 5218  25.214  42.094   7.664
  125POPC   NC3 5219  30.709   8.933   9.464
  125POPC   PO4 5220  30.733   8.973   9.164
  125POPC   GL1 5221  30.723   8.958   8.864
  125POPC   GL2 5222  30.624   9.071   8.864
  125POPC   C1A 5223  30.693   8.949   8.564
  125POPC   D2A 5224  30.713   8.981   8.264
  125POPC   C3A 5225  30.731   8.925   7.964
  125POPC   C4A 5226  30.686   8.930   7.664
  125POPC   C1B 5227  30.495   9.108   8.564
  125POPC   C2B 5228  30.454   9.091   8.264
  125POPC   C3B 5229  30.455   9.062   7.964
  125POPC   C4B 5230  30.502   9.050   7.664
  126POPC   NC3 5231  24.483  10.502   9.464
  126POPC   PO4 5232  24.454  10.502   9.164
  126POPC   GL1 5233  24.516  10.490   8.864
  126POPC   GL2 5234  24.374  10.498   8.864
  126POPC   C1A 5235  24.441  10.507   8.564
  126POPC   D2A 5236  24.443  10.494   8.264
  126POPC   C3A 5237  24.459  10.514   7.964
  126POPC   C4A 5238  24.500  10.522   7.664
  126POPC   C1B 5239  24.226  10.512   8.564
  126POPC   C2B 5240  24.203  10.551   8.264
  126POPC   C3B 5241  24.234  10.565   7.964
  126POPC   C4B 5242  24.287  10.552   7.664
  127POPC   NC3 5243  27.619  19.852   9.464
  127POPC   PO4 5244  27.580  19.839   9.164
  127POPC   GL1 5245  27.624  19.825   8.864
  127POPC   GL2 5246  27.680  19.834   8.864
  127POPC   C1A 5247  27.565  19.824   8.564
  127POPC   D2A 5248  27.616  19.848   8.264
  127POPC   C3A 5249  27.598  19.856   7.964
  127POPC   C4A 5250  27.634  19.788   7.664
  127POPC   C1B 5251  27.812  19.851   8.564
  127POPC   C2B 5252  27.853  19.817   8.264
  127POPC   C3B 5253  27.804  19.865   7.964
  127POPC   C4B 5254  27.840  19.869   7.664
  128POPC   NC3 5255   8.220  30.729   9.464
  128POPC   PO4 5256   8.231  30.665   9.164
  128POPC   GL1 5257   8.186  30.722   8.864
  128POPC   GL2 5258   8.340  30.718   8.864
  128POPC   C1A 5259   8.209  30.732   8.564
  128POPC   D2A 5260   8.149  30.673   8.264
  128POPC   C3A 5261   8.214  30.666   7.964
  128POPC   C4A 5262   8.227  30.664   7.664
  128POPC   C1B 5263   8.400  30.779   8.564
  128POPC   C2B 5264   8.399  30.792   8.264
  128POPC   C3B 5265   8.380  30.764   7.964
  128POPC   C4B 5266   8.457  30.757   7.664
  129POPC   NC3 5267   7.376  10.480   9.464
  129POPC   PO4 5268   7.389  10.541   9.164
  129POPC   GL1 5269   7.429  10.505   8.864
  129POPC   GL2 5270   7.517  10.501   8.864
  129POPC   C1A 5271   7.411  10.501   8.564
  129POPC   D2A 5272   7.428  10.566   8.264
  129POPC   C3A 5273   7.436  10.564   7.964
  129POPC   C4A 5274   7.408  10.503   7.664
  129POPC   C1B 5275   7.647  10.435   8.564
  129POPC   C2B 5276   7.690  10.398   8.264
  129POPC   C3B 5277   7.689  10.433   7.964
  129POPC   C4B 5278   7.661  10.374   7.664
  130POPC   NC3 5279   7.391  19.084   9.464
  130POPC   PO4 5280   7.448  19.074   9.164
  130POPC   GL1 5281   7.433  19.081   8.864
  130POPC   GL2 5282   7.298  19.109   8.864
  130POPC   C1A 5283   7.430  19.022   8.564
  130POPC   D2A 5284   7.385  19.073   8.264
  130POPC   C3A 5285   7.411  19.088   7.964
  130POPC   C4A 5286   7.378  19.039   7.664
  130POPC   C1B 5287   7.190  19.041   8.564
  130POPC   C2B 5288   7.131  19.051   8.264
  130POPC   C3B 5289   7.188  19.059   7.964
  130POPC   C4B 5290   7.150  19.064   7.664
  131POPC   NC3 5291   0.438  43.906   9.464
  131POPC   PO4 5292   0.394  43.926   9.164
  131POPC   GL1 5293   0.438  43.905   8.864
  131POPC   GL2 5294   0.296  43.812   8.864
  131POPC   C1A 5295   0.395  43.925   8.564
  131POPC   D2A 5296   0.450  43.880   8.264
  131POPC   C3A 5297   0.400  43.859   7.964
  131POPC   C4A 5298   0.451  43.846   7.664
  131POPC   C1B 5299   0.221  43.753   8.564
  131POPC   C2B 5300   0.273  43.753   8.264
  131POPC   C3B 5301   0.194  43.768   7.964
  131POPC   C4B 5302   0.183  43.714   7.664
  132POPC   NC3 5303   3.501   1.978   9.464
  132POPC   PO4 5304   3.565   1.998   9.164
  132POPC   GL1 5305   3.511   1.999   8.864
  132POPC   GL2 5306   3.573   2.114   8.864
  132POPC   C1A 5307   3.591   1.978   8.564
  132POPC   D2A 5308   3.561   1.996   8.264
  132POPC   C3A 5309   3.527   1.953   7.964
  132POPC   C4A 5310   3.540   2.035   7.664
  132POPC   C1B 5311   3.590   2.234   8.564
  132POPC   C2B 5312   3.604   2.212   8.264
  132POPC   C3B 5313   3.612   2.215   7.964
  132POPC   C4B 5314   3.642   2.194   7.664
  133POPC   NC3 5315   8.991  29.967   9.464
  133POPC   PO4 5316   9.017  29.873   9.164
  133POPC   GL1 5317   8.925  29.894   8.864
  133POPC   GL2 5318   9.020  30.047   8.864
  133POPC   C1A 5319   8.927  29.943   8.564
  133POPC   D2A 5320   8.983  29.941   8.264
  133POPC   C3A 5321   8.980  29.954   7.964
  133POPC   C4A 5322   8.939  29.915   7.664
  133POPC   C1B 5323   9.072  30.204   8.564
  133POPC   C2B 5324   9.015  30.183   8.264
  133POPC   C3B 5325   9.017  30.149   7.964
  133POPC   C4B 5326   9.030  30.143   7.664
  134POPC   NC3 5327  40.736  25.265   9.464
  134POPC   PO4 5328  40.830  25.256   9.164
  134POPC   GL1 5329  40.811  25.228   8.864
  134POPC   GL2 5330  40.618  25.229   8.864
  134POPC   C1A 5331  40.758  25.241   8.564
  134POPC   D2A 5332  40.830  25.287   8.264
  134POPC   C3A 5333  40.764  25.235   7.964
  134POPC   C4A 5334  40.743  25.235   7.664
  134POPC   C1B 5335  40.499  25.297   8.564
  134POPC   C2B 5336  40.524  25.263   8.264
  134POPC   C3B 5337  40.552  25.279   7.964
  134POPC   C4B 5338  40.575  25.250   7.664
  135POPC   NC3 5339  21.353  16.697   9.464
  135POPC   PO4 5340  21.364  16.723   9.164
  135POPC   GL1 5341  21.431  16.694   8.864
  135POPC   GL2 5342  21.365  16.795   8.864
  135POPC   C1A 5343  21.367  16.751   8.564
  135POPC   D2A 5344  21.430  16.757   8.264
  135POPC   C3A 5345  21.429  16.736   7.964
  135POPC   C4A 5346  21.424  16.730   7.664
  135POPC   C1B 5347  21.291  16.973   8.564
  135POPC   C2B 5348  21.294  16.950   8.264
  135POPC   C3B 5349  21.287  16.903   7.964
  135POPC   C4B 5350  21.267  16.977   7.664
  136POPC   NC3 5351  25.304  22.210   9.464
  136POPC   PO4 5352  25.283  22.165   9.164
  136POPC   GL1 5353  25.249  22.168   8.864
  136POPC   GL2 5354  25.195  22.059   8.864
  136POPC   C1A 5355  25.275  22.153   8.564
  136POPC   D2A 5356  25.239  22.201   8.264
  136POPC   C3A 5357  25.253  22.194   7.964
  136POPC   C4A 5358  25.285  22.138   7.664
  136POPC   C1B 5359  25.081  21.961   8.564
  136POPC   C2B 5360  25.143  21.975   8.264
  136POPC   C3B 5361  25.097  21.988   7.964
  136POPC   C4B 5362  25.078  21.965   7.664
  137POPC   NC3 5363  22.126   6.664   9.464
  137POPC   PO4 5364  22.120   6.671   9.164
  137POPC   GL1 5365  22.123   6.611   8.864
  137POPC   GL2 5366  22.247   6.695   8.864
  137POPC   C1A 5367  22.115   6.690   8.564
  137POPC   D2A 5368  22.178   6.652   8.264
  137POPC   C3A 5369  22.139   6.599   7.964
  137POPC   C4A 5370  22.173   6.608   7.664
  137POPC   C1B 5371  22.365   6.746   8.564
  137POPC   C2B 5372  22.331   6.826   8.264
  137POPC   C3B 5373  22.378   6.770   7.964
  137POPC   C4B 5374  22.332   6.832   7.664
  138POPC   NC3 5375  37.632  40.736   9.464
  138POPC   PO4 5376  37.672  40.807   9.164
  138POPC   GL1 5377  37.644  40.802   8.864
  138POPC   GL2 5378  37.553  40.848   8.864
  138POPC   C1A 5379  37.689  40.740   8.564
  138POPC   D2A 5380  37.680  40.758   8.264
  138POPC   C3A 5381  37.684  40.783   7.964
  138POPC   C4A 5382  37.700  40.785   7.664
  138POPC   C1B 5383  37.403  40.857   8.564
  138POPC   C2B 5384  37.454  40.850   8.264
  138POPC   C3B 5385  37.409  40.899   7.964
  138POPC   C4B 5386  37.486  40.858   7.664
  139POPC   NC3 5387  14.426  29.922   9.464
  139POPC   PO4 5388  14.401  29.907   9.164
  139POPC   GL1 5389  14.404  29.969   8.864
  139POPC   GL2 5390  14.408  29.806   8.864
  139POPC   C1A 5391  14.429  29.926   8.564
  139POPC   D2A 5392  14.426  29.965   8.264
  139POPC   C3A 5393  14.380  29.887   7.964
  139POPC   C4A 5394  14.397  29.961   7.664
  139POPC   C1B 5395  14.424  29.700   8.564
  139POPC   C2B 5396  14.406  29.685   8.264
  139POPC   C3B 5397  14.441  29.640   7.964
  139POPC   C4B 5398  14.428  29.699   7.664
  140POPC   NC3 5399   0.409  40.813   9.464
  140POPC   PO4 5400   0.427  40.803   9.164
  140POPC   GL1 5401   0.434  40.825   8.864
  140POPC   GL2 5402   0.532  40.827   8.864
  140POPC   C1A 5403   0.461  40.822   8.564
  140POPC   D2A 5404   0.473  40.743   8.264
  140POPC   C3A 5405   0.440  40.756   7.964
  140POPC   C4A 5406   0.438  40.816   7.664
  140POPC   C1B 5407   0.676  40.943   8.564
  140POPC   C2B 5408   0.625  40.975   8.264
  140POPC   C3B 5409   0.591  40.938   7.964
  140POPC   C4B 5410   0.609  40.930   7.664
  141POPC   NC3 5411  16.729   2.734   9.464
  141POPC   PO4 5412  16.702   2.777   9.164
  141POPC   GL1 5413  16.719   2.724   8.864
  141POPC   GL2 5414  16.655   2.612   8.864
  141POPC   C1A 5415  16.740   2.727   8.564
  141POPC   D2A 5416  16.766   2.791   8.264
  141POPC   C3A 5417  16.683   2.815   7.964
  141POPC   C4A 5418  16.734   2.738   7.664
  141POPC   C1B 5419  16.609   2.527   8.564
  141POPC   C2B 5420  16.698   2.523   8.264
  141POPC   C3B 5421  16.618   2.481   7.964
  141POPC   C4B 5422  16.606   2.557   7.664
  142POPC   NC3 5423  43.894   8.981   9.464
  142POPC   PO4 5424  43.910   8.927   9.164
  142POPC   GL1 5425  43.848   8.959   8.864
  142POPC   GL2 5426  43.833   9.083   8.864
  142POPC   C1A 5427  43.890   9.003   8.564
  142POPC   D2A 5428  43.860   8.958   8.264
  142POPC   C3A 5429  43.906   8.931   7.964
  142POPC   C4A 5430  43.840   8.923   7.664
  142POPC   C1B 5431  43.736   9.131   8.564
  142POPC   C2B 5432  43.734   9.126   8.264
  142POPC   C3B 5433  43.764   9.215   7.964
  142POPC   C4B 5434  43.691   9.156   7.664
  143POPC   NC3 5435  19.847  40.026   9.464
  143POPC   PO4 5436  19.797  39.984   9.164
  143POPC   GL1 5437  19.848  39.980   8.864
  143POPC   GL2 5438  19.943  40.039   8.864
  143POPC   C1A 5439  19.881  40.032   8.564
  143POPC   D2A 5440  19.831  39.973   8.264
  143POPC   C3A 5441  19.838  40.036   7.964
  143POPC   C4A 5442  19.862  39.985   7.664
  143POPC   C1B 5443  20.059  40.065   8.564
  143POPC   C2B 5444  20.075  40.052   8.264
  143POPC   C3B 5445  20.042  39.996   7.964
  143POPC   C4B 5446  20.035  40.064   7.664
  144POPC   NC3 5447  35.369   8.978   9.464
  144POPC   PO4 5448  35.363   8.975   9.164
  144POPC   GL1 5449  35.366   8.951   8.864
  144POPC   GL2 5450  35.288   8.837   8.864
  144POPC   C1A 5451  35.306   8.963   8.564
  144POPC   D2A 5452  35.346   8.989   8.264
  144POPC   C3A 5453  35.340   8.973   7.964
  144POPC   C4A 5454  35.386   9.019   7.664
  144POPC   C1B 5455  35.209   8.738   8.564
  144POPC   C2B 5456  35.232   8.814   8.264
  144POPC   C3B 5457  35.187   8.779   7.964
  144POPC   C4B 5458  35.139   8.765   7.664
  145POPC   NC3 5459   1.249  40.790   9.464
  145POPC   PO4 5460   1.188  40.755   9.164
  145POPC   GL1 5461   1.183  40.817   8.864
  145POPC   GL2 5462   1.307  40.819   8.864
  145POPC   C1A 5463   1.233  40.782   8.564
  145POPC   D2A 5464   1.246  40.827   8.264
  145POPC   C3A 5465   1.194  40.829   7.964
  145POPC   C4A 5466   1.263  40.826   7.664
  145POPC   C1B 5467   1.417  40.786   8.564
  145POPC   C2B 5468   1.474  40.800   8.264
  145POPC   C3B 5469   1.477  40.781   7.964
  145POPC   C4B 5470   1.490  40.790   7.664
  146POPC   NC3 5471  20.581  19.062   9.464
  146POPC   PO4 5472  20.642  19.066   9.164
  146POPC   GL1 5473  20.638  19.023   8.864
  146POPC   GL2 5474  20.739  18.980   8.864
  146POPC   C1A 5475  20.584  19.081   8.564
  146POPC   D2A 5476  20.588  19.105   8.264
  146POPC   C3A 5477  20.650  19.033   7.964
  146POPC   C4A 5478  20.658  19.009   7.664
  146POPC   C1B 5479  20.804  18.959   8.564
  146POPC   C2B 5480  20.829  18.897   8.264
  146POPC   C3B 5481  20.831  18.963   7.964
  146POPC   C4B 5482  20.775  18.953   7.664
  147POPC   NC3 5483  14.421  36.928   9.464
  147POPC   PO4 5484  14.357  36.884   9.164
  147POPC   GL1 5485  14.413  36.856   8.864
  147POPC   GL2 5486  14.244  36.860   8.864
  147POPC   C1A 5487  14.405  36.870   8.564
  147POPC   D2A 5488  14.452  36.930   8.264
  147POPC   C3A 5489  14.384  36.885   7.964
  147POPC   C4A 5490  14.435  36.925   7.664
  147POPC   C1B 5491  14.183  36.868   8.564
  147POPC   C2B 5492  14.164  36.853   8.264
  147POPC   C3B 5493  14.204  36.871   7.964
  147POPC   C4B 5494  14.156  36.896   7.664
  148POPC   NC3 5495   6.658  27.555   9.464
  148POPC   PO4 5496   6.688  27.547   9.164
  148POPC   GL1 5497   6.607  27.577   8.864
  148POPC   GL2 5498   6.757  27.663   8.864
  148POPC   C1A 5499   6.629  27.615   8.564
  148POPC   D2A 5500   6.645  27.613   8.264
  148POPC   C3A 5501   6.684  27.576   7.964
  148POPC   C4A 5502   6.654  27.580   7.664
  148POPC   C1B 5503   6.917  27.588   8.564
  148POPC   C2B 5504   6.900  27.656   8.264
  148POPC   C3B 5505   6.842  27.621   7.964
  148POPC   C4B 5506   6.895  27.665   7.664
  149POPC   NC3 5507  44.669  31.436   9.464
  149POPC   PO4 5508  44.696  31.496   9.164
  149POPC   GL1 5509  44.707  31.492   8.864
  149POPC   GL2 5510  44.791  31.548   8.864
  149POPC   C1A 5511  44.683  31.429   8.564
  149POPC   D2A 5512  44.681  31.472   8.264
  149POPC   C3A 5513  44.639  31.446   7.964
  149POPC   C4A 5514  44.674  31.428   7.664
  149POPC   C1B 5515  44.901  31.643   8.564
  149POPC   C2B 5516  44.908  31.599   8.264
  149POPC   C3B 5517  44.910  31.597   7.964
  149POPC   C4B 5518  44.901  31.646   7.664
  150POPC   NC3 5519  22.985  26.809   9.464
  150POPC   PO4 5520  22.933  26.852   9.164
  150POPC   GL1 5521  22.900  26.824   8.864
  150POPC   GL2 5522  22.861  26.824   8.864
  150POPC   C1A 5523  22.902  26.802   8.564
  150POPC   D2A 5524  22.894  26.842   8.264
  150POPC   C3A 5525  22.962  26.841   7.964
  150POPC   C4A 5526  22.904  26.794   7.664
  150POPC   C1B 5527  22.703  26.905   8.564
  150POPC   C2B 5528  22.696  26.955   8.264
  150POPC   C3B 5529  22.708  26.878   7.964
  150POPC   C4B 5530  22.733  26.879   7.664
  151POPC   NC3 5531  33.072   6.658   9.464
  151POPC   PO4 5532  32.982   6.648   9.164
  151POPC   GL1 5533  33.047   6.605   8.864
  151POPC   GL2 5534  33.138   6.738   8.864
  151POPC   C1A 5535  33.022   6.670   8.564
  151POPC   D2A 5536  33.060   6.682   8.264
  151POPC   C3A 5537  33.003   6.622   7.964
  151POPC   C4A 5538  33.043   6.653   7.664
  151POPC   C1B 5539  33.269   6.777   8.564
  151POPC   C2B 5540  33.237   6.788   8.264
  151POPC   C3B 5541  33.292   6.798   7.964
  151POPC   C4B 5542  33.210   6.752   7.664
  152POPC   NC3 5543   0.410   2.757   9.464
  152POPC   PO4 5544   0.451   2.774   9.164
  152POPC   GL1 5545   0.401   2.810   8.864
  152POPC   GL2 5546   0.298   2.742   8.864
  152POPC   C1A 5547   0.479   2.771   8.564
  152POPC   D2A 5548   0.399   2.726   8.264
  152POPC   C3A 5549   0.409   2.768   7.964
  152POPC   C4A 5550   0.484   2.770   7.664
  152POPC   C1B 5551   0.157   2.759   8.564
  152POPC   C2B 5552   0.196   2.814   8.264
  152POPC   C3B 5553   0.202   2.767   7.964
  152POPC   C4B 5554   0.187   2.760   7.664
  153POPC   NC3 5555  38.456  22.966   9.464
  153POPC   PO4 5556  38.443  22.982   9.164
  153POPC   GL1 5557  38.417  22.909   8.864
  153POPC   GL2 5558  38.344  22.846   8.864
  153POPC   C1A 5559  38.443  22.971   8.564
  153POPC   D2A 5560  38.438  22.893   8.264
  153POPC   C3A 5561  38.422  22.929   7.964
  153POPC   C4A 5562  38.407  22.977   7.664
  153POPC   C1B 5563  38.299  22.825   8.564
  153POPC   C2B 5564  38.301  22.761   8.264
  153POPC   C3B 5565  38.216  22.809   7.964
  153POPC   C4B 5566  38.302  22.778   7.664
  154POPC   NC3 5567   3.537   5.076   9.464
  154POPC   PO4 5568   3.551   5.129   9.164
  154POPC   GL1 5569   3.522   5.115   8.864
  154POPC   GL2 5570   3.436   5.092   8.864
  154POPC   C1A 5571   3.579   5.098   8.564
  154POPC   D2A 5572   3.541   5.125   8.264
  154POPC   C3A 5573   3.491   5.111   7.964
  154POPC   C4A 5574   3.537   5.142   7.664
  154POPC   C1B 5575   3.342   5.123   8.564
  154POPC   C2B 5576   3.317   5.146   8.264
  154POPC   C3B 5577   3.281   5.110   7.964
  154POPC   C4B 5578   3.279   5.188   7.664
  155POPC   NC3 5579  29.957  22.163   9.464
  155POPC   PO4 5580  29.879  22.173   9.164
  155POPC   GL1 5581  29.957  22.188   8.864
  155POPC   GL2 5582  30.054  22.154   8.864
  155POPC   C1A 5583  29.942  22.212   8.564
  155POPC   D2A 5584  29.935  22.147   8.264
  155POPC   C3A 5585  29.919  22.159   7.964
  155POPC   C4A 5586  29.950  22.167   7.664
  155POPC   C1B 5587  30.132  22.262   8.564
  155POPC   C2B 5588  30.136  22.230   8.264
  155POPC   C3B 5589  30.118  22.202   7.964
  155POPC   C4B 5590  30.191  22.215   7.664
  156POPC   NC3 5591  38.476   7.397   9.464
  156POPC   PO4 5592  38.468   7.426   9.164
  156POPC   GL1 5593  38.503   7.452   8.864
  156POPC   GL2 5594  38.317   7.409   8.864
  156POPC   C1A 5595  38.498   7.445   8.564
  156POPC   D2A 5596  38.429   7.459   8.264
  156POPC   C3A 5597  38.457   7.380   7.964
  156POPC   C4A 5598  38.475   7.425   7.664
  156POPC   C1B 5599  38.224   7.412   8.564
  156POPC   C2B 5600  38.185   7.382   8.264
  156POPC   C3B 5601  38.202   7.447   7.964
  156POPC   C4B 5602  38.250   7.454   7.664
  157POPC   NC3 5603   8.154  32.234   9.464
  157POPC   PO4 5604   8.239  32.278   9.164
  157POPC   GL1 5605   8.220  32.214   8.864
  157POPC   GL2 5606   8.281  32.102   8.864
  157POPC   C1A 5607   8.220  32.226   8.564
  157POPC   D2A 5608   8.231  32.284   8.264
  157POPC   C3A 5609   8.217  32.240   7.964
  157POPC   C4A 5610   8.246  32.281   7.664
  157POPC   C1B 5611   8.309  32.090   8.564
  157POPC   C2B 5612   8.347  32.094   8.264
  157POPC   C3B 5613   8.320  32.088   7.964
  157POPC   C4B 5614   8.315  32.063   7.664
  158POPC   NC3 5615   5.893   2.799   9.464
  158POPC   PO4 5616   5.902   2.739   9.164
  158POPC   GL1 5617   5.894   2.805   8.864
  158POPC   GL2 5618   5.751   2.713   8.864
  158POPC   C1A 5619   5.839   2.798   8.564
  158POPC   D2A 5620   5.905   2.755   8.264
  158POPC   C3A 5621   5.828   2.728   7.964
  158POPC   C4A 5622   5.883   2.742   7.664
  158POPC   C1B 5623   5.664   2.622   8.564
  158POPC   C2B 5624   5.642   2.639   8.264
  158POPC   C3B 5625   5.635   2.621   7.964
  158POPC   C4B 5626   5.673   2.564   7.664
  159POPC   NC3 5627  29.931   0.481   9.464
  159POPC   PO4 5628  29.909   0.450   9.164
  159POPC   GL1 5629  29.883   0.439   8.864
  159POPC   GL2 5630  29.754   0.441   8.864
  159POPC   C1A 5631  29.887   0.418   8.564
  159POPC   D2A 5632  29.924   0.399   8.264
  159POPC   C3A 5633  29.905   0.459   7.964
  159POPC   C4A 5634  29.895   0.405   7.664
  159POPC   C1B 5635  29.727   0.398   8.564
  159POPC   C2B 5636  29.711   0.352   8.264
  159POPC   C3B 5637  29.643   0.370   7.964
  159POPC   C4B 5638  29.661   0.408   7.664
  160POPC   NC3 5639  32.207  33.843   9.464
  160POPC   PO4 5640  32.297  33.763   9.164
  160POPC   GL1 5641  32.238  33.806   8.864
  160POPC   GL2 5642  32.332  33.728   8.864
  160POPC   C1A 5643  32.264  33.807   8.564
  160POPC   D2A 5644  32.247  33.805   8.264
  160POPC   C3A 5645  32.283  33.792   7.964
  160POPC   C4A 5646  32.294  33.839   7.664
  160POPC   C1B 5647  32.371  33.551   8.564
  160POPC   C2B 5648  32.384  33.590   8.264
  160POPC   C3B 5649  32.343  33.620   7.964
  160POPC   C4B 5650  32.380  33.566   7.664
  161POPC   NC3 5651  23.704  43.071   9.464
  161POPC   PO4 5652  23.722  43.103   9.164
  161POPC   GL1 5653  23.747  43.098   8.864
  161POPC   GL2 5654  23.773  43.226   8.864
  161POPC   C1A 5655  23.665  43.107   8.564
  161POPC   D2A 5656  23.688  43.129   8.264
  161POPC   C3A 5657  23.728  43.069   7.964
  161POPC   C4A 5658  23.696  43.138   7.664
  161POPC   C1B 5659  23.862  43.258   8.564
  161POPC   C2B 5660  23.914  43.339   8.264
  161POPC   C3B 5661  23.864  43.286   7.964
  161POPC   C4B 5662  23.908  43.340   7.664
  162POPC   NC3 5663  23.684   2.012   9.464
  162POPC   PO4 5664  23.694   2.027   9.164
  162POPC   GL1 5665  23.760   1.971   8.864
  162POPC   GL2 5666  23.789   1.921   8.864
  162POPC   C1A 5667  23.764   1.963   8.564
  162POPC   D2A 5668  23.665   1.956   8.264
  162POPC   C3A 5669  23.698   1.988   7.964
  162POPC   C4A 5670  23.742   2.033   7.664
  162POPC   C1B 5671  23.956   1.810   8.564
  162POPC   C2B 5672  23.925   1.798   8.264
  162POPC   C3B 5673  23.918   1.798   7.964
  162POPC   C4B 5674  23.946   1.794   7.664
  163POPC   NC3 5675   8.936  20.639   9.464
  163POPC   PO4 5676   8.992  20.627   9.164
  163POPC   GL1 5677   8.978  20.571   8.864
  163POPC   GL2 5678   8.853  20.580   8.864
  163POPC   C1A 5679   8.950  20.654   8.564
  163POPC   D2A 5680   9.002  20.642   8.264
  163POPC   C3A 5681   8.937  20.622   7.964
  163POPC   C4A 5682   8.961  20.622   7.664
  163POPC   C1B 5683   8.680  20.627   8.564
  163POPC   C2B 5684   8.727  20.602   8.264
  163POPC   C3B 5685   8.694  20.630   7.964
  163POPC   C4B 5686   8.732  20.571   7.664
  164POPC   NC3 5687   8.210   4.325   9.464
  164POPC   PO4 5688   8.216   4.309   9.164
  164POPC   GL1 5689   8.164   4.334   8.864
  164POPC   GL2 5690   8.159   4.469   8.864
  164POPC   C1A 5691   8.237   4.288   8.564
  164POPC   D2A 5692   8.206   4.284   8.264
  164POPC   C3A 5693   8.245   4.280   7.964
  164POPC   C4A 5694   8.229   4.335   7.664
  164POPC   C1B 5695   8.104   4.547   8.564
  164POPC   C2B 5696   8.121   4.574   8.264
  164POPC   C3B 5697   8.117   4.561   7.964
  164POPC   C4B 5698   8.152   4.567   7.664
  165POPC   NC3 5699  35.334  43.855   9.464
  165POPC   PO4 5700  35.401  43.861   9.164
  165POPC   GL1 5701  35.380  43.936   8.864
  165POPC   GL2 5702  35.348  44.036   8.864
  165POPC   C1A 5703  35.303  43.850   8.564
  165POPC   D2A 5704  35.327  43.892   8.264
  165POPC   C3A 5705  35.310  43.847   7.964
  165POPC   C4A 5706  35.357  43.910   7.664
  165POPC   C1B 5707  35.384  44.100   8.564
  165POPC   C2B 5708  35.340  44.173   8.264
  165POPC   C3B 5709  35.360  44.090   7.964
  165POPC   C4B 5710  35.393  44.120   7.664
  166POPC   NC3 5711  37.641  39.218   9.464
  166POPC   PO4 5712  37.703  39.223   9.164
  166POPC   GL1 5713  37.707  39.214   8.864
  166POPC   GL2 5714  37.550  39.185   8.864
  166POPC   C1A 5715  37.647  39.231   8.564
  166POPC   D2A 5716  37.641  39.236   8.264
  166POPC   C3A 5717  37.694  39.189   7.964
  166POPC   C4A 5718  37.717  39.231   7.664
  166POPC   C1B 5719  37.469  39.082   8.564
  166POPC   C2B 5720  37.539  39.024   8.264
  166POPC   C3B 5721  37.550  39.018   7.964
  166POPC   C4B 5722  37.485  39.020   7.664
  167POPC   NC3 5723  43.925  22.129   9.464
  167POPC   PO4 5724  43.933  22.188   9.164
  167POPC   GL1 5725  43.876  22.158   8.864
  167POPC   GL2 5726  44.029  22.086   8.864
  167POPC   C1A 5727  43.869  22.205   8.564
  167POPC   D2A 5728  43.861  22.164   8.264
  167POPC   C3A 5729  43.850  22.140   7.964
  167POPC   C4A 5730  43.902  22.118   7.664
  167POPC   C1B 5731  44.116  22.070   8.564
  167POPC   C2B 5732  44.098  22.065   8.264
  167POPC   C3B 5733  44.112  22.048   7.964
  167POPC   C4B 5734  44.146  22.067   7.664
  168POPC   NC3 5735  33.752  43.131   9.464
  168POPC   PO4 5736  33.843  43.090   9.164
  168POPC   GL1 5737  33.823  43.088   8.864
  168POPC   GL2 5738  33.691  43.055   8.864
  168POPC   C1A 5739  33.789  43.078   8.564
  168POPC   D2A 5740  33.820  43.074   8.264
  168POPC   C3A 5741  33.819  43.083   7.964
  168POPC   C4A 5742  33.831  43.067   7.664
  168POPC   C1B 5743  33.549  43.007   8.564
  168POPC   C2B 5744  33.594  42.951   8.264
  168POPC   C3B 5745  33.574  43.016   7.964
  168POPC   C4B 5746  33.580  43.009   7.664
  169POPC   NC3 5747  31.492  38.489   9.464
  169POPC   PO4 5748  31.480  38.435   9.164
  169POPC   GL1 5749  31.445  38.461   8.864
  169POPC   GL2 5750  31.544  38.444   8.864
  169POPC   C1A 5751  31.442  38.413   8.564
  169POPC   D2A 5752  31.431  38.483   8.264
  169POPC   C3A 5753  31.435  38.486   7.964
  169POPC   C4A 5754  31.497  38.502   7.664
  169POPC   C1B 5755  31.664  38.346   8.564
  169POPC   C2B 5756  31.697  38.318   8.264
  169POPC   C3B 5757  31.716  38.351   7.964
  169POPC   C4B 5758  31.700  38.376   7.664
  170POPC   NC3 5759  26.773  42.310   9.464
  170POPC   PO4 5760  26.828  42.329   9.164
  170POPC   GL1 5761  26.860  42.335   8.864
  170POPC   GL2 5762  26.963  42.306   8.864
  170POPC   C1A 5763  26.805  42.327   8.564
  170POPC   D2A 5764  26.852  42.327   8.264
  170POPC   C3A 5765  26.778  42.344   7.964
  170POPC   C4A 5766  26.781  42.355   7.664
  170POPC   C1B 5767  27.032  42.369   8.564
  170POPC   C2B 5768  27.024  42.306   8.264
  170POPC   C3B 5769  27.073  42.345   7.964
  170POPC   C4B 5770  27.085  42.380   7.664
  171POPC   NC3 5771  44.637  20.612   9.464
  171POPC   PO4 5772  44.679  20.570   9.164
  171POPC   GL1 5773  44.650  20.590   8.864
  171POPC   GL2 5774  44.785  20.716   8.864
  171POPC   C1A 5775  44.644  20.571   8.564
  171POPC   D2A 5776  44.637  20.640   8.264
  171POPC   C3A 5777  44.659  20.614   7.964
  171POPC   C4A 5778  44.705  20.658   7.664
  171POPC   C1B 5779  44.824  20.754   8.564
  171POPC   C2B 5780  44.809  20.736   8.264
  171POPC   C3B 5781  44.806  20.761   7.964
  171POPC   C4B 5782  44.837  20.812   7.664
  172POPC   NC3 5783  15.198  36.170   9.464
  172POPC   PO4 5784  15.161  36.084   9.164
  172POPC   GL1 5785  15.167  36.174   8.864
  172POPC   GL2 5786  15.253  36.209   8.864
  172POPC   C1A 5787  15.131  36.133   8.564
  172POPC   D2A 5788  15.183  36.145   8.264
  172POPC   C3A 5789  15.159  36.129   7.964
  172POPC   C4A 5790  15.193  36.160   7.664
  172POPC   C1B 5791  15.373  36.313   8.564
  172POPC   C2B 5792  15.351  36.270   8.264
  172POPC   C3B 5793  15.388  36.288   7.964
  172POPC   C4B 5794  15.409  36.251   7.664
  173POPC   NC3 5795   6.644  40.789   9.464
  173POPC   PO4 5796   6.665  40.798   9.164
  173POPC   GL1 5797   6.633  40.828   8.864
  173POPC   GL2 5798   6.621  40.873   8.864
  173POPC   C1A 5799   6.607  40.810   8.564
  173POPC   D2A 5800   6.617  40.743   8.264
  173POPC   C3A 5801   6.650  40.791   7.964
  173POPC   C4A 5802   6.661  40.777   7.664
  173POPC   C1B 5803   6.661  41.037   8.564
  173POPC   C2B 5804   6.727  41.015   8.264
  173POPC   C3B 5805   6.651  41.036   7.964
  173POPC   C4B 5806   6.660  40.992   7.664
  174POPC   NC3 5807  42.300  40.014   9.464
  174POPC   PO4 5808  42.373  40.034   9.164
  174POPC   GL1 5809  42.291  39.977   8.864
  174POPC   GL2 5810  42.313  39.919   8.864
  174POPC   C1A 5811  42.359  40.024   8.564
  174POPC   D2A 5812  42.335  39.971   8.264
  174POPC   C3A 5813  42.301  39.961   7.964
  174POPC   C4A 5814  42.363  40.054   7.664
  174POPC   C1B 5815  42.294  39.811   8.564
  174POPC   C2B 5816  42.301  39.773   8.264
  174POPC   C3B 5817  42.218  39.759   7.964
  174POPC   C4B 5818  42.309  39.757   7.664
  175POPC   NC3 5819   8.971   2.796   9.464
  175POPC   PO4 5820   8.928   2.757   9.164
  175POPC   GL1 5821   8.965   2.796   8.864
  175POPC   GL2 5822   8.894   2.641   8.864
  175POPC   C1A 5823   9.018   2.777   8.564
  175POPC   D2A 5824   9.001   2.720   8.264
  175POPC   C3A 5825   8.995   2.805   7.964
  175POPC   C4A 5826   8.938   2.777   7.664
  175POPC   C1B 5827   8.774   2.648   8.564
  175POPC   C2B 5828   8.785   2.652   8.264
  175POPC   C3B 5829   8.760   2.640   7.964
  175POPC   C4B 5830   8.735   2.615   7.664
  176POPC   NC3 5831  41.552  26.858   9.464
  176POPC   PO4 5832  41.535  26.775   9.164
  176POPC   GL1 5833  41.578  26.774   8.864
  176POPC   GL2 5834  41.508  26.748   8.864
  176POPC   C1A 5835  41.605  26.864   8.564
  176POPC   D2A 5836  41.566  26.822   8.264
  176POPC   C3A 5837  41.511  26.826   7.964
  176POPC   C4A 5838  41.559  26.851   7.664
  176POPC   C1B 5839  41.394  26.605   8.564
  176POPC   C2B 5840  41.377  26.645   8.264
  176POPC   C3B 5841  41.345  26.684   7.964
  176POPC   C4B 5842  41.421  26.610   7.664
  177POPC   NC3 5843  29.893  23.760   9.464
  177POPC   PO4 5844  29.887  23.711   9.164
  177POPC   GL1 5845  29.880  23.735   8.864
  177POPC   GL2 5846  30.000  23.647   8.864
  177POPC   C1A 5847  29.901  23.747   8.564
  177POPC   D2A 5848  29.875  23.734   8.264
  177POPC   C3A 5849  29.917  23.724   7.964
  177POPC   C4A 5850  29.939  23.687   7.664
  177POPC   C1B 5851  29.990  23.473   8.564
  177POPC   C2B 5852  30.007  23.525   8.264
  177POPC   C3B 5853  30.009  23.524   7.964
  177POPC   C4B 5854  30.017  23.477   7.664
  178POPC   NC3 5855  29.102  30.697   9.464
  178POPC   PO4 5856  29.173  30.720   9.164
  178POPC   GL1 5857  29.194  30.696   8.864
  178POPC   GL2 5858  29.222  30.827   8.864
  178POPC   C1A 5859  29.174  30.744   8.564
  178POPC   D2A 5860  29.112  30.710   8.264
  178POPC   C3A 5861  29.173  30.697   7.964
  178POPC   C4A 5862  29.112  30.722   7.664
  178POPC   C1B 5863  29.342  30.885   8.564
  178POPC   C2B 5864  29.301  30.909   8.264
  178POPC   C3B 5865  29.332  30.872   7.964
  178POPC   C4B 5866  29.342  30.887   7.664
  179POPC   NC3 5867  13.641  40.017   9.464
  179POPC   PO4 5868  13.584  39.971   9.164
  179POPC   GL1 5869  13.622  40.035   8.864
  179POPC   GL2 5870  13.607  39.883   8.864
  179POPC   C1A 5871  13.651  40.033   8.564
  179POPC   D2A 5872  13.649  39.962   8.264
  179POPC   C3A 5873  13.644  39.958   7.964
  179POPC   C4A 5874  13.669  39.999   7.664
  179POPC   C1B 5875  13.498  39.815   8.564
  179POPC   C2B 5876  13.530  39.799   8.264
  179POPC   C3B 5877  13.508  39.806   7.964
  179POPC   C4B 5878  13.458  39.770   7.664
  180POPC   NC3 5879  16.733  38.411   9.464
  180POPC   PO4 5880  16.718  38.461   9.164
  180POPC   GL1 5881  16.734  38.477   8.864
  180POPC   GL2 5882  16.841  38.499   8.864
  180POPC   C1A 5883  16.767  38.438   8.564
  180POPC   D2A 5884  16.772  38.454   8.264
  180POPC   C3A 5885  16.752  38.410   7.964
  180POPC   C4A 5886  16.734  38.423   7.664
  180POPC   C1B 5887  16.998  38.554   8.564
  180POPC   C2B 5888  16.965  38.541   8.264
  180POPC   C3B 5889  16.966  38.602   7.964
  180POPC   C4B 5890  16.908  38.558   7.664
  181POPC   NC3 5891  15.160  21.383   9.464
  181POPC   PO4 5892  15.163  21.436   9.164
  181POPC   GL1 5893  15.157  21.374   8.864
  181POPC   GL2 5894  15.263  21.442   8.864
  181POPC   C1A 5895  15.141  21.369   8.564
  181POPC   D2A 5896  15.192  21.430   8.264
  181POPC   C3A 5897  15.222  21.341   7.964
  181POPC   C4A 5898  15.155  21.337   7.664
  181POPC   C1B 5899  15.394  21.495   8.564
  181POPC   C2B 5900  15.403  21.491   8.264
  181POPC   C3B 5901  15.401  21.533   7.964
  181POPC   C4B 5902  15.387  21.499   7.664
  182POPC   NC3 5903  11.251  19.827   9.464
  182POPC   PO4 5904  11.277  19.849   9.164
  182POPC   GL1 5905  11.269  19.880   8.864
  182POPC   GL2 5906  11.445  19.810   8.864
  182POPC   C1A 5907  11.347  19.790   8.564
  182POPC   D2A 5908  11.324  19.864   8.264
  182POPC   C3A 5909  11.330  19.792   7.964
  182POPC   C4A 5910  11.266  19.848   7.664
  182POPC   C1B 5911  11.574  19.756   8.564
  182POPC   C2B 5912  11.502  19.745   8.264
  182POPC   C3B 5913  11.515  19.720   7.964
  182POPC   C4B 5914  11.511  19.707   7.664
  183POPC   NC3 5915   4.309   1.967   9.464
  183POPC   PO4 5916   4.364   2.038   9.164
  183POPC   GL1 5917   4.319   1.973   8.864
  183POPC   GL2 5918   4.407   2.114   8.864
  183POPC   C1A 5919   4.308   1.970   8.564
  183POPC   D2A 5920   4.318   1.944   8.264
  183POPC   C3A 5921   4.301   1.987   7.964
  183POPC   C4A 5922   4.313   2.036   7.664
  183POPC   C1B 5923   4.487   2.176   8.564
  183POPC   C2B 5924   4.472   2.128   8.264
  183POPC   C3B 5925   4.492   2.172   7.964
  183POPC   C4B 5926   4.508   2.156   7.664
  184POPC   NC3 5927  26.005  29.180   9.464
  184POPC   PO4 5928  26.071  29.109   9.164
  184POPC   GL1 5929  25.998  29.148   8.864
  184POPC   GL2 5930  25.951  29.046   8.864
  184POPC   C1A 5931  26.082  29.110   8.564
  184POPC   D2A 5932  26.024  29.156   8.264
  184POPC   C3A 5933  26.034  29.163   7.964
  184POPC   C4A 5934  26.006  29.143   7.664
  184POPC   C1B 5935  25.927  28.915   8.564
  184POPC   C2B 5936  25.934  28.975   8.264
  184POPC   C3B 5937  25.912  28.903   7.964
  184POPC   C4B 5938  25.878  28.890   7.664
  185POPC   NC3 5939   9.016  29.159   9.464
  185POPC   PO4 5940   9.013  29.168   9.164
  185POPC   GL1 5941   8.987  29.129   8.864
  185POPC   GL2 5942   8.850  29.133   8.864
  185POPC   C1A 5943   8.955  29.154   8.564
  185POPC   D2A 5944   8.947  29.095   8.264
  185POPC   C3A 5945   8.931  29.158   7.964
  185POPC   C4A 5946   9.019  29.153   7.664
  185POPC   C1B 5947   8.752  29.081   8.564
  185POPC   C2B 5948   8.757  29.118   8.264
  185POPC   C3B 5949   8.713  29.053   7.964
  185POPC   C4B 5950   8.735  29.092   7.664
  186POPC   NC3 5951  39.267  26.794   9.464
  186POPC   PO4 5952  39.244  26.853   9.164
  186POPC   GL1 5953  39.233  26.819   8.864
  186POPC   GL2 5954  39.219  26.656   8.864
  186POPC   C1A 5955  39.262  26.794   8.564
  186POPC   D2A 5956  39.242  26.866   8.264
  186POPC   C3A 5957  39.184  26.829   7.964
  186POPC   C4A 5958  39.197  26.775   7.664
  186POPC   C1B 5959  39.226  26.571   8.564
  186POPC   C2B 5960  39.184  26.529   8.264
  186POPC   C3B 5961  39.204  26.529   7.964
  186POPC   C4B 5962  39.199  26.532   7.664
  187POPC   NC3 5963  20.635  10.510   9.464
  187POPC   PO4 5964  20.597  10.505   9.164
  187POPC   GL1 5965  20.645  10.510   8.864
  187POPC   GL2 5966  20.567  10.616   8.864
  187POPC   C1A 5967  20.653  10.490   8.564
  187POPC   D2A 5968  20.592  10.488   8.264
  187POPC   C3A 5969  20.579  10.516   7.964
  187POPC   C4A 5970  20.606  10.561   7.664
  187POPC   C1B 5971  20.660  10.813   8.564
  187POPC   C2B 5972  20.665  10.808   8.264
  187POPC   C3B 5973  20.663  10.728   7.964
  187POPC   C4B 5974  20.660  10.728   7.664
  188POPC   NC3 5975  13.657  36.948   9.464
  188POPC   PO4 5976  13.657  36.951   9.164
  188POPC   GL1 5977  13.644  36.933   8.864
  188POPC   GL2 5978  13.607  37.064   8.864
  188POPC   C1A 5979  13.648  36.925   8.564
  188POPC   D2A 5980  13.646  36.899   8.264
  188POPC   C3A 5981  13.660  36.871   7.964
  188POPC   C4A 5982  13.671  36.883   7.664
  188POPC   C1B 5983  13.651  37.175   8.564
  188POPC   C2B 5984  13.640  37.147   8.264
  188POPC   C3B 5985  13.624  37.160   7.964
  188POPC   C4B 5986  13.670  37.152   7.664
  189POPC   NC3 5987   2.742   8.979   9.464
  189POPC   PO4 5988   2.777   8.951   9.164
  189POPC   GL1 5989   2.808   8.962   8.864
  189POPC   GL2 5990   2.914   9.021   8.864
  189POPC   C1A 5991   2.782   8.938   8.564
  189POPC   D2A 5992   2.738   9.016   8.264
  189POPC   C3A 5993   2.753   8.934   7.964
  189POPC   C4A 5994   2.744   8.962   7.664
  189POPC   C1B 5995   2.964   9.067   8.564
  189POPC   C2B 5996   3.012   9.095   8.264
  189POPC   C3B 5997   2.965   9.018   7.964
  189POPC   C4B 5998   3.004   9.040   7.664
  190POPC   NC3 5999  35.366  42.356   9.464
  190POPC   PO4 6000  35.313  42.372   9.164
  190POPC   GL1 6001  35.347  42.300   8.864
  190POPC   GL2 6002  35.402  42.223   8.864
  190POPC   C1A 6003  35.393  42.373   8.564
  190POPC   D2A 6004  35.334  42.372   8.264
  190POPC   C3A 6005  35.387  42.347   7.964
  190POPC   C4A 6006  35.377  42.303   7.664
  190POPC   C1B 6007  35.526  42.191   8.564
  190POPC   C2B 6008  35.556  42.162   8.264
  190POPC   C3B 6009  35.522  42.150   7.964
  190POPC   C4B 6010  35.478  42.134   7.664
  191POPC   NC3 6011  32.203  35.353   9.464
  191POPC   PO4 6012  32.262  35.310   9.164
  191POPC   GL1 6013  32.279  35.319   8.864
  191POPC   GL2 6014  32.263  35.247   8.864
  191POPC   C1A 6015  32.260  35.350   8.564
  191POPC   D2A 6016  32.229  35.319   8.264
  191POPC   C3A 6017  32.236  35.306   7.964
  191POPC   C4A 6018  32.220  35.400   7.664
  191POPC   C1B 6019  32.388  35.127   8.564
  191POPC   C2B 6020  32.377  35.181   8.264
  191POPC   C3B 6021  32.365  35.170   7.964
  191POPC   C4B 6022  32.381  35.084   7.664
  192POPC   NC3 6023  17.536  15.151   9.464
  192POPC   PO4 6024  17.459  15.163   9.164
  192POPC   GL1 6025  17.553  15.192   8.864
  192POPC   GL2 6026  17.418  15.096   8.864
  192POPC   C1A 6027  17.506  15.199   8.564
  192POPC   D2A 6028  17.484  15.194   8.264
  192POPC   C3A 6029  17.473  15.214   7.964
  192POPC   C4A 6030  17.477  15.172   7.664
  192POPC   C1B 6031  17.292  15.076   8.564
  192POPC   C2B 6032  17.261  14.998   8.264
  192POPC   C3B 6033  17.300  15.017   7.964
  192POPC   C4B 6034  17.290  15.030   7.664
  193POPC   NC3 6035   2.016  33.058   9.464
  193POPC   PO4 6036   1.973  33.045   9.164
  193POPC   GL1 6037   2.009  32.998   8.864
  193POPC   GL2 6038   1.883  33.018   8.864
  193POPC   C1A 6039   2.001  32.993   8.564
  193POPC   D2A 6040   1.973  33.051   8.264
  193POPC   C3A 6041   1.960  32.977   7.964
  193POPC   C4A 6042   1.947  33.070   7.664
  193POPC   C1B 6043   1.766  33.114   8.564
  193POPC   C2B 6044   1.747  33.035   8.264
  193POPC   C3B 6045   1.749  33.036   7.964
  193POPC   C4B 6046   1.704  33.084   7.664
  194POPC   NC3 6047  19.816   5.915   9.464
  194POPC   PO4 6048  19.840   5.842   9.164
  194POPC   GL1 6049  19.882   5.838   8.864
  194POPC   GL2 6050  19.932   5.820   8.864
  194POPC   C1A 6051  19.840   5.919   8.564
  194POPC   D2A 6052  19.863   5.844   8.264
  194POPC   C3A 6053  19.882   5.847   7.964
  194POPC   C4A 6054  19.802   5.829   7.664
  194POPC   C1B 6055  20.062   5.754   8.564
  194POPC   C2B 6056  20.065   5.740   8.264
  194POPC   C3B 6057  20.111   5.738   7.964
  194POPC   C4B 6058  20.099   5.792   7.664
  195POPC   NC3 6059  29.940  19.860   9.464
  195POPC   PO4 6060  29.933  19.849   9.164
  195POPC   GL1 6061  29.960  19.879   8.864
  195POPC   GL2 6062  29.829  19.862   8.864
  195POPC   C1A 6063  29.879  19.800   8.564
  195POPC   D2A 6064  29.970  19.805   8.264
  195POPC   C3A 6065  29.926  19.798   7.964
  195POPC   C4A 6066  29.893  19.846   7.664
  195POPC   C1B 6067  29.689  19.945   8.564
  195POPC   C2B 6068  29.705  19.904   8.264
  195POPC   C3B 6069  29.716  19.917   7.964
  195POPC   C4B 6070  29.658  19.888   7.664
  196POPC   NC3 6071  34.576   2.727   9.464
  196POPC   PO4 6072  34.594   2.798   9.164
  196POPC   GL1 6073  34.616   2.799   8.864
  196POPC   GL2 6074  34.664   2.670   8.864
  196POPC   C1A 6075  34.559   2.739   8.564
  196POPC   D2A 6076  34.569   2.717   8.264
  196POPC   C3A 6077  34.584   2.795   7.964
  196POPC   C4A 6078  34.600   2.739   7.664
  196POPC   C1B 6079  34.789   2.583   8.564
  196POPC   C2B 6080  34.752   2.637   8.264
  196POPC   C3B 6081  34.749   2.628   7.964
  196POPC   C4B 6082  34.775   2.603   7.664
  197POPC   NC3 6083  23.755  39.211   9.464
  197POPC   PO4 6084  23.680  39.246   9.164
  197POPC   GL1 6085  23.744  39.270   8.864
  197POPC   GL2 6086  23.777  39.151   8.864
  197POPC   C1A 6087  23.695  39.208   8.564
  197POPC   D2A 6088  23.680  39.233   8.264
  197POPC   C3A 6089  23.681  39.227   7.964
  197POPC   C4A 6090  23.728  39.191   7.664
  197POPC   C1B 6091  23.768  39.040   8.564
  197POPC   C2B 6092  23.789  39.036   8.264
  197POPC   C3B 6093  23.789  38.982   7.964
  197POPC   C4B 6094  23.856  39.024   7.664
  198POPC   NC3 6095   8.955   1.242   9.464
  198POPC   PO4 6096   8.969   1.200   9.164
  198POPC   GL1 6097   8.936   1.251   8.864
  198POPC   GL2 6098   8.934   1.058   8.864
  198POPC   C1A 6099   8.960   1.261   8.564
  198POPC   D2A 6100   8.987   1.177   8.264
  198POPC   C3A 6101   9.020   1.202   7.964
  198POPC   C4A 6102   8.956   1.252   7.664
  198POPC   C1B 6103   8.991   0.953   8.564
  198POPC   C2B 6104   8.939   0.972   8.264
  198POPC   C3B 6105   8.982   0.937   7.964
  198POPC   C4B 6106   8.927   0.914   7.664
  199POPC   NC3 6107  14.428  43.867   9.464
  199POPC   PO4 6108  14.364  43.897   9.164
  199POPC   GL1 6109  14.379  43.908   8.864
  199POPC   GL2 6110  14.410  43.808   8.864
  199POPC   C1A 6111  14.449  43.840   8.564
  199POPC   D2A 6112  14.383  43.862   8.264
  199POPC   C3A 6113  14.359  43.890   7.964
  199POPC   C4A 6114  14.364  43.924   7.664
  199POPC   C1B 6115  14.520  43.624   8.564
  199POPC   C2B 6116  14.456  43.652   8.264
  199POPC   C3B 6117  14.431  43.674   7.964
  199POPC   C4B 6118  14.457  43.598   7.664
  200POPC   NC3 6119  10.487  19.795   9.464
  200POPC   PO4 6120  10.518  19.872   9.164
  200POPC   GL1 6121  10.565  19.793   8.864
  200POPC   GL2 6122  10.480  20.002   8.864
  200POPC   C1A 6123  10.573  19.884   8.564
  200POPC   D2A 6124  10.489  19.843   8.264
  200POPC   C3A 6125  10.530  19.843   7.964
  200POPC   C4A 6126  10.499  19.789   7.664
  200POPC   C1B 6127  10.531  20.127   8.564
  200POPC   C2B 6128  10.565  20.064   8.264
  200POPC   C3B 6129  10.556  20.074   7.964
  200POPC   C4B 6130  10.487  20.069   7.664
  201POPC   NC3 6131  29.164  19.855   9.464
  201POPC   PO4 6132  29.176  19.853   9.164
  201POPC   GL1 6133  29.160  19.822   8.864
  201POPC   GL2 6134  29.004  19.929   8.864
  201POPC   C1A 6135  29.103  19.792   8.564
  201POPC   D2A 6136  29.146  19.849   8.264
  201POPC   C3A 6137  29.113  19.854   7.964
  201POPC   C4A 6138  29.179  19.868   7.664
  201POPC   C1B 6139  28.993  19.956   8.564
  201POPC   C2B 6140  28.920  20.003   8.264
  201POPC   C3B 6141  28.943  19.946   7.964
  201POPC   C4B 6142  28.936  19.948   7.664
  202POPC   NC3 6143  12.894  39.260   9.464
  202POPC   PO4 6144  12.837  39.192   9.164
  202POPC   GL1 6145  12.878  39.250   8.864
  202POPC   GL2 6146  12.871  39.108   8.864
  202POPC   C1A 6147  12.875  39.192   8.564
  202POPC   D2A 6148  12.825  39.276   8.264
  202POPC   C3A 6149  12.890  39.191   7.964
  202POPC   C4A 6150  12.864  39.228   7.664
  202POPC   C1B 6151  12.929  39.048   8.564
  202POPC   C2B 6152  12.927  39.013   8.264
  202POPC   C3B 6153  12.996  39.008   7.964
  202POPC   C4B 6154  13.006  39.050   7.664
  203POPC   NC3 6155   9.705  12.884   9.464
  203POPC   PO4 6156   9.746  12.873   9.164
  203POPC   GL1 6157   9.737  12.875   8.864
  203POPC   GL2 6158   9.824  12.739   8.864
  203POPC   C1A 6159   9.719  12.892   8.564
  203POPC   D2A 6160   9.766  12.875   8.264
  203POPC   C3A 6161   9.774  12.854   7.964
  203POPC   C4A 6162   9.751  12.805   7.664
  203POPC   C1B 6163   9.869  12.629   8.564
  203POPC   C2B 6164   9.959  12.646   8.264
  203POPC   C3B 6165   9.890  12.621   7.964
  203POPC   C4B 6166   9.877  12.638   7.664
  204POPC   NC3 6167   9.762   8.969   9.464
  204POPC   PO4 6168   9.752   8.993   9.164
  204POPC   GL1 6169   9.711   8.971   8.864
  204POPC   GL2 6170   9.819   9.102   8.864
  204POPC   C1A 6171   9.726   9.012   8.564
  204POPC   D2A 6172   9.715   8.955   8.264
  204POPC   C3A 6173   9.710   9.009   7.964
  204POPC   C4A 6174   9.794   8.938   7.664
  204POPC   C1B 6175   9.907   9.242   8.564
  204POPC   C2B 6176   9.835   9.245   8.264
  204POPC   C3B 6177   9.853   9.153   7.964
  204POPC   C4B 6178   9.840   9.164   7.664
  205POPC   NC3 6179   7.468   8.172   9.464
  205POPC   PO4 6180   7.431   8.235   9.164
  205POPC   GL1 6181   7.439   8.234   8.864
  205POPC   GL2 6182   7.499   8.323   8.864
  205POPC   C1A 6183   7.426   8.233   8.564
  205POPC   D2A 6184   7.445   8.191   8.264
  205POPC   C3A 6185   7.382   8.156   7.964
  205POPC   C4A 6186   7.402   8.199   7.664
  205POPC   C1B 6187   7.613   8.410   8.564
  205POPC   C2B 6188   7.554   8.405   8.264
  205POPC   C3B 6189   7.606   8.345   7.964
  205POPC   C4B 6190   7.627   8.336   7.664
  206POPC   NC3 6191  11.338  36.862   9.464
  206POPC   PO4 6192  11.314  36.888   9.164
  206POPC   GL1 6193  11.327  36.869   8.864
  206POPC   GL2 6194  11.193  36.929   8.864
  206POPC   C1A 6195  11.320  36.871   8.564
  206POPC   D2A 6196  11.275  36.910   8.264
  206POPC   C3A 6197  11.306  36.925   7.964
  206POPC   C4A 6198  11.264  36.912   7.664
  206POPC   C1B 6199  11.044  36.969   8.564
  206POPC   C2B 6200  11.077  36.994   8.264
  206POPC   C3B 6201  11.108  36.987   7.964
  206POPC   C4B 6202  11.104  36.960   7.664
  207POPC   NC3 6203  18.315  33.801   9.464
  207POPC   PO4 6204  18.289  33.799   9.164
  207POPC   GL1 6205  18.281  33.775   8.864
  207POPC   GL2 6206  18.286  33.946   8.864
  207POPC   C1A 6207  18.295  33.806   8.564
  207POPC   D2A 6208  18.290  33.807   8.264
  207POPC   C3A 6209  18.318  33.816   7.964
  207POPC   C4A 6210  18.280  33.765   7.664
  207POPC   C1B 6211  18.371  34.039   8.564
  207POPC   C2B 6212  18.424  34.016   8.264
  207POPC   C3B 6213  18.421  34.063   7.964
  207POPC   C4B 6214  18.374  34.026   7.664
  208POPC   NC3 6215  26.055   6.652   9.464
  208POPC   PO4 6216  26.030   6.618   9.164
  208POPC   GL1 6217  26.042   6.692   8.864
  208POPC   GL2 6218  26.121   6.604   8.864
  208POPC   C1A 6219  26.074   6.613   8.564
  208POPC   D2A 6220  26.004   6.668   8.264
  208POPC   C3A 6221  26.007   6.625   7.964
  208POPC   C4A 6222  25.993   6.647   7.664
  208POPC   C1B 6223  26.231   6.469   8.564
  208POPC   C2B 6224  26.268   6.501   8.264
  208POPC   C3B 6225  26.282   6.482   7.964
  208POPC   C4B 6226  26.288   6.498   7.664
  209POPC   NC3 6227  19.050  39.264   9.464
  209POPC   PO4 6228  19.044  39.225   9.164
  209POPC   GL1 6229  19.096  39.244   8.864
  209POPC   GL2 6230  18.957  39.104   8.864
  209POPC   C1A 6231  19.022  39.183   8.564
  209POPC   D2A 6232  19.063  39.209   8.264
  209POPC   C3A 6233  19.026  39.229   7.964
  209POPC   C4A 6234  19.014  39.229   7.664
  209POPC   C1B 6235  18.934  38.998   8.564
  209POPC   C2B 6236  18.943  39.025   8.264
  209POPC   C3B 6237  18.937  39.006   7.964
  209POPC   C4B 6238  18.900  39.010   7.664
  210POPC   NC3 6239  35.318  12.819   9.464
  210POPC   PO4 6240  35.303  12.808   9.164
  210POPC   GL1 6241  35.354  12.841   8.864
  210POPC   GL2 6242  35.343  12.692   8.864
  210POPC   C1A 6243  35.317  12.898   8.564
  210POPC   D2A 6244  35.376  12.896   8.264
  210POPC   C3A 6245  35.392  12.876   7.964
  210POPC   C4A 6246  35.367  12.891   7.664
  210POPC   C1B 6247  35.263  12.654   8.564
  210POPC   C2B 6248  35.266  12.603   8.264
  210POPC   C3B 6249  35.260  12.648   7.964
  210POPC   C4B 6250  35.302  12.583   7.664
  211POPC   NC3 6251   3.583  10.536   9.464
  211POPC   PO4 6252   3.583  10.561   9.164
  211POPC   GL1 6253   3.527  10.490   8.864
  211POPC   GL2 6254   3.470  10.488   8.864
  211POPC   C1A 6255   3.549  10.542   8.564
  211POPC   D2A 6256   3.525  10.496   8.264
  211POPC   C3A 6257   3.532  10.481   7.964
  211POPC   C4A 6258   3.574  10.497   7.664
  211POPC   C1B 6259   3.275  10.397   8.564
  211POPC   C2B 6260   3.361  10.452   8.264
  211POPC   C3B 6261   3.293  10.400   7.964
  211POPC   C4B 6262   3.280  10.441   7.664
  212POPC   NC3 6263  10.513  17.468   9.464
  212POPC   PO4 6264  10.510  17.479   9.164
  212POPC   GL1 6265  10.555  17.491   8.864
  212POPC   GL2 6266  10.444  17.549   8.864
  212POPC   C1A 6267  10.569  17.556   8.564
  212POPC   D2A 6268  10.541  17.528   8.264
  212POPC   C3A 6269  10.530  17.463   7.964
  212POPC   C4A 6270  10.520  17.503   7.664
  212POPC   C1B 6271  10.318  17.651   8.564
  212POPC   C2B 6272  10.355  17.634   8.264
  212POPC   C3B 6273  10.307  17.634   7.964
  212POPC   C4B 6274  10.292  17.699   7.664
  213POPC   NC3 6275  15.158  14.391   9.464
  213POPC   PO4 6276  15.152  14.404   9.164
  213POPC   GL1 6277  15.189  14.372   8.864
  213POPC   GL2 6278  15.077  14.358   8.864
  213POPC   C1A 6279  15.212  14.356   8.564
  213POPC   D2A 6280  15.199  14.413   8.264
  213POPC   C3A 6281  15.140  14.367   7.964
  213POPC   C4A 6282  15.145  14.407   7.664
  213POPC   C1B 6283  14.972  14.250   8.564
  213POPC   C2B 6284  14.943  14.271   8.264
  213POPC   C3B 6285  14.977  14.256   7.964
  213POPC   C4B 6286  14.998  14.282   7.664
  214POPC   NC3 6287   8.227  21.362   9.464
  214POPC   PO4 6288   8.186  21.371   9.164
  214POPC   GL1 6289   8.159  21.428   8.864
  214POPC   GL2 6290   8.196  21.531   8.864
  214POPC   C1A 6291   8.239  21.406   8.564
  214POPC   D2A 6292   8.245  21.360   8.264
  214POPC   C3A 6293   8.189  21.423   7.964
  214POPC   C4A 6294   8.155  21.376   7.664
  214POPC   C1B 6295   8.257  21.617   8.564
  214POPC   C2B 6296   8.271  21.637   8.264
  214POPC   C3B 6297   8.234  21.596   7.964
  214POPC   C4B 6298   8.249  21.618   7.664
  215POPC   NC3 6299  37.683  11.291   9.464
  215POPC   PO4 6300  37.642  11.319   9.164
  215POPC   GL1 6301  37.645  11.328   8.864
  215POPC   GL2 6302  37.779  11.329   8.864
  215POPC   C1A 6303  37.646  11.345   8.564
  215POPC   D2A 6304  37.709  11.349   8.264
  215POPC   C3A 6305  37.715  11.316   7.964
  215POPC   C4A 6306  37.668  11.292   7.664
  215POPC   C1B 6307  37.951  11.350   8.564
  215POPC   C2B 6308  37.951  11.392   8.264
  215POPC   C3B 6309  37.974  11.311   7.964
  215POPC   C4B 6310  37.910  11.348   7.664
  216POPC   NC3 6311  43.905  19.792   9.464
  216POPC   PO4 6312  43.849  19.790   9.164
  216POPC   GL1 6313  43.838  19.876   8.864
  216POPC   GL2 6314  43.929  19.924   8.864
  216POPC   C1A 6315  43.886  19.814   8.564
  216POPC   D2A 6316  43.878  19.816   8.264
  216POPC   C3A 6317  43.913  19.827   7.964
  216POPC   C4A 6318  43.934  19.792   7.664
  216POPC   C1B 6319  43.890  20.054   8.564
  216POPC   C2B 6320  43.894  20.120   8.264
  216POPC   C3B 6321  43.949  20.070   7.964
  216POPC   C4B 6322  43.885  20.111   7.664
  217POPC   NC3 6323  27.554  10.496   9.464
  217POPC   PO4 6324  27.640  10.541   9.164
  217POPC   GL1 6325  27.633  10.493   8.864
  217POPC   GL2 6326  27.692  10.561   8.864
  217POPC   C1A 6327  27.602  10.478   8.564
  217POPC   D2A 6328  27.639  10.478   8.264
  217POPC   C3A 6329  27.636  10.547   7.964
  217POPC   C4A 6330  27.554  10.489   7.664
  217POPC   C1B 6331  27.788  10.677   8.564
  217POPC   C2B 6332  27.770  10.671   8.264
  217POPC   C3B 6333  27.799  10.659   7.964
  217POPC   C4B 6334  27.802  10.696   7.664
  218POPC   NC3 6335  10.536   5.101   9.464
  218POPC   PO4 6336  10.572   5.072   9.164
  218POPC   GL1 6337  10.565   5.091   8.864
  218POPC   GL2 6338  10.484   5.175   8.864
  218POPC   C1A 6339  10.524   5.134   8.564
  218POPC   D2A 6340  10.485   5.116   8.264
  218POPC   C3A 6341  10.498   5.111   7.964
  218POPC   C4A 6342  10.562   5.118   7.664
  218POPC   C1B 6343  10.457   5.323   8.564
  218POPC   C2B 6344  10.391   5.322   8.264
  218POPC   C3B 6345  10.427   5.346   7.964
  218POPC   C4B 6346  10.460   5.341   7.664
  219POPC   NC3 6347  32.250  44.621   9.464
  219POPC   PO4 6348  32.230  44.700   9.164
  219POPC   GL1 6349  32.259  44.620   8.864
  219POPC   GL2 6350  32.167  44.818   8.864
  219POPC   C1A 6351  32.269  44.669   8.564
  219POPC   D2A 6352  32.213  44.684   8.264
  219POPC   C3A 6353  32.220  44.651   7.964
  219POPC   C4A 6354  32.277  44.689   7.664
  219POPC   C1B 6355  32.122  44.914   8.564
  219POPC   C2B 6356  32.204  44.892   8.264
  219POPC   C3B 6357  32.147  44.913   7.964
  219POPC   C4B 6358  32.125  44.888   7.664
  220POPC   NC3 6359  22.912  28.321   9.464
  220POPC   PO4 6360  22.952  28.353   9.164
  220POPC   GL1 6361  22.929  28.374   8.864
  220POPC   GL2 6362  22.869  28.450   8.864
  220POPC   C1A 6363  22.959  28.360   8.564
  220POPC   D2A 6364  22.908  28.338   8.264
  220POPC   C3A 6365  22.980  28.409   7.964
  220POPC   C4A 6366  22.966  28.414   7.664
  220POPC   C1B 6367  22.919  28.634   8.564
  220POPC   C2B 6368  22.835  28.654   8.264
  220POPC   C3B 6369  22.863  28.576   7.964
  220POPC   C4B 6370  22.905  28.619   7.664
  221POPC   NC3 6371   6.673  33.819   9.464
  221POPC   PO4 6372   6.643  33.768   9.164
  221POPC   GL1 6373   6.690  33.819   8.864
  221POPC   GL2 6374   6.790  33.730   8.864
  221POPC   C1A 6375   6.604  33.830   8.564
  221POPC   D2A 6376   6.665  33.838   8.264
  221POPC   C3A 6377   6.620  33.791   7.964
  221POPC   C4A 6378   6.656  33.764   7.664
  221POPC   C1B 6379   6.843  33.640   8.564
  221POPC   C2B 6380   6.905  33.640   8.264
  221POPC   C3B 6381   6.863  33.723   7.964
  221POPC   C4B 6382   6.887  33.662   7.664
  222POPC   NC3 6383  25.300  12.114   9.464
  222POPC   PO4 6384  25.287  12.076   9.164
  222POPC   GL1 6385  25.302  12.081   8.864
  222POPC   GL2 6386  25.251  12.214   8.864
  222POPC   C1A 6387  25.270  12.109   8.564
  222POPC   D2A 6388  25.261  12.091   8.264
  222POPC   C3A 6389  25.251  12.104   7.964
  222POPC   C4A 6390  25.296  12.058   7.664
  222POPC   C1B 6391  25.335  12.372   8.564
  222POPC   C2B 6392  25.321  12.321   8.264
  222POPC   C3B 6393  25.262  12.373   7.964
  222POPC   C4B 6394  25.339  12.311   7.664
  223POPC   NC3 6395  43.126   6.670   9.464
  223POPC   PO4 6396  43.065   6.604   9.164
  223POPC   GL1 6397  43.154   6.602   8.864
  223POPC   GL2 6398  43.050   6.709   8.864
  223POPC   C1A 6399  43.094   6.680   8.564
  223POPC   D2A 6400  43.124   6.651   8.264
  223POPC   C3A 6401  43.152   6.603   7.964
  223POPC   C4A 6402  43.087   6.668   7.664
  223POPC   C1B 6403  42.974   6.843   8.564
  223POPC   C2B 6404  42.988   6.847   8.264
  223POPC   C3B 6405  42.988   6.839   7.964
  223POPC   C4B 6406  43.015   6.887   7.664
  224POPC   NC3 6407  30.709   3.507   9.464
  224POPC   PO4 6408  30.738   3.556   9.164
  224POPC   GL1 6409  30.674   3.530   8.864
  224POPC   GL2 6410  30.784   3.397   8.864
  224POPC   C1A 6411  30.707   3.512   8.564
  224POPC   D2A 6412  30.741   3.540   8.264
  224POPC   C3A 6413  30.734   3.520   7.964
  224POPC   C4A 6414  30.677   3.517   7.664
  224POPC   C1B 6415  30.774   3.287   8.564
  224POPC   C2B 6416  30.848   3.294   8.264
  224POPC   C3B 6417  30.808   3.341   7.964
  224POPC   C4B 6418  30.825   3.296   7.664
  225POPC   NC3 6419  43.135  37.704   9.464
  225POPC   PO4 6420  43.090  37.676   9.164
  225POPC   GL1 6421  43.066  37.700   8.864
  225POPC   GL2 6422  43.245  37.596   8.864
  225POPC   C1A 6423  43.142  37.698   8.564
  225POPC   D2A 6424  43.091  37.703   8.264
  225POPC   C3A 6425  43.098  37.686   7.964
  225POPC   C4A 6426  43.122  37.638   7.664
  225POPC   C1B 6427  43.334  37.461   8.564
  225POPC   C2B 6428  43.276  37.475   8.264
  225POPC   C3B 6429  43.247  37.534   7.964
  225POPC   C4B 6430  43.241  37.539   7.664
  226POPC   NC3 6431   7.442  11.336   9.464
  226POPC   PO4 6432   7.460  11.340   9.164
  226POPC   GL1 6433   7.458  11.322   8.864
  226POPC   GL2 6434   7.510  11.322   8.864
  226POPC   C1A 6435   7.461  11.256   8.564
  226POPC   D2A 6436   7.420  11.341   8.264
  226POPC   C3A 6437   7.432  11.278   7.964
  226POPC   C4A 6438   7.430  11.294   7.664
  226POPC   C1B 6439   7.695  11.425   8.564
  226POPC   C2B 6440   7.648  11.409   8.264
  226POPC   C3B 6441   7.626  11.436   7.964
  226POPC   C4B 6442   7.676  11.399   7.664
  227POPC   NC3 6443   1.984   1.183   9.464
  227POPC   PO4 6444   1.977   1.208   9.164
  227POPC   GL1 6445   1.994   1.243   8.864
  227POPC   GL2 6446   2.039   1.114   8.864
  227POPC   C1A 6447   2.001   1.214   8.564
  227POPC   D2A 6448   1.977   1.185   8.264
  227POPC   C3A 6449   1.964   1.233   7.964
  227POPC   C4A 6450   1.975   1.209   7.664
  227POPC   C1B 6451   2.142   1.008   8.564
  227POPC   C2B 6452   2.076   0.953   8.264
  227POPC   C3B 6453   2.129   0.965   7.964
  227POPC   C4B 6454   2.070   0.963   7.664
  228POPC   NC3 6455  20.641  31.518   9.464
  228POPC   PO4 6456  20.586  31.474   9.164
  228POPC   GL1 6457  20.594  31.453   8.864
  228POPC   GL2 6458  20.618  31.329   8.864
  228POPC   C1A 6459  20.570  31.428   8.564
  228POPC   D2A 6460  20.591  31.504   8.264
  228POPC   C3A 6461  20.609  31.450   7.964
  228POPC   C4A 6462  20.642  31.510   7.664
  228POPC   C1B 6463  20.628  31.219   8.564
  228POPC   C2B 6464  20.590  31.247   8.264
  228POPC   C3B 6465  20.616  31.181   7.964
  228POPC   C4B 6466  20.637  31.215   7.664
  229POPC   NC3 6467   7.463  21.367   9.464
  229POPC   PO4 6468   7.394  21.427   9.164
  229POPC   GL1 6469   7.394  21.339   8.864
  229POPC   GL2 6470   7.393  21.547   8.864
  229POPC   C1A 6471   7.460  21.363   8.564
  229POPC   D2A 6472   7.390  21.415   8.264
  229POPC   C3A 6473   7.403  21.374   7.964
  229POPC   C4A 6474   7.424  21.371   7.664
  229POPC   C1B 6475   7.380  21.592   8.564
  229POPC   C2B 6476   7.389  21.641   8.264
  229POPC   C3B 6477   7.428  21.668   7.964
  229POPC   C4B 6478   7.361  21.683   7.664
  230POPC   NC3 6479  14.421  21.430   9.464
  230POPC   PO4 6480  14.402  21.354   9.164
  230POPC   GL1 6481  14.415  21.397   8.864
  230POPC   GL2 6482  14.309  21.377   8.864
  230POPC   C1A 6483  14.448  21.352   8.564
  230POPC   D2A 6484  14.445  21.427   8.264
  230POPC   C3A 6485  14.414  21.383   7.964
  230POPC   C4A 6486  14.368  21.351   7.664
  230POPC   C1B 6487  14.217  21.323   8.564
  230POPC   C2B 6488  14.219  21.341   8.264
  230POPC   C3B 6489  14.154  21.335   7.964
  230POPC   C4B 6490  14.161  21.318   7.664
  231POPC   NC3 6491   6.653  36.940   9.464
  231POPC   PO4 6492   6.673  36.952   9.164
  231POPC   GL1 6493   6.693  36.922   8.864
  231POPC   GL2 6494   6.755  36.871   8.864
  231POPC   C1A 6495   6.621  36.908   8.564
  231POPC   D2A 6496   6.604  36.881   8.264
  231POPC   C3A 6497   6.608  36.920   7.964
  231POPC   C4A 6498   6.655  36.933   7.664
  231POPC   C1B 6499   6.848  36.749   8.564
  231POPC   C2B 6500   6.898  36.747   8.264
  231POPC   C3B 6501   6.896  36.809   7.964
  231POPC   C4B 6502   6.842  36.778   7.664
  232POPC   NC3 6503   8.234  29.885   9.464
  232POPC   PO4 6504   8.148  29.930   9.164
  232POPC   GL1 6505   8.154  29.878   8.864
  232POPC   GL2 6506   8.342  30.007   8.864
  232POPC   C1A 6507   8.165  29.886   8.564
  232POPC   D2A 6508   8.168  29.948   8.264
  232POPC   C3A 6509   8.182  29.968   7.964
  232POPC   C4A 6510   8.241  29.946   7.664
  232POPC   C1B 6511   8.481  30.037   8.564
  232POPC   C2B 6512   8.402  29.968   8.264
  232POPC   C3B 6513   8.421  29.983   7.964
  232POPC   C4B 6514   8.480  29.964   7.664
  233POPC   NC3 6515  20.592  41.556   9.464
  233POPC   PO4 6516  20.622  41.591   9.164
  233POPC   GL1 6517  20.620  41.569   8.864
  233POPC   GL2 6518  20.715  41.696   8.864
  233POPC   C1A 6519  20.628  41.560   8.564
  233POPC   D2A 6520  20.645  41.512   8.264
  233POPC   C3A 6521  20.594  41.571   7.964
  233POPC   C4A 6522  20.587  41.562   7.664
  233POPC   C1B 6523  20.728  41.747   8.564
  233POPC   C2B 6524  20.686  41.790   8.264
  233POPC   C3B 6525  20.689  41.811   7.964
  233POPC   C4B 6526  20.761  41.758   7.664
  234POPC   NC3 6527  10.537   1.201   9.464
  234POPC   PO4 6528  10.524   1.201   9.164
  234POPC   GL1 6529  10.486   1.234   8.864
  234POPC   GL2 6530  10.476   1.341   8.864
  234POPC   C1A 6531  10.572   1.211   8.564
  234POPC   D2A 6532  10.509   1.245   8.264
  234POPC   C3A 6533  10.552   1.192   7.964
  234POPC   C4A 6534  10.507   1.209   7.664
  234POPC   C1B 6535  10.395   1.445   8.564
  234POPC   C2B 6536  10.439   1.482   8.264
  234POPC   C3B 6537  10.470   1.488   7.964
  234POPC   C4B 6538  10.461   1.491   7.664
  235POPC   NC3 6539  41.573  26.047   9.464
  235POPC   PO4 6540  41.529  26.068   9.164
  235POPC   GL1 6541  41.602  26.012   8.864
  235POPC   GL2 6542  41.392  26.052   8.864
  235POPC   C1A 6543  41.511  26.083   8.564
  235POPC   D2A 6544  41.541  26.042   8.264
  235POPC   C3A 6545  41.580  26.063   7.964
  235POPC   C4A 6546  41.576  26.051   7.664
  235POPC   C1B 6547  41.347  26.042   8.564
  235POPC   C2B 6548  41.314  25.963   8.264
  235POPC   C3B 6549  41.296  26.024   7.964
  235POPC   C4B 6550  41.267  26.039   7.664
  236POPC   NC3 6551  26.853  28.356   9.464
  236POPC   PO4 6552  26.820  28.353   9.164
  236POPC   GL1 6553  26.803  28.347   8.864
  236POPC   GL2 6554  26.688  28.447   8.864
  236POPC   C1A 6555  26.785  28.344   8.564
  236POPC   D2A 6556  26.865  28.385   8.264
  236POPC   C3A 6557  26.854  28.321   7.964
  236POPC   C4A 6558  26.815  28.346   7.664
  236POPC   C1B 6559  26.637  28.543   8.564
  236POPC   C2B 6560  26.624  28.504   8.264
  236POPC   C3B 6561  26.602  28.533   7.964
  236POPC   C4B 6562  26.611  28.585   7.664
  237POPC   NC3 6563  42.297  33.053   9.464
  237POPC   PO4 6564  42.346  32.978   9.164
  237POPC   GL1 6565  42.291  33.058   8.864
  237POPC   GL2 6566  42.239  33.055   8.864
  237POPC   C1A 6567  42.299  33.057   8.564
  237POPC   D2A 6568  42.368  33.073   8.264
  237POPC   C3A 6569  42.336  33.019   7.964
  237POPC   C4A 6570  42.338  33.064   7.664
  237POPC   C1B 6571  42.081  32.973   8.564
  237POPC   C2B 6572  42.133  32.976   8.264
  237POPC   C3B 6573  42.078  33.041   7.964
  237POPC   C4B 6574  42.043  33.038   7.664
  238POPC   NC3 6575  31.490  36.134   9.464
  238POPC   PO4 6576  31.452  36.098   9.164
  238POPC   GL1 6577  31.455  36.108   8.864
  238POPC   GL2 6578  31.622  36.152   8.864
  238POPC   C1A 6579  31.476  36.128   8.564
  238POPC   D2A 6580  31.430  36.151   8.264
  238POPC   C3A 6581  31.482  36.102   7.964
  238POPC   C4A 6582  31.428  36.107   7.664
  238POPC   C1B 6583  31.697  36.136   8.564
  238POPC   C2B 6584  31.740  36.115   8.264
  238POPC   C3B 6585  31.706  36.103   7.964
  238POPC   C4B 6586  31.738  36.058   7.664
  239POPC   NC3 6587   1.184  15.190   9.464
  239POPC   PO4 6588   1.171  15.219   9.164
  239POPC   GL1 6589   1.256  15.143   8.864
  239POPC   GL2 6590   1.367  15.269   8.864
  239POPC   C1A 6591   1.252  15.208   8.564
  239POPC   D2A 6592   1.177  15.132   8.264
  239POPC   C3A 6593   1.231  15.145   7.964
  239POPC   C4A 6594   1.218  15.177   7.664
  239POPC   C1B 6595   1.466  15.259   8.564
  239POPC   C2B 6596   1.395  15.335   8.264
  239POPC   C3B 6597   1.462  15.294   7.964
  239POPC   C4B 6598   1.434  15.285   7.664
  240POPC   NC3 6599  34.542  36.911   9.464
  240POPC   PO4 6600  34.617  36.904   9.164
  240POPC   GL1 6601  34.546  36.923   8.864
  240POPC   GL2 6602  34.701  37.006   8.864
  240POPC   C1A 6603  34.608  36.876   8.564
  240POPC   D2A 6604  34.614  36.928   8.264
  240POPC   C3A 6605  34.541  36.887   7.964
  240POPC   C4A 6606  34.569  36.857   7.664
  240POPC   C1B 6607  34.798  37.020   8.564
  240POPC   C2B 6608  34.817  37.083   8.264
  240POPC   C3B 6609  34.781  37.069   7.964
  240POPC   C4B 6610  34.778  37.038   7.664
  241POPC   NC3 6611  39.261  21.363   9.464
  241POPC   PO4 6612  39.268  21.426   9.164
  241POPC   GL1 6613  39.188  21.350   8.864
  241POPC   GL2 6614  39.148  21.479   8.864
  241POPC   C1A 6615  39.187  21.421   8.564
  241POPC   D2A 6616  39.260  21.368   8.264
  241POPC   C3A 6617  39.221  21.427   7.964
  241POPC   C4A 6618  39.213  21.409   7.664
  241POPC   C1B 6619  39.001  21.475   8.564
  241POPC   C2B 6620  39.004  21.465   8.264
  241POPC   C3B 6621  39.047  21.517   7.964
  241POPC   C4B 6622  39.027  21.520   7.664
  242POPC   NC3 6623  12.872  28.345   9.464
  242POPC   PO4 6624  12.866  28.332   9.164
  242POPC   GL1 6625  12.878  28.334   8.864
  242POPC   GL2 6626  12.694  28.440   8.864
  242POPC   C1A 6627  12.832  28.381   8.564
  242POPC   D2A 6628  12.901  28.390   8.264
  242POPC   C3A 6629  12.818  28.401   7.964
  242POPC   C4A 6630  12.821  28.327   7.664
  242POPC   C1B 6631  12.585  28.446   8.564
  242POPC   C2B 6632  12.568  28.408   8.264
  242POPC   C3B 6633  12.589  28.477   7.964
  242POPC   C4B 6634  12.563  28.409   7.664
  243POPC   NC3 6635  27.548  22.920   9.464
  243POPC   PO4 6636  27.573  22.959   9.164
  243POPC   GL1 6637  27.623  22.938   8.864
  243POPC   GL2 6638  27.441  23.031   8.864
  243POPC   C1A 6639  27.632  22.901   8.564
  243POPC   D2A 6640  27.569  22.973   8.264
  243POPC   C3A 6641  27.567  22.925   7.964
  243POPC   C4A 6642  27.554  22.942   7.664
  243POPC   C1B 6643  27.336  23.054   8.564
  243POPC   C2B 6644  27.408  23.048   8.264
  243POPC   C3B 6645  27.378  23.049   7.964
  243POPC   C4B 6646  27.363  23.112   7.664
  244POPC   NC3 6647   8.157   8.988   9.464
  244POPC   PO4 6648   8.184   8.998   9.164
  244POPC   GL1 6649   8.231   8.959   8.864
  244POPC   GL2 6650   8.170   9.092   8.864
  244POPC   C1A 6651   8.157   8.994   8.564
  244POPC   D2A 6652   8.235   8.981   8.264
  244POPC   C3A 6653   8.181   8.991   7.964
  244POPC   C4A 6654   8.206   8.974   7.664
  244POPC   C1B 6655   8.182   9.256   8.564
  244POPC   C2B 6656   8.141   9.182   8.264
  244POPC   C3B 6657   8.212   9.248   7.964
  244POPC   C4B 6658   8.121   9.256   7.664
  245POPC   NC3 6659   9.004   8.243   9.464
  245POPC   PO4 6660   8.950   8.185   9.164
  245POPC   GL1 6661   8.944   8.189   8.864
  245POPC   GL2 6662   8.865   8.179   8.864
  245POPC   C1A 6663   8.974   8.218   8.564
  245POPC   D2A 6664   8.958   8.217   8.264
  245POPC   C3A 6665   8.995   8.160   7.964
  245POPC   C4A 6666   9.016   8.155   7.664
  245POPC   C1B 6667   8.700   8.161   8.564
  245POPC   C2B 6668   8.701   8.126   8.264
  245POPC   C3B 6669   8.704   8.121   7.964
  245POPC   C4B 6670   8.711   8.160   7.664
  246POPC   NC3 6671   7.387  23.698   9.464
  246POPC   PO4 6672   7.452  23.746   9.164
  246POPC   GL1 6673   7.461  23.716   8.864
  246POPC   GL2 6674   7.352  23.803   8.864
  246POPC   C1A 6675   7.421  23.751   8.564
  246POPC   D2A 6676   7.413  23.724   8.264
  246POPC   C3A 6677   7.381  23.735   7.964
  246POPC   C4A 6678   7.425  23.667   7.664
  246POPC   C1B 6679   7.217  23.901   8.564
  246POPC   C2B 6680   7.229  23.898   8.264
  246POPC   C3B 6681   7.237  23.877   7.964
  246POPC   C4B 6682   7.235  23.881   7.664
  247POPC   NC3 6683  25.239  39.244   9.464
  247POPC   PO4 6684  25.226  39.222   9.164
  247POPC   GL1 6685  25.255  39.218   8.864
  247POPC   GL2 6686  25.343  39.210   8.864
  247POPC   C1A 6687  25.287  39.200   8.564
  247POPC   D2A 6688  25.240  39.200   8.264
  247POPC   C3A 6689  25.277  39.200   7.964
  247POPC   C4A 6690  25.285  39.190   7.664
  247POPC   C1B 6691  25.520  39.072   8.564
  247POPC   C2B 6692  25.444  39.150   8.264
  247POPC   C3B 6693  25.485  39.123   7.964
  247POPC   C4B 6694  25.439  39.143   7.664
  248POPC   NC3 6695  11.251  21.398   9.464
  248POPC   PO4 6696  11.316  21.424   9.164
  248POPC   GL1 6697  11.317  21.380   8.864
  248POPC   GL2 6698  11.138  21.412   8.864
  248POPC   C1A 6699  11.321  21.407   8.564
  248POPC   D2A 6700  11.259  21.384   8.264
  248POPC   C3A 6701  11.327  21.350   7.964
  248POPC   C4A 6702  11.347  21.389   7.664
  248POPC   C1B 6703  11.095  21.468   8.564
  248POPC   C2B 6704  11.023  21.490   8.264
  248POPC   C3B 6705  11.104  21.476   7.964
  248POPC   C4B 6706  11.016  21.492   7.664
  249POPC   NC3 6707  31.513  43.866   9.464
  249POPC   PO4 6708  31.483  43.936   9.164
  249POPC   GL1 6709  31.450  43.924   8.864
  249POPC   GL2 6710  31.314  43.829   8.864
  249POPC   C1A 6711  31.445  43.925   8.564
  249POPC   D2A 6712  31.462  43.893   8.264
  249POPC   C3A 6713  31.521  43.879   7.964
  249POPC   C4A 6714  31.451  43.856   7.664
  249POPC   C1B 6715  31.201  43.918   8.564
  249POPC   C2B 6716  31.230  43.915   8.264
  249POPC   C3B 6717  31.240  43.836   7.964
  249POPC   C4B 6718  31.202  43.859   7.664
  250POPC   NC3 6719  29.146  34.588   9.464
  250POPC   PO4 6720  29.160  34.526   9.164
  250POPC   GL1 6721  29.114  34.559   8.864
  250POPC   GL2 6722  29.187  34.463   8.864
  250POPC   C1A 6723  29.149  34.553   8.564
  250POPC   D2A 6724  29.106  34.584   8.264
  250POPC   C3A 6725  29.126  34.574   7.964
  250POPC   C4A 6726  29.180  34.579   7.664
  250POPC   C1B 6727  29.144  34.285   8.564
  250POPC   C2B 6728  29.214  34.337   8.264
  250POPC   C3B 6729  29.141  34.338   7.964
  250POPC   C4B 6730  29.193  34.308   7.664
  251POPC   NC3 6731  27.563  24.460   9.464
  251POPC   PO4 6732  27.619  24.526   9.164
  251POPC   GL1 6733  27.599  24.494   8.864
  251POPC   GL2 6734  27.512  24.426   8.864
  251POPC   C1A 6735  27.596  24.515   8.564
  251POPC   D2A 6736  27.628  24.466   8.264
  251POPC   C3A 6737  27.566  24.527   7.964
  251POPC   C4A 6738  27.596  24.520   7.664
  251POPC   C1B 6739  27.328  24.453   8.564
  251POPC   C2B 6740  27.379  24.404   8.264
  251POPC   C3B 6741  27.331  24.440   7.964
  251POPC   C4B 6742  27.328  24.401   7.664
  252POPC   NC3 6743  44.633  25.257   9.464
  252POPC   PO4 6744  44.642  25.269   9.164
  252POPC   GL1 6745  44.675  25.239   8.864
  252POPC   GL2 6746  44.662  25.378   8.864
  252POPC   C1A 6747  44.648  25.269   8.564
  252POPC   D2A 6748  44.709  25.218   8.264
  252POPC   C3A 6749  44.700  25.269   7.964
  252POPC   C4A 6750  44.633  25.271   7.664
  252POPC   C1B 6751  44.620  25.556   8.564
  252POPC   C2B 6752  44.646  25.561   8.264
  252POPC   C3B 6753  44.704  25.557   7.964
  252POPC   C4B 6754  44.678  25.493   7.664
  253POPC   NC3 6755  20.577   5.061   9.464
  253POPC   PO4 6756  20.635   5.101   9.164
  253POPC   GL1 6757  20.615   5.074   8.864
  253POPC   GL2 6758  20.610   5.191   8.864
  253POPC   C1A 6759  20.564   5.111   8.564
  253POPC   D2A 6760  20.649   5.132   8.264
  253POPC   C3A 6761  20.658   5.119   7.964
  253POPC   C4A 6762  20.658   5.095   7.664
  253POPC   C1B 6763  20.603   5.368   8.564
  253POPC   C2B 6764  20.543   5.353   8.264
  253POPC   C3B 6765  20.597   5.326   7.964
  253POPC   C4B 6766  20.560   5.322   7.664
  254POPC   NC3 6767  20.611  29.946   9.464
  254POPC   PO4 6768  20.609  29.909   9.164
  254POPC   GL1 6769  20.604  29.928   8.864
  254POPC   GL2 6770  20.694  29.883   8.864
  254POPC   C1A 6771  20.572  29.967   8.564
  254POPC   D2A 6772  20.650  29.933   8.264
  254POPC   C3A 6773  20.604  29.955   7.964
  254POPC   C4A 6774  20.656  29.967   7.664
  254POPC   C1B 6775  20.761  29.792   8.564
  254POPC   C2B 6776  20.785  29.696   8.264
  254POPC   C3B 6777  20.825  29.701   7.964
  254POPC   C4B 6778  20.788  29.716   7.664
  255POPC   NC3 6779  14.361   1.979   9.464
  255POPC   PO4 6780  14.432   1.954   9.164
  255POPC   GL1 6781  14.448   1.958   8.864
  255POPC   GL2 6782  14.528   1.943   8.864
  255POPC   C1A 6783  14.389   1.991   8.564
  255POPC   D2A 6784  14.398   1.954   8.264
  255POPC   C3A 6785  14.407   2.015   7.964
  255POPC   C4A 6786  14.421   1.954   7.664
  255POPC   C1B 6787  14.657   1.910   8.564
  255POPC   C2B 6788  14.648   1.941   8.264
  255POPC   C3B 6789  14.679   1.964   7.964
  255POPC   C4B 6790  14.635   1.976   7.664
  256POPC   NC3 6791  26.046  33.001   9.464
  256POPC   PO4 6792  26.026  33.065   9.164
  256POPC   GL1 6793  26.059  33.031   8.864
  256POPC   GL2 6794  26.008  32.894   8.864
  256POPC   C1A 6795  26.006  33.063   8.564
  256POPC   D2A 6796  25.994  33.029   8.264
  256POPC   C3A 6797  26.057  33.044   7.964
  256POPC   C4A 6798  26.039  32.985   7.664
  256POPC   C1B 6799  25.870  32.824   8.564
  256POPC   C2B 6800  25.870  32.859   8.264
  256POPC   C3B 6801  25.841  32.845   7.964
  256POPC   C4B 6802  25.903  32.867   7.664
  257POPC   NC3 6803  26.778  35.350   9.464
  257POPC   PO4 6804  26.864  35.317   9.164
  257POPC   GL1 6805  26.865  35.395   8.864
  257POPC   GL2 6806  26.847  35.520   8.864
  257POPC   C1A 6807  26.865  35.352   8.564
  257POPC   D2A 6808  26.772  35.347   8.264
  257POPC   C3A 6809  26.854  35.392   7.964
  257POPC   C4A 6810  26.843  35.351   7.664
  257POPC   C1B 6811  26.797  35.581   8.564
  257POPC   C2B 6812  26.858  35.608   8.264
  257POPC   C3B 6813  26.834  35.590   7.964
  257POPC   C4B 6814  26.812  35.571   7.664
  258POPC   NC3 6815  18.266  36.080   9.464
  258POPC   PO4 6816  18.302  36.172   9.164
  258POPC   GL1 6817  18.260  36.093   8.864
  258POPC   GL2 6818  18.268  35.972   8.864
  258POPC   C1A 6819  18.267  36.146   8.564
  258POPC   D2A 6820  18.331  36.118   8.264
  258POPC   C3A 6821  18.314  36.157   7.964
  258POPC   C4A 6822  18.302  36.139   7.664
  258POPC   C1B 6823  18.200  35.928   8.564
  258POPC   C2B 6824  18.196  35.883   8.264
  258POPC   C3B 6825  18.183  35.914   7.964
  258POPC   C4B 6826  18.161  35.922   7.664
  259POPC   NC3 6827  18.274   1.977   9.464
  259POPC   PO4 6828  18.327   1.981   9.164
  259POPC   GL1 6829  18.284   2.016   8.864
  259POPC   GL2 6830  18.248   1.909   8.864
  259POPC   C1A 6831  18.247   1.967   8.564
  259POPC   D2A 6832  18.245   2.038   8.264
  259POPC   C3A 6833  18.283   2.034   7.964
  259POPC   C4A 6834  18.239   1.968   7.664
  259POPC   C1B 6835  18.256   1.757   8.564
  259POPC   C2B 6836  18.279   1.705   8.264
  259POPC   C3B 6837  18.290   1.787   7.964
  259POPC   C4B 6838  18.277   1.762   7.664
  260POPC   NC3 6839  30.720  15.957   9.464
  260POPC   PO4 6840  30.655  15.915   9.164
  260POPC   GL1 6841  30.732  15.945   8.864
  260POPC   GL2 6842  30.624  15.818   8.864
  260POPC   C1A 6843  30.736  15.995   8.564
  260POPC   D2A 6844  30.682  15.995   8.264
  260POPC   C3A 6845  30.741  15.944   7.964
  260POPC   C4A 6846  30.702  15.915   7.664
  260POPC   C1B 6847  30.600  15.694   8.564
  260POPC   C2B 6848  30.611  15.674   8.264
  260POPC   C3B 6849  30.583  15.742   7.964
  260POPC   C4B 6850  30.561  15.678   7.664
  261POPC   NC3 6851  24.531   3.584   9.464
  261POPC   PO4 6852  24.482   3.570   9.164
  261POPC   GL1 6853  24.441   3.499   8.864
  261POPC   GL2 6854  24.410   3.544   8.864
  261POPC   C1A 6855  24.538   3.558   8.564
  261POPC   D2A 6856  24.504   3.510   8.264
  261POPC   C3A 6857  24.478   3.529   7.964
  261POPC   C4A 6858  24.516   3.555   7.664
  261POPC   C1B 6859  24.246   3.624   8.564
  261POPC   C2B 6860  24.230   3.630   8.264
  261POPC   C3B 6861  24.260   3.666   7.964
  261POPC   C4B 6862  24.219   3.610   7.664
  262POPC   NC3 6863  32.248   8.220   9.464
  262POPC   PO4 6864  32.204   8.242   9.164
  262POPC   GL1 6865  32.276   8.227   8.864
  262POPC   GL2 6866  32.206   8.091   8.864
  262POPC   C1A 6867  32.221   8.198   8.564
  262POPC   D2A 6868  32.233   8.166   8.264
  262POPC   C3A 6869  32.251   8.196   7.964
  262POPC   C4A 6870  32.199   8.162   7.664
  262POPC   C1B 6871  32.187   7.976   8.564
  262POPC   C2B 6872  32.246   7.925   8.264
  262POPC   C3B 6873  32.203   7.992   7.964
  262POPC   C4B 6874  32.216   7.970   7.664
  263POPC   NC3 6875  11.283  43.926   9.464
  263POPC   PO4 6876  11.323  43.852   9.164
  263POPC   GL1 6877  11.291  43.884   8.864
  263POPC   GL2 6878  11.217  43.957   8.864
  263POPC   C1A 6879  11.334  43.893   8.564
  263POPC   D2A 6880  11.274  43.859   8.264
  263POPC   C3A 6881  11.285  43.928   7.964
  263POPC   C4A 6882  11.343  43.848   7.664
  263POPC   C1B 6883  11.182  44.124   8.564
  263POPC   C2B 6884  11.209  44.131   8.264
  263POPC   C3B 6885  11.148  44.131   7.964
  263POPC   C4B 6886  11.171  44.074   7.664
  264POPC   NC3 6887   1.949  38.409   9.464
  264POPC   PO4 6888   1.973  38.462   9.164
  264POPC   GL1 6889   1.958  38.417   8.864
  264POPC   GL2 6890   1.831  38.470   8.864
  264POPC   C1A 6891   2.036  38.415   8.564
  264POPC   D2A 6892   1.949  38.429   8.264
  264POPC   C3A 6893   1.981  38.487   7.964
  264POPC   C4A 6894   2.030  38.431   7.664
  264POPC   C1B 6895   1.783  38.522   8.564
  264POPC   C2B 6896   1.710  38.478   8.264
  264POPC   C3B 6897   1.756  38.478   7.964
  264POPC   C4B 6898   1.764  38.497   7.664
  265POPC   NC3 6899  12.121   4.361   9.464
  265POPC   PO4 6900  12.051   4.355   9.164
  265POPC   GL1 6901  12.064   4.275   8.864
  265POPC   GL2 6902  12.006   4.193   8.864
  265POPC   C1A 6903  12.119   4.270   8.564
  265POPC   D2A 6904  12.063   4.289   8.264
  265POPC   C3A 6905  12.112   4.270   7.964
  265POPC   C4A 6906  12.062   4.303   7.664
  265POPC   C1B 6907  12.030   4.052   8.564
  265POPC   C2B 6908  12.061   4.068   8.264
  265POPC   C3B 6909  12.011   4.037   7.964
  265POPC   C4B 6910  11.997   4.080   7.664
  266POPC   NC3 6911  31.443  15.136   9.464
  266POPC   PO4 6912  31.462  15.189   9.164
  266POPC   GL1 6913  31.443  15.139   8.864
  266POPC   GL2 6914  31.509  15.047   8.864
  266POPC   C1A 6915  31.504  15.221   8.564
  266POPC   D2A 6916  31.489  15.224   8.264
  266POPC   C3A 6917  31.505  15.139   7.964
  266POPC   C4A 6918  31.428  15.151   7.664
  266POPC   C1B 6919  31.649  15.013   8.564
  266POPC   C2B 6920  31.604  14.936   8.264
  266POPC   C3B 6921  31.616  14.962   7.964
  266POPC   C4B 6922  31.605  15.024   7.664
  267POPC   NC3 6923   5.891  37.684   9.464
  267POPC   PO4 6924   5.876  37.650   9.164
  267POPC   GL1 6925   5.876  37.676   8.864
  267POPC   GL2 6926   5.983  37.672   8.864
  267POPC   C1A 6927   5.830  37.711   8.564
  267POPC   D2A 6928   5.888  37.713   8.264
  267POPC   C3A 6929   5.841  37.680   7.964
  267POPC   C4A 6930   5.820  37.687   7.664
  267POPC   C1B 6931   6.132  37.710   8.564
  267POPC   C2B 6932   6.068  37.765   8.264
  267POPC   C3B 6933   6.087  37.768   7.964
  267POPC   C4B 6934   6.134  37.701   7.664
  268POPC   NC3 6935   0.439   9.784   9.464
  268POPC   PO4 6936   0.403   9.740   9.164
  268POPC   GL1 6937   0.431   9.750   8.864
  268POPC   GL2 6938   0.446   9.672   8.864
  268POPC   C1A 6939   0.460   9.758   8.564
  268POPC   D2A 6940   0.472   9.757   8.264
  268POPC   C3A 6941   0.404   9.772   7.964
  268POPC   C4A 6942   0.440   9.765   7.664
  268POPC   C1B 6943   0.472   9.550   8.564
  268POPC   C2B 6944   0.553   9.476   8.264
  268POPC   C3B 6945   0.562   9.540   7.964
  268POPC   C4B 6946   0.488   9.474   7.664
  269POPC   NC3 6947  32.225  12.806   9.464
  269POPC   PO4 6948  32.278  12.886   9.164
  269POPC   GL1 6949  32.206  12.886   8.864
  269POPC   GL2 6950  32.111  12.908   8.864
  269POPC   C1A 6951  32.269  12.856   8.564
  269POPC   D2A 6952  32.271  12.845   8.264
  269POPC   C3A 6953  32.205  12.868   7.964
  269POPC   C4A 6954  32.206  12.806   7.664
  269POPC   C1B 6955  32.051  12.973   8.564
  269POPC   C2B 6956  32.068  13.037   8.264
  269POPC   C3B 6957  32.078  12.964   7.964
  269POPC   C4B 6958  31.992  12.958   7.664
  270POPC   NC3 6959  13.592  43.076   9.464
  270POPC   PO4 6960  13.668  43.160   9.164
  270POPC   GL1 6961  13.620  43.112   8.864
  270POPC   GL2 6962  13.546  43.160   8.864
  270POPC   C1A 6963  13.665  43.152   8.564
  270POPC   D2A 6964  13.635  43.107   8.264
  270POPC   C3A 6965  13.644  43.121   7.964
  270POPC   C4A 6966  13.611  43.067   7.664
  270POPC   C1B 6967  13.381  43.221   8.564
  270POPC   C2B 6968  13.419  43.209   8.264
  270POPC   C3B 6969  13.344  43.225   7.964
  270POPC   C4B 6970  13.354  43.235   7.664
  271POPC   NC3 6971  31.460  23.722   9.464
  271POPC   PO4 6972  31.465  23.682   9.164
  271POPC   GL1 6973  31.476  23.742   8.864
  271POPC   GL2 6974  31.641  23.690   8.864
  271POPC   C1A 6975  31.484  23.695   8.564
  271POPC   D2A 6976  31.452  23.714   8.264
  271POPC   C3A 6977  31.476  23.753   7.964
  271POPC   C4A 6978  31.448  23.719   7.664
  271POPC   C1B 6979  31.753  23.743   8.564
  271POPC   C2B 6980  31.693  23.737   8.264
  271POPC   C3B 6981  31.759  23.770   7.964
  271POPC   C4B 6982  31.769  23.711   7.664
  272POPC   NC3 6983  31.452  36.951   9.464
  272POPC   PO4 6984  31.495  36.943   9.164
  272POPC   GL1 6985  31.468  36.900   8.864
  272POPC   GL2 6986  31.596  36.755   8.864
  272POPC   C1A 6987  31.472  36.924   8.564
  272POPC   D2A 6988  31.451  36.883   8.264
  272POPC   C3A 6989  31.487  36.871   7.964
  272POPC   C4A 6990  31.453  36.943   7.664
  272POPC   C1B 6991  31.641  36.740   8.564
  272POPC   C2B 6992  31.621  36.715   8.264
  272POPC   C3B 6993  31.648  36.664   7.964
  272POPC   C4B 6994  31.655  36.658   7.664
  273POPC   NC3 6995  36.110  39.230   9.464
  273POPC   PO4 6996  36.139  39.223   9.164
  273POPC   GL1 6997  36.139  39.193   8.864
  273POPC   GL2 6998  36.204  39.162   8.864
  273POPC   C1A 6999  36.166  39.219   8.564
  273POPC   D2A 7000  36.164  39.216   8.264
  273POPC   C3A 7001  36.130  39.210   7.964
  273POPC   C4A 7002  36.085  39.236   7.664
  273POPC   C1B 7003  36.163  39.022   8.564
  273POPC   C2B 7004  36.162  38.969   8.264
  273POPC   C3B 7005  36.220  39.042   7.964
  273POPC   C4B 7006  36.215  38.965   7.664
  274POPC   NC3 7007  30.721   5.122   9.464
  274POPC   PO4 7008  30.655   5.124   9.164
  274POPC   GL1 7009  30.719   5.136   8.864
  274POPC   GL2 7010  30.717   5.188   8.864
  274POPC   C1A 7011  30.671   5.074   8.564
  274POPC   D2A 7012  30.685   5.107   8.264
  274POPC   C3A 7013  30.688   5.052   7.964
  274POPC   C4A 7014  30.743   5.068   7.664
  274POPC   C1B 7015  30.802   5.261   8.564
  274POPC   C2B 7016  30.795   5.273   8.264
  274POPC   C3B 7017  30.790   5.340   7.964
  274POPC   C4B 7018  30.866   5.269   7.664
  275POPC   NC3 7019   6.655   1.206   9.464
  275POPC   PO4 7020   6.646   1.216   9.164
  275POPC   GL1 7021   6.685   1.200   8.864
  275POPC   GL2 7022   6.701   1.269   8.864
  275POPC   C1A 7023   6.633   1.210   8.564
  275POPC   D2A 7024   6.640   1.168   8.264
  275POPC   C3A 7025   6.651   1.194   7.964
  275POPC   C4A 7026   6.627   1.165   7.664
  275POPC   C1B 7027   6.894   1.383   8.564
  275POPC   C2B 7028   6.806   1.336   8.264
  275POPC   C3B 7029   6.853   1.370   7.964
  275POPC   C4B 7030   6.830   1.324   7.664
  276POPC   NC3 7031  16.769   7.411   9.464
  276POPC   PO4 7032  16.722   7.396   9.164
  276POPC   GL1 7033  16.715   7.421   8.864
  276POPC   GL2 7034  16.623   7.524   8.864
  276POPC   C1A 7035  16.735   7.447   8.564
  276POPC   D2A 7036  16.738   7.447   8.264
  276POPC   C3A 7037  16.699   7.429   7.964
  276POPC   C4A 7038  16.777   7.448   7.664
  276POPC   C1B 7039  16.501   7.538   8.564
  276POPC   C2B 7040  16.554   7.531   8.264
  276POPC   C3B 7041  16.530   7.528   7.964
  276POPC   C4B 7042  16.534   7.614   7.664
  277POPC   NC3 7043  39.264  10.475   9.464
  277POPC   PO4 7044  39.230  10.569   9.164
  277POPC   GL1 7045  39.182  10.548   8.864
  277POPC   GL2 7046  39.220  10.657   8.864
  277POPC   C1A 7047  39.211  10.545   8.564
  277POPC   D2A 7048  39.201  10.497   8.264
  277POPC   C3A 7049  39.194  10.496   7.964
  277POPC   C4A 7050  39.272  10.538   7.664
  277POPC   C1B 7051  39.250  10.790   8.564
  277POPC   C2B 7052  39.256  10.789   8.264
  277POPC   C3B 7053  39.317  10.778   7.964
  277POPC   C4B 7054  39.325  10.747   7.664
  278POPC   NC3 7055  12.101   2.757   9.464
  278POPC   PO4 7056  12.045   2.791   9.164
  278POPC   GL1 7057  12.034   2.750   8.864
  278POPC   GL2 7058  11.910   2.743   8.864
  278POPC   C1A 7059  12.083   2.805   8.564
  278POPC   D2A 7060  12.086   2.735   8.264
  278POPC   C3A 7061  12.123   2.774   7.964
  278POPC   C4A 7062  12.057   2.741   7.664
  278POPC   C1B 7063  11.834   2.751   8.564
  278POPC   C2B 7064  11.785   2.765   8.264
  278POPC   C3B 7065  11.819   2.798   7.964
  278POPC   C4B 7066  11.782   2.764   7.664
  279POPC   NC3 7067  35.343   7.443   9.464
  279POPC   PO4 7068  35.365   7.425   9.164
  279POPC   GL1 7069  35.339   7.395   8.864
  279POPC   GL2 7070  35.395   7.486   8.864
  279POPC   C1A 7071  35.331   7.460   8.564
  279POPC   D2A 7072  35.313   7.395   8.264
  279POPC   C3A 7073  35.368   7.389   7.964
  279POPC   C4A 7074  35.389   7.391   7.664
  279POPC   C1B 7075  35.497   7.584   8.564
  279POPC   C2B 7076  35.501   7.642   8.264
  279POPC   C3B 7077  35.458   7.589   7.964
  279POPC   C4B 7078  35.501   7.597   7.664
  280POPC   NC3 7079  19.027  39.988   9.464
  280POPC   PO4 7080  19.108  40.054   9.164
  280POPC   GL1 7081  19.047  39.972   8.864
  280POPC   GL2 7082  19.224  40.026   8.864
  280POPC   C1A 7083  19.053  39.998   8.564
  280POPC   D2A 7084  19.070  40.045   8.264
  280POPC   C3A 7085  19.091  39.999   7.964
  280POPC   C4A 7086  19.092  39.983   7.664
  280POPC   C1B 7087  19.269  39.905   8.564
  280POPC   C2B 7088  19.337  39.995   8.264
  280POPC   C3B 7089  19.288  39.916   7.964
  280POPC   C4B 7090  19.288  39.906   7.664
  281POPC   NC3 7091  17.528  33.775   9.464
  281POPC   PO4 7092  17.535  33.801   9.164
  281POPC   GL1 7093  17.538  33.815   8.864
  281POPC   GL2 7094  17.382  33.699   8.864
  281POPC   C1A 7095  17.499  33.785   8.564
  281POPC   D2A 7096  17.486  33.805   8.264
  281POPC   C3A 7097  17.483  33.848   7.964
  281POPC   C4A 7098  17.498  33.825   7.664
  281POPC   C1B 7099  17.288  33.647   8.564
  281POPC   C2B 7100  17.299  33.640   8.264
  281POPC   C3B 7101  17.297  33.647   7.964
  281POPC   C4B 7102  17.249  33.639   7.664
  282POPC   NC3 7103  10.557   8.979   9.464
  282POPC   PO4 7104  10.507   8.948   9.164
  282POPC   GL1 7105  10.515   9.003   8.864
  282POPC   GL2 7106  10.693   9.003   8.864
  282POPC   C1A 7107  10.564   8.965   8.564
  282POPC   D2A 7108  10.487   8.951   8.264
  282POPC   C3A 7109  10.515   8.973   7.964
  282POPC   C4A 7110  10.548   8.968   7.664
  282POPC   C1B 7111  10.775   9.005   8.564
  282POPC   C2B 7112  10.754   8.951   8.264
  282POPC   C3B 7113  10.761   9.039   7.964
  282POPC   C4B 7114  10.736   9.011   7.664
  283POPC   NC3 7115  35.317  28.368   9.464
  283POPC   PO4 7116  35.352  28.353   9.164
  283POPC   GL1 7117  35.345  28.324   8.864
  283POPC   GL2 7118  35.410  28.270   8.864
  283POPC   C1A 7119  35.357  28.360   8.564
  283POPC   D2A 7120  35.337  28.322   8.264
  283POPC   C3A 7121  35.392  28.327   7.964
  283POPC   C4A 7122  35.341  28.419   7.664
  283POPC   C1B 7123  35.425  28.098   8.564
  283POPC   C2B 7124  35.464  28.165   8.264
  283POPC   C3B 7125  35.466  28.192   7.964
  283POPC   C4B 7126  35.472  28.188   7.664
  284POPC   NC3 7127   1.250  24.485   9.464
  284POPC   PO4 7128   1.244  24.456   9.164
  284POPC   GL1 7129   1.225  24.502   8.864
  284POPC   GL2 7130   1.143  24.595   8.864
  284POPC   C1A 7131   1.196  24.473   8.564
  284POPC   D2A 7132   1.188  24.496   8.264
  284POPC   C3A 7133   1.220  24.453   7.964
  284POPC   C4A 7134   1.200  24.470   7.664
  284POPC   C1B 7135   1.014  24.695   8.564
  284POPC   C2B 7136   1.098  24.693   8.264
  284POPC   C3B 7137   1.071  24.711   7.964
  284POPC   C4B 7138   1.006  24.725   7.664
  285POPC   NC3 7139   7.378  15.216   9.464
  285POPC   PO4 7140   7.412  15.138   9.164
  285POPC   GL1 7141   7.380  15.185   8.864
  285POPC   GL2 7142   7.350  15.229   8.864
  285POPC   C1A 7143   7.419  15.216   8.564
  285POPC   D2A 7144   7.385  15.224   8.264
  285POPC   C3A 7145   7.428  15.187   7.964
  285POPC   C4A 7146   7.373  15.135   7.664
  285POPC   C1B 7147   7.220  15.214   8.564
  285POPC   C2B 7148   7.165  15.220   8.264
  285POPC   C3B 7149   7.184  15.291   7.964
  285POPC   C4B 7150   7.147  15.303   7.664
  286POPC   NC3 7151   5.900   3.544   9.464
  286POPC   PO4 7152   5.894   3.541   9.164
  286POPC   GL1 7153   5.828   3.576   8.864
  286POPC   GL2 7154   5.732   3.599   8.864
  286POPC   C1A 7155   5.849   3.559   8.564
  286POPC   D2A 7156   5.867   3.556   8.264
  286POPC   C3A 7157   5.833   3.498   7.964
  286POPC   C4A 7158   5.856   3.516   7.664
  286POPC   C1B 7159   5.600   3.549   8.564
  286POPC   C2B 7160   5.664   3.580   8.264
  286POPC   C3B 7161   5.634   3.556   7.964
  286POPC   C4B 7162   5.638   3.538   7.664
  287POPC   NC3 7163  21.339  24.525   9.464
  287POPC   PO4 7164  21.362  24.463   9.164
  287POPC   GL1 7165  21.410  24.518   8.864
  287POPC   GL2 7166  21.304  24.405   8.864
  287POPC   C1A 7167  21.353  24.481   8.564
  287POPC   D2A 7168  21.366  24.450   8.264
  287POPC   C3A 7169  21.388  24.515   7.964
  287POPC   C4A 7170  21.339  24.501   7.664
  287POPC   C1B 7171  21.323  24.258   8.564
  287POPC   C2B 7172  21.325  24.295   8.264
  287POPC   C3B 7173  21.325  24.245   7.964
  287POPC   C4B 7174  21.284  24.216   7.664
  288POPC   NC3 7175  32.977   2.797   9.464
  288POPC   PO4 7176  33.071   2.809   9.164
  288POPC   GL1 7177  33.044   2.809   8.864
  288POPC   GL2 7178  33.073   2.911   8.864
  288POPC   C1A 7179  32.979   2.754   8.564
  288POPC   D2A 7180  33.050   2.762   8.264
  288POPC   C3A 7181  32.977   2.741   7.964
  288POPC   C4A 7182  33.048   2.810   7.664
  288POPC   C1B 7183  33.125   2.947   8.564
  288POPC   C2B 7184  33.127   2.965   8.264
  288POPC   C3B 7185  33.139   3.021   7.964
  288POPC   C4B 7186  33.130   2.949   7.664
  289POPC   NC3 7187  23.741   9.016   9.464
  289POPC   PO4 7188  23.757   8.939   9.164
  289POPC   GL1 7189  23.735   8.995   8.864
  289POPC   GL2 7190  23.809   9.021   8.864
  289POPC   C1A 7191  23.698   8.996   8.564
  289POPC   D2A 7192  23.673   8.941   8.264
  289POPC   C3A 7193  23.690   8.950   7.964
  289POPC   C4A 7194  23.706   8.941   7.664
  289POPC   C1B 7195  23.959   8.952   8.564
  289POPC   C2B 7196  23.948   8.925   8.264
  289POPC   C3B 7197  23.951   8.927   7.964
  289POPC   C4B 7198  23.943   8.925   7.664
  290POPC   NC3 7199  15.196  13.663   9.464
  290POPC   PO4 7200  15.139  13.613   9.164
  290POPC   GL1 7201  15.190  13.652   8.864
  290POPC   GL2 7202  15.239  13.540   8.864
  290POPC   C1A 7203  15.165  13.634   8.564
  290POPC   D2A 7204  15.134  13.663   8.264
  290POPC   C3A 7205  15.209  13.664   7.964
  290POPC   C4A 7206  15.134  13.588   7.664
  290POPC   C1B 7207  15.355  13.431   8.564
  290POPC   C2B 7208  15.334  13.453   8.264
  290POPC   C3B 7209  15.304  13.380   7.964
  290POPC   C4B 7210  15.298  13.470   7.664
  291POPC   NC3 7211  43.128  26.864   9.464
  291POPC   PO4 7212  43.138  26.850   9.164
  291POPC   GL1 7213  43.091  26.839   8.864
  291POPC   GL2 7214  42.960  26.781   8.864
  291POPC   C1A 7215  43.094  26.856   8.564
  291POPC   D2A 7216  43.136  26.806   8.264
  291POPC   C3A 7217  43.087  26.850   7.964
  291POPC   C4A 7218  43.150  26.799   7.664
  291POPC   C1B 7219  42.888  26.721   8.564
  291POPC   C2B 7220  42.839  26.726   8.264
  291POPC   C3B 7221  42.888  26.800   7.964
  291POPC   C4B 7222  42.862  26.795   7.664
  292POPC   NC3 7223  30.704  12.808   9.464
  292POPC   PO4 7224  30.670  12.898   9.164
  292POPC   GL1 7225  30.744  12.871   8.864
  292POPC   GL2 7226  30.615  12.710   8.864
  292POPC   C1A 7227  30.737  12.870   8.564
  292POPC   D2A 7228  30.711  12.870   8.264
  292POPC   C3A 7229  30.652  12.859   7.964
  292POPC   C4A 7230  30.712  12.846   7.664
  292POPC   C1B 7231  30.622  12.596   8.564
  292POPC   C2B 7232  30.567  12.659   8.264
  292POPC   C3B 7233  30.617  12.618   7.964
  292POPC   C4B 7234  30.567  12.594   7.664
  293POPC   NC3 7235  40.053  22.160   9.464
  293POPC   PO4 7236  40.014  22.126   9.164
  293POPC   GL1 7237  39.992  22.123   8.864
  293POPC   GL2 7238  39.971  22.261   8.864
  293POPC   C1A 7239  40.030  22.157   8.564
  293POPC   D2A 7240  40.015  22.181   8.264
  293POPC   C3A 7241  40.048  22.140   7.964
  293POPC   C4A 7242  40.046  22.204   7.664
  293POPC   C1B 7243  40.001  22.422   8.564
  293POPC   C2B 7244  39.977  22.368   8.264
  293POPC   C3B 7245  40.057  22.362   7.964
  293POPC   C4B 7246  40.054  22.421   7.664
  294POPC   NC3 7247  38.466  30.718   9.464
  294POPC   PO4 7248  38.434  30.702   9.164
  294POPC   GL1 7249  38.462  30.697   8.864
  294POPC   GL2 7250  38.364  30.576   8.864
  294POPC   C1A 7251  38.476  30.692   8.564
  294POPC   D2A 7252  38.413  30.738   8.264
  294POPC   C3A 7253  38.452  30.676   7.964
  294POPC   C4A 7254  38.481  30.713   7.664
  294POPC   C1B 7255  38.305  30.467   8.564
  294POPC   C2B 7256  38.377  30.429   8.264
  294POPC   C3B 7257  38.358  30.464   7.964
  294POPC   C4B 7258  38.348  30.429   7.664
  295POPC   NC3 7259  38.455  29.106   9.464
  295POPC   PO4 7260  38.497  29.133   9.164
  295POPC   GL1 7261  38.408  29.185   8.864
  295POPC   GL2 7262  38.500  29.268   8.864
  295POPC   C1A 7263  38.463  29.141   8.564
  295POPC   D2A 7264  38.500  29.156   8.264
  295POPC   C3A 7265  38.473  29.145   7.964
  295POPC   C4A 7266  38.488  29.096   7.664
  295POPC   C1B 7267  38.541  29.378   8.564
  295POPC   C2B 7268  38.554  29.356   8.264
  295POPC   C3B 7269  38.499  29.426   7.964
  295POPC   C4B 7270  38.509  29.365   7.664
  296POPC   NC3 7271   0.473   1.229   9.464
  296POPC   PO4 7272   0.456   1.225   9.164
  296POPC   GL1 7273   0.434   1.201   8.864
  296POPC   GL2 7274   0.475   1.311   8.864
  296POPC   C1A 7275   0.432   1.172   8.564
  296POPC   D2A 7276   0.449   1.239   8.264
  296POPC   C3A 7277   0.478   1.248   7.964
  296POPC   C4A 7278   0.469   1.174   7.664
  296POPC   C1B 7279   0.562   1.431   8.564
  296POPC   C2B 7280   0.480   1.445   8.264
  296POPC   C3B 7281   0.549   1.495   7.964
  296POPC   C4B 7282   0.553   1.468   7.664
  297POPC   NC3 7283  27.613  33.064   9.464
  297POPC   PO4 7284  27.555  33.072   9.164
  297POPC   GL1 7285  27.573  33.027   8.864
  297POPC   GL2 7286  27.537  33.162   8.864
  297POPC   C1A 7287  27.589  33.014   8.564
  297POPC   D2A 7288  27.630  32.984   8.264
  297POPC   C3A 7289  27.615  33.027   7.964
  297POPC   C4A 7290  27.618  32.991   7.664
  297POPC   C1B 7291  27.449  33.218   8.564
  297POPC   C2B 7292  27.473  33.292   8.264
  297POPC   C3B 7293  27.467  33.276   7.964
  297POPC   C4B 7294  27.484  33.263   7.664
  298POPC   NC3 7295  40.005  42.349   9.464
  298POPC   PO4 7296  39.962  42.295   9.164
  298POPC   GL1 7297  40.038  42.303   8.864
  298POPC   GL2 7298  40.140  42.383   8.864
  298POPC   C1A 7299  39.992  42.340   8.564
  298POPC   D2A 7300  39.993  42.306   8.264
  298POPC   C3A 7301  40.023  42.293   7.964
  298POPC   C4A 7302  39.994  42.341   7.664
  298POPC   C1B 7303  40.183  42.465   8.564
  298POPC   C2B 7304  40.238  42.466   8.264
  298POPC   C3B 7305  40.176  42.472   7.964
  298POPC   C4B 7306  40.185  42.478   7.664
  299POPC   NC3 7307  37.696  43.854   9.464
  299POPC   PO4 7308  37.690  43.841   9.164
  299POPC   GL1 7309  37.694  43.857   8.864
  299POPC   GL2 7310  37.640  43.778   8.864
  299POPC   C1A 7311  37.657  43.839   8.564
  299POPC   D2A 7312  37.657  43.868   8.264
  299POPC   C3A 7313  37.709  43.856   7.964
  299POPC   C4A 7314  37.658  43.931   7.664
  299POPC   C1B 7315  37.552  43.618   8.564
  299POPC   C2B 7316  37.596  43.647   8.264
  299POPC   C3B 7317  37.569  43.669   7.964
  299POPC   C4B 7318  37.626  43.617   7.664
  300POPC   NC3 7319  17.554  15.925   9.464
  300POPC   PO4 7320  17.490  15.955   9.164
  300POPC   GL1 7321  17.506  15.961   8.864
  300POPC   GL2 7322  17.596  15.835   8.864
  300POPC   C1A 7323  17.467  15.992   8.564
  300POPC   D2A 7324  17.538  15.919   8.264
  300POPC   C3A 7325  17.484  15.921   7.964
  300POPC   C4A 7326  17.466  15.934   7.664
  300POPC   C1B 7327  17.668  15.689   8.564
  300POPC   C2B 7328  17.602  15.693   8.264
  300POPC   C3B 7329  17.616  15.771   7.964
  300POPC   C4B 7330  17.663  15.776   7.664
  301POPC   NC3 7331  39.958  26.058   9.464
  301POPC   PO4 7332  39.996  26.053   9.164
  301POPC   GL1 7333  40.012  26.066   8.864
  301POPC   GL2 7334  39.980  25.946   8.864
  301POPC   C1A 7335  39.999  26.032   8.564
  301POPC   D2A 7336  39.992  26.073   8.264
  301POPC   C3A 7337  40.035  26.061   7.964
  301POPC   C4A 7338  39.990  26.073   7.664
  301POPC   C1B 7339  39.993  25.761   8.564
  301POPC   C2B 7340  40.082  25.745   8.264
  301POPC   C3B 7341  39.992  25.771   7.964
  301POPC   C4B 7342  40.053  25.803   7.664
  302POPC   NC3 7343  34.575   6.639   9.464
  302POPC   PO4 7344  34.588   6.666   9.164
  302POPC   GL1 7345  34.597   6.669   8.864
  302POPC   GL2 7346  34.513   6.701   8.864
  302POPC   C1A 7347  34.565   6.662   8.564
  302POPC   D2A 7348  34.601   6.618   8.264
  302POPC   C3A 7349  34.567   6.648   7.964
  302POPC   C4A 7350  34.536   6.596   7.664
  302POPC   C1B 7351  34.425   6.866   8.564
  302POPC   C2B 7352  34.411   6.842   8.264
  302POPC   C3B 7353  34.397   6.869   7.964
  302POPC   C4B 7354  34.434   6.863   7.664
  303POPC   NC3 7355  28.334  15.936   9.464
  303POPC   PO4 7356  28.348  15.941   9.164
  303POPC   GL1 7357  28.320  15.910   8.864
  303POPC   GL2 7358  28.294  16.095   8.864
  303POPC   C1A 7359  28.340  15.918   8.564
  303POPC   D2A 7360  28.353  16.001   8.264
  303POPC   C3A 7361  28.372  15.907   7.964
  303POPC   C4A 7362  28.340  15.936   7.664
  303POPC   C1B 7363  28.281  16.223   8.564
  303POPC   C2B 7364  28.270  16.187   8.264
  303POPC   C3B 7365  28.332  16.207   7.964
  303POPC   C4B 7366  28.296  16.236   7.664
  304POPC   NC3 7367  15.172  10.496   9.464
  304POPC   PO4 7368  15.194  10.542   9.164
  304POPC   GL1 7369  15.200  10.553   8.864
  304POPC   GL2 7370  15.251  10.486   8.864
  304POPC   C1A 7371  15.176  10.566   8.564
  304POPC   D2A 7372  15.169  10.555   8.264
  304POPC   C3A 7373  15.151  10.500   7.964
  304POPC   C4A 7374  15.172  10.499   7.664
  304POPC   C1B 7375  15.377  10.385   8.564
  304POPC   C2B 7376  15.418  10.378   8.264
  304POPC   C3B 7377  15.380  10.383   7.964
  304POPC   C4B 7378  15.405  10.384   7.664
  305POPC   NC3 7379  23.684  23.761   9.464
  305POPC   PO4 7380  23.671  23.747   9.164
  305POPC   GL1 7381  23.677  23.718   8.864
  305POPC   GL2 7382  23.635  23.784   8.864
  305POPC   C1A 7383  23.716  23.712   8.564
  305POPC   D2A 7384  23.678  23.679   8.264
  305POPC   C3A 7385  23.664  23.754   7.964
  305POPC   C4A 7386  23.763  23.705   7.664
  305POPC   C1B 7387  23.561  23.899   8.564
  305POPC   C2B 7388  23.646  23.924   8.264
  305POPC   C3B 7389  23.582  23.950   7.964
  305POPC   C4B 7390  23.611  23.962   7.664
  306POPC   NC3 7391  33.033  31.442   9.464
  306POPC   PO4 7392  32.995  31.470   9.164
  306POPC   GL1 7393  33.030  31.491   8.864
  306POPC   GL2 7394  33.053  31.374   8.864
  306POPC   C1A 7395  33.020  31.439   8.564
  306POPC   D2A 7396  33.055  31.516   8.264
  306POPC   C3A 7397  32.986  31.506   7.964
  306POPC   C4A 7398  33.040  31.443   7.664
  306POPC   C1B 7399  33.067  31.272   8.564
  306POPC   C2B 7400  33.077  31.190   8.264
  306POPC   C3B 7401  33.090  31.191   7.964
  306POPC   C4B 7402  33.062  31.226   7.664
  307POPC   NC3 7403  17.479  37.638   9.464
  307POPC   PO4 7404  17.490  37.712   9.164
  307POPC   GL1 7405  17.533  37.646   8.864
  307POPC   GL2 7406  17.598  37.555   8.864
  307POPC   C1A 7407  17.515  37.724   8.564
  307POPC   D2A 7408  17.520  37.665   8.264
  307POPC   C3A 7409  17.479  37.664   7.964
  307POPC   C4A 7410  17.458  37.686   7.664
  307POPC   C1B 7411  17.675  37.509   8.564
  307POPC   C2B 7412  17.721  37.530   8.264
  307POPC   C3B 7413  17.687  37.482   7.964
  307POPC   C4B 7414  17.662  37.546   7.664
  308POPC   NC3 7415  18.328  29.905   9.464
  308POPC   PO4 7416  18.263  29.963   9.164
  308POPC   GL1 7417  18.233  29.883   8.864
  308POPC   GL2 7418  18.193  29.887   8.864
  308POPC   C1A 7419  18.267  29.873   8.564
  308POPC   D2A 7420  18.245  29.966   8.264
  308POPC   C3A 7421  18.320  29.966   7.964
  308POPC   C4A 7422  18.235  29.879   7.664
  308POPC   C1B 7423  18.045  29.866   8.564
  308POPC   C2B 7424  18.065  29.820   8.264
  308POPC   C3B 7425  18.058  29.799   7.964
  308POPC   C4B 7426  18.047  29.771   7.664
  309POPC   NC3 7427  25.250  28.339   9.464
  309POPC   PO4 7428  25.283  28.417   9.164
  309POPC   GL1 7429  25.290  28.374   8.864
  309POPC   GL2 7430  25.212  28.268   8.864
  309POPC   C1A 7431  25.247  28.368   8.564
  309POPC   D2A 7432  25.306  28.387   8.264
  309POPC   C3A 7433  25.286  28.357   7.964
  309POPC   C4A 7434  25.290  28.383   7.664
  309POPC   C1B 7435  25.065  28.156   8.564
  309POPC   C2B 7436  25.117  28.161   8.264
  309POPC   C3B 7437  25.072  28.210   7.964
  309POPC   C4B 7438  25.088  28.229   7.664
  310POPC   NC3 7439  22.142  40.762   9.464
  310POPC   PO4 7440  22.142  40.822   9.164
  310POPC   GL1 7441  22.130  40.750   8.864
  310POPC   GL2 7442  22.149  40.874   8.864
  310POPC   C1A 7443  22.182  40.739   8.564
  310POPC   D2A 7444  22.158  40.790   8.264
  310POPC   C3A 7445  22.116  40.818   7.964
  310POPC   C4A 7446  22.175  40.739   7.664
  310POPC   C1B 7447  22.142  40.986   8.564
  310POPC   C2B 7448  22.136  41.018   8.264
  310POPC   C3B 7449  22.162  41.069   7.964
  310POPC   C4B 7450  22.189  41.022   7.664
  311POPC   NC3 7451  12.099   1.193   9.464
  311POPC   PO4 7452  12.111   1.238   9.164
  311POPC   GL1 7453  12.027   1.186   8.864
  311POPC   GL2 7454  12.011   1.124   8.864
  311POPC   C1A 7455  12.033   1.258   8.564
  311POPC   D2A 7456  12.106   1.227   8.264
  311POPC   C3A 7457  12.031   1.216   7.964
  311POPC   C4A 7458  12.046   1.214   7.664
  311POPC   C1B 7459  11.986   0.974   8.564
  311POPC   C2B 7460  12.018   0.990   8.264
  311POPC   C3B 7461  12.015   1.014   7.964
  311POPC   C4B 7462  11.983   1.014   7.664
  312POPC   NC3 7463  34.592   3.494   9.464
  312POPC   PO4 7464  34.608   3.496   9.164
  312POPC   GL1 7465  34.599   3.545   8.864
  312POPC   GL2 7466  34.487   3.555   8.864
  312POPC   C1A 7467  34.599   3.495   8.564
  312POPC   D2A 7468  34.615   3.578   8.264
  312POPC   C3A 7469  34.603   3.583   7.964
  312POPC   C4A 7470  34.621   3.530   7.664
  312POPC   C1B 7471  34.334   3.708   8.564
  312POPC   C2B 7472  34.310   3.697   8.264
  312POPC   C3B 7473  34.348   3.641   7.964
  312POPC   C4B 7474  34.389   3.675   7.664
  313POPC   NC3 7475  19.861  20.566   9.464
  313POPC   PO4 7476  19.810  20.641   9.164
  313POPC   GL1 7477  19.866  20.575   8.864
  313POPC   GL2 7478  19.960  20.550   8.864
  313POPC   C1A 7479  19.880  20.596   8.564
  313POPC   D2A 7480  19.821  20.569   8.264
  313POPC   C3A 7481  19.855  20.584   7.964
  313POPC   C4A 7482  19.838  20.621   7.664
  313POPC   C1B 7483  20.048  20.474   8.564
  313POPC   C2B 7484  20.080  20.550   8.264
  313POPC   C3B 7485  20.026  20.476   7.964
  313POPC   C4B 7486  20.010  20.524   7.664
  314POPC   NC3 7487  33.043  19.840   9.464
  314POPC   PO4 7488  33.037  19.882   9.164
  314POPC   GL1 7489  33.072  19.786   8.864
  314POPC   GL2 7490  32.924  19.945   8.864
  314POPC   C1A 7491  33.061  19.880   8.564
  314POPC   D2A 7492  32.977  19.798   8.264
  314POPC   C3A 7493  32.983  19.878   7.964
  314POPC   C4A 7494  32.978  19.858   7.664
  314POPC   C1B 7495  32.778  19.954   8.564
  314POPC   C2B 7496  32.811  19.941   8.264
  314POPC   C3B 7497  32.780  20.007   7.964
  314POPC   C4B 7498  32.809  19.956   7.664
  315POPC   NC3 7499  24.494   2.767   9.464
  315POPC   PO4 7500  24.532   2.754   9.164
  315POPC   GL1 7501  24.452   2.727   8.864
  315POPC   GL2 7502  24.616   2.765   8.864
  315POPC   C1A 7503  24.507   2.783   8.564
  315POPC   D2A 7504  24.442   2.752   8.264
  315POPC   C3A 7505  24.530   2.804   7.964
  315POPC   C4A 7506  24.517   2.738   7.664
  315POPC   C1B 7507  24.701   2.637   8.564
  315POPC   C2B 7508  24.723   2.650   8.264
  315POPC   C3B 7509  24.747   2.702   7.964
  315POPC   C4B 7510  24.738   2.698   7.664
  316POPC   NC3 7511  35.382  29.902   9.464
  316POPC   PO4 7512  35.397  29.960   9.164
  316POPC   GL1 7513  35.323  29.951   8.864
  316POPC   GL2 7514  35.381  29.978   8.864
  316POPC   C1A 7515  35.324  29.937   8.564
  316POPC   D2A 7516  35.401  29.882   8.264
  316POPC   C3A 7517  35.311  29.969   7.964
  316POPC   C4A 7518  35.321  29.923   7.664
  316POPC   C1B 7519  35.484  30.129   8.564
  316POPC   C2B 7520  35.452  30.156   8.264
  316POPC   C3B 7521  35.508  30.181   7.964
  316POPC   C4B 7522  35.518  30.155   7.664
  317POPC   NC3 7523  14.400  43.101   9.464
  317POPC   PO4 7524  14.371  43.141   9.164
  317POPC   GL1 7525  14.401  43.142   8.864
  317POPC   GL2 7526  14.497  43.113   8.864
  317POPC   C1A 7527  14.380  43.153   8.564
  317POPC   D2A 7528  14.394  43.076   8.264
  317POPC   C3A 7529  14.408  43.096   7.964
  317POPC   C4A 7530  14.434  43.092   7.664
  317POPC   C1B 7531  14.629  43.019   8.564
  317POPC   C2B 7532  14.637  43.102   8.264
  317POPC   C3B 7533  14.611  43.097   7.964
  317POPC   C4B 7534  14.660  43.050   7.664
  318POPC   NC3 7535  31.501  44.654   9.464
  318POPC   PO4 7536  31.466  44.668   9.164
  318POPC   GL1 7537  31.522  44.650   8.864
  318POPC   GL2 7538  31.467  44.771   8.864
  318POPC   C1A 7539  31.501  44.634   8.564
  318POPC   D2A 7540  31.476  44.652   8.264
  318POPC   C3A 7541  31.447  44.667   7.964
  318POPC   C4A 7542  31.442  44.676   7.664
  318POPC   C1B 7543  31.545  44.884   8.564
  318POPC   C2B 7544  31.513  44.882   8.264
  318POPC   C3B 7545  31.523  44.860   7.964
  318POPC   C4B 7546  31.549  44.890   7.664
  319POPC   NC3 7547   2.810   0.392   9.464
  319POPC   PO4 7548   2.782   0.486   9.164
  319POPC   GL1 7549   2.737   0.434   8.864
  319POPC   GL2 7550   2.915   0.399   8.864
  319POPC   C1A 7551   2.757   0.422   8.564
  319POPC   D2A 7552   2.803   0.477   8.264
  319POPC   C3A 7553   2.758   0.403   7.964
  319POPC   C4A 7554   2.766   0.487   7.664
  319POPC   C1B 7555   3.006   0.364   8.564
  319POPC   C2B 7556   2.993   0.303   8.264
  319POPC   C3B 7557   2.986   0.286   7.964
  319POPC   C4B 7558   2.967   0.343   7.664
  320POPC   NC3 7559  44.629  36.868   9.464
  320POPC   PO4 7560  44.653  36.897   9.164
  320POPC   GL1 7561  44.692  36.918   8.864
  320POPC   GL2 7562  44.626  37.046   8.864
  320POPC   C1A 7563  44.657  36.905   8.564
  320POPC   D2A 7564  44.655  36.940   8.264
  320POPC   C3A 7565  44.704  36.949   7.964
  320POPC   C4A 7566  44.638  36.868   7.664
  320POPC   C1B 7567  44.507  37.058   8.564
  320POPC   C2B 7568  44.495  37.095   8.264
  320POPC   C3B 7569  44.462  37.049   7.964
  320POPC   C4B 7570  44.493  37.057   7.664
  321POPC   NC3 7571   4.340  23.711   9.464
  321POPC   PO4 7572   4.335  23.682   9.164
  321POPC   GL1 7573   4.311  23.738   8.864
  321POPC   GL2 7574   4.416  23.776   8.864
  321POPC   C1A 7575   4.338  23.759   8.564
  321POPC   D2A 7576   4.305  23.676   8.264
  321POPC   C3A 7577   4.298  23.689   7.964
  321POPC   C4A 7578   4.295  23.748   7.664
  321POPC   C1B 7579   4.555  23.824   8.564
  321POPC   C2B 7580   4.541  23.840   8.264
  321POPC   C3B 7581   4.560  23.747   7.964
  321POPC   C4B 7582   4.586  23.791   7.664
  322POPC   NC3 7583   5.819  32.255   9.464
  322POPC   PO4 7584   5.873  32.281   9.164
  322POPC   GL1 7585   5.874  32.258   8.864
  322POPC   GL2 7586   5.893  32.078   8.864
  322POPC   C1A 7587   5.866  32.238   8.564
  322POPC   D2A 7588   5.882  32.216   8.264
  322POPC   C3A 7589   5.850  32.236   7.964
  322POPC   C4A 7590   5.869  32.246   7.664
  322POPC   C1B 7591   5.790  32.044   8.564
  322POPC   C2B 7592   5.882  32.011   8.264
  322POPC   C3B 7593   5.792  32.050   7.964
  322POPC   C4B 7594   5.807  32.009   7.664
  323POPC   NC3 7595  11.255   8.957   9.464
  323POPC   PO4 7596  11.337   8.956   9.164
  323POPC   GL1 7597  11.271   8.945   8.864
  323POPC   GL2 7598  11.441   8.999   8.864
  323POPC   C1A 7599  11.267   9.013   8.564
  323POPC   D2A 7600  11.276   8.970   8.264
  323POPC   C3A 7601  11.264   9.000   7.964
  323POPC   C4A 7602  11.285   8.977   7.664
  323POPC   C1B 7603  11.597   9.008   8.564
  323POPC   C2B 7604  11.588   8.964   8.264
  323POPC   C3B 7605  11.593   8.996   7.964
  323POPC   C4B 7606  11.577   8.988   7.664
  324POPC   NC3 7607  41.566  25.282   9.464
  324POPC   PO4 7608  41.568  25.226   9.164
  324POPC   GL1 7609  41.590  25.260   8.864
  324POPC   GL2 7610  41.468  25.235   8.864
  324POPC   C1A 7611  41.599  25.301   8.564
  324POPC   D2A 7612  41.537  25.240   8.264
  324POPC   C3A 7613  41.558  25.313   7.964
  324POPC   C4A 7614  41.590  25.314   7.664
  324POPC   C1B 7615  41.270  25.282   8.564
  324POPC   C2B 7616  41.301  25.222   8.264
  324POPC   C3B 7617  41.264  25.245   7.964
  324POPC   C4B 7618  41.340  25.277   7.664
  325POPC   NC3 7619  43.128  20.647   9.464
  325POPC   PO4 7620  43.083  20.655   9.164
  325POPC   GL1 7621  43.069  20.613   8.864
  325POPC   GL2 7622  43.067  20.499   8.864
  325POPC   C1A 7623  43.127  20.567   8.564
  325POPC   D2A 7624  43.072  20.655   8.264
  325POPC   C3A 7625  43.106  20.589   7.964
  325POPC   C4A 7626  43.102  20.626   7.664
  325POPC   C1B 7627  43.082  20.332   8.564
  325POPC   C2B 7628  43.090  20.342   8.264
  325POPC   C3B 7629  43.092  20.331   7.964
  325POPC   C4B 7630  43.153  20.367   7.664
  326POPC   NC3 7631  33.839  32.244   9.464
  326POPC   PO4 7632  33.755  32.271   9.164
  326POPC   GL1 7633  33.796  32.265   8.864
  326POPC   GL2 7634  33.888  32.346   8.864
  326POPC   C1A 7635  33.796  32.199   8.564
  326POPC   D2A 7636  33.781  32.211   8.264
  326POPC   C3A 7637  33.841  32.209   7.964
  326POPC   C4A 7638  33.847  32.276   7.664
  326POPC   C1B 7639  34.020  32.352   8.564
  326POPC   C2B 7640  33.990  32.360   8.264
  326POPC   C3B 7641  34.049  32.421   7.964
  326POPC   C4B 7642  33.954  32.361   7.664
  327POPC   NC3 7643   8.182  40.041   9.464
  327POPC   PO4 7644   8.212  40.027   9.164
  327POPC   GL1 7645   8.208  40.010   8.864
  327POPC   GL2 7646   8.055  39.970   8.864
  327POPC   C1A 7647   8.154  39.979   8.564
  327POPC   D2A 7648   8.189  39.965   8.264
  327POPC   C3A 7649   8.174  39.968   7.964
  327POPC   C4A 7650   8.219  40.021   7.664
  327POPC   C1B 7651   7.925  40.051   8.564
  327POPC   C2B 7652   7.973  40.064   8.264
  327POPC   C3B 7653   7.952  40.060   7.964
  327POPC   C4B 7654   7.937  39.977   7.664
  328POPC   NC3 7655   8.183  43.154   9.464
  328POPC   PO4 7656   8.222  43.067   9.164
  328POPC   GL1 7657   8.245  43.097   8.864
  328POPC   GL2 7658   8.052  43.084   8.864
  328POPC   C1A 7659   8.232  43.133   8.564
  328POPC   D2A 7660   8.242  43.122   8.264
  328POPC   C3A 7661   8.187  43.141   7.964
  328POPC   C4A 7662   8.151  43.064   7.664
  328POPC   C1B 7663   7.903  43.110   8.564
  328POPC   C2B 7664   7.955  43.056   8.264
  328POPC   C3B 7665   7.965  43.072   7.964
  328POPC   C4B 7666   7.994  43.060   7.664
  329POPC   NC3 7667  36.918  21.407   9.464
  329POPC   PO4 7668  36.866  21.423   9.164
  329POPC   GL1 7669  36.894  21.373   8.864
  329POPC   GL2 7670  36.924  21.279   8.864
  329POPC   C1A 7671  36.873  21.385   8.564
  329POPC   D2A 7672  36.879  21.355   8.264
  329POPC   C3A 7673  36.898  21.388   7.964
  329POPC   C4A 7674  36.908  21.433   7.664
  329POPC   C1B 7675  36.895  21.136   8.564
  329POPC   C2B 7676  36.865  21.135   8.264
  329POPC   C3B 7677  36.893  21.109   7.964
  329POPC   C4B 7678  36.856  21.185   7.664
  330POPC   NC3 7679   3.513  23.762   9.464
  330POPC   PO4 7680   3.581  23.682   9.164
  330POPC   GL1 7681   3.558  23.761   8.864
  330POPC   GL2 7682   3.452  23.717   8.864
  330POPC   C1A 7683   3.493  23.688   8.564
  330POPC   D2A 7684   3.501  23.756   8.264
  330POPC   C3A 7685   3.571  23.677   7.964
  330POPC   C4A 7686   3.585  23.763   7.664
  330POPC   C1B 7687   3.270  23.736   8.564
  330POPC   C2B 7688   3.341  23.655   8.264
  330POPC   C3B 7689   3.265  23.672   7.964
  330POPC   C4B 7690   3.287  23.684   7.664
  331POPC   NC3 7691  20.579  34.541   9.464
  331POPC   PO4 7692  20.649  34.546   9.164
  331POPC   GL1 7693  20.596  34.623   8.864
  331POPC   GL2 7694  20.609  34.438   8.864
  331POPC   C1A 7695  20.595  34.620   8.564
  331POPC   D2A 7696  20.632  34.593   8.264
  331POPC   C3A 7697  20.635  34.579   7.964
  331POPC   C4A 7698  20.635  34.613   7.664
  331POPC   C1B 7699  20.723  34.318   8.564
  331POPC   C2B 7700  20.671  34.292   8.264
  331POPC   C3B 7701  20.635  34.297   7.964
  331POPC   C4B 7702  20.647  34.350   7.664
  332POPC   NC3 7703  28.345  13.661   9.464
  332POPC   PO4 7704  28.358  13.579   9.164
  332POPC   GL1 7705  28.358  13.669   8.864
  332POPC   GL2 7706  28.476  13.691   8.864
  332POPC   C1A 7707  28.361  13.585   8.564
  332POPC   D2A 7708  28.354  13.659   8.264
  332POPC   C3A 7709  28.403  13.578   7.964
  332POPC   C4A 7710  28.374  13.629   7.664
  332POPC   C1B 7711  28.580  13.846   8.564
  332POPC   C2B 7712  28.594  13.839   8.264
  332POPC   C3B 7713  28.556  13.839   7.964
  332POPC   C4B 7714  28.538  13.798   7.664
  333POPC   NC3 7715   1.179   5.888   9.464
  333POPC   PO4 7716   1.207   5.841   9.164
  333POPC   GL1 7717   1.171   5.843   8.864
  333POPC   GL2 7718   1.185   5.746   8.864
  333POPC   C1A 7719   1.251   5.877   8.564
  333POPC   D2A 7720   1.196   5.827   8.264
  333POPC   C3A 7721   1.218   5.840   7.964
  333POPC   C4A 7722   1.204   5.846   7.664
  333POPC   C1B 7723   1.266   5.570   8.564
  333POPC   C2B 7724   1.272   5.580   8.264
  333POPC   C3B 7725   1.188   5.642   7.964
  333POPC   C4B 7726   1.179   5.609   7.664
  334POPC   NC3 7727  39.207  15.977   9.464
  334POPC   PO4 7728  39.266  15.926   9.164
  334POPC   GL1 7729  39.181  15.984   8.864
  334POPC   GL2 7730  39.192  15.867   8.864
  334POPC   C1A 7731  39.209  15.932   8.564
  334POPC   D2A 7732  39.225  15.920   8.264
  334POPC   C3A 7733  39.244  15.976   7.964
  334POPC   C4A 7734  39.227  15.954   7.664
  334POPC   C1B 7735  39.180  15.717   8.564
  334POPC   C2B 7736  39.150  15.704   8.264
  334POPC   C3B 7737  39.148  15.753   7.964
  334POPC   C4B 7738  39.199  15.705   7.664
  335POPC   NC3 7739  30.716  13.625   9.464
  335POPC   PO4 7740  30.747  13.638   9.164
  335POPC   GL1 7741  30.706  13.603   8.864
  335POPC   GL2 7742  30.627  13.674   8.864
  335POPC   C1A 7743  30.670  13.643   8.564
  335POPC   D2A 7744  30.723  13.584   8.264
  335POPC   C3A 7745  30.681  13.604   7.964
  335POPC   C4A 7746  30.701  13.659   7.664
  335POPC   C1B 7747  30.415  13.696   8.564
  335POPC   C2B 7748  30.500  13.667   8.264
  335POPC   C3B 7749  30.470  13.675   7.964
  335POPC   C4B 7750  30.416  13.705   7.664
  336POPC   NC3 7751  40.778  43.092   9.464
  336POPC   PO4 7752  40.791  43.082   9.164
  336POPC   GL1 7753  40.742  43.140   8.864
  336POPC   GL2 7754  40.917  43.151   8.864
  336POPC   C1A 7755  40.774  43.128   8.564
  336POPC   D2A 7756  40.827  43.067   8.264
  336POPC   C3A 7757  40.761  43.121   7.964
  336POPC   C4A 7758  40.762  43.147   7.664
  336POPC   C1B 7759  41.030  43.248   8.564
  336POPC   C2B 7760  40.976  43.246   8.264
  336POPC   C3B 7761  40.947  43.294   7.964
  336POPC   C4B 7762  41.009  43.299   7.664
  337POPC   NC3 7763   9.717  33.844   9.464
  337POPC   PO4 7764   9.730  33.850   9.164
  337POPC   GL1 7765   9.714  33.753   8.864
  337POPC   GL2 7766   9.878  33.886   8.864
  337POPC   C1A 7767   9.749  33.796   8.564
  337POPC   D2A 7768   9.733  33.783   8.264
  337POPC   C3A 7769   9.750  33.804   7.964
  337POPC   C4A 7770   9.703  33.823   7.664
  337POPC   C1B 7771   9.915  33.945   8.564
  337POPC   C2B 7772   9.908  33.989   8.264
  337POPC   C3B 7773   9.960  33.981   7.964
  337POPC   C4B 7774   9.904  33.934   7.664
  338POPC   NC3 7775   2.740  29.909   9.464
  338POPC   PO4 7776   2.756  29.906   9.164
  338POPC   GL1 7777   2.775  29.911   8.864
  338POPC   GL2 7778   2.869  29.975   8.864
  338POPC   C1A 7779   2.728  29.916   8.564
  338POPC   D2A 7780   2.797  29.909   8.264
  338POPC   C3A 7781   2.720  29.894   7.964
  338POPC   C4A 7782   2.756  29.926   7.664
  338POPC   C1B 7783   2.992  30.019   8.564
  338POPC   C2B 7784   2.987  29.952   8.264
  338POPC   C3B 7785   2.984  29.979   7.964
  338POPC   C4B 7786   3.054  29.995   7.664
  339POPC   NC3 7787  29.137  20.571   9.464
  339POPC   PO4 7788  29.169  20.644   9.164
  339POPC   GL1 7789  29.137  20.561   8.864
  339POPC   GL2 7790  29.223  20.687   8.864
  339POPC   C1A 7791  29.140  20.568   8.564
  339POPC   D2A 7792  29.183  20.574   8.264
  339POPC   C3A 7793  29.176  20.585   7.964
  339POPC   C4A 7794  29.194  20.575   7.664
  339POPC   C1B 7795  29.371  20.699   8.564
  339POPC   C2B 7796  29.382  20.733   8.264
  339POPC   C3B 7797  29.326  20.711   7.964
  339POPC   C4B 7798  29.350  20.774   7.664
  340POPC   NC3 7799  17.476  29.122   9.464
  340POPC   PO4 7800  17.504  29.187   9.164
  340POPC   GL1 7801  17.501  29.107   8.864
  340POPC   GL2 7802  17.584  29.163   8.864
  340POPC   C1A 7803  17.500  29.147   8.564
  340POPC   D2A 7804  17.509  29.110   8.264
  340POPC   C3A 7805  17.469  29.115   7.964
  340POPC   C4A 7806  17.532  29.146   7.664
  340POPC   C1B 7807  17.727  29.246   8.564
  340POPC   C2B 7808  17.766  29.251   8.264
  340POPC   C3B 7809  17.797  29.166   7.964
  340POPC   C4B 7810  17.713  29.204   7.664
  341POPC   NC3 7811  21.357  35.380   9.464
  341POPC   PO4 7812  21.435  35.357   9.164
  341POPC   GL1 7813  21.364  35.355   8.864
  341POPC   GL2 7814  21.515  35.388   8.864
  341POPC   C1A 7815  21.435  35.351   8.564
  341POPC   D2A 7816  21.355  35.303   8.264
  341POPC   C3A 7817  21.383  35.318   7.964
  341POPC   C4A 7818  21.388  35.347   7.664
  341POPC   C1B 7819  21.619  35.352   8.564
  341POPC   C2B 7820  21.655  35.382   8.264
  341POPC   C3B 7821  21.677  35.382   7.964
  341POPC   C4B 7822  21.633  35.348   7.664
  342POPC   NC3 7823   8.224  18.313   9.464
  342POPC   PO4 7824   8.176  18.263   9.164
  342POPC   GL1 7825   8.224  18.237   8.864
  342POPC   GL2 7826   8.282  18.266   8.864
  342POPC   C1A 7827   8.168  18.308   8.564
  342POPC   D2A 7828   8.194  18.258   8.264
  342POPC   C3A 7829   8.210  18.322   7.964
  342POPC   C4A 7830   8.218  18.273   7.664
  342POPC   C1B 7831   8.422  18.133   8.564
  342POPC   C2B 7832   8.417  18.207   8.264
  342POPC   C3B 7833   8.457  18.167   7.964
  342POPC   C4B 7834   8.436  18.169   7.664
  343POPC   NC3 7835  16.740  33.842   9.464
  343POPC   PO4 7836  16.772  33.773   9.164
  343POPC   GL1 7837  16.770  33.800   8.864
  343POPC   GL2 7838  16.813  33.787   8.864
  343POPC   C1A 7839  16.751  33.828   8.564
  343POPC   D2A 7840  16.685  33.801   8.264
  343POPC   C3A 7841  16.729  33.752   7.964
  343POPC   C4A 7842  16.742  33.764   7.664
  343POPC   C1B 7843  16.993  33.759   8.564
  343POPC   C2B 7844  16.978  33.766   8.264
  343POPC   C3B 7845  16.983  33.754   7.964
  343POPC   C4B 7846  16.931  33.727   7.664
  344POPC   NC3 7847  39.199  29.159   9.464
  344POPC   PO4 7848  39.270  29.097   9.164
  344POPC   GL1 7849  39.204  29.121   8.864
  344POPC   GL2 7850  39.337  29.096   8.864
  344POPC   C1A 7851  39.275  29.189   8.564
  344POPC   D2A 7852  39.219  29.151   8.264
  344POPC   C3A 7853  39.237  29.169   7.964
  344POPC   C4A 7854  39.196  29.124   7.664
  344POPC   C1B 7855  39.468  29.055   8.564
  344POPC   C2B 7856  39.507  29.130   8.264
  344POPC   C3B 7857  39.437  29.133   7.964
  344POPC   C4B 7858  39.490  29.106   7.664
  345POPC   NC3 7859  35.370  29.106   9.464
  345POPC   PO4 7860  35.401  29.149   9.164
  345POPC   GL1 7861  35.358  29.153   8.864
  345POPC   GL2 7862  35.288  29.308   8.864
  345POPC   C1A 7863  35.378  29.133   8.564
  345POPC   D2A 7864  35.308  29.183   8.264
  345POPC   C3A 7865  35.363  29.127   7.964
  345POPC   C4A 7866  35.353  29.177   7.664
  345POPC   C1B 7867  35.212  29.385   8.564
  345POPC   C2B 7868  35.263  29.399   8.264
  345POPC   C3B 7869  35.238  29.368   7.964
  345POPC   C4B 7870  35.243  29.372   7.664
  346POPC   NC3 7871   9.736   1.250   9.464
  346POPC   PO4 7872   9.698   1.237   9.164
  346POPC   GL1 7873   9.740   1.166   8.864
  346POPC   GL2 7874   9.837   1.352   8.864
  346POPC   C1A 7875   9.766   1.187   8.564
  346POPC   D2A 7876   9.704   1.185   8.264
  346POPC   C3A 7877   9.795   1.176   7.964
  346POPC   C4A 7878   9.788   1.217   7.664
  346POPC   C1B 7879   9.880   1.455   8.564
  346POPC   C2B 7880   9.870   1.472   8.264
  346POPC   C3B 7881   9.858   1.407   7.964
  346POPC   C4B 7882   9.876   1.424   7.664
  347POPC   NC3 7883  26.860  24.442   9.464
  347POPC   PO4 7884  26.830  24.510   9.164
  347POPC   GL1 7885  26.786  24.506   8.864
  347POPC   GL2 7886  26.901  24.562   8.864
  347POPC   C1A 7887  26.793  24.452   8.564
  347POPC   D2A 7888  26.860  24.521   8.264
  347POPC   C3A 7889  26.840  24.495   7.964
  347POPC   C4A 7890  26.851  24.512   7.664
  347POPC   C1B 7891  27.032  24.710   8.564
  347POPC   C2B 7892  26.992  24.644   8.264
  347POPC   C3B 7893  27.003  24.701   7.964
  347POPC   C4B 7894  27.009  24.696   7.664
  348POPC   NC3 7895  36.148  40.027   9.464
  348POPC   PO4 7896  36.141  39.990   9.164
  348POPC   GL1 7897  36.140  40.025   8.864
  348POPC   GL2 7898  36.041  40.047   8.864
  348POPC   C1A 7899  36.143  40.032   8.564
  348POPC   D2A 7900  36.103  39.996   8.264
  348POPC   C3A 7901  36.112  40.005   7.964
  348POPC   C4A 7902  36.154  40.020   7.664
  348POPC   C1B 7903  35.886  40.058   8.564
  348POPC   C2B 7904  35.848  39.999   8.264
  348POPC   C3B 7905  35.913  40.035   7.964
  348POPC   C4B 7906  35.921  40.051   7.664
  349POPC   NC3 7907  40.023  27.560   9.464
  349POPC   PO4 7908  39.996  27.588   9.164
  349POPC   GL1 7909  39.983  27.545   8.864
  349POPC   GL2 7910  40.081  27.565   8.864
  349POPC   C1A 7911  39.981  27.595   8.564
  349POPC   D2A 7912  40.035  27.551   8.264
  349POPC   C3A 7913  40.046  27.554   7.964
  349POPC   C4A 7914  40.006  27.569   7.664
  349POPC   C1B 7915  40.264  27.535   8.564
  349POPC   C2B 7916  40.280  27.495   8.264
  349POPC   C3B 7917  40.282  27.541   7.964
  349POPC   C4B 7918  40.287  27.492   7.664
  350POPC   NC3 7919  32.232   1.212   9.464
  350POPC   PO4 7920  32.280   1.255   9.164
  350POPC   GL1 7921  32.270   1.200   8.864
  350POPC   GL2 7922  32.108   1.262   8.864
  350POPC   C1A 7923  32.214   1.209   8.564
  350POPC   D2A 7924  32.206   1.257   8.264
  350POPC   C3A 7925  32.216   1.249   7.964
  350POPC   C4A 7926  32.241   1.232   7.664
  350POPC   C1B 7927  31.957   1.281   8.564
  350POPC   C2B 7928  31.969   1.224   8.264
  350POPC   C3B 7929  32.025   1.275   7.964
  350POPC   C4B 7930  32.040   1.280   7.664
  351POPC   NC3 7931  22.178  34.620   9.464
  351POPC   PO4 7932  22.167  34.537   9.164
  351POPC   GL1 7933  22.135  34.613   8.864
  351POPC   GL2 7934  22.015  34.629   8.864
  351POPC   C1A 7935  22.179  34.617   8.564
  351POPC   D2A 7936  22.124  34.557   8.264
  351POPC   C3A 7937  22.211  34.601   7.964
  351POPC   C4A 7938  22.136  34.626   7.664
  351POPC   C1B 7939  21.959  34.676   8.564
  351POPC   C2B 7940  21.897  34.640   8.264
  351POPC   C3B 7941  21.920  34.683   7.964
  351POPC   C4B 7942  21.947  34.628   7.664
  352POPC   NC3 7943  15.940   9.754   9.464
  352POPC   PO4 7944  15.986   9.701   9.164
  352POPC   GL1 7945  15.946   9.766   8.864
  352POPC   GL2 7946  16.007   9.819   8.864
  352POPC   C1A 7947  15.980   9.773   8.564
  352POPC   D2A 7948  15.944   9.716   8.264
  352POPC   C3A 7949  15.912   9.700   7.964
  352POPC   C4A 7950  15.974   9.788   7.664
  352POPC   C1B 7951  16.045   9.962   8.564
  352POPC   C2B 7952  16.060   9.960   8.264
  352POPC   C3B 7953  16.105   9.976   7.964
  352POPC   C4B 7954  16.069  10.007   7.664
  353POPC   NC3 7955  34.553  42.346   9.464
  353POPC   PO4 7956  34.588  42.343   9.164
  353POPC   GL1 7957  34.612  42.332   8.864
  353POPC   GL2 7958  34.508  42.267   8.864
  353POPC   C1A 7959  34.595  42.322   8.564
  353POPC   D2A 7960  34.603  42.384   8.264
  353POPC   C3A 7961  34.597  42.378   7.964
  353POPC   C4A 7962  34.585  42.347   7.664
  353POPC   C1B 7963  34.380  42.168   8.564
  353POPC   C2B 7964  34.385  42.160   8.264
  353POPC   C3B 7965  34.382  42.240   7.964
  353POPC   C4B 7966  34.392  42.232   7.664
  354POPC   NC3 7967  36.100   3.556   9.464
  354POPC   PO4 7968  36.084   3.506   9.164
  354POPC   GL1 7969  36.089   3.537   8.864
  354POPC   GL2 7970  36.223   3.483   8.864
  354POPC   C1A 7971  36.094   3.585   8.564
  354POPC   D2A 7972  36.147   3.516   8.264
  354POPC   C3A 7973  36.159   3.531   7.964
  354POPC   C4A 7974  36.130   3.535   7.664
  354POPC   C1B 7975  36.330   3.473   8.564
  354POPC   C2B 7976  36.373   3.534   8.264
  354POPC   C3B 7977  36.412   3.514   7.964
  354POPC   C4B 7978  36.397   3.517   7.664
  355POPC   NC3 7979   5.868  38.505   9.464
  355POPC   PO4 7980   5.835  38.426   9.164
  355POPC   GL1 7981   5.884  38.457   8.864
  355POPC   GL2 7982   5.832  38.580   8.864
  355POPC   C1A 7983   5.842  38.443   8.564
  355POPC   D2A 7984   5.837  38.412   8.264
  355POPC   C3A 7985   5.911  38.485   7.964
  355POPC   C4A 7986   5.825  38.432   7.664
  355POPC   C1B 7987   5.837  38.682   8.564
  355POPC   C2B 7988   5.910  38.710   8.264
  355POPC   C3B 7989   5.853  38.667   7.964
  355POPC   C4B 7990   5.868  38.673   7.664
  356POPC   NC3 7991   9.722  43.080   9.464
  356POPC   PO4 7992   9.768  43.109   9.164
  356POPC   GL1 7993   9.760  43.135   8.864
  356POPC   GL2 7994   9.808  43.205   8.864
  356POPC   C1A 7995   9.778  43.067   8.564
  356POPC   D2A 7996   9.781  43.100   8.264
  356POPC   C3A 7997   9.771  43.135   7.964
  356POPC   C4A 7998   9.753  43.099   7.664
  356POPC   C1B 7999   9.907  43.275   8.564
  356POPC   C2B 8000  10.003  43.219   8.264
  356POPC   C3B 8001   9.999  43.284   7.964
  356POPC   C4B 8002   9.948  43.281   7.664
  357POPC   NC3 8003  37.686  25.273   9.464
  357POPC   PO4 8004  37.697  25.286   9.164
  357POPC   GL1 8005  37.639  25.297   8.864
  357POPC   GL2 8006  37.768  25.365   8.864
  357POPC   C1A 8007  37.634  25.285   8.564
  357POPC   D2A 8008  37.716  25.254   8.264
  357POPC   C3A 8009  37.677  25.311   7.964
  357POPC   C4A 8010  37.687  25.290   7.664
  357POPC   C1B 8011  37.834  25.523   8.564
  357POPC   C2B 8012  37.821  25.454   8.264
  357POPC   C3B 8013  37.745  25.508   7.964
  357POPC   C4B 8014  37.745  25.517   7.664
  358POPC   NC3 8015  23.724  38.476   9.464
  358POPC   PO4 8016  23.734  38.412   9.164
  358POPC   GL1 8017  23.693  38.414   8.864
  358POPC   GL2 8018  23.597  38.462   8.864
  358POPC   C1A 8019  23.737  38.414   8.564
  358POPC   D2A 8020  23.685  38.470   8.264
  358POPC   C3A 8021  23.672  38.449   7.964
  358POPC   C4A 8022  23.722  38.453   7.664
  358POPC   C1B 8023  23.470  38.534   8.564
  358POPC   C2B 8024  23.450  38.516   8.264
  358POPC   C3B 8025  23.524  38.565   7.964
  358POPC   C4B 8026  23.480  38.557   7.664
  359POPC   NC3 8027  37.725  23.752   9.464
  359POPC   PO4 8028  37.658  23.754   9.164
  359POPC   GL1 8029  37.682  23.762   8.864
  359POPC   GL2 8030  37.601  23.755   8.864
  359POPC   C1A 8031  37.641  23.711   8.564
  359POPC   D2A 8032  37.715  23.721   8.264
  359POPC   C3A 8033  37.672  23.715   7.964
  359POPC   C4A 8034  37.672  23.686   7.664
  359POPC   C1B 8035  37.441  23.838   8.564
  359POPC   C2B 8036  37.441  23.798   8.264
  359POPC   C3B 8037  37.445  23.840   7.964
  359POPC   C4B 8038  37.431  23.788   7.664
  360POPC   NC3 8039  41.535  12.868   9.464
  360POPC   PO4 8040  41.544  12.883   9.164
  360POPC   GL1 8041  41.529  12.868   8.864
  360POPC   GL2 8042  41.494  12.961   8.864
  360POPC   C1A 8043  41.583  12.849   8.564
  360POPC   D2A 8044  41.602  12.874   8.264
  360POPC   C3A 8045  41.550  12.820   7.964
  360POPC   C4A 8046  41.540  12.839   7.664
  360POPC   C1B 8047  41.353  13.029   8.564
  360POPC   C2B 8048  41.352  13.051   8.264
  360POPC   C3B 8049  41.427  13.032   7.964
  360POPC   C4B 8050  41.390  13.016   7.664
  361POPC   NC3 8051   2.810  33.829   9.464
  361POPC   PO4 8052   2.731  33.843   9.164
  361POPC   GL1 8053   2.809  33.810   8.864
  361POPC   GL2 8054   2.825  33.711   8.864
  361POPC   C1A 8055   2.738  33.778   8.564
  361POPC   D2A 8056   2.743  33.777   8.264
  361POPC   C3A 8057   2.786  33.756   7.964
  361POPC   C4A 8058   2.729  33.781   7.664
  361POPC   C1B 8059   2.902  33.585   8.564
  361POPC   C2B 8060   2.907  33.638   8.264
  361POPC   C3B 8061   2.944  33.578   7.964
  361POPC   C4B 8062   2.892  33.609   7.664
  362POPC   NC3 8063  27.598   1.223   9.464
  362POPC   PO4 8064  27.545   1.257   9.164
  362POPC   GL1 8065  27.596   1.183   8.864
  362POPC   GL2 8066  27.522   1.154   8.864
  362POPC   C1A 8067  27.587   1.183   8.564
  362POPC   D2A 8068  27.631   1.187   8.264
  362POPC   C3A 8069  27.617   1.200   7.964
  362POPC   C4A 8070  27.609   1.168   7.664
  362POPC   C1B 8071  27.341   1.053   8.564
  362POPC   C2B 8072  27.328   1.073   8.264
  362POPC   C3B 8073  27.380   1.076   7.964
  362POPC   C4B 8074  27.398   1.050   7.664
  363POPC   NC3 8075  12.863  33.773   9.464
  363POPC   PO4 8076  12.845  33.815   9.164
  363POPC   GL1 8077  12.881  33.848   8.864
  363POPC   GL2 8078  12.933  33.870   8.864
  363POPC   C1A 8079  12.900  33.834   8.564
  363POPC   D2A 8080  12.862  33.764   8.264
  363POPC   C3A 8081  12.875  33.793   7.964
  363POPC   C4A 8082  12.890  33.763   7.664
  363POPC   C1B 8083  12.984  34.031   8.564
  363POPC   C2B 8084  13.064  33.953   8.264
  363POPC   C3B 8085  13.019  34.025   7.964
  363POPC   C4B 8086  12.976  33.934   7.664
  364POPC   NC3 8087  15.934   5.092   9.464
  364POPC   PO4 8088  15.934   5.048   9.164
  364POPC   GL1 8089  15.938   5.084   8.864
  364POPC   GL2 8090  15.814   5.162   8.864
  364POPC   C1A 8091  15.990   5.090   8.564
  364POPC   D2A 8092  15.923   5.091   8.264
  364POPC   C3A 8093  15.975   5.101   7.964
  364POPC   C4A 8094  15.928   5.109   7.664
  364POPC   C1B 8095  15.705   5.214   8.564
  364POPC   C2B 8096  15.788   5.206   8.264
  364POPC   C3B 8097  15.724   5.188   7.964
  364POPC   C4B 8098  15.741   5.212   7.664
  365POPC   NC3 8099   9.768  36.141   9.464
  365POPC   PO4 8100   9.797  36.173   9.164
  365POPC   GL1 8101   9.735  36.090   8.864
  365POPC   GL2 8102   9.754  36.017   8.864
  365POPC   C1A 8103   9.769  36.146   8.564
  365POPC   D2A 8104   9.706  36.088   8.264
  365POPC   C3A 8105   9.779  36.140   7.964
  365POPC   C4A 8106   9.775  36.090   7.664
  365POPC   C1B 8107   9.869  35.934   8.564
  365POPC   C2B 8108   9.885  35.905   8.264
  365POPC   C3B 8109   9.795  35.850   7.964
  365POPC   C4B 8110   9.879  35.847   7.664
  366POPC   NC3 8111   3.498  36.107   9.464
  366POPC   PO4 8112   3.510  36.137   9.164
  366POPC   GL1 8113   3.574  36.078   8.864
  366POPC   GL2 8114   3.428  36.048   8.864
  366POPC   C1A 8115   3.520  36.102   8.564
  366POPC   D2A 8116   3.577  36.078   8.264
  366POPC   C3A 8117   3.502  36.123   7.964
  366POPC   C4A 8118   3.521  36.087   7.664
  366POPC   C1B 8119   3.450  35.913   8.564
  366POPC   C2B 8120   3.415  35.881   8.264
  366POPC   C3B 8121   3.434  35.867   7.964
  366POPC   C4B 8122   3.387  35.936   7.664
  367POPC   NC3 8123  18.244  35.402   9.464
  367POPC   PO4 8124  18.266  35.382   9.164
  367POPC   GL1 8125  18.278  35.360   8.864
  367POPC   GL2 8126  18.251  35.275   8.864
  367POPC   C1A 8127  18.283  35.379   8.564
  367POPC   D2A 8128  18.275  35.350   8.264
  367POPC   C3A 8129  18.284  35.331   7.964
  367POPC   C4A 8130  18.272  35.366   7.664
  367POPC   C1B 8131  18.233  35.126   8.564
  367POPC   C2B 8132  18.218  35.072   8.264
  367POPC   C3B 8133  18.256  35.121   7.964
  367POPC   C4B 8134  18.263  35.106   7.664
  368POPC   NC3 8135  17.486  22.141   9.464
  368POPC   PO4 8136  17.485  22.162   9.164
  368POPC   GL1 8137  17.531  22.143   8.864
  368POPC   GL2 8138  17.502  22.296   8.864
  368POPC   C1A 8139  17.485  22.146   8.564
  368POPC   D2A 8140  17.461  22.113   8.264
  368POPC   C3A 8141  17.556  22.155   7.964
  368POPC   C4A 8142  17.458  22.129   7.664
  368POPC   C1B 8143  17.426  22.364   8.564
  368POPC   C2B 8144  17.480  22.382   8.264
  368POPC   C3B 8145  17.461  22.433   7.964
  368POPC   C4B 8146  17.455  22.376   7.664
  369POPC   NC3 8147  36.096  28.324   9.464
  369POPC   PO4 8148  36.117  28.353   9.164
  369POPC   GL1 8149  36.157  28.376   8.864
  369POPC   GL2 8150  36.157  28.503   8.864
  369POPC   C1A 8151  36.151  28.349   8.564
  369POPC   D2A 8152  36.125  28.371   8.264
  369POPC   C3A 8153  36.167  28.402   7.964
  369POPC   C4A 8154  36.119  28.416   7.664
  369POPC   C1B 8155  36.262  28.610   8.564
  369POPC   C2B 8156  36.229  28.612   8.264
  369POPC   C3B 8157  36.290  28.597   7.964
  369POPC   C4B 8158  36.287  28.561   7.664
  370POPC   NC3 8159  15.170  29.909   9.464
  370POPC   PO4 8160  15.221  29.893   9.164
  370POPC   GL1 8161  15.144  29.957   8.864
  370POPC   GL2 8162  15.306  29.870   8.864
  370POPC   C1A 8163  15.162  29.899   8.564
  370POPC   D2A 8164  15.169  29.971   8.264
  370POPC   C3A 8165  15.174  29.923   7.964
  370POPC   C4A 8166  15.226  29.881   7.664
  370POPC   C1B 8167  15.443  29.796   8.564
  370POPC   C2B 8168  15.410  29.795   8.264
  370POPC   C3B 8169  15.411  29.768   7.964
  370POPC   C4B 8170  15.436  29.795   7.664
  371POPC   NC3 8171  41.605  31.505   9.464
  371POPC   PO4 8172  41.523  31.445   9.164
  371POPC   GL1 8173  41.574  31.474   8.864
  371POPC   GL2 8174  41.557  31.558   8.864
  371POPC   C1A 8175  41.568  31.434   8.564
  371POPC   D2A 8176  41.518  31.508   8.264
  371POPC   C3A 8177  41.603  31.437   7.964
  371POPC   C4A 8178  41.555  31.500   7.664
  371POPC   C1B 8179  41.446  31.724   8.564
  371POPC   C2B 8180  41.515  31.655   8.264
  371POPC   C3B 8181  41.504  31.662   7.964
  371POPC   C4B 8182  41.481  31.751   7.664
  372POPC   NC3 8183  44.631  29.967   9.464
  372POPC   PO4 8184  44.705  29.912   9.164
  372POPC   GL1 8185  44.647  29.899   8.864
  372POPC   GL2 8186  44.544  29.845   8.864
  372POPC   C1A 8187  44.621  29.871   8.564
  372POPC   D2A 8188  44.679  29.905   8.264
  372POPC   C3A 8189  44.712  29.942   7.964
  372POPC   C4A 8190  44.638  29.909   7.664
  372POPC   C1B 8191  44.490  29.813   8.564
  372POPC   C2B 8192  44.437  29.753   8.264
  372POPC   C3B 8193  44.409  29.839   7.964
  372POPC   C4B 8194  44.469  29.794   7.664
  373POPC   NC3 8195  40.830  31.466   9.464
  373POPC   PO4 8196  40.778  31.491   9.164
  373POPC   GL1 8197  40.825  31.454   8.864
  373POPC   GL2 8198  40.764  31.409   8.864
  373POPC   C1A 8199  40.771  31.504   8.564
  373POPC   D2A 8200  40.829  31.481   8.264
  373POPC   C3A 8201  40.759  31.470   7.964
  373POPC   C4A 8202  40.751  31.437   7.664
  373POPC   C1B 8203  40.644  31.260   8.564
  373POPC   C2B 8204  40.609  31.222   8.264
  373POPC   C3B 8205  40.608  31.305   7.964
  373POPC   C4B 8206  40.684  31.274   7.664
  374POPC   NC3 8207  30.696  28.389   9.464
  374POPC   PO4 8208  30.698  28.324   9.164
  374POPC   GL1 8209  30.725  28.417   8.864
  374POPC   GL2 8210  30.745  28.292   8.864
  374POPC   C1A 8211  30.735  28.326   8.564
  374POPC   D2A 8212  30.686  28.375   8.264
  374POPC   C3A 8213  30.696  28.409   7.964
  374POPC   C4A 8214  30.727  28.326   7.664
  374POPC   C1B 8215  30.757  28.172   8.564
  374POPC   C2B 8216  30.815  28.172   8.264
  374POPC   C3B 8217  30.816  28.166   7.964
  374POPC   C4B 8218  30.820  28.142   7.664
  375POPC   NC3 8219  36.086  20.574   9.464
  375POPC   PO4 8220  36.133  20.611   9.164
  375POPC   GL1 8221  36.105  20.637   8.864
  375POPC   GL2 8222  36.221  20.542   8.864
  375POPC   C1A 8223  36.161  20.590   8.564
  375POPC   D2A 8224  36.116  20.615   8.264
  375POPC   C3A 8225  36.165  20.577   7.964
  375POPC   C4A 8226  36.165  20.603   7.664
  375POPC   C1B 8227  36.311  20.437   8.564
  375POPC   C2B 8228  36.326  20.452   8.264
  375POPC   C3B 8229  36.358  20.456   7.964
  375POPC   C4B 8230  36.356  20.474   7.664
  376POPC   NC3 8231  15.170  26.788   9.464
  376POPC   PO4 8232  15.194  26.820   9.164
  376POPC   GL1 8233  15.133  26.827   8.864
  376POPC   GL2 8234  15.145  26.953   8.864
  376POPC   C1A 8235  15.216  26.861   8.564
  376POPC   D2A 8236  15.166  26.844   8.264
  376POPC   C3A 8237  15.139  26.796   7.964
  376POPC   C4A 8238  15.145  26.826   7.664
  376POPC   C1B 8239  15.135  27.100   8.564
  376POPC   C2B 8240  15.082  27.037   8.264
  376POPC   C3B 8241  15.129  27.075   7.964
  376POPC   C4B 8242  15.089  27.013   7.664
  377POPC   NC3 8243  17.483   9.699   9.464
  377POPC   PO4 8244  17.469   9.763   9.164
  377POPC   GL1 8245  17.483   9.707   8.864
  377POPC   GL2 8246  17.390   9.811   8.864
  377POPC   C1A 8247  17.517   9.708   8.564
  377POPC   D2A 8248  17.531   9.709   8.264
  377POPC   C3A 8249  17.472   9.747   7.964
  377POPC   C4A 8250  17.536   9.715   7.664
  377POPC   C1B 8251  17.381   9.923   8.564
  377POPC   C2B 8252  17.392   9.954   8.264
  377POPC   C3B 8253  17.338   9.991   7.964
  377POPC   C4B 8254  17.358   9.934   7.664
  378POPC   NC3 8255  18.286  11.263   9.464
  378POPC   PO4 8256  18.235  11.284   9.164
  378POPC   GL1 8257  18.287  11.327   8.864
  378POPC   GL2 8258  18.369  11.415   8.864
  378POPC   C1A 8259  18.263  11.309   8.564
  378POPC   D2A 8260  18.313  11.324   8.264
  378POPC   C3A 8261  18.322  11.257   7.964
  378POPC   C4A 8262  18.320  11.261   7.664
  378POPC   C1B 8263  18.406  11.470   8.564
  378POPC   C2B 8264  18.463  11.536   8.264
  378POPC   C3B 8265  18.437  11.456   7.964
  378POPC   C4B 8266  18.407  11.543   7.664
  379POPC   NC3 8267  43.869  35.392   9.464
  379POPC   PO4 8268  43.896  35.383   9.164
  379POPC   GL1 8269  43.864  35.379   8.864
  379POPC   GL2 8270  43.728  35.379   8.864
  379POPC   C1A 8271  43.891  35.346   8.564
  379POPC   D2A 8272  43.876  35.311   8.264
  379POPC   C3A 8273  43.863  35.340   7.964
  379POPC   C4A 8274  43.839  35.338   7.664
  379POPC   C1B 8275  43.631  35.447   8.564
  379POPC   C2B 8276  43.608  35.424   8.264
  379POPC   C3B 8277  43.656  35.406   7.964
  379POPC   C4B 8278  43.621  35.469   7.664
  380POPC   NC3 8279   5.912  29.913   9.464
  380POPC   PO4 8280   5.908  29.934   9.164
  380POPC   GL1 8281   5.836  29.953   8.864
  380POPC   GL2 8282   5.997  29.817   8.864
  380POPC   C1A 8283   5.876  29.924   8.564
  380POPC   D2A 8284   5.841  29.893   8.264
  380POPC   C3A 8285   5.856  29.957   7.964
  380POPC   C4A 8286   5.828  29.923   7.664
  380POPC   C1B 8287   6.093  29.785   8.564
  380POPC   C2B 8288   6.039  29.793   8.264
  380POPC   C3B 8289   6.083  29.745   7.964
  380POPC   C4B 8290   6.065  29.756   7.664
  381POPC   NC3 8291  19.028  14.362   9.464
  381POPC   PO4 8292  19.105  14.414   9.164
  381POPC   GL1 8293  19.101  14.385   8.864
  381POPC   GL2 8294  18.946  14.458   8.864
  381POPC   C1A 8295  19.053  14.414   8.564
  381POPC   D2A 8296  19.018  14.399   8.264
  381POPC   C3A 8297  19.106  14.360   7.964
  381POPC   C4A 8298  19.069  14.404   7.664
  381POPC   C1B 8299  18.875  14.514   8.564
  381POPC   C2B 8300  18.814  14.539   8.264
  381POPC   C3B 8301  18.869  14.553   7.964
  381POPC   C4B 8302  18.803  14.493   7.664
  382POPC   NC3 8303  12.069  12.117   9.464
  382POPC   PO4 8304  12.063  12.063   9.164
  382POPC   GL1 8305  12.048  12.090   8.864
  382POPC   GL2 8306  12.132  11.950   8.864
  382POPC   C1A 8307  12.078  12.111   8.564
  382POPC   D2A 8308  12.056  12.121   8.264
  382POPC   C3A 8309  12.036  12.046   7.964
  382POPC   C4A 8310  12.069  12.055   7.664
  382POPC   C1B 8311  12.119  11.873   8.564
  382POPC   C2B 8312  12.157  11.873   8.264
  382POPC   C3B 8313  12.193  11.807   7.964
  382POPC   C4B 8314  12.181  11.866   7.664
  383POPC   NC3 8315  29.097   7.431   9.464
  383POPC   PO4 8316  29.167   7.372   9.164
  383POPC   GL1 8317  29.151   7.459   8.864
  383POPC   GL2 8318  29.138   7.531   8.864
  383POPC   C1A 8319  29.121   7.411   8.564
  383POPC   D2A 8320  29.189   7.449   8.264
  383POPC   C3A 8321  29.176   7.392   7.964
  383POPC   C4A 8322  29.099   7.381   7.664
  383POPC   C1B 8323  29.150   7.663   8.564
  383POPC   C2B 8324  29.210   7.702   8.264
  383POPC   C3B 8325  29.191   7.639   7.964
  383POPC   C4B 8326  29.178   7.639   7.664
  384POPC   NC3 8327  10.516  15.967   9.464
  384POPC   PO4 8328  10.511  15.949   9.164
  384POPC   GL1 8329  10.514  15.933   8.864
  384POPC   GL2 8330  10.543  15.872   8.864
  384POPC   C1A 8331  10.528  15.982   8.564
  384POPC   D2A 8332  10.529  15.999   8.264
  384POPC   C3A 8333  10.497  15.915   7.964
  384POPC   C4A 8334  10.549  15.995   7.664
  384POPC   C1B 8335  10.675  15.771   8.564
  384POPC   C2B 8336  10.621  15.767   8.264
  384POPC   C3B 8337  10.650  15.784   7.964
  384POPC   C4B 8338  10.697  15.745   7.664
  385POPC   NC3 8339   5.130  21.435   9.464
  385POPC   PO4 8340   5.116  21.359   9.164
  385POPC   GL1 8341   5.106  21.373   8.864
  385POPC   GL2 8342   4.932  21.330   8.864
  385POPC   C1A 8343   5.077  21.433   8.564
  385POPC   D2A 8344   5.126  21.343   8.264
  385POPC   C3A 8345   5.064  21.418   7.964
  385POPC   C4A 8346   5.065  21.409   7.664
  385POPC   C1B 8347   4.864  21.306   8.564
  385POPC   C2B 8348   4.888  21.288   8.264
  385POPC   C3B 8349   4.803  21.313   7.964
  385POPC   C4B 8350   4.826  21.288   7.664
  386POPC   NC3 8351  36.951  25.289   9.464
  386POPC   PO4 8352  36.875  25.282   9.164
  386POPC   GL1 8353  36.889  25.245   8.864
  386POPC   GL2 8354  36.813  25.361   8.864
  386POPC   C1A 8355  36.887  25.245   8.564
  386POPC   D2A 8356  36.887  25.245   8.264
  386POPC   C3A 8357  36.927  25.263   7.964
  386POPC   C4A 8358  36.914  25.252   7.664
  386POPC   C1B 8359  36.743  25.486   8.564
  386POPC   C2B 8360  36.716  25.459   8.264
  386POPC   C3B 8361  36.782  25.442   7.964
  386POPC   C4B 8362  36.794  25.454   7.664
  387POPC   NC3 8363  25.997  24.456   9.464
  387POPC   PO4 8364  26.071  24.515   9.164
  387POPC   GL1 8365  26.012  24.475   8.864
  387POPC   GL2 8366  25.882  24.470   8.864
  387POPC   C1A 8367  26.028  24.535   8.564
  387POPC   D2A 8368  26.051  24.535   8.264
  387POPC   C3A 8369  26.040  24.448   7.964
  387POPC   C4A 8370  26.015  24.519   7.664
  387POPC   C1B 8371  25.758  24.502   8.564
  387POPC   C2B 8372  25.822  24.520   8.264
  387POPC   C3B 8373  25.788  24.536   7.964
  387POPC   C4B 8374  25.751  24.537   7.664
  388POPC   NC3 8375  27.636   2.815   9.464
  388POPC   PO4 8376  27.610   2.719   9.164
  388POPC   GL1 8377  27.576   2.727   8.864
  388POPC   GL2 8378  27.597   2.667   8.864
  388POPC   C1A 8379  27.609   2.728   8.564
  388POPC   D2A 8380  27.547   2.798   8.264
  388POPC   C3A 8381  27.566   2.766   7.964
  388POPC   C4A 8382  27.639   2.790   7.664
  388POPC   C1B 8383  27.616   2.482   8.564
  388POPC   C2B 8384  27.596   2.501   8.264
  388POPC   C3B 8385  27.661   2.474   7.964
  388POPC   C4B 8386  27.662   2.476   7.664
  389POPC   NC3 8387   5.107  43.101   9.464
  389POPC   PO4 8388   5.138  43.145   9.164
  389POPC   GL1 8389   5.137  43.095   8.864
  389POPC   GL2 8390   5.019  42.975   8.864
  389POPC   C1A 8391   5.051  43.081   8.564
  389POPC   D2A 8392   5.097  43.076   8.264
  389POPC   C3A 8393   5.085  43.141   7.964
  389POPC   C4A 8394   5.054  43.085   7.664
  389POPC   C1B 8395   5.007  42.944   8.564
  389POPC   C2B 8396   4.945  42.861   8.264
  389POPC   C3B 8397   5.003  42.909   7.964
  389POPC   C4B 8398   5.008  42.873   7.664
  390POPC   NC3 8399  36.148  26.789   9.464
  390POPC   PO4 8400  36.081  26.773   9.164
  390POPC   GL1 8401  36.119  26.864   8.864
  390POPC   GL2 8402  36.296  26.831   8.864
  390POPC   C1A 8403  36.129  26.774   8.564
  390POPC   D2A 8404  36.133  26.796   8.264
  390POPC   C3A 8405  36.124  26.772   7.964
  390POPC   C4A 8406  36.162  26.786   7.664
  390POPC   C1B 8407  36.422  26.768   8.564
  390POPC   C2B 8408  36.394  26.803   8.264
  390POPC   C3B 8409  36.398  26.840   7.964
  390POPC   C4B 8410  36.413  26.820   7.664
  391POPC   NC3 8411   9.777  19.853   9.464
  391POPC   PO4 8412   9.747  19.786   9.164
  391POPC   GL1 8413   9.764  19.811   8.864
  391POPC   GL2 8414   9.870  19.883   8.864
  391POPC   C1A 8415   9.741  19.795   8.564
  391POPC   D2A 8416   9.705  19.845   8.264
  391POPC   C3A 8417   9.735  19.878   7.964
  391POPC   C4A 8418   9.731  19.800   7.664
  391POPC   C1B 8419   9.967  19.860   8.564
  391POPC   C2B 8420   9.970  19.862   8.264
  391POPC   C3B 8421  10.042  19.886   7.964
  391POPC   C4B 8422  10.031  19.829   7.664
  392POPC   NC3 8423  44.651  16.756   9.464
  392POPC   PO4 8424  44.648  16.741   9.164
  392POPC   GL1 8425  44.616  16.731   8.864
  392POPC   GL2 8426  44.669  16.851   8.864
  392POPC   C1A 8427  44.682  16.745   8.564
  392POPC   D2A 8428  44.661  16.686   8.264
  392POPC   C3A 8429  44.619  16.683   7.964
  392POPC   C4A 8430  44.664  16.728   7.664
  392POPC   C1B 8431  44.626  16.949   8.564
  392POPC   C2B 8432  44.563  17.003   8.264
  392POPC   C3B 8433  44.647  16.931   7.964
  392POPC   C4B 8434  44.658  17.007   7.664
  393POPC   NC3 8435  36.157  14.422   9.464
  393POPC   PO4 8436  36.101  14.376   9.164
  393POPC   GL1 8437  36.161  14.388   8.864
  393POPC   GL2 8438  36.049  14.291   8.864
  393POPC   C1A 8439  36.124  14.391   8.564
  393POPC   D2A 8440  36.141  14.363   8.264
  393POPC   C3A 8441  36.098  14.439   7.964
  393POPC   C4A 8442  36.146  14.450   7.664
  393POPC   C1B 8443  35.972  14.202   8.564
  393POPC   C2B 8444  36.035  14.131   8.264
  393POPC   C3B 8445  36.041  14.187   7.964
  393POPC   C4B 8446  36.065  14.160   7.664
  394POPC   NC3 8447  22.182   1.954   9.464
  394POPC   PO4 8448  22.208   2.038   9.164
  394POPC   GL1 8449  22.160   2.005   8.864
  394POPC   GL2 8450  22.080   2.152   8.864
  394POPC   C1A 8451  22.139   1.990   8.564
  394POPC   D2A 8452  22.169   2.035   8.264
  394POPC   C3A 8453  22.122   1.948   7.964
  394POPC   C4A 8454  22.158   2.016   7.664
  394POPC   C1B 8455  22.113   2.254   8.564
  394POPC   C2B 8456  22.140   2.264   8.264
  394POPC   C3B 8457  22.046   2.180   7.964
  394POPC   C4B 8458  22.056   2.190   7.664
  395POPC   NC3 8459  20.590   4.279   9.464
  395POPC   PO4 8460  20.649   4.331   9.164
  395POPC   GL1 8461  20.622   4.330   8.864
  395POPC   GL2 8462  20.620   4.221   8.864
  395POPC   C1A 8463  20.581   4.349   8.564
  395POPC   D2A 8464  20.580   4.267   8.264
  395POPC   C3A 8465  20.563   4.285   7.964
  395POPC   C4A 8466  20.581   4.279   7.664
  395POPC   C1B 8467  20.544   4.088   8.564
  395POPC   C2B 8468  20.621   4.085   8.264
  395POPC   C3B 8469  20.558   4.102   7.964
  395POPC   C4B 8470  20.622   4.042   7.664
  396POPC   NC3 8471  26.817  31.457   9.464
  396POPC   PO4 8472  26.805  31.426   9.164
  396POPC   GL1 8473  26.786  31.440   8.864
  396POPC   GL2 8474  26.806  31.586   8.864
  396POPC   C1A 8475  26.817  31.478   8.564
  396POPC   D2A 8476  26.784  31.440   8.264
  396POPC   C3A 8477  26.768  31.439   7.964
  396POPC   C4A 8478  26.789  31.487   7.664
  396POPC   C1B 8479  26.861  31.686   8.564
  396POPC   C2B 8480  26.906  31.704   8.264
  396POPC   C3B 8481  26.916  31.716   7.964
  396POPC   C4B 8482  26.867  31.715   7.664
  397POPC   NC3 8483  42.318  12.814   9.464
  397POPC   PO4 8484  42.381  12.824   9.164
  397POPC   GL1 8485  42.308  12.835   8.864
  397POPC   GL2 8486  42.497  12.895   8.864
  397POPC   C1A 8487  42.356  12.888   8.564
  397POPC   D2A 8488  42.357  12.850   8.264
  397POPC   C3A 8489  42.348  12.815   7.964
  397POPC   C4A 8490  42.302  12.825   7.664
  397POPC   C1B 8491  42.632  12.907   8.564
  397POPC   C2B 8492  42.607  12.907   8.264
  397POPC   C3B 8493  42.625  12.911   7.964
  397POPC   C4B 8494  42.630  12.849   7.664
  398POPC   NC3 8495  17.532  39.992   9.464
  398POPC   PO4 8496  17.540  40.002   9.164
  398POPC   GL1 8497  17.519  39.970   8.864
  398POPC   GL2 8498  17.352  39.986   8.864
  398POPC   C1A 8499  17.521  40.044   8.564
  398POPC   D2A 8500  17.460  39.977   8.264
  398POPC   C3A 8501  17.546  40.029   7.964
  398POPC   C4A 8502  17.513  40.001   7.664
  398POPC   C1B 8503  17.252  40.069   8.564
  398POPC   C2B 8504  17.298  40.065   8.264
  398POPC   C3B 8505  17.265  39.986   7.964
  398POPC   C4B 8506  17.248  40.015   7.664
  399POPC   NC3 8507  18.282   8.994   9.464
  399POPC   PO4 8508  18.305   8.927   9.164
  399POPC   GL1 8509  18.241   9.016   8.864
  399POPC   GL2 8510  18.380   9.040   8.864
  399POPC   C1A 8511  18.241   8.985   8.564
  399POPC   D2A 8512  18.298   9.006   8.264
  399POPC   C3A 8513  18.300   8.972   7.964
  399POPC   C4A 8514  18.300   8.926   7.664
  399POPC   C1B 8515  18.450   9.231   8.564
  399POPC   C2B 8516  18.362   9.220   8.264
  399POPC   C3B 8517  18.408   9.140   7.964
  399POPC   C4B 8518  18.384   9.176   7.664
  400POPC   NC3 8519   3.554  22.890   9.464
  400POPC   PO4 8520   3.527  22.953   9.164
  400POPC   GL1 8521   3.539  22.951   8.864
  400POPC   GL2 8522   3.458  23.043   8.864
  400POPC   C1A 8523   3.510  22.892   8.564
  400POPC   D2A 8524   3.516  22.896   8.264
  400POPC   C3A 8525   3.521  22.942   7.964
  400POPC   C4A 8526   3.535  22.959   7.664
  400POPC   C1B 8527   3.383  23.053   8.564
  400POPC   C2B 8528   3.309  23.057   8.264
  400POPC   C3B 8529   3.359  23.081   7.964
  400POPC   C4B 8530   3.324  23.070   7.664
  401POPC   NC3 8531  10.501  37.722   9.464
  401POPC   PO4 8532  10.501  37.709   9.164
  401POPC   GL1 8533  10.574  37.717   8.864
  401POPC   GL2 8534  10.488  37.850   8.864
  401POPC   C1A 8535  10.532  37.726   8.564
  401POPC   D2A 8536  10.557  37.674   8.264
  401POPC   C3A 8537  10.537  37.655   7.964
  401POPC   C4A 8538  10.497  37.644   7.664
  401POPC   C1B 8539  10.435  37.889   8.564
  401POPC   C2B 8540  10.468  37.940   8.264
  401POPC   C3B 8541  10.490  37.942   7.964
  401POPC   C4B 8542  10.501  37.958   7.664
  402POPC   NC3 8543  17.546  19.796   9.464
  402POPC   PO4 8544  17.500  19.871   9.164
  402POPC   GL1 8545  17.520  19.860   8.864
  402POPC   GL2 8546  17.430  19.795   8.864
  402POPC   C1A 8547  17.557  19.832   8.564
  402POPC   D2A 8548  17.542  19.819   8.264
  402POPC   C3A 8549  17.544  19.875   7.964
  402POPC   C4A 8550  17.519  19.815   7.664
  402POPC   C1B 8551  17.293  19.668   8.564
  402POPC   C2B 8552  17.345  19.656   8.264
  402POPC   C3B 8553  17.286  19.703   7.964
  402POPC   C4B 8554  17.358  19.680   7.664
  403POPC   NC3 8555   6.670   3.514   9.464
  403POPC   PO4 8556   6.664   3.531   9.164
  403POPC   GL1 8557   6.620   3.535   8.864
  403POPC   GL2 8558   6.722   3.656   8.864
  403POPC   C1A 8559   6.609   3.546   8.564
  403POPC   D2A 8560   6.674   3.528   8.264
  403POPC   C3A 8561   6.649   3.542   7.964
  403POPC   C4A 8562   6.595   3.589   7.664
  403POPC   C1B 8563   6.836   3.763   8.564
  403POPC   C2B 8564   6.828   3.746   8.264
  403POPC   C3B 8565   6.809   3.761   7.964
  403POPC   C4B 8566   6.833   3.739   7.664
  404POPC   NC3 8567  28.330  16.748   9.464
  404POPC   PO4 8568  28.361  16.749   9.164
  404POPC   GL1 8569  28.376  16.727   8.864
  404POPC   GL2 8570  28.351  16.883   8.864
  404POPC   C1A 8571  28.401  16.740   8.564
  404POPC   D2A 8572  28.392  16.716   8.264
  404POPC   C3A 8573  28.343  16.720   7.964
  404POPC   C4A 8574  28.326  16.688   7.664
  404POPC   C1B 8575  28.299  16.940   8.564
  404POPC   C2B 8576  28.260  16.915   8.264
  404POPC   C3B 8577  28.240  16.938   7.964
  404POPC   C4B 8578  28.311  16.963   7.664
  405POPC   NC3 8579   5.059  15.944   9.464
  405POPC   PO4 8580   5.108  15.990   9.164
  405POPC   GL1 8581   5.081  15.952   8.864
  405POPC   GL2 8582   5.039  16.034   8.864
  405POPC   C1A 8583   5.094  15.947   8.564
  405POPC   D2A 8584   5.095  15.997   8.264
  405POPC   C3A 8585   5.077  15.992   7.964
  405POPC   C4A 8586   5.115  15.965   7.664
  405POPC   C1B 8587   4.930  16.189   8.564
  405POPC   C2B 8588   4.917  16.139   8.264
  405POPC   C3B 8589   4.986  16.115   7.964
  405POPC   C4B 8590   4.924  16.146   7.664
  406POPC   NC3 8591  33.051  30.745   9.464
  406POPC   PO4 8592  33.014  30.658   9.164
  406POPC   GL1 8593  33.056  30.651   8.864
  406POPC   GL2 8594  32.954  30.757   8.864
  406POPC   C1A 8595  32.974  30.717   8.564
  406POPC   D2A 8596  33.012  30.719   8.264
  406POPC   C3A 8597  33.054  30.719   7.964
  406POPC   C4A 8598  33.014  30.725   7.664
  406POPC   C1B 8599  32.796  30.737   8.564
  406POPC   C2B 8600  32.756  30.755   8.264
  406POPC   C3B 8601  32.746  30.805   7.964
  406POPC   C4B 8602  32.792  30.739   7.664
  407POPC   NC3 8603  36.162   0.439   9.464
  407POPC   PO4 8604  36.091   0.484   9.164
  407POPC   GL1 8605  36.097   0.444   8.864
  407POPC   GL2 8606  36.166   0.525   8.864
  407POPC   C1A 8607  36.099   0.462   8.564
  407POPC   D2A 8608  36.171   0.471   8.264
  407POPC   C3A 8609  36.155   0.418   7.964
  407POPC   C4A 8610  36.155   0.476   7.664
  407POPC   C1B 8611  36.184   0.642   8.564
  407POPC   C2B 8612  36.176   0.693   8.264
  407POPC   C3B 8613  36.149   0.729   7.964
  407POPC   C4B 8614  36.140   0.677   7.664
  408POPC   NC3 8615  21.347  41.593   9.464
  408POPC   PO4 8616  21.385  41.519   9.164
  408POPC   GL1 8617  21.428  41.510   8.864
  408POPC   GL2 8618  21.474  41.689   8.864
  408POPC   C1A 8619  21.362  41.608   8.564
  408POPC   D2A 8620  21.427  41.577   8.264
  408POPC   C3A 8621  21.404  41.586   7.964
  408POPC   C4A 8622  21.345  41.598   7.664
  408POPC   C1B 8623  21.508  41.797   8.564
  408POPC   C2B 8624  21.553  41.745   8.264
  408POPC   C3B 8625  21.570  41.783   7.964
  408POPC   C4B 8626  21.509  41.789   7.664
  409POPC   NC3 8627  39.238  17.512   9.464
  409POPC   PO4 8628  39.279  17.547   9.164
  409POPC   GL1 8629  39.261  17.503   8.864
  409POPC   GL2 8630  39.191  17.376   8.864
  409POPC   C1A 8631  39.275  17.459   8.564
  409POPC   D2A 8632  39.244  17.531   8.264
  409POPC   C3A 8633  39.190  17.478   7.964
  409POPC   C4A 8634  39.210  17.512   7.664
  409POPC   C1B 8635  39.204  17.273   8.564
  409POPC   C2B 8636  39.180  17.259   8.264
  409POPC   C3B 8637  39.145  17.280   7.964
  409POPC   C4B 8638  39.228  17.222   7.664
  410POPC   NC3 8639   8.242  10.562   9.464
  410POPC   PO4 8640   8.180  10.529   9.164
  410POPC   GL1 8641   8.151  10.570   8.864
  410POPC   GL2 8642   8.188  10.430   8.864
  410POPC   C1A 8643   8.195  10.531   8.564
  410POPC   D2A 8644   8.185  10.547   8.264
  410POPC   C3A 8645   8.192  10.552   7.964
  410POPC   C4A 8646   8.189  10.538   7.664
  410POPC   C1B 8647   8.246  10.297   8.564
  410POPC   C2B 8648   8.209  10.307   8.264
  410POPC   C3B 8649   8.266  10.232   7.964
  410POPC   C4B 8650   8.197  10.274   7.664
  411POPC   NC3 8651  34.602  25.228   9.464
  411POPC   PO4 8652  34.574  25.253   9.164
  411POPC   GL1 8653  34.550  25.252   8.864
  411POPC   GL2 8654  34.452  25.272   8.864
  411POPC   C1A 8655  34.567  25.266   8.564
  411POPC   D2A 8656  34.592  25.229   8.264
  411POPC   C3A 8657  34.533  25.313   7.964
  411POPC   C4A 8658  34.550  25.221   7.664
  411POPC   C1B 8659  34.367  25.217   8.564
  411POPC   C2B 8660  34.360  25.225   8.264
  411POPC   C3B 8661  34.351  25.233   7.964
  411POPC   C4B 8662  34.335  25.251   7.664
  412POPC   NC3 8663  42.384  40.760   9.464
  412POPC   PO4 8664  42.309  40.772   9.164
  412POPC   GL1 8665  42.335  40.768   8.864
  412POPC   GL2 8666  42.291  40.720   8.864
  412POPC   C1A 8667  42.349  40.769   8.564
  412POPC   D2A 8668  42.330  40.744   8.264
  412POPC   C3A 8669  42.379  40.823   7.964
  412POPC   C4A 8670  42.345  40.749   7.664
  412POPC   C1B 8671  42.146  40.599   8.564
  412POPC   C2B 8672  42.223  40.570   8.264
  412POPC   C3B 8673  42.171  40.535   7.964
  412POPC   C4B 8674  42.237  40.584   7.664
  413POPC   NC3 8675  36.156   1.996   9.464
  413POPC   PO4 8676  36.165   1.947   9.164
  413POPC   GL1 8677  36.091   1.961   8.864
  413POPC   GL2 8678  36.279   1.908   8.864
  413POPC   C1A 8679  36.173   1.953   8.564
  413POPC   D2A 8680  36.127   1.944   8.264
  413POPC   C3A 8681  36.119   1.998   7.964
  413POPC   C4A 8682  36.110   1.980   7.664
  413POPC   C1B 8683  36.401   1.937   8.564
  413POPC   C2B 8684  36.380   1.866   8.264
  413POPC   C3B 8685  36.349   1.886   7.964
  413POPC   C4B 8686  36.349   1.861   7.664
  414POPC   NC3 8687   1.975  10.481   9.464
  414POPC   PO4 8688   2.025  10.535   9.164
  414POPC   GL1 8689   1.945  10.559   8.864
  414POPC   GL2 8690   1.925  10.474   8.864
  414POPC   C1A 8691   2.001  10.493   8.564
  414POPC   D2A 8692   1.989  10.512   8.264
  414POPC   C3A 8693   1.942  10.517   7.964
  414POPC   C4A 8694   2.016  10.493   7.664
  414POPC   C1B 8695   1.793  10.354   8.564
  414POPC   C2B 8696   1.834  10.371   8.264
  414POPC   C3B 8697   1.848  10.327   7.964
  414POPC   C4B 8698   1.790  10.298   7.664
  415POPC   NC3 8699  24.454   2.016   9.464
  415POPC   PO4 8700  24.478   2.021   9.164
  415POPC   GL1 8701  24.475   1.976   8.864
  415POPC   GL2 8702  24.505   2.142   8.864
  415POPC   C1A 8703  24.474   1.958   8.564
  415POPC   D2A 8704  24.510   1.976   8.264
  415POPC   C3A 8705  24.525   2.020   7.964
  415POPC   C4A 8706  24.489   1.960   7.664
  415POPC   C1B 8707  24.482   2.222   8.564
  415POPC   C2B 8708  24.504   2.254   8.264
  415POPC   C3B 8709  24.548   2.287   7.964
  415POPC   C4B 8710  24.509   2.284   7.664
  416POPC   NC3 8711  37.658  29.904   9.464
  416POPC   PO4 8712  37.710  29.925   9.164
  416POPC   GL1 8713  37.723  29.911   8.864
  416POPC   GL2 8714  37.801  29.963   8.864
  416POPC   C1A 8715  37.696  29.874   8.564
  416POPC   D2A 8716  37.678  29.954   8.264
  416POPC   C3A 8717  37.699  29.909   7.964
  416POPC   C4A 8718  37.691  29.969   7.664
  416POPC   C1B 8719  37.878  30.072   8.564
  416POPC   C2B 8720  37.852  30.005   8.264
  416POPC   C3B 8721  37.876  30.026   7.964
  416POPC   C4B 8722  37.872  30.003   7.664
  417POPC   NC3 8723  17.553  20.567   9.464
  417POPC   PO4 8724  17.484  20.566   9.164
  417POPC   GL1 8725  17.547  20.569   8.864
  417POPC   GL2 8726  17.644  20.662   8.864
  417POPC   C1A 8727  17.522  20.587   8.564
  417POPC   D2A 8728  17.518  20.641   8.264
  417POPC   C3A 8729  17.534  20.626   7.964
  417POPC   C4A 8730  17.468  20.652   7.664
  417POPC   C1B 8731  17.765  20.716   8.564
  417POPC   C2B 8732  17.779  20.676   8.264
  417POPC   C3B 8733  17.739  20.676   7.964
  417POPC   C4B 8734  17.749  20.651   7.664
  418POPC   NC3 8735  32.225  27.621   9.464
  418POPC   PO4 8736  32.297  27.599   9.164
  418POPC   GL1 8737  32.240  27.603   8.864
  418POPC   GL2 8738  32.326  27.563   8.864
  418POPC   C1A 8739  32.298  27.620   8.564
  418POPC   D2A 8740  32.284  27.636   8.264
  418POPC   C3A 8741  32.200  27.604   7.964
  418POPC   C4A 8742  32.276  27.582   7.664
  418POPC   C1B 8743  32.414  27.495   8.564
  418POPC   C2B 8744  32.465  27.420   8.264
  418POPC   C3B 8745  32.477  27.479   7.964
  418POPC   C4B 8746  32.459  27.459   7.664
  419POPC   NC3 8747   6.660  20.629   9.464
  419POPC   PO4 8748   6.691  20.635   9.164
  419POPC   GL1 8749   6.601  20.597   8.864
  419POPC   GL2 8750   6.544  20.729   8.864
  419POPC   C1A 8751   6.632  20.568   8.564
  419POPC   D2A 8752   6.623  20.563   8.264
  419POPC   C3A 8753   6.690  20.626   7.964
  419POPC   C4A 8754   6.652  20.624   7.664
  419POPC   C1B 8755   6.482  20.827   8.564
  419POPC   C2B 8756   6.565  20.788   8.264
  419POPC   C3B 8757   6.478  20.854   7.964
  419POPC   C4B 8758   6.485  20.841   7.664
  420POPC   NC3 8759  17.519  22.920   9.464
  420POPC   PO4 8760  17.550  22.925   9.164
  420POPC   GL1 8761  17.528  22.905   8.864
  420POPC   GL2 8762  17.441  22.851   8.864
  420POPC   C1A 8763  17.471  22.933   8.564
  420POPC   D2A 8764  17.488  22.924   8.264
  420POPC   C3A 8765  17.476  22.932   7.964
  420POPC   C4A 8766  17.531  22.946   7.664
  420POPC   C1B 8767  17.289  22.843   8.564
  420POPC   C2B 8768  17.297  22.850   8.264
  420POPC   C3B 8769  17.332  22.766   7.964
  420POPC   C4B 8770  17.288  22.778   7.664
  421POPC   NC3 8771  10.573  34.594   9.464
  421POPC   PO4 8772  10.511  34.566   9.164
  421POPC   GL1 8773  10.563  34.532   8.864
  421POPC   GL2 8774  10.602  34.705   8.864
  421POPC   C1A 8775  10.510  34.588   8.564
  421POPC   D2A 8776  10.525  34.570   8.264
  421POPC   C3A 8777  10.516  34.564   7.964
  421POPC   C4A 8778  10.556  34.531   7.664
  421POPC   C1B 8779  10.757  34.739   8.564
  421POPC   C2B 8780  10.702  34.757   8.264
  421POPC   C3B 8781  10.755  34.724   7.964
  421POPC   C4B 8782  10.678  34.724   7.664
  422POPC   NC3 8783  44.709  39.251   9.464
  422POPC   PO4 8784  44.706  39.229   9.164
  422POPC   GL1 8785  44.658  39.227   8.864
  422POPC   GL2 8786  44.762  39.326   8.864
  422POPC   C1A 8787  44.706  39.196   8.564
  422POPC   D2A 8788  44.636  39.232   8.264
  422POPC   C3A 8789  44.708  39.243   7.964
  422POPC   C4A 8790  44.623  39.252   7.664
  422POPC   C1B 8791  44.762  39.412   8.564
  422POPC   C2B 8792  44.784  39.430   8.264
  422POPC   C3B 8793  44.815  39.464   7.964
  422POPC   C4B 8794  44.808  39.426   7.664
  423POPC   NC3 8795  35.336  25.996   9.464
  423POPC   PO4 8796  35.381  26.011   9.164
  423POPC   GL1 8797  35.357  26.032   8.864
  423POPC   GL2 8798  35.230  26.093   8.864
  423POPC   C1A 8799  35.365  26.024   8.564
  423POPC   D2A 8800  35.398  26.081   8.264
  423POPC   C3A 8801  35.341  26.091   7.964
  423POPC   C4A 8802  35.360  25.996   7.664
  423POPC   C1B 8803  35.134  26.191   8.564
  423POPC   C2B 8804  35.077  26.144   8.264
  423POPC   C3B 8805  35.106  26.146   7.964
  423POPC   C4B 8806  35.164  26.114   7.664
  424POPC   NC3 8807  12.033   5.068   9.464
  424POPC   PO4 8808  12.055   5.058   9.164
  424POPC   GL1 8809  12.076   5.087   8.864
  424POPC   GL2 8810  12.000   5.091   8.864
  424POPC   C1A 8811  12.119   5.100   8.564
  424POPC   D2A 8812  12.031   5.108   8.264
  424POPC   C3A 8813  12.090   5.072   7.964
  424POPC   C4A 8814  12.113   5.058   7.664
  424POPC   C1B 8815  11.876   5.032   8.564
  424POPC   C2B 8816  11.855   5.086   8.264
  424POPC   C3B 8817  11.857   5.114   7.964
  424POPC   C4B 8818  11.824   5.099   7.664
  425POPC   NC3 8819  26.809  36.950   9.464
  425POPC   PO4 8820  26.860  36.947   9.164
  425POPC   GL1 8821  26.831  36.884   8.864
  425POPC   GL2 8822  26.928  36.931   8.864
  425POPC   C1A 8823  26.836  36.904   8.564
  425POPC   D2A 8824  26.838  36.883   8.264
  425POPC   C3A 8825  26.818  36.883   7.964
  425POPC   C4A 8826  26.818  36.953   7.664
  425POPC   C1B 8827  27.001  37.088   8.564
  425POPC   C2B 8828  27.027  37.066   8.264
  425POPC   C3B 8829  27.055  37.028   7.964
  425POPC   C4B 8830  26.973  37.002   7.664
  426POPC   NC3 8831  17.524  40.823   9.464
  426POPC   PO4 8832  17.540  40.767   9.164
  426POPC   GL1 8833  17.531  40.750   8.864
  426POPC   GL2 8834  17.450  40.914   8.864
  426POPC   C1A 8835  17.467  40.755   8.564
  426POPC   D2A 8836  17.555  40.823   8.264
  426POPC   C3A 8837  17.541  40.768   7.964
  426POPC   C4A 8838  17.470  40.787   7.664
  426POPC   C1B 8839  17.493  40.998   8.564
  426POPC   C2B 8840  17.483  40.983   8.264
  426POPC   C3B 8841  17.416  41.021   7.964
  426POPC   C4B 8842  17.465  41.031   7.664
  427POPC   NC3 8843  25.226  26.845   9.464
  427POPC   PO4 8844  25.267  26.858   9.164
  427POPC   GL1 8845  25.226  26.859   8.864
  427POPC   GL2 8846  25.146  26.858   8.864
  427POPC   C1A 8847  25.219  26.847   8.564
  427POPC   D2A 8848  25.258  26.802   8.264
  427POPC   C3A 8849  25.271  26.785   7.964
  427POPC   C4A 8850  25.262  26.799   7.664
  427POPC   C1B 8851  25.074  26.959   8.564
  427POPC   C2B 8852  25.077  26.895   8.264
  427POPC   C3B 8853  25.017  26.971   7.964
  427POPC   C4B 8854  25.053  26.884   7.664
  428POPC   NC3 8855  44.636  23.678   9.464
  428POPC   PO4 8856  44.612  23.746   9.164
  428POPC   GL1 8857  44.624  23.698   8.864
  428POPC   GL2 8858  44.534  23.757   8.864
  428POPC   C1A 8859  44.676  23.750   8.564
  428POPC   D2A 8860  44.667  23.719   8.264
  428POPC   C3A 8861  44.658  23.697   7.964
  428POPC   C4A 8862  44.648  23.674   7.664
  428POPC   C1B 8863  44.481  23.829   8.564
  428POPC   C2B 8864  44.461  23.803   8.264
  428POPC   C3B 8865  44.483  23.798   7.964
  428POPC   C4B 8866  44.466  23.796   7.664
  429POPC   NC3 8867  31.472  35.320   9.464
  429POPC   PO4 8868  31.447  35.335   9.164
  429POPC   GL1 8869  31.502  35.326   8.864
  429POPC   GL2 8870  31.545  35.235   8.864
  429POPC   C1A 8871  31.476  35.342   8.564
  429POPC   D2A 8872  31.454  35.318   8.264
  429POPC   C3A 8873  31.460  35.386   7.964
  429POPC   C4A 8874  31.509  35.396   7.664
  429POPC   C1B 8875  31.585  35.139   8.564
  429POPC   C2B 8876  31.520  35.099   8.264
  429POPC   C3B 8877  31.549  35.095   7.964
  429POPC   C4B 8878  31.579  35.097   7.664
  430POPC   NC3 8879   6.689   8.163   9.464
  430POPC   PO4 8880   6.635   8.193   9.164
  430POPC   GL1 8881   6.617   8.209   8.864
  430POPC   GL2 8882   6.579   8.326   8.864
  430POPC   C1A 8883   6.666   8.198   8.564
  430POPC   D2A 8884   6.634   8.194   8.264
  430POPC   C3A 8885   6.694   8.167   7.964
  430POPC   C4A 8886   6.627   8.231   7.664
  430POPC   C1B 8887   6.497   8.403   8.564
  430POPC   C2B 8888   6.484   8.338   8.264
  430POPC   C3B 8889   6.485   8.348   7.964
  430POPC   C4B 8890   6.464   8.363   7.664
  431POPC   NC3 8891   8.219  36.867   9.464
  431POPC   PO4 8892   8.228  36.886   9.164
  431POPC   GL1 8893   8.194  36.927   8.864
  431POPC   GL2 8894   8.162  36.815   8.864
  431POPC   C1A 8895   8.178  36.867   8.564
  431POPC   D2A 8896   8.148  36.863   8.264
  431POPC   C3A 8897   8.174  36.926   7.964
  431POPC   C4A 8898   8.210  36.900   7.664
  431POPC   C1B 8899   8.059  36.732   8.564
  431POPC   C2B 8900   8.052  36.727   8.264
  431POPC   C3B 8901   7.984  36.730   7.964
  431POPC   C4B 8902   7.994  36.733   7.664
  432POPC   NC3 8903  39.992  44.652   9.464
  432POPC   PO4 8904  40.048  44.665   9.164
  432POPC   GL1 8905  39.990  44.699   8.864
  432POPC   GL2 8906  39.911  44.581   8.864
  432POPC   C1A 8907  40.004  44.704   8.564
  432POPC   D2A 8908  40.011  44.642   8.264
  432POPC   C3A 8909  40.036  44.631   7.964
  432POPC   C4A 8910  39.982  44.683   7.664
  432POPC   C1B 8911  39.793  44.608   8.564
  432POPC   C2B 8912  39.771  44.526   8.264
  432POPC   C3B 8913  39.730  44.520   7.964
  432POPC   C4B 8914  39.731  44.599   7.664
  433POPC   NC3 8915  31.441  26.858   9.464
  433POPC   PO4 8916  31.509  26.788   9.164
  433POPC   GL1 8917  31.493  26.839   8.864
  433POPC   GL2 8918  31.618  26.832   8.864
  433POPC   C1A 8919  31.434  26.823   8.564
  433POPC   D2A 8920  31.462  26.771   8.264
  433POPC   C3A 8921  31.522  26.836   7.964
  433POPC   C4A 8922  31.482  26.824   7.664
  433POPC   C1B 8923  31.695  26.798   8.564
  433POPC   C2B 8924  31.691  26.842   8.264
  433POPC   C3B 8925  31.685  26.776   7.964
  433POPC   C4B 8926  31.699  26.809   7.664
  434POPC   NC3 8927  39.991  43.109   9.464
  434POPC   PO4 8928  40.006  43.121   9.164
  434POPC   GL1 8929  39.985  43.122   8.864
  434POPC   GL2 8930  40.068  42.996   8.864
  434POPC   C1A 8931  40.047  43.120   8.564
  434POPC   D2A 8932  40.021  43.119   8.264
  434POPC   C3A 8933  39.969  43.135   7.964
  434POPC   C4A 8934  40.006  43.111   7.664
  434POPC   C1B 8935  40.135  42.867   8.564
  434POPC   C2B 8936  40.074  42.836   8.264
  434POPC   C3B 8937  40.102  42.838   7.964
  434POPC   C4B 8938  40.068  42.918   7.664
  435POPC   NC3 8939  22.180   7.469   9.464
  435POPC   PO4 8940  22.194   7.432   9.164
  435POPC   GL1 8941  22.138   7.425   8.864
  435POPC   GL2 8942  22.086   7.355   8.864
  435POPC   C1A 8943  22.183   7.437   8.564
  435POPC   D2A 8944  22.200   7.394   8.264
  435POPC   C3A 8945  22.114   7.423   7.964
  435POPC   C4A 8946  22.139   7.372   7.664
  435POPC   C1B 8947  21.917   7.325   8.564
  435POPC   C2B 8948  21.977   7.248   8.264
  435POPC   C3B 8949  21.980   7.291   7.964
  435POPC   C4B 8950  21.911   7.299   7.664
  436POPC   NC3 8951  28.352  12.039   9.464
  436POPC   PO4 8952  28.406  12.094   9.164
  436POPC   GL1 8953  28.392  12.092   8.864
  436POPC   GL2 8954  28.333  11.961   8.864
  436POPC   C1A 8955  28.376  12.045   8.564
  436POPC   D2A 8956  28.359  12.048   8.264
  436POPC   C3A 8957  28.327  12.093   7.964
  436POPC   C4A 8958  28.404  12.073   7.664
  436POPC   C1B 8959  28.340  11.792   8.564
  436POPC   C2B 8960  28.412  11.806   8.264
  436POPC   C3B 8961  28.317  11.788   7.964
  436POPC   C4B 8962  28.406  11.822   7.664
  437POPC   NC3 8963  27.576  34.581   9.464
  437POPC   PO4 8964  27.584  34.572   9.164
  437POPC   GL1 8965  27.626  34.560   8.864
  437POPC   GL2 8966  27.503  34.724   8.864
  437POPC   C1A 8967  27.599  34.531   8.564
  437POPC   D2A 8968  27.567  34.594   8.264
  437POPC   C3A 8969  27.599  34.534   7.964
  437POPC   C4A 8970  27.564  34.573   7.664
  437POPC   C1B 8971  27.494  34.829   8.564
  437POPC   C2B 8972  27.499  34.784   8.264
  437POPC   C3B 8973  27.418  34.825   7.964
  437POPC   C4B 8974  27.442  34.755   7.664
  438POPC   NC3 8975  43.105  26.011   9.464
  438POPC   PO4 8976  43.123  26.064   9.164
  438POPC   GL1 8977  43.114  26.060   8.864
  438POPC   GL2 8978  43.270  26.073   8.864
  438POPC   C1A 8979  43.154  26.037   8.564
  438POPC   D2A 8980  43.094  26.057   8.264
  438POPC   C3A 8981  43.136  26.090   7.964
  438POPC   C4A 8982  43.073  26.068   7.664
  438POPC   C1B 8983  43.314  26.189   8.564
  438POPC   C2B 8984  43.325  26.129   8.264
  438POPC   C3B 8985  43.292  26.187   7.964
  438POPC   C4B 8986  43.304  26.096   7.664
  439POPC   NC3 8987  17.538  21.410   9.464
  439POPC   PO4 8988  17.521  21.374   9.164
  439POPC   GL1 8989  17.490  21.406   8.864
  439POPC   GL2 8990  17.436  21.265   8.864
  439POPC   C1A 8991  17.466  21.427   8.564
  439POPC   D2A 8992  17.532  21.395   8.264
  439POPC   C3A 8993  17.533  21.389   7.964
  439POPC   C4A 8994  17.550  21.410   7.664
  439POPC   C1B 8995  17.407  21.164   8.564
  439POPC   C2B 8996  17.353  21.193   8.264
  439POPC   C3B 8997  17.368  21.184   7.964
  439POPC   C4B 8998  17.373  21.202   7.664
  440POPC   NC3 8999  11.287  40.822   9.464
  440POPC   PO4 9000  11.275  40.832   9.164
  440POPC   GL1 9001  11.319  40.792   8.864
  440POPC   GL2 9002  11.154  40.693   8.864
  440POPC   C1A 9003  11.327  40.767   8.564
  440POPC   D2A 9004  11.324  40.757   8.264
  440POPC   C3A 9005  11.295  40.758   7.964
  440POPC   C4A 9006  11.336  40.774   7.664
  440POPC   C1B 9007  11.117  40.676   8.564
  440POPC   C2B 9008  11.101  40.689   8.264
  440POPC   C3B 9009  11.140  40.602   7.964
  440POPC   C4B 9010  11.138  40.652   7.664
  441POPC   NC3 9011  32.230  19.828   9.464
  441POPC   PO4 9012  32.208  19.853   9.164
  441POPC   GL1 9013  32.218  19.854   8.864
  441POPC   GL2 9014  32.225  19.711   8.864
  441POPC   C1A 9015  32.263  19.812   8.564
  441POPC   D2A 9016  32.278  19.833   8.264
  441POPC   C3A 9017  32.294  19.869   7.964
  441POPC   C4A 9018  32.255  19.837   7.664
  441POPC   C1B 9019  32.153  19.578   8.564
  441POPC   C2B 9020  32.167  19.577   8.264
  441POPC   C3B 9021  32.197  19.646   7.964
  441POPC   C4B 9022  32.113  19.629   7.664
  442POPC   NC3 9023   8.216  11.268   9.464
  442POPC   PO4 9024   8.195  11.305   9.164
  442POPC   GL1 9025   8.202  11.252   8.864
  442POPC   GL2 9026   8.211  11.156   8.864
  442POPC   C1A 9027   8.246  11.274   8.564
  442POPC   D2A 9028   8.163  11.311   8.264
  442POPC   C3A 9029   8.204  11.252   7.964
  442POPC   C4A 9030   8.163  11.277   7.664
  442POPC   C1B 9031   8.120  11.100   8.564
  442POPC   C2B 9032   8.138  11.037   8.264
  442POPC   C3B 9033   8.142  11.061   7.964
  442POPC   C4B 9034   8.158  11.091   7.664
  443POPC   NC3 9035   1.174  22.892   9.464
  443POPC   PO4 9036   1.257  22.983   9.164
  443POPC   GL1 9037   1.238  22.905   8.864
  443POPC   GL2 9038   1.050  22.971   8.864
  443POPC   C1A 9039   1.192  22.951   8.564
  443POPC   D2A 9040   1.195  22.980   8.264
  443POPC   C3A 9041   1.221  22.914   7.964
  443POPC   C4A 9042   1.164  22.891   7.664
  443POPC   C1B 9043   1.008  22.989   8.564
  443POPC   C2B 9044   1.002  23.019   8.264
  443POPC   C3B 9045   0.993  22.969   7.964
  443POPC   C4B 9046   0.960  23.043   7.664
  444POPC   NC3 9047  29.970  28.400   9.464
  444POPC   PO4 9048  29.880  28.336   9.164
  444POPC   GL1 9049  29.964  28.404   8.864
  444POPC   GL2 9050  29.938  28.262   8.864
  444POPC   C1A 9051  29.911  28.409   8.564
  444POPC   D2A 9052  29.946  28.344   8.264
  444POPC   C3A 9053  29.915  28.366   7.964
  444POPC   C4A 9054  29.919  28.407   7.664
  444POPC   C1B 9055  29.907  28.109   8.564
  444POPC   C2B 9056  29.952  28.154   8.264
  444POPC   C3B 9057  29.931  28.116   7.964
  444POPC   C4B 9058  29.953  28.151   7.664
  445POPC   NC3 9059  10.532  36.114   9.464
  445POPC   PO4 9060  10.508  36.080   9.164
  445POPC   GL1 9061  10.531  36.119   8.864
  445POPC   GL2 9062  10.422  36.169   8.864
  445POPC   C1A 9063  10.534  36.161   8.564
  445POPC   D2A 9064  10.551  36.159   8.264
  445POPC   C3A 9065  10.488  36.145   7.964
  445POPC   C4A 9066  10.494  36.114   7.664
  445POPC   C1B 9067  10.326  36.243   8.564
  445POPC   C2B 9068  10.334  36.255   8.264
  445POPC   C3B 9069  10.275  36.235   7.964
  445POPC   C4B 9070  10.300  36.281   7.664
  446POPC   NC3 9071  42.334  19.027   9.464
  446POPC   PO4 9072  42.299  19.094   9.164
  446POPC   GL1 9073  42.325  19.040   8.864
  446POPC   GL2 9074  42.350  19.204   8.864
  446POPC   C1A 9075  42.316  19.040   8.564
  446POPC   D2A 9076  42.364  19.015   8.264
  446POPC   C3A 9077  42.317  19.081   7.964
  446POPC   C4A 9078  42.309  19.108   7.664
  446POPC   C1B 9079  42.356  19.317   8.564
  446POPC   C2B 9080  42.331  19.302   8.264
  446POPC   C3B 9081  42.339  19.319   7.964
  446POPC   C4B 9082  42.364  19.351   7.664
  447POPC   NC3 9083  28.341  29.176   9.464
  447POPC   PO4 9084  28.415  29.142   9.164
  447POPC   GL1 9085  28.335  29.100   8.864
  447POPC   GL2 9086  28.446  29.203   8.864
  447POPC   C1A 9087  28.348  29.101   8.564
  447POPC   D2A 9088  28.371  29.152   8.264
  447POPC   C3A 9089  28.359  29.185   7.964
  447POPC   C4A 9090  28.349  29.187   7.664
  447POPC   C1B 9091  28.615  29.205   8.564
  447POPC   C2B 9092  28.545  29.226   8.264
  447POPC   C3B 9093  28.585  29.292   7.964
  447POPC   C4B 9094  28.604  29.270   7.664
  448POPC   NC3 9095   8.148  35.318   9.464
  448POPC   PO4 9096   8.224  35.311   9.164
  448POPC   GL1 9097   8.230  35.396   8.864
  448POPC   GL2 9098   8.282  35.422   8.864
  448POPC   C1A 9099   8.230  35.401   8.564
  448POPC   D2A 9100   8.173  35.377   8.264
  448POPC   C3A 9101   8.210  35.383   7.964
  448POPC   C4A 9102   8.224  35.354   7.664
  448POPC   C1B 9103   8.417  35.532   8.564
  448POPC   C2B 9104   8.398  35.488   8.264
  448POPC   C3B 9105   8.432  35.463   7.964
  448POPC   C4B 9106   8.368  35.535   7.664
  449POPC   NC3 9107  11.305  13.587   9.464
  449POPC   PO4 9108  11.277  13.593   9.164
  449POPC   GL1 9109  11.257  13.579   8.864
  449POPC   GL2 9110  11.150  13.701   8.864
  449POPC   C1A 9111  11.291  13.650   8.564
  449POPC   D2A 9112  11.262  13.677   8.264
  449POPC   C3A 9113  11.321  13.650   7.964
  449POPC   C4A 9114  11.346  13.656   7.664
  449POPC   C1B 9115  11.060  13.690   8.564
  449POPC   C2B 9116  11.026  13.711   8.264
  449POPC   C3B 9117  11.104  13.767   7.964
  449POPC   C4B 9118  11.109  13.758   7.664
  450POPC   NC3 9119  28.417  19.810   9.464
  450POPC   PO4 9120  28.392  19.854   9.164
  450POPC   GL1 9121  28.346  19.880   8.864
  450POPC   GL2 9122  28.278  19.713   8.864
  450POPC   C1A 9123  28.345  19.833   8.564
  450POPC   D2A 9124  28.380  19.867   8.264
  450POPC   C3A 9125  28.358  19.837   7.964
  450POPC   C4A 9126  28.340  19.868   7.664
  450POPC   C1B 9127  28.235  19.663   8.564
  450POPC   C2B 9128  28.240  19.586   8.264
  450POPC   C3B 9129  28.272  19.622   7.964
  450POPC   C4B 9130  28.239  19.658   7.664
  451POPC   NC3 9131  29.962   9.752   9.464
  451POPC   PO4 9132  29.931   9.763   9.164
  451POPC   GL1 9133  29.885   9.720   8.864
  451POPC   GL2 9134  29.907   9.908   8.864
  451POPC   C1A 9135  29.927   9.779   8.564
  451POPC   D2A 9136  29.967   9.769   8.264
  451POPC   C3A 9137  29.885   9.715   7.964
  451POPC   C4A 9138  29.946   9.744   7.664
  451POPC   C1B 9139  29.978   9.950   8.564
  451POPC   C2B 9140  29.948   9.970   8.264
  451POPC   C3B 9141  30.024  10.037   7.964
  451POPC   C4B 9142  30.012   9.982   7.664
  452POPC   NC3 9143  35.358  24.489   9.464
  452POPC   PO4 9144  35.364  24.501   9.164
  452POPC   GL1 9145  35.334  24.521   8.864
  452POPC   GL2 9146  35.507  24.458   8.864
  452POPC   C1A 9147  35.347  24.444   8.564
  452POPC   D2A 9148  35.382  24.475   8.264
  452POPC   C3A 9149  35.305  24.512   7.964
  452POPC   C4A 9150  35.345  24.469   7.664
  452POPC   C1B 9151  35.589  24.558   8.564
  452POPC   C2B 9152  35.577  24.491   8.264
  452POPC   C3B 9153  35.621  24.486   7.964
  452POPC   C4B 9154  35.612  24.526   7.664
  453POPC   NC3 9155  36.941  17.494   9.464
  453POPC   PO4 9156  36.902  17.512   9.164
  453POPC   GL1 9157  36.939  17.549   8.864
  453POPC   GL2 9158  36.740  17.432   8.864
  453POPC   C1A 9159  36.867  17.489   8.564
  453POPC   D2A 9160  36.868  17.496   8.264
  453POPC   C3A 9161  36.858  17.519   7.964
  453POPC   C4A 9162  36.909  17.509   7.664
  453POPC   C1B 9163  36.688  17.448   8.564
  453POPC   C2B 9164  36.641  17.400   8.264
  453POPC   C3B 9165  36.615  17.465   7.964
  453POPC   C4B 9166  36.714  17.465   7.664
  454POPC   NC3 9167  41.519  22.954   9.464
  454POPC   PO4 9168  41.587  22.918   9.164
  454POPC   GL1 9169  41.547  22.970   8.864
  454POPC   GL2 9170  41.627  22.813   8.864
  454POPC   C1A 9171  41.566  22.897   8.564
  454POPC   D2A 9172  41.570  22.951   8.264
  454POPC   C3A 9173  41.526  22.928   7.964
  454POPC   C4A 9174  41.549  22.917   7.664
  454POPC   C1B 9175  41.579  22.691   8.564
  454POPC   C2B 9176  41.646  22.693   8.264
  454POPC   C3B 9177  41.603  22.731   7.964
  454POPC   C4B 9178  41.564  22.664   7.664
  455POPC   NC3 9179  43.088  11.280   9.464
  455POPC   PO4 9180  43.076  11.347   9.164
  455POPC   GL1 9181  43.149  11.312   8.864
  455POPC   GL2 9182  43.169  11.400   8.864
  455POPC   C1A 9183  43.099  11.337   8.564
  455POPC   D2A 9184  43.106  11.315   8.264
  455POPC   C3A 9185  43.147  11.292   7.964
  455POPC   C4A 9186  43.066  11.307   7.664
  455POPC   C1B 9187  43.166  11.555   8.564
  455POPC   C2B 9188  43.201  11.571   8.264
  455POPC   C3B 9189  43.148  11.550   7.964
  455POPC   C4B 9190  43.163  11.536   7.664
  456POPC   NC3 9191  11.331  31.429   9.464
  456POPC   PO4 9192  11.345  31.460   9.164
  456POPC   GL1 9193  11.330  31.513   8.864
  456POPC   GL2 9194  11.205  31.426   8.864
  456POPC   C1A 9195  11.261  31.436   8.564
  456POPC   D2A 9196  11.342  31.443   8.264
  456POPC   C3A 9197  11.318  31.447   7.964
  456POPC   C4A 9198  11.340  31.444   7.664
  456POPC   C1B 9199  11.054  31.484   8.564
  456POPC   C2B 9200  11.022  31.506   8.264
  456POPC   C3B 9201  11.022  31.427   7.964
  456POPC   C4B 9202  11.027  31.463   7.664
  457POPC   NC3 9203  28.366  24.493   9.464
  457POPC   PO4 9204  28.338  24.517   9.164
  457POPC   GL1 9205  28.383  24.495   8.864
  457POPC   GL2 9206  28.389  24.625   8.864
  457POPC   C1A 9207  28.361  24.525   8.564
  457POPC   D2A 9208  28.411  24.479   8.264
  457POPC   C3A 9209  28.325  24.483   7.964
  457POPC   C4A 9210  28.326  24.462   7.664
  457POPC   C1B 9211  28.311  24.780   8.564
  457POPC   C2B 9212  28.328  24.703   8.264
  457POPC   C3B 9213  28.284  24.719   7.964
  457POPC   C4B 9214  28.288  24.699   7.664
  458POPC   NC3 9215  42.346  29.099   9.464
  458POPC   PO4 9216  42.363  29.130   9.164
  458POPC   GL1 9217  42.325  29.168   8.864
  458POPC   GL2 9218  42.203  29.091   8.864
  458POPC   C1A 9219  42.305  29.182   8.564
  458POPC   D2A 9220  42.358  29.149   8.264
  458POPC   C3A 9221  42.288  29.096   7.964
  458POPC   C4A 9222  42.312  29.179   7.664
  458POPC   C1B 9223  42.155  29.016   8.564
  458POPC   C2B 9224  42.197  29.011   8.264
  458POPC   C3B 9225  42.186  29.005   7.964
  458POPC   C4B 9226  42.185  28.959   7.664
  459POPC   NC3 9227   5.848   8.974   9.464
  459POPC   PO4 9228   5.883   9.003   9.164
  459POPC   GL1 9229   5.883   8.966   8.864
  459POPC   GL2 9230   5.725   8.993   8.864
  459POPC   C1A 9231   5.907   8.956   8.564
  459POPC   D2A 9232   5.867   8.994   8.264
  459POPC   C3A 9233   5.912   8.942   7.964
  459POPC   C4A 9234   5.912   9.018   7.664
  459POPC   C1B 9235   5.657   8.894   8.564
  459POPC   C2B 9236   5.671   8.908   8.264
  459POPC   C3B 9237   5.580   8.920   7.964
  459POPC   C4B 9238   5.640   8.968   7.664
  460POPC   NC3 9239  19.813   4.316   9.464
  460POPC   PO4 9240  19.865   4.317   9.164
  460POPC   GL1 9241  19.830   4.280   8.864
  460POPC   GL2 9242  19.780   4.401   8.864
  460POPC   C1A 9243  19.806   4.311   8.564
  460POPC   D2A 9244  19.836   4.337   8.264
  460POPC   C3A 9245  19.868   4.332   7.964
  460POPC   C4A 9246  19.795   4.304   7.664
  460POPC   C1B 9247  19.780   4.513   8.564
  460POPC   C2B 9248  19.753   4.573   8.264
  460POPC   C3B 9249  19.776   4.573   7.964
  460POPC   C4B 9250  19.804   4.608   7.664
  461POPC   NC3 9251  14.443  30.720   9.464
  461POPC   PO4 9252  14.419  30.728   9.164
  461POPC   GL1 9253  14.409  30.680   8.864
  461POPC   GL2 9254  14.517  30.706   8.864
  461POPC   C1A 9255  14.382  30.702   8.564
  461POPC   D2A 9256  14.396  30.712   8.264
  461POPC   C3A 9257  14.427  30.721   7.964
  461POPC   C4A 9258  14.374  30.696   7.664
  461POPC   C1B 9259  14.628  30.781   8.564
  461POPC   C2B 9260  14.599  30.731   8.264
  461POPC   C3B 9261  14.610  30.758   7.964
  461POPC   C4B 9262  14.692  30.732   7.664
  462POPC   NC3 9263   7.454  24.522   9.464
  462POPC   PO4 9264   7.452  24.456   9.164
  462POPC   GL1 9265   7.460  24.502   8.864
  462POPC   GL2 9266   7.354  24.642   8.864
  462POPC   C1A 9267   7.427  24.512   8.564
  462POPC   D2A 9268   7.433  24.514   8.264
  462POPC   C3A 9269   7.469  24.463   7.964
  462POPC   C4A 9270   7.379  24.470   7.664
  462POPC   C1B 9271   7.311  24.698   8.564
  462POPC   C2B 9272   7.309  24.740   8.264
  462POPC   C3B 9273   7.332  24.697   7.964
  462POPC   C4B 9274   7.321  24.675   7.664
  463POPC   NC3 9275  12.115  18.244   9.464
  463POPC   PO4 9276  12.105  18.269   9.164
  463POPC   GL1 9277  12.112  18.271   8.864
  463POPC   GL2 9278  12.065  18.170   8.864
  463POPC   C1A 9279  12.069  18.310   8.564
  463POPC   D2A 9280  12.057  18.315   8.264
  463POPC   C3A 9281  12.060  18.307   7.964
  463POPC   C4A 9282  12.102  18.243   7.664
  463POPC   C1B 9283  12.114  18.072   8.564
  463POPC   C2B 9284  12.114  18.012   8.264
  463POPC   C3B 9285  12.124  18.047   7.964
  463POPC   C4B 9286  12.083  18.019   7.664
  464POPC   NC3 9287   6.690  28.386   9.464
  464POPC   PO4 9288   6.637  28.387   9.164
  464POPC   GL1 9289   6.685  28.348   8.864
  464POPC   GL2 9290   6.471  28.355   8.864
  464POPC   C1A 9291   6.609  28.378   8.564
  464POPC   D2A 9292   6.609  28.405   8.264
  464POPC   C3A 9293   6.692  28.363   7.964
  464POPC   C4A 9294   6.612  28.358   7.664
  464POPC   C1B 9295   6.409  28.385   8.564
  464POPC   C2B 9296   6.357  28.380   8.264
  464POPC   C3B 9297   6.418  28.345   7.964
  464POPC   C4B 9298   6.363  28.389   7.664
  465POPC   NC3 9299   5.048   6.647   9.464
  465POPC   PO4 9300   5.092   6.693   9.164
  465POPC   GL1 9301   5.044   6.689   8.864
  465POPC   GL2 9302   5.228   6.763   8.864
  465POPC   C1A 9303   5.121   6.602   8.564
  465POPC   D2A 9304   5.075   6.634   8.264
  465POPC   C3A 9305   5.119   6.639   7.964
  465POPC   C4A 9306   5.058   6.636   7.664
  465POPC   C1B 9307   5.240   6.765   8.564
  465POPC   C2B 9308   5.270   6.796   8.264
  465POPC   C3B 9309   5.297   6.815   7.964
  465POPC   C4B 9310   5.284   6.826   7.664
  466POPC   NC3 9311   1.233  11.314   9.464
  466POPC   PO4 9312   1.225  11.272   9.164
  466POPC   GL1 9313   1.173  11.270   8.864
  466POPC   GL2 9314   1.291  11.333   8.864
  466POPC   C1A 9315   1.248  11.331   8.564
  466POPC   D2A 9316   1.171  11.282   8.264
  466POPC   C3A 9317   1.184  11.271   7.964
  466POPC   C4A 9318   1.207  11.276   7.664
  466POPC   C1B 9319   1.491  11.376   8.564
  466POPC   C2B 9320   1.461  11.354   8.264
  466POPC   C3B 9321   1.439  11.325   7.964
  466POPC   C4B 9322   1.457  11.328   7.664
  467POPC   NC3 9323  12.829  22.905   9.464
  467POPC   PO4 9324  12.845  22.918   9.164
  467POPC   GL1 9325  12.877  22.919   8.864
  467POPC   GL2 9326  12.990  22.935   8.864
  467POPC   C1A 9327  12.812  22.979   8.564
  467POPC   D2A 9328  12.866  22.898   8.264
  467POPC   C3A 9329  12.875  22.979   7.964
  467POPC   C4A 9330  12.864  22.918   7.664
  467POPC   C1B 9331  13.079  22.906   8.564
  467POPC   C2B 9332  13.097  22.904   8.264
  467POPC   C3B 9333  13.062  22.927   7.964
  467POPC   C4B 9334  13.109  22.926   7.664
  468POPC   NC3 9335  12.811  21.415   9.464
  468POPC   PO4 9336  12.897  21.377   9.164
  468POPC   GL1 9337  12.828  21.381   8.864
  468POPC   GL2 9338  12.795  21.257   8.864
  468POPC   C1A 9339  12.843  21.373   8.564
  468POPC   D2A 9340  12.848  21.353   8.264
  468POPC   C3A 9341  12.894  21.423   7.964
  468POPC   C4A 9342  12.834  21.386   7.664
  468POPC   C1B 9343  12.640  21.153   8.564
  468POPC   C2B 9344  12.733  21.153   8.264
  468POPC   C3B 9345  12.722  21.240   7.964
  468POPC   C4B 9346  12.733  21.206   7.664
  469POPC   NC3 9347  29.937   3.547   9.464
  469POPC   PO4 9348  29.891   3.569   9.164
  469POPC   GL1 9349  29.892   3.531   8.864
  469POPC   GL2 9350  29.965   3.443   8.864
  469POPC   C1A 9351  29.943   3.537   8.564
  469POPC   D2A 9352  29.929   3.511   8.264
  469POPC   C3A 9353  29.970   3.568   7.964
  469POPC   C4A 9354  29.962   3.531   7.664
  469POPC   C1B 9355  30.113   3.305   8.564
  469POPC   C2B 9356  30.109   3.349   8.264
  469POPC   C3B 9357  30.123   3.331   7.964
  469POPC   C4B 9358  30.073   3.314   7.664
  470POPC   NC3 9359  16.761   1.217   9.464
  470POPC   PO4 9360  16.695   1.244   9.164
  470POPC   GL1 9361  16.774   1.190   8.864
  470POPC   GL2 9362  16.878   1.211   8.864
  470POPC   C1A 9363  16.726   1.180   8.564
  470POPC   D2A 9364  16.708   1.235   8.264
  470POPC   C3A 9365  16.708   1.199   7.964
  470POPC   C4A 9366  16.682   1.212   7.664
  470POPC   C1B 9367  16.962   1.203   8.564
  470POPC   C2B 9368  16.930   1.169   8.264
  470POPC   C3B 9369  16.967   1.141   7.964
  470POPC   C4B 9370  16.984   1.192   7.664
  471POPC   NC3 9371  18.294  41.583   9.464
  471POPC   PO4 9372  18.275  41.580   9.164
  471POPC   GL1 9373  18.284  41.513   8.864
  471POPC   GL2 9374  18.148  41.589   8.864
  471POPC   C1A 9375  18.292  41.512   8.564
  471POPC   D2A 9376  18.292  41.601   8.264
  471POPC   C3A 9377  18.290  41.551   7.964
  471POPC   C4A 9378  18.253  41.515   7.664
  471POPC   C1B 9379  17.993  41.607   8.564
  471POPC   C2B 9380  18.011  41.544   8.264
  471POPC   C3B 9381  18.060  41.617   7.964
  471POPC   C4B 9382  18.029  41.579   7.664
  472POPC   NC3 9383  39.272  43.901   9.464
  472POPC   PO4 9384  39.278  43.869   9.164
  472POPC   GL1 9385  39.193  43.870   8.864
  472POPC   GL2 9386  39.212  43.812   8.864
  472POPC   C1A 9387  39.194  43.881   8.564
  472POPC   D2A 9388  39.238  43.851   8.264
  472POPC   C3A 9389  39.257  43.900   7.964
  472POPC   C4A 9390  39.281  43.877   7.664
  472POPC   C1B 9391  39.187  43.662   8.564
  472POPC   C2B 9392  39.139  43.668   8.264
  472POPC   C3B 9393  39.193  43.622   7.964
  472POPC   C4B 9394  39.200  43.629   7.664
  473POPC   NC3 9395   1.235  21.348   9.464
  473POPC   PO4 9396   1.197  21.347   9.164
  473POPC   GL1 9397   1.181  21.412   8.864
  473POPC   GL2 9398   1.306  21.313   8.864
  473POPC   C1A 9399   1.201  21.341   8.564
  473POPC   D2A 9400   1.169  21.363   8.264
  473POPC   C3A 9401   1.178  21.390   7.964
  473POPC   C4A 9402   1.191  21.340   7.664
  473POPC   C1B 9403   1.421  21.269   8.564
  473POPC   C2B 9404   1.490  21.317   8.264
  473POPC   C3B 9405   1.490  21.313   7.964
  473POPC   C4B 9406   1.432  21.298   7.664
  474POPC   NC3 9407  40.780  39.232   9.464
  474POPC   PO4 9408  40.748  39.192   9.164
  474POPC   GL1 9409  40.737  39.242   8.864
  474POPC   GL2 9410  40.819  39.387   8.864
  474POPC   C1A 9411  40.806  39.277   8.564
  474POPC   D2A 9412  40.826  39.206   8.264
  474POPC   C3A 9413  40.833  39.254   7.964
  474POPC   C4A 9414  40.805  39.183   7.664
  474POPC   C1B 9415  40.738  39.480   8.564
  474POPC   C2B 9416  40.714  39.487   8.264
  474POPC   C3B 9417  40.808  39.459   7.964
  474POPC   C4B 9418  40.738  39.474   7.664
  475POPC   NC3 9419  44.658   5.913   9.464
  475POPC   PO4 9420  44.705   5.822   9.164
  475POPC   GL1 9421  44.627   5.855   8.864
  475POPC   GL2 9422  44.571   5.852   8.864
  475POPC   C1A 9423  44.628   5.880   8.564
  475POPC   D2A 9424  44.649   5.877   8.264
  475POPC   C3A 9425  44.654   5.877   7.964
  475POPC   C4A 9426  44.629   5.857   7.664
  475POPC   C1B 9427  44.426   5.909   8.564
  475POPC   C2B 9428  44.446   5.930   8.264
  475POPC   C3B 9429  44.426   5.895   7.964
  475POPC   C4B 9430  44.390   5.883   7.664
  476POPC   NC3 9431  12.844  35.385   9.464
  476POPC   PO4 9432  12.831  35.401   9.164
  476POPC   GL1 9433  12.862  35.373   8.864
  476POPC   GL2 9434  12.959  35.432   8.864
  476POPC   C1A 9435  12.868  35.379   8.564
  476POPC   D2A 9436  12.808  35.357   8.264
  476POPC   C3A 9437  12.827  35.360   7.964
  476POPC   C4A 9438  12.867  35.373   7.664
  476POPC   C1B 9439  13.058  35.488   8.564
  476POPC   C2B 9440  13.071  35.531   8.264
  476POPC   C3B 9441  13.085  35.507   7.964
  476POPC   C4B 9442  13.030  35.532   7.664
  477POPC   NC3 9443  44.658  33.753   9.464
  477POPC   PO4 9444  44.627  33.755   9.164
  477POPC   GL1 9445  44.692  33.784   8.864
  477POPC   GL2 9446  44.713  33.888   8.864
  477POPC   C1A 9447  44.688  33.813   8.564
  477POPC   D2A 9448  44.672  33.794   8.264
  477POPC   C3A 9449  44.687  33.785   7.964
  477POPC   C4A 9450  44.678  33.833   7.664
  477POPC   C1B 9451  44.766  33.982   8.564
  477POPC   C2B 9452  44.716  34.051   8.264
  477POPC   C3B 9453  44.755  33.981   7.964
  477POPC   C4B 9454  44.802  34.042   7.664
  478POPC   NC3 9455  24.501  13.648   9.464
  478POPC   PO4 9456  24.475  13.659   9.164
  478POPC   GL1 9457  24.457  13.603   8.864
  478POPC   GL2 9458  24.415  13.496   8.864
  478POPC   C1A 9459  24.453  13.632   8.564
  478POPC   D2A 9460  24.479  13.591   8.264
  478POPC   C3A 9461  24.518  13.629   7.964
  478POPC   C4A 9462  24.449  13.673   7.664
  478POPC   C1B 9463  24.470  13.370   8.564
  478POPC   C2B 9464  24.426  13.411   8.264
  478POPC   C3B 9465  24.442  13.421   7.964
  478POPC   C4B 9466  24.446  13.407   7.664
  479POPC   NC3 9467   1.967  35.351   9.464
  479POPC   PO4 9468   2.004  35.307   9.164
  479POPC   GL1 9469   2.026  35.354   8.864
  479POPC   GL2 9470   2.058  35.258   8.864
  479POPC   C1A 9471   2.037  35.337   8.564
  479POPC   D2A 9472   1.947  35.319   8.264
  479POPC   C3A 9473   1.999  35.381   7.964
  479POPC   C4A 9474   1.946  35.338   7.664
  479POPC   C1B 9475   2.073  35.132   8.564
  479POPC   C2B 9476   2.153  35.149   8.264
  479POPC   C3B 9477   2.133  35.176   7.964
  479POPC   C4B 9478   2.095  35.109   7.664
  480POPC   NC3 9479  38.424  13.620   9.464
  480POPC   PO4 9480  38.421  13.653   9.164
  480POPC   GL1 9481  38.495  13.613   8.864
  480POPC   GL2 9482  38.463  13.758   8.864
  480POPC   C1A 9483  38.460  13.628   8.564
  480POPC   D2A 9484  38.472  13.611   8.264
  480POPC   C3A 9485  38.454  13.637   7.964
  480POPC   C4A 9486  38.419  13.636   7.664
  480POPC   C1B 9487  38.410  13.919   8.564
  480POPC   C2B 9488  38.453  13.855   8.264
  480POPC   C3B 9489  38.408  13.919   7.964
  480POPC   C4B 9490  38.457  13.847   7.664
  481POPC   NC3 9491  29.941  16.002   9.464
  481POPC   PO4 9492  29.962  15.979   9.164
  481POPC   GL1 9493  29.922  15.936   8.864
  481POPC   GL2 9494  29.828  16.007   8.864
  481POPC   C1A 9495  29.927  15.998   8.564
  481POPC   D2A 9496  29.960  15.965   8.264
  481POPC   C3A 9497  29.903  15.934   7.964
  481POPC   C4A 9498  29.885  15.945   7.664
  481POPC   C1B 9499  29.691  16.101   8.564
  481POPC   C2B 9500  29.679  16.112   8.264
  481POPC   C3B 9501  29.738  16.068   7.964
  481POPC   C4B 9502  29.704  16.084   7.664
  482POPC   NC3 9503  37.640  30.692   9.464
  482POPC   PO4 9504  37.702  30.730   9.164
  482POPC   GL1 9505  37.707  30.719   8.864
  482POPC   GL2 9506  37.637  30.558   8.864
  482POPC   C1A 9507  37.699  30.703   8.564
  482POPC   D2A 9508  37.645  30.731   8.264
  482POPC   C3A 9509  37.695  30.702   7.964
  482POPC   C4A 9510  37.653  30.703   7.664
  482POPC   C1B 9511  37.623  30.424   8.564
  482POPC   C2B 9512  37.626  30.503   8.264
  482POPC   C3B 9513  37.618  30.470   7.964
  482POPC   C4B 9514  37.608  30.480   7.664
  483POPC   NC3 9515   0.421   5.842   9.464
  483POPC   PO4 9516   0.432   5.820   9.164
  483POPC   GL1 9517   0.458   5.887   8.864
  483POPC   GL2 9518   0.599   5.880   8.864
  483POPC   C1A 9519   0.422   5.881   8.564
  483POPC   D2A 9520   0.423   5.851   8.264
  483POPC   C3A 9521   0.414   5.829   7.964
  483POPC   C4A 9522   0.448   5.825   7.664
  483POPC   C1B 9523   0.678   5.897   8.564
  483POPC   C2B 9524   0.673   5.928   8.264
  483POPC   C3B 9525   0.689   5.860   7.964
  483POPC   C4B 9526   0.716   5.909   7.664
  484POPC   NC3 9527  39.272   5.857   9.464
  484POPC   PO4 9528  39.279   5.883   9.164
  484POPC   GL1 9529  39.182   5.835   8.864
  484POPC   GL2 9530  39.115   5.785   8.864
  484POPC   C1A 9531  39.198   5.866   8.564
  484POPC   D2A 9532  39.210   5.893   8.264
  484POPC   C3A 9533  39.195   5.823   7.964
  484POPC   C4A 9534  39.225   5.906   7.664
  484POPC   C1B 9535  39.035   5.760   8.564
  484POPC   C2B 9536  39.049   5.784   8.264
  484POPC   C3B 9537  39.023   5.716   7.964
  484POPC   C4B 9538  39.014   5.801   7.664
  485POPC   NC3 9539   3.579  22.121   9.464
  485POPC   PO4 9540   3.518  22.203   9.164
  485POPC   GL1 9541   3.495  22.126   8.864
  485POPC   GL2 9542   3.408  22.198   8.864
  485POPC   C1A 9543   3.576  22.201   8.564
  485POPC   D2A 9544   3.586  22.187   8.264
  485POPC   C3A 9545   3.512  22.156   7.964
  485POPC   C4A 9546   3.498  22.115   7.664
  485POPC   C1B 9547   3.353  22.292   8.564
  485POPC   C2B 9548   3.316  22.269   8.264
  485POPC   C3B 9549   3.314  22.296   7.964
  485POPC   C4B 9550   3.310  22.240   7.664
  486POPC   NC3 9551  20.565   9.765   9.464
  486POPC   PO4 9552  20.636   9.793   9.164
  486POPC   GL1 9553  20.604   9.743   8.864
  486POPC   GL2 9554  20.563   9.839   8.864
  486POPC   C1A 9555  20.599   9.734   8.564
  486POPC   D2A 9556  20.641   9.759   8.264
  486POPC   C3A 9557  20.591   9.783   7.964
  486POPC   C4A 9558  20.607   9.782   7.664
  486POPC   C1B 9559  20.472   9.926   8.564
  486POPC   C2B 9560  20.498   9.986   8.264
  486POPC   C3B 9561  20.511   9.995   7.964
  486POPC   C4B 9562  20.479   9.944   7.664
  487POPC   NC3 9563   5.822  15.919   9.464
  487POPC   PO4 9564   5.869  15.957   9.164
  487POPC   GL1 9565   5.919  15.985   8.864
  487POPC   GL2 9566   6.032  15.931   8.864
  487POPC   C1A 9567   5.858  15.978   8.564
  487POPC   D2A 9568   5.864  15.971   8.264
  487POPC   C3A 9569   5.874  15.908   7.964
  487POPC   C4A 9570   5.857  15.959   7.664
  487POPC   C1B 9571   6.128  16.015   8.564
  487POPC   C2B 9572   6.070  16.005   8.264
  487POPC   C3B 9573   6.162  16.000   7.964
  487POPC   C4B 9574   6.120  16.023   7.664
  488POPC   NC3 9575   9.776  30.652   9.464
  488POPC   PO4 9576   9.717  30.706   9.164
  488POPC   GL1 9577   9.760  30.714   8.864
  488POPC   GL2 9578   9.737  30.544   8.864
  488POPC   C1A 9579   9.727  30.744   8.564
  488POPC   D2A 9580   9.706  30.662   8.264
  488POPC   C3A 9581   9.718  30.708   7.964
  488POPC   C4A 9582   9.701  30.687   7.664
  488POPC   C1B 9583   9.643  30.497   8.564
  488POPC   C2B 9584   9.617  30.444   8.264
  488POPC   C3B 9585   9.618  30.435   7.964
  488POPC   C4B 9586   9.624  30.428   7.664
  489POPC   NC3 9587  43.141   3.544   9.464
  489POPC   PO4 9588  43.064   3.508   9.164
  489POPC   GL1 9589  43.133   3.514   8.864
  489POPC   GL2 9590  43.233   3.587   8.864
  489POPC   C1A 9591  43.124   3.573   8.564
  489POPC   D2A 9592  43.116   3.511   8.264
  489POPC   C3A 9593  43.122   3.537   7.964
  489POPC   C4A 9594  43.157   3.545   7.664
  489POPC   C1B 9595  43.381   3.631   8.564
  489POPC   C2B 9596  43.379   3.642   8.264
  489POPC   C3B 9597  43.344   3.608   7.964
  489POPC   C4B 9598  43.325   3.593   7.664
  490POPC   NC3 9599  36.091  25.245   9.464
  490POPC   PO4 9600  36.154  25.239   9.164
  490POPC   GL1 9601  36.140  25.310   8.864
  490POPC   GL2 9602  36.196  25.127   8.864
  490POPC   C1A 9603  36.123  25.236   8.564
  490POPC   D2A 9604  36.152  25.284   8.264
  490POPC   C3A 9605  36.084  25.250   7.964
  490POPC   C4A 9606  36.095  25.221   7.664
  490POPC   C1B 9607  36.266  25.090   8.564
  490POPC   C2B 9608  36.284  25.014   8.264
  490POPC   C3B 9609  36.287  25.093   7.964
  490POPC   C4B 9610  36.298  25.049   7.664
  491POPC   NC3 9611  25.997  12.080   9.464
  491POPC   PO4 9612  25.994  12.041   9.164
  491POPC   GL1 9613  25.996  12.083   8.864
  491POPC   GL2 9614  25.925  12.003   8.864
  491POPC   C1A 9615  26.056  12.048   8.564
  491POPC   D2A 9616  26.039  12.044   8.264
  491POPC   C3A 9617  26.047  12.051   7.964
  491POPC   C4A 9618  26.049  12.082   7.664
  491POPC   C1B 9619  25.839  11.976   8.564
  491POPC   C2B 9620  25.798  11.959   8.264
  491POPC   C3B 9621  25.816  11.952   7.964
  491POPC   C4B 9622  25.844  11.930   7.664
  492POPC   NC3 9623  29.952  21.409   9.464
  492POPC   PO4 9624  29.948  21.379   9.164
  492POPC   GL1 9625  29.962  21.398   8.864
  492POPC   GL2 9626  30.093  21.390   8.864
  492POPC   C1A 9627  29.912  21.398   8.564
  492POPC   D2A 9628  29.954  21.400   8.264
  492POPC   C3A 9629  29.936  21.431   7.964
  492POPC   C4A 9630  29.892  21.367   7.664
  492POPC   C1B 9631  30.178  21.372   8.564
  492POPC   C2B 9632  30.127  21.418   8.264
  492POPC   C3B 9633  30.196  21.396   7.964
  492POPC   C4B 9634  30.137  21.362   7.664
  493POPC   NC3 9635  42.346  10.528   9.464
  493POPC   PO4 9636  42.309  10.516   9.164
  493POPC   GL1 9637  42.321  10.514   8.864
  493POPC   GL2 9638  42.491  10.553   8.864
  493POPC   C1A 9639  42.340  10.494   8.564
  493POPC   D2A 9640  42.297  10.514   8.264
  493POPC   C3A 9641  42.304  10.477   7.964
  493POPC   C4A 9642  42.337  10.507   7.664
  493POPC   C1B 9643  42.549  10.584   8.564
  493POPC   C2B 9644  42.556  10.598   8.264
  493POPC   C3B 9645  42.540  10.594   7.964
  493POPC   C4B 9646  42.618  10.554   7.664
  494POPC   NC3 9647  34.577  26.022   9.464
  494POPC   PO4 9648  34.534  26.040   9.164
  494POPC   GL1 9649  34.554  26.066   8.864
  494POPC   GL2 9650  34.701  26.135   8.864
  494POPC   C1A 9651  34.535  26.029   8.564
  494POPC   D2A 9652  34.558  26.020   8.264
  494POPC   C3A 9653  34.532  26.027   7.964
  494POPC   C4A 9654  34.599  25.995   7.664
  494POPC   C1B 9655  34.764  26.188   8.564
  494POPC   C2B 9656  34.765  26.243   8.264
  494POPC   C3B 9657  34.784  26.190   7.964
  494POPC   C4B 9658  34.751  26.253   7.664
  495POPC   NC3 9659  22.133  36.934   9.464
  495POPC   PO4 9660  22.200  36.861   9.164
  495POPC   GL1 9661  22.202  36.937   8.864
  495POPC   GL2 9662  22.145  36.802   8.864
  495POPC   C1A 9663  22.141  36.928   8.564
  495POPC   D2A 9664  22.169  36.854   8.264
  495POPC   C3A 9665  22.128  36.885   7.964
  495POPC   C4A 9666  22.118  36.880   7.664
  495POPC   C1B 9667  22.118  36.624   8.564
  495POPC   C2B 9668  22.055  36.624   8.264
  495POPC   C3B 9669  22.118  36.650   7.964
  495POPC   C4B 9670  22.126  36.685   7.664
  496POPC   NC3 9671  14.372  37.670   9.464
  496POPC   PO4 9672  14.366  37.657   9.164
  496POPC   GL1 9673  14.376  37.662   8.864
  496POPC   GL2 9674  14.421  37.758   8.864
  496POPC   C1A 9675  14.446  37.678   8.564
  496POPC   D2A 9676  14.373  37.679   8.264
  496POPC   C3A 9677  14.394  37.694   7.964
  496POPC   C4A 9678  14.417  37.673   7.664
  496POPC   C1B 9679  14.418  37.947   8.564
  496POPC   C2B 9680  14.476  37.888   8.264
  496POPC   C3B 9681  14.467  37.965   7.964
  496POPC   C4B 9682  14.464  37.927   7.664
  497POPC   NC3 9683  22.127  12.884   9.464
  497POPC   PO4 9684  22.176  12.898   9.164
  497POPC   GL1 9685  22.122  12.834   8.864
  497POPC   GL2 9686  22.286  12.809   8.864
  497POPC   C1A 9687  22.177  12.825   8.564
  497POPC   D2A 9688  22.173  12.817   8.264
  497POPC   C3A 9689  22.136  12.862   7.964
  497POPC   C4A 9690  22.154  12.862   7.664
  497POPC   C1B 9691  22.411  12.802   8.564
  497POPC   C2B 9692  22.367  12.835   8.264
  497POPC   C3B 9693  22.388  12.802   7.964
  497POPC   C4B 9694  22.421  12.826   7.664
  498POPC   NC3 9695   8.983   4.303   9.464
  498POPC   PO4 9696   9.018   4.291   9.164
  498POPC   GL1 9697   8.965   4.358   8.864
  498POPC   GL2 9698   8.990   4.181   8.864
  498POPC   C1A 9699   9.015   4.314   8.564
  498POPC   D2A 9700   8.936   4.319   8.264
  498POPC   C3A 9701   8.943   4.292   7.964
  498POPC   C4A 9702   8.932   4.314   7.664
  498POPC   C1B 9703   8.963   4.097   8.564
  498POPC   C2B 9704   9.006   4.025   8.264
  498POPC   C3B 9705   8.937   4.062   7.964
  498POPC   C4B 9706   8.986   4.055   7.664
  499POPC   NC3 9707  36.158   8.989   9.464
  499POPC   PO4 9708  36.154   8.977   9.164
  499POPC   GL1 9709  36.127   8.948   8.864
  499POPC   GL2 9710  35.977   9.007   8.864
  499POPC   C1A 9711  36.140   9.008   8.564
  499POPC   D2A 9712  36.123   8.996   8.264
  499POPC   C3A 9713  36.118   9.001   7.964
  499POPC   C4A 9714  36.157   8.930   7.664
  499POPC   C1B 9715  35.929   8.976   8.564
  499POPC   C2B 9716  35.926   9.034   8.264
  499POPC   C3B 9717  35.896   9.019   7.964
  499POPC   C4B 9718  35.848   9.062   7.664
  500POPC   NC3 9719  32.206   8.985   9.464
  500POPC   PO4 9720  32.276   8.999   9.164
  500POPC   GL1 9721  32.205   9.003   8.864
  500POPC   GL2 9722  32.168   9.023   8.864
  500POPC   C1A 9723  32.234   9.022   8.564
  500POPC   D2A 9724  32.241   8.937   8.264
  500POPC   C3A 9725  32.249   9.004   7.964
  500POPC   C4A 9726  32.255   8.950   7.664
  500POPC   C1B 9727  32.030   8.946   8.564
  500POPC   C2B 9728  31.964   8.955   8.264
  500POPC   C3B 9729  31.980   8.992   7.964
  500POPC   C4B 9730  32.011   9.028   7.664
  501POPC   NC3 9731  44.657  21.434   9.464
  501POPC   PO4 9732  44.670  21.400   9.164
  501POPC   GL1 9733  44.701  21.386   8.864
  501POPC   GL2 9734  44.737  21.305   8.864
  501POPC   C1A 9735  44.691  21.429   8.564
  501POPC   D2A 9736  44.646  21.402   8.264
  501POPC   C3A 9737  44.689  21.356   7.964
  501POPC   C4A 9738  44.663  21.385   7.664
  501POPC   C1B 9739  44.882  21.277   8.564
  501POPC   C2B 9740  44.840  21.243   8.264
  501POPC   C3B 9741  44.873  21.276   7.964
  501POPC   C4B 9742  44.871  21.236   7.664
  502POPC   NC3 9743  33.056  15.144   9.464
  502POPC   PO4 9744  33.045  15.140   9.164
  502POPC   GL1 9745  33.048  15.139   8.864
  502POPC   GL2 9746  33.066  15.350   8.864
  502POPC   C1A 9747  33.023  15.169   8.564
  502POPC   D2A 9748  33.023  15.214   8.264
  502POPC   C3A 9749  33.031  15.131   7.964
  502POPC   C4A 9750  33.045  15.206   7.664
  502POPC   C1B 9751  33.053  15.413   8.564
  502POPC   C2B 9752  32.995  15.436   8.264
  502POPC   C3B 9753  33.015  15.413   7.964
  502POPC   C4B 9754  33.031  15.467   7.664
  503POPC   NC3 9755   7.454  34.534   9.464
  503POPC   PO4 9756   7.417  34.570   9.164
  503POPC   GL1 9757   7.453  34.593   8.864
  503POPC   GL2 9758   7.316  34.551   8.864
  503POPC   C1A 9759   7.388  34.541   8.564
  503POPC   D2A 9760   7.407  34.533   8.264
  503POPC   C3A 9761   7.447  34.600   7.964
  503POPC   C4A 9762   7.449  34.622   7.664
  503POPC   C1B 9763   7.203  34.444   8.564
  503POPC   C2B 9764   7.210  34.441   8.264
  503POPC   C3B 9765   7.255  34.422   7.964
  503POPC   C4B 9766   7.169  34.484   7.664
  504POPC   NC3 9767  33.062  34.582   9.464
  504POPC   PO4 9768  33.001  34.527   9.164
  504POPC   GL1 9769  33.000  34.590   8.864
  504POPC   GL2 9770  33.121  34.477   8.864
  504POPC   C1A 9771  33.049  34.567   8.564
  504POPC   D2A 9772  33.033  34.620   8.264
  504POPC   C3A 9773  33.042  34.535   7.964
  504POPC   C4A 9774  33.073  34.555   7.664
  504POPC   C1B 9775  33.131  34.360   8.564
  504POPC   C2B 9776  33.176  34.341   8.264
  504POPC   C3B 9777  33.116  34.391   7.964
  504POPC   C4B 9778  33.182  34.343   7.664
  505POPC   NC3 9779  22.138  30.667   9.464
  505POPC   PO4 9780  22.188  30.656   9.164
  505POPC   GL1 9781  22.180  30.718   8.864
  505POPC   GL2 9782  22.089  30.639   8.864
  505POPC   C1A 9783  22.114  30.738   8.564
  505POPC   D2A 9784  22.210  30.743   8.264
  505POPC   C3A 9785  22.189  30.702   7.964
  505POPC   C4A 9786  22.152  30.669   7.664
  505POPC   C1B 9787  22.007  30.537   8.564
  505POPC   C2B 9788  21.943  30.503   8.264
  505POPC   C3B 9789  21.964  30.581   7.964
  505POPC   C4B 9790  21.964  30.523   7.664
  506POPC   NC3 9791  16.699  16.756   9.464
  506POPC   PO4 9792  16.705  16.697   9.164
  506POPC   GL1 9793  16.763  16.769   8.864
  506POPC   GL2 9794  16.787  16.598   8.864
  506POPC   C1A 9795  16.780  16.764   8.564
  506POPC   D2A 9796  16.707  16.736   8.264
  506POPC   C3A 9797  16.743  16.699   7.964
  506POPC   C4A 9798  16.712  16.707   7.664
  506POPC   C1B 9799  16.848  16.583   8.564
  506POPC   C2B 9800  16.889  16.566   8.264
  506POPC   C3B 9801  16.856  16.487   7.964
  506POPC   C4B 9802  16.894  16.491   7.664
  507POPC   NC3 9803  19.801  19.092   9.464
  507POPC   PO4 9804  19.820  19.087   9.164
  507POPC   GL1 9805  19.847  19.096   8.864
  507POPC   GL2 9806  19.811  18.945   8.864
  507POPC   C1A 9807  19.804  19.063   8.564
  507POPC   D2A 9808  19.792  19.011   8.264
  507POPC   C3A 9809  19.813  19.029   7.964
  507POPC   C4A 9810  19.785  19.051   7.664
  507POPC   C1B 9811  19.920  18.802   8.564
  507POPC   C2B 9812  19.921  18.782   8.264
  507POPC   C3B 9813  19.890  18.856   7.964
  507POPC   C4B 9814  19.838  18.852   7.664
  508POPC   NC3 9815  14.363  39.184   9.464
  508POPC   PO4 9816  14.372  39.221   9.164
  508POPC   GL1 9817  14.436  39.271   8.864
  508POPC   GL2 9818  14.382  39.402   8.864
  508POPC   C1A 9819  14.391  39.196   8.564
  508POPC   D2A 9820  14.413  39.251   8.264
  508POPC   C3A 9821  14.364  39.269   7.964
  508POPC   C4A 9822  14.368  39.202   7.664
  508POPC   C1B 9823  14.357  39.457   8.564
  508POPC   C2B 9824  14.379  39.506   8.264
  508POPC   C3B 9825  14.445  39.438   7.964
  508POPC   C4B 9826  14.412  39.491   7.664
  509POPC   NC3 9827   2.014  44.695   9.464
  509POPC   PO4 9828   1.991  44.684   9.164
  509POPC   GL1 9829   1.970  44.700   8.864
  509POPC   GL2 9830   1.844  44.695   8.864
  509POPC   C1A 9831   2.020  44.640   8.564
  509POPC   D2A 9832   2.017  44.633   8.264
  509POPC   C3A 9833   1.973  44.657   7.964
  509POPC   C4A 9834   1.953  44.710   7.664
  509POPC   C1B 9835   1.768  44.734   8.564
  509POPC   C2B 9836   1.747  44.676   8.264
  509POPC   C3B 9837   1.693  44.698   7.964
  509POPC   C4B 9838   1.776  44.726   7.664
  510POPC   NC3 9839  22.198  43.852   9.464
  510POPC   PO4 9840  22.210  43.902   9.164
  510POPC   GL1 9841  22.154  43.879   8.864
  510POPC   GL2 9842  22.066  43.919   8.864
  510POPC   C1A 9843  22.114  43.918   8.564
  510POPC   D2A 9844  22.180  43.887   8.264
  510POPC   C3A 9845  22.203  43.871   7.964
  510POPC   C4A 9846  22.144  43.849   7.664
  510POPC   C1B 9847  21.945  43.971   8.564
  510POPC   C2B 9848  21.921  43.981   8.264
  510POPC   C3B 9849  21.918  43.973   7.964
  510POPC   C4B 9850  21.932  44.034   7.664
  511POPC   NC3 9851  10.558  21.414   9.464
  511POPC   PO4 9852  10.530  21.429   9.164
  511POPC   GL1 9853  10.507  21.344   8.864
  511POPC   GL2 9854  10.642  21.516   8.864
  511POPC   C1A 9855  10.558  21.419   8.564
  511POPC   D2A 9856  10.569  21.388   8.264
  511POPC   C3A 9857  10.548  21.352   7.964
  511POPC   C4A 9858  10.545  21.400   7.664
  511POPC   C1B 9859  10.678  21.589   8.564
  511POPC   C2B 9860  10.663  21.530   8.264
  511POPC   C3B 9861  10.722  21.557   7.964
  511POPC   C4B 9862  10.735  21.549   7.664
  512POPC   NC3 9863  26.838  29.117   9.464
  512POPC   PO4 9864  26.828  29.161   9.164
  512POPC   GL1 9865  26.791  29.124   8.864
  512POPC   GL2 9866  26.931  29.127   8.864
  512POPC   C1A 9867  26.767  29.157   8.564
  512POPC   D2A 9868  26.853  29.133   8.264
  512POPC   C3A 9869  26.780  29.141   7.964
  512POPC   C4A 9870  26.784  29.156   7.664
  512POPC   C1B 9871  27.050  29.025   8.564
  512POPC   C2B 9872  27.067  29.055   8.264
  512POPC   C3B 9873  27.053  29.117   7.964
  512POPC   C4B 9874  27.029  29.021   7.664
  513POPC   NC3 9875  27.613   5.868   9.464
  513POPC   PO4 9876  27.565   5.828   9.164
  513POPC   GL1 9877  27.637   5.872   8.864
  513POPC   GL2 9878  27.576   6.024   8.864
  513POPC   C1A 9879  27.584   5.909   8.564
  513POPC   D2A 9880  27.555   5.829   8.264
  513POPC   C3A 9881  27.617   5.853   7.964
  513POPC   C4A 9882  27.547   5.833   7.664
  513POPC   C1B 9883  27.492   6.129   8.564
  513POPC   C2B 9884  27.499   6.089   8.264
  513POPC   C3B 9885  27.499   6.111   7.964
  513POPC   C4B 9886  27.445   6.121   7.664
  514POPC   NC3 9887  37.639   5.871   9.464
  514POPC   PO4 9888  37.655   5.833   9.164
  514POPC   GL1 9889  37.657   5.902   8.864
  514POPC   GL2 9890  37.602   5.821   8.864
  514POPC   C1A 9891  37.640   5.840   8.564
  514POPC   D2A 9892  37.691   5.826   8.264
  514POPC   C3A 9893  37.694   5.854   7.964
  514POPC   C4A 9894  37.646   5.901   7.664
  514POPC   C1B 9895  37.463   5.672   8.564
  514POPC   C2B 9896  37.463   5.703   8.264
  514POPC   C3B 9897  37.491   5.685   7.964
  514POPC   C4B 9898  37.515   5.697   7.664
  515POPC   NC3 9899   9.737  12.121   9.464
  515POPC   PO4 9900   9.737  12.094   9.164
  515POPC   GL1 9901   9.706  12.030   8.864
  515POPC   GL2 9902   9.795  11.978   8.864
  515POPC   C1A 9903   9.795  12.092   8.564
  515POPC   D2A 9904   9.707  12.091   8.264
  515POPC   C3A 9905   9.780  12.077   7.964
  515POPC   C4A 9906   9.761  12.062   7.664
  515POPC   C1B 9907   9.892  11.880   8.564
  515POPC   C2B 9908   9.865  11.865   8.264
  515POPC   C3B 9909   9.830  11.906   7.964
  515POPC   C4B 9910   9.830  11.878   7.664
  516POPC   NC3 9911   8.970   5.902   9.464
  516POPC   PO4 9912   9.012   5.902   9.164
  516POPC   GL1 9913   8.990   5.832   8.864
  516POPC   GL2 9914   9.056   5.944   8.864
  516POPC   C1A 9915   8.970   5.880   8.564
  516POPC   D2A 9916   8.982   5.852   8.264
  516POPC   C3A 9917   8.980   5.832   7.964
  516POPC   C4A 9918   8.974   5.901   7.664
  516POPC   C1B 9919   9.135   6.072   8.564
  516POPC   C2B 9920   9.169   6.098   8.264
  516POPC   C3B 9921   9.116   6.044   7.964
  516POPC   C4B 9922   9.188   6.056   7.664
  517POPC   NC3 9923  43.108   2.722   9.464
  517POPC   PO4 9924  43.094   2.796   9.164
  517POPC   GL1 9925  43.089   2.739   8.864
  517POPC   GL2 9926  43.115   2.866   8.864
  517POPC   C1A 9927  43.107   2.751   8.564
  517POPC   D2A 9928  43.093   2.811   8.264
  517POPC   C3A 9929  43.067   2.762   7.964
  517POPC   C4A 9930  43.158   2.762   7.664
  517POPC   C1B 9931  43.187   3.051   8.564
  517POPC   C2B 9932  43.211   3.012   8.264
  517POPC   C3B 9933  43.134   3.031   7.964
  517POPC   C4B 9934  43.129   3.050   7.664
  518POPC   NC3 9935  43.113   1.943   9.464
  518POPC   PO4 9936  43.082   1.987   9.164
  518POPC   GL1 9937  43.113   2.001   8.864
  518POPC   GL2 9938  43.171   1.971   8.864
  518POPC   C1A 9939  43.067   1.968   8.564
  518POPC   D2A 9940  43.084   2.038   8.264
  518POPC   C3A 9941  43.150   2.018   7.964
  518POPC   C4A 9942  43.110   2.035   7.664
  518POPC   C1B 9943  43.273   1.805   8.564
  518POPC   C2B 9944  43.282   1.854   8.264
  518POPC   C3B 9945  43.320   1.813   7.964
  518POPC   C4B 9946  43.319   1.859   7.664
  519POPC   NC3 9947  35.381  19.017   9.464
  519POPC   PO4 9948  35.316  19.045   9.164
  519POPC   GL1 9949  35.386  19.078   8.864
  519POPC   GL2 9950  35.415  19.001   8.864
  519POPC   C1A 9951  35.350  19.027   8.564
  519POPC   D2A 9952  35.392  19.107   8.264
  519POPC   C3A 9953  35.369  19.102   7.964
  519POPC   C4A 9954  35.314  19.025   7.664
  519POPC   C1B 9955  35.499  18.814   8.564
  519POPC   C2B 9956  35.457  18.876   8.264
  519POPC   C3B 9957  35.478  18.807   7.964
  519POPC   C4B 9958  35.499  18.839   7.664
  520POPC   NC3 9959  27.624  12.841   9.464
  520POPC   PO4 9960  27.618  12.902   9.164
  520POPC   GL1 9961  27.545  12.817   8.864
  520POPC   GL2 9962  27.502  12.889   8.864
  520POPC   C1A 9963  27.546  12.878   8.564
  520POPC   D2A 9964  27.555  12.851   8.264
  520POPC   C3A 9965  27.561  12.869   7.964
  520POPC   C4A 9966  27.621  12.846   7.664
  520POPC   C1B 9967  27.385  12.837   8.564
  520POPC   C2B 9968  27.354  12.864   8.264
  520POPC   C3B 9969  27.365  12.833   7.964
  520POPC   C4B 9970  27.326  12.836   7.664
  521POPC   NC3 9971  33.843  35.395   9.464
  521POPC   PO4 9972  33.835  35.389   9.164
  521POPC   GL1 9973  33.753  35.368   8.864
  521POPC   GL2 9974  33.773  35.290   8.864
  521POPC   C1A 9975  33.820  35.375   8.564
  521POPC   D2A 9976  33.779  35.309   8.264
  521POPC   C3A 9977  33.784  35.342   7.964
  521POPC   C4A 9978  33.760  35.385   7.664
  521POPC   C1B 9979  33.679  35.169   8.564
  521POPC   C2B 9980  33.638  35.144   8.264
  521POPC   C3B 9981  33.655  35.098   7.964
  521POPC   C4B 9982  33.729  35.085   7.664
  522POPC   NC3 9983  33.759   5.054   9.464
  522POPC   PO4 9984  33.832   5.130   9.164
  522POPC   GL1 9985  33.788   5.060   8.864
  522POPC   GL2 9986  33.816   5.238   8.864
  522POPC   C1A 9987  33.830   5.130   8.564
  522POPC   D2A 9988  33.751   5.114   8.264
  522POPC   C3A 9989  33.791   5.079   7.964
  522POPC   C4A 9990  33.797   5.094   7.664
  522POPC   C1B 9991  33.839   5.310   8.564
  522POPC   C2B 9992  33.806   5.349   8.264
  522POPC   C3B 9993  33.809   5.340   7.964
  522POPC   C4B 9994  33.789   5.342   7.664
  523POPC   NC3 9995  12.027  29.895   9.464
  523POPC   PO4 9996  12.092  29.945   9.164
  523POPC   GL1 9997  12.050  29.966   8.864
  523POPC   GL2 9998  12.169  30.026   8.864
  523POPC   C1A 9999  12.086  29.964   8.564
  523POPC   D2A10000  12.027  29.937   8.264
  523POPC   C3A10001  12.026  29.893   7.964
  523POPC   C4A10002  12.046  29.911   7.664
  523POPC   C1B10003  12.253  30.030   8.564
  523POPC   C2B10004  12.338  30.006   8.264
  523POPC   C3B10005  12.304  30.016   7.964
  523POPC   C4B10006  12.310  30.028   7.664
  524POPC   NC310007   2.746  29.168   9.464
  524POPC   PO410008   2.743  29.180   9.164
  524POPC   GL110009   2.734  29.181   8.864
  524POPC   GL210010   2.709  29.033   8.864
  524POPC   C1A10011   2.738  29.158   8.564
  524POPC   D2A10012   2.728  29.125   8.264
  524POPC   C3A10013   2.731  29.168   7.964
  524POPC   C4A10014   2.795  29.193   7.664
  524POPC   C1B10015   2.601  29.020   8.564
  524POPC   C2B10016   2.526  28.983   8.264
  524POPC   C3B10017   2.550  29.034   7.964
  524POPC   C4B10018   2.549  28.953   7.664
  525POPC   NC310019  35.353  12.087   9.464
  525POPC   PO410020  35.334  12.052   9.164
  525POPC   GL110021  35.314  12.052   8.864
  525POPC   GL210022  35.460  12.117   8.864
  525POPC   C1A10023  35.333  12.121   8.564
  525POPC   D2A10024  35.343  12.084   8.264
  525POPC   C3A10025  35.380  12.095   7.964
  525POPC   C4A10026  35.399  12.074   7.664
  525POPC   C1B10027  35.567  12.155   8.564
  525POPC   C2B10028  35.539  12.208   8.264
  525POPC   C3B10029  35.614  12.170   7.964
  525POPC   C4B10030  35.616  12.193   7.664
  526POPC   NC310031  12.803  38.460   9.464
  526POPC   PO410032  12.884  38.444   9.164
  526POPC   GL110033  12.844  38.482   8.864
  526POPC   GL210034  12.948  38.485   8.864
  526POPC   C1A10035  12.839  38.475   8.564
  526POPC   D2A10036  12.834  38.495   8.264
  526POPC   C3A10037  12.859  38.421   7.964
  526POPC   C4A10038  12.847  38.421   7.664
  526POPC   C1B10039  13.075  38.548   8.564
  526POPC   C2B10040  13.041  38.602   8.264
  526POPC   C3B10041  13.037  38.548   7.964
  526POPC   C4B10042  13.069  38.570   7.664
  527POPC   NC310043  18.295  23.736   9.464
  527POPC   PO410044  18.269  23.686   9.164
  527POPC   GL110045  18.234  23.722   8.864
  527POPC   GL210046  18.394  23.743   8.864
  527POPC   C1A10047  18.299  23.755   8.564
  527POPC   D2A10048  18.241  23.731   8.264
  527POPC   C3A10049  18.327  23.720   7.964
  527POPC   C4A10050  18.324  23.673   7.664
  527POPC   C1B10051  18.578  23.741   8.564
  527POPC   C2B10052  18.510  23.672   8.264
  527POPC   C3B10053  18.542  23.665   7.964
  527POPC   C4B10054  18.501  23.665   7.664
  528POPC   NC310055  20.643  23.667   9.464
  528POPC   PO410056  20.608  23.711   9.164
  528POPC   GL110057  20.632  23.686   8.864
  528POPC   GL210058  20.674  23.786   8.864
  528POPC   C1A10059  20.599  23.671   8.564
  528POPC   D2A10060  20.601  23.747   8.264
  528POPC   C3A10061  20.637  23.690   7.964
  528POPC   C4A10062  20.627  23.757   7.664
  528POPC   C1B10063  20.728  23.916   8.564
  528POPC   C2B10064  20.722  23.903   8.264
  528POPC   C3B10065  20.784  23.935   7.964
  528POPC   C4B10066  20.771  23.900   7.664
  529POPC   NC310067  33.071  36.873   9.464
  529POPC   PO410068  33.008  36.940   9.164
  529POPC   GL110069  32.991  36.928   8.864
  529POPC   GL210070  33.096  36.959   8.864
  529POPC   C1A10071  33.021  36.914   8.564
  529POPC   D2A10072  33.019  36.910   8.264
  529POPC   C3A10073  33.071  36.907   7.964
  529POPC   C4A10074  33.057  36.931   7.664
  529POPC   C1B10075  33.150  37.136   8.564
  529POPC   C2B10076  33.178  37.140   8.264
  529POPC   C3B10077  33.169  37.140   7.964
  529POPC   C4B10078  33.115  37.099   7.664
  530POPC   NC310079  43.934  24.450   9.464
  530POPC   PO410080  43.870  24.514   9.164
  530POPC   GL110081  43.857  24.454   8.864
  530POPC   GL210082  43.747  24.540   8.864
  530POPC   C1A10083  43.894  24.495   8.564
  530POPC   D2A10084  43.865  24.452   8.264
  530POPC   C3A10085  43.900  24.498   7.964
  530POPC   C4A10086  43.852  24.507   7.664
  530POPC   C1B10087  43.619  24.642   8.564
  530POPC   C2B10088  43.705  24.613   8.264
  530POPC   C3B10089  43.686  24.575   7.964
  530POPC   C4B10090  43.682  24.579   7.664
  531POPC   NC310091  11.320   1.952   9.464
  531POPC   PO410092  11.302   1.987   9.164
  531POPC   GL110093  11.313   2.011   8.864
  531POPC   GL210094  11.148   1.951   8.864
  531POPC   C1A10095  11.332   1.966   8.564
  531POPC   D2A10096  11.312   1.990   8.264
  531POPC   C3A10097  11.320   2.001   7.964
  531POPC   C4A10098  11.325   1.974   7.664
  531POPC   C1B10099  11.039   1.890   8.564
  531POPC   C2B10100  11.045   1.889   8.264
  531POPC   C3B10101  11.028   1.875   7.964
  531POPC   C4B10102  11.056   1.955   7.664
  532POPC   NC310103  17.481  11.327   9.464
  532POPC   PO410104  17.465  11.340   9.164
  532POPC   GL110105  17.546  11.252   8.864
  532POPC   GL210106  17.597  11.171   8.864
  532POPC   C1A10107  17.543  11.277   8.564
  532POPC   D2A10108  17.460  11.288   8.264
  532POPC   C3A10109  17.487  11.257   7.964
  532POPC   C4A10110  17.552  11.266   7.664
  532POPC   C1B10111  17.713  11.164   8.564
  532POPC   C2B10112  17.714  11.090   8.264
  532POPC   C3B10113  17.716  11.134   7.964
  532POPC   C4B10114  17.704  11.128   7.664
  533POPC   NC310115  12.837  41.598   9.464
  533POPC   PO410116  12.827  41.603   9.164
  533POPC   GL110117  12.885  41.594   8.864
  533POPC   GL210118  12.899  41.472   8.864
  533POPC   C1A10119  12.862  41.596   8.564
  533POPC   D2A10120  12.888  41.605   8.264
  533POPC   C3A10121  12.852  41.557   7.964
  533POPC   C4A10122  12.806  41.550   7.664
  533POPC   C1B10123  12.998  41.369   8.564
  533POPC   C2B10124  12.927  41.368   8.264
  533POPC   C3B10125  12.910  41.286   7.964
  533POPC   C4B10126  12.947  41.285   7.664
  534POPC   NC310127   8.239  13.648   9.464
  534POPC   PO410128   8.185  13.633   9.164
  534POPC   GL110129   8.147  13.632   8.864
  534POPC   GL210130   8.254  13.731   8.864
  534POPC   C1A10131   8.205  13.607   8.564
  534POPC   D2A10132   8.148  13.588   8.264
  534POPC   C3A10133   8.151  13.585   7.964
  534POPC   C4A10134   8.212  13.584   7.664
  534POPC   C1B10135   8.315  13.780   8.564
  534POPC   C2B10136   8.310  13.874   8.264
  534POPC   C3B10137   8.306  13.865   7.964
  534POPC   C4B10138   8.319  13.821   7.664
  535POPC   NC310139  33.790  43.857   9.464
  535POPC   PO410140  33.817  43.854   9.164
  535POPC   GL110141  33.844  43.926   8.864
  535POPC   GL210142  33.666  43.949   8.864
  535POPC   C1A10143  33.842  43.929   8.564
  535POPC   D2A10144  33.795  43.932   8.264
  535POPC   C3A10145  33.755  43.916   7.964
  535POPC   C4A10146  33.825  43.913   7.664
  535POPC   C1B10147  33.517  44.021   8.564
  535POPC   C2B10148  33.611  44.012   8.264
  535POPC   C3B10149  33.604  43.973   7.964
  535POPC   C4B10150  33.572  43.974   7.664
  536POPC   NC310151  34.615  18.319   9.464
  536POPC   PO410152  34.610  18.265   9.164
  536POPC   GL110153  34.539  18.307   8.864
  536POPC   GL210154  34.479  18.380   8.864
  536POPC   C1A10155  34.615  18.282   8.564
  536POPC   D2A10156  34.580  18.247   8.264
  536POPC   C3A10157  34.551  18.324   7.964
  536POPC   C4A10158  34.526  18.270   7.664
  536POPC   C1B10159  34.443  18.533   8.564
  536POPC   C2B10160  34.404  18.463   8.264
  536POPC   C3B10161  34.471  18.443   7.964
  536POPC   C4B10162  34.424  18.506   7.664
  537POPC   NC310163  43.107   9.748   9.464
  537POPC   PO410164  43.140   9.764   9.164
  537POPC   GL110165  43.138   9.762   8.864
  537POPC   GL210166  43.028   9.816   8.864
  537POPC   C1A10167  43.099   9.746   8.564
  537POPC   D2A10168  43.134   9.734   8.264
  537POPC   C3A10169  43.133   9.731   7.964
  537POPC   C4A10170  43.109   9.715   7.664
  537POPC   C1B10171  42.862   9.895   8.564
  537POPC   C2B10172  42.918   9.833   8.264
  537POPC   C3B10173  42.924   9.829   7.964
  537POPC   C4B10174  42.840   9.880   7.664
  538POPC   NC310175  43.892  15.946   9.464
  538POPC   PO410176  43.910  16.000   9.164
  538POPC   GL110177  43.877  15.948   8.864
  538POPC   GL210178  43.825  15.842   8.864
  538POPC   C1A10179  43.896  16.005   8.564
  538POPC   D2A10180  43.878  15.942   8.264
  538POPC   C3A10181  43.936  15.938   7.964
  538POPC   C4A10182  43.918  15.956   7.664
  538POPC   C1B10183  43.646  15.764   8.564
  538POPC   C2B10184  43.664  15.839   8.264
  538POPC   C3B10185  43.662  15.842   7.964
  538POPC   C4B10186  43.672  15.835   7.664
  539POPC   NC310187  15.222  38.409   9.464
  539POPC   PO410188  15.158  38.499   9.164
  539POPC   GL110189  15.152  38.410   8.864
  539POPC   GL210190  15.185  38.289   8.864
  539POPC   C1A10191  15.192  38.472   8.564
  539POPC   D2A10192  15.194  38.411   8.264
  539POPC   C3A10193  15.182  38.470   7.964
  539POPC   C4A10194  15.131  38.494   7.664
  539POPC   C1B10195  15.302  38.227   8.564
  539POPC   C2B10196  15.243  38.202   8.264
  539POPC   C3B10197  15.223  38.261   7.964
  539POPC   C4B10198  15.262  38.213   7.664
  540POPC   NC310199   1.982  39.998   9.464
  540POPC   PO410200   2.019  39.994   9.164
  540POPC   GL110201   2.027  39.997   8.864
  540POPC   GL210202   1.995  40.128   8.864
  540POPC   C1A10203   1.956  40.020   8.564
  540POPC   D2A10204   1.966  39.986   8.264
  540POPC   C3A10205   2.033  40.001   7.964
  540POPC   C4A10206   1.968  39.990   7.664
  540POPC   C1B10207   1.987  40.248   8.564
  540POPC   C2B10208   2.071  40.217   8.264
  540POPC   C3B10209   2.064  40.279   7.964
  540POPC   C4B10210   2.081  40.230   7.664
  541POPC   NC310211  24.528  39.214   9.464
  541POPC   PO410212  24.468  39.188   9.164
  541POPC   GL110213  24.486  39.211   8.864
  541POPC   GL210214  24.337  39.171   8.864
  541POPC   C1A10215  24.500  39.264   8.564
  541POPC   D2A10216  24.530  39.201   8.264
  541POPC   C3A10217  24.518  39.218   7.964
  541POPC   C4A10218  24.515  39.198   7.664
  541POPC   C1B10219  24.229  39.132   8.564
  541POPC   C2B10220  24.295  39.179   8.264
  541POPC   C3B10221  24.303  39.167   7.964
  541POPC   C4B10222  24.303  39.156   7.664
  542POPC   NC310223   2.774   1.259   9.464
  542POPC   PO410224   2.746   1.195   9.164
  542POPC   GL110225   2.754   1.214   8.864
  542POPC   GL210226   2.721   1.069   8.864
  542POPC   C1A10227   2.811   1.165   8.564
  542POPC   D2A10228   2.797   1.172   8.264
  542POPC   C3A10229   2.778   1.232   7.964
  542POPC   C4A10230   2.780   1.236   7.664
  542POPC   C1B10231   2.752   1.008   8.564
  542POPC   C2B10232   2.766   0.927   8.264
  542POPC   C3B10233   2.739   0.927   7.964
  542POPC   C4B10234   2.761   0.954   7.664
  543POPC   NC310235  19.819  12.093   9.464
  543POPC   PO410236  19.830  12.081   9.164
  543POPC   GL110237  19.826  12.033   8.864
  543POPC   GL210238  19.925  12.165   8.864
  543POPC   C1A10239  19.837  12.116   8.564
  543POPC   D2A10240  19.792  12.077   8.264
  543POPC   C3A10241  19.870  12.037   7.964
  543POPC   C4A10242  19.799  12.090   7.664
  543POPC   C1B10243  20.011  12.234   8.564
  543POPC   C2B10244  20.071  12.196   8.264
  543POPC   C3B10245  20.004  12.254   7.964
  543POPC   C4B10246  20.053  12.182   7.664
  544POPC   NC310247  34.588   9.004   9.464
  544POPC   PO410248  34.584   8.982   9.164
  544POPC   GL110249  34.552   8.950   8.864
  544POPC   GL210250  34.676   8.941   8.864
  544POPC   C1A10251  34.607   8.959   8.564
  544POPC   D2A10252  34.589   8.956   8.264
  544POPC   C3A10253  34.601   8.952   7.964
  544POPC   C4A10254  34.593   8.952   7.664
  544POPC   C1B10255  34.811   8.846   8.564
  544POPC   C2B10256  34.840   8.894   8.264
  544POPC   C3B10257  34.844   8.910   7.964
  544POPC   C4B10258  34.765   8.876   7.664
  545POPC   NC310259  43.925   7.409   9.464
  545POPC   PO410260  43.895   7.445   9.164
  545POPC   GL110261  43.900   7.377   8.864
  545POPC   GL210262  43.800   7.468   8.864
  545POPC   C1A10263  43.909   7.374   8.564
  545POPC   D2A10264  43.876   7.378   8.264
  545POPC   C3A10265  43.837   7.413   7.964
  545POPC   C4A10266  43.914   7.458   7.664
  545POPC   C1B10267  43.606   7.535   8.564
  545POPC   C2B10268  43.617   7.504   8.264
  545POPC   C3B10269  43.607   7.490   7.964
  545POPC   C4B10270  43.667   7.521   7.664
  546POPC   NC310271  33.836  19.066   9.464
  546POPC   PO410272  33.798  19.085   9.164
  546POPC   GL110273  33.821  19.105   8.864
  546POPC   GL210274  33.817  19.189   8.864
  546POPC   C1A10275  33.788  19.074   8.564
  546POPC   D2A10276  33.842  19.080   8.264
  546POPC   C3A10277  33.815  19.080   7.964
  546POPC   C4A10278  33.846  19.020   7.664
  546POPC   C1B10279  33.816  19.344   8.564
  546POPC   C2B10280  33.738  19.357   8.264
  546POPC   C3B10281  33.817  19.302   7.964
  546POPC   C4B10282  33.750  19.328   7.664
  547POPC   NC310283   7.418  22.933   9.464
  547POPC   PO410284   7.436  22.923   9.164
  547POPC   GL110285   7.373  22.932   8.864
  547POPC   GL210286   7.335  23.026   8.864
  547POPC   C1A10287   7.438  22.897   8.564
  547POPC   D2A10288   7.434  22.900   8.264
  547POPC   C3A10289   7.375  22.945   7.964
  547POPC   C4A10290   7.470  22.942   7.664
  547POPC   C1B10291   7.223  23.085   8.564
  547POPC   C2B10292   7.197  23.051   8.264
  547POPC   C3B10293   7.254  23.088   7.964
  547POPC   C4B10294   7.197  23.104   7.664
  548POPC   NC310295  17.555  41.511   9.464
  548POPC   PO410296  17.474  41.572   9.164
  548POPC   GL110297  17.506  41.550   8.864
  548POPC   GL210298  17.433  41.625   8.864
  548POPC   C1A10299  17.499  41.596   8.564
  548POPC   D2A10300  17.544  41.535   8.264
  548POPC   C3A10301  17.466  41.560   7.964
  548POPC   C4A10302  17.538  41.511   7.664
  548POPC   C1B10303  17.412  41.794   8.564
  548POPC   C2B10304  17.425  41.786   8.264
  548POPC   C3B10305  17.396  41.772   7.964
  548POPC   C4B10306  17.395  41.797   7.664
  549POPC   NC310307   7.422  28.411   9.464
  549POPC   PO410308   7.441  28.348   9.164
  549POPC   GL110309   7.447  28.418   8.864
  549POPC   GL210310   7.508  28.318   8.864
  549POPC   C1A10311   7.448  28.382   8.564
  549POPC   D2A10312   7.454  28.344   8.264
  549POPC   C3A10313   7.441  28.338   7.964
  549POPC   C4A10314   7.377  28.375   7.664
  549POPC   C1B10315   7.613  28.213   8.564
  549POPC   C2B10316   7.622  28.154   8.264
  549POPC   C3B10317   7.630  28.200   7.964
  549POPC   C4B10318   7.608  28.171   7.664
  550POPC   NC310319  10.569   5.871   9.464
  550POPC   PO410320  10.477   5.831   9.164
  550POPC   GL110321  10.560   5.855   8.864
  550POPC   GL210322  10.647   5.870   8.864
  550POPC   C1A10323  10.515   5.905   8.564
  550POPC   D2A10324  10.522   5.891   8.264
  550POPC   C3A10325  10.540   5.894   7.964
  550POPC   C4A10326  10.553   5.874   7.664
  550POPC   C1B10327  10.728   5.818   8.564
  550POPC   C2B10328  10.802   5.831   8.264
  550POPC   C3B10329  10.721   5.762   7.964
  550POPC   C4B10330  10.741   5.763   7.664
  551POPC   NC310331  11.283  42.357   9.464
  551POPC   PO410332  11.321  42.328   9.164
  551POPC   GL110333  11.337  42.285   8.864
  551POPC   GL210334  11.349  42.460   8.864
  551POPC   C1A10335  11.312  42.368   8.564
  551POPC   D2A10336  11.330  42.382   8.264
  551POPC   C3A10337  11.272  42.299   7.964
  551POPC   C4A10338  11.333  42.295   7.664
  551POPC   C1B10339  11.411  42.566   8.564
  551POPC   C2B10340  11.399  42.604   8.264
  551POPC   C3B10341  11.351  42.591   7.964
  551POPC   C4B10342  11.368  42.570   7.664
  552POPC   NC310343  39.182   5.117   9.464
  552POPC   PO410344  39.217   5.073   9.164
  552POPC   GL110345  39.270   5.133   8.864
  552POPC   GL210346  39.230   4.960   8.864
  552POPC   C1A10347  39.248   5.129   8.564
  552POPC   D2A10348  39.264   5.141   8.264
  552POPC   C3A10349  39.279   5.136   7.964
  552POPC   C4A10350  39.274   5.069   7.664
  552POPC   C1B10351  39.174   4.808   8.564
  552POPC   C2B10352  39.221   4.853   8.264
  552POPC   C3B10353  39.167   4.865   7.964
  552POPC   C4B10354  39.166   4.800   7.664
  553POPC   NC310355  43.932  26.839   9.464
  553POPC   PO410356  43.894  26.826   9.164
  553POPC   GL110357  43.934  26.823   8.864
  553POPC   GL210358  43.812  26.734   8.864
  553POPC   C1A10359  43.889  26.777   8.564
  553POPC   D2A10360  43.875  26.855   8.264
  553POPC   C3A10361  43.901  26.808   7.964
  553POPC   C4A10362  43.873  26.820   7.664
  553POPC   C1B10363  43.773  26.600   8.564
  553POPC   C2B10364  43.845  26.550   8.264
  553POPC   C3B10365  43.838  26.590   7.964
  553POPC   C4B10366  43.791  26.584   7.664
  554POPC   NC310367   3.584  16.694   9.464
  554POPC   PO410368   3.532  16.695   9.164
  554POPC   GL110369   3.553  16.694   8.864
  554POPC   GL210370   3.569  16.577   8.864
  554POPC   C1A10371   3.492  16.756   8.564
  554POPC   D2A10372   3.523  16.751   8.264
  554POPC   C3A10373   3.568  16.710   7.964
  554POPC   C4A10374   3.586  16.736   7.664
  554POPC   C1B10375   3.534  16.530   8.564
  554POPC   C2B10376   3.533  16.438   8.264
  554POPC   C3B10377   3.578  16.464   7.964
  554POPC   C4B10378   3.572  16.442   7.664
  555POPC   NC310379  19.826  14.389   9.464
  555POPC   PO410380  19.813  14.426   9.164
  555POPC   GL110381  19.795  14.453   8.864
  555POPC   GL210382  19.665  14.355   8.864
  555POPC   C1A10383  19.854  14.447   8.564
  555POPC   D2A10384  19.818  14.429   8.264
  555POPC   C3A10385  19.817  14.372   7.964
  555POPC   C4A10386  19.862  14.397   7.664
  555POPC   C1B10387  19.556  14.361   8.564
  555POPC   C2B10388  19.582  14.404   8.264
  555POPC   C3B10389  19.629  14.354   7.964
  555POPC   C4B10390  19.542  14.328   7.664
  556POPC   NC310391  10.535  24.487   9.464
  556POPC   PO410392  10.510  24.486   9.164
  556POPC   GL110393  10.495  24.507   8.864
  556POPC   GL210394  10.518  24.579   8.864
  556POPC   C1A10395  10.574  24.528   8.564
  556POPC   D2A10396  10.546  24.537   8.264
  556POPC   C3A10397  10.528  24.460   7.964
  556POPC   C4A10398  10.485  24.490   7.664
  556POPC   C1B10399  10.443  24.696   8.564
  556POPC   C2B10400  10.456  24.710   8.264
  556POPC   C3B10401  10.401  24.732   7.964
  556POPC   C4B10402  10.415  24.739   7.664
  557POPC   NC310403  21.363  39.280   9.464
  557POPC   PO410404  21.400  39.246   9.164
  557POPC   GL110405  21.340  39.198   8.864
  557POPC   GL210406  21.473  39.248   8.864
  557POPC   C1A10407  21.386  39.215   8.564
  557POPC   D2A10408  21.433  39.275   8.264
  557POPC   C3A10409  21.337  39.198   7.964
  557POPC   C4A10410  21.390  39.195   7.664
  557POPC   C1B10411  21.678  39.215   8.564
  557POPC   C2B10412  21.639  39.168   8.264
  557POPC   C3B10413  21.655  39.207   7.964
  557POPC   C4B10414  21.596  39.242   7.664
  558POPC   NC310415  20.563   3.532   9.464
  558POPC   PO410416  20.570   3.568   9.164
  558POPC   GL110417  20.624   3.495   8.864
  558POPC   GL210418  20.668   3.501   8.864
  558POPC   C1A10419  20.599   3.572   8.564
  558POPC   D2A10420  20.627   3.509   8.264
  558POPC   C3A10421  20.587   3.534   7.964
  558POPC   C4A10422  20.587   3.561   7.664
  558POPC   C1B10423  20.825   3.382   8.564
  558POPC   C2B10424  20.833   3.421   8.264
  558POPC   C3B10425  20.790   3.342   7.964
  558POPC   C4B10426  20.793   3.383   7.664
  559POPC   NC310427  43.891  41.521   9.464
  559POPC   PO410428  43.935  41.511   9.164
  559POPC   GL110429  43.865  41.534   8.864
  559POPC   GL210430  44.004  41.578   8.864
  559POPC   C1A10431  43.881  41.577   8.564
  559POPC   D2A10432  43.915  41.514   8.264
  559POPC   C3A10433  43.899  41.592   7.964
  559POPC   C4A10434  43.868  41.564   7.664
  559POPC   C1B10435  44.164  41.479   8.564
  559POPC   C2B10436  44.119  41.544   8.264
  559POPC   C3B10437  44.170  41.490   7.964
  559POPC   C4B10438  44.129  41.570   7.664
  560POPC   NC310439   8.244  12.027   9.464
  560POPC   PO410440   8.195  12.082   9.164
  560POPC   GL110441   8.229  12.056   8.864
  560POPC   GL210442   8.113  12.133   8.864
  560POPC   C1A10443   8.218  12.032   8.564
  560POPC   D2A10444   8.169  12.039   8.264
  560POPC   C3A10445   8.151  12.058   7.964
  560POPC   C4A10446   8.225  12.031   7.664
  560POPC   C1B10447   7.956  12.139   8.564
  560POPC   C2B10448   7.975  12.060   8.264
  560POPC   C3B10449   7.905  12.112   7.964
  560POPC   C4B10450   7.982  12.134   7.664
  561POPC   NC310451   5.914   1.207   9.464
  561POPC   PO410452   5.917   1.179   9.164
  561POPC   GL110453   5.906   1.190   8.864
  561POPC   GL210454   5.980   1.166   8.864
  561POPC   C1A10455   5.853   1.203   8.564
  561POPC   D2A10456   5.911   1.252   8.264
  561POPC   C3A10457   5.893   1.186   7.964
  561POPC   C4A10458   5.901   1.254   7.664
  561POPC   C1B10459   6.003   1.061   8.564
  561POPC   C2B10460   6.060   1.021   8.264
  561POPC   C3B10461   6.002   1.037   7.964
  561POPC   C4B10462   6.060   1.001   7.664
  562POPC   NC310463  39.185  12.869   9.464
  562POPC   PO410464  39.185  12.887   9.164
  562POPC   GL110465  39.208  12.900   8.864
  562POPC   GL210466  39.168  12.937   8.864
  562POPC   C1A10467  39.248  12.833   8.564
  562POPC   D2A10468  39.183  12.864   8.264
  562POPC   C3A10469  39.235  12.806   7.964
  562POPC   C4A10470  39.230  12.880   7.664
  562POPC   C1B10471  39.172  13.100   8.564
  562POPC   C2B10472  39.162  13.059   8.264
  562POPC   C3B10473  39.129  13.109   7.964
  562POPC   C4B10474  39.178  13.087   7.664
  563POPC   NC310475  31.428   2.745   9.464
  563POPC   PO410476  31.440   2.740   9.164
  563POPC   GL110477  31.447   2.799   8.864
  563POPC   GL210478  31.486   2.906   8.864
  563POPC   C1A10479  31.501   2.791   8.564
  563POPC   D2A10480  31.475   2.783   8.264
  563POPC   C3A10481  31.438   2.779   7.964
  563POPC   C4A10482  31.459   2.764   7.664
  563POPC   C1B10483  31.421   3.008   8.564
  563POPC   C2B10484  31.400   2.968   8.264
  563POPC   C3B10485  31.444   2.982   7.964
  563POPC   C4B10486  31.454   2.995   7.664
  564POPC   NC310487  26.017  34.565   9.464
  564POPC   PO410488  26.004  34.537   9.164
  564POPC   GL110489  26.083  34.576   8.864
  564POPC   GL210490  25.929  34.562   8.864
  564POPC   C1A10491  26.069  34.567   8.564
  564POPC   D2A10492  26.080  34.583   8.264
  564POPC   C3A10493  26.024  34.594   7.964
  564POPC   C4A10494  26.047  34.605   7.664
  564POPC   C1B10495  25.847  34.483   8.564
  564POPC   C2B10496  25.843  34.418   8.264
  564POPC   C3B10497  25.813  34.440   7.964
  564POPC   C4B10498  25.824  34.501   7.664
  565POPC   NC310499  40.761  33.762   9.464
  565POPC   PO410500  40.759  33.801   9.164
  565POPC   GL110501  40.741  33.819   8.864
  565POPC   GL210502  40.743  33.876   8.864
  565POPC   C1A10503  40.756  33.833   8.564
  565POPC   D2A10504  40.765  33.837   8.264
  565POPC   C3A10505  40.767  33.808   7.964
  565POPC   C4A10506  40.750  33.754   7.664
  565POPC   C1B10507  40.762  34.046   8.564
  565POPC   C2B10508  40.794  34.047   8.264
  565POPC   C3B10509  40.843  34.039   7.964
  565POPC   C4B10510  40.791  34.013   7.664
  566POPC   NC310511  26.832  41.565   9.464
  566POPC   PO410512  26.803  41.596   9.164
  566POPC   GL110513  26.854  41.517   8.864
  566POPC   GL210514  26.765  41.450   8.864
  566POPC   C1A10515  26.792  41.562   8.564
  566POPC   D2A10516  26.845  41.535   8.264
  566POPC   C3A10517  26.774  41.526   7.964
  566POPC   C4A10518  26.861  41.575   7.664
  566POPC   C1B10519  26.835  41.327   8.564
  566POPC   C2B10520  26.773  41.326   8.264
  566POPC   C3B10521  26.774  41.310   7.964
  566POPC   C4B10522  26.789  41.354   7.664
  567POPC   NC310523  17.484   7.451   9.464
  567POPC   PO410524  17.547   7.413   9.164
  567POPC   GL110525  17.541   7.400   8.864
  567POPC   GL210526  17.504   7.536   8.864
  567POPC   C1A10527  17.520   7.403   8.564
  567POPC   D2A10528  17.463   7.414   8.264
  567POPC   C3A10529  17.480   7.377   7.964
  567POPC   C4A10530  17.491   7.397   7.664
  567POPC   C1B10531  17.462   7.661   8.564
  567POPC   C2B10532  17.494   7.674   8.264
  567POPC   C3B10533  17.445   7.639   7.964
  567POPC   C4B10534  17.424   7.665   7.664
  568POPC   NC310535  32.267  22.921   9.464
  568POPC   PO410536  32.275  22.906   9.164
  568POPC   GL110537  32.229  22.938   8.864
  568POPC   GL210538  32.173  22.903   8.864
  568POPC   C1A10539  32.253  22.926   8.564
  568POPC   D2A10540  32.270  22.891   8.264
  568POPC   C3A10541  32.214  22.987   7.964
  568POPC   C4A10542  32.214  22.926   7.664
  568POPC   C1B10543  32.010  22.877   8.564
  568POPC   C2B10544  32.042  22.904   8.264
  568POPC   C3B10545  32.024  22.902   7.964
  568POPC   C4B10546  31.954  22.889   7.664
  569POPC   NC310547  43.075  43.123   9.464
  569POPC   PO410548  43.084  43.125   9.164
  569POPC   GL110549  43.071  43.070   8.864
  569POPC   GL210550  43.165  42.981   8.864
  569POPC   C1A10551  43.093  43.151   8.564
  569POPC   D2A10552  43.155  43.134   8.264
  569POPC   C3A10553  43.065  43.080   7.964
  569POPC   C4A10554  43.087  43.113   7.664
  569POPC   C1B10555  43.160  42.840   8.564
  569POPC   C2B10556  43.246  42.839   8.264
  569POPC   C3B10557  43.250  42.874   7.964
  569POPC   C4B10558  43.231  42.904   7.664
  570POPC   NC310559  38.490  36.883   9.464
  570POPC   PO410560  38.422  36.880   9.164
  570POPC   GL110561  38.431  36.872   8.864
  570POPC   GL210562  38.332  36.872   8.864
  570POPC   C1A10563  38.479  36.854   8.564
  570POPC   D2A10564  38.463  36.857   8.264
  570POPC   C3A10565  38.428  36.887   7.964
  570POPC   C4A10566  38.416  36.948   7.664
  570POPC   C1B10567  38.256  36.886   8.564
  570POPC   C2B10568  38.220  36.862   8.264
  570POPC   C3B10569  38.254  36.807   7.964
  570POPC   C4B10570  38.192  36.830   7.664
  571POPC   NC310571   1.203  40.027   9.464
  571POPC   PO410572   1.195  39.974   9.164
  571POPC   GL110573   1.184  40.019   8.864
  571POPC   GL210574   1.102  40.070   8.864
  571POPC   C1A10575   1.196  39.960   8.564
  571POPC   D2A10576   1.169  40.006   8.264
  571POPC   C3A10577   1.188  39.961   7.964
  571POPC   C4A10578   1.222  40.006   7.664
  571POPC   C1B10579   1.093  40.239   8.564
  571POPC   C2B10580   1.100  40.270   8.264
  571POPC   C3B10581   1.070  40.239   7.964
  571POPC   C4B10582   1.098  40.237   7.664
  572POPC   NC310583  13.676  32.214   9.464
  572POPC   PO410584  13.586  32.204   9.164
  572POPC   GL110585  13.634  32.217   8.864
  572POPC   GL210586  13.696  32.339   8.864
  572POPC   C1A10587  13.596  32.252   8.564
  572POPC   D2A10588  13.604  32.291   8.264
  572POPC   C3A10589  13.607  32.255   7.964
  572POPC   C4A10590  13.677  32.208   7.664
  572POPC   C1B10591  13.754  32.495   8.564
  572POPC   C2B10592  13.730  32.478   8.264
  572POPC   C3B10593  13.754  32.514   7.964
  572POPC   C4B10594  13.689  32.459   7.664
  573POPC   NC310595   6.678  31.465   9.464
  573POPC   PO410596   6.598  31.432   9.164
  573POPC   GL110597   6.630  31.453   8.864
  573POPC   GL210598   6.687  31.356   8.864
  573POPC   C1A10599   6.691  31.447   8.564
  573POPC   D2A10600   6.685  31.434   8.264
  573POPC   C3A10601   6.654  31.494   7.964
  573POPC   C4A10602   6.653  31.480   7.664
  573POPC   C1B10603   6.659  31.205   8.564
  573POPC   C2B10604   6.702  31.205   8.264
  573POPC   C3B10605   6.645  31.253   7.964
  573POPC   C4B10606   6.656  31.231   7.664
  574POPC   NC310607  36.936   3.588   9.464
  574POPC   PO410608  36.914   3.543   9.164
  574POPC   GL110609  36.898   3.551   8.864
  574POPC   GL210610  36.937   3.681   8.864
  574POPC   C1A10611  36.873   3.548   8.564
  574POPC   D2A10612  36.915   3.564   8.264
  574POPC   C3A10613  36.918   3.552   7.964
  574POPC   C4A10614  36.937   3.539   7.664
  574POPC   C1B10615  36.944   3.830   8.564
  574POPC   C2B10616  36.910   3.768   8.264
  574POPC   C3B10617  36.967   3.798   7.964
  574POPC   C4B10618  36.898   3.748   7.664
  575POPC   NC310619  22.144  41.608   9.464
  575POPC   PO410620  22.112  41.556   9.164
  575POPC   GL110621  22.167  41.599   8.864
  575POPC   GL210622  22.159  41.670   8.864
  575POPC   C1A10623  22.156  41.577   8.564
  575POPC   D2A10624  22.149  41.518   8.264
  575POPC   C3A10625  22.143  41.551   7.964
  575POPC   C4A10626  22.157  41.536   7.664
  575POPC   C1B10627  22.259  41.777   8.564
  575POPC   C2B10628  22.211  41.839   8.264
  575POPC   C3B10629  22.204  41.783   7.964
  575POPC   C4B10630  22.223  41.774   7.664
  576POPC   NC310631  30.673  22.147   9.464
  576POPC   PO410632  30.684  22.206   9.164
  576POPC   GL110633  30.716  22.134   8.864
  576POPC   GL210634  30.590  22.157   8.864
  576POPC   C1A10635  30.653  22.195   8.564
  576POPC   D2A10636  30.723  22.170   8.264
  576POPC   C3A10637  30.746  22.145   7.964
  576POPC   C4A10638  30.742  22.166   7.664
  576POPC   C1B10639  30.464  22.049   8.564
  576POPC   C2B10640  30.437  22.076   8.264
  576POPC   C3B10641  30.484  22.049   7.964
  576POPC   C4B10642  30.471  22.110   7.664
  577POPC   NC310643  27.630  18.267   9.464
  577POPC   PO410644  27.566  18.272   9.164
  577POPC   GL110645  27.553  18.274   8.864
  577POPC   GL210646  27.545  18.164   8.864
  577POPC   C1A10647  27.567  18.318   8.564
  577POPC   D2A10648  27.625  18.240   8.264
  577POPC   C3A10649  27.567  18.309   7.964
  577POPC   C4A10650  27.608  18.255   7.664
  577POPC   C1B10651  27.386  18.096   8.564
  577POPC   C2B10652  27.392  18.079   8.264
  577POPC   C3B10653  27.405  18.098   7.964
  577POPC   C4B10654  27.395  18.085   7.664
  578POPC   NC310655  26.779  12.897   9.464
  578POPC   PO410656  26.842  12.828   9.164
  578POPC   GL110657  26.801  12.815   8.864
  578POPC   GL210658  26.675  12.833   8.864
  578POPC   C1A10659  26.792  12.863   8.564
  578POPC   D2A10660  26.787  12.827   8.264
  578POPC   C3A10661  26.855  12.826   7.964
  578POPC   C4A10662  26.832  12.807   7.664
  578POPC   C1B10663  26.613  12.854   8.564
  578POPC   C2B10664  26.546  12.855   8.264
  578POPC   C3B10665  26.614  12.828   7.964
  578POPC   C4B10666  26.577  12.806   7.664
  579POPC   NC310667  21.429  40.752   9.464
  579POPC   PO410668  21.350  40.832   9.164
  579POPC   GL110669  21.409  40.791   8.864
  579POPC   GL210670  21.422  40.879   8.864
  579POPC   C1A10671  21.390  40.762   8.564
  579POPC   D2A10672  21.436  40.831   8.264
  579POPC   C3A10673  21.355  40.756   7.964
  579POPC   C4A10674  21.371  40.780   7.664
  579POPC   C1B10675  21.490  41.018   8.564
  579POPC   C2B10676  21.568  41.025   8.264
  579POPC   C3B10677  21.485  40.941   7.964
  579POPC   C4B10678  21.512  40.956   7.664
  580POPC   NC310679  11.333  30.724   9.464
  580POPC   PO410680  11.337  30.671   9.164
  580POPC   GL110681  11.348  30.704   8.864
  580POPC   GL210682  11.238  30.836   8.864
  580POPC   C1A10683  11.337  30.670   8.564
  580POPC   D2A10684  11.277  30.720   8.264
  580POPC   C3A10685  11.273  30.739   7.964
  580POPC   C4A10686  11.327  30.657   7.664
  580POPC   C1B10687  11.293  30.968   8.564
  580POPC   C2B10688  11.241  30.990   8.264
  580POPC   C3B10689  11.222  30.927   7.964
  580POPC   C4B10690  11.256  30.894   7.664
  581POPC   NC310691  11.292  36.162   9.464
  581POPC   PO410692  11.266  36.109   9.164
  581POPC   GL110693  11.345  36.126   8.864
  581POPC   GL210694  11.404  36.213   8.864
  581POPC   C1A10695  11.325  36.106   8.564
  581POPC   D2A10696  11.318  36.149   8.264
  581POPC   C3A10697  11.347  36.170   7.964
  581POPC   C4A10698  11.306  36.152   7.664
  581POPC   C1B10699  11.475  36.254   8.564
  581POPC   C2B10700  11.474  36.312   8.264
  581POPC   C3B10701  11.457  36.300   7.964
  581POPC   C4B10702  11.539  36.259   7.664
  582POPC   NC310703  42.291  39.217   9.464
  582POPC   PO410704  42.304  39.235   9.164
  582POPC   GL110705  42.318  39.260   8.864
  582POPC   GL210706  42.219  39.146   8.864
  582POPC   C1A10707  42.294  39.259   8.564
  582POPC   D2A10708  42.340  39.220   8.264
  582POPC   C3A10709  42.368  39.274   7.964
  582POPC   C4A10710  42.311  39.268   7.664
  582POPC   C1B10711  42.088  39.128   8.564
  582POPC   C2B10712  42.133  39.204   8.264
  582POPC   C3B10713  42.081  39.135   7.964
  582POPC   C4B10714  42.085  39.154   7.664
  583POPC   NC310715  19.105  36.935   9.464
  583POPC   PO410716  19.035  36.895   9.164
  583POPC   GL110717  19.058  36.904   8.864
  583POPC   GL210718  18.934  36.979   8.864
  583POPC   C1A10719  19.019  36.864   8.564
  583POPC   D2A10720  19.088  36.921   8.264
  583POPC   C3A10721  19.100  36.889   7.964
  583POPC   C4A10722  19.099  36.922   7.664
  583POPC   C1B10723  18.862  37.022   8.564
  583POPC   C2B10724  18.896  37.046   8.264
  583POPC   C3B10725  18.890  37.073   7.964
  583POPC   C4B10726  18.886  37.060   7.664
  584POPC   NC310727  28.413  20.657   9.464
  584POPC   PO410728  28.385  20.592   9.164
  584POPC   GL110729  28.402  20.567   8.864
  584POPC   GL210730  28.482  20.741   8.864
  584POPC   C1A10731  28.409  20.630   8.564
  584POPC   D2A10732  28.387  20.592   8.264
  584POPC   C3A10733  28.340  20.649   7.964
  584POPC   C4A10734  28.357  20.603   7.664
  584POPC   C1B10735  28.534  20.762   8.564
  584POPC   C2B10736  28.493  20.793   8.264
  584POPC   C3B10737  28.575  20.824   7.964
  584POPC   C4B10738  28.528  20.758   7.664
  585POPC   NC310739  17.485  12.883   9.464
  585POPC   PO410740  17.499  12.896   9.164
  585POPC   GL110741  17.546  12.843   8.864
  585POPC   GL210742  17.453  12.918   8.864
  585POPC   C1A10743  17.536  12.839   8.564
  585POPC   D2A10744  17.480  12.816   8.264
  585POPC   C3A10745  17.504  12.804   7.964
  585POPC   C4A10746  17.554  12.880   7.664
  585POPC   C1B10747  17.315  13.006   8.564
  585POPC   C2B10748  17.323  12.977   8.264
  585POPC   C3B10749  17.328  13.043   7.964
  585POPC   C4B10750  17.336  13.022   7.664
  586POPC   NC310751  20.627  38.501   9.464
  586POPC   PO410752  20.644  38.479   9.164
  586POPC   GL110753  20.580  38.496   8.864
  586POPC   GL210754  20.488  38.366   8.864
  586POPC   C1A10755  20.657  38.442   8.564
  586POPC   D2A10756  20.617  38.451   8.264
  586POPC   C3A10757  20.591  38.430   7.964
  586POPC   C4A10758  20.571  38.420   7.664
  586POPC   C1B10759  20.458  38.329   8.564
  586POPC   C2B10760  20.388  38.249   8.264
  586POPC   C3B10761  20.392  38.300   7.964
  586POPC   C4B10762  20.379  38.291   7.664
  587POPC   NC310763  15.906  30.738   9.464
  587POPC   PO410764  15.919  30.674   9.164
  587POPC   GL110765  15.995  30.679   8.864
  587POPC   GL210766  15.925  30.787   8.864
  587POPC   C1A10767  15.913  30.692   8.564
  587POPC   D2A10768  15.987  30.723   8.264
  587POPC   C3A10769  15.921  30.740   7.964
  587POPC   C4A10770  15.997  30.743   7.664
  587POPC   C1B10771  15.868  30.897   8.564
  587POPC   C2B10772  15.957  30.958   8.264
  587POPC   C3B10773  15.874  30.981   7.964
  587POPC   C4B10774  15.891  30.917   7.664
  588POPC   NC310775  36.151  23.733   9.464
  588POPC   PO410776  36.174  23.754   9.164
  588POPC   GL110777  36.160  23.745   8.864
  588POPC   GL210778  35.978  23.731   8.864
  588POPC   C1A10779  36.146  23.669   8.564
  588POPC   D2A10780  36.089  23.764   8.264
  588POPC   C3A10781  36.112  23.676   7.964
  588POPC   C4A10782  36.105  23.708   7.664
  588POPC   C1B10783  35.916  23.741   8.564
  588POPC   C2B10784  35.851  23.796   8.264
  588POPC   C3B10785  35.882  23.814   7.964
  588POPC   C4B10786  35.853  23.817   7.664
  589POPC   NC310787  27.628  14.435   9.464
  589POPC   PO410788  27.566  14.394   9.164
  589POPC   GL110789  27.603  14.449   8.864
  589POPC   GL210790  27.655  14.306   8.864
  589POPC   C1A10791  27.553  14.379   8.564
  589POPC   D2A10792  27.596  14.362   8.264
  589POPC   C3A10793  27.594  14.415   7.964
  589POPC   C4A10794  27.625  14.380   7.664
  589POPC   C1B10795  27.659  14.125   8.564
  589POPC   C2B10796  27.602  14.148   8.264
  589POPC   C3B10797  27.598  14.194   7.964
  589POPC   C4B10798  27.640  14.148   7.664
  590POPC   NC310799  33.006  13.654   9.464
  590POPC   PO410800  33.019  13.595   9.164
  590POPC   GL110801  32.982  13.674   8.864
  590POPC   GL210802  33.177  13.579   8.864
  590POPC   C1A10803  33.045  13.580   8.564
  590POPC   D2A10804  32.998  13.660   8.264
  590POPC   C3A10805  32.998  13.665   7.964
  590POPC   C4A10806  33.007  13.603   7.664
  590POPC   C1B10807  33.245  13.646   8.564
  590POPC   C2B10808  33.238  13.651   8.264
  590POPC   C3B10809  33.323  13.599   7.964
  590POPC   C4B10810  33.249  13.641   7.664
  591POPC   NC310811   7.393  32.272   9.464
  591POPC   PO410812   7.398  32.273   9.164
  591POPC   GL110813   7.469  32.298   8.864
  591POPC   GL210814   7.408  32.090   8.864
  591POPC   C1A10815   7.428  32.274   8.564
  591POPC   D2A10816   7.438  32.215   8.264
  591POPC   C3A10817   7.445  32.216   7.964
  591POPC   C4A10818   7.430  32.227   7.664
  591POPC   C1B10819   7.341  32.061   8.564
  591POPC   C2B10820   7.330  31.971   8.264
  591POPC   C3B10821   7.348  31.972   7.964
  591POPC   C4B10822   7.371  31.990   7.664
  592POPC   NC310823   5.899  34.587   9.464
  592POPC   PO410824   5.897  34.545   9.164
  592POPC   GL110825   5.918  34.582   8.864
  592POPC   GL210826   5.790  34.496   8.864
  592POPC   C1A10827   5.883  34.600   8.564
  592POPC   D2A10828   5.901  34.561   8.264
  592POPC   C3A10829   5.902  34.577   7.964
  592POPC   C4A10830   5.866  34.596   7.664
  592POPC   C1B10831   5.776  34.301   8.564
  592POPC   C2B10832   5.770  34.370   8.264
  592POPC   C3B10833   5.796  34.378   7.964
  592POPC   C4B10834   5.813  34.319   7.664
  593POPC   NC310835  29.154  12.095   9.464
  593POPC   PO410836  29.095  12.032   9.164
  593POPC   GL110837  29.182  12.039   8.864
  593POPC   GL210838  29.091  12.161   8.864
  593POPC   C1A10839  29.184  12.116   8.564
  593POPC   D2A10840  29.145  12.093   8.264
  593POPC   C3A10841  29.152  12.066   7.964
  593POPC   C4A10842  29.164  12.090   7.664
  593POPC   C1B10843  29.074  12.319   8.564
  593POPC   C2B10844  29.104  12.336   8.264
  593POPC   C3B10845  29.074  12.367   7.964
  593POPC   C4B10846  29.089  12.304   7.664
  594POPC   NC310847  19.020  40.786   9.464
  594POPC   PO410848  19.055  40.755   9.164
  594POPC   GL110849  19.030  40.803   8.864
  594POPC   GL210850  18.994  40.703   8.864
  594POPC   C1A10851  19.051  40.827   8.564
  594POPC   D2A10852  19.098  40.803   8.264
  594POPC   C3A10853  19.064  40.809   7.964
  594POPC   C4A10854  19.059  40.773   7.664
  594POPC   C1B10855  18.856  40.719   8.564
  594POPC   C2B10856  18.823  40.660   8.264
  594POPC   C3B10857  18.808  40.662   7.964
  594POPC   C4B10858  18.829  40.661   7.664
  595POPC   NC310859   5.131  30.733   9.464
  595POPC   PO410860   5.117  30.663   9.164
  595POPC   GL110861   5.096  30.744   8.864
  595POPC   GL210862   5.002  30.775   8.864
  595POPC   C1A10863   5.074  30.678   8.564
  595POPC   D2A10864   5.136  30.740   8.264
  595POPC   C3A10865   5.093  30.720   7.964
  595POPC   C4A10866   5.120  30.718   7.664
  595POPC   C1B10867   4.942  30.898   8.564
  595POPC   C2B10868   4.879  30.868   8.264
  595POPC   C3B10869   4.904  30.817   7.964
  595POPC   C4B10870   4.894  30.823   7.664
  596POPC   NC310871  17.501  25.228   9.464
  596POPC   PO410872  17.547  25.229   9.164
  596POPC   GL110873  17.513  25.269   8.864
  596POPC   GL210874  17.373  25.313   8.864
  596POPC   C1A10875  17.490  25.231   8.564
  596POPC   D2A10876  17.475  25.239   8.264
  596POPC   C3A10877  17.553  25.265   7.964
  596POPC   C4A10878  17.523  25.268   7.664
  596POPC   C1B10879  17.289  25.373   8.564
  596POPC   C2B10880  17.231  25.371   8.264
  596POPC   C3B10881  17.272  25.354   7.964
  596POPC   C4B10882  17.225  25.329   7.664
  597POPC   NC310883  40.757  35.387   9.464
  597POPC   PO410884  40.780  35.382   9.164
  597POPC   GL110885  40.752  35.303   8.864
  597POPC   GL210886  40.694  35.276   8.864
  597POPC   C1A10887  40.791  35.332   8.564
  597POPC   D2A10888  40.772  35.315   8.264
  597POPC   C3A10889  40.778  35.372   7.964
  597POPC   C4A10890  40.750  35.303   7.664
  597POPC   C1B10891  40.538  35.297   8.564
  597POPC   C2B10892  40.520  35.240   8.264
  597POPC   C3B10893  40.497  35.321   7.964
  597POPC   C4B10894  40.506  35.288   7.664
  598POPC   NC310895  26.035   7.446   9.464
  598POPC   PO410896  25.998   7.467   9.164
  598POPC   GL110897  26.044   7.398   8.864
  598POPC   GL210898  26.045   7.287   8.864
  598POPC   C1A10899  26.088   7.459   8.564
  598POPC   D2A10900  26.084   7.454   8.264
  598POPC   C3A10901  26.020   7.395   7.964
  598POPC   C4A10902  26.070   7.466   7.664
  598POPC   C1B10903  25.993   7.150   8.564
  598POPC   C2B10904  26.044   7.154   8.264
  598POPC   C3B10905  25.985   7.182   7.964
  598POPC   C4B10906  26.057   7.175   7.664
  599POPC   NC310907  30.700  21.422   9.464
  599POPC   PO410908  30.734  21.396   9.164
  599POPC   GL110909  30.701  21.343   8.864
  599POPC   GL210910  30.600  21.484   8.864
  599POPC   C1A10911  30.676  21.406   8.564
  599POPC   D2A10912  30.694  21.424   8.264
  599POPC   C3A10913  30.693  21.422   7.964
  599POPC   C4A10914  30.691  21.345   7.664
  599POPC   C1B10915  30.507  21.592   8.564
  599POPC   C2B10916  30.563  21.605   8.264
  599POPC   C3B10917  30.536  21.580   7.964
  599POPC   C4B10918  30.517  21.514   7.664
  600POPC   NC310919  36.910  10.549   9.464
  600POPC   PO410920  36.870  10.544   9.164
  600POPC   GL110921  36.938  10.486   8.864
  600POPC   GL210922  36.953  10.688   8.864
  600POPC   C1A10923  36.944  10.500   8.564
  600POPC   D2A10924  36.902  10.560   8.264
  600POPC   C3A10925  36.890  10.533   7.964
  600POPC   C4A10926  36.907  10.494   7.664
  600POPC   C1B10927  36.940  10.817   8.564
  600POPC   C2B10928  36.892  10.779   8.264
  600POPC   C3B10929  36.955  10.782   7.964
  600POPC   C4B10930  36.941  10.778   7.664
  601POPC   NC310931   6.626  42.330   9.464
  601POPC   PO410932   6.601  42.285   9.164
  601POPC   GL110933   6.597  42.382   8.864
  601POPC   GL210934   6.799  42.373   8.864
  601POPC   C1A10935   6.610  42.325   8.564
  601POPC   D2A10936   6.694  42.362   8.264
  601POPC   C3A10937   6.657  42.339   7.964
  601POPC   C4A10938   6.612  42.289   7.664
  601POPC   C1B10939   6.866  42.417   8.564
  601POPC   C2B10940   6.926  42.332   8.264
  601POPC   C3B10941   6.854  42.334   7.964
  601POPC   C4B10942   6.893  42.401   7.664
  602POPC   NC310943  19.084   7.373   9.464
  602POPC   PO410944  19.046   7.391   9.164
  602POPC   GL110945  19.010   7.382   8.864
  602POPC   GL210946  18.903   7.466   8.864
  602POPC   C1A10947  19.047   7.373   8.564
  602POPC   D2A10948  19.042   7.432   8.264
  602POPC   C3A10949  19.085   7.468   7.964
  602POPC   C4A10950  19.094   7.425   7.664
  602POPC   C1B10951  18.833   7.447   8.564
  602POPC   C2B10952  18.855   7.522   8.264
  602POPC   C3B10953  18.785   7.506   7.964
  602POPC   C4B10954  18.827   7.531   7.664
  603POPC   NC310955  21.434   3.556   9.464
  603POPC   PO410956  21.401   3.542   9.164
  603POPC   GL110957  21.377   3.539   8.864
  603POPC   GL210958  21.421   3.415   8.864
  603POPC   C1A10959  21.374   3.565   8.564
  603POPC   D2A10960  21.404   3.504   8.264
  603POPC   C3A10961  21.402   3.557   7.964
  603POPC   C4A10962  21.386   3.540   7.664
  603POPC   C1B10963  21.390   3.265   8.564
  603POPC   C2B10964  21.422   3.294   8.264
  603POPC   C3B10965  21.387   3.271   7.964
  603POPC   C4B10966  21.407   3.289   7.664
  604POPC   NC310967  42.294  44.700   9.464
  604POPC   PO410968  42.344  44.657   9.164
  604POPC   GL110969  42.303  44.657   8.864
  604POPC   GL210970  42.407  44.748   8.864
  604POPC   C1A10971  42.292  44.672   8.564
  604POPC   D2A10972  42.371  44.644   8.264
  604POPC   C3A10973  42.302  44.690   7.964
  604POPC   C4A10974  42.322  44.660   7.664
  604POPC   C1B10975  42.524  44.825   8.564
  604POPC   C2B10976  42.588  44.821   8.264
  604POPC   C3B10977  42.510  44.755   7.964
  604POPC   C4B10978  42.523  44.760   7.664
  605POPC   NC310979  27.594   8.164   9.464
  605POPC   PO410980  27.603   8.156   9.164
  605POPC   GL110981  27.590   8.221   8.864
  605POPC   GL210982  27.498   8.296   8.864
  605POPC   C1A10983  27.550   8.150   8.564
  605POPC   D2A10984  27.545   8.222   8.264
  605POPC   C3A10985  27.592   8.155   7.964
  605POPC   C4A10986  27.615   8.210   7.664
  605POPC   C1B10987  27.444   8.379   8.564
  605POPC   C2B10988  27.464   8.372   8.264
  605POPC   C3B10989  27.439   8.342   7.964
  605POPC   C4B10990  27.461   8.409   7.664
  606POPC   NC310991  21.340   9.700   9.464
  606POPC   PO410992  21.378   9.722   9.164
  606POPC   GL110993  21.422   9.770   8.864
  606POPC   GL210994  21.461   9.636   8.864
  606POPC   C1A10995  21.347   9.751   8.564
  606POPC   D2A10996  21.432   9.733   8.264
  606POPC   C3A10997  21.356   9.747   7.964
  606POPC   C4A10998  21.414   9.740   7.664
  606POPC   C1B10999  21.477   9.503   8.564
  606POPC   C2B11000  21.462   9.555   8.264
  606POPC   C3B11001  21.500   9.518   7.964
  606POPC   C4B11002  21.477   9.512   7.664
  607POPC   NC311003  38.422   2.769   9.464
  607POPC   PO411004  38.499   2.732   9.164
  607POPC   GL111005  38.460   2.807   8.864
  607POPC   GL211006  38.534   2.753   8.864
  607POPC   C1A11007  38.461   2.776   8.564
  607POPC   D2A11008  38.455   2.809   8.264
  607POPC   C3A11009  38.473   2.747   7.964
  607POPC   C4A11010  38.429   2.753   7.664
  607POPC   C1B11011  38.667   2.664   8.564
  607POPC   C2B11012  38.702   2.644   8.264
  607POPC   C3B11013  38.663   2.617   7.964
  607POPC   C4B11014  38.668   2.652   7.664
  608POPC   NC311015  33.845  41.569   9.464
  608POPC   PO411016  33.850  41.560   9.164
  608POPC   GL111017  33.796  41.597   8.864
  608POPC   GL211018  33.664  41.562   8.864
  608POPC   C1A11019  33.779  41.591   8.564
  608POPC   D2A11020  33.780  41.603   8.264
  608POPC   C3A11021  33.784  41.543   7.964
  608POPC   C4A11022  33.827  41.560   7.664
  608POPC   C1B11023  33.515  41.514   8.564
  608POPC   C2B11024  33.537  41.468   8.264
  608POPC   C3B11025  33.561  41.485   7.964
  608POPC   C4B11026  33.574  41.454   7.664
  609POPC   NC311027  32.244  21.360   9.464
  609POPC   PO411028  32.296  21.356   9.164
  609POPC   GL111029  32.236  21.348   8.864
  609POPC   GL211030  32.300  21.424   8.864
  609POPC   C1A11031  32.295  21.419   8.564
  609POPC   D2A11032  32.281  21.387   8.264
  609POPC   C3A11033  32.236  21.430   7.964
  609POPC   C4A11034  32.220  21.413   7.664
  609POPC   C1B11035  32.487  21.543   8.564
  609POPC   C2B11036  32.467  21.567   8.264
  609POPC   C3B11037  32.453  21.574   7.964
  609POPC   C4B11038  32.462  21.584   7.664
  610POPC   NC311039  29.881  36.104   9.464
  610POPC   PO411040  29.954  36.097   9.164
  610POPC   GL111041  29.875  36.142   8.864
  610POPC   GL211042  30.008  36.235   8.864
  610POPC   C1A11043  29.962  36.107   8.564
  610POPC   D2A11044  29.946  36.165   8.264
  610POPC   C3A11045  29.937  36.104   7.964
  610POPC   C4A11046  29.937  36.176   7.664
  610POPC   C1B11047  30.115  36.225   8.564
  610POPC   C2B11048  30.174  36.216   8.264
  610POPC   C3B11049  30.144  36.253   7.964
  610POPC   C4B11050  30.104  36.267   7.664
  611POPC   NC311051  19.073  17.536   9.464
  611POPC   PO411052  19.033  17.526   9.164
  611POPC   GL111053  19.051  17.555   8.864
  611POPC   GL211054  19.043  17.669   8.864
  611POPC   C1A11055  19.037  17.521   8.564
  611POPC   D2A11056  19.095  17.509   8.264
  611POPC   C3A11057  19.096  17.529   7.964
  611POPC   C4A11058  19.033  17.483   7.664
  611POPC   C1B11059  18.964  17.712   8.564
  611POPC   C2B11060  18.999  17.707   8.264
  611POPC   C3B11061  18.952  17.735   7.964
  611POPC   C4B11062  18.963  17.738   7.664
  612POPC   NC311063   5.880  33.813   9.464
  612POPC   PO411064   5.832  33.780   9.164
  612POPC   GL111065   5.888  33.752   8.864
  612POPC   GL211066   5.864  33.722   8.864
  612POPC   C1A11067   5.852  33.789   8.564
  612POPC   D2A11068   5.824  33.792   8.264
  612POPC   C3A11069   5.873  33.787   7.964
  612POPC   C4A11070   5.831  33.768   7.664
  612POPC   C1B11071   5.955  33.532   8.564
  612POPC   C2B11072   5.886  33.553   8.264
  612POPC   C3B11073   5.882  33.511   7.964
  612POPC   C4B11074   5.924  33.601   7.664
  613POPC   NC311075   1.228   5.132   9.464
  613POPC   PO411076   1.211   5.063   9.164
  613POPC   GL111077   1.236   5.136   8.864
  613POPC   GL211078   1.302   5.002   8.864
  613POPC   C1A11079   1.251   5.105   8.564
  613POPC   D2A11080   1.227   5.096   8.264
  613POPC   C3A11081   1.239   5.078   7.964
  613POPC   C4A11082   1.264   5.058   7.664
  613POPC   C1B11083   1.395   4.906   8.564
  613POPC   C2B11084   1.411   4.900   8.264
  613POPC   C3B11085   1.344   4.941   7.964
  613POPC   C4B11086   1.406   4.948   7.664
  614POPC   NC311087  28.344  10.535   9.464
  614POPC   PO411088  28.388  10.515   9.164
  614POPC   GL111089  28.364  10.521   8.864
  614POPC   GL211090  28.504  10.570   8.864
  614POPC   C1A11091  28.375  10.543   8.564
  614POPC   D2A11092  28.325  10.495   8.264
  614POPC   C3A11093  28.393  10.512   7.964
  614POPC   C4A11094  28.417  10.540   7.664
  614POPC   C1B11095  28.651  10.630   8.564
  614POPC   C2B11096  28.661  10.575   8.264
  614POPC   C3B11097  28.658  10.542   7.964
  614POPC   C4B11098  28.660  10.622   7.664
  615POPC   NC311099   5.089  29.161   9.464
  615POPC   PO411100   5.080  29.120   9.164
  615POPC   GL111101   5.104  29.183   8.864
  615POPC   GL211102   5.000  29.224   8.864
  615POPC   C1A11103   5.080  29.160   8.564
  615POPC   D2A11104   5.065  29.146   8.264
  615POPC   C3A11105   5.079  29.187   7.964
  615POPC   C4A11106   5.142  29.124   7.664
  615POPC   C1B11107   4.940  29.346   8.564
  615POPC   C2B11108   4.869  29.288   8.264
  615POPC   C3B11109   4.905  29.343   7.964
  615POPC   C4B11110   4.894  29.287   7.664
  616POPC   NC311111  22.931  22.137   9.464
  616POPC   PO411112  22.902  22.198   9.164
  616POPC   GL111113  22.915  22.135   8.864
  616POPC   GL211114  22.899  22.090   8.864
  616POPC   C1A11115  22.983  22.173   8.564
  616POPC   D2A11116  22.905  22.137   8.264
  616POPC   C3A11117  22.985  22.138   7.964
  616POPC   C4A11118  22.957  22.210   7.664
  616POPC   C1B11119  22.761  21.954   8.564
  616POPC   C2B11120  22.752  21.937   8.264
  616POPC   C3B11121  22.757  21.921   7.964
  616POPC   C4B11122  22.762  21.977   7.664
  617POPC   NC311123  43.072  10.529   9.464
  617POPC   PO411124  43.149  10.520   9.164
  617POPC   GL111125  43.111  10.499   8.864
  617POPC   GL211126  43.068  10.425   8.864
  617POPC   C1A11127  43.121  10.531   8.564
  617POPC   D2A11128  43.094  10.507   8.264
  617POPC   C3A11129  43.085  10.501   7.964
  617POPC   C4A11130  43.147  10.574   7.664
  617POPC   C1B11131  43.092  10.303   8.564
  617POPC   C2B11132  43.061  10.318   8.264
  617POPC   C3B11133  43.132  10.320   7.964
  617POPC   C4B11134  43.090  10.279   7.664
  618POPC   NC311135  29.963  30.704   9.464
  618POPC   PO411136  29.893  30.724   9.164
  618POPC   GL111137  29.949  30.666   8.864
  618POPC   GL211138  30.046  30.823   8.864
  618POPC   C1A11139  29.925  30.706   8.564
  618POPC   D2A11140  29.959  30.705   8.264
  618POPC   C3A11141  29.896  30.746   7.964
  618POPC   C4A11142  29.925  30.722   7.664
  618POPC   C1B11143  30.110  30.900   8.564
  618POPC   C2B11144  30.081  30.835   8.264
  618POPC   C3B11145  30.087  30.856   7.964
  618POPC   C4B11146  30.080  30.875   7.664
  619POPC   NC311147  29.946  40.821   9.464
  619POPC   PO411148  29.938  40.798   9.164
  619POPC   GL111149  29.961  40.827   8.864
  619POPC   GL211150  29.764  40.760   8.864
  619POPC   C1A11151  29.882  40.798   8.564
  619POPC   D2A11152  29.887  40.785   8.264
  619POPC   C3A11153  29.884  40.828   7.964
  619POPC   C4A11154  29.887  40.770   7.664
  619POPC   C1B11155  29.636  40.785   8.564
  619POPC   C2B11156  29.652  40.770   8.264
  619POPC   C3B11157  29.721  40.748   7.964
  619POPC   C4B11158  29.679  40.735   7.664
  620POPC   NC311159   8.929  28.337   9.464
  620POPC   PO411160   8.941  28.325   9.164
  620POPC   GL111161   9.020  28.357   8.864
  620POPC   GL211162   9.040  28.298   8.864
  620POPC   C1A11163   8.970  28.338   8.564
  620POPC   D2A11164   8.997  28.354   8.264
  620POPC   C3A11165   8.968  28.352   7.964
  620POPC   C4A11166   8.985  28.385   7.664
  620POPC   C1B11167   9.115  28.166   8.564
  620POPC   C2B11168   9.108  28.168   8.264
  620POPC   C3B11169   9.094  28.158   7.964
  620POPC   C4B11170   9.123  28.108   7.664
  621POPC   NC311171  40.829   0.421   9.464
  621POPC   PO411172  40.746   0.432   9.164
  621POPC   GL111173  40.812   0.447   8.864
  621POPC   GL211174  40.720   0.549   8.864
  621POPC   C1A11175  40.822   0.466   8.564
  621POPC   D2A11176  40.753   0.418   8.264
  621POPC   C3A11177  40.765   0.418   7.964
  621POPC   C4A11178  40.808   0.435   7.664
  621POPC   C1B11179  40.616   0.602   8.564
  621POPC   C2B11180  40.579   0.656   8.264
  621POPC   C3B11181  40.624   0.630   7.964
  621POPC   C4B11182  40.598   0.647   7.664
  622POPC   NC311183  28.359  19.093   9.464
  622POPC   PO411184  28.361  19.083   9.164
  622POPC   GL111185  28.382  19.023   8.864
  622POPC   GL211186  28.480  19.118   8.864
  622POPC   C1A11187  28.379  19.063   8.564
  622POPC   D2A11188  28.330  19.088   8.264
  622POPC   C3A11189  28.415  19.092   7.964
  622POPC   C4A11190  28.413  19.044   7.664
  622POPC   C1B11191  28.507  19.278   8.564
  622POPC   C2B11192  28.577  19.258   8.264
  622POPC   C3B11193  28.582  19.203   7.964
  622POPC   C4B11194  28.582  19.269   7.664
  623POPC   NC311195  21.428   5.916   9.464
  623POPC   PO411196  21.354   5.838   9.164
  623POPC   GL111197  21.387   5.880   8.864
  623POPC   GL211198  21.340   5.743   8.864
  623POPC   C1A11199  21.397   5.846   8.564
  623POPC   D2A11200  21.431   5.897   8.264
  623POPC   C3A11201  21.416   5.887   7.964
  623POPC   C4A11202  21.380   5.821   7.664
  623POPC   C1B11203  21.290   5.650   8.564
  623POPC   C2B11204  21.317   5.662   8.264
  623POPC   C3B11205  21.313   5.602   7.964
  623POPC   C4B11206  21.321   5.658   7.664
  624POPC   NC311207   8.982   3.584   9.464
  624POPC   PO411208   8.975   3.559   9.164
  624POPC   GL111209   8.998   3.514   8.864
  624POPC   GL211210   8.875   3.486   8.864
  624POPC   C1A11211   8.933   3.563   8.564
  624POPC   D2A11212   8.931   3.582   8.264
  624POPC   C3A11213   8.974   3.524   7.964
  624POPC   C4A11214   8.933   3.553   7.664
  624POPC   C1B11215   8.720   3.508   8.564
  624POPC   C2B11216   8.741   3.528   8.264
  624POPC   C3B11217   8.701   3.507   7.964
  624POPC   C4B11218   8.691   3.530   7.664
  625POPC   NC311219  10.566  35.400   9.464
  625POPC   PO411220  10.533  35.348   9.164
  625POPC   GL111221  10.506  35.311   8.864
  625POPC   GL211222  10.589  35.267   8.864
  625POPC   C1A11223  10.545  35.352   8.564
  625POPC   D2A11224  10.495  35.307   8.264
  625POPC   C3A11225  10.479  35.389   7.964
  625POPC   C4A11226  10.504  35.350   7.664
  625POPC   C1B11227  10.669  35.211   8.564
  625POPC   C2B11228  10.703  35.158   8.264
  625POPC   C3B11229  10.700  35.206   7.964
  625POPC   C4B11230  10.750  35.172   7.664
  626POPC   NC311231   9.790  26.824   9.464
  626POPC   PO411232   9.736  26.792   9.164
  626POPC   GL111233   9.699  26.832   8.864
  626POPC   GL211234   9.792  26.709   8.864
  626POPC   C1A11235   9.794  26.784   8.564
  626POPC   D2A11236   9.735  26.861   8.264
  626POPC   C3A11237   9.785  26.815   7.964
  626POPC   C4A11238   9.723  26.780   7.664
  626POPC   C1B11239   9.931  26.614   8.564
  626POPC   C2B11240   9.887  26.621   8.264
  626POPC   C3B11241   9.938  26.621   7.964
  626POPC   C4B11242   9.945  26.688   7.664
  627POPC   NC311243  40.800  29.108   9.464
  627POPC   PO411244  40.782  29.178   9.164
  627POPC   GL111245  40.780  29.102   8.864
  627POPC   GL211246  40.685  29.128   8.864
  627POPC   C1A11247  40.788  29.164   8.564
  627POPC   D2A11248  40.812  29.143   8.264
  627POPC   C3A11249  40.807  29.184   7.964
  627POPC   C4A11250  40.740  29.110   7.664
  627POPC   C1B11251  40.550  29.133   8.564
  627POPC   C2B11252  40.513  29.155   8.264
  627POPC   C3B11253  40.485  29.168   7.964
  627POPC   C4B11254  40.520  29.176   7.664
  628POPC   NC311255  36.154  38.442   9.464
  628POPC   PO411256  36.162  38.413   9.164
  628POPC   GL111257  36.120  38.500   8.864
  628POPC   GL211258  36.190  38.530   8.864
  628POPC   C1A11259  36.086  38.491   8.564
  628POPC   D2A11260  36.160  38.468   8.264
  628POPC   C3A11261  36.094  38.468   7.964
  628POPC   C4A11262  36.161  38.456   7.664
  628POPC   C1B11263  36.297  38.580   8.564
  628POPC   C2B11264  36.318  38.656   8.264
  628POPC   C3B11265  36.288  38.597   7.964
  628POPC   C4B11266  36.309  38.663   7.664
  629POPC   NC311267   6.613  33.071   9.464
  629POPC   PO411268   6.685  33.049   9.164
  629POPC   GL111269   6.624  33.045   8.864
  629POPC   GL211270   6.580  33.145   8.864
  629POPC   C1A11271   6.693  33.011   8.564
  629POPC   D2A11272   6.660  33.052   8.264
  629POPC   C3A11273   6.692  33.046   7.964
  629POPC   C4A11274   6.626  33.052   7.664
  629POPC   C1B11275   6.471  33.201   8.564
  629POPC   C2B11276   6.456  33.219   8.264
  629POPC   C3B11277   6.488  33.197   7.964
  629POPC   C4B11278   6.480  33.215   7.664
  630POPC   NC311279  36.858  30.737   9.464
  630POPC   PO411280  36.863  30.668   9.164
  630POPC   GL111281  36.906  30.736   8.864
  630POPC   GL211282  37.025  30.710   8.864
  630POPC   C1A11283  36.862  30.683   8.564
  630POPC   D2A11284  36.881  30.655   8.264
  630POPC   C3A11285  36.941  30.683   7.964
  630POPC   C4A11286  36.912  30.723   7.664
  630POPC   C1B11287  37.137  30.763   8.564
  630POPC   C2B11288  37.159  30.732   8.264
  630POPC   C3B11289  37.145  30.755   7.964
  630POPC   C4B11290  37.094  30.723   7.664
  631POPC   NC311291  36.106  40.761   9.464
  631POPC   PO411292  36.118  40.783   9.164
  631POPC   GL111293  36.153  40.824   8.864
  631POPC   GL211294  36.203  40.702   8.864
  631POPC   C1A11295  36.079  40.741   8.564
  631POPC   D2A11296  36.146  40.801   8.264
  631POPC   C3A11297  36.101  40.766   7.964
  631POPC   C4A11298  36.117  40.761   7.664
  631POPC   C1B11299  36.270  40.558   8.564
  631POPC   C2B11300  36.220  40.549   8.264
  631POPC   C3B11301  36.216  40.606   7.964
  631POPC   C4B11302  36.228  40.579   7.664
  632POPC   NC311303  33.812  36.118   9.464
  632POPC   PO411304  33.848  36.112   9.164
  632POPC   GL111305  33.819  36.130   8.864
  632POPC   GL211306  33.896  36.067   8.864
  632POPC   C1A11307  33.790  36.083   8.564
  632POPC   D2A11308  33.784  36.116   8.264
  632POPC   C3A11309  33.822  36.144   7.964
  632POPC   C4A11310  33.765  36.090   7.664
  632POPC   C1B11311  33.909  35.865   8.564
  632POPC   C2B11312  33.950  35.906   8.264
  632POPC   C3B11313  33.905  35.878   7.964
  632POPC   C4B11314  33.906  35.878   7.664
  633POPC   NC311315  23.686   8.242   9.464
  633POPC   PO411316  23.700   8.235   9.164
  633POPC   GL111317  23.698   8.196   8.864
  633POPC   GL211318  23.578   8.225   8.864
  633POPC   C1A11319  23.698   8.198   8.564
  633POPC   D2A11320  23.699   8.246   8.264
  633POPC   C3A11321  23.751   8.151   7.964
  633POPC   C4A11322  23.743   8.159   7.664
  633POPC   C1B11323  23.517   8.225   8.564
  633POPC   C2B11324  23.517   8.225   8.264
  633POPC   C3B11325  23.446   8.281   7.964
  633POPC   C4B11326  23.471   8.239   7.664
  634POPC   NC311327   5.063  10.540   9.464
  634POPC   PO411328   5.044  10.512   9.164
  634POPC   GL111329   5.121  10.490   8.864
  634POPC   GL211330   5.183  10.612   8.864
  634POPC   C1A11331   5.072  10.483   8.564
  634POPC   D2A11332   5.091  10.482   8.264
  634POPC   C3A11333   5.046  10.518   7.964
  634POPC   C4A11334   5.120  10.527   7.664
  634POPC   C1B11335   5.349  10.630   8.564
  634POPC   C2B11336   5.376  10.556   8.264
  634POPC   C3B11337   5.363  10.620   7.964
  634POPC   C4B11338   5.290  10.589   7.664
  635POPC   NC311339   7.397   3.553   9.464
  635POPC   PO411340   7.434   3.506   9.164
  635POPC   GL111341   7.424   3.508   8.864
  635POPC   GL211342   7.372   3.686   8.864
  635POPC   C1A11343   7.417   3.545   8.564
  635POPC   D2A11344   7.443   3.551   8.264
  635POPC   C3A11345   7.399   3.571   7.964
  635POPC   C4A11346   7.467   3.586   7.664
  635POPC   C1B11347   7.284   3.773   8.564
  635POPC   C2B11348   7.316   3.708   8.264
  635POPC   C3B11349   7.293   3.706   7.964
  635POPC   C4B11350   7.310   3.707   7.664
  636POPC   NC311351  18.240  27.594   9.464
  636POPC   PO411352  18.322  27.618   9.164
  636POPC   GL111353  18.278  27.602   8.864
  636POPC   GL211354  18.333  27.455   8.864
  636POPC   C1A11355  18.288  27.633   8.564
  636POPC   D2A11356  18.311  27.570   8.264
  636POPC   C3A11357  18.245  27.560   7.964
  636POPC   C4A11358  18.294  27.579   7.664
  636POPC   C1B11359  18.338  27.374   8.564
  636POPC   C2B11360  18.268  27.335   8.264
  636POPC   C3B11361  18.287  27.312   7.964
  636POPC   C4B11362  18.251  27.370   7.664
  637POPC   NC311363  34.541  12.076   9.464
  637POPC   PO411364  34.584  12.081   9.164
  637POPC   GL111365  34.573  12.101   8.864
  637POPC   GL211366  34.525  12.154   8.864
  637POPC   C1A11367  34.584  12.080   8.564
  637POPC   D2A11368  34.578  12.031   8.264
  637POPC   C3A11369  34.575  12.102   7.964
  637POPC   C4A11370  34.603  12.026   7.664
  637POPC   C1B11371  34.478  12.330   8.564
  637POPC   C2B11372  34.559  12.362   8.264
  637POPC   C3B11373  34.564  12.333   7.964
  637POPC   C4B11374  34.510  12.301   7.664
  638POPC   NC311375  36.161  37.697   9.464
  638POPC   PO411376  36.092  37.631   9.164
  638POPC   GL111377  36.122  37.656   8.864
  638POPC   GL211378  36.221  37.684   8.864
  638POPC   C1A11379  36.082  37.718   8.564
  638POPC   D2A11380  36.105  37.721   8.264
  638POPC   C3A11381  36.127  37.704   7.964
  638POPC   C4A11382  36.107  37.694   7.664
  638POPC   C1B11383  36.399  37.668   8.564
  638POPC   C2B11384  36.398  37.663   8.264
  638POPC   C3B11385  36.335  37.710   7.964
  638POPC   C4B11386  36.424  37.711   7.664
  639POPC   NC311387  32.223  42.330   9.464
  639POPC   PO411388  32.293  42.347   9.164
  639POPC   GL111389  32.228  42.384   8.864
  639POPC   GL211390  32.108  42.376   8.864
  639POPC   C1A11391  32.217  42.343   8.564
  639POPC   D2A11392  32.266  42.337   8.264
  639POPC   C3A11393  32.202  42.334   7.964
  639POPC   C4A11394  32.249  42.305   7.664
  639POPC   C1B11395  31.983  42.361   8.564
  639POPC   C2B11396  32.010  42.433   8.264
  639POPC   C3B11397  31.975  42.380   7.964
  639POPC   C4B11398  31.987  42.357   7.664
  640POPC   NC311399  20.600  14.414   9.464
  640POPC   PO411400  20.602  14.376   9.164
  640POPC   GL111401  20.581  14.419   8.864
  640POPC   GL211402  20.726  14.339   8.864
  640POPC   C1A11403  20.638  14.414   8.564
  640POPC   D2A11404  20.579  14.404   8.264
  640POPC   C3A11405  20.628  14.436   7.964
  640POPC   C4A11406  20.654  14.407   7.664
  640POPC   C1B11407  20.830  14.358   8.564
  640POPC   C2B11408  20.827  14.279   8.264
  640POPC   C3B11409  20.878  14.293   7.964
  640POPC   C4B11410  20.896  14.329   7.664
  641POPC   NC311411  31.476  33.060   9.464
  641POPC   PO411412  31.471  32.982   9.164
  641POPC   GL111413  31.434  32.975   8.864
  641POPC   GL211414  31.550  32.893   8.864
  641POPC   C1A11415  31.469  33.064   8.564
  641POPC   D2A11416  31.491  33.033   8.264
  641POPC   C3A11417  31.497  32.995   7.964
  641POPC   C4A11418  31.459  33.045   7.664
  641POPC   C1B11419  31.484  32.829   8.564
  641POPC   C2B11420  31.504  32.733   8.264
  641POPC   C3B11421  31.538  32.806   7.964
  641POPC   C4B11422  31.502  32.790   7.664
  642POPC   NC311423   0.437  21.413   9.464
  642POPC   PO411424   0.434  21.354   9.164
  642POPC   GL111425   0.417  21.355   8.864
  642POPC   GL211426   0.361  21.239   8.864
  642POPC   C1A11427   0.423  21.384   8.564
  642POPC   D2A11428   0.459  21.349   8.264
  642POPC   C3A11429   0.455  21.346   7.964
  642POPC   C4A11430   0.406  21.383   7.664
  642POPC   C1B11431   0.317  21.150   8.564
  642POPC   C2B11432   0.279  21.154   8.264
  642POPC   C3B11433   0.339  21.205   7.964
  642POPC   C4B11434   0.343  21.149   7.664
  643POPC   NC311435  26.858  15.938   9.464
  643POPC   PO411436  26.780  15.913   9.164
  643POPC   GL111437  26.863  15.999   8.864
  643POPC   GL211438  26.833  16.037   8.864
  643POPC   C1A11439  26.809  15.907   8.564
  643POPC   D2A11440  26.816  15.984   8.264
  643POPC   C3A11441  26.802  15.994   7.964
  643POPC   C4A11442  26.799  16.001   7.664
  643POPC   C1B11443  26.799  16.157   8.564
  643POPC   C2B11444  26.738  16.249   8.264
  643POPC   C3B11445  26.766  16.178   7.964
  643POPC   C4B11446  26.753  16.227   7.664
  644POPC   NC311447  39.203   8.928   9.464
  644POPC   PO411448  39.268   8.952   9.164
  644POPC   GL111449  39.228   8.985   8.864
  644POPC   GL211450  39.388   9.053   8.864
  644POPC   C1A11451  39.206   9.019   8.564
  644POPC   D2A11452  39.207   8.968   8.264
  644POPC   C3A11453  39.227   8.935   7.964
  644POPC   C4A11454  39.271   8.996   7.664
  644POPC   C1B11455  39.429   9.036   8.564
  644POPC   C2B11456  39.414   9.045   8.264
  644POPC   C3B11457  39.469   9.105   7.964
  644POPC   C4B11458  39.436   9.073   7.664
  645POPC   NC311459  25.229  32.224   9.464
  645POPC   PO411460  25.243  32.280   9.164
  645POPC   GL111461  25.222  32.281   8.864
  645POPC   GL211462  25.399  32.234   8.864
  645POPC   C1A11463  25.234  32.231   8.564
  645POPC   D2A11464  25.238  32.248   8.264
  645POPC   C3A11465  25.303  32.263   7.964
  645POPC   C4A11466  25.285  32.262   7.664
  645POPC   C1B11467  25.512  32.142   8.564
  645POPC   C2B11468  25.487  32.195   8.264
  645POPC   C3B11469  25.467  32.222   7.964
  645POPC   C4B11470  25.486  32.164   7.664
  646POPC   NC311471  27.575  26.856   9.464
  646POPC   PO411472  27.549  26.859   9.164
  646POPC   GL111473  27.605  26.844   8.864
  646POPC   GL211474  27.482  26.711   8.864
  646POPC   C1A11475  27.608  26.820   8.564
  646POPC   D2A11476  27.604  26.785   8.264
  646POPC   C3A11477  27.631  26.864   7.964
  646POPC   C4A11478  27.551  26.856   7.664
  646POPC   C1B11479  27.432  26.670   8.564
  646POPC   C2B11480  27.408  26.653   8.264
  646POPC   C3B11481  27.472  26.589   7.964
  646POPC   C4B11482  27.471  26.663   7.664
  647POPC   NC311483   7.455   1.186   9.464
  647POPC   PO411484   7.421   1.171   9.164
  647POPC   GL111485   7.411   1.206   8.864
  647POPC   GL211486   7.455   1.282   8.864
  647POPC   C1A11487   7.410   1.228   8.564
  647POPC   D2A11488   7.401   1.182   8.264
  647POPC   C3A11489   7.450   1.224   7.964
  647POPC   C4A11490   7.404   1.215   7.664
  647POPC   C1B11491   7.529   1.440   8.564
  647POPC   C2B11492   7.552   1.421   8.264
  647POPC   C3B11493   7.523   1.426   7.964
  647POPC   C4B11494   7.508   1.389   7.664
  648POPC   NC311495   6.642  29.156   9.464
  648POPC   PO411496   6.630  29.110   9.164
  648POPC   GL111497   6.655  29.144   8.864
  648POPC   GL211498   6.641  29.008   8.864
  648POPC   C1A11499   6.614  29.103   8.564
  648POPC   D2A11500   6.689  29.109   8.264
  648POPC   C3A11501   6.637  29.155   7.964
  648POPC   C4A11502   6.644  29.173   7.664
  648POPC   C1B11503   6.591  28.884   8.564
  648POPC   C2B11504   6.646  28.906   8.264
  648POPC   C3B11505   6.613  28.859   7.964
  648POPC   C4B11506   6.634  28.898   7.664
  649POPC   NC311507  31.494  13.617   9.464
  649POPC   PO411508  31.451  13.604   9.164
  649POPC   GL111509  31.514  13.612   8.864
  649POPC   GL211510  31.621  13.642   8.864
  649POPC   C1A11511  31.499  13.642   8.564
  649POPC   D2A11512  31.481  13.643   8.264
  649POPC   C3A11513  31.490  13.597   7.964
  649POPC   C4A11514  31.456  13.633   7.664
  649POPC   C1B11515  31.683  13.601   8.564
  649POPC   C2B11516  31.771  13.621   8.264
  649POPC   C3B11517  31.706  13.645   7.964
  649POPC   C4B11518  31.724  13.572   7.664
  650POPC   NC311519  41.591  32.277   9.464
  650POPC   PO411520  41.567  32.236   9.164
  650POPC   GL111521  41.526  32.215   8.864
  650POPC   GL211522  41.632  32.301   8.864
  650POPC   C1A11523  41.551  32.286   8.564
  650POPC   D2A11524  41.533  32.287   8.264
  650POPC   C3A11525  41.603  32.249   7.964
  650POPC   C4A11526  41.554  32.284   7.664
  650POPC   C1B11527  41.812  32.355   8.564
  650POPC   C2B11528  41.824  32.327   8.264
  650POPC   C3B11529  41.822  32.335   7.964
  650POPC   C4B11530  41.758  32.327   7.664
  651POPC   NC311531  11.275  34.567   9.464
  651POPC   PO411532  11.272  34.597   9.164
  651POPC   GL111533  11.342  34.528   8.864
  651POPC   GL211534  11.258  34.656   8.864
  651POPC   C1A11535  11.307  34.616   8.564
  651POPC   D2A11536  11.326  34.622   8.264
  651POPC   C3A11537  11.265  34.590   7.964
  651POPC   C4A11538  11.305  34.552   7.664
  651POPC   C1B11539  11.177  34.798   8.564
  651POPC   C2B11540  11.217  34.822   8.264
  651POPC   C3B11541  11.163  34.809   7.964
  651POPC   C4B11542  11.179  34.789   7.664
  652POPC   NC311543  15.215  40.825   9.464
  652POPC   PO411544  15.161  40.746   9.164
  652POPC   GL111545  15.190  40.772   8.864
  652POPC   GL211546  15.102  40.774   8.864
  652POPC   C1A11547  15.134  40.781   8.564
  652POPC   D2A11548  15.152  40.761   8.264
  652POPC   C3A11549  15.144  40.800   7.964
  652POPC   C4A11550  15.189  40.773   7.664
  652POPC   C1B11551  14.897  40.774   8.564
  652POPC   C2B11552  14.900  40.745   8.264
  652POPC   C3B11553  14.905  40.785   7.964
  652POPC   C4B11554  14.901  40.762   7.664
  653POPC   NC311555  27.547  40.788   9.464
  653POPC   PO411556  27.623  40.830   9.164
  653POPC   GL111557  27.629  40.810   8.864
  653POPC   GL211558  27.582  40.673   8.864
  653POPC   C1A11559  27.609  40.773   8.564
  653POPC   D2A11560  27.602  40.829   8.264
  653POPC   C3A11561  27.571  40.830   7.964
  653POPC   C4A11562  27.618  40.735   7.664
  653POPC   C1B11563  27.633  40.549   8.564
  653POPC   C2B11564  27.620  40.527   8.264
  653POPC   C3B11565  27.578  40.486   7.964
  653POPC   C4B11566  27.624  40.555   7.664
  654POPC   NC311567  16.718  42.382   9.464
  654POPC   PO411568  16.747  42.300   9.164
  654POPC   GL111569  16.731  42.368   8.864
  654POPC   GL211570  16.814  42.278   8.864
  654POPC   C1A11571  16.704  42.311   8.564
  654POPC   D2A11572  16.703  42.365   8.264
  654POPC   C3A11573  16.681  42.384   7.964
  654POPC   C4A11574  16.729  42.345   7.664
  654POPC   C1B11575  16.946  42.127   8.564
  654POPC   C2B11576  16.965  42.137   8.264
  654POPC   C3B11577  16.875  42.193   7.964
  654POPC   C4B11578  16.907  42.142   7.664
  655POPC   NC311579  29.965  43.062   9.464
  655POPC   PO411580  29.872  43.083   9.164
  655POPC   GL111581  29.900  43.115   8.864
  655POPC   GL211582  29.824  43.211   8.864
  655POPC   C1A11583  29.958  43.151   8.564
  655POPC   D2A11584  29.951  43.105   8.264
  655POPC   C3A11585  29.917  43.120   7.964
  655POPC   C4A11586  29.965  43.120   7.664
  655POPC   C1B11587  29.685  43.238   8.564
  655POPC   C2B11588  29.678  43.264   8.264
  655POPC   C3B11589  29.662  43.211   7.964
  655POPC   C4B11590  29.721  43.267   7.664
  656POPC   NC311591  15.169  35.310   9.464
  656POPC   PO411592  15.134  35.376   9.164
  656POPC   GL111593  15.218  35.388   8.864
  656POPC   GL211594  15.282  35.412   8.864
  656POPC   C1A11595  15.131  35.382   8.564
  656POPC   D2A11596  15.172  35.371   8.264
  656POPC   C3A11597  15.216  35.387   7.964
  656POPC   C4A11598  15.172  35.316   7.664
  656POPC   C1B11599  15.402  35.391   8.564
  656POPC   C2B11600  15.465  35.408   8.264
  656POPC   C3B11601  15.454  35.474   7.964
  656POPC   C4B11602  15.436  35.399   7.664
  657POPC   NC311603  35.329   3.539   9.464
  657POPC   PO411604  35.323   3.535   9.164
  657POPC   GL111605  35.336   3.526   8.864
  657POPC   GL211606  35.270   3.511   8.864
  657POPC   C1A11607  35.374   3.537   8.564
  657POPC   D2A11608  35.312   3.563   8.264
  657POPC   C3A11609  35.335   3.564   7.964
  657POPC   C4A11610  35.372   3.584   7.664
  657POPC   C1B11611  35.082   3.447   8.564
  657POPC   C2B11612  35.080   3.492   8.264
  657POPC   C3B11613  35.123   3.510   7.964
  657POPC   C4B11614  35.146   3.501   7.664
  658POPC   NC311615  34.617  29.108   9.464
  658POPC   PO411616  34.548  29.158   9.164
  658POPC   GL111617  34.534  29.132   8.864
  658POPC   GL211618  34.640  29.262   8.864
  658POPC   C1A11619  34.608  29.096   8.564
  658POPC   D2A11620  34.568  29.099   8.264
  658POPC   C3A11621  34.587  29.170   7.964
  658POPC   C4A11622  34.617  29.106   7.664
  658POPC   C1B11623  34.701  29.416   8.564
  658POPC   C2B11624  34.687  29.395   8.264
  658POPC   C3B11625  34.645  29.381   7.964
  658POPC   C4B11626  34.690  29.416   7.664
  659POPC   NC311627  22.981  23.710   9.464
  659POPC   PO411628  22.909  23.729   9.164
  659POPC   GL111629  22.986  23.732   8.864
  659POPC   GL211630  23.099  23.674   8.864
  659POPC   C1A11631  22.924  23.676   8.564
  659POPC   D2A11632  22.904  23.736   8.264
  659POPC   C3A11633  22.985  23.741   7.964
  659POPC   C4A11634  22.936  23.753   7.664
  659POPC   C1B11635  23.225  23.768   8.564
  659POPC   C2B11636  23.146  23.728   8.264
  659POPC   C3B11637  23.230  23.720   7.964
  659POPC   C4B11638  23.210  23.699   7.664
  660POPC   NC311639  10.569  39.233   9.464
  660POPC   PO411640  10.567  39.259   9.164
  660POPC   GL111641  10.550  39.204   8.864
  660POPC   GL211642  10.603  39.134   8.864
  660POPC   C1A11643  10.564  39.216   8.564
  660POPC   D2A11644  10.497  39.217   8.264
  660POPC   C3A11645  10.524  39.258   7.964
  660POPC   C4A11646  10.540  39.274   7.664
  660POPC   C1B11647  10.731  39.142   8.564
  660POPC   C2B11648  10.716  39.069   8.264
  660POPC   C3B11649  10.715  39.116   7.964
  660POPC   C4B11650  10.767  39.057   7.664
  661POPC   NC311651  21.407  27.637   9.464
  661POPC   PO411652  21.388  27.569   9.164
  661POPC   GL111653  21.388  27.642   8.864
  661POPC   GL211654  21.375  27.450   8.864
  661POPC   C1A11655  21.340  27.587   8.564
  661POPC   D2A11656  21.393  27.589   8.264
  661POPC   C3A11657  21.414  27.556   7.964
  661POPC   C4A11658  21.391  27.558   7.664
  661POPC   C1B11659  21.270  27.368   8.564
  661POPC   C2B11660  21.352  27.312   8.264
  661POPC   C3B11661  21.313  27.351   7.964
  661POPC   C4B11662  21.320  27.338   7.664
  662POPC   NC311663  35.333  15.997   9.464
  662POPC   PO411664  35.365  15.964   9.164
  662POPC   GL111665  35.377  15.992   8.864
  662POPC   GL211666  35.436  16.038   8.864
  662POPC   C1A11667  35.378  15.924   8.564
  662POPC   D2A11668  35.351  15.933   8.264
  662POPC   C3A11669  35.347  15.906   7.964
  662POPC   C4A11670  35.331  15.937   7.664
  662POPC   C1B11671  35.563  16.156   8.564
  662POPC   C2B11672  35.494  16.143   8.264
  662POPC   C3B11673  35.571  16.108   7.964
  662POPC   C4B11674  35.540  16.160   7.664
  663POPC   NC311675  25.996  32.211   9.464
  663POPC   PO411676  26.039  32.226   9.164
  663POPC   GL111677  26.083  32.235   8.864
  663POPC   GL211678  26.196  32.227   8.864
  663POPC   C1A11679  26.045  32.204   8.564
  663POPC   D2A11680  26.076  32.220   8.264
  663POPC   C3A11681  26.085  32.256   7.964
  663POPC   C4A11682  26.018  32.236   7.664
  663POPC   C1B11683  26.238  32.195   8.564
  663POPC   C2B11684  26.267  32.148   8.264
  663POPC   C3B11685  26.325  32.210   7.964
  663POPC   C4B11686  26.264  32.158   7.664
  664POPC   NC311687  40.750  33.025   9.464
  664POPC   PO411688  40.736  32.981   9.164
  664POPC   GL111689  40.825  33.042   8.864
  664POPC   GL211690  40.868  33.084   8.864
  664POPC   C1A11691  40.760  33.026   8.564
  664POPC   D2A11692  40.747  32.975   8.264
  664POPC   C3A11693  40.747  33.018   7.964
  664POPC   C4A11694  40.735  33.060   7.664
  664POPC   C1B11695  40.966  33.125   8.564
  664POPC   C2B11696  40.960  33.179   8.264
  664POPC   C3B11697  40.991  33.167   7.964
  664POPC   C4B11698  40.986  33.168   7.664
  665POPC   NC311699  18.328  34.530   9.464
  665POPC   PO411700  18.307  34.549   9.164
  665POPC   GL111701  18.253  34.617   8.864
  665POPC   GL211702  18.362  34.581   8.864
  665POPC   C1A11703  18.245  34.576   8.564
  665POPC   D2A11704  18.241  34.587   8.264
  665POPC   C3A11705  18.264  34.600   7.964
  665POPC   C4A11706  18.245  34.573   7.664
  665POPC   C1B11707  18.512  34.677   8.564
  665POPC   C2B11708  18.480  34.707   8.264
  665POPC   C3B11709  18.557  34.720   7.964
  665POPC   C4B11710  18.525  34.662   7.664
  666POPC   NC311711  13.585  36.080   9.464
  666POPC   PO411712  13.588  36.150   9.164
  666POPC   GL111713  13.651  36.177   8.864
  666POPC   GL211714  13.500  36.045   8.864
  666POPC   C1A11715  13.615  36.125   8.564
  666POPC   D2A11716  13.673  36.150   8.264
  666POPC   C3A11717  13.672  36.079   7.964
  666POPC   C4A11718  13.598  36.093   7.664
  666POPC   C1B11719  13.471  35.928   8.564
  666POPC   C2B11720  13.504  35.945   8.264
  666POPC   C3B11721  13.419  35.981   7.964
  666POPC   C4B11722  13.495  35.946   7.664
  667POPC   NC311723  32.210  16.695   9.464
  667POPC   PO411724  32.233  16.682   9.164
  667POPC   GL111725  32.282  16.714   8.864
  667POPC   GL211726  32.232  16.628   8.864
  667POPC   C1A11727  32.293  16.750   8.564
  667POPC   D2A11728  32.242  16.741   8.264
  667POPC   C3A11729  32.226  16.733   7.964
  667POPC   C4A11730  32.297  16.725   7.664
  667POPC   C1B11731  32.140  16.522   8.564
  667POPC   C2B11732  32.159  16.534   8.264
  667POPC   C3B11733  32.144  16.500   7.964
  667POPC   C4B11734  32.141  16.480   7.664
  668POPC   NC311735  19.797   8.155   9.464
  668POPC   PO411736  19.822   8.221   9.164
  668POPC   GL111737  19.850   8.221   8.864
  668POPC   GL211738  19.818   8.330   8.864
  668POPC   C1A11739  19.828   8.195   8.564
  668POPC   D2A11740  19.817   8.223   8.264
  668POPC   C3A11741  19.853   8.198   7.964
  668POPC   C4A11742  19.821   8.153   7.664
  668POPC   C1B11743  19.765   8.431   8.564
  668POPC   C2B11744  19.705   8.389   8.264
  668POPC   C3B11745  19.755   8.382   7.964
  668POPC   C4B11746  19.678   8.377   7.664
  669POPC   NC311747  14.361   0.445   9.464
  669POPC   PO411748  14.402   0.483   9.164
  669POPC   GL111749  14.361   0.424   8.864
  669POPC   GL211750  14.485   0.506   8.864
  669POPC   C1A11751  14.422   0.447   8.564
  669POPC   D2A11752  14.402   0.426   8.264
  669POPC   C3A11753  14.395   0.436   7.964
  669POPC   C4A11754  14.403   0.431   7.664
  669POPC   C1B11755  14.686   0.525   8.564
  669POPC   C2B11756  14.605   0.522   8.264
  669POPC   C3B11757  14.686   0.537   7.964
  669POPC   C4B11758  14.667   0.500   7.664
  670POPC   NC311759  36.136   6.655   9.464
  670POPC   PO411760  36.100   6.685   9.164
  670POPC   GL111761  36.172   6.651   8.864
  670POPC   GL211762  36.134   6.754   8.864
  670POPC   C1A11763  36.103   6.624   8.564
  670POPC   D2A11764  36.122   6.658   8.264
  670POPC   C3A11765  36.136   6.634   7.964
  670POPC   C4A11766  36.087   6.665   7.664
  670POPC   C1B11767  36.234   6.917   8.564
  670POPC   C2B11768  36.186   6.928   8.264
  670POPC   C3B11769  36.250   6.880   7.964
  670POPC   C4B11770  36.190   6.900   7.664
  671POPC   NC311771  12.050  12.838   9.464
  671POPC   PO411772  12.044  12.819   9.164
  671POPC   GL111773  12.116  12.883   8.864
  671POPC   GL211774  12.067  12.941   8.864
  671POPC   C1A11775  12.053  12.869   8.564
  671POPC   D2A11776  12.066  12.874   8.264
  671POPC   C3A11777  12.045  12.880   7.964
  671POPC   C4A11778  12.039  12.830   7.664
  671POPC   C1B11779  12.116  13.061   8.564
  671POPC   C2B11780  12.124  13.104   8.264
  671POPC   C3B11781  12.057  13.096   7.964
  671POPC   C4B11782  12.097  13.122   7.664
  672POPC   NC311783  19.035   3.540   9.464
  672POPC   PO411784  19.102   3.567   9.164
  672POPC   GL111785  19.066   3.505   8.864
  672POPC   GL211786  19.212   3.553   8.864
  672POPC   C1A11787  19.018   3.545   8.564
  672POPC   D2A11788  19.081   3.577   8.264
  672POPC   C3A11789  19.037   3.558   7.964
  672POPC   C4A11790  19.048   3.572   7.664
  672POPC   C1B11791  19.336   3.515   8.564
  672POPC   C2B11792  19.266   3.551   8.264
  672POPC   C3B11793  19.275   3.534   7.964
  672POPC   C4B11794  19.262   3.486   7.664
  673POPC   NC311795  25.303  23.713   9.464
  673POPC   PO411796  25.311  23.714   9.164
  673POPC   GL111797  25.315  23.685   8.864
  673POPC   GL211798  25.202  23.831   8.864
  673POPC   C1A11799  25.292  23.738   8.564
  673POPC   D2A11800  25.239  23.703   8.264
  673POPC   C3A11801  25.224  23.721   7.964
  673POPC   C4A11802  25.266  23.699   7.664
  673POPC   C1B11803  25.052  23.836   8.564
  673POPC   C2B11804  25.019  23.848   8.264
  673POPC   C3B11805  25.054  23.857   7.964
  673POPC   C4B11806  25.028  23.912   7.664
  674POPC   NC311807  22.925  36.907   9.464
  674POPC   PO411808  22.888  36.860   9.164
  674POPC   GL111809  22.907  36.907   8.864
  674POPC   GL211810  23.083  36.827   8.864
  674POPC   C1A11811  22.979  36.929   8.564
  674POPC   D2A11812  22.953  36.922   8.264
  674POPC   C3A11813  22.938  36.863   7.964
  674POPC   C4A11814  22.900  36.859   7.664
  674POPC   C1B11815  23.132  36.780   8.564
  674POPC   C2B11816  23.177  36.841   8.264
  674POPC   C3B11817  23.127  36.822   7.964
  674POPC   C4B11818  23.214  36.822   7.664
  675POPC   NC311819  42.302  38.501   9.464
  675POPC   PO411820  42.338  38.437   9.164
  675POPC   GL111821  42.324  38.434   8.864
  675POPC   GL211822  42.296  38.293   8.864
  675POPC   C1A11823  42.313  38.478   8.564
  675POPC   D2A11824  42.360  38.504   8.264
  675POPC   C3A11825  42.368  38.460   7.964
  675POPC   C4A11826  42.292  38.424   7.664
  675POPC   C1B11827  42.340  38.227   8.564
  675POPC   C2B11828  42.338  38.185   8.264
  675POPC   C3B11829  42.287  38.211   7.964
  675POPC   C4B11830  42.342  38.206   7.664
  676POPC   NC311831  22.895  22.901   9.464
  676POPC   PO411832  22.888  22.902   9.164
  676POPC   GL111833  22.953  22.910   8.864
  676POPC   GL211834  23.077  22.847   8.864
  676POPC   C1A11835  22.927  22.897   8.564
  676POPC   D2A11836  22.932  22.927   8.264
  676POPC   C3A11837  22.939  22.932   7.964
  676POPC   C4A11838  22.899  22.926   7.664
  676POPC   C1B11839  23.081  22.790   8.564
  676POPC   C2B11840  23.115  22.755   8.264
  676POPC   C3B11841  23.112  22.804   7.964
  676POPC   C4B11842  23.100  22.812   7.664
  677POPC   NC311843   6.634   9.714   9.464
  677POPC   PO411844   6.617   9.783   9.164
  677POPC   GL111845   6.663   9.751   8.864
  677POPC   GL211846   6.602   9.679   8.864
  677POPC   C1A11847   6.675   9.749   8.564
  677POPC   D2A11848   6.663   9.715   8.264
  677POPC   C3A11849   6.657   9.791   7.964
  677POPC   C4A11850   6.634   9.704   7.664
  677POPC   C1B11851   6.520   9.533   8.564
  677POPC   C2B11852   6.555   9.502   8.264
  677POPC   C3B11853   6.556   9.491   7.964
  677POPC   C4B11854   6.568   9.510   7.664
  678POPC   NC311855  26.074  22.987   9.464
  678POPC   PO411856  26.050  22.907   9.164
  678POPC   GL111857  26.063  22.899   8.864
  678POPC   GL211858  25.949  22.886   8.864
  678POPC   C1A11859  26.053  22.908   8.564
  678POPC   D2A11860  25.994  22.936   8.264
  678POPC   C3A11861  26.070  22.977   7.964
  678POPC   C4A11862  26.025  22.929   7.664
  678POPC   C1B11863  25.895  22.808   8.564
  678POPC   C2B11864  25.885  22.755   8.264
  678POPC   C3B11865  25.840  22.780   7.964
  678POPC   C4B11866  25.910  22.798   7.664
  679POPC   NC311867   0.439  15.992   9.464
  679POPC   PO411868   0.431  15.954   9.164
  679POPC   GL111869   0.462  15.914   8.864
  679POPC   GL211870   0.308  15.957   8.864
  679POPC   C1A11871   0.452  15.987   8.564
  679POPC   D2A11872   0.487  15.991   8.264
  679POPC   C3A11873   0.406  15.924   7.964
  679POPC   C4A11874   0.399  15.966   7.664
  679POPC   C1B11875   0.166  15.939   8.564
  679POPC   C2B11876   0.153  15.970   8.264
  679POPC   C3B11877   0.187  15.925   7.964
  679POPC   C4B11878   0.218  16.007   7.664
  680POPC   NC311879   9.755  27.608   9.464
  680POPC   PO411880   9.752  27.628   9.164
  680POPC   GL111881   9.719  27.556   8.864
  680POPC   GL211882   9.574  27.560   8.864
  680POPC   C1A11883   9.744  27.643   8.564
  680POPC   D2A11884   9.721  27.571   8.264
  680POPC   C3A11885   9.761  27.578   7.964
  680POPC   C4A11886   9.724  27.555   7.664
  680POPC   C1B11887   9.539  27.654   8.564
  680POPC   C2B11888   9.474  27.649   8.264
  680POPC   C3B11889   9.512  27.633   7.964
  680POPC   C4B11890   9.538  27.561   7.664
  681POPC   NC311891  43.160  13.608   9.464
  681POPC   PO411892  43.098  13.578   9.164
  681POPC   GL111893  43.094  13.587   8.864
  681POPC   GL211894  43.264  13.693   8.864
  681POPC   C1A11895  43.090  13.663   8.564
  681POPC   D2A11896  43.094  13.657   8.264
  681POPC   C3A11897  43.083  13.638   7.964
  681POPC   C4A11898  43.075  13.605   7.664
  681POPC   C1B11899  43.384  13.645   8.564
  681POPC   C2B11900  43.365  13.639   8.264
  681POPC   C3B11901  43.329  13.679   7.964
  681POPC   C4B11902  43.312  13.646   7.664
  682POPC   NC311903  40.792   2.738   9.464
  682POPC   PO411904  40.797   2.721   9.164
  682POPC   GL111905  40.799   2.726   8.864
  682POPC   GL211906  40.727   2.849   8.864
  682POPC   C1A11907  40.769   2.730   8.564
  682POPC   D2A11908  40.827   2.721   8.264
  682POPC   C3A11909  40.823   2.744   7.964
  682POPC   C4A11910  40.774   2.771   7.664
  682POPC   C1B11911  40.724   3.042   8.564
  682POPC   C2B11912  40.693   3.014   8.264
  682POPC   C3B11913  40.724   3.011   7.964
  682POPC   C4B11914  40.730   2.997   7.664
  683POPC   NC311915  40.825  28.357   9.464
  683POPC   PO411916  40.752  28.346   9.164
  683POPC   GL111917  40.798  28.363   8.864
  683POPC   GL211918  40.792  28.456   8.864
  683POPC   C1A11919  40.737  28.408   8.564
  683POPC   D2A11920  40.814  28.379   8.264
  683POPC   C3A11921  40.757  28.336   7.964
  683POPC   C4A11922  40.775  28.409   7.664
  683POPC   C1B11923  40.808  28.655   8.564
  683POPC   C2B11924  40.790  28.662   8.264
  683POPC   C3B11925  40.768  28.623   7.964
  683POPC   C4B11926  40.803  28.625   7.664
  684POPC   NC311927  12.849  26.032   9.464
  684POPC   PO411928  12.837  26.061   9.164
  684POPC   GL111929  12.893  26.055   8.864
  684POPC   GL211930  12.769  25.978   8.864
  684POPC   C1A11931  12.820  26.008   8.564
  684POPC   D2A11932  12.844  26.052   8.264
  684POPC   C3A11933  12.850  26.044   7.964
  684POPC   C4A11934  12.902  26.026   7.664
  684POPC   C1B11935  12.620  25.949   8.564
  684POPC   C2B11936  12.673  25.949   8.264
  684POPC   C3B11937  12.615  25.951   7.964
  684POPC   C4B11938  12.605  25.873   7.664
  685POPC   NC311939  30.674  27.619   9.464
  685POPC   PO411940  30.654  27.554   9.164
  685POPC   GL111941  30.657  27.597   8.864
  685POPC   GL211942  30.789  27.675   8.864
  685POPC   C1A11943  30.695  27.594   8.564
  685POPC   D2A11944  30.722  27.641   8.264
  685POPC   C3A11945  30.712  27.631   7.964
  685POPC   C4A11946  30.669  27.636   7.664
  685POPC   C1B11947  30.898  27.753   8.564
  685POPC   C2B11948  30.849  27.727   8.264
  685POPC   C3B11949  30.892  27.735   7.964
  685POPC   C4B11950  30.866  27.816   7.664
  686POPC   NC311951  44.687  44.686   9.464
  686POPC   PO411952  44.708  44.703   9.164
  686POPC   GL111953  44.710  44.709   8.864
  686POPC   GL211954  44.731  44.611   8.864
  686POPC   C1A11955  44.649  44.680   8.564
  686POPC   D2A11956  44.673  44.648   8.264
  686POPC   C3A11957  44.696  44.711   7.964
  686POPC   C4A11958  44.619  44.694   7.664
  686POPC   C1B11959  44.850  44.552   8.564
  686POPC   C2B11960  44.906  44.504   8.264
  686POPC   C3B11961  44.895  44.482   7.964
  686POPC   C4B11962  44.878  44.554   7.664
  687POPC   NC311963  43.924  40.023   9.464
  687POPC   PO411964  43.889  40.028   9.164
  687POPC   GL111965  43.897  40.046   8.864
  687POPC   GL211966  43.820  40.065   8.864
  687POPC   C1A11967  43.924  39.973   8.564
  687POPC   D2A11968  43.874  39.981   8.264
  687POPC   C3A11969  43.854  40.030   7.964
  687POPC   C4A11970  43.893  39.964   7.664
  687POPC   C1B11971  43.681  40.152   8.564
  687POPC   C2B11972  43.610  40.101   8.264
  687POPC   C3B11973  43.626  40.119   7.964
  687POPC   C4B11974  43.684  40.102   7.664
  688POPC   NC311975  19.790  40.831   9.464
  688POPC   PO411976  19.825  40.765   9.164
  688POPC   GL111977  19.834  40.760   8.864
  688POPC   GL211978  19.713  40.732   8.864
  688POPC   C1A11979  19.840  40.793   8.564
  688POPC   D2A11980  19.811  40.759   8.264
  688POPC   C3A11981  19.855  40.798   7.964
  688POPC   C4A11982  19.795  40.796   7.664
  688POPC   C1B11983  19.579  40.696   8.564
  688POPC   C2B11984  19.608  40.729   8.264
  688POPC   C3B11985  19.578  40.677   7.964
  688POPC   C4B11986  19.594  40.744   7.664
  689POPC   NC311987  21.345  22.174   9.464
  689POPC   PO411988  21.422  22.137   9.164
  689POPC   GL111989  21.336  22.155   8.864
  689POPC   GL211990  21.460  22.064   8.864
  689POPC   C1A11991  21.429  22.147   8.564
  689POPC   D2A11992  21.370  22.204   8.264
  689POPC   C3A11993  21.374  22.174   7.964
  689POPC   C4A11994  21.369  22.113   7.664
  689POPC   C1B11995  21.445  21.980   8.564
  689POPC   C2B11996  21.501  21.941   8.264
  689POPC   C3B11997  21.451  21.939   7.964
  689POPC   C4B11998  21.441  21.981   7.664
  690POPC   NC311999  28.356  27.592   9.464
  690POPC   PO412000  28.391  27.592   9.164
  690POPC   GL112001  28.394  27.577   8.864
  690POPC   GL212002  28.327  27.448   8.864
  690POPC   C1A12003  28.383  27.549   8.564
  690POPC   D2A12004  28.406  27.595   8.264
  690POPC   C3A12005  28.380  27.612   7.964
  690POPC   C4A12006  28.416  27.580   7.664
  690POPC   C1B12007  28.278  27.343   8.564
  690POPC   C2B12008  28.225  27.416   8.264
  690POPC   C3B12009  28.303  27.352   7.964
  690POPC   C4B12010  28.310  27.338   7.664
  691POPC   NC312011   7.381  43.894   9.464
  691POPC   PO412012   7.392  43.906   9.164
  691POPC   GL112013   7.451  43.860   8.864
  691POPC   GL212014   7.401  43.957   8.864
  691POPC   C1A12015   7.422  43.838   8.564
  691POPC   D2A12016   7.396  43.909   8.264
  691POPC   C3A12017   7.371  43.919   7.964
  691POPC   C4A12018   7.420  43.867   7.664
  691POPC   C1B12019   7.360  44.105   8.564
  691POPC   C2B12020   7.357  44.117   8.264
  691POPC   C3B12021   7.282  44.124   7.964
  691POPC   C4B12022   7.310  44.104   7.664
  692POPC   NC312023  33.797  42.360   9.464
  692POPC   PO412024  33.777  42.327   9.164
  692POPC   GL112025  33.847  42.301   8.864
  692POPC   GL212026  33.670  42.276   8.864
  692POPC   C1A12027  33.758  42.372   8.564
  692POPC   D2A12028  33.760  42.349   8.264
  692POPC   C3A12029  33.818  42.325   7.964
  692POPC   C4A12030  33.792  42.349   7.664
  692POPC   C1B12031  33.521  42.261   8.564
  692POPC   C2B12032  33.563  42.274   8.264
  692POPC   C3B12033  33.512  42.246   7.964
  692POPC   C4B12034  33.510  42.309   7.664
  693POPC   NC312035  16.717  35.303   9.464
  693POPC   PO412036  16.736  35.382   9.164
  693POPC   GL112037  16.742  35.374   8.864
  693POPC   GL212038  16.874  35.413   8.864
  693POPC   C1A12039  16.682  35.359   8.564
  693POPC   D2A12040  16.760  35.331   8.264
  693POPC   C3A12041  16.695  35.326   7.964
  693POPC   C4A12042  16.721  35.328   7.664
  693POPC   C1B12043  17.022  35.439   8.564
  693POPC   C2B12044  17.003  35.377   8.264
  693POPC   C3B12045  17.003  35.441   7.964
  693POPC   C4B12046  17.001  35.388   7.664
  694POPC   NC312047  42.292  21.413   9.464
  694POPC   PO412048  42.369  21.392   9.164
  694POPC   GL112049  42.354  21.361   8.864
  694POPC   GL212050  42.418  21.473   8.864
  694POPC   C1A12051  42.378  21.382   8.564
  694POPC   D2A12052  42.297  21.383   8.264
  694POPC   C3A12053  42.285  21.397   7.964
  694POPC   C4A12054  42.286  21.428   7.664
  694POPC   C1B12055  42.571  21.494   8.564
  694POPC   C2B12056  42.603  21.488   8.264
  694POPC   C3B12057  42.586  21.496   7.964
  694POPC   C4B12058  42.530  21.453   7.664
  695POPC   NC312059  18.311   8.242   9.464
  695POPC   PO412060  18.304   8.188   9.164
  695POPC   GL112061  18.330   8.193   8.864
  695POPC   GL212062  18.144   8.247   8.864
  695POPC   C1A12063  18.243   8.168   8.564
  695POPC   D2A12064  18.257   8.229   8.264
  695POPC   C3A12065  18.275   8.210   7.964
  695POPC   C4A12066  18.328   8.201   7.664
  695POPC   C1B12067  18.058   8.266   8.564
  695POPC   C2B12068  18.073   8.341   8.264
  695POPC   C3B12069  18.057   8.357   7.964
  695POPC   C4B12070  18.082   8.340   7.664
  696POPC   NC312071  40.752  29.876   9.464
  696POPC   PO412072  40.746  29.886   9.164
  696POPC   GL112073  40.759  29.894   8.864
  696POPC   GL212074  40.701  29.856   8.864
  696POPC   C1A12075  40.808  29.914   8.564
  696POPC   D2A12076  40.830  29.904   8.264
  696POPC   C3A12077  40.735  29.906   7.964
  696POPC   C4A12078  40.741  29.965   7.664
  696POPC   C1B12079  40.579  29.796   8.564
  696POPC   C2B12080  40.509  29.788   8.264
  696POPC   C3B12081  40.529  29.861   7.964
  696POPC   C4B12082  40.500  29.816   7.664
  697POPC   NC312083  13.673  12.846   9.464
  697POPC   PO412084  13.634  12.825   9.164
  697POPC   GL112085  13.664  12.817   8.864
  697POPC   GL212086  13.533  12.954   8.864
  697POPC   C1A12087  13.629  12.893   8.564
  697POPC   D2A12088  13.619  12.869   8.264
  697POPC   C3A12089  13.670  12.808   7.964
  697POPC   C4A12090  13.656  12.803   7.664
  697POPC   C1B12091  13.545  13.083   8.564
  697POPC   C2B12092  13.553  13.105   8.264
  697POPC   C3B12093  13.543  13.073   7.964
  697POPC   C4B12094  13.574  13.115   7.664
  698POPC   NC312095  37.683  16.750   9.464
  698POPC   PO412096  37.643  16.703   9.164
  698POPC   GL112097  37.678  16.766   8.864
  698POPC   GL212098  37.672  16.795   8.864
  698POPC   C1A12099  37.647  16.736   8.564
  698POPC   D2A12100  37.668  16.728   8.264
  698POPC   C3A12101  37.689  16.725   7.964
  698POPC   C4A12102  37.687  16.755   7.664
  698POPC   C1B12103  37.585  16.998   8.564
  698POPC   C2B12104  37.607  16.966   8.264
  698POPC   C3B12105  37.540  16.980   7.964
  698POPC   C4B12106  37.570  16.990   7.664
  699POPC   NC312107  43.877  17.510   9.464
  699POPC   PO412108  43.857  17.486   9.164
  699POPC   GL112109  43.870  17.515   8.864
  699POPC   GL212110  43.753  17.515   8.864
  699POPC   C1A12111  43.863  17.502   8.564
  699POPC   D2A12112  43.864  17.464   8.264
  699POPC   C3A12113  43.875  17.466   7.964
  699POPC   C4A12114  43.911  17.537   7.664
  699POPC   C1B12115  43.676  17.566   8.564
  699POPC   C2B12116  43.594  17.592   8.264
  699POPC   C3B12117  43.603  17.577   7.964
  699POPC   C4B12118  43.663  17.601   7.664
  700POPC   NC312119   8.246  27.578   9.464
  700POPC   PO412120   8.223  27.628   9.164
  700POPC   GL112121   8.149  27.551   8.864
  700POPC   GL212122   8.093  27.583   8.864
  700POPC   C1A12123   8.210  27.548   8.564
  700POPC   D2A12124   8.193  27.631   8.264
  700POPC   C3A12125   8.198  27.563   7.964
  700POPC   C4A12126   8.202  27.638   7.664
  700POPC   C1B12127   7.927  27.470   8.564
  700POPC   C2B12128   8.009  27.462   8.264
  700POPC   C3B12129   7.934  27.538   7.964
  700POPC   C4B12130   8.013  27.524   7.664
  701POPC   NC312131  32.256  24.517   9.464
  701POPC   PO412132  32.260  24.489   9.164
  701POPC   GL112133  32.265  24.486   8.864
  701POPC   GL212134  32.313  24.532   8.864
  701POPC   C1A12135  32.226  24.537   8.564
  701POPC   D2A12136  32.285  24.508   8.264
  701POPC   C3A12137  32.233  24.538   7.964
  701POPC   C4A12138  32.234  24.472   7.664
  701POPC   C1B12139  32.443  24.613   8.564
  701POPC   C2B12140  32.456  24.636   8.264
  701POPC   C3B12141  32.389  24.666   7.964
  701POPC   C4B12142  32.458  24.620   7.664
  702POPC   NC312143  19.875  29.902   9.464
  702POPC   PO412144  19.863  29.943   9.164
  702POPC   GL112145  19.883  29.881   8.864
  702POPC   GL212146  19.773  30.002   8.864
  702POPC   C1A12147  19.884  29.937   8.564
  702POPC   D2A12148  19.872  29.924   8.264
  702POPC   C3A12149  19.812  29.875   7.964
  702POPC   C4A12150  19.844  29.891   7.664
  702POPC   C1B12151  19.767  30.153   8.564
  702POPC   C2B12152  19.742  30.205   8.264
  702POPC   C3B12153  19.735  30.133   7.964
  702POPC   C4B12154  19.747  30.186   7.664
  703POPC   NC312155  41.586  23.760   9.464
  703POPC   PO412156  41.562  23.723   9.164
  703POPC   GL112157  41.604  23.703   8.864
  703POPC   GL212158  41.508  23.878   8.864
  703POPC   C1A12159  41.576  23.740   8.564
  703POPC   D2A12160  41.509  23.737   8.264
  703POPC   C3A12161  41.511  23.686   7.964
  703POPC   C4A12162  41.550  23.703   7.664
  703POPC   C1B12163  41.562  23.959   8.564
  703POPC   C2B12164  41.552  23.975   8.264
  703POPC   C3B12165  41.549  23.912   7.964
  703POPC   C4B12166  41.492  23.960   7.664
  704POPC   NC312167   1.175  29.962   9.464
  704POPC   PO412168   1.251  29.954   9.164
  704POPC   GL112169   1.171  29.920   8.864
  704POPC   GL212170   1.106  30.013   8.864
  704POPC   C1A12171   1.236  29.919   8.564
  704POPC   D2A12172   1.216  29.926   8.264
  704POPC   C3A12173   1.174  29.941   7.964
  704POPC   C4A12174   1.210  29.960   7.664
  704POPC   C1B12175   0.962  30.044   8.564
  704POPC   C2B12176   0.996  30.029   8.264
  704POPC   C3B12177   1.015  30.039   7.964
  704POPC   C4B12178   0.953  30.007   7.664
  705POPC   NC312179  35.367  32.253   9.464
  705POPC   PO412180  35.302  32.240   9.164
  705POPC   GL112181  35.355  32.276   8.864
  705POPC   GL212182  35.451  32.304   8.864
  705POPC   C1A12183  35.325  32.294   8.564
  705POPC   D2A12184  35.342  32.282   8.264
  705POPC   C3A12185  35.324  32.271   7.964
  705POPC   C4A12186  35.333  32.237   7.664
  705POPC   C1B12187  35.521  32.395   8.564
  705POPC   C2B12188  35.569  32.358   8.264
  705POPC   C3B12189  35.583  32.442   7.964
  705POPC   C4B12190  35.543  32.387   7.664
  706POPC   NC312191  39.207  36.156   9.464
  706POPC   PO412192  39.192  36.098   9.164
  706POPC   GL112193  39.182  36.109   8.864
  706POPC   GL212194  39.335  36.000   8.864
  706POPC   C1A12195  39.240  36.081   8.564
  706POPC   D2A12196  39.226  36.095   8.264
  706POPC   C3A12197  39.247  36.129   7.964
  706POPC   C4A12198  39.245  36.176   7.664
  706POPC   C1B12199  39.385  35.929   8.564
  706POPC   C2B12200  39.445  36.002   8.264
  706POPC   C3B12201  39.380  35.916   7.964
  706POPC   C4B12202  39.376  35.942   7.664
  707POPC   NC312203  33.002  39.218   9.464
  707POPC   PO412204  32.982  39.280   9.164
  707POPC   GL112205  32.987  39.221   8.864
  707POPC   GL212206  33.032  39.080   8.864
  707POPC   C1A12207  33.040  39.241   8.564
  707POPC   D2A12208  33.033  39.229   8.264
  707POPC   C3A12209  32.991  39.194   7.964
  707POPC   C4A12210  32.977  39.193   7.664
  707POPC   C1B12211  32.960  38.941   8.564
  707POPC   C2B12212  32.948  38.973   8.264
  707POPC   C3B12213  33.007  38.974   7.964
  707POPC   C4B12214  33.018  39.009   7.664
  708POPC   NC312215  14.405  32.216   9.464
  708POPC   PO412216  14.430  32.255   9.164
  708POPC   GL112217  14.402  32.267   8.864
  708POPC   GL212218  14.555  32.225   8.864
  708POPC   C1A12219  14.360  32.252   8.564
  708POPC   D2A12220  14.415  32.237   8.264
  708POPC   C3A12221  14.450  32.204   7.964
  708POPC   C4A12222  14.415  32.241   7.664
  708POPC   C1B12223  14.692  32.259   8.564
  708POPC   C2B12224  14.690  32.268   8.264
  708POPC   C3B12225  14.643  32.265   7.964
  708POPC   C4B12226  14.695  32.242   7.664
  709POPC   NC312227   0.455  39.988   9.464
  709POPC   PO412228   0.410  39.980   9.164
  709POPC   GL112229   0.401  40.033   8.864
  709POPC   GL212230   0.456  40.113   8.864
  709POPC   C1A12231   0.479  39.988   8.564
  709POPC   D2A12232   0.421  40.000   8.264
  709POPC   C3A12233   0.443  39.982   7.964
  709POPC   C4A12234   0.483  39.959   7.664
  709POPC   C1B12235   0.441  40.215   8.564
  709POPC   C2B12236   0.474  40.228   8.264
  709POPC   C3B12237   0.527  40.241   7.964
  709POPC   C4B12238   0.503  40.218   7.664
  710POPC   NC312239  10.495   3.576   9.464
  710POPC   PO412240  10.540   3.519   9.164
  710POPC   GL112241  10.487   3.534   8.864
  710POPC   GL212242  10.499   3.686   8.864
  710POPC   C1A12243  10.523   3.537   8.564
  710POPC   D2A12244  10.482   3.549   8.264
  710POPC   C3A12245  10.529   3.539   7.964
  710POPC   C4A12246  10.521   3.541   7.664
  710POPC   C1B12247  10.446   3.771   8.564
  710POPC   C2B12248  10.430   3.780   8.264
  710POPC   C3B12249  10.494   3.777   7.964
  710POPC   C4B12250  10.518   3.740   7.664
  711POPC   NC312251  25.260   3.496   9.464
  711POPC   PO412252  25.311   3.574   9.164
  711POPC   GL112253  25.247   3.558   8.864
  711POPC   GL212254  25.320   3.467   8.864
  711POPC   C1A12255  25.307   3.567   8.564
  711POPC   D2A12256  25.255   3.590   8.264
  711POPC   C3A12257  25.307   3.535   7.964
  711POPC   C4A12258  25.243   3.528   7.664
  711POPC   C1B12259  25.424   3.335   8.564
  711POPC   C2B12260  25.384   3.344   8.264
  711POPC   C3B12261  25.411   3.377   7.964
  711POPC   C4B12262  25.415   3.285   7.664
  712POPC   NC312263  15.960  39.254   9.464
  712POPC   PO412264  15.957  39.277   9.164
  712POPC   GL112265  15.965  39.218   8.864
  712POPC   GL212266  15.973  39.123   8.864
  712POPC   C1A12267  15.941  39.277   8.564
  712POPC   D2A12268  15.928  39.280   8.264
  712POPC   C3A12269  15.960  39.209   7.964
  712POPC   C4A12270  15.993  39.257   7.664
  712POPC   C1B12271  15.870  38.956   8.564
  712POPC   C2B12272  15.862  38.945   8.264
  712POPC   C3B12273  15.937  38.956   7.964
  712POPC   C4B12274  15.855  39.035   7.664
  713POPC   NC312275  13.646  24.520   9.464
  713POPC   PO412276  13.592  24.538   9.164
  713POPC   GL112277  13.676  24.503   8.864
  713POPC   GL212278  13.692  24.444   8.864
  713POPC   C1A12279  13.579  24.519   8.564
  713POPC   D2A12280  13.672  24.468   8.264
  713POPC   C3A12281  13.670  24.453   7.964
  713POPC   C4A12282  13.598  24.465   7.664
  713POPC   C1B12283  13.801  24.345   8.564
  713POPC   C2B12284  13.769  24.337   8.264
  713POPC   C3B12285  13.786  24.315   7.964
  713POPC   C4B12286  13.792  24.288   7.664
  714POPC   NC312287  25.281  29.105   9.464
  714POPC   PO412288  25.249  29.147   9.164
  714POPC   GL112289  25.279  29.165   8.864
  714POPC   GL212290  25.311  29.284   8.864
  714POPC   C1A12291  25.254  29.097   8.564
  714POPC   D2A12292  25.273  29.167   8.264
  714POPC   C3A12293  25.245  29.133   7.964
  714POPC   C4A12294  25.291  29.190   7.664
  714POPC   C1B12295  25.392  29.326   8.564
  714POPC   C2B12296  25.381  29.369   8.264
  714POPC   C3B12297  25.456  29.304   7.964
  714POPC   C4B12298  25.400  29.359   7.664
  715POPC   NC312299  36.168   9.735   9.464
  715POPC   PO412300  36.102   9.736   9.164
  715POPC   GL112301  36.099   9.794   8.864
  715POPC   GL212302  36.178   9.845   8.864
  715POPC   C1A12303  36.138   9.729   8.564
  715POPC   D2A12304  36.090   9.798   8.264
  715POPC   C3A12305  36.094   9.760   7.964
  715POPC   C4A12306  36.133   9.706   7.664
  715POPC   C1B12307  36.198  10.002   8.564
  715POPC   C2B12308  36.256   9.976   8.264
  715POPC   C3B12309  36.207   9.988   7.964
  715POPC   C4B12310  36.206  10.019   7.664
  716POPC   NC312311  16.750  29.956   9.464
  716POPC   PO412312  16.731  29.888   9.164
  716POPC   GL112313  16.719  29.908   8.864
  716POPC   GL212314  16.730  30.020   8.864
  716POPC   C1A12315  16.735  29.965   8.564
  716POPC   D2A12316  16.740  29.936   8.264
  716POPC   C3A12317  16.730  29.876   7.964
  716POPC   C4A12318  16.765  29.954   7.664
  716POPC   C1B12319  16.735  30.160   8.564
  716POPC   C2B12320  16.682  30.189   8.264
  716POPC   C3B12321  16.706  30.190   7.964
  716POPC   C4B12322  16.686  30.127   7.664
  717POPC   NC312323  18.253   5.107   9.464
  717POPC   PO412324  18.266   5.045   9.164
  717POPC   GL112325  18.249   5.134   8.864
  717POPC   GL212326  18.195   5.231   8.864
  717POPC   C1A12327  18.317   5.086   8.564
  717POPC   D2A12328  18.332   5.131   8.264
  717POPC   C3A12329  18.247   5.116   7.964
  717POPC   C4A12330  18.299   5.054   7.664
  717POPC   C1B12331  18.235   5.352   8.564
  717POPC   C2B12332  18.219   5.359   8.264
  717POPC   C3B12333  18.151   5.334   7.964
  717POPC   C4B12334  18.213   5.293   7.664
  718POPC   NC312335  41.533   2.027   9.464
  718POPC   PO412336  41.547   1.990   9.164
  718POPC   GL112337  41.534   2.002   8.864
  718POPC   GL212338  41.467   1.949   8.864
  718POPC   C1A12339  41.513   1.993   8.564
  718POPC   D2A12340  41.522   2.030   8.264
  718POPC   C3A12341  41.533   1.958   7.964
  718POPC   C4A12342  41.599   1.989   7.664
  718POPC   C1B12343  41.341   1.948   8.564
  718POPC   C2B12344  41.263   1.990   8.264
  718POPC   C3B12345  41.343   1.983   7.964
  718POPC   C4B12346  41.339   1.949   7.664
  719POPC   NC312347  30.709  43.846   9.464
  719POPC   PO412348  30.686  43.932   9.164
  719POPC   GL112349  30.705  43.850   8.864
  719POPC   GL212350  30.816  43.899   8.864
  719POPC   C1A12351  30.656  43.924   8.564
  719POPC   D2A12352  30.722  43.856   8.264
  719POPC   C3A12353  30.740  43.935   7.964
  719POPC   C4A12354  30.691  43.865   7.664
  719POPC   C1B12355  30.963  43.934   8.564
  719POPC   C2B12356  30.972  43.879   8.264
  719POPC   C3B12357  30.912  43.874   7.964
  719POPC   C4B12358  30.945  43.915   7.664
  720POPC   NC312359  19.792   2.774   9.464
  720POPC   PO412360  19.798   2.808   9.164
  720POPC   GL112361  19.804   2.779   8.864
  720POPC   GL212362  19.703   2.854   8.864
  720POPC   C1A12363  19.812   2.736   8.564
  720POPC   D2A12364  19.797   2.807   8.264
  720POPC   C3A12365  19.840   2.768   7.964
  720POPC   C4A12366  19.821   2.717   7.664
  720POPC   C1B12367  19.670   2.962   8.564
  720POPC   C2B12368  19.608   2.946   8.264
  720POPC   C3B12369  19.647   2.881   7.964
  720POPC   C4B12370  19.663   2.963   7.664
  721POPC   NC312371   2.033   8.949   9.464
  721POPC   PO412372   1.952   8.956   9.164
  721POPC   GL112373   1.992   8.970   8.864
  721POPC   GL212374   2.007   8.865   8.864
  721POPC   C1A12375   1.943   8.991   8.564
  721POPC   D2A12376   1.940   9.000   8.264
  721POPC   C3A12377   2.026   8.993   7.964
  721POPC   C4A12378   2.018   8.938   7.664
  721POPC   C1B12379   1.911   8.773   8.564
  721POPC   C2B12380   1.917   8.687   8.264
  721POPC   C3B12381   1.927   8.716   7.964
  721POPC   C4B12382   1.970   8.771   7.664
  722POPC   NC312383  36.892  16.001   9.464
  722POPC   PO412384  36.924  15.967   9.164
  722POPC   GL112385  36.953  15.977   8.864
  722POPC   GL212386  36.730  15.976   8.864
  722POPC   C1A12387  36.859  15.941   8.564
  722POPC   D2A12388  36.854  15.942   8.264
  722POPC   C3A12389  36.891  15.943   7.964
  722POPC   C4A12390  36.901  15.990   7.664
  722POPC   C1B12391  36.640  15.996   8.564
  722POPC   C2B12392  36.679  15.917   8.264
  722POPC   C3B12393  36.665  15.956   7.964
  722POPC   C4B12394  36.639  16.008   7.664
  723POPC   NC312395  27.580  16.768   9.464
  723POPC   PO412396  27.562  16.769   9.164
  723POPC   GL112397  27.546  16.681   8.864
  723POPC   GL212398  27.509  16.723   8.864
  723POPC   C1A12399  27.575  16.687   8.564
  723POPC   D2A12400  27.612  16.693   8.264
  723POPC   C3A12401  27.585  16.735   7.964
  723POPC   C4A12402  27.629  16.753   7.664
  723POPC   C1B12403  27.297  16.714   8.564
  723POPC   C2B12404  27.386  16.776   8.264
  723POPC   C3B12405  27.309  16.781   7.964
  723POPC   C4B12406  27.377  16.720   7.664
  724POPC   NC312407  16.696  18.271   9.464
  724POPC   PO412408  16.725  18.293   9.164
  724POPC   GL112409  16.726  18.319   8.864
  724POPC   GL212410  16.681  18.142   8.864
  724POPC   C1A12411  16.684  18.278   8.564
  724POPC   D2A12412  16.711  18.305   8.264
  724POPC   C3A12413  16.735  18.313   7.964
  724POPC   C4A12414  16.747  18.326   7.664
  724POPC   C1B12415  16.596  18.043   8.564
  724POPC   C2B12416  16.632  18.034   8.264
  724POPC   C3B12417  16.594  18.048   7.964
  724POPC   C4B12418  16.554  18.051   7.664
  725POPC   NC312419  27.570  29.960   9.464
  725POPC   PO412420  27.593  29.944   9.164
  725POPC   GL112421  27.591  29.894   8.864
  725POPC   GL212422  27.657  29.834   8.864
  725POPC   C1A12423  27.594  29.887   8.564
  725POPC   D2A12424  27.550  29.920   8.264
  725POPC   C3A12425  27.637  29.871   7.964
  725POPC   C4A12426  27.561  29.918   7.664
  725POPC   C1B12427  27.725  29.732   8.564
  725POPC   C2B12428  27.741  29.654   8.264
  725POPC   C3B12429  27.689  29.727   7.964
  725POPC   C4B12430  27.664  29.717   7.664
  726POPC   NC312431  44.644  30.735   9.464
  726POPC   PO412432  44.648  30.656   9.164
  726POPC   GL112433  44.640  30.737   8.864
  726POPC   GL212434  44.650  30.848   8.864
  726POPC   C1A12435  44.673  30.682   8.564
  726POPC   D2A12436  44.619  30.681   8.264
  726POPC   C3A12437  44.645  30.722   7.964
  726POPC   C4A12438  44.643  30.677   7.664
  726POPC   C1B12439  44.670  30.914   8.564
  726POPC   C2B12440  44.627  30.945   8.264
  726POPC   C3B12441  44.688  30.985   7.964
  726POPC   C4B12442  44.644  30.944   7.664
  727POPC   NC312443  39.228  12.071   9.464
  727POPC   PO412444  39.243  12.031   9.164
  727POPC   GL112445  39.245  12.095   8.864
  727POPC   GL212446  39.345  11.968   8.864
  727POPC   C1A12447  39.274  12.040   8.564
  727POPC   D2A12448  39.191  12.058   8.264
  727POPC   C3A12449  39.201  12.046   7.964
  727POPC   C4A12450  39.249  12.105   7.664
  727POPC   C1B12451  39.494  11.962   8.564
  727POPC   C2B12452  39.431  11.913   8.264
  727POPC   C3B12453  39.408  11.911   7.964
  727POPC   C4B12454  39.424  11.907   7.664
  728POPC   NC312455  15.147  28.332   9.464
  728POPC   PO412456  15.149  28.392   9.164
  728POPC   GL112457  15.168  28.396   8.864
  728POPC   GL212458  15.315  28.507   8.864
  728POPC   C1A12459  15.182  28.344   8.564
  728POPC   D2A12460  15.193  28.342   8.264
  728POPC   C3A12461  15.213  28.392   7.964
  728POPC   C4A12462  15.190  28.329   7.664
  728POPC   C1B12463  15.367  28.546   8.564
  728POPC   C2B12464  15.363  28.586   8.264
  728POPC   C3B12465  15.324  28.501   7.964
  728POPC   C4B12466  15.308  28.595   7.664
  729POPC   NC312467  15.201  32.203   9.464
  729POPC   PO412468  15.134  32.233   9.164
  729POPC   GL112469  15.130  32.280   8.864
  729POPC   GL212470  15.257  32.124   8.864
  729POPC   C1A12471  15.190  32.216   8.564
  729POPC   D2A12472  15.209  32.298   8.264
  729POPC   C3A12473  15.160  32.205   7.964
  729POPC   C4A12474  15.135  32.199   7.664
  729POPC   C1B12475  15.409  32.067   8.564
  729POPC   C2B12476  15.327  32.062   8.264
  729POPC   C3B12477  15.383  32.082   7.964
  729POPC   C4B12478  15.396  32.068   7.664
  730POPC   NC312479  29.157  12.902   9.464
  730POPC   PO412480  29.151  12.899   9.164
  730POPC   GL112481  29.103  12.831   8.864
  730POPC   GL212482  29.101  12.972   8.864
  730POPC   C1A12483  29.128  12.878   8.564
  730POPC   D2A12484  29.188  12.835   8.264
  730POPC   C3A12485  29.166  12.896   7.964
  730POPC   C4A12486  29.119  12.824   7.664
  730POPC   C1B12487  29.010  13.039   8.564
  730POPC   C2B12488  28.939  13.014   8.264
  730POPC   C3B12489  28.931  13.032   7.964
  730POPC   C4B12490  28.917  13.030   7.664
  731POPC   NC312491  28.327  30.733   9.464
  731POPC   PO412492  28.401  30.708   9.164
  731POPC   GL112493  28.353  30.657   8.864
  731POPC   GL212494  28.448  30.544   8.864
  731POPC   C1A12495  28.401  30.663   8.564
  731POPC   D2A12496  28.375  30.691   8.264
  731POPC   C3A12497  28.340  30.714   7.964
  731POPC   C4A12498  28.415  30.701   7.664
  731POPC   C1B12499  28.526  30.446   8.564
  731POPC   C2B12500  28.470  30.447   8.264
  731POPC   C3B12501  28.517  30.492   7.964
  731POPC   C4B12502  28.490  30.503   7.664
  732POPC   NC312503  44.655   0.416   9.464
  732POPC   PO412504  44.656   0.434   9.164
  732POPC   GL112505  44.633   0.473   8.864
  732POPC   GL212506  44.654   0.278   8.864
  732POPC   C1A12507  44.709   0.452   8.564
  732POPC   D2A12508  44.638   0.395   8.264
  732POPC   C3A12509  44.685   0.449   7.964
  732POPC   C4A12510  44.640   0.444   7.664
  732POPC   C1B12511  44.515   0.264   8.564
  732POPC   C2B12512  44.529   0.182   8.264
  732POPC   C3B12513  44.505   0.181   7.964
  732POPC   C4B12514  44.595   0.212   7.664
  733POPC   NC312515  26.060  35.399   9.464
  733POPC   PO412516  26.064  35.364   9.164
  733POPC   GL112517  26.044  35.393   8.864
  733POPC   GL212518  25.945  35.354   8.864
  733POPC   C1A12519  25.996  35.325   8.564
  733POPC   D2A12520  26.054  35.318   8.264
  733POPC   C3A12521  26.074  35.310   7.964
  733POPC   C4A12522  26.055  35.392   7.664
  733POPC   C1B12523  25.773  35.400   8.564
  733POPC   C2B12524  25.787  35.356   8.264
  733POPC   C3B12525  25.759  35.385   7.964
  733POPC   C4B12526  25.749  35.396   7.664
  734POPC   NC312527  15.951  44.630   9.464
  734POPC   PO412528  15.965  44.682   9.164
  734POPC   GL112529  15.939  44.642   8.864
  734POPC   GL212530  15.836  44.644   8.864
  734POPC   C1A12531  15.914  44.629   8.564
  734POPC   D2A12532  15.978  44.683   8.264
  734POPC   C3A12533  15.985  44.619   7.964
  734POPC   C4A12534  15.957  44.702   7.664
  734POPC   C1B12535  15.668  44.705   8.564
  734POPC   C2B12536  15.678  44.678   8.264
  734POPC   C3B12537  15.679  44.694   7.964
  734POPC   C4B12538  15.708  44.721   7.664
  735POPC   NC312539  26.032  40.760   9.464
  735POPC   PO412540  26.005  40.798   9.164
  735POPC   GL112541  26.035  40.789   8.864
  735POPC   GL212542  26.124  40.709   8.864
  735POPC   C1A12543  25.998  40.743   8.564
  735POPC   D2A12544  26.065  40.774   8.264
  735POPC   C3A12545  26.042  40.768   7.964
  735POPC   C4A12546  26.043  40.742   7.664
  735POPC   C1B12547  26.219  40.673   8.564
  735POPC   C2B12548  26.194  40.648   8.264
  735POPC   C3B12549  26.276  40.610   7.964
  735POPC   C4B12550  26.279  40.609   7.664
  736POPC   NC312551  13.590  43.851   9.464
  736POPC   PO412552  13.609  43.862   9.164
  736POPC   GL112553  13.657  43.912   8.864
  736POPC   GL212554  13.710  43.763   8.864
  736POPC   C1A12555  13.632  43.898   8.564
  736POPC   D2A12556  13.630  43.898   8.264
  736POPC   C3A12557  13.629  43.849   7.964
  736POPC   C4A12558  13.648  43.932   7.664
  736POPC   C1B12559  13.702  43.691   8.564
  736POPC   C2B12560  13.769  43.669   8.264
  736POPC   C3B12561  13.743  43.628   7.964
  736POPC   C4B12562  13.753  43.663   7.664
  737POPC   NC312563  31.440  19.822   9.464
  737POPC   PO412564  31.520  19.814   9.164
  737POPC   GL112565  31.431  19.823   8.864
  737POPC   GL212566  31.608  19.771   8.864
  737POPC   C1A12567  31.471  19.846   8.564
  737POPC   D2A12568  31.505  19.806   8.264
  737POPC   C3A12569  31.467  19.819   7.964
  737POPC   C4A12570  31.516  19.883   7.664
  737POPC   C1B12571  31.677  19.717   8.564
  737POPC   C2B12572  31.726  19.710   8.264
  737POPC   C3B12573  31.743  19.737   7.964
  737POPC   C4B12574  31.728  19.728   7.664
  738POPC   NC312575  18.327  12.036   9.464
  738POPC   PO412576  18.303  12.050   9.164
  738POPC   GL112577  18.287  12.098   8.864
  738POPC   GL212578  18.222  12.199   8.864
  738POPC   C1A12579  18.287  12.042   8.564
  738POPC   D2A12580  18.314  12.107   8.264
  738POPC   C3A12581  18.266  12.100   7.964
  738POPC   C4A12582  18.306  12.043   7.664
  738POPC   C1B12583  18.117  12.307   8.564
  738POPC   C2B12584  18.117  12.302   8.264
  738POPC   C3B12585  18.085  12.309   7.964
  738POPC   C4B12586  18.083  12.277   7.664
  739POPC   NC312587  20.611  22.183   9.464
  739POPC   PO412588  20.609  22.128   9.164
  739POPC   GL112589  20.579  22.182   8.864
  739POPC   GL212590  20.605  22.285   8.864
  739POPC   C1A12591  20.618  22.185   8.564
  739POPC   D2A12592  20.611  22.203   8.264
  739POPC   C3A12593  20.572  22.130   7.964
  739POPC   C4A12594  20.652  22.197   7.664
  739POPC   C1B12595  20.665  22.387   8.564
  739POPC   C2B12596  20.698  22.453   8.264
  739POPC   C3B12597  20.701  22.386   7.964
  739POPC   C4B12598  20.678  22.418   7.664
  740POPC   NC312599  25.999  22.176   9.464
  740POPC   PO412600  26.068  22.174   9.164
  740POPC   GL112601  26.024  22.199   8.864
  740POPC   GL212602  26.032  22.266   8.864
  740POPC   C1A12603  26.084  22.183   8.564
  740POPC   D2A12604  26.055  22.201   8.264
  740POPC   C3A12605  26.013  22.136   7.964
  740POPC   C4A12606  26.031  22.161   7.664
  740POPC   C1B12607  25.911  22.412   8.564
  740POPC   C2B12608  25.941  22.401   8.264
  740POPC   C3B12609  25.943  22.374   7.964
  740POPC   C4B12610  25.987  22.360   7.664
  741POPC   NC312611  40.800  34.555   9.464
  741POPC   PO412612  40.825  34.615   9.164
  741POPC   GL112613  40.808  34.580   8.864
  741POPC   GL212614  40.904  34.529   8.864
  741POPC   C1A12615  40.770  34.573   8.564
  741POPC   D2A12616  40.799  34.547   8.264
  741POPC   C3A12617  40.801  34.620   7.964
  741POPC   C4A12618  40.829  34.573   7.664
  741POPC   C1B12619  40.996  34.482   8.564
  741POPC   C2B12620  41.043  34.525   8.264
  741POPC   C3B12621  41.037  34.537   7.964
  741POPC   C4B12622  41.036  34.571   7.664
  742POPC   NC312623  33.840  33.016   9.464
  742POPC   PO412624  33.801  32.992   9.164
  742POPC   GL112625  33.819  33.020   8.864
  742POPC   GL212626  33.699  33.126   8.864
  742POPC   C1A12627  33.831  32.990   8.564
  742POPC   D2A12628  33.787  33.039   8.264
  742POPC   C3A12629  33.822  33.016   7.964
  742POPC   C4A12630  33.773  32.979   7.664
  742POPC   C1B12631  33.585  33.227   8.564
  742POPC   C2B12632  33.561  33.184   8.264
  742POPC   C3B12633  33.568  33.210   7.964
  742POPC   C4B12634  33.575  33.165   7.664
  743POPC   NC312635  31.467  12.066   9.464
  743POPC   PO412636  31.476  12.124   9.164
  743POPC   GL112637  31.487  12.069   8.864
  743POPC   GL212638  31.619  12.190   8.864
  743POPC   C1A12639  31.448  12.088   8.564
  743POPC   D2A12640  31.479  12.093   8.264
  743POPC   C3A12641  31.451  12.105   7.964
  743POPC   C4A12642  31.482  12.053   7.664
  743POPC   C1B12643  31.712  12.260   8.564
  743POPC   C2B12644  31.651  12.232   8.264
  743POPC   C3B12645  31.639  12.225   7.964
  743POPC   C4B12646  31.678  12.212   7.664
  744POPC   NC312647  20.614  30.659   9.464
  744POPC   PO412648  20.580  30.654   9.164
  744POPC   GL112649  20.594  30.734   8.864
  744POPC   GL212650  20.726  30.652   8.864
  744POPC   C1A12651  20.657  30.663   8.564
  744POPC   D2A12652  20.564  30.719   8.264
  744POPC   C3A12653  20.644  30.720   7.964
  744POPC   C4A12654  20.566  30.695   7.664
  744POPC   C1B12655  20.866  30.563   8.564
  744POPC   C2B12656  20.802  30.639   8.264
  744POPC   C3B12657  20.829  30.566   7.964
  744POPC   C4B12658  20.884  30.615   7.664
  745POPC   NC312659   5.820  18.319   9.464
  745POPC   PO412660   5.890  18.267   9.164
  745POPC   GL112661   5.885  18.275   8.864
  745POPC   GL212662   5.799  18.194   8.864
  745POPC   C1A12663   5.883  18.244   8.564
  745POPC   D2A12664   5.884  18.318   8.264
  745POPC   C3A12665   5.911  18.243   7.964
  745POPC   C4A12666   5.854  18.296   7.664
  745POPC   C1B12667   5.736  18.069   8.564
  745POPC   C2B12668   5.658  18.063   8.264
  745POPC   C3B12669   5.640  18.063   7.964
  745POPC   C4B12670   5.663  18.109   7.664
  746POPC   NC312671   0.399  33.833   9.464
  746POPC   PO412672   0.433  33.815   9.164
  746POPC   GL112673   0.408  33.808   8.864
  746POPC   GL212674   0.330  33.912   8.864
  746POPC   C1A12675   0.430  33.771   8.564
  746POPC   D2A12676   0.396  33.794   8.264
  746POPC   C3A12677   0.448  33.839   7.964
  746POPC   C4A12678   0.440  33.835   7.664
  746POPC   C1B12679   0.296  34.046   8.564
  746POPC   C2B12680   0.357  34.035   8.264
  746POPC   C3B12681   0.289  34.022   7.964
  746POPC   C4B12682   0.331  34.057   7.664
  747POPC   NC312683  19.852  25.304   9.464
  747POPC   PO412684  19.877  25.279   9.164
  747POPC   GL112685  19.793  25.287   8.864
  747POPC   GL212686  19.844  25.166   8.864
  747POPC   C1A12687  19.852  25.236   8.564
  747POPC   D2A12688  19.804  25.218   8.264
  747POPC   C3A12689  19.870  25.288   7.964
  747POPC   C4A12690  19.793  25.258   7.664
  747POPC   C1B12691  19.865  25.053   8.564
  747POPC   C2B12692  19.900  24.978   8.264
  747POPC   C3B12693  19.911  25.053   7.964
  747POPC   C4B12694  19.896  25.052   7.664
  748POPC   NC312695  27.593   8.984   9.464
  748POPC   PO412696  27.586   8.970   9.164
  748POPC   GL112697  27.620   8.964   8.864
  748POPC   GL212698  27.512   9.095   8.864
  748POPC   C1A12699  27.606   8.998   8.564
  748POPC   D2A12700  27.634   8.958   8.264
  748POPC   C3A12701  27.546   8.936   7.964
  748POPC   C4A12702  27.551   8.960   7.664
  748POPC   C1B12703  27.441   9.118   8.564
  748POPC   C2B12704  27.394   9.171   8.264
  748POPC   C3B12705  27.418   9.128   7.964
  748POPC   C4B12706  27.458   9.109   7.664
  749POPC   NC312707   1.968   5.131   9.464
  749POPC   PO412708   2.014   5.110   9.164
  749POPC   GL112709   2.021   5.127   8.864
  749POPC   GL212710   1.947   5.169   8.864
  749POPC   C1A12711   1.948   5.120   8.564
  749POPC   D2A12712   1.995   5.081   8.264
  749POPC   C3A12713   1.990   5.067   7.964
  749POPC   C4A12714   2.024   5.087   7.664
  749POPC   C1B12715   1.779   5.288   8.564
  749POPC   C2B12716   1.843   5.306   8.264
  749POPC   C3B12717   1.860   5.310   7.964
  749POPC   C4B12718   1.861   5.259   7.664
  750POPC   NC312719  20.579   6.678   9.464
  750POPC   PO412720  20.653   6.632   9.164
  750POPC   GL112721  20.646   6.645   8.864
  750POPC   GL212722  20.542   6.550   8.864
  750POPC   C1A12723  20.655   6.605   8.564
  750POPC   D2A12724  20.615   6.609   8.264
  750POPC   C3A12725  20.608   6.626   7.964
  750POPC   C4A12726  20.577   6.623   7.664
  750POPC   C1B12727  20.588   6.398   8.564
  750POPC   C2B12728  20.572   6.366   8.264
  750POPC   C3B12729  20.564   6.393   7.964
  750POPC   C4B12730  20.602   6.422   7.664
  751POPC   NC312731   5.868  43.931   9.464
  751POPC   PO412732   5.862  43.934   9.164
  751POPC   GL112733   5.871  43.870   8.864
  751POPC   GL212734   5.790  43.868   8.864
  751POPC   C1A12735   5.870  43.860   8.564
  751POPC   D2A12736   5.869  43.929   8.264
  751POPC   C3A12737   5.865  43.865   7.964
  751POPC   C4A12738   5.905  43.909   7.664
  751POPC   C1B12739   5.618  43.842   8.564
  751POPC   C2B12740   5.593  43.831   8.264
  751POPC   C3B12741   5.600  43.881   7.964
  751POPC   C4B12742   5.669  43.839   7.664
  752POPC   NC312743  40.818  18.323   9.464
  752POPC   PO412744  40.800  18.332   9.164
  752POPC   GL112745  40.754  18.252   8.864
  752POPC   GL212746  40.881  18.147   8.864
  752POPC   C1A12747  40.761  18.326   8.564
  752POPC   D2A12748  40.749  18.290   8.264
  752POPC   C3A12749  40.759  18.304   7.964
  752POPC   C4A12750  40.734  18.327   7.664
  752POPC   C1B12751  40.972  18.102   8.564
  752POPC   C2B12752  40.892  18.132   8.264
  752POPC   C3B12753  40.949  18.095   7.964
  752POPC   C4B12754  40.946  18.038   7.664
  753POPC   NC312755   8.954  43.103   9.464
  753POPC   PO412756   9.016  43.085   9.164
  753POPC   GL112757   9.018  43.089   8.864
  753POPC   GL212758   9.106  43.081   8.864
  753POPC   C1A12759   8.939  43.155   8.564
  753POPC   D2A12760   8.978  43.150   8.264
  753POPC   C3A12761   8.965  43.134   7.964
  753POPC   C4A12762   8.978  43.091   7.664
  753POPC   C1B12763   9.205  42.964   8.564
  753POPC   C2B12764   9.177  43.003   8.264
  753POPC   C3B12765   9.223  43.030   7.964
  753POPC   C4B12766   9.173  42.947   7.664
  754POPC   NC312767  29.964  37.674   9.464
  754POPC   PO412768  29.922  37.683   9.164
  754POPC   GL112769  29.954  37.688   8.864
  754POPC   GL212770  29.813  37.586   8.864
  754POPC   C1A12771  29.909  37.639   8.564
  754POPC   D2A12772  29.947  37.727   8.264
  754POPC   C3A12773  29.927  37.694   7.964
  754POPC   C4A12774  29.908  37.668   7.664
  754POPC   C1B12775  29.744  37.496   8.564
  754POPC   C2B12776  29.751  37.512   8.264
  754POPC   C3B12777  29.743  37.521   7.964
  754POPC   C4B12778  29.743  37.554   7.664
  755POPC   NC312779  32.203  43.100   9.464
  755POPC   PO412780  32.290  43.064   9.164
  755POPC   GL112781  32.257  43.080   8.864
  755POPC   GL212782  32.187  43.075   8.864
  755POPC   C1A12783  32.288  43.157   8.564
  755POPC   D2A12784  32.245  43.145   8.264
  755POPC   C3A12785  32.207  43.127   7.964
  755POPC   C4A12786  32.223  43.120   7.664
  755POPC   C1B12787  32.101  42.980   8.564
  755POPC   C2B12788  32.099  42.903   8.264
  755POPC   C3B12789  32.041  42.899   7.964
  755POPC   C4B12790  32.111  42.967   7.664
  756POPC   NC312791  29.106  21.421   9.464
  756POPC   PO412792  29.122  21.376   9.164
  756POPC   GL112793  29.178  21.384   8.864
  756POPC   GL212794  29.291  21.279   8.864
  756POPC   C1A12795  29.134  21.339   8.564
  756POPC   D2A12796  29.146  21.372   8.264
  756POPC   C3A12797  29.143  21.360   7.964
  756POPC   C4A12798  29.134  21.355   7.664
  756POPC   C1B12799  29.389  21.301   8.564
  756POPC   C2B12800  29.360  21.309   8.264
  756POPC   C3B12801  29.359  21.294   7.964
  756POPC   C4B12802  29.322  21.280   7.664
  757POPC   NC312803  26.844   7.384   9.464
  757POPC   PO412804  26.862   7.436   9.164
  757POPC   GL112805  26.830   7.461   8.864
  757POPC   GL212806  26.768   7.484   8.864
  757POPC   C1A12807  26.818   7.427   8.564
  757POPC   D2A12808  26.777   7.432   8.264
  757POPC   C3A12809  26.773   7.470   7.964
  757POPC   C4A12810  26.865   7.422   7.664
  757POPC   C1B12811  26.684   7.686   8.564
  757POPC   C2B12812  26.682   7.641   8.264
  757POPC   C3B12813  26.720   7.619   7.964
  757POPC   C4B12814  26.740   7.650   7.664
  758POPC   NC312815  39.201  20.638   9.464
  758POPC   PO412816  39.192  20.596   9.164
  758POPC   GL112817  39.215  20.659   8.864
  758POPC   GL212818  39.213  20.461   8.864
  758POPC   C1A12819  39.244  20.599   8.564
  758POPC   D2A12820  39.251  20.658   8.264
  758POPC   C3A12821  39.262  20.621   7.964
  758POPC   C4A12822  39.253  20.569   7.664
  758POPC   C1B12823  39.206  20.328   8.564
  758POPC   C2B12824  39.199  20.356   8.264
  758POPC   C3B12825  39.153  20.377   7.964
  758POPC   C4B12826  39.156  20.375   7.664
  759POPC   NC312827  29.871  42.362   9.464
  759POPC   PO412828  29.945  42.360   9.164
  759POPC   GL112829  29.898  42.336   8.864
  759POPC   GL212830  29.996  42.270   8.864
  759POPC   C1A12831  29.910  42.345   8.564
  759POPC   D2A12832  29.886  42.363   8.264
  759POPC   C3A12833  29.939  42.370   7.964
  759POPC   C4A12834  29.881  42.294   7.664
  759POPC   C1B12835  30.057  42.086   8.564
  759POPC   C2B12836  30.029  42.087   8.264
  759POPC   C3B12837  30.045  42.142   7.964
  759POPC   C4B12838  30.008  42.111   7.664
  760POPC   NC312839  40.770  32.284   9.464
  760POPC   PO412840  40.754  32.265   9.164
  760POPC   GL112841  40.802  32.254   8.864
  760POPC   GL212842  40.919  32.282   8.864
  760POPC   C1A12843  40.800  32.291   8.564
  760POPC   D2A12844  40.760  32.203   8.264
  760POPC   C3A12845  40.816  32.209   7.964
  760POPC   C4A12846  40.749  32.219   7.664
  760POPC   C1B12847  40.966  32.400   8.564
  760POPC   C2B12848  40.984  32.356   8.264
  760POPC   C3B12849  40.977  32.385   7.964
  760POPC   C4B12850  41.004  32.366   7.664
  761POPC   NC312851  27.613  25.269   9.464
  761POPC   PO412852  27.604  25.252   9.164
  761POPC   GL112853  27.570  25.311   8.864
  761POPC   GL212854  27.543  25.359   8.864
  761POPC   C1A12855  27.550  25.220   8.564
  761POPC   D2A12856  27.623  25.298   8.264
  761POPC   C3A12857  27.552  25.301   7.964
  761POPC   C4A12858  27.599  25.253   7.664
  761POPC   C1B12859  27.510  25.483   8.564
  761POPC   C2B12860  27.569  25.503   8.264
  761POPC   C3B12861  27.535  25.523   7.964
  761POPC   C4B12862  27.493  25.547   7.664
  762POPC   NC312863  35.359   2.733   9.464
  762POPC   PO412864  35.352   2.772   9.164
  762POPC   GL112865  35.401   2.741   8.864
  762POPC   GL212866  35.265   2.863   8.864
  762POPC   C1A12867  35.315   2.765   8.564
  762POPC   D2A12868  35.338   2.778   8.264
  762POPC   C3A12869  35.334   2.793   7.964
  762POPC   C4A12870  35.341   2.718   7.664
  762POPC   C1B12871  35.187   2.913   8.564
  762POPC   C2B12872  35.221   2.969   8.264
  762POPC   C3B12873  35.221   2.982   7.964
  762POPC   C4B12874  35.205   2.917   7.664
  763POPC   NC312875  21.431  19.028   9.464
  763POPC   PO412876  21.434  19.091   9.164
  763POPC   GL112877  21.357  19.052   8.864
  763POPC   GL212878  21.534  19.115   8.864
  763POPC   C1A12879  21.360  19.096   8.564
  763POPC   D2A12880  21.370  19.101   8.264
  763POPC   C3A12881  21.382  19.091   7.964
  763POPC   C4A12882  21.403  19.056   7.664
  763POPC   C1B12883  21.583  19.203   8.564
  763POPC   C2B12884  21.622  19.194   8.264
  763POPC   C3B12885  21.588  19.154   7.964
  763POPC   C4B12886  21.614  19.156   7.664
  764POPC   NC312887  12.840  32.218   9.464
  764POPC   PO412888  12.831  32.224   9.164
  764POPC   GL112889  12.876  32.263   8.864
  764POPC   GL212890  12.960  32.317   8.864
  764POPC   C1A12891  12.805  32.256   8.564
  764POPC   D2A12892  12.896  32.250   8.264
  764POPC   C3A12893  12.864  32.215   7.964
  764POPC   C4A12894  12.803  32.250   7.664
  764POPC   C1B12895  13.062  32.351   8.564
  764POPC   C2B12896  13.032  32.350   8.264
  764POPC   C3B12897  13.033  32.335   7.964
  764POPC   C4B12898  13.050  32.336   7.664
  765POPC   NC312899  11.349  12.814   9.464
  765POPC   PO412900  11.350  12.847   9.164
  765POPC   GL112901  11.342  12.900   8.864
  765POPC   GL212902  11.372  12.902   8.864
  765POPC   C1A12903  11.343  12.894   8.564
  765POPC   D2A12904  11.315  12.890   8.264
  765POPC   C3A12905  11.345  12.811   7.964
  765POPC   C4A12906  11.314  12.836   7.664
  765POPC   C1B12907  11.528  12.936   8.564
  765POPC   C2B12908  11.561  12.973   8.264
  765POPC   C3B12909  11.564  12.983   7.964
  765POPC   C4B12910  11.529  12.923   7.664
  766POPC   NC312911  30.743  14.417   9.464
  766POPC   PO412912  30.661  14.369   9.164
  766POPC   GL112913  30.733  14.425   8.864
  766POPC   GL212914  30.789  14.532   8.864
  766POPC   C1A12915  30.717  14.367   8.564
  766POPC   D2A12916  30.739  14.358   8.264
  766POPC   C3A12917  30.730  14.431   7.964
  766POPC   C4A12918  30.703  14.355   7.664
  766POPC   C1B12919  30.776  14.610   8.564
  766POPC   C2B12920  30.781  14.669   8.264
  766POPC   C3B12921  30.740  14.652   7.964
  766POPC   C4B12922  30.816  14.677   7.664
  767POPC   NC312923  24.476  14.422   9.464
  767POPC   PO412924  24.451  14.409   9.164
  767POPC   GL112925  24.515  14.403   8.864
  767POPC   GL212926  24.376  14.512   8.864
  767POPC   C1A12927  24.460  14.450   8.564
  767POPC   D2A12928  24.508  14.404   8.264
  767POPC   C3A12929  24.458  14.439   7.964
  767POPC   C4A12930  24.459  14.371   7.664
  767POPC   C1B12931  24.314  14.560   8.564
  767POPC   C2B12932  24.328  14.638   8.264
  767POPC   C3B12933  24.319  14.611   7.964
  767POPC   C4B12934  24.281  14.550   7.664
  768POPC   NC312935  10.489  43.899   9.464
  768POPC   PO412936  10.549  43.920   9.164
  768POPC   GL112937  10.564  43.908   8.864
  768POPC   GL212938  10.458  43.973   8.864
  768POPC   C1A12939  10.497  43.839   8.564
  768POPC   D2A12940  10.546  43.859   8.264
  768POPC   C3A12941  10.534  43.849   7.964
  768POPC   C4A12942  10.561  43.900   7.664
  768POPC   C1B12943  10.446  44.124   8.564
  768POPC   C2B12944  10.477  44.114   8.264
  768POPC   C3B12945  10.417  44.161   7.964
  768POPC   C4B12946  10.394  44.158   7.664
  769POPC   NC312947   5.835  28.389   9.464
  769POPC   PO412948   5.862  28.382   9.164
  769POPC   GL112949   5.889  28.349   8.864
  769POPC   GL212950   5.814  28.475   8.864
  769POPC   C1A12951   5.820  28.359   8.564
  769POPC   D2A12952   5.869  28.406   8.264
  769POPC   C3A12953   5.827  28.332   7.964
  769POPC   C4A12954   5.826  28.405   7.664
  769POPC   C1B12955   5.659  28.510   8.564
  769POPC   C2B12956   5.697  28.530   8.264
  769POPC   C3B12957   5.696  28.571   7.964
  769POPC   C4B12958   5.669  28.495   7.664
  770POPC   NC312959  31.425  27.546   9.464
  770POPC   PO412960  31.522  27.636   9.164
  770POPC   GL112961  31.480  27.569   8.864
  770POPC   GL212962  31.395  27.588   8.864
  770POPC   C1A12963  31.479  27.636   8.564
  770POPC   D2A12964  31.426  27.626   8.264
  770POPC   C3A12965  31.436  27.599   7.964
  770POPC   C4A12966  31.437  27.617   7.664
  770POPC   C1B12967  31.191  27.611   8.564
  770POPC   C2B12968  31.240  27.639   8.264
  770POPC   C3B12969  31.209  27.592   7.964
  770POPC   C4B12970  31.250  27.606   7.664
  771POPC   NC312971  42.369  35.309   9.464
  771POPC   PO412972  42.327  35.396   9.164
  771POPC   GL112973  42.348  35.378   8.864
  771POPC   GL212974  42.430  35.424   8.864
  771POPC   C1A12975  42.303  35.377   8.564
  771POPC   D2A12976  42.376  35.369   8.264
  771POPC   C3A12977  42.301  35.327   7.964
  771POPC   C4A12978  42.288  35.374   7.664
  771POPC   C1B12979  42.534  35.369   8.564
  771POPC   C2B12980  42.597  35.417   8.264
  771POPC   C3B12981  42.540  35.392   7.964
  771POPC   C4B12982  42.606  35.431   7.664
  772POPC   NC312983  24.470  40.761   9.464
  772POPC   PO412984  24.461  40.819   9.164
  772POPC   GL112985  24.526  40.743   8.864
  772POPC   GL212986  24.518  40.863   8.864
  772POPC   C1A12987  24.458  40.825   8.564
  772POPC   D2A12988  24.484  40.777   8.264
  772POPC   C3A12989  24.498  40.772   7.964
  772POPC   C4A12990  24.474  40.787   7.664
  772POPC   C1B12991  24.434  41.054   8.564
  772POPC   C2B12992  24.450  41.079   8.264
  772POPC   C3B12993  24.409  40.995   7.964
  772POPC   C4B12994  24.502  41.018   7.664
  773POPC   NC312995   8.950  15.950   9.464
  773POPC   PO412996   8.994  15.989   9.164
  773POPC   GL112997   8.981  15.987   8.864
  773POPC   GL212998   9.115  15.969   8.864
  773POPC   C1A12999   8.987  15.964   8.564
  773POPC   D2A13000   8.934  15.941   8.264
  773POPC   C3A13001   9.005  15.955   7.964
  773POPC   C4A13002   9.018  15.965   7.664
  773POPC   C1B13003   9.243  15.963   8.564
  773POPC   C2B13004   9.215  15.920   8.264
  773POPC   C3B13005   9.235  15.919   7.964
  773POPC   C4B13006   9.251  15.898   7.664
  774POPC   NC313007  30.657  40.827   9.464
  774POPC   PO413008  30.661  40.739   9.164
  774POPC   GL113009  30.716  40.803   8.864
  774POPC   GL213010  30.788  40.683   8.864
  774POPC   C1A13011  30.741  40.782   8.564
  774POPC   D2A13012  30.744  40.791   8.264
  774POPC   C3A13013  30.730  40.742   7.964
  774POPC   C4A13014  30.655  40.790   7.664
  774POPC   C1B13015  30.865  40.698   8.564
  774POPC   C2B13016  30.941  40.682   8.264
  774POPC   C3B13017  30.956  40.692   7.964
  774POPC   C4B13018  30.902  40.673   7.664
  775POPC   NC313019  21.392  37.684   9.464
  775POPC   PO413020  21.344  37.638   9.164
  775POPC   GL113021  21.380  37.648   8.864
  775POPC   GL213022  21.488  37.635   8.864
  775POPC   C1A13023  21.363  37.711   8.564
  775POPC   D2A13024  21.426  37.677   8.264
  775POPC   C3A13025  21.379  37.641   7.964
  775POPC   C4A13026  21.381  37.686   7.664
  775POPC   C1B13027  21.611  37.547   8.564
  775POPC   C2B13028  21.597  37.539   8.264
  775POPC   C3B13029  21.584  37.466   7.964
  775POPC   C4B13030  21.526  37.545   7.664
  776POPC   NC313031  28.326   3.503   9.464
  776POPC   PO413032  28.355   3.563   9.164
  776POPC   GL113033  28.347   3.572   8.864
  776POPC   GL213034  28.425   3.697   8.864
  776POPC   C1A13035  28.403   3.577   8.564
  776POPC   D2A13036  28.394   3.559   8.264
  776POPC   C3A13037  28.378   3.499   7.964
  776POPC   C4A13038  28.380   3.553   7.664
  776POPC   C1B13039  28.439   3.757   8.564
  776POPC   C2B13040  28.504   3.766   8.264
  776POPC   C3B13041  28.441   3.763   7.964
  776POPC   C4B13042  28.449   3.740   7.664
  777POPC   NC313043  36.101   4.323   9.464
  777POPC   PO413044  36.166   4.285   9.164
  777POPC   GL113045  36.081   4.329   8.864
  777POPC   GL213046  36.184   4.198   8.864
  777POPC   C1A13047  36.120   4.299   8.564
  777POPC   D2A13048  36.175   4.302   8.264
  777POPC   C3A13049  36.122   4.277   7.964
  777POPC   C4A13050  36.151   4.289   7.664
  777POPC   C1B13051  36.205   4.112   8.564
  777POPC   C2B13052  36.168   4.116   8.264
  777POPC   C3B13053  36.131   4.065   7.964
  777POPC   C4B13054  36.168   4.092   7.664
  778POPC   NC313055  34.561  39.274   9.464
  778POPC   PO413056  34.606  39.257   9.164
  778POPC   GL113057  34.601  39.192   8.864
  778POPC   GL213058  34.708  39.306   8.864
  778POPC   C1A13059  34.552  39.235   8.564
  778POPC   D2A13060  34.593  39.257   8.264
  778POPC   C3A13061  34.597  39.277   7.964
  778POPC   C4A13062  34.569  39.248   7.664
  778POPC   C1B13063  34.785  39.416   8.564
  778POPC   C2B13064  34.735  39.457   8.264
  778POPC   C3B13065  34.780  39.413   7.964
  778POPC   C4B13066  34.720  39.405   7.664
  779POPC   NC313067  19.039  26.086   9.464
  779POPC   PO413068  19.058  26.009   9.164
  779POPC   GL113069  19.094  25.995   8.864
  779POPC   GL213070  19.122  25.929   8.864
  779POPC   C1A13071  19.067  26.079   8.564
  779POPC   D2A13072  19.071  26.018   8.264
  779POPC   C3A13073  19.028  26.075   7.964
  779POPC   C4A13074  19.027  26.019   7.664
  779POPC   C1B13075  19.241  25.910   8.564
  779POPC   C2B13076  19.254  25.938   8.264
  779POPC   C3B13077  19.229  25.913   7.964
  779POPC   C4B13078  19.243  25.930   7.664
  780POPC   NC313079  38.418   8.169   9.464
  780POPC   PO413080  38.477   8.217   9.164
  780POPC   GL113081  38.464   8.208   8.864
  780POPC   GL213082  38.488   8.300   8.864
  780POPC   C1A13083  38.432   8.223   8.564
  780POPC   D2A13084  38.432   8.238   8.264
  780POPC   C3A13085  38.421   8.165   7.964
  780POPC   C4A13086  38.428   8.198   7.664
  780POPC   C1B13087  38.521   8.437   8.564
  780POPC   C2B13088  38.454   8.409   8.264
  780POPC   C3B13089  38.516   8.458   7.964
  780POPC   C4B13090  38.477   8.416   7.664
  781POPC   NC313091  36.863   5.901   9.464
  781POPC   PO413092  36.945   5.863   9.164
  781POPC   GL113093  36.923   5.868   8.864
  781POPC   GL213094  36.927   6.019   8.864
  781POPC   C1A13095  36.892   5.839   8.564
  781POPC   D2A13096  36.938   5.875   8.264
  781POPC   C3A13097  36.887   5.915   7.964
  781POPC   C4A13098  36.918   5.868   7.664
  781POPC   C1B13099  36.941   6.110   8.564
  781POPC   C2B13100  36.872   6.119   8.264
  781POPC   C3B13101  36.863   6.166   7.964
  781POPC   C4B13102  36.935   6.093   7.664
  782POPC   NC313103  36.137   1.250   9.464
  782POPC   PO413104  36.132   1.245   9.164
  782POPC   GL113105  36.083   1.169   8.864
  782POPC   GL213106  36.105   1.117   8.864
  782POPC   C1A13107  36.141   1.193   8.564
  782POPC   D2A13108  36.129   1.178   8.264
  782POPC   C3A13109  36.135   1.227   7.964
  782POPC   C4A13110  36.086   1.215   7.664
  782POPC   C1B13111  36.076   0.994   8.564
  782POPC   C2B13112  36.100   1.017   8.264
  782POPC   C3B13113  36.066   1.014   7.964
  782POPC   C4B13114  36.069   0.991   7.664
  783POPC   NC313115  10.490  33.849   9.464
  783POPC   PO413116  10.507  33.833   9.164
  783POPC   GL113117  10.511  33.819   8.864
  783POPC   GL213118  10.414  33.763   8.864
  783POPC   C1A13119  10.545  33.769   8.564
  783POPC   D2A13120  10.481  33.822   8.264
  783POPC   C3A13121  10.574  33.769   7.964
  783POPC   C4A13122  10.479  33.839   7.664
  783POPC   C1B13123  10.304  33.644   8.564
  783POPC   C2B13124  10.348  33.679   8.264
  783POPC   C3B13125  10.270  33.675   7.964
  783POPC   C4B13126  10.312  33.637   7.664
  784POPC   NC313127  43.883  10.555   9.464
  784POPC   PO413128  43.874  10.476   9.164
  784POPC   GL113129  43.837  10.547   8.864
  784POPC   GL213130  43.826  10.431   8.864
  784POPC   C1A13131  43.868  10.536   8.564
  784POPC   D2A13132  43.867  10.506   8.264
  784POPC   C3A13133  43.934  10.515   7.964
  784POPC   C4A13134  43.919  10.489   7.664
  784POPC   C1B13135  43.774  10.257   8.564
  784POPC   C2B13136  43.790  10.266   8.264
  784POPC   C3B13137  43.825  10.320   7.964
  784POPC   C4B13138  43.855  10.299   7.664
  785POPC   NC313139  36.934   8.186   9.464
  785POPC   PO413140  36.890   8.238   9.164
  785POPC   GL113141  36.871   8.153   8.864
  785POPC   GL213142  36.818   8.129   8.864
  785POPC   C1A13143  36.926   8.178   8.564
  785POPC   D2A13144  36.876   8.195   8.264
  785POPC   C3A13145  36.927   8.189   7.964
  785POPC   C4A13146  36.875   8.239   7.664
  785POPC   C1B13147  36.747   7.995   8.564
  785POPC   C2B13148  36.826   8.001   8.264
  785POPC   C3B13149  36.777   7.964   7.964
  785POPC   C4B13150  36.761   8.003   7.664
  786POPC   NC313151  12.871  19.851   9.464
  786POPC   PO413152  12.830  19.794   9.164
  786POPC   GL113153  12.834  19.861   8.864
  786POPC   GL213154  12.952  19.762   8.864
  786POPC   C1A13155  12.837  19.821   8.564
  786POPC   D2A13156  12.810  19.869   8.264
  786POPC   C3A13157  12.856  19.858   7.964
  786POPC   C4A13158  12.827  19.817   7.664
  786POPC   C1B13159  12.989  19.680   8.564
  786POPC   C2B13160  12.978  19.655   8.264
  786POPC   C3B13161  13.026  19.598   7.964
  786POPC   C4B13162  12.983  19.640   7.664
  787POPC   NC313163   0.399  19.832   9.464
  787POPC   PO413164   0.432  19.864   9.164
  787POPC   GL113165   0.445  19.850   8.864
  787POPC   GL213166   0.306  19.882   8.864
  787POPC   C1A13167   0.484  19.813   8.564
  787POPC   D2A13168   0.444  19.819   8.264
  787POPC   C3A13169   0.476  19.855   7.964
  787POPC   C4A13170   0.477  19.852   7.664
  787POPC   C1B13171   0.220  19.956   8.564
  787POPC   C2B13172   0.214  19.931   8.264
  787POPC   C3B13173   0.271  19.987   7.964
  787POPC   C4B13174   0.261  19.951   7.664
  788POPC   NC313175  40.743  26.850   9.464
  788POPC   PO413176  40.815  26.817   9.164
  788POPC   GL113177  40.825  26.863   8.864
  788POPC   GL213178  40.942  26.824   8.864
  788POPC   C1A13179  40.741  26.834   8.564
  788POPC   D2A13180  40.821  26.822   8.264
  788POPC   C3A13181  40.749  26.776   7.964
  788POPC   C4A13182  40.755  26.818   7.664
  788POPC   C1B13183  40.997  26.817   8.564
  788POPC   C2B13184  41.012  26.830   8.264
  788POPC   C3B13185  41.076  26.802   7.964
  788POPC   C4B13186  41.027  26.843   7.664
  789POPC   NC313187   2.777  11.336   9.464
  789POPC   PO413188   2.794  11.326   9.164
  789POPC   GL113189   2.754  11.306   8.864
  789POPC   GL213190   2.706  11.194   8.864
  789POPC   C1A13191   2.769  11.254   8.564
  789POPC   D2A13192   2.775  11.280   8.264
  789POPC   C3A13193   2.802  11.282   7.964
  789POPC   C4A13194   2.761  11.311   7.664
  789POPC   C1B13195   2.683  11.007   8.564
  789POPC   C2B13196   2.746  11.004   8.264
  789POPC   C3B13197   2.780  11.063   7.964
  789POPC   C4B13198   2.750  11.021   7.664
  790POPC   NC313199  11.275  38.409   9.464
  790POPC   PO413200  11.296  38.415   9.164
  790POPC   GL113201  11.298  38.407   8.864
  790POPC   GL213202  11.367  38.400   8.864
  790POPC   C1A13203  11.257  38.440   8.564
  790POPC   D2A13204  11.268  38.488   8.264
  790POPC   C3A13205  11.264  38.471   7.964
  790POPC   C4A13206  11.301  38.462   7.664
  790POPC   C1B13207  11.493  38.334   8.564
  790POPC   C2B13208  11.528  38.346   8.264
  790POPC   C3B13209  11.527  38.356   7.964
  790POPC   C4B13210  11.547  38.339   7.664
  791POPC   NC313211  29.195  18.285   9.464
  791POPC   PO413212  29.147  18.256   9.164
  791POPC   GL113213  29.159  18.255   8.864
  791POPC   GL213214  29.030  18.210   8.864
  791POPC   C1A13215  29.136  18.267   8.564
  791POPC   D2A13216  29.166  18.258   8.264
  791POPC   C3A13217  29.115  18.284   7.964
  791POPC   C4A13218  29.157  18.291   7.664
  791POPC   C1B13219  28.965  18.117   8.564
  791POPC   C2B13220  29.000  18.075   8.264
  791POPC   C3B13221  29.016  18.152   7.964
  791POPC   C4B13222  28.953  18.122   7.664
  792POPC   NC313223  34.548  40.023   9.464
  792POPC   PO413224  34.552  39.989   9.164
  792POPC   GL113225  34.582  39.989   8.864
  792POPC   GL213226  34.674  40.017   8.864
  792POPC   C1A13227  34.577  40.016   8.564
  792POPC   D2A13228  34.602  40.016   8.264
  792POPC   C3A13229  34.551  40.008   7.964
  792POPC   C4A13230  34.573  39.968   7.664
  792POPC   C1B13231  34.796  39.964   8.564
  792POPC   C2B13232  34.830  39.953   8.264
  792POPC   C3B13233  34.811  39.895   7.964
  792POPC   C4B13234  34.857  39.983   7.664
  793POPC   NC313235  37.717   0.437   9.464
  793POPC   PO413236  37.718   0.395   9.164
  793POPC   GL113237  37.691   0.448   8.864
  793POPC   GL213238  37.591   0.339   8.864
  793POPC   C1A13239  37.674   0.394   8.564
  793POPC   D2A13240  37.713   0.427   8.264
  793POPC   C3A13241  37.711   0.487   7.964
  793POPC   C4A13242  37.653   0.392   7.664
  793POPC   C1B13243  37.507   0.204   8.564
  793POPC   C2B13244  37.575   0.184   8.264
  793POPC   C3B13245  37.552   0.257   7.964
  793POPC   C4B13246  37.579   0.193   7.664
  794POPC   NC313247  12.084  43.854   9.464
  794POPC   PO413248  12.122  43.863   9.164
  794POPC   GL113249  12.073  43.882   8.864
  794POPC   GL213250  12.167  43.832   8.864
  794POPC   C1A13251  12.063  43.877   8.564
  794POPC   D2A13252  12.111  43.932   8.264
  794POPC   C3A13253  12.091  43.911   7.964
  794POPC   C4A13254  12.100  43.918   7.664
  794POPC   C1B13255  12.346  43.783   8.564
  794POPC   C2B13256  12.276  43.780   8.264
  794POPC   C3B13257  12.356  43.816   7.964
  794POPC   C4B13258  12.305  43.822   7.664
  795POPC   NC313259  29.149  36.907   9.464
  795POPC   PO413260  29.162  36.874   9.164
  795POPC   GL113261  29.131  36.900   8.864
  795POPC   GL213262  29.243  36.867   8.864
  795POPC   C1A13263  29.194  36.866   8.564
  795POPC   D2A13264  29.131  36.877   8.264
  795POPC   C3A13265  29.179  36.904   7.964
  795POPC   C4A13266  29.120  36.947   7.664
  795POPC   C1B13267  29.415  36.870   8.564
  795POPC   C2B13268  29.441  36.940   8.264
  795POPC   C3B13269  29.357  36.965   7.964
  795POPC   C4B13270  29.376  36.882   7.664
  796POPC   NC313271   9.767  34.564   9.464
  796POPC   PO413272   9.704  34.592   9.164
  796POPC   GL113273   9.764  34.563   8.864
  796POPC   GL213274   9.730  34.746   8.864
  796POPC   C1A13275   9.768  34.563   8.564
  796POPC   D2A13276   9.758  34.564   8.264
  796POPC   C3A13277   9.776  34.558   7.964
  796POPC   C4A13278   9.728  34.621   7.664
  796POPC   C1B13279   9.727  34.858   8.564
  796POPC   C2B13280   9.688  34.827   8.264
  796POPC   C3B13281   9.677  34.820   7.964
  796POPC   C4B13282   9.692  34.868   7.664
  797POPC   NC313283  41.522  36.869   9.464
  797POPC   PO413284  41.592  36.927   9.164
  797POPC   GL113285  41.570  36.887   8.864
  797POPC   GL213286  41.393  36.910   8.864
  797POPC   C1A13287  41.605  36.901   8.564
  797POPC   D2A13288  41.577  36.953   8.264
  797POPC   C3A13289  41.581  36.904   7.964
  797POPC   C4A13290  41.578  36.948   7.664
  797POPC   C1B13291  41.350  36.970   8.564
  797POPC   C2B13292  41.272  36.949   8.264
  797POPC   C3B13293  41.295  36.891   7.964
  797POPC   C4B13294  41.338  36.949   7.664
  798POPC   NC313295  32.297  14.438   9.464
  798POPC   PO413296  32.237  14.373   9.164
  798POPC   GL113297  32.292  14.370   8.864
  798POPC   GL213298  32.173  14.248   8.864
  798POPC   C1A13299  32.269  14.400   8.564
  798POPC   D2A13300  32.291  14.424   8.264
  798POPC   C3A13301  32.202  14.366   7.964
  798POPC   C4A13302  32.219  14.431   7.664
  798POPC   C1B13303  32.115  14.149   8.564
  798POPC   C2B13304  32.190  14.194   8.264
  798POPC   C3B13305  32.134  14.199   7.964
  798POPC   C4B13306  32.114  14.196   7.664
  799POPC   NC313307   5.132   5.092   9.464
  799POPC   PO413308   5.106   5.077   9.164
  799POPC   GL113309   5.082   5.114   8.864
  799POPC   GL213310   5.047   5.223   8.864
  799POPC   C1A13311   5.055   5.136   8.564
  799POPC   D2A13312   5.093   5.106   8.264
  799POPC   C3A13313   5.061   5.045   7.964
  799POPC   C4A13314   5.073   5.058   7.664
  799POPC   C1B13315   4.979   5.277   8.564
  799POPC   C2B13316   4.923   5.256   8.264
  799POPC   C3B13317   4.948   5.267   7.964
  799POPC   C4B13318   4.914   5.269   7.664
  800POPC   NC313319  33.839   7.390   9.464
  800POPC   PO413320  33.794   7.456   9.164
  800POPC   GL113321  33.795   7.385   8.864
  800POPC   GL213322  33.847   7.576   8.864
  800POPC   C1A13323  33.793   7.427   8.564
  800POPC   D2A13324  33.764   7.377   8.264
  800POPC   C3A13325  33.778   7.390   7.964
  800POPC   C4A13326  33.829   7.372   7.664
  800POPC   C1B13327  33.849   7.628   8.564
  800POPC   C2B13328  33.878   7.659   8.264
  800POPC   C3B13329  33.852   7.673   7.964
  800POPC   C4B13330  33.842   7.663   7.664
  801POPC   NC313331  12.068   3.548   9.464
  801POPC   PO413332  12.082   3.500   9.164
  801POPC   GL113333  12.050   3.571   8.864
  801POPC   GL213334  12.166   3.675   8.864
  801POPC   C1A13335  12.036   3.524   8.564
  801POPC   D2A13336  12.054   3.561   8.264
  801POPC   C3A13337  12.079   3.572   7.964
  801POPC   C4A13338  12.067   3.541   7.664
  801POPC   C1B13339  12.235   3.741   8.564
  801POPC   C2B13340  12.158   3.764   8.264
  801POPC   C3B13341  12.196   3.742   7.964
  801POPC   C4B13342  12.234   3.777   7.664
  802POPC   NC313343   1.187   8.978   9.464
  802POPC   PO413344   1.259   8.991   9.164
  802POPC   GL113345   1.250   8.924   8.864
  802POPC   GL213346   1.113   8.863   8.864
  802POPC   C1A13347   1.238   8.968   8.564
  802POPC   D2A13348   1.204   8.980   8.264
  802POPC   C3A13349   1.165   8.960   7.964
  802POPC   C4A13350   1.226   9.018   7.664
  802POPC   C1B13351   1.095   8.818   8.564
  802POPC   C2B13352   1.043   8.776   8.264
  802POPC   C3B13353   1.018   8.739   7.964
  802POPC   C4B13354   1.048   8.823   7.664
  803POPC   NC313355  15.925  25.253   9.464
  803POPC   PO413356  15.914  25.283   9.164
  803POPC   GL113357  15.978  25.251   8.864
  803POPC   GL213358  15.796  25.294   8.864
  803POPC   C1A13359  15.978  25.246   8.564
  803POPC   D2A13360  16.004  25.302   8.264
  803POPC   C3A13361  15.956  25.217   7.964
  803POPC   C4A13362  15.964  25.313   7.664
  803POPC   C1B13363  15.761  25.315   8.564
  803POPC   C2B13364  15.744  25.330   8.264
  803POPC   C3B13365  15.770  25.332   7.964
  803POPC   C4B13366  15.718  25.307   7.664
  804POPC   NC313367  44.679  43.115   9.464
  804POPC   PO413368  44.648  43.128   9.164
  804POPC   GL113369  44.699  43.160   8.864
  804POPC   GL213370  44.606  43.204   8.864
  804POPC   C1A13371  44.685  43.106   8.564
  804POPC   D2A13372  44.706  43.099   8.264
  804POPC   C3A13373  44.641  43.151   7.964
  804POPC   C4A13374  44.632  43.069   7.664
  804POPC   C1B13375  44.509  43.298   8.564
  804POPC   C2B13376  44.469  43.250   8.264
  804POPC   C3B13377  44.491  43.320   7.964
  804POPC   C4B13378  44.445  43.309   7.664
  805POPC   NC313379  39.979   4.318   9.464
  805POPC   PO413380  39.995   4.362   9.164
  805POPC   GL113381  40.041   4.273   8.864
  805POPC   GL213382  39.911   4.443   8.864
  805POPC   C1A13383  40.011   4.274   8.564
  805POPC   D2A13384  40.014   4.352   8.264
  805POPC   C3A13385  39.998   4.292   7.964
  805POPC   C4A13386  40.014   4.346   7.664
  805POPC   C1B13387  39.843   4.478   8.564
  805POPC   C2B13388  39.899   4.492   8.264
  805POPC   C3B13389  39.811   4.471   7.964
  805POPC   C4B13390  39.870   4.527   7.664
  806POPC   NC313391  17.495  13.587   9.464
  806POPC   PO413392  17.556  13.582   9.164
  806POPC   GL113393  17.486  13.615   8.864
  806POPC   GL213394  17.587  13.675   8.864
  806POPC   C1A13395  17.458  13.588   8.564
  806POPC   D2A13396  17.476  13.667   8.264
  806POPC   C3A13397  17.500  13.670   7.964
  806POPC   C4A13398  17.468  13.636   7.664
  806POPC   C1B13399  17.724  13.846   8.564
  806POPC   C2B13400  17.704  13.760   8.264
  806POPC   C3B13401  17.721  13.839   7.964
  806POPC   C4B13402  17.668  13.824   7.664
  807POPC   NC313403  27.602  21.403   9.464
  807POPC   PO413404  27.625  21.410   9.164
  807POPC   GL113405  27.599  21.435   8.864
  807POPC   GL213406  27.616  21.541   8.864
  807POPC   C1A13407  27.559  21.418   8.564
  807POPC   D2A13408  27.639  21.414   8.264
  807POPC   C3A13409  27.633  21.434   7.964
  807POPC   C4A13410  27.584  21.425   7.664
  807POPC   C1B13411  27.649  21.618   8.564
  807POPC   C2B13412  27.687  21.671   8.264
  807POPC   C3B13413  27.681  21.604   7.964
  807POPC   C4B13414  27.623  21.638   7.664
  808POPC   NC313415  15.907   2.002   9.464
  808POPC   PO413416  15.963   1.951   9.164
  808POPC   GL113417  15.954   1.956   8.864
  808POPC   GL213418  16.039   1.956   8.864
  808POPC   C1A13419  15.917   2.032   8.564
  808POPC   D2A13420  15.910   2.011   8.264
  808POPC   C3A13421  15.960   1.943   7.964
  808POPC   C4A13422  15.994   1.996   7.664
  808POPC   C1B13423  16.155   1.888   8.564
  808POPC   C2B13424  16.219   1.890   8.264
  808POPC   C3B13425  16.178   1.878   7.964
  808POPC   C4B13426  16.157   1.964   7.664
  809POPC   NC313427  15.923   8.979   9.464
  809POPC   PO413428  15.994   8.957   9.164
  809POPC   GL113429  15.995   8.959   8.864
  809POPC   GL213430  15.806   8.986   8.864
  809POPC   C1A13431  15.994   8.981   8.564
  809POPC   D2A13432  15.945   9.015   8.264
  809POPC   C3A13433  15.945   8.926   7.964
  809POPC   C4A13434  15.960   8.956   7.664
  809POPC   C1B13435  15.713   9.044   8.564
  809POPC   C2B13436  15.721   9.007   8.264
  809POPC   C3B13437  15.667   9.040   7.964
  809POPC   C4B13438  15.679   8.984   7.664
  810POPC   NC313439   0.398   8.199   9.464
  810POPC   PO413440   0.397   8.163   9.164
  810POPC   GL113441   0.388   8.175   8.864
  810POPC   GL213442   0.348   8.115   8.864
  810POPC   C1A13443   0.452   8.173   8.564
  810POPC   D2A13444   0.473   8.181   8.264
  810POPC   C3A13445   0.415   8.180   7.964
  810POPC   C4A13446   0.481   8.185   7.664
  810POPC   C1B13447   0.226   8.004   8.564
  810POPC   C2B13448   0.244   8.090   8.264
  810POPC   C3B13449   0.214   8.087   7.964
  810POPC   C4B13450   0.194   8.063   7.664
  811POPC   NC313451  20.613  22.911   9.464
  811POPC   PO413452  20.576  22.953   9.164
  811POPC   GL113453  20.659  22.945   8.864
  811POPC   GL213454  20.546  22.987   8.864
  811POPC   C1A13455  20.627  22.956   8.564
  811POPC   D2A13456  20.645  22.890   8.264
  811POPC   C3A13457  20.570  22.961   7.964
  811POPC   C4A13458  20.595  22.923   7.664
  811POPC   C1B13459  20.422  23.103   8.564
  811POPC   C2B13460  20.408  23.084   8.264
  811POPC   C3B13461  20.426  23.050   7.964
  811POPC   C4B13462  20.449  23.098   7.664
  812POPC   NC313463  23.757  35.348   9.464
  812POPC   PO413464  23.750  35.400   9.164
  812POPC   GL113465  23.761  35.330   8.864
  812POPC   GL213466  23.663  35.206   8.864
  812POPC   C1A13467  23.746  35.368   8.564
  812POPC   D2A13468  23.701  35.340   8.264
  812POPC   C3A13469  23.703  35.378   7.964
  812POPC   C4A13470  23.760  35.308   7.664
  812POPC   C1B13471  23.593  35.161   8.564
  812POPC   C2B13472  23.608  35.163   8.264
  812POPC   C3B13473  23.588  35.158   7.964
  812POPC   C4B13474  23.579  35.183   7.664
  813POPC   NC313475  22.127   4.311   9.464
  813POPC   PO413476  22.185   4.279   9.164
  813POPC   GL113477  22.169   4.357   8.864
  813POPC   GL213478  22.043   4.372   8.864
  813POPC   C1A13479  22.133   4.315   8.564
  813POPC   D2A13480  22.136   4.315   8.264
  813POPC   C3A13481  22.128   4.310   7.964
  813POPC   C4A13482  22.153   4.356   7.664
  813POPC   C1B13483  21.936   4.409   8.564
  813POPC   C2B13484  21.946   4.452   8.264
  813POPC   C3B13485  21.990   4.470   7.964
  813POPC   C4B13486  21.988   4.466   7.664
  814POPC   NC313487  38.448   0.470   9.464
  814POPC   PO413488  38.417   0.403   9.164
  814POPC   GL113489  38.448   0.410   8.864
  814POPC   GL213490  38.396   0.526   8.864
  814POPC   C1A13491  38.505   0.446   8.564
  814POPC   D2A13492  38.421   0.444   8.264
  814POPC   C3A13493  38.465   0.485   7.964
  814POPC   C4A13494  38.480   0.400   7.664
  814POPC   C1B13495  38.444   0.700   8.564
  814POPC   C2B13496  38.435   0.690   8.264
  814POPC   C3B13497  38.445   0.689   7.964
  814POPC   C4B13498  38.391   0.732   7.664
  815POPC   NC313499  41.567  22.120   9.464
  815POPC   PO413500  41.543  22.141   9.164
  815POPC   GL113501  41.591  22.200   8.864
  815POPC   GL213502  41.647  22.310   8.864
  815POPC   C1A13503  41.533  22.177   8.564
  815POPC   D2A13504  41.510  22.184   8.264
  815POPC   C3A13505  41.518  22.125   7.964
  815POPC   C4A13506  41.599  22.114   7.664
  815POPC   C1B13507  41.722  22.411   8.564
  815POPC   C2B13508  41.707  22.383   8.264
  815POPC   C3B13509  41.679  22.383   7.964
  815POPC   C4B13510  41.661  22.339   7.664
  816POPC   NC313511  10.491   4.277   9.464
  816POPC   PO413512  10.513   4.286   9.164
  816POPC   GL113513  10.537   4.280   8.864
  816POPC   GL213514  10.574   4.216   8.864
  816POPC   C1A13515  10.502   4.331   8.564
  816POPC   D2A13516  10.537   4.335   8.264
  816POPC   C3A13517  10.545   4.341   7.964
  816POPC   C4A13518  10.516   4.294   7.664
  816POPC   C1B13519  10.693   4.107   8.564
  816POPC   C2B13520  10.661   4.074   8.264
  816POPC   C3B13521  10.661   4.147   7.964
  816POPC   C4B13522  10.702   4.079   7.664
  817POPC   NC313523   1.979  43.843   9.464
  817POPC   PO413524   1.961  43.875   9.164
  817POPC   GL113525   1.941  43.934   8.864
  817POPC   GL213526   1.841  43.795   8.864
  817POPC   C1A13527   2.011  43.920   8.564
  817POPC   D2A13528   1.949  43.929   8.264
  817POPC   C3A13529   1.964  43.850   7.964
  817POPC   C4A13530   1.974  43.867   7.664
  817POPC   C1B13531   1.816  43.746   8.564
  817POPC   C2B13532   1.764  43.729   8.264
  817POPC   C3B13533   1.806  43.762   7.964
  817POPC   C4B13534   1.780  43.791   7.664
  818POPC   NC313535  29.881  19.097   9.464
  818POPC   PO413536  29.874  19.090   9.164
  818POPC   GL113537  29.910  19.048   8.864
  818POPC   GL213538  29.877  18.977   8.864
  818POPC   C1A13539  29.925  19.019   8.564
  818POPC   D2A13540  29.944  19.042   8.264
  818POPC   C3A13541  29.896  19.101   7.964
  818POPC   C4A13542  29.959  19.056   7.664
  818POPC   C1B13543  29.924  18.791   8.564
  818POPC   C2B13544  29.926  18.846   8.264
  818POPC   C3B13545  29.887  18.764   7.964
  818POPC   C4B13546  29.979  18.846   7.664
  819POPC   NC313547  40.789  15.936   9.464
  819POPC   PO413548  40.768  15.932   9.164
  819POPC   GL113549  40.824  15.997   8.864
  819POPC   GL213550  40.755  15.823   8.864
  819POPC   C1A13551  40.742  16.005   8.564
  819POPC   D2A13552  40.825  15.915   8.264
  819POPC   C3A13553  40.829  15.926   7.964
  819POPC   C4A13554  40.833  15.988   7.664
  819POPC   C1B13555  40.648  15.697   8.564
  819POPC   C2B13556  40.643  15.716   8.264
  819POPC   C3B13557  40.711  15.737   7.964
  819POPC   C4B13558  40.684  15.751   7.664
  820POPC   NC313559  12.881  11.291   9.464
  820POPC   PO413560  12.885  11.318   9.164
  820POPC   GL113561  12.874  11.303   8.864
  820POPC   GL213562  12.758  11.224   8.864
  820POPC   C1A13563  12.883  11.326   8.564
  820POPC   D2A13564  12.834  11.313   8.264
  820POPC   C3A13565  12.861  11.347   7.964
  820POPC   C4A13566  12.849  11.349   7.664
  820POPC   C1B13567  12.783  11.100   8.564
  820POPC   C2B13568  12.803  11.022   8.264
  820POPC   C3B13569  12.735  11.073   7.964
  820POPC   C4B13570  12.805  11.025   7.664
  821POPC   NC313571  21.365   0.466   9.464
  821POPC   PO413572  21.422   0.488   9.164
  821POPC   GL113573  21.346   0.439   8.864
  821POPC   GL213574  21.229   0.372   8.864
  821POPC   C1A13575  21.357   0.411   8.564
  821POPC   D2A13576  21.393   0.414   8.264
  821POPC   C3A13577  21.392   0.395   7.964
  821POPC   C4A13578  21.403   0.420   7.664
  821POPC   C1B13579  21.187   0.424   8.564
  821POPC   C2B13580  21.106   0.348   8.264
  821POPC   C3B13581  21.124   0.379   7.964
  821POPC   C4B13582  21.153   0.333   7.664
  822POPC   NC313583   8.186  33.064   9.464
  822POPC   PO413584   8.177  32.974   9.164
  822POPC   GL113585   8.218  33.018   8.864
  822POPC   GL213586   8.282  32.928   8.864
  822POPC   C1A13587   8.219  33.074   8.564
  822POPC   D2A13588   8.224  32.982   8.264
  822POPC   C3A13589   8.171  33.032   7.964
  822POPC   C4A13590   8.181  33.036   7.664
  822POPC   C1B13591   8.435  32.901   8.564
  822POPC   C2B13592   8.425  32.833   8.264
  822POPC   C3B13593   8.373  32.863   7.964
  822POPC   C4B13594   8.405  32.910   7.664
  823POPC   NC313595  12.836  12.828   9.464
  823POPC   PO413596  12.855  12.821   9.164
  823POPC   GL113597  12.872  12.890   8.864
  823POPC   GL213598  12.725  12.973   8.864
  823POPC   C1A13599  12.889  12.895   8.564
  823POPC   D2A13600  12.840  12.872   8.264
  823POPC   C3A13601  12.901  12.842   7.964
  823POPC   C4A13602  12.803  12.824   7.664
  823POPC   C1B13603  12.689  12.986   8.564
  823POPC   C2B13604  12.713  13.027   8.264
  823POPC   C3B13605  12.700  12.983   7.964
  823POPC   C4B13606  12.697  13.055   7.664
  824POPC   NC313607   8.953  23.704   9.464
  824POPC   PO413608   8.956  23.683   9.164
  824POPC   GL113609   9.000  23.715   8.864
  824POPC   GL213610   9.047  23.690   8.864
  824POPC   C1A13611   9.008  23.745   8.564
  824POPC   D2A13612   8.967  23.729   8.264
  824POPC   C3A13613   8.980  23.668   7.964
  824POPC   C4A13614   9.008  23.752   7.664
  824POPC   C1B13615   9.180  23.679   8.564
  824POPC   C2B13616   9.222  23.684   8.264
  824POPC   C3B13617   9.220  23.672   7.964
  824POPC   C4B13618   9.184  23.620   7.664
  825POPC   NC313619  19.789  15.951   9.464
  825POPC   PO413620  19.881  15.991   9.164
  825POPC   GL113621  19.801  15.978   8.864
  825POPC   GL213622  19.973  16.024   8.864
  825POPC   C1A13623  19.870  15.998   8.564
  825POPC   D2A13624  19.791  15.938   8.264
  825POPC   C3A13625  19.818  15.960   7.964
  825POPC   C4A13626  19.816  15.953   7.664
  825POPC   C1B13627  20.034  16.026   8.564
  825POPC   C2B13628  20.090  16.002   8.264
  825POPC   C3B13629  20.076  15.997   7.964
  825POPC   C4B13630  20.062  15.988   7.664
  826POPC   NC313631  33.032  43.115   9.464
  826POPC   PO413632  33.050  43.077   9.164
  826POPC   GL113633  33.011  43.114   8.864
  826POPC   GL213634  33.028  43.210   8.864
  826POPC   C1A13635  33.003  43.145   8.564
  826POPC   D2A13636  33.056  43.117   8.264
  826POPC   C3A13637  33.028  43.131   7.964
  826POPC   C4A13638  33.072  43.120   7.664
  826POPC   C1B13639  33.058  43.369   8.564
  826POPC   C2B13640  33.132  43.302   8.264
  826POPC   C3B13641  33.137  43.300   7.964
  826POPC   C4B13642  33.096  43.309   7.664
  827POPC   NC313643  37.687  12.054   9.464
  827POPC   PO413644  37.666  12.078   9.164
  827POPC   GL113645  37.649  12.107   8.864
  827POPC   GL213646  37.732  11.956   8.864
  827POPC   C1A13647  37.636  12.090   8.564
  827POPC   D2A13648  37.694  12.048   8.264
  827POPC   C3A13649  37.682  12.091   7.964
  827POPC   C4A13650  37.651  12.041   7.664
  827POPC   C1B13651  37.714  11.782   8.564
  827POPC   C2B13652  37.699  11.800   8.264
  827POPC   C3B13653  37.682  11.826   7.964
  827POPC   C4B13654  37.703  11.797   7.664
  828POPC   NC313655   2.791  24.496   9.464
  828POPC   PO413656   2.766  24.483   9.164
  828POPC   GL113657   2.723  24.474   8.864
  828POPC   GL213658   2.736  24.354   8.864
  828POPC   C1A13659   2.813  24.493   8.564
  828POPC   D2A13660   2.766  24.457   8.264
  828POPC   C3A13661   2.810  24.526   7.964
  828POPC   C4A13662   2.739  24.487   7.664
  828POPC   C1B13663   2.723  24.273   8.564
  828POPC   C2B13664   2.677  24.252   8.264
  828POPC   C3B13665   2.664  24.238   7.964
  828POPC   C4B13666   2.663  24.247   7.664
  829POPC   NC313667  29.877  29.182   9.464
  829POPC   PO413668  29.876  29.161   9.164
  829POPC   GL113669  29.949  29.145   8.864
  829POPC   GL213670  29.764  29.154   8.864
  829POPC   C1A13671  29.967  29.131   8.564
  829POPC   D2A13672  29.957  29.176   8.264
  829POPC   C3A13673  29.941  29.128   7.964
  829POPC   C4A13674  29.941  29.134   7.664
  829POPC   C1B13675  29.635  29.108   8.564
  829POPC   C2B13676  29.682  29.074   8.264
  829POPC   C3B13677  29.710  29.127   7.964
  829POPC   C4B13678  29.676  29.167   7.664
  830POPC   NC313679   8.975  19.060   9.464
  830POPC   PO413680   8.924  19.010   9.164
  830POPC   GL113681   8.998  19.020   8.864
  830POPC   GL213682   8.935  18.981   8.864
  830POPC   C1A13683   9.009  19.072   8.564
  830POPC   D2A13684   8.979  19.027   8.264
  830POPC   C3A13685   8.969  19.083   7.964
  830POPC   C4A13686   8.997  19.072   7.664
  830POPC   C1B13687   8.818  18.922   8.564
  830POPC   C2B13688   8.752  18.875   8.264
  830POPC   C3B13689   8.825  18.836   7.964
  830POPC   C4B13690   8.789  18.848   7.664
  831POPC   NC313691  22.152   8.947   9.464
  831POPC   PO413692  22.114   8.992   9.164
  831POPC   GL113693  22.174   8.963   8.864
  831POPC   GL213694  22.182   8.871   8.864
  831POPC   C1A13695  22.152   9.015   8.564
  831POPC   D2A13696  22.146   9.010   8.264
  831POPC   C3A13697  22.185   8.965   7.964
  831POPC   C4A13698  22.178   9.019   7.664
  831POPC   C1B13699  22.157   8.732   8.564
  831POPC   C2B13700  22.150   8.730   8.264
  831POPC   C3B13701  22.169   8.718   7.964
  831POPC   C4B13702  22.179   8.747   7.664
  832POPC   NC313703  21.394  43.078   9.464
  832POPC   PO413704  21.414  43.141   9.164
  832POPC   GL113705  21.399  43.143   8.864
  832POPC   GL213706  21.384  42.978   8.864
  832POPC   C1A13707  21.396  43.126   8.564
  832POPC   D2A13708  21.348  43.085   8.264
  832POPC   C3A13709  21.380  43.128   7.964
  832POPC   C4A13710  21.404  43.114   7.664
  832POPC   C1B13711  21.361  42.851   8.564
  832POPC   C2B13712  21.365  42.849   8.264
  832POPC   C3B13713  21.347  42.909   7.964
  832POPC   C4B13714  21.287  42.834   7.664
  833POPC   NC313715  10.510  36.907   9.464
  833POPC   PO413716  10.563  36.905   9.164
  833POPC   GL113717  10.556  36.948   8.864
  833POPC   GL213718  10.433  36.787   8.864
  833POPC   C1A13719  10.544  36.882   8.564
  833POPC   D2A13720  10.507  36.930   8.264
  833POPC   C3A13721  10.481  36.857   7.964
  833POPC   C4A13722  10.550  36.931   7.664
  833POPC   C1B13723  10.405  36.698   8.564
  833POPC   C2B13724  10.470  36.666   8.264
  833POPC   C3B13725  10.408  36.690   7.964
  833POPC   C4B13726  10.444  36.710   7.664
  834POPC   NC313727   1.953  20.587   9.464
  834POPC   PO413728   1.996  20.595   9.164
  834POPC   GL113729   1.981  20.629   8.864
  834POPC   GL213730   1.873  20.624   8.864
  834POPC   C1A13731   1.961  20.615   8.564
  834POPC   D2A13732   1.960  20.632   8.264
  834POPC   C3A13733   1.992  20.612   7.964
  834POPC   C4A13734   2.027  20.572   7.664
  834POPC   C1B13735   1.697  20.628   8.564
  834POPC   C2B13736   1.770  20.650   8.264
  834POPC   C3B13737   1.718  20.658   7.964
  834POPC   C4B13738   1.751  20.649   7.664
  835POPC   NC313739  39.262  15.177   9.464
  835POPC   PO413740  39.201  15.181   9.164
  835POPC   GL113741  39.237  15.130   8.864
  835POPC   GL213742  39.143  15.213   8.864
  835POPC   C1A13743  39.221  15.220   8.564
  835POPC   D2A13744  39.205  15.185   8.264
  835POPC   C3A13745  39.191  15.152   7.964
  835POPC   C4A13746  39.207  15.147   7.664
  835POPC   C1B13747  39.044  15.253   8.564
  835POPC   C2B13748  38.990  15.331   8.264
  835POPC   C3B13749  38.963  15.289   7.964
  835POPC   C4B13750  38.961  15.246   7.664
  836POPC   NC313751  26.066  16.003   9.464
  836POPC   PO413752  26.028  16.004   9.164
  836POPC   GL113753  26.025  15.991   8.864
  836POPC   GL213754  25.912  15.940   8.864
  836POPC   C1A13755  26.020  15.928   8.564
  836POPC   D2A13756  26.054  15.925   8.264
  836POPC   C3A13757  26.027  15.993   7.964
  836POPC   C4A13758  25.995  15.926   7.664
  836POPC   C1B13759  25.762  15.826   8.564
  836POPC   C2B13760  25.795  15.871   8.264
  836POPC   C3B13761  25.858  15.896   7.964
  836POPC   C4B13762  25.820  15.832   7.664
  837POPC   NC313763   2.016   7.416   9.464
  837POPC   PO413764   2.028   7.406   9.164
  837POPC   GL113765   1.950   7.410   8.864
  837POPC   GL213766   2.090   7.284   8.864
  837POPC   C1A13767   1.987   7.395   8.564
  837POPC   D2A13768   2.034   7.398   8.264
  837POPC   C3A13769   1.973   7.456   7.964
  837POPC   C4A13770   1.993   7.443   7.664
  837POPC   C1B13771   2.134   7.217   8.564
  837POPC   C2B13772   2.163   7.235   8.264
  837POPC   C3B13773   2.210   7.292   7.964
  837POPC   C4B13774   2.204   7.217   7.664
  838POPC   NC313775   5.897  20.647   9.464
  838POPC   PO413776   5.881  20.612   9.164
  838POPC   GL113777   5.824  20.636   8.864
  838POPC   GL213778   5.993  20.587   8.864
  838POPC   C1A13779   5.821  20.575   8.564
  838POPC   D2A13780   5.860  20.585   8.264
  838POPC   C3A13781   5.832  20.567   7.964
  838POPC   C4A13782   5.908  20.648   7.664
  838POPC   C1B13783   6.128  20.617   8.564
  838POPC   C2B13784   6.100  20.630   8.264
  838POPC   C3B13785   6.145  20.623   7.964
  838POPC   C4B13786   6.149  20.576   7.664
  839POPC   NC313787   3.562  24.534   9.464
  839POPC   PO413788   3.543  24.447   9.164
  839POPC   GL113789   3.526  24.455   8.864
  839POPC   GL213790   3.452  24.423   8.864
  839POPC   C1A13791   3.528  24.487   8.564
  839POPC   D2A13792   3.590  24.451   8.264
  839POPC   C3A13793   3.506  24.502   7.964
  839POPC   C4A13794   3.556  24.454   7.664
  839POPC   C1B13795   3.329  24.345   8.564
  839POPC   C2B13796   3.314  24.315   8.264
  839POPC   C3B13797   3.314  24.328   7.964
  839POPC   C4B13798   3.378  24.379   7.664
  840POPC   NC313799  40.045  41.588   9.464
  840POPC   PO413800  40.042  41.538   9.164
  840POPC   GL113801  39.979  41.604   8.864
  840POPC   GL213802  40.079  41.533   8.864
  840POPC   C1A13803  39.964  41.581   8.564
  840POPC   D2A13804  39.994  41.607   8.264
  840POPC   C3A13805  39.959  41.539   7.964
  840POPC   C4A13806  40.028  41.597   7.664
  840POPC   C1B13807  40.236  41.454   8.564
  840POPC   C2B13808  40.235  41.446   8.264
  840POPC   C3B13809  40.281  41.432   7.964
  840POPC   C4B13810  40.222  41.408   7.664
  841POPC   NC313811   3.551  20.590   9.464
  841POPC   PO413812   3.503  20.606   9.164
  841POPC   GL113813   3.510  20.613   8.864
  841POPC   GL213814   3.644  20.553   8.864
  841POPC   C1A13815   3.580  20.566   8.564
  841POPC   D2A13816   3.553  20.583   8.264
  841POPC   C3A13817   3.534  20.614   7.964
  841POPC   C4A13818   3.537  20.580   7.664
  841POPC   C1B13819   3.799  20.548   8.564
  841POPC   C2B13820   3.791  20.476   8.264
  841POPC   C3B13821   3.745  20.462   7.964
  841POPC   C4B13822   3.781  20.460   7.664
  842POPC   NC313823  34.582  15.916   9.464
  842POPC   PO413824  34.550  16.003   9.164
  842POPC   GL113825  34.539  15.999   8.864
  842POPC   GL213826  34.605  16.122   8.864
  842POPC   C1A13827  34.536  15.960   8.564
  842POPC   D2A13828  34.625  15.977   8.264
  842POPC   C3A13829  34.606  15.980   7.964
  842POPC   C4A13830  34.565  15.961   7.664
  842POPC   C1B13831  34.646  16.229   8.564
  842POPC   C2B13832  34.571  16.250   8.264
  842POPC   C3B13833  34.576  16.187   7.964
  842POPC   C4B13834  34.559  16.222   7.664
  843POPC   NC313835   0.460  22.958   9.464
  843POPC   PO413836   0.390  22.985   9.164
  843POPC   GL113837   0.417  22.889   8.864
  843POPC   GL213838   0.351  23.052   8.864
  843POPC   C1A13839   0.434  22.918   8.564
  843POPC   D2A13840   0.458  22.921   8.264
  843POPC   C3A13841   0.483  22.953   7.964
  843POPC   C4A13842   0.427  22.974   7.664
  843POPC   C1B13843   0.338  23.183   8.564
  843POPC   C2B13844   0.344  23.170   8.264
  843POPC   C3B13845   0.295  23.145   7.964
  843POPC   C4B13846   0.303  23.107   7.664
  844POPC   NC313847  25.308  24.516   9.464
  844POPC   PO413848  25.233  24.487   9.164
  844POPC   GL113849  25.249  24.529   8.864
  844POPC   GL213850  25.378  24.376   8.864
  844POPC   C1A13851  25.267  24.533   8.564
  844POPC   D2A13852  25.293  24.475   8.264
  844POPC   C3A13853  25.261  24.522   7.964
  844POPC   C4A13854  25.278  24.526   7.664
  844POPC   C1B13855  25.459  24.274   8.564
  844POPC   C2B13856  25.388  24.240   8.264
  844POPC   C3B13857  25.414  24.293   7.964
  844POPC   C4B13858  25.388  24.266   7.664
  845POPC   NC313859  36.944   8.952   9.464
  845POPC   PO413860  36.935   8.949   9.164
  845POPC   GL113861  36.878   8.992   8.864
  845POPC   GL213862  37.017   9.054   8.864
  845POPC   C1A13863  36.933   8.997   8.564
  845POPC   D2A13864  36.927   9.011   8.264
  845POPC   C3A13865  36.878   9.015   7.964
  845POPC   C4A13866  36.897   8.934   7.664
  845POPC   C1B13867  37.140   9.140   8.564
  845POPC   C2B13868  37.119   9.151   8.264
  845POPC   C3B13869  37.151   9.078   7.964
  845POPC   C4B13870  37.109   9.168   7.664
  846POPC   NC313871   7.409  12.831   9.464
  846POPC   PO413872   7.393  12.866   9.164
  846POPC   GL113873   7.440  12.868   8.864
  846POPC   GL213874   7.290  12.914   8.864
  846POPC   C1A13875   7.453  12.813   8.564
  846POPC   D2A13876   7.425  12.871   8.264
  846POPC   C3A13877   7.379  12.857   7.964
  846POPC   C4A13878   7.391  12.856   7.664
  846POPC   C1B13879   7.179  12.919   8.564
  846POPC   C2B13880   7.161  12.910   8.264
  846POPC   C3B13881   7.148  12.981   7.964
  846POPC   C4B13882   7.159  12.940   7.664
  847POPC   NC313883   5.132  37.691   9.464
  847POPC   PO413884   5.082  37.684   9.164
  847POPC   GL113885   5.055  37.659   8.864
  847POPC   GL213886   5.152  37.523   8.864
  847POPC   C1A13887   5.110  37.650   8.564
  847POPC   D2A13888   5.091  37.638   8.264
  847POPC   C3A13889   5.050  37.719   7.964
  847POPC   C4A13890   5.125  37.659   7.664
  847POPC   C1B13891   5.103  37.425   8.564
  847POPC   C2B13892   5.168  37.477   8.264
  847POPC   C3B13893   5.131  37.448   7.964
  847POPC   C4B13894   5.160  37.401   7.664
  848POPC   NC313895  19.016  11.278   9.464
  848POPC   PO413896  19.090  11.264   9.164
  848POPC   GL113897  19.079  11.321   8.864
  848POPC   GL213898  19.137  11.434   8.864
  848POPC   C1A13899  19.010  11.320   8.564
  848POPC   D2A13900  19.015  11.325   8.264
  848POPC   C3A13901  19.063  11.255   7.964
  848POPC   C4A13902  19.077  11.322   7.664
  848POPC   C1B13903  19.134  11.549   8.564
  848POPC   C2B13904  19.148  11.543   8.264
  848POPC   C3B13905  19.118  11.552   7.964
  848POPC   C4B13906  19.113  11.505   7.664
  849POPC   NC313907  28.402  35.355   9.464
  849POPC   PO413908  28.327  35.379   9.164
  849POPC   GL113909  28.349  35.309   8.864
  849POPC   GL213910  28.497  35.326   8.864
  849POPC   C1A13911  28.402  35.367   8.564
  849POPC   D2A13912  28.373  35.311   8.264
  849POPC   C3A13913  28.332  35.396   7.964
  849POPC   C4A13914  28.371  35.347   7.664
  849POPC   C1B13915  28.576  35.251   8.564
  849POPC   C2B13916  28.563  35.236   8.264
  849POPC   C3B13917  28.566  35.278   7.964
  849POPC   C4B13918  28.640  35.309   7.664
  850POPC   NC313919  20.645   2.811   9.464
  850POPC   PO413920  20.629   2.734   9.164
  850POPC   GL113921  20.629   2.762   8.864
  850POPC   GL213922  20.462   2.815   8.864
  850POPC   C1A13923  20.610   2.739   8.564
  850POPC   D2A13924  20.622   2.789   8.264
  850POPC   C3A13925  20.620   2.725   7.964
  850POPC   C4A13926  20.594   2.743   7.664
  850POPC   C1B13927  20.393   2.822   8.564
  850POPC   C2B13928  20.369   2.817   8.264
  850POPC   C3B13929  20.365   2.729   7.964
  850POPC   C4B13930  20.331   2.758   7.664
  851POPC   NC313931  42.348  14.354   9.464
  851POPC   PO413932  42.320  14.395   9.164
  851POPC   GL113933  42.372  14.385   8.864
  851POPC   GL213934  42.372  14.530   8.864
  851POPC   C1A13935  42.343  14.450   8.564
  851POPC   D2A13936  42.370  14.419   8.264
  851POPC   C3A13937  42.358  14.373   7.964
  851POPC   C4A13938  42.357  14.403   7.664
  851POPC   C1B13939  42.326  14.659   8.564
  851POPC   C2B13940  42.313  14.653   8.264
  851POPC   C3B13941  42.291  14.637   7.964
  851POPC   C4B13942  42.351  14.669   7.664
  852POPC   NC313943  33.811  29.101   9.464
  852POPC   PO413944  33.780  29.121   9.164
  852POPC   GL113945  33.811  29.180   8.864
  852POPC   GL213946  33.936  29.074   8.864
  852POPC   C1A13947  33.762  29.172   8.564
  852POPC   D2A13948  33.809  29.097   8.264
  852POPC   C3A13949  33.794  29.175   7.964
  852POPC   C4A13950  33.760  29.193   7.664
  852POPC   C1B13951  34.011  29.034   8.564
  852POPC   C2B13952  33.980  29.058   8.264
  852POPC   C3B13953  33.968  29.000   7.964
  852POPC   C4B13954  34.035  28.962   7.664
  853POPC   NC313955  34.625  43.838   9.464
  853POPC   PO413956  34.619  43.901   9.164
  853POPC   GL113957  34.573  43.906   8.864
  853POPC   GL213958  34.664  43.812   8.864
  853POPC   C1A13959  34.571  43.916   8.564
  853POPC   D2A13960  34.601  43.867   8.264
  853POPC   C3A13961  34.532  43.892   7.964
  853POPC   C4A13962  34.610  43.930   7.664
  853POPC   C1B13963  34.694  43.680   8.564
  853POPC   C2B13964  34.695  43.680   8.264
  853POPC   C3B13965  34.724  43.690   7.964
  853POPC   C4B13966  34.755  43.642   7.664
  854POPC   NC313967  31.465  21.361   9.464
  854POPC   PO413968  31.510  21.400   9.164
  854POPC   GL113969  31.493  21.426   8.864
  854POPC   GL213970  31.605  21.360   8.864
  854POPC   C1A13971  31.436  21.420   8.564
  854POPC   D2A13972  31.448  21.375   8.264
  854POPC   C3A13973  31.481  21.351   7.964
  854POPC   C4A13974  31.434  21.395   7.664
  854POPC   C1B13975  31.687  21.272   8.564
  854POPC   C2B13976  31.720  21.276   8.264
  854POPC   C3B13977  31.742  21.245   7.964
  854POPC   C4B13978  31.691  21.303   7.664
  855POPC   NC313979  19.801  37.643   9.464
  855POPC   PO413980  19.821  37.631   9.164
  855POPC   GL113981  19.865  37.694   8.864
  855POPC   GL213982  19.919  37.568   8.864
  855POPC   C1A13983  19.884  37.673   8.564
  855POPC   D2A13984  19.806  37.699   8.264
  855POPC   C3A13985  19.861  37.690   7.964
  855POPC   C4A13986  19.851  37.638   7.664
  855POPC   C1B13987  19.960  37.465   8.564
  855POPC   C2B13988  20.051  37.474   8.264
  855POPC   C3B13989  20.005  37.450   7.964
  855POPC   C4B13990  19.981  37.472   7.664
  856POPC   NC313991  37.677   1.220   9.464
  856POPC   PO413992  37.695   1.256   9.164
  856POPC   GL113993  37.653   1.184   8.864
  856POPC   GL213994  37.777   1.062   8.864
  856POPC   C1A13995  37.707   1.189   8.564
  856POPC   D2A13996  37.727   1.184   8.264
  856POPC   C3A13997  37.644   1.206   7.964
  856POPC   C4A13998  37.728   1.175   7.664
  856POPC   C1B13999  37.854   0.968   8.564
  856POPC   C2B14000  37.801   0.958   8.264
  856POPC   C3B14001  37.846   0.965   7.964
  856POPC   C4B14002  37.791   0.977   7.664
  857POPC   NC314003  42.365  11.332   9.464
  857POPC   PO414004  42.332  11.328   9.164
  857POPC   GL114005  42.341  11.290   8.864
  857POPC   GL214006  42.183  11.363   8.864
  857POPC   C1A14007  42.355  11.330   8.564
  857POPC   D2A14008  42.304  11.319   8.264
  857POPC   C3A14009  42.308  11.257   7.964
  857POPC   C4A14010  42.332  11.277   7.664
  857POPC   C1B14011  42.117  11.423   8.564
  857POPC   C2B14012  42.136  11.422   8.264
  857POPC   C3B14013  42.146  11.377   7.964
  857POPC   C4B14014  42.074  11.442   7.664
  858POPC   NC314015  43.856   3.526   9.464
  858POPC   PO414016  43.934   3.513   9.164
  858POPC   GL114017  43.868   3.563   8.864
  858POPC   GL214018  43.728   3.521   8.864
  858POPC   C1A14019  43.915   3.574   8.564
  858POPC   D2A14020  43.933   3.498   8.264
  858POPC   C3A14021  43.892   3.569   7.964
  858POPC   C4A14022  43.935   3.507   7.664
  858POPC   C1B14023  43.647   3.538   8.564
  858POPC   C2B14024  43.627   3.499   8.264
  858POPC   C3B14025  43.606   3.478   7.964
  858POPC   C4B14026  43.594   3.545   7.664
  859POPC   NC314027  36.879  40.786   9.464
  859POPC   PO414028  36.876  40.744   9.164
  859POPC   GL114029  36.891  40.763   8.864
  859POPC   GL214030  36.844  40.711   8.864
  859POPC   C1A14031  36.911  40.797   8.564
  859POPC   D2A14032  36.879  40.824   8.264
  859POPC   C3A14033  36.902  40.796   7.964
  859POPC   C4A14034  36.891  40.766   7.664
  859POPC   C1B14035  36.720  40.678   8.564
  859POPC   C2B14036  36.666  40.636   8.264
  859POPC   C3B14037  36.723  40.605   7.964
  859POPC   C4B14038  36.702  40.670   7.664
  860POPC   NC314039  29.144   1.941   9.464
  860POPC   PO414040  29.128   1.961   9.164
  860POPC   GL114041  29.176   1.980   8.864
  860POPC   GL214042  29.031   2.096   8.864
  860POPC   C1A14043  29.183   1.940   8.564
  860POPC   D2A14044  29.123   2.036   8.264
  860POPC   C3A14045  29.116   2.014   7.964
  860POPC   C4A14046  29.128   1.992   7.664
  860POPC   C1B14047  28.942   2.133   8.564
  860POPC   C2B14048  28.922   2.155   8.264
  860POPC   C3B14049  28.967   2.107   7.964
  860POPC   C4B14050  28.922   2.147   7.664
  861POPC   NC314051  39.261  24.492   9.464
  861POPC   PO414052  39.221  24.483   9.164
  861POPC   GL114053  39.269  24.506   8.864
  861POPC   GL214054  39.215  24.375   8.864
  861POPC   C1A14055  39.215  24.525   8.564
  861POPC   D2A14056  39.263  24.477   8.264
  861POPC   C3A14057  39.205  24.535   7.964
  861POPC   C4A14058  39.197  24.489   7.664
  861POPC   C1B14059  39.232  24.255   8.564
  861POPC   C2B14060  39.201  24.281   8.264
  861POPC   C3B14061  39.254  24.235   7.964
  861POPC   C4B14062  39.184  24.263   7.664
  862POPC   NC314063   3.571   3.572   9.464
  862POPC   PO414064   3.503   3.516   9.164
  862POPC   GL114065   3.538   3.566   8.864
  862POPC   GL214066   3.500   3.654   8.864
  862POPC   C1A14067   3.556   3.536   8.564
  862POPC   D2A14068   3.527   3.501   8.264
  862POPC   C3A14069   3.507   3.507   7.964
  862POPC   C4A14070   3.492   3.502   7.664
  862POPC   C1B14071   3.451   3.802   8.564
  862POPC   C2B14072   3.411   3.782   8.264
  862POPC   C3B14073   3.417   3.714   7.964
  862POPC   C4B14074   3.420   3.761   7.664
  863POPC   NC314075  39.201  25.996   9.464
  863POPC   PO414076  39.201  26.008   9.164
  863POPC   GL114077  39.200  26.015   8.864
  863POPC   GL214078  39.342  26.100   8.864
  863POPC   C1A14079  39.200  26.048   8.564
  863POPC   D2A14080  39.224  26.028   8.264
  863POPC   C3A14081  39.268  26.064   7.964
  863POPC   C4A14082  39.220  26.075   7.664
  863POPC   C1B14083  39.435  26.122   8.564
  863POPC   C2B14084  39.460  26.108   8.264
  863POPC   C3B14085  39.414  26.163   7.964
  863POPC   C4B14086  39.496  26.176   7.664
  864POPC   NC314087  15.156  30.673   9.464
  864POPC   PO414088  15.214  30.706   9.164
  864POPC   GL114089  15.209  30.710   8.864
  864POPC   GL214090  15.274  30.812   8.864
  864POPC   C1A14091  15.203  30.718   8.564
  864POPC   D2A14092  15.131  30.647   8.264
  864POPC   C3A14093  15.208  30.651   7.964
  864POPC   C4A14094  15.139  30.705   7.664
  864POPC   C1B14095  15.392  30.828   8.564
  864POPC   C2B14096  15.394  30.840   8.264
  864POPC   C3B14097  15.395  30.850   7.964
  864POPC   C4B14098  15.404  30.795   7.664
  865POPC   NC314099  29.967  44.638   9.464
  865POPC   PO414100  29.924  44.671   9.164
  865POPC   GL114101  29.878  44.615   8.864
  865POPC   GL214102  29.972  44.696   8.864
  865POPC   C1A14103  29.932  44.658   8.564
  865POPC   D2A14104  29.871  44.670   8.264
  865POPC   C3A14105  29.945  44.629   7.964
  865POPC   C4A14106  29.903  44.701   7.664
  865POPC   C1B14107  30.069  44.773   8.564
  865POPC   C2B14108  30.113  44.794   8.264
  865POPC   C3B14109  30.151  44.807   7.964
  865POPC   C4B14110  30.152  44.854   7.664
  866POPC   NC314111  40.776  38.480   9.464
  866POPC   PO414112  40.790  38.480   9.164
  866POPC   GL114113  40.818  38.438   8.864
  866POPC   GL214114  40.901  38.582   8.864
  866POPC   C1A14115  40.761  38.465   8.564
  866POPC   D2A14116  40.781  38.432   8.264
  866POPC   C3A14117  40.735  38.414   7.964
  866POPC   C4A14118  40.796  38.452   7.664
  866POPC   C1B14119  40.969  38.661   8.564
  866POPC   C2B14120  40.899  38.618   8.264
  866POPC   C3B14121  40.992  38.625   7.964
  866POPC   C4B14122  40.955  38.685   7.664
  867POPC   NC314123  43.860  26.012   9.464
  867POPC   PO414124  43.906  26.069   9.164
  867POPC   GL114125  43.920  26.056   8.864
  867POPC   GL214126  43.806  26.098   8.864
  867POPC   C1A14127  43.870  26.063   8.564
  867POPC   D2A14128  43.884  26.080   8.264
  867POPC   C3A14129  43.855  26.050   7.964
  867POPC   C4A14130  43.883  26.008   7.664
  867POPC   C1B14131  43.675  26.205   8.564
  867POPC   C2B14132  43.705  26.140   8.264
  867POPC   C3B14133  43.682  26.186   7.964
  867POPC   C4B14134  43.709  26.164   7.664
  868POPC   NC314135  41.597  10.557   9.464
  868POPC   PO414136  41.575  10.541   9.164
  868POPC   GL114137  41.579  10.553   8.864
  868POPC   GL214138  41.397  10.544   8.864
  868POPC   C1A14139  41.554  10.491   8.564
  868POPC   D2A14140  41.606  10.478   8.264
  868POPC   C3A14141  41.571  10.500   7.964
  868POPC   C4A14142  41.510  10.555   7.664
  868POPC   C1B14143  41.299  10.558   8.564
  868POPC   C2B14144  41.321  10.617   8.264
  868POPC   C3B14145  41.325  10.570   7.964
  868POPC   C4B14146  41.325  10.617   7.664
  869POPC   NC314147  40.804  43.932   9.464
  869POPC   PO414148  40.811  43.899   9.164
  869POPC   GL114149  40.816  43.855   8.864
  869POPC   GL214150  40.871  43.964   8.864
  869POPC   C1A14151  40.828  43.844   8.564
  869POPC   D2A14152  40.820  43.916   8.264
  869POPC   C3A14153  40.769  43.908   7.964
  869POPC   C4A14154  40.743  43.846   7.664
  869POPC   C1B14155  40.948  44.070   8.564
  869POPC   C2B14156  40.989  44.038   8.264
  869POPC   C3B14157  40.964  44.043   7.964
  869POPC   C4B14158  40.962  44.025   7.664
  870POPC   NC314159  26.837  33.039   9.464
  870POPC   PO414160  26.836  33.025   9.164
  870POPC   GL114161  26.866  33.008   8.864
  870POPC   GL214162  26.661  32.995   8.864
  870POPC   C1A14163  26.793  33.043   8.564
  870POPC   D2A14164  26.860  33.025   8.264
  870POPC   C3A14165  26.860  32.983   7.964
  870POPC   C4A14166  26.835  33.015   7.664
  870POPC   C1B14167  26.617  33.091   8.564
  870POPC   C2B14168  26.570  33.090   8.264
  870POPC   C3B14169  26.608  33.013   7.964
  870POPC   C4B14170  26.535  33.047   7.664
  871POPC   NC314171   5.095  22.986   9.464
  871POPC   PO414172   5.087  22.905   9.164
  871POPC   GL114173   5.111  22.963   8.864
  871POPC   GL214174   4.995  22.883   8.864
  871POPC   C1A14175   5.045  22.972   8.564
  871POPC   D2A14176   5.127  22.955   8.264
  871POPC   C3A14177   5.126  22.960   7.964
  871POPC   C4A14178   5.127  22.894   7.664
  871POPC   C1B14179   4.850  22.893   8.564
  871POPC   C2B14180   4.827  22.864   8.264
  871POPC   C3B14181   4.810  22.916   7.964
  871POPC   C4B14182   4.853  22.852   7.664
  872POPC   NC314183  28.395  38.439   9.464
  872POPC   PO414184  28.320  38.443   9.164
  872POPC   GL114185  28.350  38.414   8.864
  872POPC   GL214186  28.507  38.435   8.864
  872POPC   C1A14187  28.356  38.483   8.564
  872POPC   D2A14188  28.412  38.410   8.264
  872POPC   C3A14189  28.344  38.409   7.964
  872POPC   C4A14190  28.394  38.410   7.664
  872POPC   C1B14191  28.528  38.303   8.564
  872POPC   C2B14192  28.625  38.277   8.264
  872POPC   C3B14193  28.589  38.318   7.964
  872POPC   C4B14194  28.546  38.343   7.664
  873POPC   NC314195  21.406  43.889   9.464
  873POPC   PO414196  21.421  43.923   9.164
  873POPC   GL114197  21.341  43.930   8.864
  873POPC   GL214198  21.499  43.920   8.864
  873POPC   C1A14199  21.342  43.929   8.564
  873POPC   D2A14200  21.406  43.859   8.264
  873POPC   C3A14201  21.354  43.851   7.964
  873POPC   C4A14202  21.399  43.882   7.664
  873POPC   C1B14203  21.623  43.913   8.564
  873POPC   C2B14204  21.659  43.952   8.264
  873POPC   C3B14205  21.638  43.935   7.964
  873POPC   C4B14206  21.595  43.893   7.664
  874POPC   NC314207   6.683  35.379   9.464
  874POPC   PO414208   6.619  35.310   9.164
  874POPC   GL114209   6.693  35.389   8.864
  874POPC   GL214210   6.611  35.475   8.864
  874POPC   C1A14211   6.599  35.325   8.564
  874POPC   D2A14212   6.645  35.326   8.264
  874POPC   C3A14213   6.621  35.361   7.964
  874POPC   C4A14214   6.600  35.392   7.664
  874POPC   C1B14215   6.645  35.563   8.564
  874POPC   C2B14216   6.668  35.563   8.264
  874POPC   C3B14217   6.658  35.572   7.964
  874POPC   C4B14218   6.643  35.650   7.664
  875POPC   NC314219  17.514  38.416   9.464
  875POPC   PO414220  17.513  38.439   9.164
  875POPC   GL114221  17.465  38.413   8.864
  875POPC   GL214222  17.629  38.384   8.864
  875POPC   C1A14223  17.498  38.425   8.564
  875POPC   D2A14224  17.513  38.441   8.264
  875POPC   C3A14225  17.521  38.423   7.964
  875POPC   C4A14226  17.468  38.498   7.664
  875POPC   C1B14227  17.644  38.238   8.564
  875POPC   C2B14228  17.688  38.276   8.264
  875POPC   C3B14229  17.703  38.294   7.964
  875POPC   C4B14230  17.685  38.290   7.664
  876POPC   NC314231  38.494   5.127   9.464
  876POPC   PO414232  38.492   5.045   9.164
  876POPC   GL114233  38.475   5.069   8.864
  876POPC   GL214234  38.431   5.241   8.864
  876POPC   C1A14235  38.483   5.057   8.564
  876POPC   D2A14236  38.504   5.054   8.264
  876POPC   C3A14237  38.411   5.090   7.964
  876POPC   C4A14238  38.464   5.137   7.664
  876POPC   C1B14239  38.426   5.367   8.564
  876POPC   C2B14240  38.465   5.351   8.264
  876POPC   C3B14241  38.457   5.364   7.964
  876POPC   C4B14242  38.476   5.324   7.664
  877POPC   NC314243  29.124  35.329   9.464
  877POPC   PO414244  29.159  35.340   9.164
  877POPC   GL114245  29.191  35.383   8.864
  877POPC   GL214246  28.991  35.266   8.864
  877POPC   C1A14247  29.154  35.372   8.564
  877POPC   D2A14248  29.124  35.384   8.264
  877POPC   C3A14249  29.137  35.372   7.964
  877POPC   C4A14250  29.186  35.340   7.664
  877POPC   C1B14251  28.882  35.231   8.564
  877POPC   C2B14252  28.882  35.247   8.264
  877POPC   C3B14253  28.958  35.226   7.964
  877POPC   C4B14254  28.940  35.264   7.664
  878POPC   NC314255  14.411  29.144   9.464
  878POPC   PO414256  14.425  29.102   9.164
  878POPC   GL114257  14.375  29.183   8.864
  878POPC   GL214258  14.235  29.100   8.864
  878POPC   C1A14259  14.400  29.101   8.564
  878POPC   D2A14260  14.385  29.123   8.264
  878POPC   C3A14261  14.418  29.140   7.964
  878POPC   C4A14262  14.367  29.143   7.664
  878POPC   C1B14263  14.114  29.116   8.564
  878POPC   C2B14264  14.125  29.096   8.264
  878POPC   C3B14265  14.186  29.132   7.964
  878POPC   C4B14266  14.121  29.152   7.664
  879POPC   NC314267  34.554  31.470   9.464
  879POPC   PO414268  34.556  31.468   9.164
  879POPC   GL114269  34.532  31.491   8.864
  879POPC   GL214270  34.502  31.315   8.864
  879POPC   C1A14271  34.595  31.498   8.564
  879POPC   D2A14272  34.599  31.423   8.264
  879POPC   C3A14273  34.574  31.468   7.964
  879POPC   C4A14274  34.560  31.479   7.664
  879POPC   C1B14275  34.409  31.231   8.564
  879POPC   C2B14276  34.496  31.269   8.264
  879POPC   C3B14277  34.432  31.275   7.964
  879POPC   C4B14278  34.483  31.298   7.664
  880POPC   NC314279  15.223   1.247   9.464
  880POPC   PO414280  15.165   1.234   9.164
  880POPC   GL114281  15.181   1.230   8.864
  880POPC   GL214282  15.115   1.138   8.864
  880POPC   C1A14283  15.148   1.200   8.564
  880POPC   D2A14284  15.177   1.204   8.264
  880POPC   C3A14285  15.165   1.190   7.964
  880POPC   C4A14286  15.216   1.263   7.664
  880POPC   C1B14287  15.051   0.977   8.564
  880POPC   C2B14288  15.043   0.949   8.264
  880POPC   C3B14289  15.105   1.003   7.964
  880POPC   C4B14290  15.020   0.946   7.664
  881POPC   NC314291  44.655   8.205   9.464
  881POPC   PO414292  44.706   8.159   9.164
  881POPC   GL114293  44.666   8.177   8.864
  881POPC   GL214294  44.818   8.164   8.864
  881POPC   C1A14295  44.660   8.150   8.564
  881POPC   D2A14296  44.685   8.233   8.264
  881POPC   C3A14297  44.693   8.189   7.964
  881POPC   C4A14298  44.645   8.172   7.664
  881POPC   C1B14299  44.919   8.049   8.564
  881POPC   C2B14300  44.846   8.039   8.264
  881POPC   C3B14301  44.902   8.061   7.964
  881POPC   C4B14302  44.862   8.039   7.664
  882POPC   NC314303   0.468  34.537   9.464
  882POPC   PO414304   0.474  34.599   9.164
  882POPC   GL114305   0.439  34.576   8.864
  882POPC   GL214306   0.299  34.527   8.864
  882POPC   C1A14307   0.434  34.537   8.564
  882POPC   D2A14308   0.417  34.532   8.264
  882POPC   C3A14309   0.486  34.559   7.964
  882POPC   C4A14310   0.453  34.549   7.664
  882POPC   C1B14311   0.168  34.463   8.564
  882POPC   C2B14312   0.243  34.435   8.264
  882POPC   C3B14313   0.239  34.500   7.964
  882POPC   C4B14314   0.250  34.435   7.664
  883POPC   NC314315  40.049   8.160   9.464
  883POPC   PO414316  39.962   8.165   9.164
  883POPC   GL114317  39.957   8.218   8.864
  883POPC   GL214318  40.019   8.292   8.864
  883POPC   C1A14319  40.005   8.213   8.564
  883POPC   D2A14320  40.002   8.222   8.264
  883POPC   C3A14321  39.960   8.175   7.964
  883POPC   C4A14322  40.020   8.158   7.664
  883POPC   C1B14323  39.935   8.480   8.564
  883POPC   C2B14324  39.978   8.444   8.264
  883POPC   C3B14325  39.988   8.483   7.964
  883POPC   C4B14326  39.934   8.415   7.664
  884POPC   NC314327  24.474   5.129   9.464
  884POPC   PO414328  24.480   5.118   9.164
  884POPC   GL114329  24.458   5.120   8.864
  884POPC   GL214330  24.410   5.230   8.864
  884POPC   C1A14331  24.535   5.095   8.564
  884POPC   D2A14332  24.501   5.075   8.264
  884POPC   C3A14333  24.525   5.077   7.964
  884POPC   C4A14334  24.513   5.107   7.664
  884POPC   C1B14335  24.308   5.338   8.564
  884POPC   C2B14336  24.315   5.274   8.264
  884POPC   C3B14337  24.381   5.292   7.964
  884POPC   C4B14338  24.315   5.264   7.664
  885POPC   NC314339  19.044   4.345   9.464
  885POPC   PO414340  19.098   4.308   9.164
  885POPC   GL114341  19.067   4.291   8.864
  885POPC   GL214342  19.102   4.459   8.864
  885POPC   C1A14343  19.105   4.335   8.564
  885POPC   D2A14344  19.044   4.365   8.264
  885POPC   C3A14345  19.104   4.280   7.964
  885POPC   C4A14346  19.090   4.302   7.664
  885POPC   C1B14347  19.170   4.529   8.564
  885POPC   C2B14348  19.209   4.574   8.264
  885POPC   C3B14349  19.198   4.530   7.964
  885POPC   C4B14350  19.213   4.580   7.664
  886POPC   NC314351  30.647   8.150   9.464
  886POPC   PO414352  30.678   8.157   9.164
  886POPC   GL114353  30.661   8.160   8.864
  886POPC   GL214354  30.635   8.061   8.864
  886POPC   C1A14355  30.718   8.233   8.564
  886POPC   D2A14356  30.744   8.233   8.264
  886POPC   C3A14357  30.707   8.237   7.964
  886POPC   C4A14358  30.650   8.237   7.664
  886POPC   C1B14359  30.546   8.012   8.564
  886POPC   C2B14360  30.637   7.961   8.264
  886POPC   C3B14361  30.607   8.006   7.964
  886POPC   C4B14362  30.599   7.924   7.664
  887POPC   NC314363  41.589  11.323   9.464
  887POPC   PO414364  41.608  11.281   9.164
  887POPC   GL114365  41.571  11.259   8.864
  887POPC   GL214366  41.510  11.392   8.864
  887POPC   C1A14367  41.555  11.342   8.564
  887POPC   D2A14368  41.533  11.345   8.264
  887POPC   C3A14369  41.558  11.264   7.964
  887POPC   C4A14370  41.586  11.333   7.664
  887POPC   C1B14371  41.475  11.541   8.564
  887POPC   C2B14372  41.528  11.524   8.264
  887POPC   C3B14373  41.493  11.505   7.964
  887POPC   C4B14374  41.550  11.513   7.664
  888POPC   NC314375  29.883  11.292   9.464
  888POPC   PO414376  29.902  11.267   9.164
  888POPC   GL114377  29.951  11.267   8.864
  888POPC   GL214378  30.069  11.277   8.864
  888POPC   C1A14379  29.874  11.257   8.564
  888POPC   D2A14380  29.960  11.302   8.264
  888POPC   C3A14381  29.924  11.315   7.964
  888POPC   C4A14382  29.943  11.330   7.664
  888POPC   C1B14383  30.141  11.244   8.564
  888POPC   C2B14384  30.136  11.195   8.264
  888POPC   C3B14385  30.182  11.281   7.964
  888POPC   C4B14386  30.155  11.281   7.664
  889POPC   NC314387   6.678  30.744   9.464
  889POPC   PO414388   6.599  30.669   9.164
  889POPC   GL114389   6.599  30.744   8.864
  889POPC   GL214390   6.734  30.668   8.864
  889POPC   C1A14391   6.607  30.713   8.564
  889POPC   D2A14392   6.618  30.734   8.264
  889POPC   C3A14393   6.610  30.726   7.964
  889POPC   C4A14394   6.676  30.654   7.664
  889POPC   C1B14395   6.848  30.715   8.564
  889POPC   C2B14396   6.931  30.734   8.264
  889POPC   C3B14397   6.868  30.737   7.964
  889POPC   C4B14398   6.911  30.768   7.664
  890POPC   NC314399  32.224  15.214   9.464
  890POPC   PO414400  32.220  15.166   9.164
  890POPC   GL114401  32.227  15.208   8.864
  890POPC   GL214402  32.324  15.317   8.864
  890POPC   C1A14403  32.265  15.216   8.564
  890POPC   D2A14404  32.219  15.135   8.264
  890POPC   C3A14405  32.247  15.156   7.964
  890POPC   C4A14406  32.237  15.213   7.664
  890POPC   C1B14407  32.334  15.422   8.564
  890POPC   C2B14408  32.346  15.414   8.264
  890POPC   C3B14409  32.344  15.438   7.964
  890POPC   C4B14410  32.389  15.370   7.664
  891POPC   NC314411   5.896  11.305   9.464
  891POPC   PO414412   5.822  11.344   9.164
  891POPC   GL114413   5.866  11.301   8.864
  891POPC   GL214414   6.033  11.291   8.864
  891POPC   C1A14415   5.850  11.278   8.564
  891POPC   D2A14416   5.917  11.254   8.264
  891POPC   C3A14417   5.873  11.350   7.964
  891POPC   C4A14418   5.872  11.264   7.664
  891POPC   C1B14419   6.082  11.228   8.564
  891POPC   C2B14420   6.126  11.234   8.264
  891POPC   C3B14421   6.146  11.261   7.964
  891POPC   C4B14422   6.095  11.213   7.664
  892POPC   NC314423   0.437  25.993   9.464
  892POPC   PO414424   0.435  26.066   9.164
  892POPC   GL114425   0.465  26.075   8.864
  892POPC   GL214426   0.478  25.881   8.864
  892POPC   C1A14427   0.457  26.004   8.564
  892POPC   D2A14428   0.487  26.026   8.264
  892POPC   C3A14429   0.415  26.060   7.964
  892POPC   C4A14430   0.452  26.010   7.664
  892POPC   C1B14431   0.538  25.808   8.564
  892POPC   C2B14432   0.554  25.811   8.264
  892POPC   C3B14433   0.524  25.821   7.964
  892POPC   C4B14434   0.471  25.803   7.664
  893POPC   NC314435  18.255  21.398   9.464
  893POPC   PO414436  18.310  21.408   9.164
  893POPC   GL114437  18.278  21.383   8.864
  893POPC   GL214438  18.415  21.389   8.864
  893POPC   C1A14439  18.241  21.424   8.564
  893POPC   D2A14440  18.271  21.370   8.264
  893POPC   C3A14441  18.247  21.361   7.964
  893POPC   C4A14442  18.307  21.342   7.664
  893POPC   C1B14443  18.511  21.506   8.564
  893POPC   C2B14444  18.560  21.472   8.264
  893POPC   C3B14445  18.529  21.468   7.964
  893POPC   C4B14446  18.532  21.503   7.664
  894POPC   NC314447  15.918  38.498   9.464
  894POPC   PO414448  15.917  38.415   9.164
  894POPC   GL114449  15.938  38.491   8.864
  894POPC   GL214450  15.849  38.482   8.864
  894POPC   C1A14451  15.951  38.469   8.564
  894POPC   D2A14452  15.998  38.408   8.264
  894POPC   C3A14453  15.942  38.416   7.964
  894POPC   C4A14454  15.944  38.455   7.664
  894POPC   C1B14455  15.740  38.578   8.564
  894POPC   C2B14456  15.755  38.597   8.264
  894POPC   C3B14457  15.758  38.559   7.964
  894POPC   C4B14458  15.707  38.580   7.664
  895POPC   NC314459  29.174  36.093   9.464
  895POPC   PO414460  29.117  36.122   9.164
  895POPC   GL114461  29.176  36.163   8.864
  895POPC   GL214462  28.985  36.120   8.864
  895POPC   C1A14463  29.140  36.117   8.564
  895POPC   D2A14464  29.145  36.167   8.264
  895POPC   C3A14465  29.130  36.127   7.964
  895POPC   C4A14466  29.149  36.100   7.664
  895POPC   C1B14467  28.904  36.095   8.564
  895POPC   C2B14468  28.910  36.043   8.264
  895POPC   C3B14469  28.898  36.112   7.964
  895POPC   C4B14470  28.901  36.127   7.664
  896POPC   NC314471  15.966   0.444   9.464
  896POPC   PO414472  15.980   0.450   9.164
  896POPC   GL114473  15.985   0.448   8.864
  896POPC   GL214474  15.956   0.602   8.864
  896POPC   C1A14475  15.985   0.390   8.564
  896POPC   D2A14476  15.937   0.416   8.264
  896POPC   C3A14477  15.920   0.460   7.964
  896POPC   C4A14478  15.991   0.418   7.664
  896POPC   C1B14479  15.958   0.668   8.564
  896POPC   C2B14480  15.976   0.700   8.264
  896POPC   C3B14481  16.009   0.687   7.964
  896POPC   C4B14482  16.011   0.724   7.664
  897POPC   NC314483   6.620  34.529   9.464
  897POPC   PO414484   6.596  34.578   9.164
  897POPC   GL114485   6.625  34.582   8.864
  897POPC   GL214486   6.586  34.703   8.864
  897POPC   C1A14487   6.652  34.600   8.564
  897POPC   D2A14488   6.638  34.573   8.264
  897POPC   C3A14489   6.642  34.540   7.964
  897POPC   C4A14490   6.619  34.557   7.664
  897POPC   C1B14491   6.634  34.810   8.564
  897POPC   C2B14492   6.559  34.813   8.264
  897POPC   C3B14493   6.557  34.861   7.964
  897POPC   C4B14494   6.576  34.862   7.664
  898POPC   NC314495  43.912  30.657   9.464
  898POPC   PO414496  43.881  30.712   9.164
  898POPC   GL114497  43.855  30.658   8.864
  898POPC   GL214498  43.908  30.829   8.864
  898POPC   C1A14499  43.903  30.667   8.564
  898POPC   D2A14500  43.862  30.662   8.264
  898POPC   C3A14501  43.887  30.652   7.964
  898POPC   C4A14502  43.883  30.725   7.664
  898POPC   C1B14503  43.989  30.925   8.564
  898POPC   C2B14504  43.988  30.889   8.264
  898POPC   C3B14505  43.981  30.876   7.964
  898POPC   C4B14506  43.991  30.887   7.664
  899POPC   NC314507  43.081  44.649   9.464
  899POPC   PO414508  43.066  44.670   9.164
  899POPC   GL114509  43.132  44.676   8.864
  899POPC   GL214510  42.967  44.762   8.864
  899POPC   C1A14511  43.129  44.656   8.564
  899POPC   D2A14512  43.074  44.622   8.264
  899POPC   C3A14513  43.128  44.694   7.964
  899POPC   C4A14514  43.080  44.709   7.664
  899POPC   C1B14515  42.896  44.798   8.564
  899POPC   C2B14516  42.885  44.845   8.264
  899POPC   C3B14517  42.884  44.810   7.964
  899POPC   C4B14518  42.891  44.858   7.664
  900POPC   NC314519   6.604  26.850   9.464
  900POPC   PO414520   6.600  26.800   9.164
  900POPC   GL114521   6.621  26.844   8.864
  900POPC   GL214522   6.537  26.850   8.864
  900POPC   C1A14523   6.627  26.807   8.564
  900POPC   D2A14524   6.627  26.853   8.264
  900POPC   C3A14525   6.596  26.787   7.964
  900POPC   C4A14526   6.610  26.846   7.664
  900POPC   C1B14527   6.380  26.904   8.564
  900POPC   C2B14528   6.415  26.913   8.264
  900POPC   C3B14529   6.368  26.855   7.964
  900POPC   C4B14530   6.370  26.879   7.664
  901POPC   NC314531   7.410  40.751   9.464
  901POPC   PO414532   7.461  40.734   9.164
  901POPC   GL114533   7.417  40.733   8.864
  901POPC   GL214534   7.385  40.883   8.864
  901POPC   C1A14535   7.400  40.744   8.564
  901POPC   D2A14536   7.424  40.818   8.264
  901POPC   C3A14537   7.416  40.810   7.964
  901POPC   C4A14538   7.438  40.798   7.664
  901POPC   C1B14539   7.438  40.988   8.564
  901POPC   C2B14540   7.375  41.037   8.264
  901POPC   C3B14541   7.433  41.053   7.964
  901POPC   C4B14542   7.399  41.082   7.664
  902POPC   NC314543  15.917  22.976   9.464
  902POPC   PO414544  15.932  22.895   9.164
  902POPC   GL114545  15.926  22.969   8.864
  902POPC   GL214546  15.836  22.942   8.864
  902POPC   C1A14547  15.966  22.950   8.564
  902POPC   D2A14548  15.985  22.890   8.264
  902POPC   C3A14549  15.939  22.980   7.964
  902POPC   C4A14550  15.996  22.895   7.664
  902POPC   C1B14551  15.716  22.824   8.564
  902POPC   C2B14552  15.744  22.875   8.264
  902POPC   C3B14553  15.698  22.816   7.964
  902POPC   C4B14554  15.680  22.839   7.664
  903POPC   NC314555  31.434   4.284   9.464
  903POPC   PO414556  31.492   4.271   9.164
  903POPC   GL114557  31.457   4.365   8.864
  903POPC   GL214558  31.554   4.382   8.864
  903POPC   C1A14559  31.511   4.351   8.564
  903POPC   D2A14560  31.464   4.318   8.264
  903POPC   C3A14561  31.498   4.269   7.964
  903POPC   C4A14562  31.501   4.281   7.664
  903POPC   C1B14563  31.598   4.544   8.564
  903POPC   C2B14564  31.648   4.572   8.264
  903POPC   C3B14565  31.563   4.511   7.964
  903POPC   C4B14566  31.641   4.524   7.664
  904POPC   NC314567  32.280  28.370   9.464
  904POPC   PO414568  32.278  28.342   9.164
  904POPC   GL114569  32.217  28.384   8.864
  904POPC   GL214570  32.091  28.461   8.864
  904POPC   C1A14571  32.271  28.411   8.564
  904POPC   D2A14572  32.279  28.387   8.264
  904POPC   C3A14573  32.250  28.326   7.964
  904POPC   C4A14574  32.287  28.407   7.664
  904POPC   C1B14575  32.016  28.420   8.564
  904POPC   C2B14576  32.066  28.455   8.264
  904POPC   C3B14577  32.039  28.432   7.964
  904POPC   C4B14578  32.041  28.450   7.664
  905POPC   NC314579  22.194  33.756   9.464
  905POPC   PO414580  22.170  33.796   9.164
  905POPC   GL114581  22.166  33.791   8.864
  905POPC   GL214582  22.120  33.876   8.864
  905POPC   C1A14583  22.141  33.820   8.564
  905POPC   D2A14584  22.158  33.783   8.264
  905POPC   C3A14585  22.118  33.802   7.964
  905POPC   C4A14586  22.117  33.781   7.664
  905POPC   C1B14587  22.127  34.059   8.564
  905POPC   C2B14588  22.153  34.052   8.264
  905POPC   C3B14589  22.164  34.001   7.964
  905POPC   C4B14590  22.145  34.050   7.664
  906POPC   NC314591  12.100  30.707   9.464
  906POPC   PO414592  12.100  30.745   9.164
  906POPC   GL114593  12.028  30.698   8.864
  906POPC   GL214594  12.107  30.557   8.864
  906POPC   C1A14595  12.123  30.701   8.564
  906POPC   D2A14596  12.056  30.728   8.264
  906POPC   C3A14597  12.036  30.733   7.964
  906POPC   C4A14598  12.061  30.648   7.664
  906POPC   C1B14599  12.178  30.519   8.564
  906POPC   C2B14600  12.197  30.424   8.264
  906POPC   C3B14601  12.171  30.494   7.964
  906POPC   C4B14602  12.169  30.474   7.664
  907POPC   NC314603  12.098  27.592   9.464
  907POPC   PO414604  12.083  27.618   9.164
  907POPC   GL114605  12.119  27.579   8.864
  907POPC   GL214606  12.161  27.520   8.864
  907POPC   C1A14607  12.115  27.567   8.564
  907POPC   D2A14608  12.036  27.596   8.264
  907POPC   C3A14609  12.111  27.590   7.964
  907POPC   C4A14610  12.076  27.585   7.664
  907POPC   C1B14611  12.319  27.537   8.564
  907POPC   C2B14612  12.346  27.524   8.264
  907POPC   C3B14613  12.280  27.503   7.964
  907POPC   C4B14614  12.355  27.578   7.664
  908POPC   NC314615   5.871  26.797   9.464
  908POPC   PO414616   5.862  26.796   9.164
  908POPC   GL114617   5.909  26.825   8.864
  908POPC   GL214618   5.960  26.753   8.864
  908POPC   C1A14619   5.822  26.860   8.564
  908POPC   D2A14620   5.827  26.827   8.264
  908POPC   C3A14621   5.836  26.806   7.964
  908POPC   C4A14622   5.855  26.856   7.664
  908POPC   C1B14623   6.099  26.760   8.564
  908POPC   C2B14624   6.090  26.748   8.264
  908POPC   C3B14625   6.100  26.811   7.964
  908POPC   C4B14626   6.075  26.723   7.664
  909POPC   NC314627  44.707  29.176   9.464
  909POPC   PO414628  44.654  29.183   9.164
  909POPC   GL114629  44.667  29.191   8.864
  909POPC   GL214630  44.531  29.149   8.864
  909POPC   C1A14631  44.624  29.148   8.564
  909POPC   D2A14632  44.673  29.128   8.264
  909POPC   C3A14633  44.667  29.126   7.964
  909POPC   C4A14634  44.697  29.147   7.664
  909POPC   C1B14635  44.403  29.193   8.564
  909POPC   C2B14636  44.456  29.141   8.264
  909POPC   C3B14637  44.428  29.139   7.964
  909POPC   C4B14638  44.420  29.178   7.664
  910POPC   NC314639   6.634   4.333   9.464
  910POPC   PO414640   6.665   4.349   9.164
  910POPC   GL114641   6.598   4.277   8.864
  910POPC   GL214642   6.655   4.185   8.864
  910POPC   C1A14643   6.670   4.296   8.564
  910POPC   D2A14644   6.651   4.346   8.264
  910POPC   C3A14645   6.642   4.272   7.964
  910POPC   C4A14646   6.626   4.349   7.664
  910POPC   C1B14647   6.653   4.057   8.564
  910POPC   C2B14648   6.701   4.065   8.264
  910POPC   C3B14649   6.710   4.075   7.964
  910POPC   C4B14650   6.699   4.077   7.664
  911POPC   NC314651   5.052   4.303   9.464
  911POPC   PO414652   5.116   4.325   9.164
  911POPC   GL114653   5.142   4.300   8.864
  911POPC   GL214654   5.017   4.201   8.864
  911POPC   C1A14655   5.086   4.296   8.564
  911POPC   D2A14656   5.086   4.277   8.264
  911POPC   C3A14657   5.072   4.305   7.964
  911POPC   C4A14658   5.085   4.311   7.664
  911POPC   C1B14659   5.046   4.052   8.564
  911POPC   C2B14660   5.035   4.103   8.264
  911POPC   C3B14661   5.043   4.078   7.964
  911POPC   C4B14662   5.002   4.074   7.664
  912POPC   NC314663  14.416   3.553   9.464
  912POPC   PO414664  14.356   3.494   9.164
  912POPC   GL114665  14.402   3.537   8.864
  912POPC   GL214666  14.508   3.617   8.864
  912POPC   C1A14667  14.412   3.506   8.564
  912POPC   D2A14668  14.384   3.573   8.264
  912POPC   C3A14669  14.433   3.572   7.964
  912POPC   C4A14670  14.433   3.528   7.664
  912POPC   C1B14671  14.595   3.768   8.564
  912POPC   C2B14672  14.546   3.715   8.264
  912POPC   C3B14673  14.556   3.767   7.964
  912POPC   C4B14674  14.554   3.713   7.664
  913POPC   NC314675  39.263   9.763   9.464
  913POPC   PO414676  39.227   9.730   9.164
  913POPC   GL114677  39.202   9.720   8.864
  913POPC   GL214678  39.108   9.819   8.864
  913POPC   C1A14679  39.185   9.767   8.564
  913POPC   D2A14680  39.209   9.726   8.264
  913POPC   C3A14681  39.218   9.703   7.964
  913POPC   C4A14682  39.242   9.715   7.664
  913POPC   C1B14683  39.037   9.814   8.564
  913POPC   C2B14684  38.999   9.829   8.264
  913POPC   C3B14685  38.993   9.811   7.964
  913POPC   C4B14686  38.958   9.784   7.664
  914POPC   NC314687   2.776  39.238   9.464
  914POPC   PO414688   2.768  39.232   9.164
  914POPC   GL114689   2.786  39.212   8.864
  914POPC   GL214690   2.918  39.282   8.864
  914POPC   C1A14691   2.803  39.250   8.564
  914POPC   D2A14692   2.766  39.250   8.264
  914POPC   C3A14693   2.795  39.261   7.964
  914POPC   C4A14694   2.745  39.185   7.664
  914POPC   C1B14695   3.055  39.235   8.564
  914POPC   C2B14696   3.037  39.237   8.264
  914POPC   C3B14697   3.015  39.209   7.964
  914POPC   C4B14698   2.997  39.250   7.664
  915POPC   NC314699  41.566  14.359   9.464
  915POPC   PO414700  41.533  14.364   9.164
  915POPC   GL114701  41.518  14.432   8.864
  915POPC   GL214702  41.452  14.393   8.864
  915POPC   C1A14703  41.571  14.435   8.564
  915POPC   D2A14704  41.580  14.372   8.264
  915POPC   C3A14705  41.563  14.385   7.964
  915POPC   C4A14706  41.527  14.430   7.664
  915POPC   C1B14707  41.323  14.318   8.564
  915POPC   C2B14708  41.320  14.385   8.264
  915POPC   C3B14709  41.281  14.299   7.964
  915POPC   C4B14710  41.288  14.337   7.664
  916POPC   NC314711   1.222   3.524   9.464
  916POPC   PO414712   1.192   3.548   9.164
  916POPC   GL114713   1.262   3.579   8.864
  916POPC   GL214714   1.370   3.555   8.864
  916POPC   C1A14715   1.240   3.516   8.564
  916POPC   D2A14716   1.220   3.544   8.264
  916POPC   C3A14717   1.212   3.524   7.964
  916POPC   C4A14718   1.236   3.571   7.664
  916POPC   C1B14719   1.483   3.648   8.564
  916POPC   C2B14720   1.468   3.643   8.264
  916POPC   C3B14721   1.426   3.671   7.964
  916POPC   C4B14722   1.439   3.682   7.664
  917POPC   NC314723  37.682  42.335   9.464
  917POPC   PO414724  37.678  42.319   9.164
  917POPC   GL114725  37.691  42.376   8.864
  917POPC   GL214726  37.767  42.252   8.864
  917POPC   C1A14727  37.673  42.317   8.564
  917POPC   D2A14728  37.678  42.305   8.264
  917POPC   C3A14729  37.700  42.329   7.964
  917POPC   C4A14730  37.657  42.343   7.664
  917POPC   C1B14731  37.888  42.148   8.564
  917POPC   C2B14732  37.880  42.172   8.264
  917POPC   C3B14733  37.884  42.176   7.964
  917POPC   C4B14734  37.813  42.125   7.664
  918POPC   NC314735  34.536  30.657   9.464
  918POPC   PO414736  34.555  30.723   9.164
  918POPC   GL114737  34.564  30.723   8.864
  918POPC   GL214738  34.628  30.788   8.864
  918POPC   C1A14739  34.616  30.717   8.564
  918POPC   D2A14740  34.597  30.682   8.264
  918POPC   C3A14741  34.530  30.718   7.964
  918POPC   C4A14742  34.620  30.746   7.664
  918POPC   C1B14743  34.822  30.878   8.564
  918POPC   C2B14744  34.744  30.886   8.264
  918POPC   C3B14745  34.778  30.882   7.964
  918POPC   C4B14746  34.740  30.825   7.664
  919POPC   NC314747  24.462  35.333   9.464
  919POPC   PO414748  24.474  35.333   9.164
  919POPC   GL114749  24.447  35.380   8.864
  919POPC   GL214750  24.553  35.258   8.864
  919POPC   C1A14751  24.498  35.349   8.564
  919POPC   D2A14752  24.497  35.382   8.264
  919POPC   C3A14753  24.533  35.341   7.964
  919POPC   C4A14754  24.519  35.304   7.664
  919POPC   C1B14755  24.486  35.095   8.564
  919POPC   C2B14756  24.566  35.063   8.264
  919POPC   C3B14757  24.493  35.115   7.964
  919POPC   C4B14758  24.529  35.097   7.664
  920POPC   NC314759  10.507  25.278   9.464
  920POPC   PO414760  10.480  25.229   9.164
  920POPC   GL114761  10.530  25.298   8.864
  920POPC   GL214762  10.409  25.173   8.864
  920POPC   C1A14763  10.493  25.281   8.564
  920POPC   D2A14764  10.555  25.275   8.264
  920POPC   C3A14765  10.513  25.292   7.964
  920POPC   C4A14766  10.510  25.246   7.664
  920POPC   C1B14767  10.356  25.101   8.564
  920POPC   C2B14768  10.372  25.068   8.264
  920POPC   C3B14769  10.404  25.060   7.964
  920POPC   C4B14770  10.338  25.103   7.664
  921POPC   NC314771  29.130  31.451   9.464
  921POPC   PO414772  29.129  31.502   9.164
  921POPC   GL114773  29.186  31.432   8.864
  921POPC   GL214774  29.229  31.361   8.864
  921POPC   C1A14775  29.144  31.429   8.564
  921POPC   D2A14776  29.122  31.507   8.264
  921POPC   C3A14777  29.115  31.515   7.964
  921POPC   C4A14778  29.149  31.454   7.664
  921POPC   C1B14779  29.344  31.283   8.564
  921POPC   C2B14780  29.362  31.259   8.264
  921POPC   C3B14781  29.269  31.276   7.964
  921POPC   C4B14782  29.287  31.286   7.664
  922POPC   NC314783  39.978   7.446   9.464
  922POPC   PO414784  40.005   7.418   9.164
  922POPC   GL114785  39.968   7.425   8.864
  922POPC   GL214786  39.870   7.472   8.864
  922POPC   C1A14787  39.997   7.468   8.564
  922POPC   D2A14788  40.030   7.456   8.264
  922POPC   C3A14789  40.039   7.437   7.964
  922POPC   C4A14790  40.006   7.449   7.664
  922POPC   C1B14791  39.774   7.427   8.564
  922POPC   C2B14792  39.718   7.452   8.264
  922POPC   C3B14793  39.733   7.466   7.964
  922POPC   C4B14794  39.741   7.470   7.664
  923POPC   NC314795   2.011  24.533   9.464
  923POPC   PO414796   1.961  24.442   9.164
  923POPC   GL114797   1.964  24.535   8.864
  923POPC   GL214798   1.964  24.617   8.864
  923POPC   C1A14799   2.031  24.475   8.564
  923POPC   D2A14800   1.943  24.471   8.264
  923POPC   C3A14801   1.982  24.538   7.964
  923POPC   C4A14802   2.025  24.497   7.664
  923POPC   C1B14803   1.968  24.716   8.564
  923POPC   C2B14804   1.928  24.756   8.264
  923POPC   C3B14805   1.980  24.708   7.964
  923POPC   C4B14806   1.986  24.715   7.664
  924POPC   NC314807  22.915  41.564   9.464
  924POPC   PO414808  22.944  41.522   9.164
  924POPC   GL114809  22.898  41.587   8.864
  924POPC   GL214810  22.868  41.429   8.864
  924POPC   C1A14811  22.939  41.529   8.564
  924POPC   D2A14812  22.920  41.602   8.264
  924POPC   C3A14813  22.978  41.539   7.964
  924POPC   C4A14814  22.905  41.512   7.664
  924POPC   C1B14815  22.897  41.346   8.564
  924POPC   C2B14816  22.856  41.273   8.264
  924POPC   C3B14817  22.858  41.314   7.964
  924POPC   C4B14818  22.895  41.278   7.664
  925POPC   NC314819  36.139   5.089   9.464
  925POPC   PO414820  36.134   5.136   9.164
  925POPC   GL114821  36.109   5.137   8.864
  925POPC   GL214822  36.255   5.012   8.864
  925POPC   C1A14823  36.147   5.067   8.564
  925POPC   D2A14824  36.082   5.047   8.264
  925POPC   C3A14825  36.176   5.082   7.964
  925POPC   C4A14826  36.103   5.086   7.664
  925POPC   C1B14827  36.381   5.015   8.564
  925POPC   C2B14828  36.338   4.959   8.264
  925POPC   C3B14829  36.378   4.983   7.964
  925POPC   C4B14830  36.342   4.955   7.664
  926POPC   NC314831  42.352  26.011   9.464
  926POPC   PO414832  42.359  26.082   9.164
  926POPC   GL114833  42.327  26.080   8.864
  926POPC   GL214834  42.402  26.117   8.864
  926POPC   C1A14835  42.325  25.994   8.564
  926POPC   D2A14836  42.297  26.053   8.264
  926POPC   C3A14837  42.373  26.035   7.964
  926POPC   C4A14838  42.313  26.075   7.664
  926POPC   C1B14839  42.469  26.294   8.564
  926POPC   C2B14840  42.420  26.210   8.264
  926POPC   C3B14841  42.495  26.273   7.964
  926POPC   C4B14842  42.424  26.210   7.664
  927POPC   NC314843   3.572   0.407   9.464
  927POPC   PO414844   3.505   0.464   9.164
  927POPC   GL114845   3.523   0.422   8.864
  927POPC   GL214846   3.680   0.382   8.864
  927POPC   C1A14847   3.578   0.410   8.564
  927POPC   D2A14848   3.508   0.439   8.264
  927POPC   C3A14849   3.498   0.483   7.964
  927POPC   C4A14850   3.560   0.464   7.664
  927POPC   C1B14851   3.749   0.336   8.564
  927POPC   C2B14852   3.772   0.335   8.264
  927POPC   C3B14853   3.816   0.341   7.964
  927POPC   C4B14854   3.753   0.313   7.664
  928POPC   NC314855  12.076  34.569   9.464
  928POPC   PO414856  12.083  34.610   9.164
  928POPC   GL114857  12.056  34.572   8.864
  928POPC   GL214858  11.939  34.554   8.864
  928POPC   C1A14859  12.033  34.598   8.564
  928POPC   D2A14860  12.094  34.570   8.264
  928POPC   C3A14861  12.094  34.550   7.964
  928POPC   C4A14862  12.108  34.622   7.664
  928POPC   C1B14863  11.808  34.438   8.564
  928POPC   C2B14864  11.855  34.449   8.264
  928POPC   C3B14865  11.852  34.465   7.964
  928POPC   C4B14866  11.904  34.430   7.664
  929POPC   NC314867  22.909  10.556   9.464
  929POPC   PO414868  22.910  10.572   9.164
  929POPC   GL114869  22.905  10.557   8.864
  929POPC   GL214870  22.979  10.695   8.864
  929POPC   C1A14871  22.913  10.566   8.564
  929POPC   D2A14872  22.924  10.493   8.264
  929POPC   C3A14873  22.963  10.520   7.964
  929POPC   C4A14874  22.905  10.507   7.664
  929POPC   C1B14875  22.947  10.813   8.564
  929POPC   C2B14876  23.018  10.750   8.264
  929POPC   C3B14877  23.000  10.753   7.964
  929POPC   C4B14878  22.959  10.795   7.664
  930POPC   NC314879   1.232   1.243   9.464
  930POPC   PO414880   1.229   1.197   9.164
  930POPC   GL114881   1.240   1.218   8.864
  930POPC   GL214882   1.127   1.062   8.864
  930POPC   C1A14883   1.210   1.171   8.564
  930POPC   D2A14884   1.260   1.258   8.264
  930POPC   C3A14885   1.241   1.248   7.964
  930POPC   C4A14886   1.234   1.217   7.664
  930POPC   C1B14887   1.056   1.007   8.564
  930POPC   C2B14888   1.033   1.006   8.264
  930POPC   C3B14889   1.099   0.980   7.964
  930POPC   C4B14890   1.103   1.028   7.664
  931POPC   NC314891  26.089  14.417   9.464
  931POPC   PO414892  26.008  14.451   9.164
  931POPC   GL114893  26.083  14.425   8.864
  931POPC   GL214894  26.170  14.372   8.864
  931POPC   C1A14895  26.054  14.391   8.564
  931POPC   D2A14896  26.055  14.402   8.264
  931POPC   C3A14897  26.051  14.449   7.964
  931POPC   C4A14898  26.071  14.383   7.664
  931POPC   C1B14899  26.301  14.287   8.564
  931POPC   C2B14900  26.288  14.288   8.264
  931POPC   C3B14901  26.261  14.349   7.964
  931POPC   C4B14902  26.232  14.302   7.664
  932POPC   NC314903  25.313  13.598   9.464
  932POPC   PO414904  25.277  13.662   9.164
  932POPC   GL114905  25.300  13.607   8.864
  932POPC   GL214906  25.227  13.728   8.864
  932POPC   C1A14907  25.312  13.586   8.564
  932POPC   D2A14908  25.306  13.613   8.264
  932POPC   C3A14909  25.297  13.646   7.964
  932POPC   C4A14910  25.241  13.597   7.664
  932POPC   C1B14911  25.106  13.803   8.564
  932POPC   C2B14912  25.109  13.800   8.264
  932POPC   C3B14913  25.101  13.815   7.964
  932POPC   C4B14914  25.158  13.824   7.664
  933POPC   NC314915   6.629   7.389   9.464
  933POPC   PO414916   6.651   7.388   9.164
  933POPC   GL114917   6.693   7.423   8.864
  933POPC   GL214918   6.540   7.419   8.864
  933POPC   C1A14919   6.613   7.441   8.564
  933POPC   D2A14920   6.601   7.439   8.264
  933POPC   C3A14921   6.643   7.398   7.964
  933POPC   C4A14922   6.611   7.450   7.664
  933POPC   C1B14923   6.411   7.436   8.564
  933POPC   C2B14924   6.367   7.499   8.264
  933POPC   C3B14925   6.397   7.515   7.964
  933POPC   C4B14926   6.392   7.515   7.664
  934POPC   NC314927  23.749  12.803   9.464
  934POPC   PO414928  23.708  12.829   9.164
  934POPC   GL114929  23.756  12.884   8.864
  934POPC   GL214930  23.546  12.863   8.864
  934POPC   C1A14931  23.670  12.827   8.564
  934POPC   D2A14932  23.735  12.853   8.264
  934POPC   C3A14933  23.713  12.890   7.964
  934POPC   C4A14934  23.703  12.849   7.664
  934POPC   C1B14935  23.418  12.847   8.564
  934POPC   C2B14936  23.478  12.900   8.264
  934POPC   C3B14937  23.416  12.863   7.964
  934POPC   C4B14938  23.512  12.805   7.664
  935POPC   NC314939  19.068  13.594   9.464
  935POPC   PO414940  19.016  13.635   9.164
  935POPC   GL114941  19.059  13.660   8.864
  935POPC   GL214942  19.142  13.477   8.864
  935POPC   C1A14943  19.106  13.587   8.564
  935POPC   D2A14944  19.083  13.611   8.264
  935POPC   C3A14945  19.030  13.648   7.964
  935POPC   C4A14946  19.015  13.584   7.664
  935POPC   C1B14947  19.164  13.438   8.564
  935POPC   C2B14948  19.134  13.453   8.264
  935POPC   C3B14949  19.169  13.367   7.964
  935POPC   C4B14950  19.216  13.383   7.664
  936POPC   NC314951  12.810   9.722   9.464
  936POPC   PO414952  12.845   9.778   9.164
  936POPC   GL114953  12.833   9.711   8.864
  936POPC   GL214954  12.797   9.836   8.864
  936POPC   C1A14955  12.839   9.726   8.564
  936POPC   D2A14956  12.894   9.757   8.264
  936POPC   C3A14957  12.875   9.700   7.964
  936POPC   C4A14958  12.805   9.788   7.664
  936POPC   C1B14959  12.756   9.948   8.564
  936POPC   C2B14960  12.716   9.938   8.264
  936POPC   C3B14961  12.755   9.971   7.964
  936POPC   C4B14962  12.745   9.957   7.664
  937POPC   NC314963   3.547  19.804   9.464
  937POPC   PO414964   3.566  19.865   9.164
  937POPC   GL114965   3.517  19.813   8.864
  937POPC   GL214966   3.619  19.988   8.864
  937POPC   C1A14967   3.576  19.875   8.564
  937POPC   D2A14968   3.580  19.812   8.264
  937POPC   C3A14969   3.501  19.818   7.964
  937POPC   C4A14970   3.527  19.879   7.664
  937POPC   C1B14971   3.675  20.034   8.564
  937POPC   C2B14972   3.631  20.111   8.264
  937POPC   C3B14973   3.657  20.084   7.964
  937POPC   C4B14974   3.618  20.021   7.664
  938POPC   NC314975   1.237  17.553   9.464
  938POPC   PO414976   1.215  17.489   9.164
  938POPC   GL114977   1.224  17.551   8.864
  938POPC   GL214978   1.241  17.389   8.864
  938POPC   C1A14979   1.169  17.503   8.564
  938POPC   D2A14980   1.210  17.535   8.264
  938POPC   C3A14981   1.189  17.487   7.964
  938POPC   C4A14982   1.239  17.499   7.664
  938POPC   C1B14983   1.237  17.245   8.564
  938POPC   C2B14984   1.289  17.308   8.264
  938POPC   C3B14985   1.277  17.277   7.964
  938POPC   C4B14986   1.242  17.220   7.664
  939POPC   NC314987  16.707   8.159   9.464
  939POPC   PO414988  16.732   8.235   9.164
  939POPC   GL114989  16.682   8.232   8.864
  939POPC   GL214990  16.594   8.325   8.864
  939POPC   C1A14991  16.691   8.185   8.564
  939POPC   D2A14992  16.760   8.184   8.264
  939POPC   C3A14993  16.740   8.218   7.964
  939POPC   C4A14994  16.706   8.190   7.664
  939POPC   C1B14995  16.517   8.399   8.564
  939POPC   C2B14996  16.583   8.320   8.264
  939POPC   C3B14997  16.501   8.368   7.964
  939POPC   C4B14998  16.572   8.360   7.664
  940POPC   NC314999  19.070  38.491   9.464
  940POPC   PO415000  19.073  38.440   9.164
  940POPC   GL115001  19.090  38.502   8.864
  940POPC   GL215002  19.082  38.355   8.864
  940POPC   C1A15003  19.102  38.490   8.564
  940POPC   D2A15004  19.073  38.453   8.264
  940POPC   C3A15005  19.045  38.456   7.964
  940POPC   C4A15006  19.090  38.453   7.664
  940POPC   C1B15007  19.054  38.178   8.564
  940POPC   C2B15008  19.024  38.233   8.264
  940POPC   C3B15009  19.010  38.255   7.964
  940POPC   C4B15010  19.040  38.208   7.664
  941POPC   NC315011  33.060  36.101   9.464
  941POPC   PO415012  33.032  36.112   9.164
  941POPC   GL115013  33.063  36.171   8.864
  941POPC   GL215014  33.007  35.959   8.864
  941POPC   C1A15015  32.985  36.133   8.564
  941POPC   D2A15016  33.049  36.145   8.264
  941POPC   C3A15017  33.001  36.142   7.964
  941POPC   C4A15018  33.002  36.115   7.664
  941POPC   C1B15019  32.990  35.869   8.564
  941POPC   C2B15020  32.955  35.835   8.264
  941POPC   C3B15021  33.001  35.872   7.964
  941POPC   C4B15022  33.013  35.877   7.664
  942POPC   NC315023  36.940  26.850   9.464
  942POPC   PO415024  36.924  26.780   9.164
  942POPC   GL115025  36.902  26.803   8.864
  942POPC   GL215026  36.949  26.721   8.864
  942POPC   C1A15027  36.895  26.780   8.564
  942POPC   D2A15028  36.925  26.783   8.264
  942POPC   C3A15029  36.946  26.793   7.964
  942POPC   C4A15030  36.908  26.811   7.664
  942POPC   C1B15031  36.929  26.585   8.564
  942POPC   C2B15032  36.930  26.559   8.264
  942POPC   C3B15033  36.948  26.546   7.964
  942POPC   C4B15034  36.944  26.605   7.664
  943POPC   NC315035  19.814  12.833   9.464
  943POPC   PO415036  19.851  12.821   9.164
  943POPC   GL115037  19.861  12.841   8.864
  943POPC   GL215038  19.765  12.767   8.864
  943POPC   C1A15039  19.842  12.813   8.564
  943POPC   D2A15040  19.884  12.863   8.264
  943POPC   C3A15041  19.877  12.886   7.964
  943POPC   C4A15042  19.824  12.817   7.664
  943POPC   C1B15043  19.597  12.738   8.564
  943POPC   C2B15044  19.658  12.699   8.264
  943POPC   C3B15045  19.660  12.669   7.964
  943POPC   C4B15046  19.671  12.739   7.664
  944POPC   NC315047  11.345   6.603   9.464
  944POPC   PO415048  11.292   6.680   9.164
  944POPC   GL115049  11.331   6.670   8.864
  944POPC   GL215050  11.163   6.582   8.864
  944POPC   C1A15051  11.310   6.626   8.564
  944POPC   D2A15052  11.269   6.619   8.264
  944POPC   C3A15053  11.285   6.657   7.964
  944POPC   C4A15054  11.281   6.664   7.664
  944POPC   C1B15055  11.140   6.431   8.564
  944POPC   C2B15056  11.128   6.456   8.264
  944POPC   C3B15057  11.115   6.473   7.964
  944POPC   C4B15058  11.118   6.487   7.664
  945POPC   NC315059  19.853  39.224   9.464
  945POPC   PO415060  19.855  39.188   9.164
  945POPC   GL115061  19.842  39.213   8.864
  945POPC   GL215062  19.797  39.090   8.864
  945POPC   C1A15063  19.803  39.226   8.564
  945POPC   D2A15064  19.849  39.261   8.264
  945POPC   C3A15065  19.791  39.277   7.964
  945POPC   C4A15066  19.793  39.245   7.664
  945POPC   C1B15067  19.703  39.012   8.564
  945POPC   C2B15068  19.723  39.024   8.264
  945POPC   C3B15069  19.674  38.978   7.964
  945POPC   C4B15070  19.737  39.001   7.664
  946POPC   NC315071  33.845  34.554   9.464
  946POPC   PO415072  33.825  34.530   9.164
  946POPC   GL115073  33.795  34.607   8.864
  946POPC   GL215074  33.946  34.590   8.864
  946POPC   C1A15075  33.755  34.585   8.564
  946POPC   D2A15076  33.761  34.613   8.264
  946POPC   C3A15077  33.822  34.527   7.964
  946POPC   C4A15078  33.768  34.562   7.664
  946POPC   C1B15079  34.062  34.521   8.564
  946POPC   C2B15080  34.089  34.595   8.264
  946POPC   C3B15081  34.066  34.512   7.964
  946POPC   C4B15082  34.081  34.548   7.664
  947POPC   NC315083  33.834  28.391   9.464
  947POPC   PO415084  33.817  28.345   9.164
  947POPC   GL115085  33.780  28.415   8.864
  947POPC   GL215086  33.871  28.312   8.864
  947POPC   C1A15087  33.833  28.325   8.564
  947POPC   D2A15088  33.833  28.328   8.264
  947POPC   C3A15089  33.823  28.380   7.964
  947POPC   C4A15090  33.832  28.348   7.664
  947POPC   C1B15091  34.060  28.335   8.564
  947POPC   C2B15092  34.034  28.273   8.264
  947POPC   C3B15093  34.067  28.293   7.964
  947POPC   C4B15094  34.017  28.283   7.664
  948POPC   NC315095  39.198  39.963   9.464
  948POPC   PO415096  39.229  39.976   9.164
  948POPC   GL115097  39.181  39.994   8.864
  948POPC   GL215098  39.222  39.845   8.864
  948POPC   C1A15099  39.246  39.983   8.564
  948POPC   D2A15100  39.207  40.022   8.264
  948POPC   C3A15101  39.250  39.962   7.964
  948POPC   C4A15102  39.258  40.042   7.664
  948POPC   C1B15103  39.180  39.779   8.564
  948POPC   C2B15104  39.184  39.722   8.264
  948POPC   C3B15105  39.199  39.796   7.964
  948POPC   C4B15106  39.234  39.740   7.664
  949POPC   NC315107   0.395  17.510   9.464
  949POPC   PO415108   0.456  17.525   9.164
  949POPC   GL115109   0.468  17.536   8.864
  949POPC   GL215110   0.562  17.548   8.864
  949POPC   C1A15111   0.397  17.460   8.564
  949POPC   D2A15112   0.423  17.523   8.264
  949POPC   C3A15113   0.412  17.528   7.964
  949POPC   C4A15114   0.453  17.478   7.664
  949POPC   C1B15115   0.716  17.502   8.564
  949POPC   C2B15116   0.679  17.488   8.264
  949POPC   C3B15117   0.642  17.492   7.964
  949POPC   C4B15118   0.696  17.554   7.664
  950POPC   NC315119  10.537  13.613   9.464
  950POPC   PO415120  10.521  13.667   9.164
  950POPC   GL115121  10.490  13.652   8.864
  950POPC   GL215122  10.665  13.574   8.864
  950POPC   C1A15123  10.547  13.589   8.564
  950POPC   D2A15124  10.548  13.579   8.264
  950POPC   C3A15125  10.499  13.607   7.964
  950POPC   C4A15126  10.478  13.658   7.664
  950POPC   C1B15127  10.764  13.612   8.564
  950POPC   C2B15128  10.745  13.593   8.264
  950POPC   C3B15129  10.754  13.525   7.964
  950POPC   C4B15130  10.765  13.601   7.664
  951POPC   NC315131  29.179  37.632   9.464
  951POPC   PO415132  29.184  37.637   9.164
  951POPC   GL115133  29.100  37.697   8.864
  951POPC   GL215134  29.094  37.795   8.864
  951POPC   C1A15135  29.178  37.676   8.564
  951POPC   D2A15136  29.180  37.631   8.264
  951POPC   C3A15137  29.124  37.699   7.964
  951POPC   C4A15138  29.099  37.685   7.664
  951POPC   C1B15139  29.065  37.924   8.564
  951POPC   C2B15140  29.115  37.968   8.264
  951POPC   C3B15141  29.063  37.871   7.964
  951POPC   C4B15142  29.086  37.945   7.664
  952POPC   NC315143  22.930  39.204   9.464
  952POPC   PO415144  22.899  39.251   9.164
  952POPC   GL115145  22.904  39.200   8.864
  952POPC   GL215146  22.854  39.171   8.864
  952POPC   C1A15147  22.898  39.212   8.564
  952POPC   D2A15148  22.941  39.215   8.264
  952POPC   C3A15149  22.924  39.209   7.964
  952POPC   C4A15150  22.976  39.223   7.664
  952POPC   C1B15151  22.702  39.158   8.564
  952POPC   C2B15152  22.756  39.126   8.264
  952POPC   C3B15153  22.722  39.097   7.964
  952POPC   C4B15154  22.718  39.085   7.664
  953POPC   NC315155  26.076  39.211   9.464
  953POPC   PO415156  26.082  39.277   9.164
  953POPC   GL115157  26.078  39.185   8.864
  953POPC   GL215158  26.119  39.286   8.864
  953POPC   C1A15159  26.061  39.229   8.564
  953POPC   D2A15160  26.034  39.266   8.264
  953POPC   C3A15161  26.078  39.279   7.964
  953POPC   C4A15162  26.076  39.221   7.664
  953POPC   C1B15163  26.228  39.437   8.564
  953POPC   C2B15164  26.258  39.411   8.264
  953POPC   C3B15165  26.193  39.414   7.964
  953POPC   C4B15166  26.174  39.375   7.664
  954POPC   NC315167  10.558  15.135   9.464
  954POPC   PO415168  10.520  15.159   9.164
  954POPC   GL115169  10.504  15.222   8.864
  954POPC   GL215170  10.623  15.139   8.864
  954POPC   C1A15171  10.517  15.198   8.564
  954POPC   D2A15172  10.507  15.172   8.264
  954POPC   C3A15173  10.479  15.185   7.964
  954POPC   C4A15174  10.568  15.198   7.664
  954POPC   C1B15175  10.733  15.175   8.564
  954POPC   C2B15176  10.783  15.143   8.264
  954POPC   C3B15177  10.778  15.098   7.964
  954POPC   C4B15178  10.729  15.142   7.664
  955POPC   NC315179  38.468  16.688   9.464
  955POPC   PO415180  38.414  16.706   9.164
  955POPC   GL115181  38.448  16.759   8.864
  955POPC   GL215182  38.604  16.670   8.864
  955POPC   C1A15183  38.490  16.766   8.564
  955POPC   D2A15184  38.452  16.765   8.264
  955POPC   C3A15185  38.428  16.704   7.964
  955POPC   C4A15186  38.481  16.744   7.664
  955POPC   C1B15187  38.668  16.682   8.564
  955POPC   C2B15188  38.707  16.642   8.264
  955POPC   C3B15189  38.728  16.652   7.964
  955POPC   C4B15190  38.715  16.617   7.664
  956POPC   NC315191   5.828   4.358   9.464
  956POPC   PO415192   5.864   4.350   9.164
  956POPC   GL115193   5.848   4.269   8.864
  956POPC   GL215194   5.739   4.356   8.864
  956POPC   C1A15195   5.836   4.277   8.564
  956POPC   D2A15196   5.855   4.287   8.264
  956POPC   C3A15197   5.870   4.299   7.964
  956POPC   C4A15198   5.913   4.322   7.664
  956POPC   C1B15199   5.595   4.357   8.564
  956POPC   C2B15200   5.675   4.410   8.264
  956POPC   C3B15201   5.589   4.431   7.964
  956POPC   C4B15202   5.671   4.435   7.664
  957POPC   NC315203   7.427  44.685   9.464
  957POPC   PO415204   7.430  44.703   9.164
  957POPC   GL115205   7.372  44.640   8.864
  957POPC   GL215206   7.381  44.554   8.864
  957POPC   C1A15207   7.425  44.683   8.564
  957POPC   D2A15208   7.437  44.708   8.264
  957POPC   C3A15209   7.445  44.685   7.964
  957POPC   C4A15210   7.372  44.692   7.664
  957POPC   C1B15211   7.289  44.452   8.564
  957POPC   C2B15212   7.231  44.480   8.264
  957POPC   C3B15213   7.261  44.436   7.964
  957POPC   C4B15214   7.263  44.437   7.664
  958POPC   NC315215  31.491  26.059   9.464
  958POPC   PO415216  31.460  26.013   9.164
  958POPC   GL115217  31.519  26.059   8.864
  958POPC   GL215218  31.343  26.103   8.864
  958POPC   C1A15219  31.423  26.066   8.564
  958POPC   D2A15220  31.480  26.069   8.264
  958POPC   C3A15221  31.477  26.080   7.964
  958POPC   C4A15222  31.522  26.038   7.664
  958POPC   C1B15223  31.215  26.181   8.564
  958POPC   C2B15224  31.230  26.175   8.264
  958POPC   C3B15225  31.228  26.225   7.964
  958POPC   C4B15226  31.235  26.224   7.664
  959POPC   NC315227  19.011  22.180   9.464
  959POPC   PO415228  19.062  22.164   9.164
  959POPC   GL115229  19.096  22.124   8.864
  959POPC   GL215230  19.086  22.297   8.864
  959POPC   C1A15231  19.086  22.196   8.564
  959POPC   D2A15232  19.093  22.144   8.264
  959POPC   C3A15233  19.081  22.194   7.964
  959POPC   C4A15234  19.026  22.142   7.664
  959POPC   C1B15235  19.238  22.345   8.564
  959POPC   C2B15236  19.173  22.397   8.264
  959POPC   C3B15237  19.229  22.389   7.964
  959POPC   C4B15238  19.175  22.410   7.664
  960POPC   NC315239  29.154   0.474   9.464
  960POPC   PO415240  29.122   0.462   9.164
  960POPC   GL115241  29.109   0.441   8.864
  960POPC   GL215242  29.187   0.577   8.864
  960POPC   C1A15243  29.105   0.459   8.564
  960POPC   D2A15244  29.159   0.390   8.264
  960POPC   C3A15245  29.141   0.447   7.964
  960POPC   C4A15246  29.143   0.474   7.664
  960POPC   C1B15247  29.309   0.604   8.564
  960POPC   C2B15248  29.305   0.652   8.264
  960POPC   C3B15249  29.241   0.612   7.964
  960POPC   C4B15250  29.267   0.629   7.664
  961POPC   NC315251  33.021  16.719   9.464
  961POPC   PO415252  33.052  16.728   9.164
  961POPC   GL115253  33.047  16.749   8.864
  961POPC   GL215254  33.170  16.617   8.864
  961POPC   C1A15255  32.990  16.729   8.564
  961POPC   D2A15256  33.000  16.755   8.264
  961POPC   C3A15257  33.008  16.735   7.964
  961POPC   C4A15258  33.024  16.726   7.664
  961POPC   C1B15259  33.213  16.560   8.564
  961POPC   C2B15260  33.241  16.605   8.264
  961POPC   C3B15261  33.223  16.550   7.964
  961POPC   C4B15262  33.200  16.637   7.664
  962POPC   NC315263  38.434  10.519   9.464
  962POPC   PO415264  38.407  10.560   9.164
  962POPC   GL115265  38.454  10.544   8.864
  962POPC   GL215266  38.539  10.456   8.864
  962POPC   C1A15267  38.464  10.553   8.564
  962POPC   D2A15268  38.420  10.493   8.264
  962POPC   C3A15269  38.449  10.528   7.964
  962POPC   C4A15270  38.411  10.548   7.664
  962POPC   C1B15271  38.622  10.356   8.564
  962POPC   C2B15272  38.614  10.351   8.264
  962POPC   C3B15273  38.615  10.343   7.964
  962POPC   C4B15274  38.600  10.311   7.664
  963POPC   NC315275  36.933   2.007   9.464
  963POPC   PO415276  36.918   1.983   9.164
  963POPC   GL115277  36.912   2.033   8.864
  963POPC   GL215278  37.027   2.006   8.864
  963POPC   C1A15279  36.876   2.033   8.564
  963POPC   D2A15280  36.944   2.036   8.264
  963POPC   C3A15281  36.902   1.969   7.964
  963POPC   C4A15282  36.953   1.952   7.664
  963POPC   C1B15283  37.171   2.142   8.564
  963POPC   C2B15284  37.115   2.099   8.264
  963POPC   C3B15285  37.126   2.156   7.964
  963POPC   C4B15286  37.145   2.106   7.664
  964POPC   NC315287  10.500  30.741   9.464
  964POPC   PO415288  10.513  30.713   9.164
  964POPC   GL115289  10.536  30.733   8.864
  964POPC   GL215290  10.429  30.787   8.864
  964POPC   C1A15291  10.540  30.714   8.564
  964POPC   D2A15292  10.527  30.712   8.264
  964POPC   C3A15293  10.487  30.699   7.964
  964POPC   C4A15294  10.529  30.650   7.664
  964POPC   C1B15295  10.274  30.799   8.564
  964POPC   C2B15296  10.324  30.834   8.264
  964POPC   C3B15297  10.262  30.838   7.964
  964POPC   C4B15298  10.335  30.860   7.664
  965POPC   NC315299  33.004   9.764   9.464
  965POPC   PO415300  33.068   9.714   9.164
  965POPC   GL115301  32.985   9.781   8.864
  965POPC   GL215302  33.135   9.767   8.864
  965POPC   C1A15303  33.046   9.708   8.564
  965POPC   D2A15304  33.026   9.781   8.264
  965POPC   C3A15305  33.046   9.771   7.964
  965POPC   C4A15306  33.052   9.757   7.664
  965POPC   C1B15307  33.253   9.879   8.564
  965POPC   C2B15308  33.263   9.848   8.264
  965POPC   C3B15309  33.195   9.866   7.964
  965POPC   C4B15310  33.282   9.924   7.664
  966POPC   NC315311  36.153  43.932   9.464
  966POPC   PO415312  36.116  43.924   9.164
  966POPC   GL115313  36.170  43.859   8.864
  966POPC   GL215314  36.251  43.973   8.864
  966POPC   C1A15315  36.147  43.903   8.564
  966POPC   D2A15316  36.159  43.933   8.264
  966POPC   C3A15317  36.172  43.930   7.964
  966POPC   C4A15318  36.130  43.932   7.664
  966POPC   C1B15319  36.317  44.011   8.564
  966POPC   C2B15320  36.397  44.025   8.264
  966POPC   C3B15321  36.334  43.998   7.964
  966POPC   C4B15322  36.373  43.958   7.664
  967POPC   NC315323  26.857  22.191   9.464
  967POPC   PO415324  26.778  22.160   9.164
  967POPC   GL115325  26.864  22.167   8.864
  967POPC   GL215326  26.750  22.181   8.864
  967POPC   C1A15327  26.768  22.134   8.564
  967POPC   D2A15328  26.834  22.148   8.264
  967POPC   C3A15329  26.837  22.134   7.964
  967POPC   C4A15330  26.843  22.132   7.664
  967POPC   C1B15331  26.645  22.297   8.564
  967POPC   C2B15332  26.566  22.297   8.264
  967POPC   C3B15333  26.609  22.314   7.964
  967POPC   C4B15334  26.622  22.255   7.664
  968POPC   NC315335  42.339  34.573   9.464
  968POPC   PO415336  42.294  34.626   9.164
  968POPC   GL115337  42.362  34.592   8.864
  968POPC   GL215338  42.176  34.557   8.864
  968POPC   C1A15339  42.351  34.577   8.564
  968POPC   D2A15340  42.295  34.566   8.264
  968POPC   C3A15341  42.371  34.557   7.964
  968POPC   C4A15342  42.329  34.577   7.664
  968POPC   C1B15343  42.038  34.615   8.564
  968POPC   C2B15344  42.113  34.584   8.264
  968POPC   C3B15345  42.125  34.602   7.964
  968POPC   C4B15346  42.106  34.589   7.664
  969POPC   NC315347  31.426  15.963   9.464
  969POPC   PO415348  31.444  15.913   9.164
  969POPC   GL115349  31.496  15.924   8.864
  969POPC   GL215350  31.399  16.029   8.864
  969POPC   C1A15351  31.487  15.995   8.564
  969POPC   D2A15352  31.473  15.992   8.264
  969POPC   C3A15353  31.443  16.003   7.964
  969POPC   C4A15354  31.423  15.921   7.664
  969POPC   C1B15355  31.199  16.099   8.564
  969POPC   C2B15356  31.214  16.051   8.264
  969POPC   C3B15357  31.206  16.072   7.964
  969POPC   C4B15358  31.277  16.030   7.664
  970POPC   NC315359  13.637  20.652   9.464
  970POPC   PO415360  13.659  20.602   9.164
  970POPC   GL115361  13.618  20.622   8.864
  970POPC   GL215362  13.717  20.628   8.864
  970POPC   C1A15363  13.600  20.648   8.564
  970POPC   D2A15364  13.585  20.583   8.264
  970POPC   C3A15365  13.595  20.613   7.964
  970POPC   C4A15366  13.594  20.590   7.664
  970POPC   C1B15367  13.845  20.647   8.564
  970POPC   C2B15368  13.841  20.558   8.264
  970POPC   C3B15369  13.921  20.646   7.964
  970POPC   C4B15370  13.891  20.579   7.664
  971POPC   NC315371  28.379   0.397   9.464
  971POPC   PO415372  28.366   0.447   9.164
  971POPC   GL115373  28.375   0.418   8.864
  971POPC   GL215374  28.492   0.433   8.864
  971POPC   C1A15375  28.404   0.456   8.564
  971POPC   D2A15376  28.394   0.451   8.264
  971POPC   C3A15377  28.325   0.421   7.964
  971POPC   C4A15378  28.332   0.396   7.664
  971POPC   C1B15379  28.575   0.370   8.564
  971POPC   C2B15380  28.569   0.378   8.264
  971POPC   C3B15381  28.586   0.350   7.964
  971POPC   C4B15382  28.590   0.391   7.664
  972POPC   NC315383   2.724  19.856   9.464
  972POPC   PO415384   2.778  19.785   9.164
  972POPC   GL115385   2.785  19.787   8.864
  972POPC   GL215386   2.786  19.718   8.864
  972POPC   C1A15387   2.740  19.832   8.564
  972POPC   D2A15388   2.730  19.868   8.264
  972POPC   C3A15389   2.803  19.812   7.964
  972POPC   C4A15390   2.736  19.830   7.664
  972POPC   C1B15391   2.797  19.588   8.564
  972POPC   C2B15392   2.752  19.605   8.264
  972POPC   C3B15393   2.773  19.623   7.964
  972POPC   C4B15394   2.831  19.623   7.664
  973POPC   NC315395  21.341  21.410   9.464
  973POPC   PO415396  21.364  21.380   9.164
  973POPC   GL115397  21.381  21.342   8.864
  973POPC   GL215398  21.263  21.314   8.864
  973POPC   C1A15399  21.365  21.364   8.564
  973POPC   D2A15400  21.367  21.363   8.264
  973POPC   C3A15401  21.423  21.343   7.964
  973POPC   C4A15402  21.374  21.369   7.664
  973POPC   C1B15403  21.250  21.177   8.564
  973POPC   C2B15404  21.197  21.170   8.264
  973POPC   C3B15405  21.176  21.216   7.964
  973POPC   C4B15406  21.229  21.203   7.664
  974POPC   NC315407  34.570  19.803   9.464
  974POPC   PO415408  34.535  19.857   9.164
  974POPC   GL115409  34.593  19.876   8.864
  974POPC   GL215410  34.665  19.807   8.864
  974POPC   C1A15411  34.575  19.808   8.564
  974POPC   D2A15412  34.573  19.815   8.264
  974POPC   C3A15413  34.605  19.866   7.964
  974POPC   C4A15414  34.625  19.821   7.664
  974POPC   C1B15415  34.788  19.700   8.564
  974POPC   C2B15416  34.751  19.737   8.264
  974POPC   C3B15417  34.806  19.652   7.964
  974POPC   C4B15418  34.758  19.697   7.664
  975POPC   NC315419  19.088  25.242   9.464
  975POPC   PO415420  19.054  25.229   9.164
  975POPC   GL115421  19.054  25.305   8.864
  975POPC   GL215422  19.200  25.301   8.864
  975POPC   C1A15423  19.035  25.231   8.564
  975POPC   D2A15424  19.024  25.289   8.264
  975POPC   C3A15425  19.108  25.257   7.964
  975POPC   C4A15426  19.037  25.283   7.664
  975POPC   C1B15427  19.337  25.281   8.564
  975POPC   C2B15428  19.283  25.283   8.264
  975POPC   C3B15429  19.266  25.351   7.964
  975POPC   C4B15430  19.299  25.325   7.664
  976POPC   NC315431  10.560   7.386   9.464
  976POPC   PO415432  10.497   7.375   9.164
  976POPC   GL115433  10.566   7.450   8.864
  976POPC   GL215434  10.556   7.569   8.864
  976POPC   C1A15435  10.569   7.388   8.564
  976POPC   D2A15436  10.521   7.466   8.264
  976POPC   C3A15437  10.525   7.412   7.964
  976POPC   C4A15438  10.483   7.396   7.664
  976POPC   C1B15439  10.711   7.668   8.564
  976POPC   C2B15440  10.688   7.593   8.264
  976POPC   C3B15441  10.662   7.625   7.964
  976POPC   C4B15442  10.670   7.649   7.664
  977POPC   NC315443  28.392  36.911   9.464
  977POPC   PO415444  28.326  36.873   9.164
  977POPC   GL115445  28.350  36.916   8.864
  977POPC   GL215446  28.457  36.920   8.864
  977POPC   C1A15447  28.399  36.914   8.564
  977POPC   D2A15448  28.369  36.891   8.264
  977POPC   C3A15449  28.401  36.943   7.964
  977POPC   C4A15450  28.322  36.903   7.664
  977POPC   C1B15451  28.635  36.866   8.564
  977POPC   C2B15452  28.659  36.837   8.264
  977POPC   C3B15453  28.631  36.841   7.964
  977POPC   C4B15454  28.615  36.886   7.664
  978POPC   NC315455  36.927   6.612   9.464
  978POPC   PO415456  36.868   6.596   9.164
  978POPC   GL115457  36.894   6.682   8.864
  978POPC   GL215458  36.864   6.550   8.864
  978POPC   C1A15459  36.917   6.611   8.564
  978POPC   D2A15460  36.912   6.676   8.264
  978POPC   C3A15461  36.915   6.597   7.964
  978POPC   C4A15462  36.933   6.616   7.664
  978POPC   C1B15463  36.723   6.454   8.564
  978POPC   C2B15464  36.798   6.440   8.264
  978POPC   C3B15465  36.732   6.401   7.964
  978POPC   C4B15466  36.790   6.467   7.664
  979POPC   NC315467  24.493   8.161   9.464
  979POPC   PO415468  24.500   8.155   9.164
  979POPC   GL115469  24.496   8.218   8.864
  979POPC   GL215470  24.524   8.274   8.864
  979POPC   C1A15471  24.449   8.232   8.564
  979POPC   D2A15472  24.446   8.229   8.264
  979POPC   C3A15473  24.505   8.158   7.964
  979POPC   C4A15474  24.535   8.212   7.664
  979POPC   C1B15475  24.647   8.395   8.564
  979POPC   C2B15476  24.626   8.368   8.264
  979POPC   C3B15477  24.623   8.401   7.964
  979POPC   C4B15478  24.582   8.391   7.664
  980POPC   NC315479  35.317  25.220   9.464
  980POPC   PO415480  35.318  25.231   9.164
  980POPC   GL115481  35.337  25.253   8.864
  980POPC   GL215482  35.361  25.138   8.864
  980POPC   C1A15483  35.396  25.224   8.564
  980POPC   D2A15484  35.390  25.257   8.264
  980POPC   C3A15485  35.330  25.220   7.964
  980POPC   C4A15486  35.343  25.253   7.664
  980POPC   C1B15487  35.496  25.073   8.564
  980POPC   C2B15488  35.415  25.047   8.264
  980POPC   C3B15489  35.496  25.021   7.964
  980POPC   C4B15490  35.490  25.044   7.664
  981POPC   NC315491  21.435  42.348   9.464
  981POPC   PO415492  21.351  42.324   9.164
  981POPC   GL115493  21.434  42.340   8.864
  981POPC   GL215494  21.274  42.284   8.864
  981POPC   C1A15495  21.337  42.321   8.564
  981POPC   D2A15496  21.366  42.343   8.264
  981POPC   C3A15497  21.382  42.330   7.964
  981POPC   C4A15498  21.388  42.375   7.664
  981POPC   C1B15499  21.171  42.163   8.564
  981POPC   C2B15500  21.159  42.165   8.264
  981POPC   C3B15501  21.159  42.177   7.964
  981POPC   C4B15502  21.248  42.197   7.664
  982POPC   NC315503   0.487  19.086   9.464
  982POPC   PO415504   0.458  19.051   9.164
  982POPC   GL115505   0.466  19.085   8.864
  982POPC   GL215506   0.539  18.974   8.864
  982POPC   C1A15507   0.431  19.036   8.564
  982POPC   D2A15508   0.416  19.090   8.264
  982POPC   C3A15509   0.488  19.045   7.964
  982POPC   C4A15510   0.445  19.053   7.664
  982POPC   C1B15511   0.675  18.938   8.564
  982POPC   C2B15512   0.665  19.004   8.264
  982POPC   C3B15513   0.704  18.992   7.964
  982POPC   C4B15514   0.717  18.937   7.664
  983POPC   NC315515  36.132  26.048   9.464
  983POPC   PO415516  36.142  26.082   9.164
  983POPC   GL115517  36.133  26.035   8.864
  983POPC   GL215518  36.176  26.189   8.864
  983POPC   C1A15519  36.119  26.066   8.564
  983POPC   D2A15520  36.091  26.012   8.264
  983POPC   C3A15521  36.162  26.019   7.964
  983POPC   C4A15522  36.124  26.039   7.664
  983POPC   C1B15523  36.173  26.288   8.564
  983POPC   C2B15524  36.209  26.337   8.264
  983POPC   C3B15525  36.195  26.273   7.964
  983POPC   C4B15526  36.175  26.257   7.664
  984POPC   NC315527   8.161  41.554   9.464
  984POPC   PO415528   8.214  41.569   9.164
  984POPC   GL115529   8.214  41.596   8.864
  984POPC   GL215530   8.046  41.541   8.864
  984POPC   C1A15531   8.238  41.535   8.564
  984POPC   D2A15532   8.217  41.580   8.264
  984POPC   C3A15533   8.219  41.520   7.964
  984POPC   C4A15534   8.169  41.535   7.664
  984POPC   C1B15535   7.931  41.508   8.564
  984POPC   C2B15536   7.937  41.501   8.264
  984POPC   C3B15537   7.974  41.466   7.964
  984POPC   C4B15538   7.980  41.466   7.664
  985POPC   NC315539  21.363   1.981   9.464
  985POPC   PO415540  21.407   1.965   9.164
  985POPC   GL115541  21.342   1.962   8.864
  985POPC   GL215542  21.549   2.024   8.864
  985POPC   C1A15543  21.363   2.002   8.564
  985POPC   D2A15544  21.378   2.021   8.264
  985POPC   C3A15545  21.370   1.997   7.964
  985POPC   C4A15546  21.427   2.009   7.664
  985POPC   C1B15547  21.643   2.123   8.564
  985POPC   C2B15548  21.645   2.057   8.264
  985POPC   C3B15549  21.595   2.041   7.964
  985POPC   C4B15550  21.573   2.108   7.664
  986POPC   NC315551  37.672   7.405   9.464
  986POPC   PO415552  37.652   7.408   9.164
  986POPC   GL115553  37.681   7.446   8.864
  986POPC   GL215554  37.817   7.438   8.864
  986POPC   C1A15555  37.658   7.378   8.564
  986POPC   D2A15556  37.681   7.388   8.264
  986POPC   C3A15557  37.695   7.433   7.964
  986POPC   C4A15558  37.687   7.459   7.664
  986POPC   C1B15559  37.968   7.401   8.564
  986POPC   C2B15560  37.966   7.477   8.264
  986POPC   C3B15561  37.894   7.424   7.964
  986POPC   C4B15562  37.894   7.431   7.664
  987POPC   NC315563  22.941  43.930   9.464
  987POPC   PO415564  22.893  43.935   9.164
  987POPC   GL115565  22.978  43.911   8.864
  987POPC   GL215566  22.772  43.857   8.864
  987POPC   C1A15567  22.948  43.902   8.564
  987POPC   D2A15568  22.940  43.867   8.264
  987POPC   C3A15569  22.957  43.903   7.964
  987POPC   C4A15570  22.926  43.886   7.664
  987POPC   C1B15571  22.728  43.842   8.564
  987POPC   C2B15572  22.650  43.840   8.264
  987POPC   C3B15573  22.692  43.872   7.964
  987POPC   C4B15574  22.701  43.777   7.664
  988POPC   NC315575   7.384   0.394   9.464
  988POPC   PO415576   7.389   0.455   9.164
  988POPC   GL115577   7.456   0.471   8.864
  988POPC   GL215578   7.337   0.532   8.864
  988POPC   C1A15579   7.442   0.408   8.564
  988POPC   D2A15580   7.416   0.432   8.264
  988POPC   C3A15581   7.464   0.414   7.964
  988POPC   C4A15582   7.436   0.392   7.664
  988POPC   C1B15583   7.355   0.681   8.564
  988POPC   C2B15584   7.317   0.643   8.264
  988POPC   C3B15585   7.319   0.622   7.964
  988POPC   C4B15586   7.365   0.692   7.664
  989POPC   NC315587  34.605   4.321   9.464
  989POPC   PO415588  34.624   4.297   9.164
  989POPC   GL115589  34.574   4.281   8.864
  989POPC   GL215590  34.448   4.313   8.864
  989POPC   C1A15591  34.569   4.288   8.564
  989POPC   D2A15592  34.599   4.358   8.264
  989POPC   C3A15593  34.542   4.365   7.964
  989POPC   C4A15594  34.626   4.328   7.664
  989POPC   C1B15595  34.293   4.394   8.564
  989POPC   C2B15596  34.359   4.348   8.264
  989POPC   C3B15597  34.374   4.363   7.964
  989POPC   C4B15598  34.283   4.333   7.664
  990POPC   NC315599  15.920  12.042   9.464
  990POPC   PO415600  15.998  12.105   9.164
  990POPC   GL115601  15.968  12.080   8.864
  990POPC   GL215602  15.827  12.117   8.864
  990POPC   C1A15603  15.967  12.052   8.564
  990POPC   D2A15604  15.973  12.097   8.264
  990POPC   C3A15605  15.913  12.039   7.964
  990POPC   C4A15606  15.946  12.088   7.664
  990POPC   C1B15607  15.710  12.201   8.564
  990POPC   C2B15608  15.753  12.167   8.264
  990POPC   C3B15609  15.764  12.160   7.964
  990POPC   C4B15610  15.764  12.224   7.664
  991POPC   NC315611  26.773   8.976   9.464
  991POPC   PO415612  26.846   8.989   9.164
  991POPC   GL115613  26.816   8.997   8.864
  991POPC   GL215614  26.925   8.954   8.864
  991POPC   C1A15615  26.841   9.001   8.564
  991POPC   D2A15616  26.859   8.982   8.264
  991POPC   C3A15617  26.790   8.934   7.964
  991POPC   C4A15618  26.855   8.987   7.664
  991POPC   C1B15619  27.017   8.920   8.564
  991POPC   C2B15620  27.089   8.915   8.264
  991POPC   C3B15621  27.027   8.897   7.964
  991POPC   C4B15622  27.028   8.919   7.664
  992POPC   NC315623  44.635   9.770   9.464
  992POPC   PO415624  44.642   9.783   9.164
  992POPC   GL115625  44.704   9.730   8.864
  992POPC   GL215626  44.586   9.665   8.864
  992POPC   C1A15627  44.613   9.756   8.564
  992POPC   D2A15628  44.613   9.767   8.264
  992POPC   C3A15629  44.670   9.751   7.964
  992POPC   C4A15630  44.682   9.698   7.664
  992POPC   C1B15631  44.471   9.605   8.564
  992POPC   C2B15632  44.443   9.685   8.264
  992POPC   C3B15633  44.414   9.665   7.964
  992POPC   C4B15634  44.472   9.676   7.664
  993POPC   NC315635  15.951  33.766   9.464
  993POPC   PO415636  15.989  33.822   9.164
  993POPC   GL115637  15.934  33.795   8.864
  993POPC   GL215638  15.810  33.878   8.864
  993POPC   C1A15639  15.960  33.771   8.564
  993POPC   D2A15640  15.977  33.833   8.264
  993POPC   C3A15641  15.947  33.836   7.964
  993POPC   C4A15642  15.958  33.789   7.664
  993POPC   C1B15643  15.670  33.873   8.564
  993POPC   C2B15644  15.686  33.846   8.264
  993POPC   C3B15645  15.748  33.891   7.964
  993POPC   C4B15646  15.761  33.833   7.664
  994POPC   NC315647   3.590   8.151   9.464
  994POPC   PO415648   3.533   8.201   9.164
  994POPC   GL115649   3.576   8.150   8.864
  994POPC   GL215650   3.557   8.076   8.864
  994POPC   C1A15651   3.500   8.189   8.564
  994POPC   D2A15652   3.575   8.235   8.264
  994POPC   C3A15653   3.551   8.164   7.964
  994POPC   C4A15654   3.562   8.220   7.664
  994POPC   C1B15655   3.616   7.981   8.564
  994POPC   C2B15656   3.625   7.988   8.264
  994POPC   C3B15657   3.577   7.955   7.964
  994POPC   C4B15658   3.629   7.920   7.664
  995POPC   NC315659  16.772  37.652   9.464
  995POPC   PO415660  16.752  37.698   9.164
  995POPC   GL115661  16.695  37.695   8.864
  995POPC   GL215662  16.749  37.549   8.864
  995POPC   C1A15663  16.724  37.657   8.564
  995POPC   D2A15664  16.765  37.656   8.264
  995POPC   C3A15665  16.691  37.636   7.964
  995POPC   C4A15666  16.724  37.687   7.664
  995POPC   C1B15667  16.732  37.447   8.564
  995POPC   C2B15668  16.675  37.395   8.264
  995POPC   C3B15669  16.698  37.444   7.964
  995POPC   C4B15670  16.677  37.442   7.664
  996POPC   NC315671  42.321  19.791   9.464
  996POPC   PO415672  42.356  19.788   9.164
  996POPC   GL115673  42.291  19.865   8.864
  996POPC   GL215674  42.280  19.972   8.864
  996POPC   C1A15675  42.288  19.802   8.564
  996POPC   D2A15676  42.302  19.873   8.264
  996POPC   C3A15677  42.355  19.871   7.964
  996POPC   C4A15678  42.357  19.826   7.664
  996POPC   C1B15679  42.262  20.026   8.564
  996POPC   C2B15680  42.265  20.073   8.264
  996POPC   C3B15681  42.218  20.060   7.964
  996POPC   C4B15682  42.244  20.042   7.664
  997POPC   NC315683  26.017   8.208   9.464
  997POPC   PO415684  26.091   8.241   9.164
  997POPC   GL115685  25.994   8.198   8.864
  997POPC   GL215686  26.002   8.316   8.864
  997POPC   C1A15687  26.038   8.164   8.564
  997POPC   D2A15688  26.043   8.180   8.264
  997POPC   C3A15689  26.077   8.165   7.964
  997POPC   C4A15690  26.023   8.234   7.664
  997POPC   C1B15691  25.901   8.408   8.564
  997POPC   C2B15692  25.846   8.329   8.264
  997POPC   C3B15693  25.859   8.334   7.964
  997POPC   C4B15694  25.864   8.414   7.664
  998POPC   NC315695  10.525  27.597   9.464
  998POPC   PO415696  10.507  27.613   9.164
  998POPC   GL115697  10.510  27.600   8.864
  998POPC   GL215698  10.646  27.584   8.864
  998POPC   C1A15699  10.516  27.561   8.564
  998POPC   D2A15700  10.493  27.621   8.264
  998POPC   C3A15701  10.551  27.616   7.964
  998POPC   C4A15702  10.477  27.623   7.664
  998POPC   C1B15703  10.774  27.513   8.564
  998POPC   C2B15704  10.730  27.521   8.264
  998POPC   C3B15705  10.775  27.514   7.964
  998POPC   C4B15706  10.715  27.514   7.664
  999POPC   NC315707  29.097  16.695   9.464
  999POPC   PO415708  29.195  16.724   9.164
  999POPC   GL115709  29.186  16.695   8.864
  999POPC   GL215710  29.039  16.673   8.864
  999POPC   C1A15711  29.122  16.764   8.564
  999POPC   D2A15712  29.140  16.722   8.264
  999POPC   C3A15713  29.121  16.705   7.964
  999POPC   C4A15714  29.152  16.733   7.664
  999POPC   C1B15715  28.916  16.568   8.564
  999POPC   C2B15716  28.929  16.532   8.264
  999POPC   C3B15717  28.919  16.551   7.964
  999POPC   C4B15718  28.938  16.520   7.664
 1000POPC   NC315719  41.540  43.900   9.464
 1000POPC   PO415720  41.565  43.846   9.164
 1000POPC   GL115721  41.547  43.905   8.864
 1000POPC   GL215722  41.577  44.016   8.864
 1000POPC   C1A15723  41.591  43.864   8.564
 1000POPC   D2A15724  41.548  43.882   8.264
 1000POPC   C3A15725  41.582  43.896   7.964
 1000POPC   C4A15726  41.513  43.888   7.664
 1000POPC   C1B15727  41.592  44.167   8.564
 1000POPC   C2B15728  41.590  44.163   8.264
 1000POPC   C3B15729  41.534  44.119   7.964
 1000POPC   C4B15730  41.591  44.154   7.664
 1001POPC   NC315731  28.369  12.873   9.464
 1001POPC   PO415732  28.388  12.806   9.164
 1001POPC   GL115733  28.358  12.870   8.864
 1001POPC   GL215734  28.409  12.983   8.864
 1001POPC   C1A15735  28.338  12.856   8.564
 1001POPC   D2A15736  28.386  12.830   8.264
 1001POPC   C3A15737  28.352  12.815   7.964
 1001POPC   C4A15738  28.322  12.813   7.664
 1001POPC   C1B15739  28.548  13.098   8.564
 1001POPC   C2B15740  28.466  13.069   8.264
 1001POPC   C3B15741  28.490  13.086   7.964
 1001POPC   C4B15742  28.526  13.061   7.664
 1002POPC   NC315743  29.120  17.512   9.464
 1002POPC   PO415744  29.168  17.466   9.164
 1002POPC   GL115745  29.151  17.494   8.864
 1002POPC   GL215746  29.224  17.534   8.864
 1002POPC   C1A15747  29.146  17.530   8.564
 1002POPC   D2A15748  29.162  17.553   8.264
 1002POPC   C3A15749  29.115  17.549   7.964
 1002POPC   C4A15750  29.184  17.512   7.664
 1002POPC   C1B15751  29.376  17.624   8.564
 1002POPC   C2B15752  29.352  17.693   8.264
 1002POPC   C3B15753  29.328  17.662   7.964
 1002POPC   C4B15754  29.304  17.615   7.664
 1003POPC   NC315755  22.903  40.733   9.464
 1003POPC   PO415756  22.915  40.818   9.164
 1003POPC   GL115757  22.918  40.740   8.864
 1003POPC   GL215758  23.063  40.832   8.864
 1003POPC   C1A15759  22.925  40.783   8.564
 1003POPC   D2A15760  22.969  40.793   8.264
 1003POPC   C3A15761  22.958  40.800   7.964
 1003POPC   C4A15762  22.968  40.766   7.664
 1003POPC   C1B15763  23.179  40.841   8.564
 1003POPC   C2B15764  23.166  40.872   8.264
 1003POPC   C3B15765  23.128  40.920   7.964
 1003POPC   C4B15766  23.116  40.912   7.664
 1004POPC   NC315767  43.856   1.196   9.464
 1004POPC   PO415768  43.936   1.187   9.164
 1004POPC   GL115769  43.893   1.190   8.864
 1004POPC   GL215770  43.765   1.136   8.864
 1004POPC   C1A15771  43.863   1.250   8.564
 1004POPC   D2A15772  43.879   1.192   8.264
 1004POPC   C3A15773  43.921   1.224   7.964
 1004POPC   C4A15774  43.905   1.243   7.664
 1004POPC   C1B15775  43.704   0.994   8.564
 1004POPC   C2B15776  43.691   0.973   8.264
 1004POPC   C3B15777  43.779   1.013   7.964
 1004POPC   C4B15778  43.696   1.062   7.664
 1005POPC   NC315779   2.812  43.097   9.464
 1005POPC   PO415780   2.787  43.159   9.164
 1005POPC   GL115781   2.724  43.130   8.864
 1005POPC   GL215782   2.671  43.169   8.864
 1005POPC   C1A15783   2.798  43.072   8.564
 1005POPC   D2A15784   2.764  43.099   8.264
 1005POPC   C3A15785   2.771  43.069   7.964
 1005POPC   C4A15786   2.795  43.083   7.664
 1005POPC   C1B15787   2.616  43.270   8.564
 1005POPC   C2B15788   2.569  43.279   8.264
 1005POPC   C3B15789   2.568  43.265   7.964
 1005POPC   C4B15790   2.540  43.274   7.664
 1006POPC   NC315791  32.258  23.747   9.464
 1006POPC   PO415792  32.275  23.677   9.164
 1006POPC   GL115793  32.201  23.664   8.864
 1006POPC   GL215794  32.327  23.794   8.864
 1006POPC   C1A15795  32.292  23.716   8.564
 1006POPC   D2A15796  32.227  23.726   8.264
 1006POPC   C3A15797  32.255  23.684   7.964
 1006POPC   C4A15798  32.259  23.763   7.664
 1006POPC   C1B15799  32.430  23.825   8.564
 1006POPC   C2B15800  32.492  23.799   8.264
 1006POPC   C3B15801  32.452  23.839   7.964
 1006POPC   C4B15802  32.431  23.798   7.664
 1007POPC   NC315803  32.982  42.366   9.464
 1007POPC   PO415804  33.051  42.291   9.164
 1007POPC   GL115805  33.013  42.285   8.864
 1007POPC   GL215806  33.197  42.392   8.864
 1007POPC   C1A15807  32.999  42.330   8.564
 1007POPC   D2A15808  33.019  42.285   8.264
 1007POPC   C3A15809  33.027  42.322   7.964
 1007POPC   C4A15810  33.051  42.286   7.664
 1007POPC   C1B15811  33.308  42.394   8.564
 1007POPC   C2B15812  33.312  42.346   8.264
 1007POPC   C3B15813  33.303  42.343   7.964
 1007POPC   C4B15814  33.291  42.405   7.664
 1008POPC   NC315815   5.873  17.473   9.464
 1008POPC   PO415816   5.858  17.485   9.164
 1008POPC   GL115817   5.892  17.500   8.864
 1008POPC   GL215818   5.739  17.447   8.864
 1008POPC   C1A15819   5.853  17.465   8.564
 1008POPC   D2A15820   5.885  17.491   8.264
 1008POPC   C3A15821   5.894  17.474   7.964
 1008POPC   C4A15822   5.847  17.476   7.664
 1008POPC   C1B15823   5.656  17.448   8.564
 1008POPC   C2B15824   5.632  17.395   8.264
 1008POPC   C3B15825   5.629  17.445   7.964
 1008POPC   C4B15826   5.671  17.434   7.664
 1009POPC   NC315827   3.498  34.582   9.464
 1009POPC   PO415828   3.536  34.611   9.164
 1009POPC   GL115829   3.541  34.614   8.864
 1009POPC   GL215830   3.486  34.477   8.864
 1009POPC   C1A15831   3.508  34.622   8.564
 1009POPC   D2A15832   3.590  34.565   8.264
 1009POPC   C3A15833   3.534  34.539   7.964
 1009POPC   C4A15834   3.511  34.597   7.664
 1009POPC   C1B15835   3.438  34.372   8.564
 1009POPC   C2B15836   3.425  34.369   8.264
 1009POPC   C3B15837   3.435  34.323   7.964
 1009POPC   C4B15838   3.450  34.335   7.664
 1010POPC   NC315839   1.213  22.185   9.464
 1010POPC   PO415840   1.236  22.190   9.164
 1010POPC   GL115841   1.186  22.182   8.864
 1010POPC   GL215842   1.150  22.323   8.864
 1010POPC   C1A15843   1.198  22.209   8.564
 1010POPC   D2A15844   1.236  22.207   8.264
 1010POPC   C3A15845   1.253  22.148   7.964
 1010POPC   C4A15846   1.176  22.147   7.664
 1010POPC   C1B15847   1.143  22.435   8.564
 1010POPC   C2B15848   1.139  22.368   8.264
 1010POPC   C3B15849   1.108  22.440   7.964
 1010POPC   C4B15850   1.149  22.366   7.664
 1011POPC   NC315851  13.615  14.416   9.464
 1011POPC   PO415852  13.618  14.365   9.164
 1011POPC   GL115853  13.581  14.422   8.864
 1011POPC   GL215854  13.797  14.399   8.864
 1011POPC   C1A15855  13.612  14.405   8.564
 1011POPC   D2A15856  13.662  14.445   8.264
 1011POPC   C3A15857  13.646  14.358   7.964
 1011POPC   C4A15858  13.634  14.393   7.664
 1011POPC   C1B15859  13.862  14.407   8.564
 1011POPC   C2B15860  13.918  14.403   8.264
 1011POPC   C3B15861  13.874  14.440   7.964
 1011POPC   C4B15862  13.858  14.490   7.664
 1012POPC   NC315863  30.677   0.423   9.464
 1012POPC   PO415864  30.713   0.467   9.164
 1012POPC   GL115865  30.732   0.430   8.864
 1012POPC   GL215866  30.574   0.555   8.864
 1012POPC   C1A15867  30.701   0.412   8.564
 1012POPC   D2A15868  30.690   0.433   8.264
 1012POPC   C3A15869  30.686   0.419   7.964
 1012POPC   C4A15870  30.720   0.475   7.664
 1012POPC   C1B15871  30.573   0.655   8.564
 1012POPC   C2B15872  30.573   0.670   8.264
 1012POPC   C3B15873  30.516   0.665   7.964
 1012POPC   C4B15874  30.527   0.631   7.664
 1013POPC   NC315875   7.466  37.631   9.464
 1013POPC   PO415876   7.376  37.643   9.164
 1013POPC   GL115877   7.448  37.670   8.864
 1013POPC   GL215878   7.569  37.740   8.864
 1013POPC   C1A15879   7.376  37.676   8.564
 1013POPC   D2A15880   7.387  37.702   8.264
 1013POPC   C3A15881   7.438  37.695   7.964
 1013POPC   C4A15882   7.406  37.690   7.664
 1013POPC   C1B15883   7.619  37.869   8.564
 1013POPC   C2B15884   7.636  37.828   8.264
 1013POPC   C3B15885   7.574  37.785   7.964
 1013POPC   C4B15886   7.641  37.841   7.664
 1014POPC   NC315887  43.128  25.275   9.464
 1014POPC   PO415888  43.150  25.267   9.164
 1014POPC   GL115889  43.112  25.252   8.864
 1014POPC   GL215890  43.021  25.147   8.864
 1014POPC   C1A15891  43.088  25.262   8.564
 1014POPC   D2A15892  43.087  25.275   8.264
 1014POPC   C3A15893  43.063  25.303   7.964
 1014POPC   C4A15894  43.136  25.239   7.664
 1014POPC   C1B15895  43.055  25.026   8.564
 1014POPC   C2B15896  43.045  25.002   8.264
 1014POPC   C3B15897  42.980  25.052   7.964
 1014POPC   C4B15898  43.002  25.052   7.664
 1015POPC   NC315899   1.255  32.201   9.464
 1015POPC   PO415900   1.191  32.231   9.164
 1015POPC   GL115901   1.232  32.254   8.864
 1015POPC   GL215902   1.121  32.324   8.864
 1015POPC   C1A15903   1.199  32.271   8.564
 1015POPC   D2A15904   1.250  32.205   8.264
 1015POPC   C3A15905   1.254  32.296   7.964
 1015POPC   C4A15906   1.261  32.204   7.664
 1015POPC   C1B15907   1.096  32.422   8.564
 1015POPC   C2B15908   1.058  32.480   8.264
 1015POPC   C3B15909   1.019  32.430   7.964
 1015POPC   C4B15910   1.097  32.461   7.664
 1016POPC   NC315911  40.043  24.472   9.464
 1016POPC   PO415912  40.048  24.445   9.164
 1016POPC   GL115913  40.047  24.472   8.864
 1016POPC   GL215914  39.926  24.614   8.864
 1016POPC   C1A15915  40.014  24.500   8.564
 1016POPC   D2A15916  40.055  24.493   8.264
 1016POPC   C3A15917  40.050  24.485   7.964
 1016POPC   C4A15918  39.968  24.538   7.664
 1016POPC   C1B15919  39.875  24.736   8.564
 1016POPC   C2B15920  39.958  24.685   8.264
 1016POPC   C3B15921  39.964  24.731   7.964
 1016POPC   C4B15922  39.933  24.702   7.664
 1017POPC   NC315923   6.633  32.223   9.464
 1017POPC   PO415924   6.641  32.273   9.164
 1017POPC   GL115925   6.673  32.225   8.864
 1017POPC   GL215926   6.659  32.159   8.864
 1017POPC   C1A15927   6.638  32.201   8.564
 1017POPC   D2A15928   6.647  32.270   8.264
 1017POPC   C3A15929   6.654  32.205   7.964
 1017POPC   C4A15930   6.662  32.204   7.664
 1017POPC   C1B15931   6.755  32.030   8.564
 1017POPC   C2B15932   6.716  31.960   8.264
 1017POPC   C3B15933   6.749  31.962   7.964
 1017POPC   C4B15934   6.677  32.057   7.664
 1018POPC   NC315935  22.149  13.665   9.464
 1018POPC   PO415936  22.155  13.672   9.164
 1018POPC   GL115937  22.209  13.586   8.864
 1018POPC   GL215938  22.218  13.773   8.864
 1018POPC   C1A15939  22.126  13.626   8.564
 1018POPC   D2A15940  22.154  13.628   8.264
 1018POPC   C3A15941  22.210  13.610   7.964
 1018POPC   C4A15942  22.132  13.655   7.664
 1018POPC   C1B15943  22.283  13.805   8.564
 1018POPC   C2B15944  22.304  13.848   8.264
 1018POPC   C3B15945  22.364  13.836   7.964
 1018POPC   C4B15946  22.338  13.847   7.664
 1019POPC   NC315947  19.837  11.277   9.464
 1019POPC   PO415948  19.823  11.334   9.164
 1019POPC   GL115949  19.836  11.312   8.864
 1019POPC   GL215950  19.927  11.435   8.864
 1019POPC   C1A15951  19.815  11.332   8.564
 1019POPC   D2A15952  19.853  11.346   8.264
 1019POPC   C3A15953  19.837  11.258   7.964
 1019POPC   C4A15954  19.834  11.349   7.664
 1019POPC   C1B15955  19.988  11.484   8.564
 1019POPC   C2B15956  19.976  11.515   8.264
 1019POPC   C3B15957  19.998  11.509   7.964
 1019POPC   C4B15958  20.046  11.494   7.664
 1020POPC   NC315959  12.048  21.349   9.464
 1020POPC   PO415960  12.029  21.337   9.164
 1020POPC   GL115961  12.103  21.404   8.864
 1020POPC   GL215962  12.137  21.297   8.864
 1020POPC   C1A15963  12.101  21.354   8.564
 1020POPC   D2A15964  12.070  21.356   8.264
 1020POPC   C3A15965  12.073  21.424   7.964
 1020POPC   C4A15966  12.081  21.407   7.664
 1020POPC   C1B15967  12.091  21.168   8.564
 1020POPC   C2B15968  12.139  21.122   8.264
 1020POPC   C3B15969  12.136  21.155   7.964
 1020POPC   C4B15970  12.143  21.098   7.664
 1021POPC   NC315971  29.967  14.410   9.464
 1021POPC   PO415972  29.946  14.421   9.164
 1021POPC   GL115973  29.919  14.411   8.864
 1021POPC   GL215974  30.059  14.485   8.864
 1021POPC   C1A15975  29.884  14.374   8.564
 1021POPC   D2A15976  29.967  14.355   8.264
 1021POPC   C3A15977  29.902  14.433   7.964
 1021POPC   C4A15978  29.920  14.452   7.664
 1021POPC   C1B15979  30.166  14.434   8.564
 1021POPC   C2B15980  30.112  14.517   8.264
 1021POPC   C3B15981  30.121  14.488   7.964
 1021POPC   C4B15982  30.180  14.487   7.664
 1022POPC   NC315983   3.537   8.981   9.464
 1022POPC   PO415984   3.495   9.022   9.164
 1022POPC   GL115985   3.554   8.946   8.864
 1022POPC   GL215986   3.468   8.808   8.864
 1022POPC   C1A15987   3.535   8.980   8.564
 1022POPC   D2A15988   3.557   8.955   8.264
 1022POPC   C3A15989   3.587   8.926   7.964
 1022POPC   C4A15990   3.522   8.955   7.664
 1022POPC   C1B15991   3.535   8.755   8.564
 1022POPC   C2B15992   3.466   8.747   8.264
 1022POPC   C3B15993   3.517   8.694   7.964
 1022POPC   C4B15994   3.452   8.732   7.664
 1023POPC   NC315995  23.706  13.583   9.464
 1023POPC   PO415996  23.697  13.652   9.164
 1023POPC   GL115997  23.736  13.635   8.864
 1023POPC   GL215998  23.590  13.627   8.864
 1023POPC   C1A15999  23.757  13.673   8.564
 1023POPC   D2A16000  23.731  13.670   8.264
 1023POPC   C3A16001  23.664  13.634   7.964
 1023POPC   C4A16002  23.745  13.654   7.664
 1023POPC   C1B16003  23.441  13.628   8.564
 1023POPC   C2B16004  23.423  13.618   8.264
 1023POPC   C3B16005  23.492  13.627   7.964
 1023POPC   C4B16006  23.471  13.655   7.664
 1024POPC   NC316007  13.607  23.695   9.464
 1024POPC   PO416008  13.651  23.695   9.164
 1024POPC   GL116009  13.631  23.702   8.864
 1024POPC   GL216010  13.679  23.814   8.864
 1024POPC   C1A16011  13.645  23.676   8.564
 1024POPC   D2A16012  13.600  23.728   8.264
 1024POPC   C3A16013  13.648  23.693   7.964
 1024POPC   C4A16014  13.665  23.674   7.664
 1024POPC   C1B16015  13.677  23.949   8.564
 1024POPC   C2B16016  13.630  24.010   8.264
 1024POPC   C3B16017  13.661  23.945   7.964
 1024POPC   C4B16018  13.684  23.985   7.664
 1025POPC   NC316019  40.759  40.055   9.464
 1025POPC   PO416020  40.737  40.004   9.164
 1025POPC   GL116021  40.818  39.999   8.864
 1025POPC   GL216022  40.905  40.114   8.864
 1025POPC   C1A16023  40.812  40.051   8.564
 1025POPC   D2A16024  40.745  40.011   8.264
 1025POPC   C3A16025  40.831  39.975   7.964
 1025POPC   C4A16026  40.817  39.987   7.664
 1025POPC   C1B16027  41.007  40.123   8.564
 1025POPC   C2B16028  41.000  40.139   8.264
 1025POPC   C3B16029  40.951  40.181   7.964
 1025POPC   C4B16030  40.974  40.113   7.664
 1026POPC   NC316031  16.728  34.577   9.464
 1026POPC   PO416032  16.753  34.538   9.164
 1026POPC   GL116033  16.756  34.542   8.864
 1026POPC   GL216034  16.710  34.643   8.864
 1026POPC   C1A16035  16.722  34.553   8.564
 1026POPC   D2A16036  16.764  34.620   8.264
 1026POPC   C3A16037  16.760  34.563   7.964
 1026POPC   C4A16038  16.751  34.588   7.664
 1026POPC   C1B16039  16.603  34.822   8.564
 1026POPC   C2B16040  16.654  34.832   8.264
 1026POPC   C3B16041  16.579  34.836   7.964
 1026POPC   C4B16042  16.643  34.802   7.664
 1027POPC   NC316043  19.858   1.227   9.464
 1027POPC   PO416044  19.801   1.207   9.164
 1027POPC   GL116045  19.844   1.181   8.864
 1027POPC   GL216046  19.811   1.320   8.864
 1027POPC   C1A16047  19.790   1.239   8.564
 1027POPC   D2A16048  19.877   1.180   8.264
 1027POPC   C3A16049  19.846   1.223   7.964
 1027POPC   C4A16050  19.848   1.168   7.664
 1027POPC   C1B16051  19.781   1.485   8.564
 1027POPC   C2B16052  19.811   1.502   8.264
 1027POPC   C3B16053  19.807   1.466   7.964
 1027POPC   C4B16054  19.753   1.473   7.664
 1028POPC   NC316055  17.505  23.708   9.464
 1028POPC   PO416056  17.490  23.666   9.164
 1028POPC   GL116057  17.556  23.748   8.864
 1028POPC   GL216058  17.391  23.832   8.864
 1028POPC   C1A16059  17.481  23.744   8.564
 1028POPC   D2A16060  17.522  23.674   8.264
 1028POPC   C3A16061  17.535  23.682   7.964
 1028POPC   C4A16062  17.528  23.698   7.664
 1028POPC   C1B16063  17.298  23.915   8.564
 1028POPC   C2B16064  17.350  23.886   8.264
 1028POPC   C3B16065  17.332  23.848   7.964
 1028POPC   C4B16066  17.290  23.874   7.664
 1029POPC   NC316067  44.651   3.536   9.464
 1029POPC   PO416068  44.665   3.547   9.164
 1029POPC   GL116069  44.639   3.529   8.864
 1029POPC   GL216070  44.577   3.519   8.864
 1029POPC   C1A16071  44.624   3.581   8.564
 1029POPC   D2A16072  44.628   3.503   8.264
 1029POPC   C3A16073  44.706   3.590   7.964
 1029POPC   C4A16074  44.618   3.586   7.664
 1029POPC   C1B16075  44.452   3.379   8.564
 1029POPC   C2B16076  44.482   3.380   8.264
 1029POPC   C3B16077  44.404   3.428   7.964
 1029POPC   C4B16078  44.400   3.462   7.664
 1030POPC   NC316079  33.014   1.180   9.464
 1030POPC   PO416080  33.072   1.215   9.164
 1030POPC   GL116081  32.995   1.207   8.864
 1030POPC   GL216082  32.884   1.155   8.864
 1030POPC   C1A16083  33.039   1.177   8.564
 1030POPC   D2A16084  32.987   1.242   8.264
 1030POPC   C3A16085  32.974   1.242   7.964
 1030POPC   C4A16086  33.064   1.240   7.664
 1030POPC   C1B16087  32.816   1.069   8.564
 1030POPC   C2B16088  32.755   1.121   8.264
 1030POPC   C3B16089  32.785   1.139   7.964
 1030POPC   C4B16090  32.833   1.108   7.664
 1031POPC   NC316091   5.886  33.015   9.464
 1031POPC   PO416092   5.825  32.991   9.164
 1031POPC   GL116093   5.830  32.999   8.864
 1031POPC   GL216094   5.842  33.108   8.864
 1031POPC   C1A16095   5.834  32.984   8.564
 1031POPC   D2A16096   5.897  33.007   8.264
 1031POPC   C3A16097   5.853  33.015   7.964
 1031POPC   C4A16098   5.864  33.029   7.664
 1031POPC   C1B16099   5.741  33.201   8.564
 1031POPC   C2B16100   5.809  33.227   8.264
 1031POPC   C3B16101   5.758  33.273   7.964
 1031POPC   C4B16102   5.743  33.276   7.664
 1032POPC   NC316103   5.875   5.853   9.464
 1032POPC   PO416104   5.872   5.919   9.164
 1032POPC   GL116105   5.841   5.899   8.864
 1032POPC   GL216106   5.741   5.899   8.864
 1032POPC   C1A16107   5.843   5.826   8.564
 1032POPC   D2A16108   5.864   5.884   8.264
 1032POPC   C3A16109   5.881   5.827   7.964
 1032POPC   C4A16110   5.869   5.843   7.664
 1032POPC   C1B16111   5.653   5.976   8.564
 1032POPC   C2B16112   5.602   5.927   8.264
 1032POPC   C3B16113   5.672   5.934   7.964
 1032POPC   C4B16114   5.676   5.950   7.664
 1033POPC   NC316115  44.622  26.771   9.464
 1033POPC   PO416116  44.708  26.832   9.164
 1033POPC   GL116117  44.649  26.824   8.864
 1033POPC   GL216118  44.689  26.718   8.864
 1033POPC   C1A16119  44.630  26.827   8.564
 1033POPC   D2A16120  44.672  26.813   8.264
 1033POPC   C3A16121  44.643  26.830   7.964
 1033POPC   C4A16122  44.672  26.797   7.664
 1033POPC   C1B16123  44.717  26.611   8.564
 1033POPC   C2B16124  44.707  26.566   8.264
 1033POPC   C3B16125  44.686  26.567   7.964
 1033POPC   C4B16126  44.698  26.579   7.664
 1034POPC   NC316127  16.723  21.414   9.464
 1034POPC   PO416128  16.780  21.349   9.164
 1034POPC   GL116129  16.741  21.339   8.864
 1034POPC   GL216130  16.874  21.478   8.864
 1034POPC   C1A16131  16.697  21.389   8.564
 1034POPC   D2A16132  16.753  21.380   8.264
 1034POPC   C3A16133  16.756  21.430   7.964
 1034POPC   C4A16134  16.700  21.406   7.664
 1034POPC   C1B16135  16.963  21.454   8.564
 1034POPC   C2B16136  16.924  21.448   8.264
 1034POPC   C3B16137  16.923  21.512   7.964
 1034POPC   C4B16138  17.000  21.507   7.664
 1035POPC   NC316139  14.395  39.969   9.464
 1035POPC   PO416140  14.386  39.996   9.164
 1035POPC   GL116141  14.369  40.006   8.864
 1035POPC   GL216142  14.306  40.083   8.864
 1035POPC   C1A16143  14.361  39.976   8.564
 1035POPC   D2A16144  14.433  40.044   8.264
 1035POPC   C3A16145  14.356  40.045   7.964
 1035POPC   C4A16146  14.382  39.960   7.664
 1035POPC   C1B16147  14.292  40.204   8.564
 1035POPC   C2B16148  14.209  40.252   8.264
 1035POPC   C3B16149  14.272  40.161   7.964
 1035POPC   C4B16150  14.264  40.163   7.664
 1036POPC   NC316151  19.803  24.490   9.464
 1036POPC   PO416152  19.874  24.444   9.164
 1036POPC   GL116153  19.809  24.538   8.864
 1036POPC   GL216154  19.924  24.483   8.864
 1036POPC   C1A16155  19.844  24.532   8.564
 1036POPC   D2A16156  19.792  24.455   8.264
 1036POPC   C3A16157  19.819  24.479   7.964
 1036POPC   C4A16158  19.859  24.443   7.664
 1036POPC   C1B16159  20.030  24.554   8.564
 1036POPC   C2B16160  20.103  24.560   8.264
 1036POPC   C3B16161  20.117  24.590   7.964
 1036POPC   C4B16162  20.124  24.605   7.664
 1037POPC   NC316163  36.918  43.934   9.464
 1037POPC   PO416164  36.923  43.869   9.164
 1037POPC   GL116165  36.859  43.890   8.864
 1037POPC   GL216166  36.838  43.726   8.864
 1037POPC   C1A16167  36.951  43.900   8.564
 1037POPC   D2A16168  36.919  43.843   8.264
 1037POPC   C3A16169  36.872  43.864   7.964
 1037POPC   C4A16170  36.888  43.857   7.664
 1037POPC   C1B16171  36.816  43.659   8.564
 1037POPC   C2B16172  36.847  43.704   8.264
 1037POPC   C3B16173  36.802  43.682   7.964
 1037POPC   C4B16174  36.826  43.704   7.664
 1038POPC   NC316175  13.671  26.015   9.464
 1038POPC   PO416176  13.670  25.992   9.164
 1038POPC   GL116177  13.605  26.058   8.864
 1038POPC   GL216178  13.692  26.138   8.864
 1038POPC   C1A16179  13.635  26.062   8.564
 1038POPC   D2A16180  13.671  26.079   8.264
 1038POPC   C3A16181  13.636  26.021   7.964
 1038POPC   C4A16182  13.659  26.031   7.664
 1038POPC   C1B16183  13.752  26.234   8.564
 1038POPC   C2B16184  13.722  26.315   8.264
 1038POPC   C3B16185  13.754  26.318   7.964
 1038POPC   C4B16186  13.675  26.314   7.664
 1039POPC   NC316187   0.401  22.132   9.464
 1039POPC   PO416188   0.411  22.127   9.164
 1039POPC   GL116189   0.484  22.138   8.864
 1039POPC   GL216190   0.438  22.294   8.864
 1039POPC   C1A16191   0.468  22.173   8.564
 1039POPC   D2A16192   0.444  22.170   8.264
 1039POPC   C3A16193   0.461  22.173   7.964
 1039POPC   C4A16194   0.398  22.136   7.664
 1039POPC   C1B16195   0.440  22.449   8.564
 1039POPC   C2B16196   0.435  22.402   8.264
 1039POPC   C3B16197   0.423  22.364   7.964
 1039POPC   C4B16198   0.451  22.391   7.664
 1040POPC   NC316199   6.603  19.823   9.464
 1040POPC   PO416200   6.599  19.859   9.164
 1040POPC   GL116201   6.652  19.853   8.864
 1040POPC   GL216202   6.764  19.902   8.864
 1040POPC   C1A16203   6.651  19.815   8.564
 1040POPC   D2A16204   6.683  19.832   8.264
 1040POPC   C3A16205   6.615  19.851   7.964
 1040POPC   C4A16206   6.647  19.875   7.664
 1040POPC   C1B16207   6.878  19.910   8.564
 1040POPC   C2B16208   6.845  19.967   8.264
 1040POPC   C3B16209   6.913  19.896   7.964
 1040POPC   C4B16210   6.852  19.948   7.664
 1041POPC   NC316211  11.255   7.452   9.464
 1041POPC   PO416212  11.250   7.405   9.164
 1041POPC   GL116213  11.305   7.372   8.864
 1041POPC   GL216214  11.406   7.384   8.864
 1041POPC   C1A16215  11.265   7.428   8.564
 1041POPC   D2A16216  11.276   7.409   8.264
 1041POPC   C3A16217  11.347   7.402   7.964
 1041POPC   C4A16218  11.336   7.427   7.664
 1041POPC   C1B16219  11.491   7.235   8.564
 1041POPC   C2B16220  11.512   7.269   8.264
 1041POPC   C3B16221  11.534   7.219   7.964
 1041POPC   C4B16222  11.520   7.264   7.664
 1042POPC   NC316223  15.188  15.909   9.464
 1042POPC   PO416224  15.214  15.944   9.164
 1042POPC   GL116225  15.217  15.962   8.864
 1042POPC   GL216226  15.292  15.935   8.864
 1042POPC   C1A16227  15.168  15.920   8.564
 1042POPC   D2A16228  15.171  15.982   8.264
 1042POPC   C3A16229  15.170  15.918   7.964
 1042POPC   C4A16230  15.210  15.914   7.664
 1042POPC   C1B16231  15.395  15.886   8.564
 1042POPC   C2B16232  15.434  15.877   8.264
 1042POPC   C3B16233  15.416  15.887   7.964
 1042POPC   C4B16234  15.372  15.848   7.664
 1043POPC   NC316235  18.273  20.644   9.464
 1043POPC   PO416236  18.275  20.593   9.164
 1043POPC   GL116237  18.233  20.648   8.864
 1043POPC   GL216238  18.235  20.524   8.864
 1043POPC   C1A16239  18.328  20.620   8.564
 1043POPC   D2A16240  18.243  20.604   8.264
 1043POPC   C3A16241  18.310  20.627   7.964
 1043POPC   C4A16242  18.319  20.581   7.664
 1043POPC   C1B16243  18.168  20.436   8.564
 1043POPC   C2B16244  18.205  20.416   8.264
 1043POPC   C3B16245  18.211  20.438   7.964
 1043POPC   C4B16246  18.155  20.424   7.664
 1044POPC   NC316247  36.872   9.784   9.464
 1044POPC   PO416248  36.933   9.767   9.164
 1044POPC   GL116249  36.930   9.721   8.864
 1044POPC   GL216250  36.982   9.599   8.864
 1044POPC   C1A16251  36.891   9.733   8.564
 1044POPC   D2A16252  36.948   9.735   8.264
 1044POPC   C3A16253  36.868   9.773   7.964
 1044POPC   C4A16254  36.910   9.795   7.664
 1044POPC   C1B16255  37.012   9.531   8.564
 1044POPC   C2B16256  36.932   9.539   8.264
 1044POPC   C3B16257  36.980   9.535   7.964
 1044POPC   C4B16258  36.929   9.489   7.664
 1045POPC   NC316259  32.225  38.496   9.464
 1045POPC   PO416260  32.277  38.433   9.164
 1045POPC   GL116261  32.208  38.477   8.864
 1045POPC   GL216262  32.234  38.610   8.864
 1045POPC   C1A16263  32.298  38.413   8.564
 1045POPC   D2A16264  32.270  38.438   8.264
 1045POPC   C3A16265  32.227  38.440   7.964
 1045POPC   C4A16266  32.250  38.487   7.664
 1045POPC   C1B16267  32.182  38.727   8.564
 1045POPC   C2B16268  32.140  38.659   8.264
 1045POPC   C3B16269  32.089  38.642   7.964
 1045POPC   C4B16270  32.091  38.722   7.664
 1046POPC   NC316271   9.792  22.937   9.464
 1046POPC   PO416272   9.777  22.889   9.164
 1046POPC   GL116273   9.715  22.937   8.864
 1046POPC   GL216274   9.603  22.924   8.864
 1046POPC   C1A16275   9.725  22.979   8.564
 1046POPC   D2A16276   9.746  22.937   8.264
 1046POPC   C3A16277   9.747  22.924   7.964
 1046POPC   C4A16278   9.763  22.948   7.664
 1046POPC   C1B16279   9.525  22.879   8.564
 1046POPC   C2B16280   9.471  22.804   8.264
 1046POPC   C3B16281   9.551  22.843   7.964
 1046POPC   C4B16282   9.540  22.850   7.664
 1047POPC   NC316283  29.918   5.820   9.464
 1047POPC   PO416284  29.908   5.890   9.164
 1047POPC   GL116285  29.924   5.907   8.864
 1047POPC   GL216286  29.817   5.751   8.864
 1047POPC   C1A16287  29.888   5.855   8.564
 1047POPC   D2A16288  29.896   5.882   8.264
 1047POPC   C3A16289  29.942   5.880   7.964
 1047POPC   C4A16290  29.969   5.904   7.664
 1047POPC   C1B16291  29.824   5.630   8.564
 1047POPC   C2B16292  29.767   5.635   8.264
 1047POPC   C3B16293  29.820   5.635   7.964
 1047POPC   C4B16294  29.823   5.651   7.664
 1048POPC   NC316295  13.675  22.186   9.464
 1048POPC   PO416296  13.582  22.185   9.164
 1048POPC   GL116297  13.591  22.144   8.864
 1048POPC   GL216298  13.626  22.032   8.864
 1048POPC   C1A16299  13.676  22.122   8.564
 1048POPC   D2A16300  13.602  22.167   8.264
 1048POPC   C3A16301  13.615  22.117   7.964
 1048POPC   C4A16302  13.604  22.182   7.664
 1048POPC   C1B16303  13.611  21.892   8.564
 1048POPC   C2B16304  13.526  21.877   8.264
 1048POPC   C3B16305  13.615  21.917   7.964
 1048POPC   C4B16306  13.529  21.872   7.664
 1049POPC   NC316307   1.959  30.686   9.464
 1049POPC   PO416308   1.940  30.732   9.164
 1049POPC   GL116309   1.970  30.670   8.864
 1049POPC   GL216310   1.965  30.829   8.864
 1049POPC   C1A16311   1.994  30.688   8.564
 1049POPC   D2A16312   1.994  30.746   8.264
 1049POPC   C3A16313   2.007  30.675   7.964
 1049POPC   C4A16314   2.004  30.691   7.664
 1049POPC   C1B16315   2.035  30.931   8.564
 1049POPC   C2B16316   2.034  30.935   8.264
 1049POPC   C3B16317   1.963  30.967   7.964
 1049POPC   C4B16318   2.003  30.904   7.664
 1050POPC   NC316319  17.514  27.623   9.464
 1050POPC   PO416320  17.495  27.638   9.164
 1050POPC   GL116321  17.459  27.639   8.864
 1050POPC   GL216322  17.377  27.716   8.864
 1050POPC   C1A16323  17.523  27.572   8.564
 1050POPC   D2A16324  17.522  27.609   8.264
 1050POPC   C3A16325  17.518  27.560   7.964
 1050POPC   C4A16326  17.502  27.619   7.664
 1050POPC   C1B16327  17.382  27.767   8.564
 1050POPC   C2B16328  17.345  27.747   8.264
 1050POPC   C3B16329  17.383  27.795   7.964
 1050POPC   C4B16330  17.301  27.818   7.664
 1051POPC   NC316331  30.696  33.793   9.464
 1051POPC   PO416332  30.738  33.769   9.164
 1051POPC   GL116333  30.692  33.848   8.864
 1051POPC   GL216334  30.710  33.681   8.864
 1051POPC   C1A16335  30.674  33.772   8.564
 1051POPC   D2A16336  30.679  33.791   8.264
 1051POPC   C3A16337  30.660  33.836   7.964
 1051POPC   C4A16338  30.690  33.765   7.664
 1051POPC   C1B16339  30.682  33.566   8.564
 1051POPC   C2B16340  30.624  33.577   8.264
 1051POPC   C3B16341  30.685  33.533   7.964
 1051POPC   C4B16342  30.682  33.582   7.664
 1052POPC   NC316343  37.679  43.133   9.464
 1052POPC   PO416344  37.678  43.114   9.164
 1052POPC   GL116345  37.652  43.066   8.864
 1052POPC   GL216346  37.782  43.205   8.864
 1052POPC   C1A16347  37.660  43.064   8.564
 1052POPC   D2A16348  37.689  43.103   8.264
 1052POPC   C3A16349  37.632  43.114   7.964
 1052POPC   C4A16350  37.665  43.085   7.664
 1052POPC   C1B16351  37.903  43.253   8.564
 1052POPC   C2B16352  37.882  43.288   8.264
 1052POPC   C3B16353  37.922  43.291   7.964
 1052POPC   C4B16354  37.918  43.308   7.664
 1053POPC   NC316355  22.117  15.948   9.464
 1053POPC   PO416356  22.186  15.963   9.164
 1053POPC   GL116357  22.142  15.931   8.864
 1053POPC   GL216358  22.124  16.011   8.864
 1053POPC   C1A16359  22.174  15.909   8.564
 1053POPC   D2A16360  22.194  15.907   8.264
 1053POPC   C3A16361  22.194  15.937   7.964
 1053POPC   C4A16362  22.131  15.908   7.664
 1053POPC   C1B16363  22.006  16.139   8.564
 1053POPC   C2B16364  22.051  16.163   8.264
 1053POPC   C3B16365  22.077  16.148   7.964
 1053POPC   C4B16366  22.065  16.201   7.664
 1054POPC   NC316367  12.047   2.037   9.464
 1054POPC   PO416368  12.076   2.009   9.164
 1054POPC   GL116369  12.040   2.039   8.864
 1054POPC   GL216370  12.165   1.942   8.864
 1054POPC   C1A16371  12.051   2.038   8.564
 1054POPC   D2A16372  12.087   1.961   8.264
 1054POPC   C3A16373  12.073   2.019   7.964
 1054POPC   C4A16374  12.054   2.032   7.664
 1054POPC   C1B16375  12.362   1.909   8.564
 1054POPC   C2B16376  12.299   1.930   8.264
 1054POPC   C3B16377  12.355   1.921   7.964
 1054POPC   C4B16378  12.331   1.864   7.664
 1055POPC   NC316379  24.475  22.940   9.464
 1055POPC   PO416380  24.497  22.977   9.164
 1055POPC   GL116381  24.500  22.977   8.864
 1055POPC   GL216382  24.587  22.812   8.864
 1055POPC   C1A16383  24.502  22.985   8.564
 1055POPC   D2A16384  24.512  22.903   8.264
 1055POPC   C3A16385  24.483  22.941   7.964
 1055POPC   C4A16386  24.481  22.945   7.664
 1055POPC   C1B16387  24.649  22.713   8.564
 1055POPC   C2B16388  24.621  22.772   8.264
 1055POPC   C3B16389  24.666  22.769   7.964
 1055POPC   C4B16390  24.683  22.723   7.664
 1056POPC   NC316391  12.885  37.684   9.464
 1056POPC   PO416392  12.872  37.727   9.164
 1056POPC   GL116393  12.835  37.677   8.864
 1056POPC   GL216394  12.829  37.806   8.864
 1056POPC   C1A16395  12.818  37.658   8.564
 1056POPC   D2A16396  12.825  37.679   8.264
 1056POPC   C3A16397  12.826  37.725   7.964
 1056POPC   C4A16398  12.859  37.631   7.664
 1056POPC   C1B16399  12.855  37.903   8.564
 1056POPC   C2B16400  12.834  37.953   8.264
 1056POPC   C3B16401  12.883  37.951   7.964
 1056POPC   C4B16402  12.897  37.972   7.664
 1057POPC   NC316403   3.524  31.516   9.464
 1057POPC   PO416404   3.570  31.487   9.164
 1057POPC   GL116405   3.589  31.522   8.864
 1057POPC   GL216406   3.547  31.343   8.864
 1057POPC   C1A16407   3.573  31.487   8.564
 1057POPC   D2A16408   3.493  31.467   8.264
 1057POPC   C3A16409   3.524  31.519   7.964
 1057POPC   C4A16410   3.586  31.505   7.664
 1057POPC   C1B16411   3.520  31.267   8.564
 1057POPC   C2B16412   3.502  31.208   8.264
 1057POPC   C3B16413   3.569  31.238   7.964
 1057POPC   C4B16414   3.503  31.193   7.664
 1058POPC   NC316415  43.927  34.621   9.464
 1058POPC   PO416416  43.920  34.550   9.164
 1058POPC   GL116417  43.849  34.547   8.864
 1058POPC   GL216418  43.998  34.603   8.864
 1058POPC   C1A16419  43.927  34.596   8.564
 1058POPC   D2A16420  43.921  34.548   8.264
 1058POPC   C3A16421  43.912  34.563   7.964
 1058POPC   C4A16422  43.921  34.558   7.664
 1058POPC   C1B16423  44.114  34.690   8.564
 1058POPC   C2B16424  44.130  34.649   8.264
 1058POPC   C3B16425  44.124  34.694   7.964
 1058POPC   C4B16426  44.155  34.711   7.664
 1059POPC   NC316427   5.860  24.507   9.464
 1059POPC   PO416428   5.914  24.479   9.164
 1059POPC   GL116429   5.919  24.537   8.864
 1059POPC   GL216430   5.899  24.594   8.864
 1059POPC   C1A16431   5.915  24.528   8.564
 1059POPC   D2A16432   5.859  24.539   8.264
 1059POPC   C3A16433   5.837  24.487   7.964
 1059POPC   C4A16434   5.874  24.470   7.664
 1059POPC   C1B16435   5.880  24.784   8.564
 1059POPC   C2B16436   5.888  24.707   8.264
 1059POPC   C3B16437   5.866  24.695   7.964
 1059POPC   C4B16438   5.799  24.773   7.664
 1060POPC   NC316439   8.194  36.137   9.464
 1060POPC   PO416440   8.230  36.107   9.164
 1060POPC   GL116441   8.210  36.098   8.864
 1060POPC   GL216442   8.189  35.986   8.864
 1060POPC   C1A16443   8.193  36.143   8.564
 1060POPC   D2A16444   8.227  36.145   8.264
 1060POPC   C3A16445   8.233  36.120   7.964
 1060POPC   C4A16446   8.200  36.164   7.664
 1060POPC   C1B16447   8.156  35.846   8.564
 1060POPC   C2B16448   8.217  35.908   8.264
 1060POPC   C3B16449   8.190  35.843   7.964
 1060POPC   C4B16450   8.170  35.867   7.664
 1061POPC   NC316451  40.036  16.738   9.464
 1061POPC   PO416452  39.982  16.748   9.164
 1061POPC   GL116453  39.973  16.720   8.864
 1061POPC   GL216454  39.913  16.851   8.864
 1061POPC   C1A16455  40.022  16.682   8.564
 1061POPC   D2A16456  39.988  16.748   8.264
 1061POPC   C3A16457  40.025  16.714   7.964
 1061POPC   C4A16458  40.012  16.743   7.664
 1061POPC   C1B16459  39.819  16.969   8.564
 1061POPC   C2B16460  39.895  16.945   8.264
 1061POPC   C3B16461  39.871  16.935   7.964
 1061POPC   C4B16462  39.841  16.987   7.664
 1062POPC   NC316463   9.770   4.345   9.464
 1062POPC   PO416464   9.707   4.293   9.164
 1062POPC   GL116465   9.788   4.359   8.864
 1062POPC   GL216466   9.632   4.292   8.864
 1062POPC   C1A16467   9.752   4.348   8.564
 1062POPC   D2A16468   9.702   4.336   8.264
 1062POPC   C3A16469   9.781   4.272   7.964
 1062POPC   C4A16470   9.782   4.312   7.664
 1062POPC   C1B16471   9.512   4.241   8.564
 1062POPC   C2B16472   9.522   4.198   8.264
 1062POPC   C3B16473   9.562   4.189   7.964
 1062POPC   C4B16474   9.503   4.215   7.664
 1063POPC   NC316475   2.743  12.105   9.464
 1063POPC   PO416476   2.815  12.042   9.164
 1063POPC   GL116477   2.746  12.082   8.864
 1063POPC   GL216478   2.880  12.035   8.864
 1063POPC   C1A16479   2.740  12.052   8.564
 1063POPC   D2A16480   2.717  12.123   8.264
 1063POPC   C3A16481   2.784  12.122   7.964
 1063POPC   C4A16482   2.741  12.086   7.664
 1063POPC   C1B16483   2.956  12.004   8.564
 1063POPC   C2B16484   3.036  11.930   8.264
 1063POPC   C3B16485   3.003  11.931   7.964
 1063POPC   C4B16486   2.983  11.985   7.664
 1064POPC   NC316487  12.875  40.819   9.464
 1064POPC   PO416488  12.805  40.806   9.164
 1064POPC   GL116489  12.875  40.792   8.864
 1064POPC   GL216490  12.933  40.650   8.864
 1064POPC   C1A16491  12.883  40.816   8.564
 1064POPC   D2A16492  12.838  40.828   8.264
 1064POPC   C3A16493  12.899  40.746   7.964
 1064POPC   C4A16494  12.834  40.818   7.664
 1064POPC   C1B16495  12.926  40.590   8.564
 1064POPC   C2B16496  13.006  40.553   8.264
 1064POPC   C3B16497  13.015  40.512   7.964
 1064POPC   C4B16498  12.928  40.589   7.664
 1065POPC   NC316499  29.130   5.106   9.464
 1065POPC   PO416500  29.176   5.070   9.164
 1065POPC   GL116501  29.154   5.076   8.864
 1065POPC   GL216502  29.102   5.195   8.864
 1065POPC   C1A16503  29.166   5.075   8.564
 1065POPC   D2A16504  29.114   5.120   8.264
 1065POPC   C3A16505  29.184   5.115   7.964
 1065POPC   C4A16506  29.141   5.139   7.664
 1065POPC   C1B16507  29.003   5.291   8.564
 1065POPC   C2B16508  28.995   5.319   8.264
 1065POPC   C3B16509  29.015   5.281   7.964
 1065POPC   C4B16510  28.999   5.286   7.664
 1066POPC   NC316511  12.095  25.270   9.464
 1066POPC   PO416512  12.106  25.301   9.164
 1066POPC   GL116513  12.082  25.230   8.864
 1066POPC   GL216514  12.210  25.238   8.864
 1066POPC   C1A16515  12.052  25.314   8.564
 1066POPC   D2A16516  12.064  25.279   8.264
 1066POPC   C3A16517  12.096  25.236   7.964
 1066POPC   C4A16518  12.089  25.278   7.664
 1066POPC   C1B16519  12.308  25.192   8.564
 1066POPC   C2B16520  12.280  25.139   8.264
 1066POPC   C3B16521  12.317  25.133   7.964
 1066POPC   C4B16522  12.333  25.172   7.664
 1067POPC   NC316523  38.437  17.464   9.464
 1067POPC   PO416524  38.448  17.509   9.164
 1067POPC   GL116525  38.450  17.496   8.864
 1067POPC   GL216526  38.554  17.479   8.864
 1067POPC   C1A16527  38.483  17.499   8.564
 1067POPC   D2A16528  38.446  17.516   8.264
 1067POPC   C3A16529  38.500  17.529   7.964
 1067POPC   C4A16530  38.442  17.538   7.664
 1067POPC   C1B16531  38.716  17.478   8.564
 1067POPC   C2B16532  38.738  17.542   8.264
 1067POPC   C3B16533  38.707  17.479   7.964
 1067POPC   C4B16534  38.755  17.514   7.664
 1068POPC   NC316535  27.610  28.397   9.464
 1068POPC   PO416536  27.632  28.329   9.164
 1068POPC   GL116537  27.587  28.337   8.864
 1068POPC   GL216538  27.640  28.477   8.864
 1068POPC   C1A16539  27.596  28.342   8.564
 1068POPC   D2A16540  27.545  28.365   8.264
 1068POPC   C3A16541  27.593  28.328   7.964
 1068POPC   C4A16542  27.620  28.373   7.664
 1068POPC   C1B16543  27.649  28.558   8.564
 1068POPC   C2B16544  27.661  28.628   8.264
 1068POPC   C3B16545  27.690  28.619   7.964
 1068POPC   C4B16546  27.651  28.646   7.664
 1069POPC   NC316547  19.101  29.146   9.464
 1069POPC   PO416548  19.103  29.109   9.164
 1069POPC   GL116549  19.101  29.112   8.864
 1069POPC   GL216550  18.955  29.130   8.864
 1069POPC   C1A16551  19.065  29.137   8.564
 1069POPC   D2A16552  19.021  29.164   8.264
 1069POPC   C3A16553  19.081  29.154   7.964
 1069POPC   C4A16554  19.043  29.147   7.664
 1069POPC   C1B16555  18.770  29.049   8.564
 1069POPC   C2B16556  18.850  29.105   8.264
 1069POPC   C3B16557  18.821  29.070   7.964
 1069POPC   C4B16558  18.842  29.130   7.664
 1070POPC   NC316559  23.740  40.022   9.464
 1070POPC   PO416560  23.704  40.030   9.164
 1070POPC   GL116561  23.764  39.958   8.864
 1070POPC   GL216562  23.873  39.910   8.864
 1070POPC   C1A16563  23.664  40.012   8.564
 1070POPC   D2A16564  23.693  39.966   8.264
 1070POPC   C3A16565  23.756  40.045   7.964
 1070POPC   C4A16566  23.727  39.964   7.664
 1070POPC   C1B16567  23.898  39.907   8.564
 1070POPC   C2B16568  23.950  39.942   8.264
 1070POPC   C3B16569  23.919  39.962   7.964
 1070POPC   C4B16570  23.966  39.927   7.664
 1071POPC   NC316571  14.434  36.153   9.464
 1071POPC   PO416572  14.406  36.159   9.164
 1071POPC   GL116573  14.384  36.078   8.864
 1071POPC   GL216574  14.419  36.232   8.864
 1071POPC   C1A16575  14.392  36.139   8.564
 1071POPC   D2A16576  14.453  36.170   8.264
 1071POPC   C3A16577  14.415  36.147   7.964
 1071POPC   C4A16578  14.436  36.170   7.664
 1071POPC   C1B16579  14.431  36.397   8.564
 1071POPC   C2B16580  14.529  36.408   8.264
 1071POPC   C3B16581  14.497  36.342   7.964
 1071POPC   C4B16582  14.454  36.344   7.664
 1072POPC   NC316583  19.056  21.405   9.464
 1072POPC   PO416584  19.100  21.402   9.164
 1072POPC   GL116585  19.085  21.389   8.864
 1072POPC   GL216586  19.068  21.501   8.864
 1072POPC   C1A16587  19.105  21.374   8.564
 1072POPC   D2A16588  19.009  21.396   8.264
 1072POPC   C3A16589  19.066  21.373   7.964
 1072POPC   C4A16590  19.072  21.415   7.664
 1072POPC   C1B16591  19.146  21.601   8.564
 1072POPC   C2B16592  19.139  21.648   8.264
 1072POPC   C3B16593  19.141  21.641   7.964
 1072POPC   C4B16594  19.112  21.658   7.664
 1073POPC   NC316595   0.417   7.430   9.464
 1073POPC   PO416596   0.470   7.435   9.164
 1073POPC   GL116597   0.450   7.406   8.864
 1073POPC   GL216598   0.434   7.588   8.864
 1073POPC   C1A16599   0.409   7.376   8.564
 1073POPC   D2A16600   0.473   7.413   8.264
 1073POPC   C3A16601   0.472   7.390   7.964
 1073POPC   C4A16602   0.430   7.379   7.664
 1073POPC   C1B16603   0.400   7.693   8.564
 1073POPC   C2B16604   0.424   7.631   8.264
 1073POPC   C3B16605   0.410   7.621   7.964
 1073POPC   C4B16606   0.393   7.668   7.664
 1074POPC   NC316607  38.409   5.842   9.464
 1074POPC   PO416608  38.422   5.872   9.164
 1074POPC   GL116609  38.472   5.897   8.864
 1074POPC   GL216610  38.377   5.806   8.864
 1074POPC   C1A16611  38.497   5.857   8.564
 1074POPC   D2A16612  38.495   5.856   8.264
 1074POPC   C3A16613  38.444   5.902   7.964
 1074POPC   C4A16614  38.409   5.832   7.664
 1074POPC   C1B16615  38.230   5.714   8.564
 1074POPC   C2B16616  38.275   5.762   8.264
 1074POPC   C3B16617  38.203   5.734   7.964
 1074POPC   C4B16618  38.276   5.687   7.664
 1075POPC   NC316619  23.667  22.122   9.464
 1075POPC   PO416620  23.720  22.123   9.164
 1075POPC   GL116621  23.751  22.183   8.864
 1075POPC   GL216622  23.676  22.012   8.864
 1075POPC   C1A16623  23.687  22.156   8.564
 1075POPC   D2A16624  23.683  22.173   8.264
 1075POPC   C3A16625  23.757  22.165   7.964
 1075POPC   C4A16626  23.669  22.153   7.664
 1075POPC   C1B16627  23.723  21.875   8.564
 1075POPC   C2B16628  23.661  21.896   8.264
 1075POPC   C3B16629  23.724  21.879   7.964
 1075POPC   C4B16630  23.667  21.902   7.664
 1076POPC   NC316631  28.368  22.958   9.464
 1076POPC   PO416632  28.330  22.971   9.164
 1076POPC   GL116633  28.383  22.931   8.864
 1076POPC   GL216634  28.264  22.972   8.864
 1076POPC   C1A16635  28.391  22.941   8.564
 1076POPC   D2A16636  28.334  22.943   8.264
 1076POPC   C3A16637  28.352  22.933   7.964
 1076POPC   C4A16638  28.333  22.900   7.664
 1076POPC   C1B16639  28.140  23.063   8.564
 1076POPC   C2B16640  28.161  23.071   8.264
 1076POPC   C3B16641  28.157  23.056   7.964
 1076POPC   C4B16642  28.138  23.104   7.664
 1077POPC   NC316643  12.820  13.670   9.464
 1077POPC   PO416644  12.861  13.676   9.164
 1077POPC   GL116645  12.829  13.630   8.864
 1077POPC   GL216646  12.911  13.488   8.864
 1077POPC   C1A16647  12.808  13.607   8.564
 1077POPC   D2A16648  12.865  13.630   8.264
 1077POPC   C3A16649  12.803  13.580   7.964
 1077POPC   C4A16650  12.850  13.596   7.664
 1077POPC   C1B16651  12.951  13.382   8.564
 1077POPC   C2B16652  12.930  13.371   8.264
 1077POPC   C3B16653  12.968  13.414   7.964
 1077POPC   C4B16654  12.954  13.407   7.664
 1078POPC   NC316655  42.308  31.447   9.464
 1078POPC   PO416656  42.294  31.520   9.164
 1078POPC   GL116657  42.294  31.480   8.864
 1078POPC   GL216658  42.309  31.643   8.864
 1078POPC   C1A16659  42.299  31.453   8.564
 1078POPC   D2A16660  42.358  31.490   8.264
 1078POPC   C3A16661  42.307  31.474   7.964
 1078POPC   C4A16662  42.304  31.423   7.664
 1078POPC   C1B16663  42.380  31.729   8.564
 1078POPC   C2B16664  42.372  31.757   8.264
 1078POPC   C3B16665  42.392  31.753   7.964
 1078POPC   C4B16666  42.343  31.731   7.664
 1079POPC   NC316667  43.067   0.479   9.464
 1079POPC   PO416668  43.085   0.451   9.164
 1079POPC   GL116669  43.129   0.437   8.864
 1079POPC   GL216670  43.266   0.451   8.864
 1079POPC   C1A16671  43.156   0.421   8.564
 1079POPC   D2A16672  43.067   0.468   8.264
 1079POPC   C3A16673  43.122   0.468   7.964
 1079POPC   C4A16674  43.150   0.430   7.664
 1079POPC   C1B16675  43.404   0.518   8.564
 1079POPC   C2B16676  43.311   0.465   8.264
 1079POPC   C3B16677  43.402   0.461   7.964
 1079POPC   C4B16678  43.388   0.442   7.664
 1080POPC   NC316679  13.644  21.434   9.464
 1080POPC   PO416680  13.676  21.423   9.164
 1080POPC   GL116681  13.617  21.359   8.864
 1080POPC   GL216682  13.698  21.482   8.864
 1080POPC   C1A16683  13.663  21.414   8.564
 1080POPC   D2A16684  13.674  21.434   8.264
 1080POPC   C3A16685  13.627  21.424   7.964
 1080POPC   C4A16686  13.671  21.373   7.664
 1080POPC   C1B16687  13.699  21.576   8.564
 1080POPC   C2B16688  13.669  21.610   8.264
 1080POPC   C3B16689  13.665  21.647   7.964
 1080POPC   C4B16690  13.683  21.657   7.664
 1081POPC   NC316691  34.548  14.420   9.464
 1081POPC   PO416692  34.563  14.418   9.164
 1081POPC   GL116693  34.610  14.392   8.864
 1081POPC   GL216694  34.510  14.502   8.864
 1081POPC   C1A16695  34.557  14.453   8.564
 1081POPC   D2A16696  34.579  14.452   8.264
 1081POPC   C3A16697  34.623  14.402   7.964
 1081POPC   C4A16698  34.559  14.413   7.664
 1081POPC   C1B16699  34.439  14.585   8.564
 1081POPC   C2B16700  34.455  14.587   8.264
 1081POPC   C3B16701  34.391  14.569   7.964
 1081POPC   C4B16702  34.450  14.579   7.664
 1082POPC   NC316703  20.613  12.902   9.464
 1082POPC   PO416704  20.585  12.852   9.164
 1082POPC   GL116705  20.578  12.814   8.864
 1082POPC   GL216706  20.597  12.998   8.864
 1082POPC   C1A16707  20.574  12.846   8.564
 1082POPC   D2A16708  20.634  12.885   8.264
 1082POPC   C3A16709  20.615  12.819   7.964
 1082POPC   C4A16710  20.600  12.818   7.664
 1082POPC   C1B16711  20.619  13.060   8.564
 1082POPC   C2B16712  20.632  13.129   8.264
 1082POPC   C3B16713  20.632  13.092   7.964
 1082POPC   C4B16714  20.666  13.137   7.664
 1083POPC   NC316715  36.866  29.099   9.464
 1083POPC   PO416716  36.890  29.129   9.164
 1083POPC   GL116717  36.892  29.105   8.864
 1083POPC   GL216718  36.740  29.189   8.864
 1083POPC   C1A16719  36.910  29.124   8.564
 1083POPC   D2A16720  36.922  29.154   8.264
 1083POPC   C3A16721  36.896  29.157   7.964
 1083POPC   C4A16722  36.881  29.139   7.664
 1083POPC   C1B16723  36.661  29.149   8.564
 1083POPC   C2B16724  36.653  29.145   8.264
 1083POPC   C3B16725  36.684  29.173   7.964
 1083POPC   C4B16726  36.617  29.207   7.664
 1084POPC   NC316727   0.486  11.341   9.464
 1084POPC   PO416728   0.401  11.261   9.164
 1084POPC   GL116729   0.421  11.339   8.864
 1084POPC   GL216730   0.501  11.227   8.864
 1084POPC   C1A16731   0.399  11.273   8.564
 1084POPC   D2A16732   0.486  11.291   8.264
 1084POPC   C3A16733   0.445  11.271   7.964
 1084POPC   C4A16734   0.452  11.313   7.664
 1084POPC   C1B16735   0.703  11.173   8.564
 1084POPC   C2B16736   0.673  11.166   8.264
 1084POPC   C3B16737   0.645  11.175   7.964
 1084POPC   C4B16738   0.609  11.169   7.664
 1085POPC   NC316739  38.473  40.758   9.464
 1085POPC   PO416740  38.482  40.815   9.164
 1085POPC   GL116741  38.467  40.787   8.864
 1085POPC   GL216742  38.349  40.691   8.864
 1085POPC   C1A16743  38.467  40.808   8.564
 1085POPC   D2A16744  38.468  40.824   8.264
 1085POPC   C3A16745  38.487  40.760   7.964
 1085POPC   C4A16746  38.452  40.786   7.664
 1085POPC   C1B16747  38.348  40.615   8.564
 1085POPC   C2B16748  38.327  40.579   8.264
 1085POPC   C3B16749  38.293  40.613   7.964
 1085POPC   C4B16750  38.297  40.560   7.664
 1086POPC   NC316751  30.719  22.913   9.464
 1086POPC   PO416752  30.712  22.903   9.164
 1086POPC   GL116753  30.696  22.963   8.864
 1086POPC   GL216754  30.598  22.805   8.864
 1086POPC   C1A16755  30.667  22.975   8.564
 1086POPC   D2A16756  30.724  22.983   8.264
 1086POPC   C3A16757  30.743  22.926   7.964
 1086POPC   C4A16758  30.653  22.947   7.664
 1086POPC   C1B16759  30.494  22.720   8.564
 1086POPC   C2B16760  30.557  22.720   8.264
 1086POPC   C3B16761  30.533  22.771   7.964
 1086POPC   C4B16762  30.566  22.795   7.664
 1087POPC   NC316763   8.209  12.838   9.464
 1087POPC   PO416764   8.193  12.803   9.164
 1087POPC   GL116765   8.176  12.890   8.864
 1087POPC   GL216766   8.365  12.820   8.864
 1087POPC   C1A16767   8.217  12.873   8.564
 1087POPC   D2A16768   8.208  12.830   8.264
 1087POPC   C3A16769   8.215  12.824   7.964
 1087POPC   C4A16770   8.224  12.839   7.664
 1087POPC   C1B16771   8.398  12.822   8.564
 1087POPC   C2B16772   8.452  12.806   8.264
 1087POPC   C3B16773   8.464  12.729   7.964
 1087POPC   C4B16774   8.481  12.776   7.664
 1088POPC   NC316775   4.341  36.897   9.464
 1088POPC   PO416776   4.280  36.866   9.164
 1088POPC   GL116777   4.343  36.938   8.864
 1088POPC   GL216778   4.380  36.807   8.864
 1088POPC   C1A16779   4.366  36.867   8.564
 1088POPC   D2A16780   4.299  36.946   8.264
 1088POPC   C3A16781   4.350  36.860   7.964
 1088POPC   C4A16782   4.277  36.944   7.664
 1088POPC   C1B16783   4.483  36.693   8.564
 1088POPC   C2B16784   4.412  36.741   8.264
 1088POPC   C3B16785   4.458  36.735   7.964
 1088POPC   C4B16786   4.470  36.649   7.664
 1089POPC   NC316787  41.584   5.078   9.464
 1089POPC   PO416788  41.523   5.065   9.164
 1089POPC   GL116789  41.514   5.123   8.864
 1089POPC   GL216790  41.453   5.138   8.864
 1089POPC   C1A16791  41.588   5.069   8.564
 1089POPC   D2A16792  41.544   5.067   8.264
 1089POPC   C3A16793  41.589   5.105   7.964
 1089POPC   C4A16794  41.537   5.090   7.664
 1089POPC   C1B16795  41.345   5.197   8.564
 1089POPC   C2B16796  41.332   5.186   8.264
 1089POPC   C3B16797  41.320   5.187   7.964
 1089POPC   C4B16798  41.347   5.193   7.664
 1090POPC   NC316799   9.003  22.902   9.464
 1090POPC   PO416800   9.003  22.969   9.164
 1090POPC   GL116801   8.969  22.894   8.864
 1090POPC   GL216802   9.068  22.852   8.864
 1090POPC   C1A16803   8.952  22.974   8.564
 1090POPC   D2A16804   8.964  22.951   8.264
 1090POPC   C3A16805   8.963  22.910   7.964
 1090POPC   C4A16806   8.996  22.903   7.664
 1090POPC   C1B16807   9.063  22.776   8.564
 1090POPC   C2B16808   9.119  22.712   8.264
 1090POPC   C3B16809   9.091  22.747   7.964
 1090POPC   C4B16810   9.109  22.725   7.664
 1091POPC   NC316811  12.056  36.934   9.464
 1091POPC   PO416812  12.121  36.896   9.164
 1091POPC   GL116813  12.066  36.902   8.864
 1091POPC   GL216814  12.152  36.894   8.864
 1091POPC   C1A16815  12.085  36.919   8.564
 1091POPC   D2A16816  12.038  36.946   8.264
 1091POPC   C3A16817  12.033  36.880   7.964
 1091POPC   C4A16818  12.044  36.928   7.664
 1091POPC   C1B16819  12.360  36.829   8.564
 1091POPC   C2B16820  12.303  36.829   8.264
 1091POPC   C3B16821  12.319  36.808   7.964
 1091POPC   C4B16822  12.288  36.811   7.664
 1092POPC   NC316823  19.029  33.037   9.464
 1092POPC   PO416824  19.106  33.070   9.164
 1092POPC   GL116825  19.015  32.975   8.864
 1092POPC   GL216826  18.997  33.110   8.864
 1092POPC   C1A16827  19.098  33.064   8.564
 1092POPC   D2A16828  19.076  33.057   8.264
 1092POPC   C3A16829  19.061  32.982   7.964
 1092POPC   C4A16830  19.017  33.047   7.664
 1092POPC   C1B16831  18.851  33.199   8.564
 1092POPC   C2B16832  18.848  33.132   8.264
 1092POPC   C3B16833  18.892  33.132   7.964
 1092POPC   C4B16834  18.891  33.178   7.664
 1093POPC   NC316835  29.924  26.834   9.464
 1093POPC   PO416836  29.909  26.833   9.164
 1093POPC   GL116837  29.960  26.860   8.864
 1093POPC   GL216838  30.003  26.949   8.864
 1093POPC   C1A16839  29.911  26.783   8.564
 1093POPC   D2A16840  29.969  26.839   8.264
 1093POPC   C3A16841  29.904  26.813   7.964
 1093POPC   C4A16842  29.966  26.769   7.664
 1093POPC   C1B16843  30.043  27.088   8.564
 1093POPC   C2B16844  30.020  27.076   8.264
 1093POPC   C3B16845  30.046  27.034   7.964
 1093POPC   C4B16846  30.065  27.031   7.664
 1094POPC   NC316847  40.020   8.934   9.464
 1094POPC   PO416848  40.050   8.946   9.164
 1094POPC   GL116849  40.000   8.986   8.864
 1094POPC   GL216850  40.096   9.052   8.864
 1094POPC   C1A16851  39.993   8.981   8.564
 1094POPC   D2A16852  40.010   8.951   8.264
 1094POPC   C3A16853  40.019   8.983   7.964
 1094POPC   C4A16854  39.958   9.020   7.664
 1094POPC   C1B16855  40.189   9.135   8.564
 1094POPC   C2B16856  40.220   9.129   8.264
 1094POPC   C3B16857  40.194   9.124   7.964
 1094POPC   C4B16858  40.237   9.175   7.664
 1095POPC   NC316859  42.381   2.770   9.464
 1095POPC   PO416860  42.361   2.810   9.164
 1095POPC   GL116861  42.356   2.783   8.864
 1095POPC   GL216862  42.307   2.597   8.864
 1095POPC   C1A16863  42.371   2.726   8.564
 1095POPC   D2A16864  42.333   2.730   8.264
 1095POPC   C3A16865  42.347   2.750   7.964
 1095POPC   C4A16866  42.373   2.815   7.664
 1095POPC   C1B16867  42.228   2.515   8.564
 1095POPC   C2B16868  42.265   2.564   8.264
 1095POPC   C3B16869  42.297   2.514   7.964
 1095POPC   C4B16870  42.223   2.487   7.664
 1096POPC   NC316871  31.492   7.386   9.464
 1096POPC   PO416872  31.453   7.409   9.164
 1096POPC   GL116873  31.505   7.458   8.864
 1096POPC   GL216874  31.403   7.515   8.864
 1096POPC   C1A16875  31.476   7.424   8.564
 1096POPC   D2A16876  31.487   7.431   8.264
 1096POPC   C3A16877  31.519   7.459   7.964
 1096POPC   C4A16878  31.498   7.392   7.664
 1096POPC   C1B16879  31.216   7.516   8.564
 1096POPC   C2B16880  31.294   7.537   8.264
 1096POPC   C3B16881  31.258   7.570   7.964
 1096POPC   C4B16882  31.278   7.588   7.664
 1097POPC   NC316883  36.939   7.372   9.464
 1097POPC   PO416884  36.884   7.469   9.164
 1097POPC   GL116885  36.908   7.392   8.864
 1097POPC   GL216886  36.759   7.395   8.864
 1097POPC   C1A16887  36.867   7.440   8.564
 1097POPC   D2A16888  36.877   7.433   8.264
 1097POPC   C3A16889  36.914   7.420   7.964
 1097POPC   C4A16890  36.894   7.431   7.664
 1097POPC   C1B16891  36.729   7.233   8.564
 1097POPC   C2B16892  36.703   7.296   8.264
 1097POPC   C3B16893  36.708   7.249   7.964
 1097POPC   C4B16894  36.740   7.271   7.664
 1098POPC   NC316895  43.935  12.050   9.464
 1098POPC   PO416896  43.933  12.054   9.164
 1098POPC   GL116897  43.844  12.099   8.864
 1098POPC   GL216898  43.786  12.198   8.864
 1098POPC   C1A16899  43.837  12.028   8.564
 1098POPC   D2A16900  43.935  12.096   8.264
 1098POPC   C3A16901  43.840  12.033   7.964
 1098POPC   C4A16902  43.924  12.049   7.664
 1098POPC   C1B16903  43.754  12.255   8.564
 1098POPC   C2B16904  43.759  12.285   8.264
 1098POPC   C3B16905  43.687  12.279   7.964
 1098POPC   C4B16906  43.739  12.307   7.664
 1099POPC   NC316907  13.676  42.373   9.464
 1099POPC   PO416908  13.604  42.378   9.164
 1099POPC   GL116909  13.618  42.368   8.864
 1099POPC   GL216910  13.522  42.362   8.864
 1099POPC   C1A16911  13.618  42.293   8.564
 1099POPC   D2A16912  13.622  42.299   8.264
 1099POPC   C3A16913  13.658  42.367   7.964
 1099POPC   C4A16914  13.591  42.375   7.664
 1099POPC   C1B16915  13.347  42.422   8.564
 1099POPC   C2B16916  13.349  42.433   8.264
 1099POPC   C3B16917  13.364  42.357   7.964
 1099POPC   C4B16918  13.407  42.391   7.664
 1100POPC   NC316919   4.325   3.521   9.464
 1100POPC   PO416920   4.366   3.518   9.164
 1100POPC   GL116921   4.341   3.557   8.864
 1100POPC   GL216922   4.398   3.587   8.864
 1100POPC   C1A16923   4.349   3.550   8.564
 1100POPC   D2A16924   4.308   3.569   8.264
 1100POPC   C3A16925   4.322   3.521   7.964
 1100POPC   C4A16926   4.340   3.564   7.664
 1100POPC   C1B16927   4.539   3.576   8.564
 1100POPC   C2B16928   4.582   3.580   8.264
 1100POPC   C3B16929   4.589   3.546   7.964
 1100POPC   C4B16930   4.585   3.559   7.664
 1101POPC   NC316931  20.562  16.720   9.464
 1101POPC   PO416932  20.622  16.681   9.164
 1101POPC   GL116933  20.575  16.763   8.864
 1101POPC   GL216934  20.687  16.654   8.864
 1101POPC   C1A16935  20.611  16.738   8.564
 1101POPC   D2A16936  20.570  16.772   8.264
 1101POPC   C3A16937  20.590  16.744   7.964
 1101POPC   C4A16938  20.605  16.727   7.664
 1101POPC   C1B16939  20.867  16.669   8.564
 1101POPC   C2B16940  20.813  16.645   8.264
 1101POPC   C3B16941  20.870  16.645   7.964
 1101POPC   C4B16942  20.846  16.698   7.664
 1102POPC   NC316943   2.002   3.549   9.464
 1102POPC   PO416944   1.951   3.547   9.164
 1102POPC   GL116945   2.024   3.563   8.864
 1102POPC   GL216946   2.119   3.647   8.864
 1102POPC   C1A16947   1.997   3.554   8.564
 1102POPC   D2A16948   2.032   3.501   8.264
 1102POPC   C3A16949   2.009   3.507   7.964
 1102POPC   C4A16950   1.985   3.527   7.664
 1102POPC   C1B16951   2.227   3.733   8.564
 1102POPC   C2B16952   2.196   3.721   8.264
 1102POPC   C3B16953   2.215   3.674   7.964
 1102POPC   C4B16954   2.154   3.646   7.664
 1103POPC   NC316955  26.005  27.597   9.464
 1103POPC   PO416956  26.030  27.625   9.164
 1103POPC   GL116957  26.074  27.598   8.864
 1103POPC   GL216958  26.065  27.692   8.864
 1103POPC   C1A16959  26.078  27.553   8.564
 1103POPC   D2A16960  26.068  27.587   8.264
 1103POPC   C3A16961  26.071  27.610   7.964
 1103POPC   C4A16962  26.050  27.563   7.664
 1103POPC   C1B16963  25.988  27.837   8.564
 1103POPC   C2B16964  25.974  27.851   8.264
 1103POPC   C3B16965  26.007  27.799   7.964
 1103POPC   C4B16966  26.071  27.869   7.664
 1104POPC   NC316967  17.537  12.096   9.464
 1104POPC   PO416968  17.550  12.056   9.164
 1104POPC   GL116969  17.531  12.057   8.864
 1104POPC   GL216970  17.563  11.929   8.864
 1104POPC   C1A16971  17.530  12.059   8.564
 1104POPC   D2A16972  17.459  12.113   8.264
 1104POPC   C3A16973  17.496  12.069   7.964
 1104POPC   C4A16974  17.490  12.105   7.664
 1104POPC   C1B16975  17.661  11.890   8.564
 1104POPC   C2B16976  17.653  11.882   8.264
 1104POPC   C3B16977  17.680  11.907   7.964
 1104POPC   C4B16978  17.639  11.893   7.664
 1105POPC   NC316979  43.099  32.274   9.464
 1105POPC   PO416980  43.069  32.218   9.164
 1105POPC   GL116981  43.160  32.226   8.864
 1105POPC   GL216982  43.031  32.340   8.864
 1105POPC   C1A16983  43.107  32.254   8.564
 1105POPC   D2A16984  43.078  32.290   8.264
 1105POPC   C3A16985  43.140  32.257   7.964
 1105POPC   C4A16986  43.106  32.245   7.664
 1105POPC   C1B16987  43.015  32.467   8.564
 1105POPC   C2B16988  43.064  32.507   8.264
 1105POPC   C3B16989  43.042  32.459   7.964
 1105POPC   C4B16990  43.000  32.453   7.664
 1106POPC   NC316991  27.611   5.066   9.464
 1106POPC   PO416992  27.582   5.099   9.164
 1106POPC   GL116993  27.609   5.117   8.864
 1106POPC   GL216994  27.721   5.060   8.864
 1106POPC   C1A16995  27.548   5.080   8.564
 1106POPC   D2A16996  27.588   5.111   8.264
 1106POPC   C3A16997  27.632   5.111   7.964
 1106POPC   C4A16998  27.559   5.063   7.664
 1106POPC   C1B16999  27.864   5.050   8.564
 1106POPC   C2B17000  27.823   5.029   8.264
 1106POPC   C3B17001  27.840   5.004   7.964
 1106POPC   C4B17002  27.861   5.034   7.664
 1107POPC   NC317003   0.437  36.906   9.464
 1107POPC   PO417004   0.476  36.911   9.164
 1107POPC   GL117005   0.394  36.894   8.864
 1107POPC   GL217006   0.506  36.994   8.864
 1107POPC   C1A17007   0.412  36.900   8.564
 1107POPC   D2A17008   0.391  36.952   8.264
 1107POPC   C3A17009   0.435  36.854   7.964
 1107POPC   C4A17010   0.434  36.899   7.664
 1107POPC   C1B17011   0.530  37.136   8.564
 1107POPC   C2B17012   0.532  37.123   8.264
 1107POPC   C3B17013   0.509  37.142   7.964
 1107POPC   C4B17014   0.495  37.174   7.664
 1108POPC   NC317015  37.689  15.158   9.464
 1108POPC   PO417016  37.647  15.200   9.164
 1108POPC   GL117017  37.656  15.183   8.864
 1108POPC   GL217018  37.657  15.089   8.864
 1108POPC   C1A17019  37.675  15.183   8.564
 1108POPC   D2A17020  37.711  15.201   8.264
 1108POPC   C3A17021  37.721  15.216   7.964
 1108POPC   C4A17022  37.629  15.181   7.664
 1108POPC   C1B17023  37.586  15.009   8.564
 1108POPC   C2B17024  37.586  14.977   8.264
 1108POPC   C3B17025  37.535  14.995   7.964
 1108POPC   C4B17026  37.536  14.937   7.664
 1109POPC   NC317027  17.484  26.815   9.464
 1109POPC   PO417028  17.492  26.830   9.164
 1109POPC   GL117029  17.474  26.841   8.864
 1109POPC   GL217030  17.444  26.678   8.864
 1109POPC   C1A17031  17.530  26.786   8.564
 1109POPC   D2A17032  17.495  26.821   8.264
 1109POPC   C3A17033  17.528  26.854   7.964
 1109POPC   C4A17034  17.468  26.864   7.664
 1109POPC   C1B17035  17.340  26.584   8.564
 1109POPC   C2B17036  17.318  26.682   8.264
 1109POPC   C3B17037  17.388  26.593   7.964
 1109POPC   C4B17038  17.298  26.628   7.664
 1110POPC   NC317039  12.036  16.718   9.464
 1110POPC   PO417040  12.094  16.709   9.164
 1110POPC   GL117041  12.090  16.724   8.864
 1110POPC   GL217042  12.038  16.866   8.864
 1110POPC   C1A17043  12.117  16.694   8.564
 1110POPC   D2A17044  12.029  16.703   8.264
 1110POPC   C3A17045  12.088  16.725   7.964
 1110POPC   C4A17046  12.072  16.691   7.664
 1110POPC   C1B17047  11.948  16.983   8.564
 1110POPC   C2B17048  11.933  16.990   8.264
 1110POPC   C3B17049  11.958  16.913   7.964
 1110POPC   C4B17050  11.918  16.939   7.664
 1111POPC   NC317051  13.583   3.528   9.464
 1111POPC   PO417052  13.676   3.542   9.164
 1111POPC   GL117053  13.677   3.546   8.864
 1111POPC   GL217054  13.663   3.663   8.864
 1111POPC   C1A17055  13.636   3.535   8.564
 1111POPC   D2A17056  13.616   3.559   8.264
 1111POPC   C3A17057  13.587   3.572   7.964
 1111POPC   C4A17058  13.589   3.571   7.664
 1111POPC   C1B17059  13.674   3.747   8.564
 1111POPC   C2B17060  13.652   3.829   8.264
 1111POPC   C3B17061  13.645   3.837   7.964
 1111POPC   C4B17062  13.629   3.823   7.664
 1112POPC   NC317063  28.330  25.248   9.464
 1112POPC   PO417064  28.386  25.251   9.164
 1112POPC   GL117065  28.394  25.262   8.864
 1112POPC   GL217066  28.433  25.338   8.864
 1112POPC   C1A17067  28.367  25.248   8.564
 1112POPC   D2A17068  28.393  25.251   8.264
 1112POPC   C3A17069  28.353  25.313   7.964
 1112POPC   C4A17070  28.325  25.227   7.664
 1112POPC   C1B17071  28.477  25.480   8.564
 1112POPC   C2B17072  28.491  25.528   8.264
 1112POPC   C3B17073  28.450  25.441   7.964
 1112POPC   C4B17074  28.459  25.535   7.664
 1113POPC   NC317075  28.412  36.152   9.464
 1113POPC   PO417076  28.381  36.084   9.164
 1113POPC   GL117077  28.343  36.150   8.864
 1113POPC   GL217078  28.405  35.991   8.864
 1113POPC   C1A17079  28.354  36.084   8.564
 1113POPC   D2A17080  28.327  36.081   8.264
 1113POPC   C3A17081  28.371  36.163   7.964
 1113POPC   C4A17082  28.345  36.143   7.664
 1113POPC   C1B17083  28.426  35.894   8.564
 1113POPC   C2B17084  28.346  35.903   8.264
 1113POPC   C3B17085  28.361  35.830   7.964
 1113POPC   C4B17086  28.429  35.853   7.664
 1114POPC   NC317087   1.192  36.863   9.464
 1114POPC   PO417088   1.204  36.934   9.164
 1114POPC   GL117089   1.225  36.885   8.864
 1114POPC   GL217090   1.172  37.003   8.864
 1114POPC   C1A17091   1.191  36.941   8.564
 1114POPC   D2A17092   1.206  36.948   8.264
 1114POPC   C3A17093   1.260  36.913   7.964
 1114POPC   C4A17094   1.262  36.901   7.664
 1114POPC   C1B17095   1.144  37.165   8.564
 1114POPC   C2B17096   1.199  37.155   8.264
 1114POPC   C3B17097   1.134  37.195   7.964
 1114POPC   C4B17098   1.187  37.176   7.664
 1115POPC   NC317099  22.986  13.653   9.464
 1115POPC   PO417100  22.963  13.611   9.164
 1115POPC   GL117101  22.977  13.646   8.864
 1115POPC   GL217102  22.827  13.603   8.864
 1115POPC   C1A17103  22.900  13.595   8.564
 1115POPC   D2A17104  22.902  13.657   8.264
 1115POPC   C3A17105  22.894  13.606   7.964
 1115POPC   C4A17106  22.891  13.590   7.664
 1115POPC   C1B17107  22.640  13.598   8.564
 1115POPC   C2B17108  22.672  13.659   8.264
 1115POPC   C3B17109  22.664  13.590   7.964
 1115POPC   C4B17110  22.721  13.669   7.664
 1116POPC   NC317111  23.762  28.348   9.464
 1116POPC   PO417112  23.741  28.376   9.164
 1116POPC   GL117113  23.700  28.350   8.864
 1116POPC   GL217114  23.851  28.279   8.864
 1116POPC   C1A17115  23.724  28.374   8.564
 1116POPC   D2A17116  23.709  28.418   8.264
 1116POPC   C3A17117  23.720  28.348   7.964
 1116POPC   C4A17118  23.703  28.365   7.664
 1116POPC   C1B17119  23.897  28.294   8.564
 1116POPC   C2B17120  23.955  28.272   8.264
 1116POPC   C3B17121  23.969  28.234   7.964
 1116POPC   C4B17122  23.925  28.265   7.664
 1117POPC   NC317123  41.582  44.660   9.464
 1117POPC   PO417124  41.576  44.638   9.164
 1117POPC   GL117125  41.547  44.629   8.864
 1117POPC   GL217126  41.655  44.739   8.864
 1117POPC   C1A17127  41.520  44.694   8.564
 1117POPC   D2A17128  41.539  44.658   8.264
 1117POPC   C3A17129  41.522  44.656   7.964
 1117POPC   C4A17130  41.531  44.621   7.664
 1117POPC   C1B17131  41.696  44.902   8.564
 1117POPC   C2B17132  41.669  44.836   8.264
 1117POPC   C3B17133  41.733  44.868   7.964
 1117POPC   C4B17134  41.713  44.893   7.664
 1118POPC   NC317135   4.296   5.836   9.464
 1118POPC   PO417136   4.322   5.915   9.164
 1118POPC   GL117137   4.342   5.847   8.864
 1118POPC   GL217138   4.283   5.716   8.864
 1118POPC   C1A17139   4.268   5.890   8.564
 1118POPC   D2A17140   4.317   5.863   8.264
 1118POPC   C3A17141   4.272   5.897   7.964
 1118POPC   C4A17142   4.346   5.902   7.664
 1118POPC   C1B17143   4.210   5.613   8.564
 1118POPC   C2B17144   4.240   5.655   8.264
 1118POPC   C3B17145   4.228   5.645   7.964
 1118POPC   C4B17146   4.242   5.661   7.664
 1119POPC   NC317147   1.224  26.835   9.464
 1119POPC   PO417148   1.224  26.837   9.164
 1119POPC   GL117149   1.219  26.817   8.864
 1119POPC   GL217150   1.286  26.853   8.864
 1119POPC   C1A17151   1.247  26.863   8.564
 1119POPC   D2A17152   1.211  26.785   8.264
 1119POPC   C3A17153   1.238  26.845   7.964
 1119POPC   C4A17154   1.190  26.859   7.664
 1119POPC   C1B17155   1.404  26.965   8.564
 1119POPC   C2B17156   1.492  26.874   8.264
 1119POPC   C3B17157   1.411  26.916   7.964
 1119POPC   C4B17158   1.454  26.965   7.664
 1120POPC   NC317159   9.731  35.326   9.464
 1120POPC   PO417160   9.701  35.377   9.164
 1120POPC   GL117161   9.774  35.395   8.864
 1120POPC   GL217162   9.672  35.396   8.864
 1120POPC   C1A17163   9.706  35.314   8.564
 1120POPC   D2A17164   9.745  35.312   8.264
 1120POPC   C3A17165   9.743  35.369   7.964
 1120POPC   C4A17166   9.754  35.373   7.664
 1120POPC   C1B17167   9.540  35.464   8.564
 1120POPC   C2B17168   9.512  35.464   8.264
 1120POPC   C3B17169   9.513  35.464   7.964
 1120POPC   C4B17170   9.559  35.478   7.664
 1121POPC   NC317171  31.446  34.529   9.464
 1121POPC   PO417172  31.436  34.618   9.164
 1121POPC   GL117173  31.522  34.600   8.864
 1121POPC   GL217174  31.416  34.540   8.864
 1121POPC   C1A17175  31.475  34.574   8.564
 1121POPC   D2A17176  31.496  34.569   8.264
 1121POPC   C3A17177  31.521  34.575   7.964
 1121POPC   C4A17178  31.448  34.617   7.664
 1121POPC   C1B17179  31.226  34.401   8.564
 1121POPC   C2B17180  31.263  34.459   8.264
 1121POPC   C3B17181  31.315  34.444   7.964
 1121POPC   C4B17182  31.297  34.424   7.664
 1122POPC   NC317183  33.791  24.472   9.464
 1122POPC   PO417184  33.801  24.517   9.164
 1122POPC   GL117185  33.813  24.524   8.864
 1122POPC   GL217186  33.762  24.596   8.864
 1122POPC   C1A17187  33.837  24.486   8.564
 1122POPC   D2A17188  33.825  24.446   8.264
 1122POPC   C3A17189  33.823  24.487   7.964
 1122POPC   C4A17190  33.799  24.463   7.664
 1122POPC   C1B17191  33.767  24.720   8.564
 1122POPC   C2B17192  33.847  24.780   8.264
 1122POPC   C3B17193  33.757  24.770   7.964
 1122POPC   C4B17194  33.790  24.737   7.664
 1123POPC   NC317195  22.159  26.091   9.464
 1123POPC   PO417196  22.118  26.071   9.164
 1123POPC   GL117197  22.131  26.011   8.864
 1123POPC   GL217198  22.248  25.936   8.864
 1123POPC   C1A17199  22.179  26.079   8.564
 1123POPC   D2A17200  22.203  26.083   8.264
 1123POPC   C3A17201  22.188  26.059   7.964
 1123POPC   C4A17202  22.188  26.066   7.664
 1123POPC   C1B17203  22.347  25.885   8.564
 1123POPC   C2B17204  22.342  25.800   8.264
 1123POPC   C3B17205  22.358  25.849   7.964
 1123POPC   C4B17206  22.274  25.833   7.664
 1124POPC   NC317207  44.701  12.089   9.464
 1124POPC   PO417208  44.620  12.056   9.164
 1124POPC   GL117209  44.710  12.091   8.864
 1124POPC   GL217210  44.708  12.194   8.864
 1124POPC   C1A17211  44.672  12.076   8.564
 1124POPC   D2A17212  44.660  12.081   8.264
 1124POPC   C3A17213  44.645  12.089   7.964
 1124POPC   C4A17214  44.632  12.078   7.664
 1124POPC   C1B17215  44.758  12.332   8.564
 1124POPC   C2B17216  44.773  12.317   8.264
 1124POPC   C3B17217  44.784  12.362   7.964
 1124POPC   C4B17218  44.743  12.339   7.664
 1125POPC   NC317219  19.108  31.423   9.464
 1125POPC   PO417220  19.023  31.521   9.164
 1125POPC   GL117221  19.045  31.509   8.864
 1125POPC   GL217222  19.162  31.609   8.864
 1125POPC   C1A17223  19.055  31.480   8.564
 1125POPC   D2A17224  19.038  31.519   8.264
 1125POPC   C3A17225  19.078  31.481   7.964
 1125POPC   C4A17226  19.093  31.489   7.664
 1125POPC   C1B17227  19.197  31.611   8.564
 1125POPC   C2B17228  19.255  31.660   8.264
 1125POPC   C3B17229  19.241  31.677   7.964
 1125POPC   C4B17230  19.210  31.619   7.664
 1126POPC   NC317231  18.264  10.573   9.464
 1126POPC   PO417232  18.315  10.499   9.164
 1126POPC   GL117233  18.290  10.541   8.864
 1126POPC   GL217234  18.295  10.367   8.864
 1126POPC   C1A17235  18.319  10.507   8.564
 1126POPC   D2A17236  18.278  10.500   8.264
 1126POPC   C3A17237  18.273  10.508   7.964
 1126POPC   C4A17238  18.323  10.560   7.664
 1126POPC   C1B17239  18.313  10.234   8.564
 1126POPC   C2B17240  18.273  10.255   8.264
 1126POPC   C3B17241  18.226  10.231   7.964
 1126POPC   C4B17242  18.297  10.233   7.664
 1127POPC   NC317243  21.419  12.804   9.464
 1127POPC   PO417244  21.429  12.823   9.164
 1127POPC   GL117245  21.364  12.876   8.864
 1127POPC   GL217246  21.376  12.955   8.864
 1127POPC   C1A17247  21.435  12.866   8.564
 1127POPC   D2A17248  21.344  12.853   8.264
 1127POPC   C3A17249  21.341  12.901   7.964
 1127POPC   C4A17250  21.371  12.899   7.664
 1127POPC   C1B17251  21.465  13.125   8.564
 1127POPC   C2B17252  21.467  13.125   8.264
 1127POPC   C3B17253  21.377  13.130   7.964
 1127POPC   C4B17254  21.427  13.145   7.664
 1128POPC   NC317255  16.765  29.134   9.464
 1128POPC   PO417256  16.778  29.170   9.164
 1128POPC   GL117257  16.717  29.185   8.864
 1128POPC   GL217258  16.894  29.174   8.864
 1128POPC   C1A17259  16.770  29.177   8.564
 1128POPC   D2A17260  16.722  29.110   8.264
 1128POPC   C3A17261  16.759  29.098   7.964
 1128POPC   C4A17262  16.775  29.104   7.664
 1128POPC   C1B17263  16.978  29.212   8.564
 1128POPC   C2B17264  17.004  29.163   8.264
 1128POPC   C3B17265  17.015  29.229   7.964
 1128POPC   C4B17266  16.958  29.193   7.664
 1129POPC   NC317267  43.117  27.631   9.464
 1129POPC   PO417268  43.154  27.564   9.164
 1129POPC   GL117269  43.111  27.617   8.864
 1129POPC   GL217270  42.969  27.598   8.864
 1129POPC   C1A17271  43.119  27.560   8.564
 1129POPC   D2A17272  43.103  27.549   8.264
 1129POPC   C3A17273  43.103  27.555   7.964
 1129POPC   C4A17274  43.118  27.609   7.664
 1129POPC   C1B17275  42.917  27.644   8.564
 1129POPC   C2B17276  42.876  27.622   8.264
 1129POPC   C3B17277  42.883  27.643   7.964
 1129POPC   C4B17278  42.845  27.686   7.664
 1130POPC   NC317279  40.810  44.612   9.464
 1130POPC   PO417280  40.821  44.679   9.164
 1130POPC   GL117281  40.801  44.634   8.864
 1130POPC   GL217282  40.688  44.723   8.864
 1130POPC   C1A17283  40.782  44.651   8.564
 1130POPC   D2A17284  40.771  44.711   8.264
 1130POPC   C3A17285  40.832  44.625   7.964
 1130POPC   C4A17286  40.765  44.655   7.664
 1130POPC   C1B17287  40.564  44.724   8.564
 1130POPC   C2B17288  40.502  44.685   8.264
 1130POPC   C3B17289  40.548  44.733   7.964
 1130POPC   C4B17290  40.552  44.684   7.664
 1131POPC   NC317291  25.254  29.886   9.464
 1131POPC   PO417292  25.258  29.882   9.164
 1131POPC   GL117293  25.308  29.903   8.864
 1131POPC   GL217294  25.185  30.033   8.864
 1131POPC   C1A17295  25.315  29.918   8.564
 1131POPC   D2A17296  25.301  29.912   8.264
 1131POPC   C3A17297  25.216  29.934   7.964
 1131POPC   C4A17298  25.245  29.963   7.664
 1131POPC   C1B17299  25.135  30.182   8.564
 1131POPC   C2B17300  25.123  30.184   8.264
 1131POPC   C3B17301  25.180  30.143   7.964
 1131POPC   C4B17302  25.106  30.090   7.664
 1132POPC   NC317303  29.168   8.236   9.464
 1132POPC   PO417304  29.185   8.167   9.164
 1132POPC   GL117305  29.126   8.218   8.864
 1132POPC   GL217306  29.158   8.080   8.864
 1132POPC   C1A17307  29.101   8.161   8.564
 1132POPC   D2A17308  29.185   8.212   8.264
 1132POPC   C3A17309  29.157   8.150   7.964
 1132POPC   C4A17310  29.107   8.151   7.664
 1132POPC   C1B17311  29.198   7.936   8.564
 1132POPC   C2B17312  29.217   7.922   8.264
 1132POPC   C3B17313  29.186   7.940   7.964
 1132POPC   C4B17314  29.159   7.924   7.664
 1133POPC   NC317315   0.436  26.791   9.464
 1133POPC   PO417316   0.420  26.808   9.164
 1133POPC   GL117317   0.415  26.850   8.864
 1133POPC   GL217318   0.489  26.672   8.864
 1133POPC   C1A17319   0.481  26.838   8.564
 1133POPC   D2A17320   0.475  26.769   8.264
 1133POPC   C3A17321   0.467  26.835   7.964
 1133POPC   C4A17322   0.399  26.839   7.664
 1133POPC   C1B17323   0.499  26.542   8.564
 1133POPC   C2B17324   0.414  26.557   8.264
 1133POPC   C3B17325   0.443  26.591   7.964
 1133POPC   C4B17326   0.499  26.534   7.664
 1134POPC   NC317327  35.395  10.566   9.464
 1134POPC   PO417328  35.320  10.572   9.164
 1134POPC   GL117329  35.395  10.493   8.864
 1134POPC   GL217330  35.302  10.583   8.864
 1134POPC   C1A17331  35.357  10.571   8.564
 1134POPC   D2A17332  35.391  10.548   8.264
 1134POPC   C3A17333  35.389  10.544   7.964
 1134POPC   C4A17334  35.355  10.499   7.664
 1134POPC   C1B17335  35.227  10.685   8.564
 1134POPC   C2B17336  35.188  10.702   8.264
 1134POPC   C3B17337  35.151  10.727   7.964
 1134POPC   C4B17338  35.146  10.742   7.664
 1135POPC   NC317339  16.694  23.713   9.464
 1135POPC   PO417340  16.747  23.664   9.164
 1135POPC   GL117341  16.704  23.721   8.864
 1135POPC   GL217342  16.615  23.643   8.864
 1135POPC   C1A17343  16.684  23.734   8.564
 1135POPC   D2A17344  16.774  23.722   8.264
 1135POPC   C3A17345  16.767  23.671   7.964
 1135POPC   C4A17346  16.682  23.671   7.664
 1135POPC   C1B17347  16.529  23.642   8.564
 1135POPC   C2B17348  16.476  23.620   8.264
 1135POPC   C3B17349  16.494  23.659   7.964
 1135POPC   C4B17350  16.472  23.568   7.664
 1136POPC   NC317351  43.840   6.617   9.464
 1136POPC   PO417352  43.917   6.624   9.164
 1136POPC   GL117353  43.897   6.632   8.864
 1136POPC   GL217354  43.935   6.809   8.864
 1136POPC   C1A17355  43.919   6.632   8.564
 1136POPC   D2A17356  43.870   6.651   8.264
 1136POPC   C3A17357  43.903   6.606   7.964
 1136POPC   C4A17358  43.899   6.624   7.664
 1136POPC   C1B17359  43.928   6.891   8.564
 1136POPC   C2B17360  43.922   6.918   8.264
 1136POPC   C3B17361  43.929   6.917   7.964
 1136POPC   C4B17362  43.952   6.937   7.664
 1137POPC   NC317363   2.790  36.114   9.464
 1137POPC   PO417364   2.729  36.090   9.164
 1137POPC   GL117365   2.771  36.158   8.864
 1137POPC   GL217366   2.903  36.019   8.864
 1137POPC   C1A17367   2.752  36.131   8.564
 1137POPC   D2A17368   2.743  36.130   8.264
 1137POPC   C3A17369   2.778  36.169   7.964
 1137POPC   C4A17370   2.787  36.131   7.664
 1137POPC   C1B17371   3.007  35.983   8.564
 1137POPC   C2B17372   2.943  35.929   8.264
 1137POPC   C3B17373   2.953  35.942   7.964
 1137POPC   C4B17374   2.931  35.950   7.664
 1138POPC   NC317375  18.320  37.690   9.464
 1138POPC   PO417376  18.287  37.676   9.164
 1138POPC   GL117377  18.234  37.650   8.864
 1138POPC   GL217378  18.306  37.511   8.864
 1138POPC   C1A17379  18.284  37.660   8.564
 1138POPC   D2A17380  18.279  37.701   8.264
 1138POPC   C3A17381  18.277  37.644   7.964
 1138POPC   C4A17382  18.236  37.650   7.664
 1138POPC   C1B17383  18.301  37.383   8.564
 1138POPC   C2B17384  18.298  37.428   8.264
 1138POPC   C3B17385  18.271  37.413   7.964
 1138POPC   C4B17386  18.269  37.439   7.664
 1139POPC   NC317387   9.699  22.150   9.464
 1139POPC   PO417388   9.793  22.187   9.164
 1139POPC   GL117389   9.701  22.208   8.864
 1139POPC   GL217390   9.627  22.039   8.864
 1139POPC   C1A17391   9.721  22.147   8.564
 1139POPC   D2A17392   9.759  22.182   8.264
 1139POPC   C3A17393   9.720  22.166   7.964
 1139POPC   C4A17394   9.746  22.117   7.664
 1139POPC   C1B17395   9.524  21.975   8.564
 1139POPC   C2B17396   9.570  22.029   8.264
 1139POPC   C3B17397   9.587  21.967   7.964
 1139POPC   C4B17398   9.552  21.949   7.664
 1140POPC   NC317399   0.401  36.145   9.464
 1140POPC   PO417400   0.423  36.080   9.164
 1140POPC   GL117401   0.465  36.086   8.864
 1140POPC   GL217402   0.416  36.249   8.864
 1140POPC   C1A17403   0.482  36.155   8.564
 1140POPC   D2A17404   0.454  36.097   8.264
 1140POPC   C3A17405   0.407  36.177   7.964
 1140POPC   C4A17406   0.420  36.113   7.664
 1140POPC   C1B17407   0.318  36.344   8.564
 1140POPC   C2B17408   0.306  36.399   8.264
 1140POPC   C3B17409   0.337  36.318   7.964
 1140POPC   C4B17410   0.381  36.344   7.664
 1141POPC   NC317411  10.543  22.984   9.464
 1141POPC   PO417412  10.549  22.974   9.164
 1141POPC   GL117413  10.571  22.975   8.864
 1141POPC   GL217414  10.510  22.766   8.864
 1141POPC   C1A17415  10.571  22.908   8.564
 1141POPC   D2A17416  10.571  22.949   8.264
 1141POPC   C3A17417  10.554  22.924   7.964
 1141POPC   C4A17418  10.478  22.913   7.664
 1141POPC   C1B17419  10.507  22.718   8.564
 1141POPC   C2B17420  10.559  22.647   8.264
 1141POPC   C3B17421  10.562  22.727   7.964
 1141POPC   C4B17422  10.576  22.712   7.664
 1142POPC   NC317423  30.727   7.452   9.464
 1142POPC   PO417424  30.694   7.387   9.164
 1142POPC   GL117425  30.739   7.394   8.864
 1142POPC   GL217426  30.580   7.370   8.864
 1142POPC   C1A17427  30.717   7.433   8.564
 1142POPC   D2A17428  30.690   7.453   8.264
 1142POPC   C3A17429  30.661   7.424   7.964
 1142POPC   C4A17430  30.730   7.411   7.664
 1142POPC   C1B17431  30.438   7.366   8.564
 1142POPC   C2B17432  30.495   7.444   8.264
 1142POPC   C3B17433  30.448   7.419   7.964
 1142POPC   C4B17434  30.434   7.385   7.664
 1143POPC   NC317435  33.052  44.638   9.464
 1143POPC   PO417436  33.068  44.621   9.164
 1143POPC   GL117437  33.005  44.698   8.864
 1143POPC   GL217438  33.166  44.597   8.864
 1143POPC   C1A17439  32.990  44.666   8.564
 1143POPC   D2A17440  33.034  44.668   8.264
 1143POPC   C3A17441  33.054  44.653   7.964
 1143POPC   C4A17442  33.054  44.661   7.664
 1143POPC   C1B17443  33.305  44.584   8.564
 1143POPC   C2B17444  33.269  44.611   8.264
 1143POPC   C3B17445  33.277  44.606   7.964
 1143POPC   C4B17446  33.269  44.615   7.664
 1144POPC   NC317447  22.148  26.837   9.464
 1144POPC   PO417448  22.128  26.861   9.164
 1144POPC   GL117449  22.128  26.767   8.864
 1144POPC   GL217450  22.265  26.858   8.864
 1144POPC   C1A17451  22.195  26.841   8.564
 1144POPC   D2A17452  22.135  26.849   8.264
 1144POPC   C3A17453  22.117  26.857   7.964
 1144POPC   C4A17454  22.162  26.822   7.664
 1144POPC   C1B17455  22.393  26.855   8.564
 1144POPC   C2B17456  22.386  26.932   8.264
 1144POPC   C3B17457  22.436  26.874   7.964
 1144POPC   C4B17458  22.391  26.923   7.664
 1145POPC   NC317459  16.714  31.488   9.464
 1145POPC   PO417460  16.740  31.506   9.164
 1145POPC   GL117461  16.730  31.514   8.864
 1145POPC   GL217462  16.823  31.319   8.864
 1145POPC   C1A17463  16.732  31.519   8.564
 1145POPC   D2A17464  16.689  31.520   8.264
 1145POPC   C3A17465  16.697  31.454   7.964
 1145POPC   C4A17466  16.705  31.429   7.664
 1145POPC   C1B17467  16.894  31.279   8.564
 1145POPC   C2B17468  16.840  31.267   8.264
 1145POPC   C3B17469  16.900  31.255   7.964
 1145POPC   C4B17470  16.903  31.254   7.664
 1146POPC   NC317471  30.716   5.916   9.464
 1146POPC   PO417472  30.674   5.901   9.164
 1146POPC   GL117473  30.689   5.858   8.864
 1146POPC   GL217474  30.641   5.931   8.864
 1146POPC   C1A17475  30.724   5.896   8.564
 1146POPC   D2A17476  30.709   5.877   8.264
 1146POPC   C3A17477  30.728   5.897   7.964
 1146POPC   C4A17478  30.660   5.831   7.664
 1146POPC   C1B17479  30.537   5.983   8.564
 1146POPC   C2B17480  30.540   6.017   8.264
 1146POPC   C3B17481  30.536   6.026   7.964
 1146POPC   C4B17482  30.510   6.034   7.664
 1147POPC   NC317483  40.801  24.457   9.464
 1147POPC   PO417484  40.805  24.487   9.164
 1147POPC   GL117485  40.770  24.453   8.864
 1147POPC   GL217486  40.927  24.536   8.864
 1147POPC   C1A17487  40.795  24.481   8.564
 1147POPC   D2A17488  40.822  24.516   8.264
 1147POPC   C3A17489  40.796  24.528   7.964
 1147POPC   C4A17490  40.812  24.454   7.664
 1147POPC   C1B17491  40.993  24.632   8.564
 1147POPC   C2B17492  41.025  24.626   8.264
 1147POPC   C3B17493  40.996  24.586   7.964
 1147POPC   C4B17494  41.013  24.610   7.664
 1148POPC   NC317495  36.889  44.640   9.464
 1148POPC   PO417496  36.948  44.696   9.164
 1148POPC   GL117497  36.922  44.659   8.864
 1148POPC   GL217498  36.867  44.585   8.864
 1148POPC   C1A17499  36.909  44.673   8.564
 1148POPC   D2A17500  36.915  44.692   8.264
 1148POPC   C3A17501  36.875  44.627   7.964
 1148POPC   C4A17502  36.885  44.644   7.664
 1148POPC   C1B17503  36.839  44.434   8.564
 1148POPC   C2B17504  36.816  44.454   8.264
 1148POPC   C3B17505  36.822  44.401   7.964
 1148POPC   C4B17506  36.849  44.461   7.664
 1149POPC   NC317507  21.346  29.098   9.464
 1149POPC   PO417508  21.427  29.096   9.164
 1149POPC   GL117509  21.338  29.116   8.864
 1149POPC   GL217510  21.285  29.028   8.864
 1149POPC   C1A17511  21.413  29.118   8.564
 1149POPC   D2A17512  21.347  29.119   8.264
 1149POPC   C3A17513  21.395  29.105   7.964
 1149POPC   C4A17514  21.412  29.131   7.664
 1149POPC   C1B17515  21.221  29.023   8.564
 1149POPC   C2B17516  21.154  29.016   8.264
 1149POPC   C3B17517  21.229  28.990   7.964
 1149POPC   C4B17518  21.239  28.971   7.664
 1150POPC   NC317519  43.099  22.923   9.464
 1150POPC   PO417520  43.139  22.966   9.164
 1150POPC   GL117521  43.125  22.930   8.864
 1150POPC   GL217522  43.114  22.857   8.864
 1150POPC   C1A17523  43.160  22.975   8.564
 1150POPC   D2A17524  43.123  22.913   8.264
 1150POPC   C3A17525  43.121  22.983   7.964
 1150POPC   C4A17526  43.145  22.948   7.664
 1150POPC   C1B17527  43.174  22.721   8.564
 1150POPC   C2B17528  43.218  22.698   8.264
 1150POPC   C3B17529  43.200  22.708   7.964
 1150POPC   C4B17530  43.154  22.667   7.664
 1151POPC   NC317531  19.083   8.220   9.464
 1151POPC   PO417532  19.088   8.178   9.164
 1151POPC   GL117533  19.078   8.183   8.864
 1151POPC   GL217534  19.113   8.351   8.864
 1151POPC   C1A17535  19.102   8.201   8.564
 1151POPC   D2A17536  19.042   8.148   8.264
 1151POPC   C3A17537  19.097   8.224   7.964
 1151POPC   C4A17538  19.079   8.240   7.664
 1151POPC   C1B17539  19.089   8.471   8.564
 1151POPC   C2B17540  19.049   8.451   8.264
 1151POPC   C3B17541  19.110   8.424   7.964
 1151POPC   C4B17542  19.093   8.455   7.664
 1152POPC   NC317543  42.335  25.262   9.464
 1152POPC   PO417544  42.321  25.238   9.164
 1152POPC   GL117545  42.314  25.242   8.864
 1152POPC   GL217546  42.368  25.125   8.864
 1152POPC   C1A17547  42.367  25.271   8.564
 1152POPC   D2A17548  42.288  25.218   8.264
 1152POPC   C3A17549  42.380  25.265   7.964
 1152POPC   C4A17550  42.285  25.266   7.664
 1152POPC   C1B17551  42.475  25.075   8.564
 1152POPC   C2B17552  42.445  25.001   8.264
 1152POPC   C3B17553  42.421  25.089   7.964
 1152POPC   C4B17554  42.459  25.015   7.664
 1153POPC   NC317555   9.731  41.524   9.464
 1153POPC   PO417556   9.768  41.566   9.164
 1153POPC   GL117557   9.729  41.562   8.864
 1153POPC   GL217558   9.667  41.417   8.864
 1153POPC   C1A17559   9.795  41.590   8.564
 1153POPC   D2A17560   9.782  41.593   8.264
 1153POPC   C3A17561   9.753  41.563   7.964
 1153POPC   C4A17562   9.775  41.585   7.664
 1153POPC   C1B17563   9.620  41.375   8.564
 1153POPC   C2B17564   9.627  41.380   8.264
 1153POPC   C3B17565   9.614  41.422   7.964
 1153POPC   C4B17566   9.600  41.372   7.664
 1154POPC   NC317567  23.678  11.253   9.464
 1154POPC   PO417568  23.709  11.299   9.164
 1154POPC   GL117569  23.677  11.327   8.864
 1154POPC   GL217570  23.694  11.411   8.864
 1154POPC   C1A17571  23.698  11.306   8.564
 1154POPC   D2A17572  23.682  11.292   8.264
 1154POPC   C3A17573  23.703  11.267   7.964
 1154POPC   C4A17574  23.754  11.252   7.664
 1154POPC   C1B17575  23.625  11.580   8.564
 1154POPC   C2B17576  23.669  11.526   8.264
 1154POPC   C3B17577  23.687  11.514   7.964
 1154POPC   C4B17578  23.706  11.510   7.664
 1155POPC   NC317579   1.943   1.980   9.464
 1155POPC   PO417580   2.021   1.953   9.164
 1155POPC   GL117581   1.978   1.986   8.864
 1155POPC   GL217582   1.983   2.088   8.864
 1155POPC   C1A17583   1.963   1.987   8.564
 1155POPC   D2A17584   1.979   2.036   8.264
 1155POPC   C3A17585   1.995   2.015   7.964
 1155POPC   C4A17586   2.005   2.012   7.664
 1155POPC   C1B17587   1.910   2.197   8.564
 1155POPC   C2B17588   1.881   2.200   8.264
 1155POPC   C3B17589   1.888   2.201   7.964
 1155POPC   C4B17590   1.947   2.232   7.664
 1156POPC   NC317591  41.584   9.022   9.464
 1156POPC   PO417592  41.513   8.959   9.164
 1156POPC   GL117593  41.585   8.974   8.864
 1156POPC   GL217594  41.659   9.035   8.864
 1156POPC   C1A17595  41.520   8.950   8.564
 1156POPC   D2A17596  41.600   8.974   8.264
 1156POPC   C3A17597  41.541   8.990   7.964
 1156POPC   C4A17598  41.577   8.942   7.664
 1156POPC   C1B17599  41.757   9.023   8.564
 1156POPC   C2B17600  41.832   9.001   8.264
 1156POPC   C3B17601  41.821   9.026   7.964
 1156POPC   C4B17602  41.775   9.020   7.664
 1157POPC   NC317603  32.250  25.219   9.464
 1157POPC   PO417604  32.284  25.232   9.164
 1157POPC   GL117605  32.276  25.313   8.864
 1157POPC   GL217606  32.155  25.180   8.864
 1157POPC   C1A17607  32.272  25.297   8.564
 1157POPC   D2A17608  32.285  25.246   8.264
 1157POPC   C3A17609  32.239  25.312   7.964
 1157POPC   C4A17610  32.241  25.300   7.664
 1157POPC   C1B17611  32.053  25.063   8.564
 1157POPC   C2B17612  32.085  25.083   8.264
 1157POPC   C3B17613  32.012  25.117   7.964
 1157POPC   C4B17614  32.016  25.131   7.664
 1158POPC   NC317615  28.338  31.509   9.464
 1158POPC   PO417616  28.339  31.450   9.164
 1158POPC   GL117617  28.408  31.468   8.864
 1158POPC   GL217618  28.506  31.372   8.864
 1158POPC   C1A17619  28.324  31.436   8.564
 1158POPC   D2A17620  28.345  31.482   8.264
 1158POPC   C3A17621  28.345  31.491   7.964
 1158POPC   C4A17622  28.370  31.463   7.664
 1158POPC   C1B17623  28.619  31.334   8.564
 1158POPC   C2B17624  28.585  31.341   8.264
 1158POPC   C3B17625  28.550  31.392   7.964
 1158POPC   C4B17626  28.555  31.345   7.664
 1159POPC   NC317627  28.394  44.661   9.464
 1159POPC   PO417628  28.406  44.660   9.164
 1159POPC   GL117629  28.393  44.636   8.864
 1159POPC   GL217630  28.330  44.835   8.864
 1159POPC   C1A17631  28.333  44.667   8.564
 1159POPC   D2A17632  28.402  44.711   8.264
 1159POPC   C3A17633  28.329  44.620   7.964
 1159POPC   C4A17634  28.385  44.680   7.664
 1159POPC   C1B17635  28.300  44.953   8.564
 1159POPC   C2B17636  28.377  44.957   8.264
 1159POPC   C3B17637  28.361  44.912   7.964
 1159POPC   C4B17638  28.281  44.902   7.664
 1160POPC   NC317639  44.681  41.583   9.464
 1160POPC   PO417640  44.659  41.530   9.164
 1160POPC   GL117641  44.619  41.540   8.864
 1160POPC   GL217642  44.620  41.706   8.864
 1160POPC   C1A17643  44.692  41.591   8.564
 1160POPC   D2A17644  44.691  41.546   8.264
 1160POPC   C3A17645  44.697  41.548   7.964
 1160POPC   C4A17646  44.646  41.563   7.664
 1160POPC   C1B17647  44.646  41.788   8.564
 1160POPC   C2B17648  44.641  41.808   8.264
 1160POPC   C3B17649  44.646  41.758   7.964
 1160POPC   C4B17650  44.602  41.786   7.664
 1161POPC   NC317651  31.453  17.467   9.464
 1161POPC   PO417652  31.445  17.529   9.164
 1161POPC   GL117653  31.513  17.513   8.864
 1161POPC   GL217654  31.522  17.356   8.864
 1161POPC   C1A17655  31.508  17.489   8.564
 1161POPC   D2A17656  31.436  17.521   8.264
 1161POPC   C3A17657  31.448  17.555   7.964
 1161POPC   C4A17658  31.461  17.471   7.664
 1161POPC   C1B17659  31.487  17.249   8.564
 1161POPC   C2B17660  31.477  17.238   8.264
 1161POPC   C3B17661  31.535  17.257   7.964
 1161POPC   C4B17662  31.533  17.256   7.664
 1162POPC   NC317663  44.703  12.850   9.464
 1162POPC   PO417664  44.657  12.889   9.164
 1162POPC   GL117665  44.673  12.870   8.864
 1162POPC   GL217666  44.628  13.022   8.864
 1162POPC   C1A17667  44.614  12.852   8.564
 1162POPC   D2A17668  44.630  12.853   8.264
 1162POPC   C3A17669  44.698  12.893   7.964
 1162POPC   C4A17670  44.620  12.863   7.664
 1162POPC   C1B17671  44.643  13.080   8.564
 1162POPC   C2B17672  44.616  13.076   8.264
 1162POPC   C3B17673  44.651  13.122   7.964
 1162POPC   C4B17674  44.668  13.146   7.664
 1163POPC   NC317675  16.708  12.877   9.464
 1163POPC   PO417676  16.693  12.802   9.164
 1163POPC   GL117677  16.748  12.863   8.864
 1163POPC   GL217678  16.673  12.970   8.864
 1163POPC   C1A17679  16.753  12.826   8.564
 1163POPC   D2A17680  16.698  12.803   8.264
 1163POPC   C3A17681  16.706  12.842   7.964
 1163POPC   C4A17682  16.704  12.862   7.664
 1163POPC   C1B17683  16.655  13.118   8.564
 1163POPC   C2B17684  16.728  13.142   8.264
 1163POPC   C3B17685  16.636  13.139   7.964
 1163POPC   C4B17686  16.673  13.123   7.664
 1164POPC   NC317687   1.248  39.212   9.464
 1164POPC   PO417688   1.180  39.238   9.164
 1164POPC   GL117689   1.209  39.231   8.864
 1164POPC   GL217690   1.209  39.070   8.864
 1164POPC   C1A17691   1.182  39.277   8.564
 1164POPC   D2A17692   1.245  39.255   8.264
 1164POPC   C3A17693   1.249  39.189   7.964
 1164POPC   C4A17694   1.184  39.199   7.664
 1164POPC   C1B17695   1.177  38.939   8.564
 1164POPC   C2B17696   1.179  38.989   8.264
 1164POPC   C3B17697   1.155  38.979   7.964
 1164POPC   C4B17698   1.179  39.029   7.664
 1165POPC   NC317699  12.075   0.476   9.464
 1165POPC   PO417700  12.069   0.413   9.164
 1165POPC   GL117701  12.117   0.451   8.864
 1165POPC   GL217702  12.064   0.350   8.864
 1165POPC   C1A17703  12.124   0.425   8.564
 1165POPC   D2A17704  12.033   0.400   8.264
 1165POPC   C3A17705  12.092   0.479   7.964
 1165POPC   C4A17706  12.042   0.441   7.664
 1165POPC   C1B17707  12.190   0.183   8.564
 1165POPC   C2B17708  12.164   0.163   8.264
 1165POPC   C3B17709  12.093   0.213   7.964
 1165POPC   C4B17710  12.158   0.245   7.664
 1166POPC   NC317711  14.444  34.620   9.464
 1166POPC   PO417712  14.444  34.535   9.164
 1166POPC   GL117713  14.435  34.577   8.864
 1166POPC   GL217714  14.353  34.408   8.864
 1166POPC   C1A17715  14.407  34.553   8.564
 1166POPC   D2A17716  14.390  34.568   8.264
 1166POPC   C3A17717  14.383  34.571   7.964
 1166POPC   C4A17718  14.400  34.614   7.664
 1166POPC   C1B17719  14.410  34.365   8.564
 1166POPC   C2B17720  14.373  34.313   8.264
 1166POPC   C3B17721  14.431  34.310   7.964
 1166POPC   C4B17722  14.424  34.376   7.664
 1167POPC   NC317723   8.932  26.768   9.464
 1167POPC   PO417724   8.948  26.837   9.164
 1167POPC   GL117725   9.004  26.768   8.864
 1167POPC   GL217726   8.982  26.727   8.864
 1167POPC   C1A17727   8.967  26.795   8.564
 1167POPC   D2A17728   8.932  26.851   8.264
 1167POPC   C3A17729   9.007  26.773   7.964
 1167POPC   C4A17730   8.983  26.862   7.664
 1167POPC   C1B17731   9.031  26.548   8.564
 1167POPC   C2B17732   9.056  26.569   8.264
 1167POPC   C3B17733   8.987  26.547   7.964
 1167POPC   C4B17734   9.030  26.622   7.664
 1168POPC   NC317735  18.316  19.048   9.464
 1168POPC   PO417736  18.254  19.076   9.164
 1168POPC   GL117737  18.314  19.031   8.864
 1168POPC   GL217738  18.368  18.995   8.864
 1168POPC   C1A17739  18.263  19.042   8.564
 1168POPC   D2A17740  18.304  19.093   8.264
 1168POPC   C3A17741  18.245  19.064   7.964
 1168POPC   C4A17742  18.250  19.043   7.664
 1168POPC   C1B17743  18.555  18.962   8.564
 1168POPC   C2B17744  18.512  18.924   8.264
 1168POPC   C3B17745  18.541  18.906   7.964
 1168POPC   C4B17746  18.554  18.980   7.664
 1169POPC   NC317747  14.399  42.384   9.464
 1169POPC   PO417748  14.395  42.336   9.164
 1169POPC   GL117749  14.391  42.340   8.864
 1169POPC   GL217750  14.291  42.263   8.864
 1169POPC   C1A17751  14.413  42.335   8.564
 1169POPC   D2A17752  14.359  42.291   8.264
 1169POPC   C3A17753  14.417  42.322   7.964
 1169POPC   C4A17754  14.355  42.323   7.664
 1169POPC   C1B17755  14.138  42.254   8.564
 1169POPC   C2B17756  14.121  42.242   8.264
 1169POPC   C3B17757  14.114  42.240   7.964
 1169POPC   C4B17758  14.177  42.314   7.664
 1170POPC   NC317759  29.192  42.381   9.464
 1170POPC   PO417760  29.189  42.329   9.164
 1170POPC   GL117761  29.138  42.358   8.864
 1170POPC   GL217762  29.216  42.455   8.864
 1170POPC   C1A17763  29.158  42.324   8.564
 1170POPC   D2A17764  29.177  42.297   8.264
 1170POPC   C3A17765  29.134  42.319   7.964
 1170POPC   C4A17766  29.154  42.343   7.664
 1170POPC   C1B17767  29.233  42.516   8.564
 1170POPC   C2B17768  29.200  42.594   8.264
 1170POPC   C3B17769  29.218  42.539   7.964
 1170POPC   C4B17770  29.250  42.612   7.664
 1171POPC   NC317771   1.955   6.617   9.464
 1171POPC   PO417772   1.967   6.679   9.164
 1171POPC   GL117773   2.022   6.640   8.864
 1171POPC   GL217774   2.077   6.532   8.864
 1171POPC   C1A17775   2.007   6.649   8.564
 1171POPC   D2A17776   1.959   6.653   8.264
 1171POPC   C3A17777   1.970   6.604   7.964
 1171POPC   C4A17778   1.961   6.684   7.664
 1171POPC   C1B17779   2.140   6.466   8.564
 1171POPC   C2B17780   2.224   6.445   8.264
 1171POPC   C3B17781   2.209   6.475   7.964
 1171POPC   C4B17782   2.151   6.481   7.664
 1172POPC   NC317783  25.315  27.597   9.464
 1172POPC   PO417784  25.273  27.582   9.164
 1172POPC   GL117785  25.259  27.629   8.864
 1172POPC   GL217786  25.312  27.471   8.864
 1172POPC   C1A17787  25.242  27.544   8.564
 1172POPC   D2A17788  25.298  27.579   8.264
 1172POPC   C3A17789  25.228  27.568   7.964
 1172POPC   C4A17790  25.304  27.546   7.664
 1172POPC   C1B17791  25.420  27.366   8.564
 1172POPC   C2B17792  25.382  27.364   8.264
 1172POPC   C3B17793  25.467  27.396   7.964
 1172POPC   C4B17794  25.412  27.386   7.664
 1173POPC   NC317795  24.470  30.679   9.464
 1173POPC   PO417796  24.525  30.647   9.164
 1173POPC   GL117797  24.518  30.717   8.864
 1173POPC   GL217798  24.343  30.619   8.864
 1173POPC   C1A17799  24.463  30.659   8.564
 1173POPC   D2A17800  24.533  30.689   8.264
 1173POPC   C3A17801  24.472  30.673   7.964
 1173POPC   C4A17802  24.485  30.733   7.664
 1173POPC   C1B17803  24.230  30.646   8.564
 1173POPC   C2B17804  24.246  30.671   8.264
 1173POPC   C3B17805  24.276  30.584   7.964
 1173POPC   C4B17806  24.234  30.628   7.664
 1174POPC   NC317807  20.622  27.605   9.464
 1174POPC   PO417808  20.625  27.578   9.164
 1174POPC   GL117809  20.561  27.610   8.864
 1174POPC   GL217810  20.640  27.425   8.864
 1174POPC   C1A17811  20.578  27.552   8.564
 1174POPC   D2A17812  20.586  27.643   8.264
 1174POPC   C3A17813  20.600  27.595   7.964
 1174POPC   C4A17814  20.624  27.569   7.664
 1174POPC   C1B17815  20.591  27.314   8.564
 1174POPC   C2B17816  20.623  27.382   8.264
 1174POPC   C3B17817  20.634  27.326   7.964
 1174POPC   C4B17818  20.556  27.369   7.664
 1175POPC   NC317819   8.991  40.023   9.464
 1175POPC   PO417820   8.992  40.003   9.164
 1175POPC   GL117821   8.928  40.032   8.864
 1175POPC   GL217822   8.951  40.160   8.864
 1175POPC   C1A17823   8.953  40.007   8.564
 1175POPC   D2A17824   9.012  39.977   8.264
 1175POPC   C3A17825   8.963  39.981   7.964
 1175POPC   C4A17826   8.975  40.003   7.664
 1175POPC   C1B17827   8.958  40.239   8.564
 1175POPC   C2B17828   9.043  40.282   8.264
 1175POPC   C3B17829   9.032  40.247   7.964
 1175POPC   C4B17830   9.024  40.257   7.664
 1176POPC   NC317831   9.700   3.509   9.464
 1176POPC   PO417832   9.723   3.560   9.164
 1176POPC   GL117833   9.777   3.499   8.864
 1176POPC   GL217834   9.816   3.607   8.864
 1176POPC   C1A17835   9.724   3.521   8.564
 1176POPC   D2A17836   9.720   3.500   8.264
 1176POPC   C3A17837   9.758   3.518   7.964
 1176POPC   C4A17838   9.793   3.571   7.664
 1176POPC   C1B17839   9.991   3.675   8.564
 1176POPC   C2B17840   9.962   3.706   8.264
 1176POPC   C3B17841   9.921   3.665   7.964
 1176POPC   C4B17842   9.968   3.723   7.664
 1177POPC   NC317843  11.340  19.062   9.464
 1177POPC   PO417844  11.284  19.019   9.164
 1177POPC   GL117845  11.332  19.102   8.864
 1177POPC   GL217846  11.292  18.894   8.864
 1177POPC   C1A17847  11.253  19.106   8.564
 1177POPC   D2A17848  11.304  19.083   8.264
 1177POPC   C3A17849  11.255  19.057   7.964
 1177POPC   C4A17850  11.339  19.092   7.664
 1177POPC   C1B17851  11.253  18.806   8.564
 1177POPC   C2B17852  11.272  18.778   8.264
 1177POPC   C3B17853  11.280  18.771   7.964
 1177POPC   C4B17854  11.261  18.809   7.664
 1178POPC   NC317855  22.167  29.909   9.464
 1178POPC   PO417856  22.194  29.881   9.164
 1178POPC   GL117857  22.140  29.886   8.864
 1178POPC   GL217858  22.148  29.836   8.864
 1178POPC   C1A17859  22.137  29.872   8.564
 1178POPC   D2A17860  22.123  29.936   8.264
 1178POPC   C3A17861  22.206  29.887   7.964
 1178POPC   C4A17862  22.129  29.925   7.664
 1178POPC   C1B17863  22.130  29.707   8.564
 1178POPC   C2B17864  22.168  29.639   8.264
 1178POPC   C3B17865  22.176  29.720   7.964
 1178POPC   C4B17866  22.215  29.662   7.664
 1179POPC   NC317867  28.350  11.272   9.464
 1179POPC   PO417868  28.324  11.343   9.164
 1179POPC   GL117869  28.347  11.341   8.864
 1179POPC   GL217870  28.517  11.325   8.864
 1179POPC   C1A17871  28.385  11.328   8.564
 1179POPC   D2A17872  28.370  11.279   8.264
 1179POPC   C3A17873  28.360  11.334   7.964
 1179POPC   C4A17874  28.400  11.284   7.664
 1179POPC   C1B17875  28.565  11.471   8.564
 1179POPC   C2B17876  28.594  11.401   8.264
 1179POPC   C3B17877  28.540  11.471   7.964
 1179POPC   C4B17878  28.593  11.461   7.664
 1180POPC   NC317879  29.904  17.517   9.464
 1180POPC   PO417880  29.930  17.517   9.164
 1180POPC   GL117881  29.914  17.536   8.864
 1180POPC   GL217882  29.799  17.535   8.864
 1180POPC   C1A17883  29.928  17.541   8.564
 1180POPC   D2A17884  29.899  17.555   8.264
 1180POPC   C3A17885  29.959  17.468   7.964
 1180POPC   C4A17886  29.904  17.532   7.664
 1180POPC   C1B17887  29.656  17.590   8.564
 1180POPC   C2B17888  29.659  17.623   8.264
 1180POPC   C3B17889  29.636  17.607   7.964
 1180POPC   C4B17890  29.680  17.554   7.664
 1181POPC   NC317891   1.947  11.293   9.464
 1181POPC   PO417892   1.965  11.272   9.164
 1181POPC   GL117893   1.956  11.350   8.864
 1181POPC   GL217894   2.039  11.213   8.864
 1181POPC   C1A17895   2.023  11.254   8.564
 1181POPC   D2A17896   2.009  11.312   8.264
 1181POPC   C3A17897   1.990  11.343   7.964
 1181POPC   C4A17898   2.027  11.286   7.664
 1181POPC   C1B17899   2.043  11.074   8.564
 1181POPC   C2B17900   2.044  11.011   8.264
 1181POPC   C3B17901   2.013  11.103   7.964
 1181POPC   C4B17902   2.062  11.088   7.664
 1182POPC   NC317903  30.685  10.476   9.464
 1182POPC   PO417904  30.723  10.547   9.164
 1182POPC   GL117905  30.689  10.560   8.864
 1182POPC   GL217906  30.586  10.500   8.864
 1182POPC   C1A17907  30.734  10.482   8.564
 1182POPC   D2A17908  30.664  10.490   8.264
 1182POPC   C3A17909  30.672  10.539   7.964
 1182POPC   C4A17910  30.654  10.509   7.664
 1182POPC   C1B17911  30.486  10.400   8.564
 1182POPC   C2B17912  30.436  10.410   8.264
 1182POPC   C3B17913  30.435  10.360   7.964
 1182POPC   C4B17914  30.449  10.457   7.664
 1183POPC   NC317915  10.555  28.340   9.464
 1183POPC   PO417916  10.564  28.399   9.164
 1183POPC   GL117917  10.493  28.368   8.864
 1183POPC   GL217918  10.679  28.448   8.864
 1183POPC   C1A17919  10.504  28.403   8.564
 1183POPC   D2A17920  10.536  28.356   8.264
 1183POPC   C3A17921  10.489  28.395   7.964
 1183POPC   C4A17922  10.563  28.340   7.664
 1183POPC   C1B17923  10.793  28.418   8.564
 1183POPC   C2B17924  10.711  28.426   8.264
 1183POPC   C3B17925  10.808  28.439   7.964
 1183POPC   C4B17926  10.788  28.476   7.664
 1184POPC   NC317927  15.190  31.457   9.464
 1184POPC   PO417928  15.134  31.437   9.164
 1184POPC   GL117929  15.200  31.510   8.864
 1184POPC   GL217930  15.259  31.593   8.864
 1184POPC   C1A17931  15.195  31.439   8.564
 1184POPC   D2A17932  15.190  31.472   8.264
 1184POPC   C3A17933  15.218  31.498   7.964
 1184POPC   C4A17934  15.134  31.434   7.664
 1184POPC   C1B17935  15.353  31.585   8.564
 1184POPC   C2B17936  15.354  31.633   8.264
 1184POPC   C3B17937  15.359  31.641   7.964
 1184POPC   C4B17938  15.357  31.614   7.664
 1185POPC   NC317939  11.319  41.528   9.464
 1185POPC   PO417940  11.341  41.559   9.164
 1185POPC   GL117941  11.292  41.563   8.864
 1185POPC   GL217942  11.257  41.477   8.864
 1185POPC   C1A17943  11.284  41.512   8.564
 1185POPC   D2A17944  11.312  41.599   8.264
 1185POPC   C3A17945  11.272  41.563   7.964
 1185POPC   C4A17946  11.265  41.566   7.664
 1185POPC   C1B17947  11.232  41.312   8.564
 1185POPC   C2B17948  11.205  41.269   8.264
 1185POPC   C3B17949  11.270  41.301   7.964
 1185POPC   C4B17950  11.207  41.299   7.664
 1186POPC   NC317951   8.935  37.658   9.464
 1186POPC   PO417952   9.022  37.695   9.164
 1186POPC   GL117953   8.995  37.637   8.864
 1186POPC   GL217954   8.980  37.543   8.864
 1186POPC   C1A17955   8.938  37.695   8.564
 1186POPC   D2A17956   8.940  37.691   8.264
 1186POPC   C3A17957   9.007  37.663   7.964
 1186POPC   C4A17958   9.000  37.679   7.664
 1186POPC   C1B17959   9.029  37.436   8.564
 1186POPC   C2B17960   9.061  37.465   8.264
 1186POPC   C3B17961   9.097  37.417   7.964
 1186POPC   C4B17962   9.091  37.409   7.664
 1187POPC   NC317963  12.070  19.838   9.464
 1187POPC   PO417964  12.052  19.864   9.164
 1187POPC   GL117965  12.098  19.879   8.864
 1187POPC   GL217966  12.154  19.915   8.864
 1187POPC   C1A17967  12.035  19.813   8.564
 1187POPC   D2A17968  12.049  19.828   8.264
 1187POPC   C3A17969  12.043  19.878   7.964
 1187POPC   C4A17970  12.097  19.831   7.664
 1187POPC   C1B17971  12.142  20.063   8.564
 1187POPC   C2B17972  12.189  20.105   8.264
 1187POPC   C3B17973  12.200  20.041   7.964
 1187POPC   C4B17974  12.191  20.072   7.664
 1188POPC   NC317975   5.129   1.988   9.464
 1188POPC   PO417976   5.134   1.959   9.164
 1188POPC   GL117977   5.081   2.029   8.864
 1188POPC   GL217978   4.994   2.073   8.864
 1188POPC   C1A17979   5.141   1.984   8.564
 1188POPC   D2A17980   5.134   2.013   8.264
 1188POPC   C3A17981   5.068   2.020   7.964
 1188POPC   C4A17982   5.091   2.010   7.664
 1188POPC   C1B17983   4.883   2.141   8.564
 1188POPC   C2B17984   4.898   2.177   8.264
 1188POPC   C3B17985   4.895   2.163   7.964
 1188POPC   C4B17986   4.887   2.155   7.664
 1189POPC   NC317987  12.883  10.504   9.464
 1189POPC   PO417988  12.855  10.517   9.164
 1189POPC   GL117989  12.894  10.571   8.864
 1189POPC   GL217990  12.709  10.519   8.864
 1189POPC   C1A17991  12.843  10.545   8.564
 1189POPC   D2A17992  12.875  10.502   8.264
 1189POPC   C3A17993  12.832  10.562   7.964
 1189POPC   C4A17994  12.897  10.569   7.664
 1189POPC   C1B17995  12.568  10.438   8.564
 1189POPC   C2B17996  12.595  10.448   8.264
 1189POPC   C3B17997  12.597  10.515   7.964
 1189POPC   C4B17998  12.590  10.508   7.664
 1190POPC   NC317999  41.564  12.098   9.464
 1190POPC   PO418000  41.595  12.085   9.164
 1190POPC   GL118001  41.523  12.081   8.864
 1190POPC   GL218002  41.481  12.046   8.864
 1190POPC   C1A18003  41.550  12.088   8.564
 1190POPC   D2A18004  41.604  12.037   8.264
 1190POPC   C3A18005  41.542  12.049   7.964
 1190POPC   C4A18006  41.542  12.075   7.664
 1190POPC   C1B18007  41.341  11.968   8.564
 1190POPC   C2B18008  41.287  12.010   8.264
 1190POPC   C3B18009  41.311  11.993   7.964
 1190POPC   C4B18010  41.306  11.925   7.664
 1191POPC   NC318011  10.567  19.023   9.464
 1191POPC   PO418012  10.476  19.106   9.164
 1191POPC   GL118013  10.491  19.088   8.864
 1191POPC   GL218014  10.665  19.119   8.864
 1191POPC   C1A18015  10.560  19.033   8.564
 1191POPC   D2A18016  10.513  19.009   8.264
 1191POPC   C3A18017  10.536  19.030   7.964
 1191POPC   C4A18018  10.478  19.047   7.664
 1191POPC   C1B18019  10.747  19.165   8.564
 1191POPC   C2B18020  10.727  19.195   8.264
 1191POPC   C3B18021  10.768  19.186   7.964
 1191POPC   C4B18022  10.790  19.107   7.664
 1192POPC   NC318023  26.084  36.949   9.464
 1192POPC   PO418024  26.032  36.927   9.164
 1192POPC   GL118025  26.032  36.873   8.864
 1192POPC   GL218026  26.048  37.014   8.864
 1192POPC   C1A18027  26.081  36.889   8.564
 1192POPC   D2A18028  26.061  36.899   8.264
 1192POPC   C3A18029  26.032  36.881   7.964
 1192POPC   C4A18030  25.999  36.905   7.664
 1192POPC   C1B18031  26.154  37.168   8.564
 1192POPC   C2B18032  26.147  37.110   8.264
 1192POPC   C3B18033  26.126  37.170   7.964
 1192POPC   C4B18034  26.097  37.144   7.664
 1193POPC   NC318035   4.335   8.966   9.464
 1193POPC   PO418036   4.269   8.925   9.164
 1193POPC   GL118037   4.365   9.009   8.864
 1193POPC   GL218038   4.394   9.060   8.864
 1193POPC   C1A18039   4.360   8.982   8.564
 1193POPC   D2A18040   4.286   9.019   8.264
 1193POPC   C3A18041   4.315   8.928   7.964
 1193POPC   C4A18042   4.273   8.992   7.664
 1193POPC   C1B18043   4.396   9.246   8.564
 1193POPC   C2B18044   4.414   9.194   8.264
 1193POPC   C3B18045   4.407   9.216   7.964
 1193POPC   C4B18046   4.367   9.240   7.664
 1194POPC   NC318047  38.442  44.699   9.464
 1194POPC   PO418048  38.463  44.711   9.164
 1194POPC   GL118049  38.491  44.659   8.864
 1194POPC   GL218050  38.536  44.701   8.864
 1194POPC   C1A18051  38.421  44.674   8.564
 1194POPC   D2A18052  38.417  44.694   8.264
 1194POPC   C3A18053  38.453  44.706   7.964
 1194POPC   C4A18054  38.418  44.661   7.664
 1194POPC   C1B18055  38.673  44.675   8.564
 1194POPC   C2B18056  38.750  44.601   8.264
 1194POPC   C3B18057  38.740  44.684   7.964
 1194POPC   C4B18058  38.712  44.683   7.664
 1195POPC   NC318059  15.171  43.145   9.464
 1195POPC   PO418060  15.165  43.159   9.164
 1195POPC   GL118061  15.148  43.136   8.864
 1195POPC   GL218062  15.272  43.153   8.864
 1195POPC   C1A18063  15.201  43.072   8.564
 1195POPC   D2A18064  15.135  43.135   8.264
 1195POPC   C3A18065  15.212  43.157   7.964
 1195POPC   C4A18066  15.207  43.075   7.664
 1195POPC   C1B18067  15.379  43.204   8.564
 1195POPC   C2B18068  15.393  43.226   8.264
 1195POPC   C3B18069  15.369  43.266   7.964
 1195POPC   C4B18070  15.433  43.222   7.664
 1196POPC   NC318071  30.648  25.248   9.464
 1196POPC   PO418072  30.697  25.293   9.164
 1196POPC   GL118073  30.675  25.246   8.864
 1196POPC   GL218074  30.663  25.167   8.864
 1196POPC   C1A18075  30.658  25.243   8.564
 1196POPC   D2A18076  30.718  25.236   8.264
 1196POPC   C3A18077  30.727  25.249   7.964
 1196POPC   C4A18078  30.729  25.227   7.664
 1196POPC   C1B18079  30.619  25.077   8.564
 1196POPC   C2B18080  30.555  25.042   8.264
 1196POPC   C3B18081  30.599  25.019   7.964
 1196POPC   C4B18082  30.643  25.066   7.664
 1197POPC   NC318083  22.940  21.385   9.464
 1197POPC   PO418084  22.973  21.422   9.164
 1197POPC   GL118085  22.889  21.377   8.864
 1197POPC   GL218086  22.982  21.295   8.864
 1197POPC   C1A18087  22.913  21.382   8.564
 1197POPC   D2A18088  22.959  21.389   8.264
 1197POPC   C3A18089  22.889  21.409   7.964
 1197POPC   C4A18090  22.925  21.354   7.664
 1197POPC   C1B18091  23.057  21.101   8.564
 1197POPC   C2B18092  23.049  21.153   8.264
 1197POPC   C3B18093  23.014  21.176   7.964
 1197POPC   C4B18094  23.053  21.101   7.664
 1198POPC   NC318095  29.130  32.294   9.464
 1198POPC   PO418096  29.129  32.250   9.164
 1198POPC   GL118097  29.103  32.208   8.864
 1198POPC   GL218098  29.044  32.343   8.864
 1198POPC   C1A18099  29.161  32.271   8.564
 1198POPC   D2A18100  29.190  32.298   8.264
 1198POPC   C3A18101  29.099  32.222   7.964
 1198POPC   C4A18102  29.174  32.263   7.664
 1198POPC   C1B18103  28.944  32.456   8.564
 1198POPC   C2B18104  28.976  32.455   8.264
 1198POPC   C3B18105  28.996  32.388   7.964
 1198POPC   C4B18106  28.944  32.419   7.664
 1199POPC   NC318107   1.247   2.005   9.464
 1199POPC   PO418108   1.230   1.995   9.164
 1199POPC   GL118109   1.169   1.975   8.864
 1199POPC   GL218110   1.315   1.942   8.864
 1199POPC   C1A18111   1.187   2.011   8.564
 1199POPC   D2A18112   1.255   2.038   8.264
 1199POPC   C3A18113   1.169   1.979   7.964
 1199POPC   C4A18114   1.166   1.986   7.664
 1199POPC   C1B18115   1.445   1.901   8.564
 1199POPC   C2B18116   1.437   1.950   8.264
 1199POPC   C3B18117   1.438   1.945   7.964
 1199POPC   C4B18118   1.417   1.973   7.664
 1200POPC   NC318119   8.991   6.674   9.464
 1200POPC   PO418120   8.982   6.655   9.164
 1200POPC   GL118121   9.005   6.651   8.864
 1200POPC   GL218122   8.840   6.622   8.864
 1200POPC   C1A18123   8.923   6.631   8.564
 1200POPC   D2A18124   9.017   6.652   8.264
 1200POPC   C3A18125   8.970   6.600   7.964
 1200POPC   C4A18126   8.967   6.617   7.664
 1200POPC   C1B18127   8.723   6.567   8.564
 1200POPC   C2B18128   8.720   6.520   8.264
 1200POPC   C3B18129   8.796   6.522   7.964
 1200POPC   C4B18130   8.752   6.541   7.664
 1201POPC   NC318131  19.835  22.160   9.464
 1201POPC   PO418132  19.832  22.190   9.164
 1201POPC   GL118133  19.863  22.124   8.864
 1201POPC   GL218134  19.708  22.054   8.864
 1201POPC   C1A18135  19.859  22.132   8.564
 1201POPC   D2A18136  19.872  22.180   8.264
 1201POPC   C3A18137  19.838  22.144   7.964
 1201POPC   C4A18138  19.866  22.197   7.664
 1201POPC   C1B18139  19.631  21.988   8.564
 1201POPC   C2B18140  19.622  22.002   8.264
 1201POPC   C3B18141  19.703  22.006   7.964
 1201POPC   C4B18142  19.621  21.961   7.664
 1202POPC   NC318143  29.186  38.415   9.464
 1202POPC   PO418144  29.140  38.427   9.164
 1202POPC   GL118145  29.183  38.414   8.864
 1202POPC   GL218146  29.156  38.346   8.864
 1202POPC   C1A18147  29.148  38.479   8.564
 1202POPC   D2A18148  29.184  38.486   8.264
 1202POPC   C3A18149  29.190  38.421   7.964
 1202POPC   C4A18150  29.182  38.479   7.664
 1202POPC   C1B18151  29.261  38.186   8.564
 1202POPC   C2B18152  29.221  38.174   8.264
 1202POPC   C3B18153  29.176  38.222   7.964
 1202POPC   C4B18154  29.212  38.256   7.664
 1203POPC   NC318155  15.963  31.478   9.464
 1203POPC   PO418156  16.002  31.513   9.164
 1203POPC   GL118157  15.940  31.467   8.864
 1203POPC   GL218158  16.109  31.475   8.864
 1203POPC   C1A18159  15.987  31.498   8.564
 1203POPC   D2A18160  15.990  31.477   8.264
 1203POPC   C3A18161  15.924  31.461   7.964
 1203POPC   C4A18162  15.934  31.506   7.664
 1203POPC   C1B18163  16.192  31.420   8.564
 1203POPC   C2B18164  16.199  31.386   8.264
 1203POPC   C3B18165  16.237  31.441   7.964
 1203POPC   C4B18166  16.163  31.445   7.664
 1204POPC   NC318167   8.183  26.830   9.464
 1204POPC   PO418168   8.216  26.826   9.164
 1204POPC   GL118169   8.210  26.841   8.864
 1204POPC   GL218170   8.256  26.942   8.864
 1204POPC   C1A18171   8.207  26.829   8.564
 1204POPC   D2A18172   8.246  26.825   8.264
 1204POPC   C3A18173   8.157  26.812   7.964
 1204POPC   C4A18174   8.233  26.850   7.664
 1204POPC   C1B18175   8.288  27.001   8.564
 1204POPC   C2B18176   8.283  27.062   8.264
 1204POPC   C3B18177   8.344  27.075   7.964
 1204POPC   C4B18178   8.280  27.023   7.664
 1205POPC   NC318179   6.693  24.453   9.464
 1205POPC   PO418180   6.633  24.528   9.164
 1205POPC   GL118181   6.677  24.518   8.864
 1205POPC   GL218182   6.782  24.493   8.864
 1205POPC   C1A18183   6.649  24.463   8.564
 1205POPC   D2A18184   6.674  24.457   8.264
 1205POPC   C3A18185   6.604  24.537   7.964
 1205POPC   C4A18186   6.650  24.471   7.664
 1205POPC   C1B18187   6.851  24.404   8.564
 1205POPC   C2B18188   6.911  24.402   8.264
 1205POPC   C3B18189   6.840  24.447   7.964
 1205POPC   C4B18190   6.876  24.435   7.664
 1206POPC   NC318191  35.367  26.809   9.464
 1206POPC   PO418192  35.344  26.841   9.164
 1206POPC   GL118193  35.323  26.811   8.864
 1206POPC   GL218194  35.311  26.977   8.864
 1206POPC   C1A18195  35.382  26.800   8.564
 1206POPC   D2A18196  35.339  26.824   8.264
 1206POPC   C3A18197  35.345  26.866   7.964
 1206POPC   C4A18198  35.336  26.848   7.664
 1206POPC   C1B18199  35.367  27.112   8.564
 1206POPC   C2B18200  35.360  27.041   8.264
 1206POPC   C3B18201  35.384  27.044   7.964
 1206POPC   C4B18202  35.296  27.018   7.664
 1207POPC   NC318203  13.592  44.620   9.464
 1207POPC   PO418204  13.670  44.620   9.164
 1207POPC   GL118205  13.655  44.701   8.864
 1207POPC   GL218206  13.741  44.760   8.864
 1207POPC   C1A18207  13.612  44.648   8.564
 1207POPC   D2A18208  13.633  44.621   8.264
 1207POPC   C3A18209  13.592  44.654   7.964
 1207POPC   C4A18210  13.647  44.684   7.664
 1207POPC   C1B18211  13.868  44.782   8.564
 1207POPC   C2B18212  13.863  44.810   8.264
 1207POPC   C3B18213  13.871  44.747   7.964
 1207POPC   C4B18214  13.879  44.757   7.664
 1208POPC   NC318215  33.836   9.783   9.464
 1208POPC   PO418216  33.798   9.734   9.164
 1208POPC   GL118217  33.782   9.725   8.864
 1208POPC   GL218218  33.756   9.870   8.864
 1208POPC   C1A18219  33.839   9.729   8.564
 1208POPC   D2A18220  33.754   9.735   8.264
 1208POPC   C3A18221  33.797   9.707   7.964
 1208POPC   C4A18222  33.807   9.756   7.664
 1208POPC   C1B18223  33.671   9.901   8.564
 1208POPC   C2B18224  33.640   9.931   8.264
 1208POPC   C3B18225  33.619   9.949   7.964
 1208POPC   C4B18226  33.640   9.900   7.664
 1209POPC   NC318227  23.758  24.460   9.464
 1209POPC   PO418228  23.728  24.461   9.164
 1209POPC   GL118229  23.713  24.533   8.864
 1209POPC   GL218230  23.722  24.322   8.864
 1209POPC   C1A18231  23.740  24.466   8.564
 1209POPC   D2A18232  23.671  24.529   8.264
 1209POPC   C3A18233  23.703  24.442   7.964
 1209POPC   C4A18234  23.705  24.496   7.664
 1209POPC   C1B18235  23.727  24.239   8.564
 1209POPC   C2B18236  23.740  24.288   8.264
 1209POPC   C3B18237  23.708  24.259   7.964
 1209POPC   C4B18238  23.705  24.219   7.664
 1210POPC   NC318239  25.259  40.821   9.464
 1210POPC   PO418240  25.232  40.763   9.164
 1210POPC   GL118241  25.285  40.809   8.864
 1210POPC   GL218242  25.197  40.777   8.864
 1210POPC   C1A18243  25.223  40.790   8.564
 1210POPC   D2A18244  25.256  40.750   8.264
 1210POPC   C3A18245  25.231  40.778   7.964
 1210POPC   C4A18246  25.309  40.759   7.664
 1210POPC   C1B18247  25.047  40.648   8.564
 1210POPC   C2B18248  25.021  40.661   8.264
 1210POPC   C3B18249  25.050  40.682   7.964
 1210POPC   C4B18250  25.005  40.678   7.664
 1211POPC   NC318251  12.115   8.203   9.464
 1211POPC   PO418252  12.057   8.213   9.164
 1211POPC   GL118253  12.076   8.203   8.864
 1211POPC   GL218254  11.991   8.078   8.864
 1211POPC   C1A18255  12.099   8.235   8.564
 1211POPC   D2A18256  12.090   8.193   8.264
 1211POPC   C3A18257  12.053   8.207   7.964
 1211POPC   C4A18258  12.113   8.191   7.664
 1211POPC   C1B18259  11.892   7.995   8.564
 1211POPC   C2B18260  11.937   7.977   8.264
 1211POPC   C3B18261  11.861   8.015   7.964
 1211POPC   C4B18262  11.899   8.076   7.664
 1212POPC   NC318263  12.874  22.128   9.464
 1212POPC   PO418264  12.881  22.163   9.164
 1212POPC   GL118265  12.808  22.126   8.864
 1212POPC   GL218266  13.010  22.144   8.864
 1212POPC   C1A18267  12.804  22.163   8.564
 1212POPC   D2A18268  12.851  22.210   8.264
 1212POPC   C3A18269  12.838  22.207   7.964
 1212POPC   C4A18270  12.854  22.177   7.664
 1212POPC   C1B18271  13.094  22.187   8.564
 1212POPC   C2B18272  13.098  22.215   8.264
 1212POPC   C3B18273  13.071  22.200   7.964
 1212POPC   C4B18274  13.127  22.202   7.664
 1213POPC   NC318275   2.745   7.444   9.464
 1213POPC   PO418276   2.789   7.470   9.164
 1213POPC   GL118277   2.765   7.382   8.864
 1213POPC   GL218278   2.877   7.356   8.864
 1213POPC   C1A18279   2.719   7.375   8.564
 1213POPC   D2A18280   2.767   7.435   8.264
 1213POPC   C3A18281   2.771   7.415   7.964
 1213POPC   C4A18282   2.803   7.460   7.664
 1213POPC   C1B18283   2.964   7.311   8.564
 1213POPC   C2B18284   2.929   7.267   8.264
 1213POPC   C3B18285   3.000   7.321   7.964
 1213POPC   C4B18286   3.008   7.281   7.664
 1214POPC   NC318287  36.103  43.157   9.464
 1214POPC   PO418288  36.086  43.120   9.164
 1214POPC   GL118289  36.109  43.086   8.864
 1214POPC   GL218290  35.999  43.241   8.864
 1214POPC   C1A18291  36.141  43.147   8.564
 1214POPC   D2A18292  36.082  43.106   8.264
 1214POPC   C3A18293  36.120  43.143   7.964
 1214POPC   C4A18294  36.098  43.132   7.664
 1214POPC   C1B18295  35.979  43.322   8.564
 1214POPC   C2B18296  35.921  43.332   8.264
 1214POPC   C3B18297  35.947  43.295   7.964
 1214POPC   C4B18298  35.998  43.281   7.664
 1215POPC   NC318299  42.288   6.626   9.464
 1215POPC   PO418300  42.300   6.662   9.164
 1215POPC   GL118301  42.378   6.662   8.864
 1215POPC   GL218302  42.271   6.677   8.864
 1215POPC   C1A18303  42.337   6.637   8.564
 1215POPC   D2A18304  42.377   6.630   8.264
 1215POPC   C3A18305  42.327   6.602   7.964
 1215POPC   C4A18306  42.362   6.596   7.664
 1215POPC   C1B18307  42.114   6.740   8.564
 1215POPC   C2B18308  42.106   6.759   8.264
 1215POPC   C3B18309  42.098   6.757   7.964
 1215POPC   C4B18310  42.083   6.799   7.664
 1216POPC   NC318311   2.718  31.486   9.464
 1216POPC   PO418312   2.745  31.472   9.164
 1216POPC   GL118313   2.781  31.444   8.864
 1216POPC   GL218314   2.784  31.377   8.864
 1216POPC   C1A18315   2.777  31.503   8.564
 1216POPC   D2A18316   2.750  31.520   8.264
 1216POPC   C3A18317   2.716  31.465   7.964
 1216POPC   C4A18318   2.773  31.454   7.664
 1216POPC   C1B18319   2.899  31.266   8.564
 1216POPC   C2B18320   2.908  31.258   8.264
 1216POPC   C3B18321   2.849  31.275   7.964
 1216POPC   C4B18322   2.885  31.207   7.664
 1217POPC   NC318323  26.845  34.542   9.464
 1217POPC   PO418324  26.816  34.614   9.164
 1217POPC   GL118325  26.828  34.530   8.864
 1217POPC   GL218326  26.896  34.726   8.864
 1217POPC   C1A18327  26.855  34.560   8.564
 1217POPC   D2A18328  26.784  34.556   8.264
 1217POPC   C3A18329  26.771  34.551   7.964
 1217POPC   C4A18330  26.771  34.586   7.664
 1217POPC   C1B18331  26.974  34.773   8.564
 1217POPC   C2B18332  26.928  34.740   8.264
 1217POPC   C3B18333  26.915  34.773   7.964
 1217POPC   C4B18334  26.991  34.798   7.664
 1218POPC   NC318335  34.617  37.689   9.464
 1218POPC   PO418336  34.532  37.632   9.164
 1218POPC   GL118337  34.570  37.724   8.864
 1218POPC   GL218338  34.448  37.733   8.864
 1218POPC   C1A18339  34.541  37.685   8.564
 1218POPC   D2A18340  34.573  37.705   8.264
 1218POPC   C3A18341  34.578  37.705   7.964
 1218POPC   C4A18342  34.595  37.657   7.664
 1218POPC   C1B18343  34.294  37.733   8.564
 1218POPC   C2B18344  34.358  37.719   8.264
 1218POPC   C3B18345  34.328  37.683   7.964
 1218POPC   C4B18346  34.355  37.698   7.664
 1219POPC   NC318347  29.930  12.084   9.464
 1219POPC   PO418348  29.929  12.089   9.164
 1219POPC   GL118349  29.940  12.108   8.864
 1219POPC   GL218350  29.981  12.153   8.864
 1219POPC   C1A18351  29.944  12.038   8.564
 1219POPC   D2A18352  29.873  12.113   8.264
 1219POPC   C3A18353  29.884  12.073   7.964
 1219POPC   C4A18354  29.879  12.074   7.664
 1219POPC   C1B18355  30.096  12.205   8.564
 1219POPC   C2B18356  30.185  12.194   8.264
 1219POPC   C3B18357  30.167  12.236   7.964
 1219POPC   C4B18358  30.125  12.152   7.664
 1220POPC   NC318359  29.927  39.256   9.464
 1220POPC   PO418360  29.890  39.278   9.164
 1220POPC   GL118361  29.893  39.279   8.864
 1220POPC   GL218362  29.857  39.363   8.864
 1220POPC   C1A18363  29.900  39.212   8.564
 1220POPC   D2A18364  29.889  39.196   8.264
 1220POPC   C3A18365  29.963  39.246   7.964
 1220POPC   C4A18366  29.936  39.270   7.664
 1220POPC   C1B18367  29.824  39.398   8.564
 1220POPC   C2B18368  29.752  39.412   8.264
 1220POPC   C3B18369  29.780  39.437   7.964
 1220POPC   C4B18370  29.794  39.481   7.664
 1221POPC   NC318371  36.091  32.274   9.464
 1221POPC   PO418372  36.130  32.209   9.164
 1221POPC   GL118373  36.116  32.217   8.864
 1221POPC   GL218374  36.208  32.344   8.864
 1221POPC   C1A18375  36.126  32.207   8.564
 1221POPC   D2A18376  36.087  32.295   8.264
 1221POPC   C3A18377  36.084  32.226   7.964
 1221POPC   C4A18378  36.133  32.230   7.664
 1221POPC   C1B18379  36.228  32.440   8.564
 1221POPC   C2B18380  36.283  32.420   8.264
 1221POPC   C3B18381  36.251  32.490   7.964
 1221POPC   C4B18382  36.201  32.516   7.664
 1222POPC   NC318383  15.931  29.879   9.464
 1222POPC   PO418384  16.002  29.959   9.164
 1222POPC   GL118385  15.924  29.927   8.864
 1222POPC   GL218386  16.028  30.006   8.864
 1222POPC   C1A18387  15.984  29.873   8.564
 1222POPC   D2A18388  15.911  29.963   8.264
 1222POPC   C3A18389  15.982  29.884   7.964
 1222POPC   C4A18390  15.930  29.902   7.664
 1222POPC   C1B18391  16.131  30.099   8.564
 1222POPC   C2B18392  16.129  30.026   8.264
 1222POPC   C3B18393  16.115  30.053   7.964
 1222POPC   C4B18394  16.153  30.043   7.664
 1223POPC   NC318395  28.328   2.800   9.464
 1223POPC   PO418396  28.385   2.741   9.164
 1223POPC   GL118397  28.396   2.807   8.864
 1223POPC   GL218398  28.316   2.693   8.864
 1223POPC   C1A18399  28.391   2.743   8.564
 1223POPC   D2A18400  28.348   2.803   8.264
 1223POPC   C3A18401  28.320   2.741   7.964
 1223POPC   C4A18402  28.402   2.780   7.664
 1223POPC   C1B18403  28.175   2.618   8.564
 1223POPC   C2B18404  28.145   2.605   8.264
 1223POPC   C3B18405  28.130   2.577   7.964
 1223POPC   C4B18406  28.141   2.588   7.664
 1224POPC   NC318407  27.606  31.506   9.464
 1224POPC   PO418408  27.551  31.477   9.164
 1224POPC   GL118409  27.636  31.520   8.864
 1224POPC   GL218410  27.549  31.571   8.864
 1224POPC   C1A18411  27.582  31.443   8.564
 1224POPC   D2A18412  27.639  31.474   8.264
 1224POPC   C3A18413  27.547  31.475   7.964
 1224POPC   C4A18414  27.564  31.454   7.664
 1224POPC   C1B18415  27.485  31.711   8.564
 1224POPC   C2B18416  27.482  31.706   8.264
 1224POPC   C3B18417  27.440  31.695   7.964
 1224POPC   C4B18418  27.451  31.660   7.664
 1225POPC   NC318419   6.674  12.863   9.464
 1225POPC   PO418420   6.642  12.806   9.164
 1225POPC   GL118421   6.642  12.822   8.864
 1225POPC   GL218422   6.802  12.899   8.864
 1225POPC   C1A18423   6.631  12.850   8.564
 1225POPC   D2A18424   6.689  12.895   8.264
 1225POPC   C3A18425   6.599  12.851   7.964
 1225POPC   C4A18426   6.659  12.890   7.664
 1225POPC   C1B18427   6.899  12.923   8.564
 1225POPC   C2B18428   6.889  12.928   8.264
 1225POPC   C3B18429   6.848  12.940   7.964
 1225POPC   C4B18430   6.855  12.848   7.664
 1226POPC   NC318431  36.858  19.028   9.464
 1226POPC   PO418432  36.926  19.085   9.164
 1226POPC   GL118433  36.862  19.009   8.864
 1226POPC   GL218434  36.870  18.980   8.864
 1226POPC   C1A18435  36.947  19.014   8.564
 1226POPC   D2A18436  36.937  19.071   8.264
 1226POPC   C3A18437  36.914  19.037   7.964
 1226POPC   C4A18438  36.856  19.091   7.664
 1226POPC   C1B18439  36.882  18.847   8.564
 1226POPC   C2B18440  36.906  18.760   8.264
 1226POPC   C3B18441  36.893  18.844   7.964
 1226POPC   C4B18442  36.902  18.836   7.664
 1227POPC   NC318443  29.898  24.500   9.464
 1227POPC   PO418444  29.958  24.489   9.164
 1227POPC   GL118445  29.936  24.443   8.864
 1227POPC   GL218446  29.754  24.488   8.864
 1227POPC   C1A18447  29.958  24.490   8.564
 1227POPC   D2A18448  29.966  24.499   8.264
 1227POPC   C3A18449  29.937  24.531   7.964
 1227POPC   C4A18450  29.871  24.475   7.664
 1227POPC   C1B18451  29.645  24.475   8.564
 1227POPC   C2B18452  29.635  24.511   8.264
 1227POPC   C3B18453  29.669  24.482   7.964
 1227POPC   C4B18454  29.695  24.515   7.664
 1228POPC   NC318455  19.863  10.505   9.464
 1228POPC   PO418456  19.800  10.561   9.164
 1228POPC   GL118457  19.841  10.555   8.864
 1228POPC   GL218458  19.731  10.525   8.864
 1228POPC   C1A18459  19.787  10.568   8.564
 1228POPC   D2A18460  19.812  10.557   8.264
 1228POPC   C3A18461  19.828  10.553   7.964
 1228POPC   C4A18462  19.802  10.525   7.664
 1228POPC   C1B18463  19.567  10.443   8.564
 1228POPC   C2B18464  19.566  10.488   8.264
 1228POPC   C3B18465  19.633  10.404   7.964
 1228POPC   C4B18466  19.560  10.458   7.664
 1229POPC   NC318467  27.553   9.738   9.464
 1229POPC   PO418468  27.604   9.796   9.164
 1229POPC   GL118469  27.573   9.724   8.864
 1229POPC   GL218470  27.622   9.828   8.864
 1229POPC   C1A18471  27.575   9.723   8.564
 1229POPC   D2A18472  27.623   9.772   8.264
 1229POPC   C3A18473  27.630   9.787   7.964
 1229POPC   C4A18474  27.545   9.703   7.664
 1229POPC   C1B18475  27.698   9.952   8.564
 1229POPC   C2B18476  27.652  10.022   8.264
 1229POPC   C3B18477  27.645   9.944   7.964
 1229POPC   C4B18478  27.648  10.031   7.664
 1230POPC   NC318479  36.171  36.112   9.464
 1230POPC   PO418480  36.087  36.158   9.164
 1230POPC   GL118481  36.094  36.137   8.864
 1230POPC   GL218482  36.070  36.252   8.864
 1230POPC   C1A18483  36.082  36.096   8.564
 1230POPC   D2A18484  36.161  36.143   8.264
 1230POPC   C3A18485  36.154  36.147   7.964
 1230POPC   C4A18486  36.124  36.143   7.664
 1230POPC   C1B18487  35.972  36.319   8.564
 1230POPC   C2B18488  36.045  36.345   8.264
 1230POPC   C3B18489  36.012  36.393   7.964
 1230POPC   C4B18490  35.974  36.368   7.664
 1231POPC   NC318491  29.114  22.906   9.464
 1231POPC   PO418492  29.173  22.919   9.164
 1231POPC   GL118493  29.114  22.925   8.864
 1231POPC   GL218494  29.181  23.055   8.864
 1231POPC   C1A18495  29.116  22.941   8.564
 1231POPC   D2A18496  29.188  22.950   8.264
 1231POPC   C3A18497  29.108  22.908   7.964
 1231POPC   C4A18498  29.176  22.922   7.664
 1231POPC   C1B18499  29.153  23.192   8.564
 1231POPC   C2B18500  29.132  23.221   8.264
 1231POPC   C3B18501  29.137  23.189   7.964
 1231POPC   C4B18502  29.122  23.169   7.664
 1232POPC   NC318503   2.805   4.350   9.464
 1232POPC   PO418504   2.778   4.354   9.164
 1232POPC   GL118505   2.747   4.351   8.864
 1232POPC   GL218506   2.764   4.448   8.864
 1232POPC   C1A18507   2.736   4.284   8.564
 1232POPC   D2A18508   2.775   4.311   8.264
 1232POPC   C3A18509   2.807   4.367   7.964
 1232POPC   C4A18510   2.793   4.359   7.664
 1232POPC   C1B18511   2.690   4.583   8.564
 1232POPC   C2B18512   2.726   4.613   8.264
 1232POPC   C3B18513   2.725   4.561   7.964
 1232POPC   C4B18514   2.679   4.517   7.664
 1233POPC   NC318515  17.510   2.009   9.464
 1233POPC   PO418516  17.488   2.007   9.164
 1233POPC   GL118517  17.496   2.027   8.864
 1233POPC   GL218518  17.458   1.876   8.864
 1233POPC   C1A18519  17.497   1.941   8.564
 1233POPC   D2A18520  17.538   2.028   8.264
 1233POPC   C3A18521  17.521   2.022   7.964
 1233POPC   C4A18522  17.551   1.979   7.664
 1233POPC   C1B18523  17.339   1.784   8.564
 1233POPC   C2B18524  17.329   1.831   8.264
 1233POPC   C3B18525  17.321   1.825   7.964
 1233POPC   C4B18526  17.389   1.810   7.664
 1234POPC   NC318527  31.459  42.378   9.464
 1234POPC   PO418528  31.427  42.285   9.164
 1234POPC   GL118529  31.468  42.342   8.864
 1234POPC   GL218530  31.563  42.418   8.864
 1234POPC   C1A18531  31.473  42.339   8.564
 1234POPC   D2A18532  31.482  42.353   8.264
 1234POPC   C3A18533  31.468  42.384   7.964
 1234POPC   C4A18534  31.437  42.323   7.664
 1234POPC   C1B18535  31.551  42.561   8.564
 1234POPC   C2B18536  31.617  42.549   8.264
 1234POPC   C3B18537  31.561  42.590   7.964
 1234POPC   C4B18538  31.618  42.526   7.664
 1235POPC   NC318539  11.337  35.369   9.464
 1235POPC   PO418540  11.321  35.402   9.164
 1235POPC   GL118541  11.341  35.314   8.864
 1235POPC   GL218542  11.326  35.209   8.864
 1235POPC   C1A18543  11.309  35.331   8.564
 1235POPC   D2A18544  11.266  35.367   8.264
 1235POPC   C3A18545  11.331  35.338   7.964
 1235POPC   C4A18546  11.254  35.338   7.664
 1235POPC   C1B18547  11.352  35.059   8.564
 1235POPC   C2B18548  11.326  35.138   8.264
 1235POPC   C3B18549  11.361  35.073   7.964
 1235POPC   C4B18550  11.347  35.086   7.664
 1236POPC   NC318551  29.892  36.952   9.464
 1236POPC   PO418552  29.897  36.874   9.164
 1236POPC   GL118553  29.929  36.878   8.864
 1236POPC   GL218554  30.016  36.987   8.864
 1236POPC   C1A18555  29.876  36.935   8.564
 1236POPC   D2A18556  29.908  36.896   8.264
 1236POPC   C3A18557  29.900  36.944   7.964
 1236POPC   C4A18558  29.952  36.876   7.664
 1236POPC   C1B18559  30.187  37.039   8.564
 1236POPC   C2B18560  30.130  37.035   8.264
 1236POPC   C3B18561  30.128  37.021   7.964
 1236POPC   C4B18562  30.174  37.031   7.664
 1237POPC   NC318563  41.589  21.389   9.464
 1237POPC   PO418564  41.566  21.426   9.164
 1237POPC   GL118565  41.570  21.354   8.864
 1237POPC   GL218566  41.465  21.334   8.864
 1237POPC   C1A18567  41.556  21.400   8.564
 1237POPC   D2A18568  41.521  21.349   8.264
 1237POPC   C3A18569  41.574  21.339   7.964
 1237POPC   C4A18570  41.585  21.361   7.664
 1237POPC   C1B18571  41.370  21.152   8.564
 1237POPC   C2B18572  41.416  21.139   8.264
 1237POPC   C3B18573  41.400  21.192   7.964
 1237POPC   C4B18574  41.423  21.142   7.664
 1238POPC   NC318575  24.467   6.663   9.464
 1238POPC   PO418576  24.487   6.679   9.164
 1238POPC   GL118577  24.487   6.694   8.864
 1238POPC   GL218578  24.372   6.574   8.864
 1238POPC   C1A18579  24.442   6.643   8.564
 1238POPC   D2A18580  24.534   6.689   8.264
 1238POPC   C3A18581  24.514   6.687   7.964
 1238POPC   C4A18582  24.527   6.639   7.664
 1238POPC   C1B18583  24.224   6.546   8.564
 1238POPC   C2B18584  24.226   6.554   8.264
 1238POPC   C3B18585  24.251   6.573   7.964
 1238POPC   C4B18586  24.218   6.593   7.664
 1239POPC   NC318587   4.267  21.353   9.464
 1239POPC   PO418588   4.284  21.374   9.164
 1239POPC   GL118589   4.337  21.389   8.864
 1239POPC   GL218590   4.166  21.419   8.864
 1239POPC   C1A18591   4.344  21.368   8.564
 1239POPC   D2A18592   4.326  21.363   8.264
 1239POPC   C3A18593   4.311  21.410   7.964
 1239POPC   C4A18594   4.361  21.374   7.664
 1239POPC   C1B18595   4.067  21.507   8.564
 1239POPC   C2B18596   4.112  21.532   8.264
 1239POPC   C3B18597   4.042  21.510   7.964
 1239POPC   C4B18598   4.041  21.499   7.664
 1240POPC   NC318599  13.593   5.066   9.464
 1240POPC   PO418600  13.588   5.109   9.164
 1240POPC   GL118601  13.611   5.049   8.864
 1240POPC   GL218602  13.511   5.064   8.864
 1240POPC   C1A18603  13.658   5.061   8.564
 1240POPC   D2A18604  13.659   5.114   8.264
 1240POPC   C3A18605  13.657   5.110   7.964
 1240POPC   C4A18606  13.587   5.057   7.664
 1240POPC   C1B18607  13.401   5.011   8.564
 1240POPC   C2B18608  13.383   5.052   8.264
 1240POPC   C3B18609  13.406   5.026   7.964
 1240POPC   C4B18610  13.385   5.011   7.664
 1241POPC   NC318611  44.691  18.257   9.464
 1241POPC   PO418612  44.650  18.244   9.164
 1241POPC   GL118613  44.667  18.267   8.864
 1241POPC   GL218614  44.667  18.418   8.864
 1241POPC   C1A18615  44.637  18.255   8.564
 1241POPC   D2A18616  44.668  18.322   8.264
 1241POPC   C3A18617  44.637  18.331   7.964
 1241POPC   C4A18618  44.705  18.298   7.664
 1241POPC   C1B18619  44.727  18.482   8.564
 1241POPC   C2B18620  44.768  18.530   8.264
 1241POPC   C3B18621  44.787  18.501   7.964
 1241POPC   C4B18622  44.704  18.479   7.664
 1242POPC   NC318623  41.546   6.668   9.464
 1242POPC   PO418624  41.531   6.632   9.164
 1242POPC   GL118625  41.527   6.631   8.864
 1242POPC   GL218626  41.440   6.647   8.864
 1242POPC   C1A18627  41.567   6.625   8.564
 1242POPC   D2A18628  41.592   6.615   8.264
 1242POPC   C3A18629  41.602   6.616   7.964
 1242POPC   C4A18630  41.514   6.659   7.664
 1242POPC   C1B18631  41.307   6.664   8.564
 1242POPC   C2B18632  41.281   6.630   8.264
 1242POPC   C3B18633  41.346   6.706   7.964
 1242POPC   C4B18634  41.309   6.678   7.664
 1243POPC   NC318635  23.703  32.990   9.464
 1243POPC   PO418636  23.675  33.000   9.164
 1243POPC   GL118637  23.741  33.001   8.864
 1243POPC   GL218638  23.827  32.970   8.864
 1243POPC   C1A18639  23.753  33.007   8.564
 1243POPC   D2A18640  23.682  33.065   8.264
 1243POPC   C3A18641  23.668  33.026   7.964
 1243POPC   C4A18642  23.703  33.014   7.664
 1243POPC   C1B18643  23.975  32.952   8.564
 1243POPC   C2B18644  23.961  32.947   8.264
 1243POPC   C3B18645  23.988  32.939   7.964
 1243POPC   C4B18646  23.930  32.974   7.664
 1244POPC   NC318647  23.748   7.408   9.464
 1244POPC   PO418648  23.703   7.437   9.164
 1244POPC   GL118649  23.672   7.416   8.864
 1244POPC   GL218650  23.631   7.507   8.864
 1244POPC   C1A18651  23.698   7.421   8.564
 1244POPC   D2A18652  23.688   7.468   8.264
 1244POPC   C3A18653  23.706   7.397   7.964
 1244POPC   C4A18654  23.669   7.380   7.664
 1244POPC   C1B18655  23.495   7.497   8.564
 1244POPC   C2B18656  23.446   7.524   8.264
 1244POPC   C3B18657  23.495   7.507   7.964
 1244POPC   C4B18658  23.455   7.471   7.664
 1245POPC   NC318659  27.587  33.769   9.464
 1245POPC   PO418660  27.641  33.810   9.164
 1245POPC   GL118661  27.607  33.752   8.864
 1245POPC   GL218662  27.610  33.664   8.864
 1245POPC   C1A18663  27.641  33.827   8.564
 1245POPC   D2A18664  27.583  33.784   8.264
 1245POPC   C3A18665  27.630  33.775   7.964
 1245POPC   C4A18666  27.552  33.829   7.664
 1245POPC   C1B18667  27.501  33.535   8.564
 1245POPC   C2B18668  27.502  33.584   8.264
 1245POPC   C3B18669  27.553  33.517   7.964
 1245POPC   C4B18670  27.496  33.560   7.664
 1246POPC   NC318671  36.884   5.060   9.464
 1246POPC   PO418672  36.881   5.137   9.164
 1246POPC   GL118673  36.859   5.073   8.864
 1246POPC   GL218674  36.917   4.991   8.864
 1246POPC   C1A18675  36.918   5.104   8.564
 1246POPC   D2A18676  36.900   5.129   8.264
 1246POPC   C3A18677  36.944   5.128   7.964
 1246POPC   C4A18678  36.854   5.072   7.664
 1246POPC   C1B18679  36.884   4.809   8.564
 1246POPC   C2B18680  36.891   4.850   8.264
 1246POPC   C3B18681  36.888   4.807   7.964
 1246POPC   C4B18682  36.851   4.831   7.664
 1247POPC   NC318683  16.684  15.929   9.464
 1247POPC   PO418684  16.769  15.978   9.164
 1247POPC   GL118685  16.772  15.968   8.864
 1247POPC   GL218686  16.726  15.861   8.864
 1247POPC   C1A18687  16.774  15.910   8.564
 1247POPC   D2A18688  16.766  15.945   8.264
 1247POPC   C3A18689  16.725  15.908   7.964
 1247POPC   C4A18690  16.766  15.934   7.664
 1247POPC   C1B18691  16.592  15.731   8.564
 1247POPC   C2B18692  16.652  15.740   8.264
 1247POPC   C3B18693  16.658  15.679   7.964
 1247POPC   C4B18694  16.675  15.754   7.664
 1248POPC   NC318695  23.681  21.346   9.464
 1248POPC   PO418696  23.677  21.343   9.164
 1248POPC   GL118697  23.745  21.408   8.864
 1248POPC   GL218698  23.749  21.517   8.864
 1248POPC   C1A18699  23.700  21.410   8.564
 1248POPC   D2A18700  23.692  21.355   8.264
 1248POPC   C3A18701  23.736  21.426   7.964
 1248POPC   C4A18702  23.669  21.349   7.664
 1248POPC   C1B18703  23.832  21.575   8.564
 1248POPC   C2B18704  23.811  21.653   8.264
 1248POPC   C3B18705  23.766  21.599   7.964
 1248POPC   C4B18706  23.817  21.658   7.664
 1249POPC   NC318707   4.364  30.745   9.464
 1249POPC   PO418708   4.346  30.651   9.164
 1249POPC   GL118709   4.317  30.687   8.864
 1249POPC   GL218710   4.194  30.767   8.864
 1249POPC   C1A18711   4.286  30.727   8.564
 1249POPC   D2A18712   4.305  30.718   8.264
 1249POPC   C3A18713   4.311  30.653   7.964
 1249POPC   C4A18714   4.316  30.742   7.664
 1249POPC   C1B18715   4.162  30.859   8.564
 1249POPC   C2B18716   4.091  30.859   8.264
 1249POPC   C3B18717   4.178  30.861   7.964
 1249POPC   C4B18718   4.120  30.911   7.664
 1250POPC   NC318719  19.795  18.272   9.464
 1250POPC   PO418720  19.816  18.305   9.164
 1250POPC   GL118721  19.810  18.240   8.864
 1250POPC   GL218722  19.955  18.223   8.864
 1250POPC   C1A18723  19.821  18.316   8.564
 1250POPC   D2A18724  19.809  18.327   8.264
 1250POPC   C3A18725  19.819  18.304   7.964
 1250POPC   C4A18726  19.803  18.269   7.664
 1250POPC   C1B18727  20.029  18.223   8.564
 1250POPC   C2B18728  20.031  18.127   8.264
 1250POPC   C3B18729  20.066  18.130   7.964
 1250POPC   C4B18730  20.051  18.140   7.664
 1251POPC   NC318731   2.813  10.534   9.464
 1251POPC   PO418732   2.724  10.540   9.164
 1251POPC   GL118733   2.717  10.536   8.864
 1251POPC   GL218734   2.808  10.675   8.864
 1251POPC   C1A18735   2.799  10.483   8.564
 1251POPC   D2A18736   2.772  10.488   8.264
 1251POPC   C3A18737   2.774  10.559   7.964
 1251POPC   C4A18738   2.808  10.566   7.664
 1251POPC   C1B18739   2.791  10.738   8.564
 1251POPC   C2B18740   2.881  10.782   8.264
 1251POPC   C3B18741   2.860  10.773   7.964
 1251POPC   C4B18742   2.803  10.776   7.664
 1252POPC   NC318743  15.183  43.922   9.464
 1252POPC   PO418744  15.190  43.911   9.164
 1252POPC   GL118745  15.149  43.897   8.864
 1252POPC   GL218746  15.288  43.953   8.864
 1252POPC   C1A18747  15.146  43.922   8.564
 1252POPC   D2A18748  15.224  43.855   8.264
 1252POPC   C3A18749  15.203  43.900   7.964
 1252POPC   C4A18750  15.227  43.928   7.664
 1252POPC   C1B18751  15.389  43.953   8.564
 1252POPC   C2B18752  15.459  43.883   8.264
 1252POPC   C3B18753  15.385  43.915   7.964
 1252POPC   C4B18754  15.440  43.921   7.664
 1253POPC   NC318755   0.470  29.882   9.464
 1253POPC   PO418756   0.457  29.917   9.164
 1253POPC   GL118757   0.400  29.968   8.864
 1253POPC   GL218758   0.406  29.837   8.864
 1253POPC   C1A18759   0.438  29.897   8.564
 1253POPC   D2A18760   0.448  29.887   8.264
 1253POPC   C3A18761   0.484  29.967   7.964
 1253POPC   C4A18762   0.465  29.872   7.664
 1253POPC   C1B18763   0.386  29.636   8.564
 1253POPC   C2B18764   0.364  29.670   8.264
 1253POPC   C3B18765   0.376  29.676   7.964
 1253POPC   C4B18766   0.432  29.683   7.664
 1254POPC   NC318767  16.779  39.997   9.464
 1254POPC   PO418768  16.778  39.989   9.164
 1254POPC   GL118769  16.755  39.963   8.864
 1254POPC   GL218770  16.753  40.082   8.864
 1254POPC   C1A18771  16.717  39.983   8.564
 1254POPC   D2A18772  16.689  39.984   8.264
 1254POPC   C3A18773  16.759  39.974   7.964
 1254POPC   C4A18774  16.688  40.033   7.664
 1254POPC   C1B18775  16.834  40.288   8.564
 1254POPC   C2B18776  16.820  40.224   8.264
 1254POPC   C3B18777  16.862  40.244   7.964
 1254POPC   C4B18778  16.794  40.231   7.664
 1255POPC   NC318779  27.559  12.085   9.464
 1255POPC   PO418780  27.561  12.079   9.164
 1255POPC   GL118781  27.602  12.056   8.864
 1255POPC   GL218782  27.678  11.933   8.864
 1255POPC   C1A18783  27.636  12.109   8.564
 1255POPC   D2A18784  27.628  12.056   8.264
 1255POPC   C3A18785  27.581  12.070   7.964
 1255POPC   C4A18786  27.602  12.114   7.664
 1255POPC   C1B18787  27.692  11.820   8.564
 1255POPC   C2B18788  27.678  11.876   8.264
 1255POPC   C3B18789  27.699  11.851   7.964
 1255POPC   C4B18790  27.687  11.832   7.664
 1256POPC   NC318791  38.411  23.666   9.464
 1256POPC   PO418792  38.479  23.719   9.164
 1256POPC   GL118793  38.408  23.688   8.864
 1256POPC   GL218794  38.379  23.548   8.864
 1256POPC   C1A18795  38.456  23.676   8.564
 1256POPC   D2A18796  38.412  23.702   8.264
 1256POPC   C3A18797  38.442  23.694   7.964
 1256POPC   C4A18798  38.461  23.757   7.664
 1256POPC   C1B18799  38.362  23.456   8.564
 1256POPC   C2B18800  38.404  23.434   8.264
 1256POPC   C3B18801  38.416  23.477   7.964
 1256POPC   C4B18802  38.343  23.484   7.664
 1257POPC   NC318803  19.079   5.125   9.464
 1257POPC   PO418804  19.016   5.142   9.164
 1257POPC   GL118805  19.025   5.063   8.864
 1257POPC   GL218806  19.155   5.128   8.864
 1257POPC   C1A18807  19.022   5.059   8.564
 1257POPC   D2A18808  19.050   5.084   8.264
 1257POPC   C3A18809  19.053   5.125   7.964
 1257POPC   C4A18810  19.021   5.055   7.664
 1257POPC   C1B18811  19.316   5.176   8.564
 1257POPC   C2B18812  19.315   5.246   8.264
 1257POPC   C3B18813  19.245   5.215   7.964
 1257POPC   C4B18814  19.245   5.159   7.664
 1258POPC   NC318815  31.482   9.750   9.464
 1258POPC   PO418816  31.429   9.778   9.164
 1258POPC   GL118817  31.475   9.774   8.864
 1258POPC   GL218818  31.384   9.665   8.864
 1258POPC   C1A18819  31.433   9.790   8.564
 1258POPC   D2A18820  31.427   9.747   8.264
 1258POPC   C3A18821  31.463   9.770   7.964
 1258POPC   C4A18822  31.433   9.722   7.664
 1258POPC   C1B18823  31.255   9.624   8.564
 1258POPC   C2B18824  31.269   9.681   8.264
 1258POPC   C3B18825  31.264   9.656   7.964
 1258POPC   C4B18826  31.238   9.672   7.664
 1259POPC   NC318827   3.531  38.453   9.464
 1259POPC   PO418828   3.493  38.406   9.164
 1259POPC   GL118829   3.491  38.460   8.864
 1259POPC   GL218830   3.644  38.335   8.864
 1259POPC   C1A18831   3.561  38.433   8.564
 1259POPC   D2A18832   3.561  38.416   8.264
 1259POPC   C3A18833   3.541  38.478   7.964
 1259POPC   C4A18834   3.503  38.428   7.664
 1259POPC   C1B18835   3.656  38.274   8.564
 1259POPC   C2B18836   3.640  38.214   8.264
 1259POPC   C3B18837   3.720  38.286   7.964
 1259POPC   C4B18838   3.707  38.241   7.664
 1260POPC   NC318839  37.689  40.030   9.464
 1260POPC   PO418840  37.727  40.050   9.164
 1260POPC   GL118841  37.654  39.975   8.864
 1260POPC   GL218842  37.692  40.131   8.864
 1260POPC   C1A18843  37.674  39.958   8.564
 1260POPC   D2A18844  37.726  40.011   8.264
 1260POPC   C3A18845  37.661  40.025   7.964
 1260POPC   C4A18846  37.659  40.024   7.664
 1260POPC   C1B18847  37.641  40.258   8.564
 1260POPC   C2B18848  37.652  40.300   8.264
 1260POPC   C3B18849  37.705  40.247   7.964
 1260POPC   C4B18850  37.705  40.233   7.664
 1261POPC   NC318851   6.687  26.072   9.464
 1261POPC   PO418852   6.660  26.008   9.164
 1261POPC   GL118853   6.666  26.073   8.864
 1261POPC   GL218854   6.484  25.968   8.864
 1261POPC   C1A18855   6.674  26.001   8.564
 1261POPC   D2A18856   6.671  26.073   8.264
 1261POPC   C3A18857   6.650  26.041   7.964
 1261POPC   C4A18858   6.613  26.079   7.664
 1261POPC   C1B18859   6.413  25.905   8.564
 1261POPC   C2B18860   6.436  25.966   8.264
 1261POPC   C3B18861   6.427  25.930   7.964
 1261POPC   C4B18862   6.389  25.914   7.664
 1262POPC   NC318863  40.020   0.443   9.464
 1262POPC   PO418864  40.055   0.464   9.164
 1262POPC   GL118865  40.012   0.429   8.864
 1262POPC   GL218866  39.857   0.509   8.864
 1262POPC   C1A18867  39.977   0.429   8.564
 1262POPC   D2A18868  40.013   0.464   8.264
 1262POPC   C3A18869  39.965   0.479   7.964
 1262POPC   C4A18870  39.972   0.404   7.664
 1262POPC   C1B18871  39.798   0.482   8.564
 1262POPC   C2B18872  39.723   0.517   8.264
 1262POPC   C3B18873  39.802   0.499   7.964
 1262POPC   C4B18874  39.727   0.534   7.664
 1263POPC   NC318875  43.156  16.728   9.464
 1263POPC   PO418876  43.075  16.747   9.164
 1263POPC   GL118877  43.096  16.771   8.864
 1263POPC   GL218878  43.196  16.677   8.864
 1263POPC   C1A18879  43.153  16.765   8.564
 1263POPC   D2A18880  43.154  16.780   8.264
 1263POPC   C3A18881  43.080  16.721   7.964
 1263POPC   C4A18882  43.142  16.748   7.664
 1263POPC   C1B18883  43.402  16.750   8.564
 1263POPC   C2B18884  43.396  16.749   8.264
 1263POPC   C3B18885  43.374  16.678   7.964
 1263POPC   C4B18886  43.329  16.744   7.664
 1264POPC   NC318887  24.536  42.307   9.464
 1264POPC   PO418888  24.511  42.347   9.164
 1264POPC   GL118889  24.508  42.298   8.864
 1264POPC   GL218890  24.611  42.474   8.864
 1264POPC   C1A18891  24.465  42.344   8.564
 1264POPC   D2A18892  24.491  42.341   8.264
 1264POPC   C3A18893  24.501  42.316   7.964
 1264POPC   C4A18894  24.511  42.375   7.664
 1264POPC   C1B18895  24.688  42.530   8.564
 1264POPC   C2B18896  24.634  42.489   8.264
 1264POPC   C3B18897  24.677  42.570   7.964
 1264POPC   C4B18898  24.649  42.559   7.664
 1265POPC   NC318899   2.749  32.996   9.464
 1265POPC   PO418900   2.746  33.052   9.164
 1265POPC   GL118901   2.809  33.004   8.864
 1265POPC   GL218902   2.767  33.114   8.864
 1265POPC   C1A18903   2.744  33.051   8.564
 1265POPC   D2A18904   2.811  33.031   8.264
 1265POPC   C3A18905   2.773  32.991   7.964
 1265POPC   C4A18906   2.777  33.020   7.664
 1265POPC   C1B18907   2.774  33.276   8.564
 1265POPC   C2B18908   2.721  33.224   8.264
 1265POPC   C3B18909   2.711  33.261   7.964
 1265POPC   C4B18910   2.727  33.255   7.664
 1266POPC   NC318911  20.603   2.024   9.464
 1266POPC   PO418912  20.630   1.999   9.164
 1266POPC   GL118913  20.563   1.995   8.864
 1266POPC   GL218914  20.587   2.068   8.864
 1266POPC   C1A18915  20.572   2.002   8.564
 1266POPC   D2A18916  20.599   1.959   8.264
 1266POPC   C3A18917  20.605   1.983   7.964
 1266POPC   C4A18918  20.573   1.959   7.664
 1266POPC   C1B18919  20.510   2.239   8.564
 1266POPC   C2B18920  20.593   2.249   8.264
 1266POPC   C3B18921  20.562   2.188   7.964
 1266POPC   C4B18922  20.571   2.221   7.664
 1267POPC   NC318923   3.505   9.735   9.464
 1267POPC   PO418924   3.501   9.780   9.164
 1267POPC   GL118925   3.500   9.744   8.864
 1267POPC   GL218926   3.667   9.830   8.864
 1267POPC   C1A18927   3.493   9.724   8.564
 1267POPC   D2A18928   3.549   9.754   8.264
 1267POPC   C3A18929   3.543   9.772   7.964
 1267POPC   C4A18930   3.497   9.783   7.664
 1267POPC   C1B18931   3.753   9.874   8.564
 1267POPC   C2B18932   3.737   9.845   8.264
 1267POPC   C3B18933   3.794   9.932   7.964
 1267POPC   C4B18934   3.713   9.864   7.664
 1268POPC   NC318935  26.004   2.727   9.464
 1268POPC   PO418936  26.013   2.721   9.164
 1268POPC   GL118937  26.019   2.799   8.864
 1268POPC   GL218938  26.207   2.715   8.864
 1268POPC   C1A18939  26.047   2.743   8.564
 1268POPC   D2A18940  26.091   2.789   8.264
 1268POPC   C3A18941  25.993   2.789   7.964
 1268POPC   C4A18942  25.995   2.777   7.664
 1268POPC   C1B18943  26.255   2.722   8.564
 1268POPC   C2B18944  26.313   2.672   8.264
 1268POPC   C3B18945  26.325   2.669   7.964
 1268POPC   C4B18946  26.256   2.679   7.664
 1269POPC   NC318947  30.652  16.708   9.464
 1269POPC   PO418948  30.671  16.717   9.164
 1269POPC   GL118949  30.706  16.742   8.864
 1269POPC   GL218950  30.801  16.804   8.864
 1269POPC   C1A18951  30.706  16.769   8.564
 1269POPC   D2A18952  30.717  16.708   8.264
 1269POPC   C3A18953  30.728  16.776   7.964
 1269POPC   C4A18954  30.699  16.727   7.664
 1269POPC   C1B18955  30.812  16.926   8.564
 1269POPC   C2B18956  30.881  16.922   8.264
 1269POPC   C3B18957  30.840  16.978   7.964
 1269POPC   C4B18958  30.854  16.896   7.664
 1270POPC   NC318959  18.321  16.763   9.464
 1270POPC   PO418960  18.273  16.686   9.164
 1270POPC   GL118961  18.314  16.769   8.864
 1270POPC   GL218962  18.226  16.778   8.864
 1270POPC   C1A18963  18.295  16.751   8.564
 1270POPC   D2A18964  18.325  16.727   8.264
 1270POPC   C3A18965  18.313  16.765   7.964
 1270POPC   C4A18966  18.306  16.727   7.664
 1270POPC   C1B18967  18.092  16.936   8.564
 1270POPC   C2B18968  18.106  16.864   8.264
 1270POPC   C3B18969  18.140  16.941   7.964
 1270POPC   C4B18970  18.133  16.939   7.664
 1271POPC   NC318971   7.381  43.117   9.464
 1271POPC   PO418972   7.430  43.151   9.164
 1271POPC   GL118973   7.464  43.109   8.864
 1271POPC   GL218974   7.541  43.055   8.864
 1271POPC   C1A18975   7.423  43.146   8.564
 1271POPC   D2A18976   7.392  43.126   8.264
 1271POPC   C3A18977   7.408  43.132   7.964
 1271POPC   C4A18978   7.412  43.123   7.664
 1271POPC   C1B18979   7.619  42.988   8.564
 1271POPC   C2B18980   7.675  43.010   8.264
 1271POPC   C3B18981   7.634  43.039   7.964
 1271POPC   C4B18982   7.631  43.058   7.664
 1272POPC   NC318983  37.687   4.336   9.464
 1272POPC   PO418984  37.658   4.299   9.164
 1272POPC   GL118985  37.692   4.326   8.864
 1272POPC   GL218986  37.853   4.339   8.864
 1272POPC   C1A18987  37.678   4.352   8.564
 1272POPC   D2A18988  37.634   4.341   8.264
 1272POPC   C3A18989  37.689   4.348   7.964
 1272POPC   C4A18990  37.693   4.310   7.664
 1272POPC   C1B18991  37.915   4.273   8.564
 1272POPC   C2B18992  37.894   4.322   8.264
 1272POPC   C3B18993  37.925   4.307   7.964
 1272POPC   C4B18994  37.953   4.320   7.664
 1273POPC   NC318995  31.498   5.899   9.464
 1273POPC   PO418996  31.444   5.868   9.164
 1273POPC   GL118997  31.503   5.828   8.864
 1273POPC   GL218998  31.473   6.033   8.864
 1273POPC   C1A18999  31.514   5.866   8.564
 1273POPC   D2A19000  31.437   5.895   8.264
 1273POPC   C3A19001  31.442   5.898   7.964
 1273POPC   C4A19002  31.456   5.898   7.664
 1273POPC   C1B19003  31.536   6.158   8.564
 1273POPC   C2B19004  31.546   6.068   8.264
 1273POPC   C3B19005  31.504   6.133   7.964
 1273POPC   C4B19006  31.546   6.069   7.664
 1274POPC   NC319007   1.188  20.584   9.464
 1274POPC   PO419008   1.204  20.598   9.164
 1274POPC   GL119009   1.249  20.652   8.864
 1274POPC   GL219010   1.145  20.726   8.864
 1274POPC   C1A19011   1.192  20.614   8.564
 1274POPC   D2A19012   1.251  20.574   8.264
 1274POPC   C3A19013   1.226  20.570   7.964
 1274POPC   C4A19014   1.193  20.647   7.664
 1274POPC   C1B19015   1.042  20.752   8.564
 1274POPC   C2B19016   1.076  20.800   8.264
 1274POPC   C3B19017   1.073  20.815   7.964
 1274POPC   C4B19018   1.086  20.811   7.664
 1275POPC   NC319019   4.311  11.268   9.464
 1275POPC   PO419020   4.302  11.332   9.164
 1275POPC   GL119021   4.270  11.312   8.864
 1275POPC   GL219022   4.235  11.401   8.864
 1275POPC   C1A19023   4.306  11.305   8.564
 1275POPC   D2A19024   4.288  11.290   8.264
 1275POPC   C3A19025   4.289  11.275   7.964
 1275POPC   C4A19026   4.359  11.276   7.664
 1275POPC   C1B19027   4.234  11.486   8.564
 1275POPC   C2B19028   4.233  11.520   8.264
 1275POPC   C3B19029   4.258  11.529   7.964
 1275POPC   C4B19030   4.214  11.495   7.664
 1276POPC   NC319031  14.367   2.757   9.464
 1276POPC   PO419032  14.416   2.737   9.164
 1276POPC   GL119033  14.443   2.718   8.864
 1276POPC   GL219034  14.280   2.710   8.864
 1276POPC   C1A19035  14.422   2.774   8.564
 1276POPC   D2A19036  14.368   2.815   8.264
 1276POPC   C3A19037  14.418   2.756   7.964
 1276POPC   C4A19038  14.389   2.722   7.664
 1276POPC   C1B19039  14.205   2.614   8.564
 1276POPC   C2B19040  14.276   2.550   8.264
 1276POPC   C3B19041  14.198   2.557   7.964
 1276POPC   C4B19042  14.255   2.611   7.664
 1277POPC   NC319043  11.254  18.317   9.464
 1277POPC   PO419044  11.326  18.245   9.164
 1277POPC   GL119045  11.325  18.283   8.864
 1277POPC   GL219046  11.231  18.192   8.864
 1277POPC   C1A19047  11.260  18.298   8.564
 1277POPC   D2A19048  11.254  18.332   8.264
 1277POPC   C3A19049  11.338  18.243   7.964
 1277POPC   C4A19050  11.325  18.291   7.664
 1277POPC   C1B19051  11.085  18.094   8.564
 1277POPC   C2B19052  11.077  18.117   8.264
 1277POPC   C3B19053  11.124  18.093   7.964
 1277POPC   C4B19054  11.076  18.157   7.664
 1278POPC   NC319055  22.926  38.503   9.464
 1278POPC   PO419056  22.892  38.473   9.164
 1278POPC   GL119057  22.938  38.413   8.864
 1278POPC   GL219058  22.794  38.511   8.864
 1278POPC   C1A19059  22.973  38.490   8.564
 1278POPC   D2A19060  22.913  38.455   8.264
 1278POPC   C3A19061  22.916  38.482   7.964
 1278POPC   C4A19062  22.953  38.488   7.664
 1278POPC   C1B19063  22.694  38.496   8.564
 1278POPC   C2B19064  22.707  38.499   8.264
 1278POPC   C3B19065  22.701  38.514   7.964
 1278POPC   C4B19066  22.697  38.495   7.664
 1279POPC   NC319067  32.236  19.061   9.464
 1279POPC   PO419068  32.209  19.028   9.164
 1279POPC   GL119069  32.263  19.030   8.864
 1279POPC   GL219070  32.258  19.150   8.864
 1279POPC   C1A19071  32.211  19.022   8.564
 1279POPC   D2A19072  32.283  19.055   8.264
 1279POPC   C3A19073  32.283  19.052   7.964
 1279POPC   C4A19074  32.215  19.030   7.664
 1279POPC   C1B19075  32.356  19.329   8.564
 1279POPC   C2B19076  32.329  19.293   8.264
 1279POPC   C3B19077  32.380  19.252   7.964
 1279POPC   C4B19078  32.358  19.326   7.664
 1280POPC   NC319079   6.607  11.346   9.464
 1280POPC   PO419080   6.659  11.310   9.164
 1280POPC   GL119081   6.648  11.297   8.864
 1280POPC   GL219082   6.565  11.274   8.864
 1280POPC   C1A19083   6.674  11.349   8.564
 1280POPC   D2A19084   6.639  11.320   8.264
 1280POPC   C3A19085   6.686  11.310   7.964
 1280POPC   C4A19086   6.629  11.261   7.664
 1280POPC   C1B19087   6.418  11.165   8.564
 1280POPC   C2B19088   6.389  11.194   8.264
 1280POPC   C3B19089   6.455  11.123   7.964
 1280POPC   C4B19090   6.438  11.142   7.664
 1281POPC   NC319091  44.697  32.975   9.464
 1281POPC   PO419092  44.704  33.041   9.164
 1281POPC   GL119093  44.686  33.050   8.864
 1281POPC   GL219094  44.671  33.107   8.864
 1281POPC   C1A19095  44.629  32.985   8.564
 1281POPC   D2A19096  44.650  33.056   8.264
 1281POPC   C3A19097  44.682  33.046   7.964
 1281POPC   C4A19098  44.652  33.026   7.664
 1281POPC   C1B19099  44.542  33.267   8.564
 1281POPC   C2B19100  44.548  33.223   8.264
 1281POPC   C3B19101  44.593  33.222   7.964
 1281POPC   C4B19102  44.600  33.266   7.664
 1282POPC   NC319103  37.656  17.467   9.464
 1282POPC   PO419104  37.695  17.492   9.164
 1282POPC   GL119105  37.629  17.510   8.864
 1282POPC   GL219106  37.664  17.615   8.864
 1282POPC   C1A19107  37.647  17.467   8.564
 1282POPC   D2A19108  37.663  17.512   8.264
 1282POPC   C3A19109  37.646  17.495   7.964
 1282POPC   C4A19110  37.673  17.494   7.664
 1282POPC   C1B19111  37.567  17.714   8.564
 1282POPC   C2B19112  37.600  17.723   8.264
 1282POPC   C3B19113  37.526  17.699   7.964
 1282POPC   C4B19114  37.608  17.713   7.664
 1283POPC   NC319115  16.704  36.163   9.464
 1283POPC   PO419116  16.712  36.141   9.164
 1283POPC   GL119117  16.773  36.145   8.864
 1283POPC   GL219118  16.626  36.079   8.864
 1283POPC   C1A19119  16.763  36.128   8.564
 1283POPC   D2A19120  16.712  36.130   8.264
 1283POPC   C3A19121  16.751  36.105   7.964
 1283POPC   C4A19122  16.775  36.111   7.664
 1283POPC   C1B19123  16.481  36.041   8.564
 1283POPC   C2B19124  16.453  36.070   8.264
 1283POPC   C3B19125  16.526  36.058   7.964
 1283POPC   C4B19126  16.473  36.016   7.664
 1284POPC   NC319127  38.486  12.804   9.464
 1284POPC   PO419128  38.488  12.873   9.164
 1284POPC   GL119129  38.466  12.822   8.864
 1284POPC   GL219130  38.507  12.902   8.864
 1284POPC   C1A19131  38.496  12.874   8.564
 1284POPC   D2A19132  38.460  12.813   8.264
 1284POPC   C3A19133  38.468  12.867   7.964
 1284POPC   C4A19134  38.438  12.844   7.664
 1284POPC   C1B19135  38.617  13.047   8.564
 1284POPC   C2B19136  38.613  13.054   8.264
 1284POPC   C3B19137  38.667  12.973   7.964
 1284POPC   C4B19138  38.693  13.037   7.664
 1285POPC   NC319139  44.619  38.488   9.464
 1285POPC   PO419140  44.663  38.448   9.164
 1285POPC   GL119141  44.619  38.466   8.864
 1285POPC   GL219142  44.774  38.312   8.864
 1285POPC   C1A19143  44.677  38.505   8.564
 1285POPC   D2A19144  44.708  38.461   8.264
 1285POPC   C3A19145  44.673  38.425   7.964
 1285POPC   C4A19146  44.692  38.428   7.664
 1285POPC   C1B19147  44.794  38.304   8.564
 1285POPC   C2B19148  44.786  38.253   8.264
 1285POPC   C3B19149  44.843  38.302   7.964
 1285POPC   C4B19150  44.788  38.298   7.664
 1286POPC   NC319151  31.507   3.571   9.464
 1286POPC   PO419152  31.486   3.521   9.164
 1286POPC   GL119153  31.453   3.496   8.864
 1286POPC   GL219154  31.463   3.674   8.864
 1286POPC   C1A19155  31.510   3.542   8.564
 1286POPC   D2A19156  31.469   3.538   8.264
 1286POPC   C3A19157  31.442   3.578   7.964
 1286POPC   C4A19158  31.479   3.585   7.664
 1286POPC   C1B19159  31.550   3.832   8.564
 1286POPC   C2B19160  31.530   3.776   8.264
 1286POPC   C3B19161  31.484   3.783   7.964
 1286POPC   C4B19162  31.534   3.794   7.664
 1287POPC   NC319163  34.543  34.585   9.464
 1287POPC   PO419164  34.596  34.550   9.164
 1287POPC   GL119165  34.530  34.549   8.864
 1287POPC   GL219166  34.725  34.516   8.864
 1287POPC   C1A19167  34.549  34.545   8.564
 1287POPC   D2A19168  34.619  34.622   8.264
 1287POPC   C3A19169  34.557  34.607   7.964
 1287POPC   C4A19170  34.591  34.590   7.664
 1287POPC   C1B19171  34.842  34.526   8.564
 1287POPC   C2B19172  34.867  34.560   8.264
 1287POPC   C3B19173  34.782  34.529   7.964
 1287POPC   C4B19174  34.779  34.553   7.664
 1288POPC   NC319175   5.860  16.768   9.464
 1288POPC   PO419176   5.875  16.757   9.164
 1288POPC   GL119177   5.874  16.701   8.864
 1288POPC   GL219178   5.955  16.837   8.864
 1288POPC   C1A19179   5.894  16.778   8.564
 1288POPC   D2A19180   5.862  16.693   8.264
 1288POPC   C3A19181   5.862  16.712   7.964
 1288POPC   C4A19182   5.885  16.756   7.664
 1288POPC   C1B19183   5.956  16.960   8.564
 1288POPC   C2B19184   6.045  16.901   8.264
 1288POPC   C3B19185   6.035  16.908   7.964
 1288POPC   C4B19186   6.037  16.926   7.664
 1289POPC   NC319187  18.239   4.278   9.464
 1289POPC   PO419188  18.294   4.361   9.164
 1289POPC   GL119189  18.290   4.340   8.864
 1289POPC   GL219190  18.394   4.274   8.864
 1289POPC   C1A19191  18.331   4.318   8.564
 1289POPC   D2A19192  18.244   4.345   8.264
 1289POPC   C3A19193  18.247   4.346   7.964
 1289POPC   C4A19194  18.275   4.296   7.664
 1289POPC   C1B19195  18.523   4.210   8.564
 1289POPC   C2B19196  18.498   4.164   8.264
 1289POPC   C3B19197  18.495   4.135   7.964
 1289POPC   C4B19198  18.482   4.172   7.664
 1290POPC   NC319199  19.845   3.546   9.464
 1290POPC   PO419200  19.877   3.504   9.164
 1290POPC   GL119201  19.792   3.554   8.864
 1290POPC   GL219202  19.876   3.421   8.864
 1290POPC   C1A19203  19.883   3.498   8.564
 1290POPC   D2A19204  19.846   3.583   8.264
 1290POPC   C3A19205  19.856   3.584   7.964
 1290POPC   C4A19206  19.815   3.574   7.664
 1290POPC   C1B19207  19.860   3.281   8.564
 1290POPC   C2B19208  19.817   3.304   8.264
 1290POPC   C3B19209  19.848   3.309   7.964
 1290POPC   C4B19210  19.850   3.273   7.664
 1291POPC   NC319211  20.644  39.225   9.464
 1291POPC   PO419212  20.600  39.277   9.164
 1291POPC   GL119213  20.604  39.192   8.864
 1291POPC   GL219214  20.547  39.103   8.864
 1291POPC   C1A19215  20.616  39.215   8.564
 1291POPC   D2A19216  20.658  39.226   8.264
 1291POPC   C3A19217  20.582  39.267   7.964
 1291POPC   C4A19218  20.638  39.254   7.664
 1291POPC   C1B19219  20.464  39.034   8.564
 1291POPC   C2B19220  20.411  39.035   8.264
 1291POPC   C3B19221  20.456  39.014   7.964
 1291POPC   C4B19222  20.444  39.017   7.664
 1292POPC   NC319223  26.772  16.693   9.464
 1292POPC   PO419224  26.827  16.768   9.164
 1292POPC   GL119225  26.843  16.716   8.864
 1292POPC   GL219226  26.724  16.618   8.864
 1292POPC   C1A19227  26.796  16.723   8.564
 1292POPC   D2A19228  26.858  16.684   8.264
 1292POPC   C3A19229  26.865  16.778   7.964
 1292POPC   C4A19230  26.774  16.777   7.664
 1292POPC   C1B19231  26.628  16.568   8.564
 1292POPC   C2B19232  26.602  16.586   8.264
 1292POPC   C3B19233  26.597  16.594   7.964
 1292POPC   C4B19234  26.584  16.601   7.664
 1293POPC   NC319235  21.396   7.392   9.464
 1293POPC   PO419236  21.351   7.444   9.164
 1293POPC   GL119237  21.422   7.423   8.864
 1293POPC   GL219238  21.462   7.395   8.864
 1293POPC   C1A19239  21.432   7.454   8.564
 1293POPC   D2A19240  21.404   7.374   8.264
 1293POPC   C3A19241  21.357   7.378   7.964
 1293POPC   C4A19242  21.362   7.425   7.664
 1293POPC   C1B19243  21.656   7.367   8.564
 1293POPC   C2B19244  21.642   7.311   8.264
 1293POPC   C3B19245  21.633   7.279   7.964
 1293POPC   C4B19246  21.590   7.278   7.664
 1294POPC   NC319247  20.630   7.380   9.464
 1294POPC   PO419248  20.628   7.462   9.164
 1294POPC   GL119249  20.641   7.431   8.864
 1294POPC   GL219250  20.604   7.326   8.864
 1294POPC   C1A19251  20.605   7.397   8.564
 1294POPC   D2A19252  20.624   7.394   8.264
 1294POPC   C3A19253  20.640   7.444   7.964
 1294POPC   C4A19254  20.628   7.431   7.664
 1294POPC   C1B19255  20.630   7.184   8.564
 1294POPC   C2B19256  20.638   7.210   8.264
 1294POPC   C3B19257  20.639   7.131   7.964
 1294POPC   C4B19258  20.630   7.214   7.664
 1295POPC   NC319259  40.016   9.798   9.464
 1295POPC   PO419260  40.055   9.749   9.164
 1295POPC   GL119261  39.997   9.763   8.864
 1295POPC   GL219262  40.118   9.683   8.864
 1295POPC   C1A19263  40.007   9.722   8.564
 1295POPC   D2A19264  39.977   9.703   8.264
 1295POPC   C3A19265  39.997   9.756   7.964
 1295POPC   C4A19266  40.054   9.704   7.664
 1295POPC   C1B19267  40.161   9.615   8.564
 1295POPC   C2B19268  40.169   9.548   8.264
 1295POPC   C3B19269  40.225   9.523   7.964
 1295POPC   C4B19270  40.140   9.558   7.664
 1296POPC   NC319271   4.328   7.405   9.464
 1296POPC   PO419272   4.363   7.392   9.164
 1296POPC   GL119273   4.309   7.399   8.864
 1296POPC   GL219274   4.405   7.555   8.864
 1296POPC   C1A19275   4.300   7.378   8.564
 1296POPC   D2A19276   4.316   7.454   8.264
 1296POPC   C3A19277   4.334   7.374   7.964
 1296POPC   C4A19278   4.353   7.421   7.664
 1296POPC   C1B19279   4.399   7.604   8.564
 1296POPC   C2B19280   4.462   7.592   8.264
 1296POPC   C3B19281   4.404   7.597   7.964
 1296POPC   C4B19282   4.460   7.638   7.664
 1297POPC   NC319283  13.666   1.182   9.464
 1297POPC   PO419284  13.640   1.252   9.164
 1297POPC   GL119285  13.666   1.191   8.864
 1297POPC   GL219286  13.479   1.194   8.864
 1297POPC   C1A19287  13.620   1.231   8.564
 1297POPC   D2A19288  13.598   1.237   8.264
 1297POPC   C3A19289  13.649   1.232   7.964
 1297POPC   C4A19290  13.613   1.236   7.664
 1297POPC   C1B19291  13.456   1.113   8.564
 1297POPC   C2B19292  13.434   1.118   8.264
 1297POPC   C3B19293  13.455   1.093   7.964
 1297POPC   C4B19294  13.413   1.141   7.664
 1298POPC   NC319295  24.463  33.058   9.464
 1298POPC   PO419296  24.501  32.999   9.164
 1298POPC   GL119297  24.475  32.980   8.864
 1298POPC   GL219298  24.398  33.127   8.864
 1298POPC   C1A19299  24.494  32.983   8.564
 1298POPC   D2A19300  24.497  33.000   8.264
 1298POPC   C3A19301  24.513  33.011   7.964
 1298POPC   C4A19302  24.521  32.999   7.664
 1298POPC   C1B19303  24.409  33.219   8.564
 1298POPC   C2B19304  24.366  33.275   8.264
 1298POPC   C3B19305  24.331  33.249   7.964
 1298POPC   C4B19306  24.350  33.210   7.664
 1299POPC   NC319307  33.067  35.363   9.464
 1299POPC   PO419308  33.073  35.306   9.164
 1299POPC   GL119309  33.035  35.349   8.864
 1299POPC   GL219310  33.023  35.490   8.864
 1299POPC   C1A19311  32.980  35.357   8.564
 1299POPC   D2A19312  33.032  35.307   8.264
 1299POPC   C3A19313  33.009  35.385   7.964
 1299POPC   C4A19314  33.013  35.354   7.664
 1299POPC   C1B19315  33.070  35.583   8.564
 1299POPC   C2B19316  33.060  35.607   8.264
 1299POPC   C3B19317  33.005  35.559   7.964
 1299POPC   C4B19318  33.004  35.582   7.664
 1300POPC   NC319319   6.631   2.784   9.464
 1300POPC   PO419320   6.625   2.741   9.164
 1300POPC   GL119321   6.597   2.774   8.864
 1300POPC   GL219322   6.587   2.666   8.864
 1300POPC   C1A19323   6.660   2.783   8.564
 1300POPC   D2A19324   6.624   2.752   8.264
 1300POPC   C3A19325   6.612   2.761   7.964
 1300POPC   C4A19326   6.648   2.753   7.664
 1300POPC   C1B19327   6.602   2.486   8.564
 1300POPC   C2B19328   6.582   2.493   8.264
 1300POPC   C3B19329   6.534   2.488   7.964
 1300POPC   C4B19330   6.542   2.481   7.664
 1301POPC   NC319331   9.747  14.401   9.464
 1301POPC   PO419332   9.730  14.364   9.164
 1301POPC   GL119333   9.757  14.379   8.864
 1301POPC   GL219334   9.861  14.363   8.864
 1301POPC   C1A19335   9.768  14.439   8.564
 1301POPC   D2A19336   9.749  14.398   8.264
 1301POPC   C3A19337   9.777  14.416   7.964
 1301POPC   C4A19338   9.711  14.363   7.664
 1301POPC   C1B19339   9.984  14.221   8.564
 1301POPC   C2B19340   9.960  14.235   8.264
 1301POPC   C3B19341   9.917  14.202   7.964
 1301POPC   C4B19342   9.925  14.197   7.664
 1302POPC   NC319343  22.976  12.099   9.464
 1302POPC   PO419344  22.907  12.079   9.164
 1302POPC   GL119345  22.983  12.051   8.864
 1302POPC   GL219346  22.815  12.156   8.864
 1302POPC   C1A19347  22.968  12.048   8.564
 1302POPC   D2A19348  22.985  12.115   8.264
 1302POPC   C3A19349  22.902  12.043   7.964
 1302POPC   C4A19350  22.982  12.032   7.664
 1302POPC   C1B19351  22.749  12.142   8.564
 1302POPC   C2B19352  22.693  12.135   8.264
 1302POPC   C3B19353  22.747  12.217   7.964
 1302POPC   C4B19354  22.753  12.221   7.664
 1303POPC   NC319355  32.205  34.540   9.464
 1303POPC   PO419356  32.215  34.579   9.164
 1303POPC   GL119357  32.252  34.569   8.864
 1303POPC   GL219358  32.311  34.424   8.864
 1303POPC   C1A19359  32.218  34.546   8.564
 1303POPC   D2A19360  32.245  34.571   8.264
 1303POPC   C3A19361  32.294  34.596   7.964
 1303POPC   C4A19362  32.278  34.557   7.664
 1303POPC   C1B19363  32.393  34.419   8.564
 1303POPC   C2B19364  32.362  34.325   8.264
 1303POPC   C3B19365  32.373  34.392   7.964
 1303POPC   C4B19366  32.346  34.414   7.664
 1304POPC   NC319367  39.246  37.681   9.464
 1304POPC   PO419368  39.226  37.706   9.164
 1304POPC   GL119369  39.246  37.703   8.864
 1304POPC   GL219370  39.307  37.650   8.864
 1304POPC   C1A19371  39.203  37.636   8.564
 1304POPC   D2A19372  39.210  37.636   8.264
 1304POPC   C3A19373  39.233  37.652   7.964
 1304POPC   C4A19374  39.204  37.719   7.664
 1304POPC   C1B19375  39.505  37.607   8.564
 1304POPC   C2B19376  39.431  37.594   8.264
 1304POPC   C3B19377  39.443  37.627   7.964
 1304POPC   C4B19378  39.512  37.582   7.664
 1305POPC   NC319379  23.722  30.660   9.464
 1305POPC   PO419380  23.742  30.728   9.164
 1305POPC   GL119381  23.763  30.711   8.864
 1305POPC   GL219382  23.804  30.594   8.864
 1305POPC   C1A19383  23.701  30.677   8.564
 1305POPC   D2A19384  23.736  30.743   8.264
 1305POPC   C3A19385  23.737  30.684   7.964
 1305POPC   C4A19386  23.722  30.718   7.664
 1305POPC   C1B19387  23.819  30.445   8.564
 1305POPC   C2B19388  23.814  30.520   8.264
 1305POPC   C3B19389  23.851  30.513   7.964
 1305POPC   C4B19390  23.829  30.521   7.664
 1306POPC   NC319391  36.085  36.870   9.464
 1306POPC   PO419392  36.116  36.887   9.164
 1306POPC   GL119393  36.152  36.930   8.864
 1306POPC   GL219394  36.212  36.736   8.864
 1306POPC   C1A19395  36.112  36.951   8.564
 1306POPC   D2A19396  36.153  36.952   8.264
 1306POPC   C3A19397  36.144  36.886   7.964
 1306POPC   C4A19398  36.143  36.872   7.664
 1306POPC   C1B19399  36.202  36.692   8.564
 1306POPC   C2B19400  36.211  36.673   8.264
 1306POPC   C3B19401  36.246  36.635   7.964
 1306POPC   C4B19402  36.197  36.618   7.664
 1307POPC   NC319403  28.389  21.375   9.464
 1307POPC   PO419404  28.415  21.356   9.164
 1307POPC   GL119405  28.371  21.407   8.864
 1307POPC   GL219406  28.272  21.533   8.864
 1307POPC   C1A19407  28.327  21.358   8.564
 1307POPC   D2A19408  28.404  21.388   8.264
 1307POPC   C3A19409  28.329  21.388   7.964
 1307POPC   C4A19410  28.410  21.420   7.664
 1307POPC   C1B19411  28.178  21.557   8.564
 1307POPC   C2B19412  28.261  21.538   8.264
 1307POPC   C3B19413  28.181  21.605   7.964
 1307POPC   C4B19414  28.245  21.558   7.664
 1308POPC   NC319415  25.301  20.613   9.464
 1308POPC   PO419416  25.255  20.570   9.164
 1308POPC   GL119417  25.249  20.627   8.864
 1308POPC   GL219418  25.366  20.467   8.864
 1308POPC   C1A19419  25.298  20.602   8.564
 1308POPC   D2A19420  25.262  20.603   8.264
 1308POPC   C3A19421  25.305  20.584   7.964
 1308POPC   C4A19422  25.298  20.575   7.664
 1308POPC   C1B19423  25.433  20.363   8.564
 1308POPC   C2B19424  25.394  20.433   8.264
 1308POPC   C3B19425  25.362  20.360   7.964
 1308POPC   C4B19426  25.397  20.365   7.664
 1309POPC   NC319427   9.015  30.677   9.464
 1309POPC   PO419428   8.928  30.721   9.164
 1309POPC   GL119429   9.010  30.665   8.864
 1309POPC   GL219430   9.032  30.789   8.864
 1309POPC   C1A19431   8.997  30.717   8.564
 1309POPC   D2A19432   8.949  30.698   8.264
 1309POPC   C3A19433   8.977  30.733   7.964
 1309POPC   C4A19434   8.991  30.729   7.664
 1309POPC   C1B19435   9.154  30.911   8.564
 1309POPC   C2B19436   9.117  30.828   8.264
 1309POPC   C3B19437   9.115  30.870   7.964
 1309POPC   C4B19438   9.126  30.850   7.664
 1310POPC   NC319439  39.220   1.960   9.464
 1310POPC   PO419440  39.225   1.999   9.164
 1310POPC   GL119441  39.207   1.944   8.864
 1310POPC   GL219442  39.130   1.924   8.864
 1310POPC   C1A19443  39.266   2.006   8.564
 1310POPC   D2A19444  39.243   1.996   8.264
 1310POPC   C3A19445  39.185   1.956   7.964
 1310POPC   C4A19446  39.275   1.956   7.664
 1310POPC   C1B19447  39.015   1.855   8.564
 1310POPC   C2B19448  38.999   1.847   8.264
 1310POPC   C3B19449  39.035   1.913   7.964
 1310POPC   C4B19450  39.023   1.837   7.664
 1311POPC   NC319451   5.110   9.790   9.464
 1311POPC   PO419452   5.123   9.790   9.164
 1311POPC   GL119453   5.105   9.744   8.864
 1311POPC   GL219454   5.103   9.636   8.864
 1311POPC   C1A19455   5.138   9.751   8.564
 1311POPC   D2A19456   5.049   9.730   8.264
 1311POPC   C3A19457   5.086   9.743   7.964
 1311POPC   C4A19458   5.078   9.791   7.664
 1311POPC   C1B19459   5.182   9.486   8.564
 1311POPC   C2B19460   5.228   9.479   8.264
 1311POPC   C3B19461   5.154   9.512   7.964
 1311POPC   C4B19462   5.232   9.548   7.664
 1312POPC   NC319463  36.903  42.354   9.464
 1312POPC   PO419464  36.871  42.312   9.164
 1312POPC   GL119465  36.907  42.331   8.864
 1312POPC   GL219466  36.955  42.457   8.864
 1312POPC   C1A19467  36.879  42.296   8.564
 1312POPC   D2A19468  36.860  42.334   8.264
 1312POPC   C3A19469  36.883  42.327   7.964
 1312POPC   C4A19470  36.893  42.353   7.664
 1312POPC   C1B19471  36.898  42.536   8.564
 1312POPC   C2B19472  36.958  42.619   8.264
 1312POPC   C3B19473  36.925  42.565   7.964
 1312POPC   C4B19474  36.970  42.611   7.664
 1313POPC   NC319475  33.794   3.555   9.464
 1313POPC   PO419476  33.824   3.543   9.164
 1313POPC   GL119477  33.821   3.562   8.864
 1313POPC   GL219478  33.795   3.406   8.864
 1313POPC   C1A19479  33.793   3.557   8.564
 1313POPC   D2A19480  33.843   3.537   8.264
 1313POPC   C3A19481  33.755   3.533   7.964
 1313POPC   C4A19482  33.806   3.506   7.664
 1313POPC   C1B19483  33.875   3.266   8.564
 1313POPC   C2B19484  33.806   3.250   8.264
 1313POPC   C3B19485  33.852   3.320   7.964
 1313POPC   C4B19486  33.847   3.245   7.664
 1314POPC   NC319487   8.192  38.493   9.464
 1314POPC   PO419488   8.236  38.436   9.164
 1314POPC   GL119489   8.212  38.419   8.864
 1314POPC   GL219490   8.124  38.328   8.864
 1314POPC   C1A19491   8.241  38.446   8.564
 1314POPC   D2A19492   8.156  38.462   8.264
 1314POPC   C3A19493   8.152  38.432   7.964
 1314POPC   C4A19494   8.166  38.461   7.664
 1314POPC   C1B19495   8.118  38.191   8.564
 1314POPC   C2B19496   8.122  38.270   8.264
 1314POPC   C3B19497   8.084  38.206   7.964
 1314POPC   C4B19498   8.072  38.184   7.664
 1315POPC   NC319499   0.435  32.288   9.464
 1315POPC   PO419500   0.450  32.246   9.164
 1315POPC   GL119501   0.407  32.234   8.864
 1315POPC   GL219502   0.350  32.127   8.864
 1315POPC   C1A19503   0.426  32.287   8.564
 1315POPC   D2A19504   0.481  32.262   8.264
 1315POPC   C3A19505   0.462  32.294   7.964
 1315POPC   C4A19506   0.391  32.262   7.664
 1315POPC   C1B19507   0.295  32.032   8.564
 1315POPC   C2B19508   0.303  32.071   8.264
 1315POPC   C3B19509   0.284  32.074   7.964
 1315POPC   C4B19510   0.263  32.032   7.664
 1316POPC   NC319511  43.117  24.459   9.464
 1316POPC   PO419512  43.098  24.514   9.164
 1316POPC   GL119513  43.061  24.526   8.864
 1316POPC   GL219514  43.135  24.582   8.864
 1316POPC   C1A19515  43.081  24.504   8.564
 1316POPC   D2A19516  43.065  24.466   8.264
 1316POPC   C3A19517  43.068  24.501   7.964
 1316POPC   C4A19518  43.086  24.497   7.664
 1316POPC   C1B19519  43.034  24.787   8.564
 1316POPC   C2B19520  43.077  24.704   8.264
 1316POPC   C3B19521  43.078  24.713   7.964
 1316POPC   C4B19522  43.036  24.747   7.664
 1317POPC   NC319523  43.105  29.183   9.464
 1317POPC   PO419524  43.121  29.108   9.164
 1317POPC   GL119525  43.153  29.123   8.864
 1317POPC   GL219526  43.054  29.258   8.864
 1317POPC   C1A19527  43.111  29.109   8.564
 1317POPC   D2A19528  43.137  29.136   8.264
 1317POPC   C3A19529  43.159  29.165   7.964
 1317POPC   C4A19530  43.159  29.132   7.664
 1317POPC   C1B19531  43.028  29.397   8.564
 1317POPC   C2B19532  43.036  29.422   8.264
 1317POPC   C3B19533  43.093  29.438   7.964
 1317POPC   C4B19534  43.080  29.373   7.664
 1318POPC   NC319535  20.601  26.039   9.464
 1318POPC   PO419536  20.602  25.997   9.164
 1318POPC   GL119537  20.656  26.053   8.864
 1318POPC   GL219538  20.490  25.981   8.864
 1318POPC   C1A19539  20.567  26.062   8.564
 1318POPC   D2A19540  20.632  26.008   8.264
 1318POPC   C3A19541  20.607  26.055   7.964
 1318POPC   C4A19542  20.628  26.077   7.664
 1318POPC   C1B19543  20.413  25.867   8.564
 1318POPC   C2B19544  20.443  25.827   8.264
 1318POPC   C3B19545  20.415  25.895   7.964
 1318POPC   C4B19546  20.440  25.847   7.664
 1319POPC   NC319547   0.485  37.708   9.464
 1319POPC   PO419548   0.415  37.702   9.164
 1319POPC   GL119549   0.441  37.703   8.864
 1319POPC   GL219550   0.472  37.833   8.864
 1319POPC   C1A19551   0.475  37.723   8.564
 1319POPC   D2A19552   0.413  37.722   8.264
 1319POPC   C3A19553   0.448  37.705   7.964
 1319POPC   C4A19554   0.459  37.659   7.664
 1319POPC   C1B19555   0.538  37.882   8.564
 1319POPC   C2B19556   0.534  37.954   8.264
 1319POPC   C3B19557   0.560  37.964   7.964
 1319POPC   C4B19558   0.489  37.939   7.664
 1320POPC   NC319559  43.923  15.140   9.464
 1320POPC   PO419560  43.914  15.160   9.164
 1320POPC   GL119561  43.901  15.181   8.864
 1320POPC   GL219562  43.935  15.038   8.864
 1320POPC   C1A19563  43.882  15.157   8.564
 1320POPC   D2A19564  43.866  15.178   8.264
 1320POPC   C3A19565  43.874  15.152   7.964
 1320POPC   C4A19566  43.854  15.221   7.664
 1320POPC   C1B19567  43.922  14.953   8.564
 1320POPC   C2B19568  43.924  14.941   8.264
 1320POPC   C3B19569  43.864  14.967   7.964
 1320POPC   C4B19570  43.889  14.946   7.664
 1321POPC   NC319571   0.446  43.160   9.464
 1321POPC   PO419572   0.474  43.079   9.164
 1321POPC   GL119573   0.403  43.129   8.864
 1321POPC   GL219574   0.509  43.059   8.864
 1321POPC   C1A19575   0.433  43.135   8.564
 1321POPC   D2A19576   0.443  43.129   8.264
 1321POPC   C3A19577   0.452  43.085   7.964
 1321POPC   C4A19578   0.454  43.142   7.664
 1321POPC   C1B19579   0.571  42.873   8.564
 1321POPC   C2B19580   0.588  42.970   8.264
 1321POPC   C3B19581   0.565  42.894   7.964
 1321POPC   C4B19582   0.574  42.915   7.664
 1322POPC   NC319583  10.561  31.469   9.464
 1322POPC   PO419584  10.517  31.457   9.164
 1322POPC   GL119585  10.488  31.520   8.864
 1322POPC   GL219586  10.357  31.485   8.864
 1322POPC   C1A19587  10.569  31.471   8.564
 1322POPC   D2A19588  10.520  31.489   8.264
 1322POPC   C3A19589  10.506  31.503   7.964
 1322POPC   C4A19590  10.520  31.457   7.664
 1322POPC   C1B19591  10.241  31.438   8.564
 1322POPC   C2B19592  10.267  31.476   8.264
 1322POPC   C3B19593  10.259  31.474   7.964
 1322POPC   C4B19594  10.257  31.414   7.664
 1323POPC   NC319595  29.942   1.219   9.464
 1323POPC   PO419596  29.876   1.261   9.164
 1323POPC   GL119597  29.876   1.182   8.864
 1323POPC   GL219598  29.890   1.096   8.864
 1323POPC   C1A19599  29.934   1.179   8.564
 1323POPC   D2A19600  29.969   1.253   8.264
 1323POPC   C3A19601  29.929   1.164   7.964
 1323POPC   C4A19602  29.948   1.175   7.664
 1323POPC   C1B19603  29.835   0.984   8.564
 1323POPC   C2B19604  29.897   0.961   8.264
 1323POPC   C3B19605  29.873   1.013   7.964
 1323POPC   C4B19606  29.924   0.935   7.664
 1324POPC   NC319607   7.416  17.512   9.464
 1324POPC   PO419608   7.386  17.464   9.164
 1324POPC   GL119609   7.423  17.554   8.864
 1324POPC   GL219610   7.346  17.381   8.864
 1324POPC   C1A19611   7.422  17.529   8.564
 1324POPC   D2A19612   7.419  17.461   8.264
 1324POPC   C3A19613   7.381  17.484   7.964
 1324POPC   C4A19614   7.446  17.540   7.664
 1324POPC   C1B19615   7.235  17.298   8.564
 1324POPC   C2B19616   7.238  17.324   8.264
 1324POPC   C3B19617   7.245  17.350   7.964
 1324POPC   C4B19618   7.255  17.322   7.664
 1325POPC   NC319619   1.950  16.687   9.464
 1325POPC   PO419620   1.952  16.770   9.164
 1325POPC   GL119621   1.972  16.711   8.864
 1325POPC   GL219622   1.975  16.825   8.864
 1325POPC   C1A19623   2.037  16.756   8.564
 1325POPC   D2A19624   2.031  16.772   8.264
 1325POPC   C3A19625   2.022  16.720   7.964
 1325POPC   C4A19626   1.993  16.731   7.664
 1325POPC   C1B19627   1.837  16.990   8.564
 1325POPC   C2B19628   1.848  16.923   8.264
 1325POPC   C3B19629   1.920  16.954   7.964
 1325POPC   C4B19630   1.877  16.974   7.664
 1326POPC   NC319631  42.364  28.355   9.464
 1326POPC   PO419632  42.308  28.333   9.164
 1326POPC   GL119633  42.309  28.326   8.864
 1326POPC   GL219634  42.251  28.504   8.864
 1326POPC   C1A19635  42.383  28.396   8.564
 1326POPC   D2A19636  42.347  28.398   8.264
 1326POPC   C3A19637  42.298  28.348   7.964
 1326POPC   C4A19638  42.363  28.374   7.664
 1326POPC   C1B19639  42.143  28.563   8.564
 1326POPC   C2B19640  42.177  28.557   8.264
 1326POPC   C3B19641  42.133  28.559   7.964
 1326POPC   C4B19642  42.163  28.573   7.664
 1327POPC   NC319643  15.169  26.003   9.464
 1327POPC   PO419644  15.221  26.076   9.164
 1327POPC   GL119645  15.143  26.000   8.864
 1327POPC   GL219646  15.043  26.091   8.864
 1327POPC   C1A19647  15.145  25.997   8.564
 1327POPC   D2A19648  15.192  25.995   8.264
 1327POPC   C3A19649  15.187  25.993   7.964
 1327POPC   C4A19650  15.161  26.076   7.664
 1327POPC   C1B19651  15.029  26.154   8.564
 1327POPC   C2B19652  14.980  26.240   8.264
 1327POPC   C3B19653  14.941  26.157   7.964
 1327POPC   C4B19654  14.949  26.197   7.664
 1328POPC   NC319655  43.150  19.823   9.464
 1328POPC   PO419656  43.129  19.807   9.164
 1328POPC   GL119657  43.064  19.820   8.864
 1328POPC   GL219658  43.012  19.822   8.864
 1328POPC   C1A19659  43.132  19.874   8.564
 1328POPC   D2A19660  43.131  19.860   8.264
 1328POPC   C3A19661  43.142  19.844   7.964
 1328POPC   C4A19662  43.081  19.848   7.664
 1328POPC   C1B19663  42.924  19.673   8.564
 1328POPC   C2B19664  42.936  19.680   8.264
 1328POPC   C3B19665  42.858  19.724   7.964
 1328POPC   C4B19666  42.914  19.689   7.664
 1329POPC   NC319667   5.081  33.065   9.464
 1329POPC   PO419668   5.116  33.073   9.164
 1329POPC   GL119669   5.134  33.003   8.864
 1329POPC   GL219670   5.138  33.098   8.864
 1329POPC   C1A19671   5.090  32.980   8.564
 1329POPC   D2A19672   5.136  32.981   8.264
 1329POPC   C3A19673   5.108  33.066   7.964
 1329POPC   C4A19674   5.124  32.980   7.664
 1329POPC   C1B19675   5.283  33.144   8.564
 1329POPC   C2B19676   5.231  33.195   8.264
 1329POPC   C3B19677   5.273  33.186   7.964
 1329POPC   C4B19678   5.297  33.157   7.664
 1330POPC   NC319679  29.145  43.886   9.464
 1330POPC   PO419680  29.161  43.860   9.164
 1330POPC   GL119681  29.125  43.895   8.864
 1330POPC   GL219682  29.193  43.992   8.864
 1330POPC   C1A19683  29.164  43.872   8.564
 1330POPC   D2A19684  29.194  43.865   8.264
 1330POPC   C3A19685  29.160  43.886   7.964
 1330POPC   C4A19686  29.105  43.934   7.664
 1330POPC   C1B19687  29.179  44.104   8.564
 1330POPC   C2B19688  29.145  44.129   8.264
 1330POPC   C3B19689  29.189  44.150   7.964
 1330POPC   C4B19690  29.110  44.092   7.664
 1331POPC   NC319691  29.902  16.760   9.464
 1331POPC   PO419692  29.917  16.735   9.164
 1331POPC   GL119693  29.871  16.720   8.864
 1331POPC   GL219694  29.889  16.640   8.864
 1331POPC   C1A19695  29.955  16.690   8.564
 1331POPC   D2A19696  29.942  16.740   8.264
 1331POPC   C3A19697  29.881  16.736   7.964
 1331POPC   C4A19698  29.909  16.723   7.664
 1331POPC   C1B19699  29.893  16.453   8.564
 1331POPC   C2B19700  29.869  16.466   8.264
 1331POPC   C3B19701  29.827  16.487   7.964
 1331POPC   C4B19702  29.904  16.469   7.664
 1332POPC   NC319703  25.310   5.914   9.464
 1332POPC   PO419704  25.259   5.869   9.164
 1332POPC   GL119705  25.255   5.865   8.864
 1332POPC   GL219706  25.238   5.775   8.864
 1332POPC   C1A19707  25.270   5.860   8.564
 1332POPC   D2A19708  25.263   5.840   8.264
 1332POPC   C3A19709  25.266   5.885   7.964
 1332POPC   C4A19710  25.299   5.907   7.664
 1332POPC   C1B19711  25.237   5.658   8.564
 1332POPC   C2B19712  25.310   5.574   8.264
 1332POPC   C3B19713  25.312   5.603   7.964
 1332POPC   C4B19714  25.265   5.576   7.664
 1333POPC   NC319715  29.940  41.542   9.464
 1333POPC   PO419716  29.932  41.600   9.164
 1333POPC   GL119717  29.888  41.579   8.864
 1333POPC   GL219718  29.888  41.448   8.864
 1333POPC   C1A19719  29.888  41.523   8.564
 1333POPC   D2A19720  29.963  41.592   8.264
 1333POPC   C3A19721  29.900  41.553   7.964
 1333POPC   C4A19722  29.948  41.593   7.664
 1333POPC   C1B19723  29.788  41.292   8.564
 1333POPC   C2B19724  29.774  41.345   8.264
 1333POPC   C3B19725  29.794  41.281   7.964
 1333POPC   C4B19726  29.818  41.310   7.664
 1334POPC   NC319727  29.116  15.906   9.464
 1334POPC   PO419728  29.176  15.951   9.164
 1334POPC   GL119729  29.098  15.919   8.864
 1334POPC   GL219730  29.077  15.871   8.864
 1334POPC   C1A19731  29.106  15.906   8.564
 1334POPC   D2A19732  29.159  15.980   8.264
 1334POPC   C3A19733  29.115  15.971   7.964
 1334POPC   C4A19734  29.181  15.932   7.664
 1334POPC   C1B19735  28.959  15.850   8.564
 1334POPC   C2B19736  28.980  15.861   8.264
 1334POPC   C3B19737  28.976  15.797   7.964
 1334POPC   C4B19738  28.891  15.872   7.664
 1335POPC   NC319739  18.301  36.855   9.464
 1335POPC   PO419740  18.274  36.924   9.164
 1335POPC   GL119741  18.237  36.910   8.864
 1335POPC   GL219742  18.236  36.823   8.864
 1335POPC   C1A19743  18.245  36.913   8.564
 1335POPC   D2A19744  18.251  36.905   8.264
 1335POPC   C3A19745  18.326  36.875   7.964
 1335POPC   C4A19746  18.277  36.887   7.664
 1335POPC   C1B19747  18.123  36.746   8.564
 1335POPC   C2B19748  18.092  36.679   8.264
 1335POPC   C3B19749  18.151  36.763   7.964
 1335POPC   C4B19750  18.080  36.679   7.664
 1336POPC   NC319751   5.057  36.937   9.464
 1336POPC   PO419752   5.063  36.915   9.164
 1336POPC   GL119753   5.120  36.894   8.864
 1336POPC   GL219754   5.021  36.802   8.864
 1336POPC   C1A19755   5.127  36.921   8.564
 1336POPC   D2A19756   5.061  36.925   8.264
 1336POPC   C3A19757   5.090  36.927   7.964
 1336POPC   C4A19758   5.073  36.870   7.664
 1336POPC   C1B19759   4.907  36.798   8.564
 1336POPC   C2B19760   4.902  36.771   8.264
 1336POPC   C3B19761   4.869  36.734   7.964
 1336POPC   C4B19762   4.866  36.734   7.664
 1337POPC   NC319763  21.373  28.360   9.464
 1337POPC   PO419764  21.417  28.345   9.164
 1337POPC   GL119765  21.431  28.339   8.864
 1337POPC   GL219766  21.218  28.407   8.864
 1337POPC   C1A19767  21.349  28.404   8.564
 1337POPC   D2A19768  21.414  28.341   8.264
 1337POPC   C3A19769  21.338  28.323   7.964
 1337POPC   C4A19770  21.396  28.383   7.664
 1337POPC   C1B19771  21.193  28.462   8.564
 1337POPC   C2B19772  21.169  28.448   8.264
 1337POPC   C3B19773  21.139  28.404   7.964
 1337POPC   C4B19774  21.186  28.475   7.664
 1338POPC   NC319775  34.573  15.218   9.464
 1338POPC   PO419776  34.553  15.172   9.164
 1338POPC   GL119777  34.577  15.153   8.864
 1338POPC   GL219778  34.447  15.269   8.864
 1338POPC   C1A19779  34.552  15.139   8.564
 1338POPC   D2A19780  34.532  15.189   8.264
 1338POPC   C3A19781  34.536  15.200   7.964
 1338POPC   C4A19782  34.620  15.201   7.664
 1338POPC   C1B19783  34.368  15.313   8.564
 1338POPC   C2B19784  34.443  15.349   8.264
 1338POPC   C3B19785  34.369  15.354   7.964
 1338POPC   C4B19786  34.425  15.355   7.664
 1339POPC   NC319787  19.804  42.381   9.464
 1339POPC   PO419788  19.852  42.361   9.164
 1339POPC   GL119789  19.809  42.305   8.864
 1339POPC   GL219790  19.751  42.424   8.864
 1339POPC   C1A19791  19.812  42.336   8.564
 1339POPC   D2A19792  19.854  42.383   8.264
 1339POPC   C3A19793  19.813  42.293   7.964
 1339POPC   C4A19794  19.790  42.304   7.664
 1339POPC   C1B19795  19.637  42.439   8.564
 1339POPC   C2B19796  19.661  42.466   8.264
 1339POPC   C3B19797  19.602  42.431   7.964
 1339POPC   C4B19798  19.639  42.454   7.664
 1340POPC   NC319799  19.841   7.402   9.464
 1340POPC   PO419800  19.807   7.433   9.164
 1340POPC   GL119801  19.823   7.376   8.864
 1340POPC   GL219802  19.841   7.335   8.864
 1340POPC   C1A19803  19.863   7.446   8.564
 1340POPC   D2A19804  19.821   7.382   8.264
 1340POPC   C3A19805  19.871   7.431   7.964
 1340POPC   C4A19806  19.853   7.414   7.664
 1340POPC   C1B19807  19.768   7.222   8.564
 1340POPC   C2B19808  19.747   7.168   8.264
 1340POPC   C3B19809  19.760   7.163   7.964
 1340POPC   C4B19810  19.813   7.133   7.664
 1341POPC   NC319811  40.828   6.649   9.464
 1341POPC   PO419812  40.752   6.679   9.164
 1341POPC   GL119813  40.785   6.614   8.864
 1341POPC   GL219814  40.646   6.748   8.864
 1341POPC   C1A19815  40.770   6.606   8.564
 1341POPC   D2A19816  40.756   6.685   8.264
 1341POPC   C3A19817  40.747   6.625   7.964
 1341POPC   C4A19818  40.758   6.639   7.664
 1341POPC   C1B19819  40.577   6.735   8.564
 1341POPC   C2B19820  40.600   6.773   8.264
 1341POPC   C3B19821  40.535   6.726   7.964
 1341POPC   C4B19822  40.544   6.736   7.664
 1342POPC   NC319823  18.305   1.262   9.464
 1342POPC   PO419824  18.261   1.170   9.164
 1342POPC   GL119825  18.261   1.189   8.864
 1342POPC   GL219826  18.121   1.301   8.864
 1342POPC   C1A19827  18.234   1.184   8.564
 1342POPC   D2A19828  18.319   1.176   8.264
 1342POPC   C3A19829  18.289   1.195   7.964
 1342POPC   C4A19830  18.302   1.208   7.664
 1342POPC   C1B19831  18.022   1.326   8.564
 1342POPC   C2B19832  18.079   1.282   8.264
 1342POPC   C3B19833  18.094   1.320   7.964
 1342POPC   C4B19834  18.082   1.333   7.664
 1343POPC   NC319835  12.890  29.165   9.464
 1343POPC   PO419836  12.897  29.171   9.164
 1343POPC   GL119837  12.854  29.106   8.864
 1343POPC   GL219838  12.974  29.014   8.864
 1343POPC   C1A19839  12.819  29.138   8.564
 1343POPC   D2A19840  12.826  29.178   8.264
 1343POPC   C3A19841  12.844  29.175   7.964
 1343POPC   C4A19842  12.824  29.158   7.664
 1343POPC   C1B19843  12.993  28.989   8.564
 1343POPC   C2B19844  13.037  28.979   8.264
 1343POPC   C3B19845  13.046  28.991   7.964
 1343POPC   C4B19846  13.027  29.009   7.664
 1344POPC   NC319847   7.420  35.372   9.464
 1344POPC   PO419848   7.437  35.374   9.164
 1344POPC   GL119849   7.465  35.319   8.864
 1344POPC   GL219850   7.455  35.463   8.864
 1344POPC   C1A19851   7.405  35.303   8.564
 1344POPC   D2A19852   7.395  35.314   8.264
 1344POPC   C3A19853   7.384  35.375   7.964
 1344POPC   C4A19854   7.408  35.344   7.664
 1344POPC   C1B19855   7.497  35.618   8.564
 1344POPC   C2B19856   7.570  35.617   8.264
 1344POPC   C3B19857   7.547  35.620   7.964
 1344POPC   C4B19858   7.485  35.593   7.664
 1345POPC   NC319859  35.356  13.641   9.464
 1345POPC   PO419860  35.309  13.622   9.164
 1345POPC   GL119861  35.401  13.646   8.864
 1345POPC   GL219862  35.312  13.763   8.864
 1345POPC   C1A19863  35.318  13.648   8.564
 1345POPC   D2A19864  35.363  13.655   8.264
 1345POPC   C3A19865  35.327  13.595   7.964
 1345POPC   C4A19866  35.331  13.676   7.664
 1345POPC   C1B19867  35.252  13.819   8.564
 1345POPC   C2B19868  35.174  13.841   8.264
 1345POPC   C3B19869  35.169  13.809   7.964
 1345POPC   C4B19870  35.156  13.831   7.664
 1346POPC   NC319871  17.514   3.580   9.464
 1346POPC   PO419872  17.494   3.573   9.164
 1346POPC   GL119873  17.509   3.532   8.864
 1346POPC   GL219874  17.567   3.612   8.864
 1346POPC   C1A19875  17.551   3.512   8.564
 1346POPC   D2A19876  17.464   3.547   8.264
 1346POPC   C3A19877  17.541   3.532   7.964
 1346POPC   C4A19878  17.538   3.544   7.664
 1346POPC   C1B19879  17.753   3.701   8.564
 1346POPC   C2B19880  17.662   3.637   8.264
 1346POPC   C3B19881  17.735   3.719   7.964
 1346POPC   C4B19882  17.664   3.708   7.664
 1347POPC   NC319883  22.198   3.550   9.464
 1347POPC   PO419884  22.183   3.514   9.164
 1347POPC   GL119885  22.168   3.567   8.864
 1347POPC   GL219886  22.172   3.690   8.864
 1347POPC   C1A19887  22.132   3.514   8.564
 1347POPC   D2A19888  22.114   3.587   8.264
 1347POPC   C3A19889  22.200   3.590   7.964
 1347POPC   C4A19890  22.176   3.537   7.664
 1347POPC   C1B19891  22.279   3.785   8.564
 1347POPC   C2B19892  22.295   3.725   8.264
 1347POPC   C3B19893  22.240   3.733   7.964
 1347POPC   C4B19894  22.307   3.812   7.664
 1348POPC   NC319895  39.237  44.692   9.464
 1348POPC   PO419896  39.266  44.623   9.164
 1348POPC   GL119897  39.234  44.707   8.864
 1348POPC   GL219898  39.382  44.728   8.864
 1348POPC   C1A19899  39.208  44.656   8.564
 1348POPC   D2A19900  39.206  44.663   8.264
 1348POPC   C3A19901  39.280  44.697   7.964
 1348POPC   C4A19902  39.203  44.700   7.664
 1348POPC   C1B19903  39.485  44.764   8.564
 1348POPC   C2B19904  39.447  44.746   8.264
 1348POPC   C3B19905  39.476  44.767   7.964
 1348POPC   C4B19906  39.436  44.825   7.664
 1349POPC   NC319907  43.064   5.872   9.464
 1349POPC   PO419908  43.112   5.918   9.164
 1349POPC   GL119909  43.124   5.906   8.864
 1349POPC   GL219910  43.075   5.753   8.864
 1349POPC   C1A19911  43.132   5.826   8.564
 1349POPC   D2A19912  43.075   5.899   8.264
 1349POPC   C3A19913  43.148   5.874   7.964
 1349POPC   C4A19914  43.106   5.867   7.664
 1349POPC   C1B19915  42.974   5.670   8.564
 1349POPC   C2B19916  42.973   5.666   8.264
 1349POPC   C3B19917  42.923   5.654   7.964
 1349POPC   C4B19918  42.970   5.682   7.664
 1350POPC   NC319919  33.009   2.006   9.464
 1350POPC   PO419920  33.025   2.015   9.164
 1350POPC   GL119921  33.010   2.006   8.864
 1350POPC   GL219922  32.932   1.846   8.864
 1350POPC   C1A19923  33.013   1.941   8.564
 1350POPC   D2A19924  33.054   1.948   8.264
 1350POPC   C3A19925  32.975   2.001   7.964
 1350POPC   C4A19926  33.018   2.011   7.664
 1350POPC   C1B19927  32.908   1.812   8.564
 1350POPC   C2B19928  32.844   1.814   8.264
 1350POPC   C3B19929  32.891   1.754   7.964
 1350POPC   C4B19930  32.898   1.785   7.664
 1351POPC   NC319931  41.549  29.146   9.464
 1351POPC   PO419932  41.546  29.136   9.164
 1351POPC   GL119933  41.526  29.110   8.864
 1351POPC   GL219934  41.596  29.022   8.864
 1351POPC   C1A19935  41.550  29.121   8.564
 1351POPC   D2A19936  41.548  29.185   8.264
 1351POPC   C3A19937  41.603  29.177   7.964
 1351POPC   C4A19938  41.515  29.195   7.664
 1351POPC   C1B19939  41.564  28.912   8.564
 1351POPC   C2B19940  41.502  28.882   8.264
 1351POPC   C3B19941  41.543  28.883   7.964
 1351POPC   C4B19942  41.538  28.854   7.664
 1352POPC   NC319943  33.035   8.163   9.464
 1352POPC   PO419944  33.026   8.148   9.164
 1352POPC   GL119945  33.031   8.223   8.864
 1352POPC   GL219946  33.037   8.323   8.864
 1352POPC   C1A19947  33.049   8.157   8.564
 1352POPC   D2A19948  33.053   8.213   8.264
 1352POPC   C3A19949  33.067   8.214   7.964
 1352POPC   C4A19950  33.063   8.229   7.664
 1352POPC   C1B19951  33.066   8.484   8.564
 1352POPC   C2B19952  33.050   8.485   8.264
 1352POPC   C3B19953  32.976   8.412   7.964
 1352POPC   C4B19954  33.022   8.457   7.664
 1353POPC   NC319955  43.859  16.744   9.464
 1353POPC   PO419956  43.908  16.714   9.164
 1353POPC   GL119957  43.885  16.766   8.864
 1353POPC   GL219958  43.960  16.608   8.864
 1353POPC   C1A19959  43.869  16.747   8.564
 1353POPC   D2A19960  43.936  16.734   8.264
 1353POPC   C3A19961  43.855  16.747   7.964
 1353POPC   C4A19962  43.843  16.763   7.664
 1353POPC   C1B19963  43.957  16.494   8.564
 1353POPC   C2B19964  44.020  16.553   8.264
 1353POPC   C3B19965  44.041  16.541   7.964
 1353POPC   C4B19966  44.039  16.487   7.664
 1354POPC   NC319967  12.812   2.033   9.464
 1354POPC   PO419968  12.893   2.009   9.164
 1354POPC   GL119969  12.858   1.962   8.864
 1354POPC   GL219970  12.963   1.972   8.864
 1354POPC   C1A19971  12.882   1.961   8.564
 1354POPC   D2A19972  12.897   1.969   8.264
 1354POPC   C3A19973  12.841   1.980   7.964
 1354POPC   C4A19974  12.837   2.022   7.664
 1354POPC   C1B19975  13.075   1.973   8.564
 1354POPC   C2B19976  13.119   1.991   8.264
 1354POPC   C3B19977  13.095   2.023   7.964
 1354POPC   C4B19978  13.060   2.032   7.664
 1355POPC   NC319979  29.182   9.699   9.464
 1355POPC   PO419980  29.121   9.759   9.164
 1355POPC   GL119981  29.149   9.751   8.864
 1355POPC   GL219982  29.159   9.612   8.864
 1355POPC   C1A19983  29.102   9.756   8.564
 1355POPC   D2A19984  29.148   9.730   8.264
 1355POPC   C3A19985  29.132   9.791   7.964
 1355POPC   C4A19986  29.190   9.745   7.664
 1355POPC   C1B19987  29.186   9.520   8.564
 1355POPC   C2B19988  29.213   9.496   8.264
 1355POPC   C3B19989  29.174   9.460   7.964
 1355POPC   C4B19990  29.234   9.543   7.664
 1356POPC   NC319991  32.200  30.688   9.464
 1356POPC   PO419992  32.285  30.702   9.164
 1356POPC   GL119993  32.256  30.731   8.864
 1356POPC   GL219994  32.197  30.621   8.864
 1356POPC   C1A19995  32.229  30.701   8.564
 1356POPC   D2A19996  32.262  30.689   8.264
 1356POPC   C3A19997  32.212  30.733   7.964
 1356POPC   C4A19998  32.288  30.663   7.664
 1356POPC   C1B19999  32.273  30.462   8.564
 1356POPC   C2B20000  32.257  30.482   8.264
 1356POPC   C3B20001  32.277  30.458   7.964
 1356POPC   C4B20002  32.213  30.420   7.664
 1357POPC   NC320003   7.401  14.362   9.464
 1357POPC   PO420004   7.377  14.384   9.164
 1357POPC   GL120005   7.397  14.384   8.864
 1357POPC   GL220006   7.413  14.317   8.864
 1357POPC   C1A20007   7.462  14.358   8.564
 1357POPC   D2A20008   7.419  14.373   8.264
 1357POPC   C3A20009   7.460  14.426   7.964
 1357POPC   C4A20010   7.440  14.403   7.664
 1357POPC   C1B20011   7.358  14.189   8.564
 1357POPC   C2B20012   7.322  14.129   8.264
 1357POPC   C3B20013   7.307  14.143   7.964
 1357POPC   C4B20014   7.294  14.213   7.664
 1358POPC   NC320015  34.621  38.476   9.464
 1358POPC   PO420016  34.541  38.415   9.164
 1358POPC   GL120017  34.616  38.454   8.864
 1358POPC   GL220018  34.713  38.434   8.864
 1358POPC   C1A20019  34.531  38.484   8.564
 1358POPC   D2A20020  34.529  38.408   8.264
 1358POPC   C3A20021  34.538  38.456   7.964
 1358POPC   C4A20022  34.529  38.472   7.664
 1358POPC   C1B20023  34.845  38.423   8.564
 1358POPC   C2B20024  34.867  38.451   8.264
 1358POPC   C3B20025  34.773  38.423   7.964
 1358POPC   C4B20026  34.847  38.427   7.664
 1359POPC   NC320027  32.246  29.928   9.464
 1359POPC   PO420028  32.239  29.935   9.164
 1359POPC   GL120029  32.259  29.889   8.864
 1359POPC   GL220030  32.308  29.981   8.864
 1359POPC   C1A20031  32.275  29.886   8.564
 1359POPC   D2A20032  32.209  29.924   8.264
 1359POPC   C3A20033  32.211  29.902   7.964
 1359POPC   C4A20034  32.222  29.916   7.664
 1359POPC   C1B20035  32.471  30.124   8.564
 1359POPC   C2B20036  32.401  30.095   8.264
 1359POPC   C3B20037  32.473  30.051   7.964
 1359POPC   C4B20038  32.449  30.141   7.664
 1360POPC   NC320039  12.086  40.769   9.464
 1360POPC   PO420040  12.099  40.771   9.164
 1360POPC   GL120041  12.039  40.751   8.864
 1360POPC   GL220042  11.980  40.823   8.864
 1360POPC   C1A20043  12.075  40.827   8.564
 1360POPC   D2A20044  12.068  40.738   8.264
 1360POPC   C3A20045  12.059  40.759   7.964
 1360POPC   C4A20046  12.030  40.828   7.664
 1360POPC   C1B20047  11.834  40.905   8.564
 1360POPC   C2B20048  11.824  40.898   8.264
 1360POPC   C3B20049  11.901  40.887   7.964
 1360POPC   C4B20050  11.866  40.928   7.664
 1361POPC   NC320051  31.496  33.786   9.464
 1361POPC   PO420052  31.426  33.829   9.164
 1361POPC   GL120053  31.469  33.795   8.864
 1361POPC   GL220054  31.603  33.735   8.864
 1361POPC   C1A20055  31.466  33.757   8.564
 1361POPC   D2A20056  31.515  33.832   8.264
 1361POPC   C3A20057  31.481  33.816   7.964
 1361POPC   C4A20058  31.482  33.759   7.664
 1361POPC   C1B20059  31.733  33.705   8.564
 1361POPC   C2B20060  31.666  33.711   8.264
 1361POPC   C3B20061  31.707  33.738   7.964
 1361POPC   C4B20062  31.671  33.692   7.664
 1362POPC   NC320063   8.228  29.119   9.464
 1362POPC   PO420064   8.201  29.167   9.164
 1362POPC   GL120065   8.173  29.166   8.864
 1362POPC   GL220066   8.048  29.164   8.864
 1362POPC   C1A20067   8.156  29.175   8.564
 1362POPC   D2A20068   8.212  29.130   8.264
 1362POPC   C3A20069   8.167  29.110   7.964
 1362POPC   C4A20070   8.242  29.096   7.664
 1362POPC   C1B20071   7.966  29.168   8.564
 1362POPC   C2B20072   7.929  29.247   8.264
 1362POPC   C3B20073   7.961  29.193   7.964
 1362POPC   C4B20074   7.908  29.234   7.664
 1363POPC   NC320075  23.742   3.568   9.464
 1363POPC   PO420076  23.686   3.532   9.164
 1363POPC   GL120077  23.687   3.569   8.864
 1363POPC   GL220078  23.629   3.598   8.864
 1363POPC   C1A20079  23.683   3.555   8.564
 1363POPC   D2A20080  23.705   3.591   8.264
 1363POPC   C3A20081  23.760   3.573   7.964
 1363POPC   C4A20082  23.712   3.536   7.664
 1363POPC   C1B20083  23.496   3.668   8.564
 1363POPC   C2B20084  23.492   3.633   8.264
 1363POPC   C3B20085  23.510   3.666   7.964
 1363POPC   C4B20086  23.465   3.591   7.664
 1364POPC   NC320087  13.646  33.046   9.464
 1364POPC   PO420088  13.675  33.030   9.164
 1364POPC   GL120089  13.590  33.057   8.864
 1364POPC   GL220090  13.718  32.993   8.864
 1364POPC   C1A20091  13.652  33.011   8.564
 1364POPC   D2A20092  13.585  32.986   8.264
 1364POPC   C3A20093  13.661  33.005   7.964
 1364POPC   C4A20094  13.584  33.061   7.664
 1364POPC   C1B20095  13.871  33.039   8.564
 1364POPC   C2B20096  13.846  33.034   8.264
 1364POPC   C3B20097  13.904  33.065   7.964
 1364POPC   C4B20098  13.904  33.026   7.664
 1365POPC   NC320099  37.685  14.402   9.464
 1365POPC   PO420100  37.650  14.411   9.164
 1365POPC   GL120101  37.635  14.397   8.864
 1365POPC   GL220102  37.668  14.292   8.864
 1365POPC   C1A20103  37.728  14.422   8.564
 1365POPC   D2A20104  37.717  14.379   8.264
 1365POPC   C3A20105  37.717  14.373   7.964
 1365POPC   C4A20106  37.719  14.424   7.664
 1365POPC   C1B20107  37.709  14.177   8.564
 1365POPC   C2B20108  37.673  14.159   8.264
 1365POPC   C3B20109  37.742  14.125   7.964
 1365POPC   C4B20110  37.737  14.108   7.664
 1366POPC   NC320111  36.940  15.193   9.464
 1366POPC   PO420112  36.910  15.201   9.164
 1366POPC   GL120113  36.897  15.184   8.864
 1366POPC   GL220114  36.754  15.171   8.864
 1366POPC   C1A20115  36.867  15.174   8.564
 1366POPC   D2A20116  36.913  15.176   8.264
 1366POPC   C3A20117  36.917  15.196   7.964
 1366POPC   C4A20118  36.863  15.133   7.664
 1366POPC   C1B20119  36.643  15.187   8.564
 1366POPC   C2B20120  36.623  15.199   8.264
 1366POPC   C3B20121  36.679  15.126   7.964
 1366POPC   C4B20122  36.643  15.164   7.664
 1367POPC   NC320123   4.360  22.154   9.464
 1367POPC   PO420124   4.311  22.202   9.164
 1367POPC   GL120125   4.294  22.161   8.864
 1367POPC   GL220126   4.403  22.082   8.864
 1367POPC   C1A20127   4.278  22.197   8.564
 1367POPC   D2A20128   4.321  22.118   8.264
 1367POPC   C3A20129   4.345  22.170   7.964
 1367POPC   C4A20130   4.359  22.183   7.664
 1367POPC   C1B20131   4.575  22.022   8.564
 1367POPC   C2B20132   4.492  22.043   8.264
 1367POPC   C3B20133   4.480  22.060   7.964
 1367POPC   C4B20134   4.568  22.020   7.664
 1368POPC   NC320135  36.914  20.653   9.464
 1368POPC   PO420136  36.900  20.624   9.164
 1368POPC   GL120137  36.942  20.563   8.864
 1368POPC   GL220138  36.906  20.472   8.864
 1368POPC   C1A20139  36.896  20.624   8.564
 1368POPC   D2A20140  36.909  20.594   8.264
 1368POPC   C3A20141  36.911  20.649   7.964
 1368POPC   C4A20142  36.928  20.653   7.664
 1368POPC   C1B20143  36.995  20.355   8.564
 1368POPC   C2B20144  36.931  20.318   8.264
 1368POPC   C3B20145  36.996  20.362   7.964
 1368POPC   C4B20146  36.945  20.321   7.664
 1369POPC   NC320147  17.519   1.263   9.464
 1369POPC   PO420148  17.486   1.182   9.164
 1369POPC   GL120149  17.473   1.252   8.864
 1369POPC   GL220150  17.371   1.287   8.864
 1369POPC   C1A20151  17.475   1.187   8.564
 1369POPC   D2A20152  17.480   1.222   8.264
 1369POPC   C3A20153  17.486   1.232   7.964
 1369POPC   C4A20154  17.549   1.183   7.664
 1369POPC   C1B20155  17.304   1.288   8.564
 1369POPC   C2B20156  17.268   1.297   8.264
 1369POPC   C3B20157  17.271   1.317   7.964
 1369POPC   C4B20158  17.251   1.371   7.664
 1370POPC   NC320159  24.456  28.400   9.464
 1370POPC   PO420160  24.459  28.350   9.164
 1370POPC   GL120161  24.538  28.414   8.864
 1370POPC   GL220162  24.627  28.473   8.864
 1370POPC   C1A20163  24.509  28.367   8.564
 1370POPC   D2A20164  24.476  28.346   8.264
 1370POPC   C3A20165  24.537  28.333   7.964
 1370POPC   C4A20166  24.531  28.331   7.664
 1370POPC   C1B20167  24.688  28.550   8.564
 1370POPC   C2B20168  24.692  28.528   8.264
 1370POPC   C3B20169  24.725  28.567   7.964
 1370POPC   C4B20170  24.702  28.512   7.664
 1371POPC   NC320171  36.883  39.215   9.464
 1371POPC   PO420172  36.901  39.205   9.164
 1371POPC   GL120173  36.927  39.188   8.864
 1371POPC   GL220174  36.978  39.319   8.864
 1371POPC   C1A20175  36.936  39.235   8.564
 1371POPC   D2A20176  36.867  39.187   8.264
 1371POPC   C3A20177  36.953  39.258   7.964
 1371POPC   C4A20178  36.895  39.261   7.664
 1371POPC   C1B20179  37.038  39.440   8.564
 1371POPC   C2B20180  37.100  39.426   8.264
 1371POPC   C3B20181  37.100  39.376   7.964
 1371POPC   C4B20182  37.049  39.453   7.664
 1372POPC   NC320183   0.394  30.725   9.464
 1372POPC   PO420184   0.413  30.691   9.164
 1372POPC   GL120185   0.452  30.695   8.864
 1372POPC   GL220186   0.433  30.559   8.864
 1372POPC   C1A20187   0.444  30.706   8.564
 1372POPC   D2A20188   0.419  30.664   8.264
 1372POPC   C3A20189   0.421  30.729   7.964
 1372POPC   C4A20190   0.482  30.729   7.664
 1372POPC   C1B20191   0.493  30.479   8.564
 1372POPC   C2B20192   0.431  30.411   8.264
 1372POPC   C3B20193   0.450  30.415   7.964
 1372POPC   C4B20194   0.448  30.440   7.664
 1373POPC   NC320195  43.154  15.134   9.464
 1373POPC   PO420196  43.075  15.155   9.164
 1373POPC   GL120197  43.101  15.175   8.864
 1373POPC   GL220198  43.126  15.025   8.864
 1373POPC   C1A20199  43.071  15.227   8.564
 1373POPC   D2A20200  43.082  15.203   8.264
 1373POPC   C3A20201  43.122  15.221   7.964
 1373POPC   C4A20202  43.156  15.152   7.664
 1373POPC   C1B20203  43.009  14.965   8.564
 1373POPC   C2B20204  43.050  14.910   8.264
 1373POPC   C3B20205  43.006  14.944   7.964
 1373POPC   C4B20206  43.102  14.971   7.664
 1374POPC   NC320207   0.436   8.929   9.464
 1374POPC   PO420208   0.469   8.978   9.164
 1374POPC   GL120209   0.413   9.018   8.864
 1374POPC   GL220210   0.390   8.887   8.864
 1374POPC   C1A20211   0.482   8.991   8.564
 1374POPC   D2A20212   0.473   8.926   8.264
 1374POPC   C3A20213   0.450   8.999   7.964
 1374POPC   C4A20214   0.469   8.985   7.664
 1374POPC   C1B20215   0.333   8.722   8.564
 1374POPC   C2B20216   0.310   8.786   8.264
 1374POPC   C3B20217   0.269   8.721   7.964
 1374POPC   C4B20218   0.249   8.761   7.664
 1375POPC   NC320219  16.761   4.346   9.464
 1375POPC   PO420220  16.719   4.361   9.164
 1375POPC   GL120221  16.720   4.312   8.864
 1375POPC   GL220222  16.888   4.360   8.864
 1375POPC   C1A20223  16.736   4.269   8.564
 1375POPC   D2A20224  16.693   4.314   8.264
 1375POPC   C3A20225  16.722   4.314   7.964
 1375POPC   C4A20226  16.691   4.347   7.664
 1375POPC   C1B20227  16.990   4.417   8.564
 1375POPC   C2B20228  16.998   4.406   8.264
 1375POPC   C3B20229  16.992   4.405   7.964
 1375POPC   C4B20230  16.920   4.376   7.664
 1376POPC   NC320231  12.064  10.548   9.464
 1376POPC   PO420232  12.098  10.550   9.164
 1376POPC   GL120233  12.098  10.482   8.864
 1376POPC   GL220234  12.005  10.583   8.864
 1376POPC   C1A20235  12.052  10.520   8.564
 1376POPC   D2A20236  12.056  10.479   8.264
 1376POPC   C3A20237  12.055  10.483   7.964
 1376POPC   C4A20238  12.043  10.484   7.664
 1376POPC   C1B20239  11.862  10.630   8.564
 1376POPC   C2B20240  11.809  10.565   8.264
 1376POPC   C3B20241  11.848  10.567   7.964
 1376POPC   C4B20242  11.796  10.581   7.664
 1377POPC   NC320243  26.810  13.677   9.464
 1377POPC   PO420244  26.768  13.594   9.164
 1377POPC   GL120245  26.856  13.649   8.864
 1377POPC   GL220246  26.862  13.699   8.864
 1377POPC   C1A20247  26.769  13.631   8.564
 1377POPC   D2A20248  26.819  13.614   8.264
 1377POPC   C3A20249  26.835  13.604   7.964
 1377POPC   C4A20250  26.853  13.625   7.664
 1377POPC   C1B20251  26.863  13.878   8.564
 1377POPC   C2B20252  26.903  13.865   8.264
 1377POPC   C3B20253  26.881  13.894   7.964
 1377POPC   C4B20254  26.834  13.906   7.664
 1378POPC   NC320255   8.230  16.703   9.464
 1378POPC   PO420256   8.187  16.705   9.164
 1378POPC   GL120257   8.233  16.779   8.864
 1378POPC   GL220258   8.176  16.652   8.864
 1378POPC   C1A20259   8.210  16.709   8.564
 1378POPC   D2A20260   8.242  16.699   8.264
 1378POPC   C3A20261   8.191  16.685   7.964
 1378POPC   C4A20262   8.161  16.738   7.664
 1378POPC   C1B20263   8.080  16.449   8.564
 1378POPC   C2B20264   8.095  16.469   8.264
 1378POPC   C3B20265   8.087  16.460   7.964
 1378POPC   C4B20266   8.098  16.527   7.664
 1379POPC   NC320267   9.014  22.119   9.464
 1379POPC   PO420268   8.957  22.134   9.164
 1379POPC   GL120269   8.994  22.118   8.864
 1379POPC   GL220270   8.849  22.162   8.864
 1379POPC   C1A20271   8.994  22.191   8.564
 1379POPC   D2A20272   8.995  22.117   8.264
 1379POPC   C3A20273   8.961  22.178   7.964
 1379POPC   C4A20274   8.929  22.153   7.664
 1379POPC   C1B20275   8.706  22.029   8.564
 1379POPC   C2B20276   8.759  22.051   8.264
 1379POPC   C3B20277   8.695  22.033   7.964
 1379POPC   C4B20278   8.767  22.098   7.664
 1380POPC   NC320279  18.264  15.202   9.464
 1380POPC   PO420280  18.316  15.131   9.164
 1380POPC   GL120281  18.288  15.156   8.864
 1380POPC   GL220282  18.411  15.214   8.864
 1380POPC   C1A20283  18.295  15.199   8.564
 1380POPC   D2A20284  18.242  15.187   8.264
 1380POPC   C3A20285  18.295  15.229   7.964
 1380POPC   C4A20286  18.237  15.216   7.664
 1380POPC   C1B20287  18.472  15.280   8.564
 1380POPC   C2B20288  18.472  15.290   8.264
 1380POPC   C3B20289  18.480  15.363   7.964
 1380POPC   C4B20290  18.538  15.274   7.664
 1381POPC   NC320291  33.056   0.427   9.464
 1381POPC   PO420292  32.997   0.481   9.164
 1381POPC   GL120293  32.975   0.486   8.864
 1381POPC   GL220294  33.006   0.599   8.864
 1381POPC   C1A20295  33.042   0.419   8.564
 1381POPC   D2A20296  32.995   0.474   8.264
 1381POPC   C3A20297  33.063   0.442   7.964
 1381POPC   C4A20298  33.071   0.395   7.664
 1381POPC   C1B20299  33.046   0.644   8.564
 1381POPC   C2B20300  33.021   0.684   8.264
 1381POPC   C3B20301  33.047   0.657   7.964
 1381POPC   C4B20302  32.966   0.651   7.664
 1382POPC   NC320303  43.893   8.232   9.464
 1382POPC   PO420304  43.864   8.171   9.164
 1382POPC   GL120305  43.857   8.242   8.864
 1382POPC   GL220306  44.026   8.173   8.864
 1382POPC   C1A20307  43.907   8.242   8.564
 1382POPC   D2A20308  43.839   8.205   8.264
 1382POPC   C3A20309  43.905   8.150   7.964
 1382POPC   C4A20310  43.888   8.237   7.664
 1382POPC   C1B20311  44.100   8.094   8.564
 1382POPC   C2B20312  44.126   8.099   8.264
 1382POPC   C3B20313  44.141   8.183   7.964
 1382POPC   C4B20314  44.116   8.149   7.664
 1383POPC   NC320315  15.172  24.446   9.464
 1383POPC   PO420316  15.172  24.525   9.164
 1383POPC   GL120317  15.215  24.506   8.864
 1383POPC   GL220318  15.021  24.564   8.864
 1383POPC   C1A20319  15.157  24.455   8.564
 1383POPC   D2A20320  15.194  24.442   8.264
 1383POPC   C3A20321  15.189  24.441   7.964
 1383POPC   C4A20322  15.147  24.480   7.664
 1383POPC   C1B20323  14.980  24.638   8.564
 1383POPC   C2B20324  14.988  24.560   8.264
 1383POPC   C3B20325  14.998  24.568   7.964
 1383POPC   C4B20326  14.992  24.609   7.664
 1384POPC   NC320327  34.590  33.071   9.464
 1384POPC   PO420328  34.576  33.012   9.164
 1384POPC   GL120329  34.559  33.001   8.864
 1384POPC   GL220330  34.717  32.999   8.864
 1384POPC   C1A20331  34.611  33.019   8.564
 1384POPC   D2A20332  34.529  33.004   8.264
 1384POPC   C3A20333  34.560  33.025   7.964
 1384POPC   C4A20334  34.541  32.994   7.664
 1384POPC   C1B20335  34.746  32.887   8.564
 1384POPC   C2B20336  34.768  32.916   8.264
 1384POPC   C3B20337  34.789  32.837   7.964
 1384POPC   C4B20338  34.796  32.874   7.664
 1385POPC   NC320339  26.810  19.788   9.464
 1385POPC   PO420340  26.836  19.791   9.164
 1385POPC   GL120341  26.837  19.811   8.864
 1385POPC   GL220342  26.835  19.709   8.864
 1385POPC   C1A20343  26.796  19.866   8.564
 1385POPC   D2A20344  26.836  19.820   8.264
 1385POPC   C3A20345  26.810  19.791   7.964
 1385POPC   C4A20346  26.799  19.806   7.664
 1385POPC   C1B20347  26.910  19.602   8.564
 1385POPC   C2B20348  26.883  19.543   8.264
 1385POPC   C3B20349  26.923  19.588   7.964
 1385POPC   C4B20350  26.863  19.566   7.664
 1386POPC   NC320351  34.593  40.735   9.464
 1386POPC   PO420352  34.527  40.784   9.164
 1386POPC   GL120353  34.577  40.761   8.864
 1386POPC   GL220354  34.447  40.903   8.864
 1386POPC   C1A20355  34.586  40.781   8.564
 1386POPC   D2A20356  34.600  40.738   8.264
 1386POPC   C3A20357  34.599  40.774   7.964
 1386POPC   C4A20358  34.615  40.744   7.664
 1386POPC   C1B20359  34.378  40.961   8.564
 1386POPC   C2B20360  34.354  40.915   8.264
 1386POPC   C3B20361  34.433  40.951   7.964
 1386POPC   C4B20362  34.359  40.978   7.664
 1387POPC   NC320363   8.924  40.832   9.464
 1387POPC   PO420364   8.924  40.762   9.164
 1387POPC   GL120365   9.006  40.806   8.864
 1387POPC   GL220366   8.905  40.873   8.864
 1387POPC   C1A20367   9.010  40.764   8.564
 1387POPC   D2A20368   8.964  40.828   8.264
 1387POPC   C3A20369   9.015  40.803   7.964
 1387POPC   C4A20370   8.924  40.763   7.664
 1387POPC   C1B20371   8.887  41.032   8.564
 1387POPC   C2B20372   8.910  40.998   8.264
 1387POPC   C3B20373   8.860  41.018   7.964
 1387POPC   C4B20374   8.853  40.977   7.664
 1388POPC   NC320375  15.964  42.311   9.464
 1388POPC   PO420376  15.987  42.371   9.164
 1388POPC   GL120377  15.907  42.314   8.864
 1388POPC   GL220378  16.043  42.302   8.864
 1388POPC   C1A20379  15.931  42.324   8.564
 1388POPC   D2A20380  15.931  42.294   8.264
 1388POPC   C3A20381  15.922  42.307   7.964
 1388POPC   C4A20382  15.909  42.334   7.664
 1388POPC   C1B20383  16.236  42.325   8.564
 1388POPC   C2B20384  16.171  42.270   8.264
 1388POPC   C3B20385  16.182  42.318   7.964
 1388POPC   C4B20386  16.238  42.313   7.664
 1389POPC   NC320387  30.745  41.564   9.464
 1389POPC   PO420388  30.745  41.587   9.164
 1389POPC   GL120389  30.736  41.542   8.864
 1389POPC   GL220390  30.594  41.507   8.864
 1389POPC   C1A20391  30.741  41.543   8.564
 1389POPC   D2A20392  30.666  41.517   8.264
 1389POPC   C3A20393  30.694  41.511   7.964
 1389POPC   C4A20394  30.653  41.591   7.664
 1389POPC   C1B20395  30.459  41.486   8.564
 1389POPC   C2B20396  30.443  41.480   8.264
 1389POPC   C3B20397  30.499  41.483   7.964
 1389POPC   C4B20398  30.435  41.482   7.664
 1390POPC   NC320399  21.339  13.600   9.464
 1390POPC   PO420400  21.338  13.667   9.164
 1390POPC   GL120401  21.418  13.583   8.864
 1390POPC   GL220402  21.442  13.794   8.864
 1390POPC   C1A20403  21.368  13.649   8.564
 1390POPC   D2A20404  21.343  13.626   8.264
 1390POPC   C3A20405  21.429  13.597   7.964
 1390POPC   C4A20406  21.378  13.647   7.664
 1390POPC   C1B20407  21.413  13.837   8.564
 1390POPC   C2B20408  21.446  13.880   8.264
 1390POPC   C3B20409  21.444  13.856   7.964
 1390POPC   C4B20410  21.462  13.923   7.664
 1391POPC   NC320411  15.157  29.145   9.464
 1391POPC   PO420412  15.219  29.145   9.164
 1391POPC   GL120413  15.144  29.161   8.864
 1391POPC   GL220414  15.346  29.167   8.864
 1391POPC   C1A20415  15.141  29.101   8.564
 1391POPC   D2A20416  15.225  29.158   8.264
 1391POPC   C3A20417  15.223  29.184   7.964
 1391POPC   C4A20418  15.199  29.177   7.664
 1391POPC   C1B20419  15.466  29.116   8.564
 1391POPC   C2B20420  15.440  29.064   8.264
 1391POPC   C3B20421  15.390  29.086   7.964
 1391POPC   C4B20422  15.425  29.086   7.664
 1392POPC   NC320423   5.062   7.460   9.464
 1392POPC   PO420424   5.136   7.426   9.164
 1392POPC   GL120425   5.143   7.441   8.864
 1392POPC   GL220426   5.145   7.338   8.864
 1392POPC   C1A20427   5.103   7.446   8.564
 1392POPC   D2A20428   5.068   7.372   8.264
 1392POPC   C3A20429   5.068   7.465   7.964
 1392POPC   C4A20430   5.132   7.456   7.664
 1392POPC   C1B20431   5.287   7.299   8.564
 1392POPC   C2B20432   5.330   7.261   8.264
 1392POPC   C3B20433   5.324   7.239   7.964
 1392POPC   C4B20434   5.268   7.214   7.664
 1393POPC   NC320435   3.569  18.243   9.464
 1393POPC   PO420436   3.540  18.327   9.164
 1393POPC   GL120437   3.576  18.328   8.864
 1393POPC   GL220438   3.640  18.388   8.864
 1393POPC   C1A20439   3.534  18.276   8.564
 1393POPC   D2A20440   3.500  18.263   8.264
 1393POPC   C3A20441   3.561  18.248   7.964
 1393POPC   C4A20442   3.585  18.268   7.664
 1393POPC   C1B20443   3.658  18.530   8.564
 1393POPC   C2B20444   3.642  18.525   8.264
 1393POPC   C3B20445   3.705  18.504   7.964
 1393POPC   C4B20446   3.643  18.443   7.664
 1394POPC   NC320447  41.585   3.564   9.464
 1394POPC   PO420448  41.571   3.495   9.164
 1394POPC   GL120449  41.579   3.583   8.864
 1394POPC   GL220450  41.689   3.548   8.864
 1394POPC   C1A20451  41.541   3.522   8.564
 1394POPC   D2A20452  41.541   3.571   8.264
 1394POPC   C3A20453  41.535   3.562   7.964
 1394POPC   C4A20454  41.518   3.493   7.664
 1394POPC   C1B20455  41.792   3.507   8.564
 1394POPC   C2B20456  41.770   3.467   8.264
 1394POPC   C3B20457  41.771   3.525   7.964
 1394POPC   C4B20458  41.778   3.468   7.664
 1395POPC   NC320459  23.757   5.824   9.464
 1395POPC   PO420460  23.678   5.911   9.164
 1395POPC   GL120461  23.677   5.878   8.864
 1395POPC   GL220462  23.724   5.764   8.864
 1395POPC   C1A20463  23.674   5.820   8.564
 1395POPC   D2A20464  23.745   5.835   8.264
 1395POPC   C3A20465  23.734   5.819   7.964
 1395POPC   C4A20466  23.760   5.880   7.664
 1395POPC   C1B20467  23.850   5.650   8.564
 1395POPC   C2B20468  23.839   5.658   8.264
 1395POPC   C3B20469  23.842   5.698   7.964
 1395POPC   C4B20470  23.871   5.668   7.664
 1396POPC   NC320471  40.017   5.052   9.464
 1396POPC   PO420472  39.961   5.103   9.164
 1396POPC   GL120473  40.006   5.055   8.864
 1396POPC   GL220474  40.112   5.217   8.864
 1396POPC   C1A20475  40.054   5.114   8.564
 1396POPC   D2A20476  40.036   5.116   8.264
 1396POPC   C3A20477  40.016   5.067   7.964
 1396POPC   C4A20478  39.958   5.095   7.664
 1396POPC   C1B20479  40.127   5.302   8.564
 1396POPC   C2B20480  40.158   5.339   8.264
 1396POPC   C3B20481  40.123   5.305   7.964
 1396POPC   C4B20482  40.170   5.277   7.664
 1397POPC   NC320483  28.335  34.579   9.464
 1397POPC   PO420484  28.391  34.610   9.164
 1397POPC   GL120485  28.392  34.604   8.864
 1397POPC   GL220486  28.505  34.575   8.864
 1397POPC   C1A20487  28.365  34.604   8.564
 1397POPC   D2A20488  28.345  34.608   8.264
 1397POPC   C3A20489  28.401  34.555   7.964
 1397POPC   C4A20490  28.328  34.560   7.664
 1397POPC   C1B20491  28.568  34.672   8.564
 1397POPC   C2B20492  28.651  34.675   8.264
 1397POPC   C3B20493  28.633  34.621   7.964
 1397POPC   C4B20494  28.617  34.611   7.664
 1398POPC   NC320495  27.590  22.206   9.464
 1398POPC   PO420496  27.610  22.173   9.164
 1398POPC   GL120497  27.633  22.208   8.864
 1398POPC   GL220498  27.658  22.081   8.864
 1398POPC   C1A20499  27.548  22.132   8.564
 1398POPC   D2A20500  27.604  22.165   8.264
 1398POPC   C3A20501  27.584  22.170   7.964
 1398POPC   C4A20502  27.581  22.202   7.664
 1398POPC   C1B20503  27.736  21.981   8.564
 1398POPC   C2B20504  27.654  21.960   8.264
 1398POPC   C3B20505  27.728  21.964   7.964
 1398POPC   C4B20506  27.669  21.948   7.664
 1399POPC   NC320507  29.110  25.303   9.464
 1399POPC   PO420508  29.144  25.293   9.164
 1399POPC   GL120509  29.139  25.282   8.864
 1399POPC   GL220510  29.114  25.113   8.864
 1399POPC   C1A20511  29.130  25.279   8.564
 1399POPC   D2A20512  29.106  25.254   8.264
 1399POPC   C3A20513  29.187  25.291   7.964
 1399POPC   C4A20514  29.102  25.270   7.664
 1399POPC   C1B20515  29.098  25.017   8.564
 1399POPC   C2B20516  29.042  25.064   8.264
 1399POPC   C3B20517  29.046  25.065   7.964
 1399POPC   C4B20518  29.028  25.050   7.664
 1400POPC   NC320519  38.426  43.126   9.464
 1400POPC   PO420520  38.478  43.100   9.164
 1400POPC   GL120521  38.433  43.131   8.864
 1400POPC   GL220522  38.283  43.167   8.864
 1400POPC   C1A20523  38.479  43.112   8.564
 1400POPC   D2A20524  38.430  43.125   8.264
 1400POPC   C3A20525  38.407  43.109   7.964
 1400POPC   C4A20526  38.412  43.145   7.664
 1400POPC   C1B20527  38.256  43.124   8.564
 1400POPC   C2B20528  38.248  43.106   8.264
 1400POPC   C3B20529  38.182  43.159   7.964
 1400POPC   C4B20530  38.229  43.138   7.664
 1401POPC   NC320531   3.551  30.690   9.464
 1401POPC   PO420532   3.588  30.744   9.164
 1401POPC   GL120533   3.570  30.668   8.864
 1401POPC   GL220534   3.614  30.771   8.864
 1401POPC   C1A20535   3.589  30.690   8.564
 1401POPC   D2A20536   3.497  30.738   8.264
 1401POPC   C3A20537   3.506  30.676   7.964
 1401POPC   C4A20538   3.574  30.662   7.664
 1401POPC   C1B20539   3.816  30.737   8.564
 1401POPC   C2B20540   3.810  30.793   8.264
 1401POPC   C3B20541   3.749  30.760   7.964
 1401POPC   C4B20542   3.791  30.738   7.664
 1402POPC   NC320543   5.077  19.098   9.464
 1402POPC   PO420544   5.048  19.064   9.164
 1402POPC   GL120545   5.110  19.070   8.864
 1402POPC   GL220546   5.024  19.070   8.864
 1402POPC   C1A20547   5.142  19.107   8.564
 1402POPC   D2A20548   5.045  19.016   8.264
 1402POPC   C3A20549   5.122  19.013   7.964
 1402POPC   C4A20550   5.137  19.082   7.664
 1402POPC   C1B20551   4.830  19.191   8.564
 1402POPC   C2B20552   4.862  19.156   8.264
 1402POPC   C3B20553   4.839  19.213   7.964
 1402POPC   C4B20554   4.920  19.221   7.664
 1403POPC   NC320555  21.398   8.219   9.464
 1403POPC   PO420556  21.413   8.230   9.164
 1403POPC   GL120557  21.399   8.170   8.864
 1403POPC   GL220558  21.450   8.320   8.864
 1403POPC   C1A20559  21.424   8.182   8.564
 1403POPC   D2A20560  21.409   8.233   8.264
 1403POPC   C3A20561  21.403   8.162   7.964
 1403POPC   C4A20562  21.369   8.224   7.664
 1403POPC   C1B20563  21.496   8.398   8.564
 1403POPC   C2B20564  21.500   8.412   8.264
 1403POPC   C3B20565  21.527   8.415   7.964
 1403POPC   C4B20566  21.525   8.356   7.664
 1404POPC   NC320567   9.758  40.818   9.464
 1404POPC   PO420568   9.741  40.753   9.164
 1404POPC   GL120569   9.772  40.818   8.864
 1404POPC   GL220570   9.682  40.842   8.864
 1404POPC   C1A20571   9.737  40.803   8.564
 1404POPC   D2A20572   9.791  40.819   8.264
 1404POPC   C3A20573   9.745  40.745   7.964
 1404POPC   C4A20574   9.740  40.760   7.664
 1404POPC   C1B20575   9.607  40.955   8.564
 1404POPC   C2B20576   9.591  40.979   8.264
 1404POPC   C3B20577   9.560  40.985   7.964
 1404POPC   C4B20578   9.568  40.944   7.664
 1405POPC   NC320579   7.388   5.888   9.464
 1405POPC   PO420580   7.400   5.892   9.164
 1405POPC   GL120581   7.395   5.848   8.864
 1405POPC   GL220582   7.546   5.804   8.864
 1405POPC   C1A20583   7.407   5.887   8.564
 1405POPC   D2A20584   7.417   5.838   8.264
 1405POPC   C3A20585   7.389   5.836   7.964
 1405POPC   C4A20586   7.451   5.883   7.664
 1405POPC   C1B20587   7.632   5.711   8.564
 1405POPC   C2B20588   7.675   5.773   8.264
 1405POPC   C3B20589   7.642   5.717   7.964
 1405POPC   C4B20590   7.597   5.781   7.664
 1406POPC   NC320591  37.669  12.866   9.464
 1406POPC   PO420592  37.694  12.884   9.164
 1406POPC   GL120593  37.675  12.840   8.864
 1406POPC   GL220594  37.755  12.945   8.864
 1406POPC   C1A20595  37.728  12.877   8.564
 1406POPC   D2A20596  37.671  12.809   8.264
 1406POPC   C3A20597  37.715  12.847   7.964
 1406POPC   C4A20598  37.665  12.867   7.664
 1406POPC   C1B20599  37.737  13.116   8.564
 1406POPC   C2B20600  37.817  13.070   8.264
 1406POPC   C3B20601  37.761  13.101   7.964
 1406POPC   C4B20602  37.733  13.035   7.664
 1407POPC   NC320603  10.506  41.514   9.464
 1407POPC   PO420604  10.541  41.545   9.164
 1407POPC   GL120605  10.512  41.608   8.864
 1407POPC   GL220606  10.484  41.454   8.864
 1407POPC   C1A20607  10.547  41.520   8.564
 1407POPC   D2A20608  10.571  41.582   8.264
 1407POPC   C3A20609  10.536  41.523   7.964
 1407POPC   C4A20610  10.505  41.552   7.664
 1407POPC   C1B20611  10.414  41.332   8.564
 1407POPC   C2B20612  10.409  41.331   8.264
 1407POPC   C3B20613  10.355  41.401   7.964
 1407POPC   C4B20614  10.350  41.357   7.664
 1408POPC   NC320615  30.686  26.799   9.464
 1408POPC   PO420616  30.717  26.858   9.164
 1408POPC   GL120617  30.735  26.789   8.864
 1408POPC   GL220618  30.677  26.927   8.864
 1408POPC   C1A20619  30.675  26.782   8.564
 1408POPC   D2A20620  30.664  26.808   8.264
 1408POPC   C3A20621  30.741  26.777   7.964
 1408POPC   C4A20622  30.688  26.833   7.664
 1408POPC   C1B20623  30.697  27.115   8.564
 1408POPC   C2B20624  30.677  27.076   8.264
 1408POPC   C3B20625  30.644  27.094   7.964
 1408POPC   C4B20626  30.661  27.043   7.664
 1409POPC   NC320627  32.298  39.980   9.464
 1409POPC   PO420628  32.227  39.973   9.164
 1409POPC   GL120629  32.255  39.981   8.864
 1409POPC   GL220630  32.324  39.877   8.864
 1409POPC   C1A20631  32.231  40.056   8.564
 1409POPC   D2A20632  32.203  40.018   8.264
 1409POPC   C3A20633  32.219  39.986   7.964
 1409POPC   C4A20634  32.292  39.979   7.664
 1409POPC   C1B20635  32.447  39.780   8.564
 1409POPC   C2B20636  32.460  39.824   8.264
 1409POPC   C3B20637  32.402  39.780   7.964
 1409POPC   C4B20638  32.416  39.847   7.664
 1410POPC   NC320639  31.459  28.331   9.464
 1410POPC   PO420640  31.424  28.415   9.164
 1410POPC   GL120641  31.505  28.392   8.864
 1410POPC   GL220642  31.527  28.487   8.864
 1410POPC   C1A20643  31.492  28.406   8.564
 1410POPC   D2A20644  31.441  28.419   8.264
 1410POPC   C3A20645  31.457  28.370   7.964
 1410POPC   C4A20646  31.491  28.391   7.664
 1410POPC   C1B20647  31.546  28.624   8.564
 1410POPC   C2B20648  31.600  28.637   8.264
 1410POPC   C3B20649  31.574  28.625   7.964
 1410POPC   C4B20650  31.579  28.575   7.664
 1411POPC   NC320651   8.217  17.550   9.464
 1411POPC   PO420652   8.159  17.506   9.164
 1411POPC   GL120653   8.243  17.533   8.864
 1411POPC   GL220654   8.305  17.457   8.864
 1411POPC   C1A20655   8.180  17.542   8.564
 1411POPC   D2A20656   8.175  17.529   8.264
 1411POPC   C3A20657   8.149  17.485   7.964
 1411POPC   C4A20658   8.225  17.483   7.664
 1411POPC   C1B20659   8.429  17.541   8.564
 1411POPC   C2B20660   8.442  17.460   8.264
 1411POPC   C3B20661   8.488  17.520   7.964
 1411POPC   C4B20662   8.435  17.509   7.664
 1412POPC   NC320663  39.262  36.935   9.464
 1412POPC   PO420664  39.218  36.951   9.164
 1412POPC   GL120665  39.245  36.863   8.864
 1412POPC   GL220666  39.294  36.804   8.864
 1412POPC   C1A20667  39.273  36.905   8.564
 1412POPC   D2A20668  39.206  36.939   8.264
 1412POPC   C3A20669  39.270  36.859   7.964
 1412POPC   C4A20670  39.188  36.919   7.664
 1412POPC   C1B20671  39.276  36.641   8.564
 1412POPC   C2B20672  39.223  36.685   8.264
 1412POPC   C3B20673  39.307  36.705   7.964
 1412POPC   C4B20674  39.302  36.654   7.664
 1413POPC   NC320675  43.850  29.176   9.464
 1413POPC   PO420676  43.848  29.142   9.164
 1413POPC   GL120677  43.884  29.133   8.864
 1413POPC   GL220678  44.025  29.062   8.864
 1413POPC   C1A20679  43.878  29.099   8.564
 1413POPC   D2A20680  43.889  29.151   8.264
 1413POPC   C3A20681  43.921  29.146   7.964
 1413POPC   C4A20682  43.910  29.125   7.664
 1413POPC   C1B20683  44.140  28.969   8.564
 1413POPC   C2B20684  44.102  29.032   8.264
 1413POPC   C3B20685  44.105  29.033   7.964
 1413POPC   C4B20686  44.095  29.000   7.664
 1414POPC   NC320687  29.875   1.992   9.464
 1414POPC   PO420688  29.898   2.022   9.164
 1414POPC   GL120689  29.947   2.013   8.864
 1414POPC   GL220690  29.856   1.896   8.864
 1414POPC   C1A20691  29.930   1.986   8.564
 1414POPC   D2A20692  29.890   1.977   8.264
 1414POPC   C3A20693  29.947   1.958   7.964
 1414POPC   C4A20694  29.929   2.032   7.664
 1414POPC   C1B20695  29.930   1.696   8.564
 1414POPC   C2B20696  29.860   1.732   8.264
 1414POPC   C3B20697  29.937   1.714   7.964
 1414POPC   C4B20698  29.906   1.716   7.664
 1415POPC   NC320699  13.601  12.098   9.464
 1415POPC   PO420700  13.591  12.056   9.164
 1415POPC   GL120701  13.593  12.067   8.864
 1415POPC   GL220702  13.543  12.130   8.864
 1415POPC   C1A20703  13.603  12.035   8.564
 1415POPC   D2A20704  13.589  12.114   8.264
 1415POPC   C3A20705  13.583  12.076   7.964
 1415POPC   C4A20706  13.673  12.051   7.664
 1415POPC   C1B20707  13.384  12.245   8.564
 1415POPC   C2B20708  13.382  12.228   8.264
 1415POPC   C3B20709  13.389  12.204   7.964
 1415POPC   C4B20710  13.378  12.171   7.664
 1416POPC   NC320711  11.303  15.975   9.464
 1416POPC   PO420712  11.299  15.985   9.164
 1416POPC   GL120713  11.262  15.989   8.864
 1416POPC   GL220714  11.277  16.120   8.864
 1416POPC   C1A20715  11.267  15.938   8.564
 1416POPC   D2A20716  11.255  15.956   8.264
 1416POPC   C3A20717  11.281  15.923   7.964
 1416POPC   C4A20718  11.302  15.980   7.664
 1416POPC   C1B20719  11.291  16.225   8.564
 1416POPC   C2B20720  11.289  16.245   8.264
 1416POPC   C3B20721  11.290  16.200   7.964
 1416POPC   C4B20722  11.274  16.231   7.664
 1417POPC   NC320723   3.574  35.330   9.464
 1417POPC   PO420724   3.542  35.376   9.164
 1417POPC   GL120725   3.543  35.400   8.864
 1417POPC   GL220726   3.569  35.452   8.864
 1417POPC   C1A20727   3.518  35.349   8.564
 1417POPC   D2A20728   3.502  35.380   8.264
 1417POPC   C3A20729   3.544  35.312   7.964
 1417POPC   C4A20730   3.530  35.378   7.664
 1417POPC   C1B20731   3.636  35.588   8.564
 1417POPC   C2B20732   3.657  35.604   8.264
 1417POPC   C3B20733   3.623  35.561   7.964
 1417POPC   C4B20734   3.684  35.610   7.664
 1418POPC   NC320735  17.522  10.530   9.464
 1418POPC   PO420736  17.519  10.565   9.164
 1418POPC   GL120737  17.549  10.497   8.864
 1418POPC   GL220738  17.373  10.417   8.864
 1418POPC   C1A20739  17.543  10.556   8.564
 1418POPC   D2A20740  17.543  10.552   8.264
 1418POPC   C3A20741  17.480  10.519   7.964
 1418POPC   C4A20742  17.467  10.519   7.664
 1418POPC   C1B20743  17.361  10.385   8.564
 1418POPC   C2B20744  17.345  10.363   8.264
 1418POPC   C3B20745  17.343  10.352   7.964
 1418POPC   C4B20746  17.311  10.355   7.664
 1419POPC   NC320747  36.129  13.639   9.464
 1419POPC   PO420748  36.130  13.597   9.164
 1419POPC   GL120749  36.123  13.650   8.864
 1419POPC   GL220750  36.048  13.520   8.864
 1419POPC   C1A20751  36.116  13.669   8.564
 1419POPC   D2A20752  36.078  13.600   8.264
 1419POPC   C3A20753  36.109  13.624   7.964
 1419POPC   C4A20754  36.127  13.590   7.664
 1419POPC   C1B20755  36.017  13.423   8.564
 1419POPC   C2B20756  36.011  13.456   8.264
 1419POPC   C3B20757  36.034  13.424   7.964
 1419POPC   C4B20758  36.018  13.431   7.664
 1420POPC   NC320759  29.964   4.335   9.464
 1420POPC   PO420760  29.925   4.330   9.164
 1420POPC   GL120761  29.880   4.364   8.864
 1420POPC   GL220762  29.879   4.219   8.864
 1420POPC   C1A20763  29.924   4.308   8.564
 1420POPC   D2A20764  29.873   4.299   8.264
 1420POPC   C3A20765  29.906   4.320   7.964
 1420POPC   C4A20766  29.925   4.364   7.664
 1420POPC   C1B20767  29.764   4.123   8.564
 1420POPC   C2B20768  29.783   4.051   8.264
 1420POPC   C3B20769  29.758   4.060   7.964
 1420POPC   C4B20770  29.820   4.069   7.664
 1421POPC   NC320771  29.882   8.148   9.464
 1421POPC   PO420772  29.946   8.172   9.164
 1421POPC   GL120773  29.930   8.198   8.864
 1421POPC   GL220774  30.023   8.209   8.864
 1421POPC   C1A20775  29.876   8.195   8.564
 1421POPC   D2A20776  29.924   8.171   8.264
 1421POPC   C3A20777  29.890   8.239   7.964
 1421POPC   C4A20778  29.896   8.237   7.664
 1421POPC   C1B20779  30.171   8.279   8.564
 1421POPC   C2B20780  30.120   8.321   8.264
 1421POPC   C3B20781  30.129   8.321   7.964
 1421POPC   C4B20782  30.182   8.336   7.664
 1422POPC   NC320783  25.992  23.682   9.464
 1422POPC   PO420784  26.063  23.701   9.164
 1422POPC   GL120785  25.995  23.722   8.864
 1422POPC   GL220786  26.078  23.777   8.864
 1422POPC   C1A20787  26.086  23.760   8.564
 1422POPC   D2A20788  26.047  23.733   8.264
 1422POPC   C3A20789  26.066  23.665   7.964
 1422POPC   C4A20790  26.080  23.741   7.664
 1422POPC   C1B20791  26.214  23.863   8.564
 1422POPC   C2B20792  26.161  23.912   8.264
 1422POPC   C3B20793  26.153  23.945   7.964
 1422POPC   C4B20794  26.238  23.879   7.664
 1423POPC   NC320795  42.355  29.951   9.464
 1423POPC   PO420796  42.354  29.895   9.164
 1423POPC   GL120797  42.313  29.889   8.864
 1423POPC   GL220798  42.440  29.879   8.864
 1423POPC   C1A20799  42.309  29.903   8.564
 1423POPC   D2A20800  42.335  29.919   8.264
 1423POPC   C3A20801  42.289  29.962   7.964
 1423POPC   C4A20802  42.306  29.883   7.664
 1423POPC   C1B20803  42.490  29.814   8.564
 1423POPC   C2B20804  42.528  29.808   8.264
 1423POPC   C3B20805  42.490  29.807   7.964
 1423POPC   C4B20806  42.557  29.786   7.664
 1424POPC   NC320807  28.366  26.039   9.464
 1424POPC   PO420808  28.382  26.030   9.164
 1424POPC   GL120809  28.342  26.072   8.864
 1424POPC   GL220810  28.440  26.198   8.864
 1424POPC   C1A20811  28.411  25.995   8.564
 1424POPC   D2A20812  28.336  26.070   8.264
 1424POPC   C3A20813  28.416  26.010   7.964
 1424POPC   C4A20814  28.361  26.026   7.664
 1424POPC   C1B20815  28.467  26.291   8.564
 1424POPC   C2B20816  28.424  26.299   8.264
 1424POPC   C3B20817  28.489  26.244   7.964
 1424POPC   C4B20818  28.451  26.305   7.664
 1425POPC   NC320819  17.514  28.353   9.464
 1425POPC   PO420820  17.461  28.369   9.164
 1425POPC   GL120821  17.458  28.341   8.864
 1425POPC   GL220822  17.606  28.463   8.864
 1425POPC   C1A20823  17.484  28.373   8.564
 1425POPC   D2A20824  17.499  28.385   8.264
 1425POPC   C3A20825  17.465  28.326   7.964
 1425POPC   C4A20826  17.497  28.397   7.664
 1425POPC   C1B20827  17.641  28.613   8.564
 1425POPC   C2B20828  17.608  28.598   8.264
 1425POPC   C3B20829  17.653  28.596   7.964
 1425POPC   C4B20830  17.619  28.622   7.664
 1426POPC   NC320831  22.948   5.123   9.464
 1426POPC   PO420832  22.938   5.050   9.164
 1426POPC   GL120833  22.945   5.067   8.864
 1426POPC   GL220834  22.857   5.053   8.864
 1426POPC   C1A20835  22.914   5.110   8.564
 1426POPC   D2A20836  22.910   5.093   8.264
 1426POPC   C3A20837  22.954   5.081   7.964
 1426POPC   C4A20838  22.930   5.047   7.664
 1426POPC   C1B20839  22.732   5.036   8.564
 1426POPC   C2B20840  22.650   5.019   8.264
 1426POPC   C3B20841  22.647   5.080   7.964
 1426POPC   C4B20842  22.708   5.100   7.664
 1427POPC   NC320843  40.802   5.907   9.464
 1427POPC   PO420844  40.782   5.881   9.164
 1427POPC   GL120845  40.737   5.826   8.864
 1427POPC   GL220846  40.881   5.910   8.864
 1427POPC   C1A20847  40.782   5.858   8.564
 1427POPC   D2A20848  40.824   5.831   8.264
 1427POPC   C3A20849  40.827   5.827   7.964
 1427POPC   C4A20850  40.802   5.830   7.664
 1427POPC   C1B20851  40.980   5.945   8.564
 1427POPC   C2B20852  41.017   5.917   8.264
 1427POPC   C3B20853  41.019   5.998   7.964
 1427POPC   C4B20854  41.063   5.930   7.664
 1428POPC   NC320855  29.164  11.295   9.464
 1428POPC   PO420856  29.181  11.299   9.164
 1428POPC   GL120857  29.171  11.282   8.864
 1428POPC   GL220858  29.057  11.324   8.864
 1428POPC   C1A20859  29.177  11.260   8.564
 1428POPC   D2A20860  29.174  11.335   8.264
 1428POPC   C3A20861  29.102  11.325   7.964
 1428POPC   C4A20862  29.159  11.290   7.664
 1428POPC   C1B20863  28.912  11.334   8.564
 1428POPC   C2B20864  28.856  11.264   8.264
 1428POPC   C3B20865  28.935  11.333   7.964
 1428POPC   C4B20866  28.880  11.274   7.664
 1429POPC   NC320867  22.153  23.754   9.464
 1429POPC   PO420868  22.137  23.733   9.164
 1429POPC   GL120869  22.206  23.699   8.864
 1429POPC   GL220870  22.126  23.635   8.864
 1429POPC   C1A20871  22.132  23.694   8.564
 1429POPC   D2A20872  22.174  23.669   8.264
 1429POPC   C3A20873  22.212  23.724   7.964
 1429POPC   C4A20874  22.146  23.738   7.664
 1429POPC   C1B20875  22.180  23.452   8.564
 1429POPC   C2B20876  22.115  23.493   8.264
 1429POPC   C3B20877  22.157  23.489   7.964
 1429POPC   C4B20878  22.129  23.428   7.664
 1430POPC   NC320879  42.363   4.323   9.464
 1430POPC   PO420880  42.374   4.281   9.164
 1430POPC   GL120881  42.314   4.360   8.864
 1430POPC   GL220882  42.223   4.389   8.864
 1430POPC   C1A20883  42.316   4.334   8.564
 1430POPC   D2A20884  42.322   4.314   8.264
 1430POPC   C3A20885  42.299   4.315   7.964
 1430POPC   C4A20886  42.376   4.327   7.664
 1430POPC   C1B20887  42.109   4.417   8.564
 1430POPC   C2B20888  42.077   4.391   8.264
 1430POPC   C3B20889  42.110   4.430   7.964
 1430POPC   C4B20890  42.144   4.421   7.664
 1431POPC   NC320891  14.378  14.355   9.464
 1431POPC   PO420892  14.434  14.443   9.164
 1431POPC   GL120893  14.421  14.407   8.864
 1431POPC   GL220894  14.490  14.337   8.864
 1431POPC   C1A20895  14.363  14.446   8.564
 1431POPC   D2A20896  14.360  14.361   8.264
 1431POPC   C3A20897  14.419  14.447   7.964
 1431POPC   C4A20898  14.359  14.395   7.664
 1431POPC   C1B20899  14.600  14.294   8.564
 1431POPC   C2B20900  14.601  14.279   8.264
 1431POPC   C3B20901  14.611  14.274   7.964
 1431POPC   C4B20902  14.603  14.256   7.664
 1432POPC   NC320903   9.782  25.993   9.464
 1432POPC   PO420904   9.752  26.047   9.164
 1432POPC   GL120905   9.726  26.072   8.864
 1432POPC   GL220906   9.688  25.934   8.864
 1432POPC   C1A20907   9.721  26.038   8.564
 1432POPC   D2A20908   9.794  26.030   8.264
 1432POPC   C3A20909   9.720  26.082   7.964
 1432POPC   C4A20910   9.788  26.026   7.664
 1432POPC   C1B20911   9.703  25.836   8.564
 1432POPC   C2B20912   9.724  25.778   8.264
 1432POPC   C3B20913   9.693  25.808   7.964
 1432POPC   C4B20914   9.727  25.778   7.664
 1433POPC   NC320915  44.676  24.452   9.464
 1433POPC   PO420916  44.649  24.458   9.164
 1433POPC   GL120917  44.675  24.521   8.864
 1433POPC   GL220918  44.621  24.607   8.864
 1433POPC   C1A20919  44.701  24.446   8.564
 1433POPC   D2A20920  44.692  24.497   8.264
 1433POPC   C3A20921  44.668  24.531   7.964
 1433POPC   C4A20922  44.671  24.525   7.664
 1433POPC   C1B20923  44.696  24.715   8.564
 1433POPC   C2B20924  44.660  24.786   8.264
 1433POPC   C3B20925  44.644  24.699   7.964
 1433POPC   C4B20926  44.647  24.776   7.664
 1434POPC   NC320927  28.385  22.192   9.464
 1434POPC   PO420928  28.405  22.167   9.164
 1434POPC   GL120929  28.401  22.143   8.864
 1434POPC   GL220930  28.460  22.091   8.864
 1434POPC   C1A20931  28.325  22.183   8.564
 1434POPC   D2A20932  28.414  22.162   8.264
 1434POPC   C3A20933  28.415  22.197   7.964
 1434POPC   C4A20934  28.321  22.126   7.664
 1434POPC   C1B20935  28.555  22.077   8.564
 1434POPC   C2B20936  28.570  22.031   8.264
 1434POPC   C3B20937  28.573  21.992   7.964
 1434POPC   C4B20938  28.610  22.027   7.664
 1435POPC   NC320939  36.085  10.504   9.464
 1435POPC   PO420940  36.158  10.508   9.164
 1435POPC   GL120941  36.078  10.474   8.864
 1435POPC   GL220942  35.976  10.510   8.864
 1435POPC   C1A20943  36.083  10.492   8.564
 1435POPC   D2A20944  36.156  10.521   8.264
 1435POPC   C3A20945  36.128  10.564   7.964
 1435POPC   C4A20946  36.138  10.550   7.664
 1435POPC   C1B20947  35.915  10.539   8.564
 1435POPC   C2B20948  35.892  10.590   8.264
 1435POPC   C3B20949  35.889  10.581   7.964
 1435POPC   C4B20950  35.890  10.504   7.664
 1436POPC   NC320951  26.037  41.512   9.464
 1436POPC   PO420952  26.066  41.566   9.164
 1436POPC   GL120953  26.090  41.562   8.864
 1436POPC   GL220954  26.002  41.716   8.864
 1436POPC   C1A20955  26.035  41.587   8.564
 1436POPC   D2A20956  26.021  41.587   8.264
 1436POPC   C3A20957  26.028  41.571   7.964
 1436POPC   C4A20958  26.058  41.604   7.664
 1436POPC   C1B20959  26.005  41.779   8.564
 1436POPC   C2B20960  26.054  41.806   8.264
 1436POPC   C3B20961  26.062  41.777   7.964
 1436POPC   C4B20962  26.051  41.783   7.664
 1437POPC   NC320963  38.486  39.243   9.464
 1437POPC   PO420964  38.463  39.257   9.164
 1437POPC   GL120965  38.444  39.201   8.864
 1437POPC   GL220966  38.443  39.394   8.864
 1437POPC   C1A20967  38.485  39.195   8.564
 1437POPC   D2A20968  38.427  39.276   8.264
 1437POPC   C3A20969  38.408  39.199   7.964
 1437POPC   C4A20970  38.460  39.223   7.664
 1437POPC   C1B20971  38.485  39.443   8.564
 1437POPC   C2B20972  38.480  39.477   8.264
 1437POPC   C3B20973  38.525  39.530   7.964
 1437POPC   C4B20974  38.476  39.527   7.664
 1438POPC   NC320975  19.075  37.665   9.464
 1438POPC   PO420976  19.077  37.644   9.164
 1438POPC   GL120977  19.032  37.704   8.864
 1438POPC   GL220978  19.154  37.554   8.864
 1438POPC   C1A20979  19.108  37.693   8.564
 1438POPC   D2A20980  19.063  37.678   8.264
 1438POPC   C3A20981  19.014  37.649   7.964
 1438POPC   C4A20982  19.019  37.651   7.664
 1438POPC   C1B20983  19.281  37.471   8.564
 1438POPC   C2B20984  19.189  37.534   8.264
 1438POPC   C3B20985  19.276  37.507   7.964
 1438POPC   C4B20986  19.203  37.460   7.664
 1439POPC   NC320987  43.075  43.864   9.464
 1439POPC   PO420988  43.078  43.914   9.164
 1439POPC   GL120989  43.134  43.936   8.864
 1439POPC   GL220990  43.240  43.840   8.864
 1439POPC   C1A20991  43.136  43.852   8.564
 1439POPC   D2A20992  43.064  43.856   8.264
 1439POPC   C3A20993  43.092  43.904   7.964
 1439POPC   C4A20994  43.132  43.846   7.664
 1439POPC   C1B20995  43.398  43.832   8.564
 1439POPC   C2B20996  43.313  43.831   8.264
 1439POPC   C3B20997  43.350  43.869   7.964
 1439POPC   C4B20998  43.398  43.853   7.664
 1440POPC   NC320999  44.653   7.441   9.464
 1440POPC   PO421000  44.674   7.390   9.164
 1440POPC   GL121001  44.708   7.456   8.864
 1440POPC   GL221002  44.703   7.529   8.864
 1440POPC   C1A21003  44.616   7.455   8.564
 1440POPC   D2A21004  44.640   7.432   8.264
 1440POPC   C3A21005  44.660   7.439   7.964
 1440POPC   C4A21006  44.661   7.448   7.664
 1440POPC   C1B21007  44.742   7.691   8.564
 1440POPC   C2B21008  44.770   7.635   8.264
 1440POPC   C3B21009  44.744   7.666   7.964
 1440POPC   C4B21010  44.732   7.687   7.664
 1441POPC   NC321011   9.762  23.710   9.464
 1441POPC   PO421012   9.762  23.752   9.164
 1441POPC   GL121013   9.790  23.723   8.864
 1441POPC   GL221014   9.605  23.668   8.864
 1441POPC   C1A21015   9.703  23.757   8.564
 1441POPC   D2A21016   9.787  23.706   8.264
 1441POPC   C3A21017   9.772  23.667   7.964
 1441POPC   C4A21018   9.738  23.756   7.664
 1441POPC   C1B21019   9.516  23.708   8.564
 1441POPC   C2B21020   9.549  23.726   8.264
 1441POPC   C3B21021   9.460  23.701   7.964
 1441POPC   C4B21022   9.480  23.687   7.664
 1442POPC   NC321023   8.164  28.412   9.464
 1442POPC   PO421024   8.236  28.419   9.164
 1442POPC   GL121025   8.197  28.409   8.864
 1442POPC   GL221026   8.118  28.310   8.864
 1442POPC   C1A21027   8.230  28.345   8.564
 1442POPC   D2A21028   8.171  28.400   8.264
 1442POPC   C3A21029   8.183  28.334   7.964
 1442POPC   C4A21030   8.193  28.327   7.664
 1442POPC   C1B21031   7.903  28.370   8.564
 1442POPC   C2B21032   7.964  28.293   8.264
 1442POPC   C3B21033   7.948  28.362   7.964
 1442POPC   C4B21034   7.921  28.354   7.664
 1443POPC   NC321035  29.161  40.806   9.464
 1443POPC   PO421036  29.096  40.798   9.164
 1443POPC   GL121037  29.144  40.783   8.864
 1443POPC   GL221038  29.170  40.701   8.864
 1443POPC   C1A21039  29.149  40.829   8.564
 1443POPC   D2A21040  29.109  40.764   8.264
 1443POPC   C3A21041  29.177  40.811   7.964
 1443POPC   C4A21042  29.096  40.740   7.664
 1443POPC   C1B21043  29.238  40.527   8.564
 1443POPC   C2B21044  29.202  40.522   8.264
 1443POPC   C3B21045  29.258  40.564   7.964
 1443POPC   C4B21046  29.214  40.518   7.664
 1444POPC   NC321047  10.516  12.064   9.464
 1444POPC   PO421048  10.518  12.067   9.164
 1444POPC   GL121049  10.573  12.066   8.864
 1444POPC   GL221050  10.359  12.140   8.864
 1444POPC   C1A21051  10.527  12.044   8.564
 1444POPC   D2A21052  10.476  12.117   8.264
 1444POPC   C3A21053  10.559  12.082   7.964
 1444POPC   C4A21054  10.538  12.114   7.664
 1444POPC   C1B21055  10.240  12.142   8.564
 1444POPC   C2B21056  10.325  12.109   8.264
 1444POPC   C3B21057  10.259  12.140   7.964
 1444POPC   C4B21058  10.254  12.169   7.664
 1445POPC   NC321059  12.103  11.338   9.464
 1445POPC   PO421060  12.031  11.259   9.164
 1445POPC   GL121061  12.068  11.271   8.864
 1445POPC   GL221062  11.994  11.270   8.864
 1445POPC   C1A21063  12.054  11.329   8.564
 1445POPC   D2A21064  12.122  11.326   8.264
 1445POPC   C3A21065  12.047  11.346   7.964
 1445POPC   C4A21066  12.090  11.257   7.664
 1445POPC   C1B21067  11.856  11.332   8.564
 1445POPC   C2B21068  11.875  11.325   8.264
 1445POPC   C3B21069  11.821  11.320   7.964
 1445POPC   C4B21070  11.850  11.341   7.664
 1446POPC   NC321071  37.663  15.905   9.464
 1446POPC   PO421072  37.669  15.968   9.164
 1446POPC   GL121073  37.694  15.988   8.864
 1446POPC   GL221074  37.580  15.886   8.864
 1446POPC   C1A21075  37.704  15.946   8.564
 1446POPC   D2A21076  37.718  16.004   8.264
 1446POPC   C3A21077  37.658  15.959   7.964
 1446POPC   C4A21078  37.697  16.002   7.664
 1446POPC   C1B21079  37.518  15.800   8.564
 1446POPC   C2B21080  37.542  15.797   8.264
 1446POPC   C3B21081  37.496  15.771   7.964
 1446POPC   C4B21082  37.533  15.825   7.664
 1447POPC   NC321083   6.610  19.104   9.464
 1447POPC   PO421084   6.685  19.100   9.164
 1447POPC   GL121085   6.649  19.035   8.864
 1447POPC   GL221086   6.695  19.208   8.864
 1447POPC   C1A21087   6.654  19.027   8.564
 1447POPC   D2A21088   6.602  19.049   8.264
 1447POPC   C3A21089   6.615  19.087   7.964
 1447POPC   C4A21090   6.690  19.012   7.664
 1447POPC   C1B21091   6.726  19.347   8.564
 1447POPC   C2B21092   6.638  19.353   8.264
 1447POPC   C3B21093   6.651  19.281   7.964
 1447POPC   C4B21094   6.711  19.326   7.664
 1448POPC   NC321095   9.728  37.722   9.464
 1448POPC   PO421096   9.706  37.630   9.164
 1448POPC   GL121097   9.789  37.724   8.864
 1448POPC   GL221098   9.914  37.689   8.864
 1448POPC   C1A21099   9.706  37.719   8.564
 1448POPC   D2A21100   9.735  37.635   8.264
 1448POPC   C3A21101   9.769  37.632   7.964
 1448POPC   C4A21102   9.759  37.708   7.664
 1448POPC   C1B21103   9.966  37.610   8.564
 1448POPC   C2B21104   9.968  37.678   8.264
 1448POPC   C3B21105  10.009  37.626   7.964
 1448POPC   C4B21106  10.047  37.630   7.664
 1449POPC   NC321107   8.203   6.641   9.464
 1449POPC   PO421108   8.199   6.604   9.164
 1449POPC   GL121109   8.221   6.602   8.864
 1449POPC   GL221110   8.303   6.743   8.864
 1449POPC   C1A21111   8.166   6.620   8.564
 1449POPC   D2A21112   8.165   6.675   8.264
 1449POPC   C3A21113   8.214   6.675   7.964
 1449POPC   C4A21114   8.241   6.615   7.664
 1449POPC   C1B21115   8.407   6.780   8.564
 1449POPC   C2B21116   8.351   6.776   8.264
 1449POPC   C3B21117   8.412   6.846   7.964
 1449POPC   C4B21118   8.422   6.771   7.664
 1450POPC   NC321119  41.522   4.281   9.464
 1450POPC   PO421120  41.584   4.294   9.164
 1450POPC   GL121121  41.529   4.317   8.864
 1450POPC   GL221122  41.488   4.415   8.864
 1450POPC   C1A21123  41.532   4.362   8.564
 1450POPC   D2A21124  41.518   4.350   8.264
 1450POPC   C3A21125  41.593   4.334   7.964
 1450POPC   C4A21126  41.551   4.273   7.664
 1450POPC   C1B21127  41.503   4.560   8.564
 1450POPC   C2B21128  41.459   4.595   8.264
 1450POPC   C3B21129  41.535   4.513   7.964
 1450POPC   C4B21130  41.514   4.576   7.664
 1451POPC   NC321131  31.448  31.475   9.464
 1451POPC   PO421132  31.439  31.460   9.164
 1451POPC   GL121133  31.478  31.479   8.864
 1451POPC   GL221134  31.487  31.332   8.864
 1451POPC   C1A21135  31.445  31.440   8.564
 1451POPC   D2A21136  31.486  31.477   8.264
 1451POPC   C3A21137  31.506  31.453   7.964
 1451POPC   C4A21138  31.438  31.496   7.664
 1451POPC   C1B21139  31.481  31.214   8.564
 1451POPC   C2B21140  31.462  31.213   8.264
 1451POPC   C3B21141  31.506  31.242   7.964
 1451POPC   C4B21142  31.476  31.220   7.664
 1452POPC   NC321143  38.424  37.647   9.464
 1452POPC   PO421144  38.440  37.630   9.164
 1452POPC   GL121145  38.427  37.645   8.864
 1452POPC   GL221146  38.562  37.743   8.864
 1452POPC   C1A21147  38.445  37.673   8.564
 1452POPC   D2A21148  38.493  37.714   8.264
 1452POPC   C3A21149  38.468  37.708   7.964
 1452POPC   C4A21150  38.444  37.710   7.664
 1452POPC   C1B21151  38.617  37.902   8.564
 1452POPC   C2B21152  38.637  37.830   8.264
 1452POPC   C3B21153  38.609  37.842   7.964
 1452POPC   C4B21154  38.579  37.897   7.664
 1453POPC   NC321155   5.829  19.865   9.464
 1453POPC   PO421156   5.908  19.859   9.164
 1453POPC   GL121157   5.856  19.844   8.864
 1453POPC   GL221158   5.697  19.823   8.864
 1453POPC   C1A21159   5.907  19.824   8.564
 1453POPC   D2A21160   5.873  19.808   8.264
 1453POPC   C3A21161   5.882  19.824   7.964
 1453POPC   C4A21162   5.910  19.824   7.664
 1453POPC   C1B21163   5.643  19.823   8.564
 1453POPC   C2B21164   5.655  19.833   8.264
 1453POPC   C3B21165   5.646  19.811   7.964
 1453POPC   C4B21166   5.625  19.859   7.664
 1454POPC   NC321167   8.222   2.797   9.464
 1454POPC   PO421168   8.213   2.780   9.164
 1454POPC   GL121169   8.216   2.800   8.864
 1454POPC   GL221170   8.111   2.810   8.864
 1454POPC   C1A21171   8.201   2.803   8.564
 1454POPC   D2A21172   8.238   2.731   8.264
 1454POPC   C3A21173   8.208   2.748   7.964
 1454POPC   C4A21174   8.217   2.781   7.664
 1454POPC   C1B21175   8.001   2.965   8.564
 1454POPC   C2B21176   7.970   2.968   8.264
 1454POPC   C3B21177   7.968   2.971   7.964
 1454POPC   C4B21178   8.038   2.908   7.664
 1455POPC   NC321179  33.013  39.977   9.464
 1455POPC   PO421180  33.034  40.053   9.164
 1455POPC   GL121181  32.985  40.055   8.864
 1455POPC   GL221182  32.943  39.872   8.864
 1455POPC   C1A21183  33.062  39.998   8.564
 1455POPC   D2A21184  33.043  39.973   8.264
 1455POPC   C3A21185  32.991  39.966   7.964
 1455POPC   C4A21186  33.048  40.022   7.664
 1455POPC   C1B21187  32.964  39.818   8.564
 1455POPC   C2B21188  32.915  39.773   8.264
 1455POPC   C3B21189  32.900  39.796   7.964
 1455POPC   C4B21190  32.925  39.732   7.664
 1456POPC   NC321191  43.884   2.764   9.464
 1456POPC   PO421192  43.905   2.753   9.164
 1456POPC   GL121193  43.893   2.751   8.864
 1456POPC   GL221194  43.800   2.880   8.864
 1456POPC   C1A21195  43.849   2.794   8.564
 1456POPC   D2A21196  43.899   2.810   8.264
 1456POPC   C3A21197  43.915   2.793   7.964
 1456POPC   C4A21198  43.935   2.798   7.664
 1456POPC   C1B21199  43.741   2.949   8.564
 1456POPC   C2B21200  43.825   3.016   8.264
 1456POPC   C3B21201  43.824   3.030   7.964
 1456POPC   C4B21202  43.749   2.982   7.664
 1457POPC   NC321203  22.912  33.802   9.464
 1457POPC   PO421204  22.904  33.829   9.164
 1457POPC   GL121205  22.957  33.793   8.864
 1457POPC   GL221206  22.924  33.725   8.864
 1457POPC   C1A21207  22.969  33.778   8.564
 1457POPC   D2A21208  22.932  33.791   8.264
 1457POPC   C3A21209  22.921  33.782   7.964
 1457POPC   C4A21210  22.892  33.801   7.664
 1457POPC   C1B21211  22.915  33.585   8.564
 1457POPC   C2B21212  22.908  33.579   8.264
 1457POPC   C3B21213  22.916  33.522   7.964
 1457POPC   C4B21214  22.869  33.603   7.664
 1458POPC   NC321215  36.890  41.580   9.464
 1458POPC   PO421216  36.939  41.570   9.164
 1458POPC   GL121217  36.917  41.541   8.864
 1458POPC   GL221218  36.862  41.459   8.864
 1458POPC   C1A21219  36.941  41.518   8.564
 1458POPC   D2A21220  36.886  41.594   8.264
 1458POPC   C3A21221  36.857  41.602   7.964
 1458POPC   C4A21222  36.872  41.571   7.664
 1458POPC   C1B21223  36.774  41.414   8.564
 1458POPC   C2B21224  36.747  41.385   8.264
 1458POPC   C3B21225  36.720  41.344   7.964
 1458POPC   C4B21226  36.745  41.361   7.664
 1459POPC   NC321227  40.746  20.626   9.464
 1459POPC   PO421228  40.795  20.590   9.164
 1459POPC   GL121229  40.737  20.565   8.864
 1459POPC   GL221230  40.941  20.559   8.864
 1459POPC   C1A21231  40.774  20.600   8.564
 1459POPC   D2A21232  40.768  20.605   8.264
 1459POPC   C3A21233  40.738  20.615   7.964
 1459POPC   C4A21234  40.764  20.609   7.664
 1459POPC   C1B21235  41.056  20.573   8.564
 1459POPC   C2B21236  41.022  20.568   8.264
 1459POPC   C3B21237  41.059  20.526   7.964
 1459POPC   C4B21238  41.047  20.489   7.664
 1460POPC   NC321239   4.304   4.317   9.464
 1460POPC   PO421240   4.302   4.354   9.164
 1460POPC   GL121241   4.354   4.362   8.864
 1460POPC   GL221242   4.184   4.207   8.864
 1460POPC   C1A21243   4.360   4.309   8.564
 1460POPC   D2A21244   4.285   4.349   8.264
 1460POPC   C3A21245   4.294   4.359   7.964
 1460POPC   C4A21246   4.337   4.366   7.664
 1460POPC   C1B21247   4.154   4.158   8.564
 1460POPC   C2B21248   4.167   4.097   8.264
 1460POPC   C3B21249   4.177   4.156   7.964
 1460POPC   C4B21250   4.164   4.084   7.664
 1461POPC   NC321251  33.790  27.546   9.464
 1461POPC   PO421252  33.786  27.630   9.164
 1461POPC   GL121253  33.798  27.543   8.864
 1461POPC   GL221254  33.680  27.554   8.864
 1461POPC   C1A21255  33.772  27.545   8.564
 1461POPC   D2A21256  33.756  27.559   8.264
 1461POPC   C3A21257  33.819  27.552   7.964
 1461POPC   C4A21258  33.836  27.598   7.664
 1461POPC   C1B21259  33.601  27.583   8.564
 1461POPC   C2B21260  33.523  27.555   8.264
 1461POPC   C3B21261  33.556  27.518   7.964
 1461POPC   C4B21262  33.584  27.553   7.664
 1462POPC   NC321263   4.336  22.960   9.464
 1462POPC   PO421264   4.358  22.987   9.164
 1462POPC   GL121265   4.340  22.918   8.864
 1462POPC   GL221266   4.375  22.831   8.864
 1462POPC   C1A21267   4.291  22.973   8.564
 1462POPC   D2A21268   4.296  22.942   8.264
 1462POPC   C3A21269   4.351  22.945   7.964
 1462POPC   C4A21270   4.282  22.979   7.664
 1462POPC   C1B21271   4.502  22.763   8.564
 1462POPC   C2B21272   4.493  22.721   8.264
 1462POPC   C3B21273   4.475  22.705   7.964
 1462POPC   C4B21274   4.431  22.722   7.664
 1463POPC   NC321275  43.129   1.185   9.464
 1463POPC   PO421276  43.087   1.202   9.164
 1463POPC   GL121277  43.065   1.174   8.864
 1463POPC   GL221278  42.962   1.174   8.864
 1463POPC   C1A21279  43.086   1.249   8.564
 1463POPC   D2A21280  43.129   1.203   8.264
 1463POPC   C3A21281  43.133   1.206   7.964
 1463POPC   C4A21282  43.130   1.239   7.664
 1463POPC   C1B21283  42.897   1.253   8.564
 1463POPC   C2B21284  42.858   1.212   8.264
 1463POPC   C3B21285  42.841   1.204   7.964
 1463POPC   C4B21286  42.858   1.238   7.664
 1464POPC   NC321287  36.161  12.837   9.464
 1464POPC   PO421288  36.167  12.859   9.164
 1464POPC   GL121289  36.162  12.853   8.864
 1464POPC   GL221290  36.091  13.006   8.864
 1464POPC   C1A21291  36.083  12.848   8.564
 1464POPC   D2A21292  36.112  12.885   8.264
 1464POPC   C3A21293  36.152  12.837   7.964
 1464POPC   C4A21294  36.078  12.834   7.664
 1464POPC   C1B21295  35.973  13.049   8.564
 1464POPC   C2B21296  35.953  13.086   8.264
 1464POPC   C3B21297  36.032  13.067   7.964
 1464POPC   C4B21298  36.021  13.101   7.664
 1465POPC   NC321299  14.394  33.755   9.464
 1465POPC   PO421300  14.363  33.806   9.164
 1465POPC   GL121301  14.369  33.798   8.864
 1465POPC   GL221302  14.494  33.910   8.864
 1465POPC   C1A21303  14.440  33.807   8.564
 1465POPC   D2A21304  14.367  33.834   8.264
 1465POPC   C3A21305  14.358  33.786   7.964
 1465POPC   C4A21306  14.443  33.796   7.664
 1465POPC   C1B21307  14.499  33.992   8.564
 1465POPC   C2B21308  14.530  34.060   8.264
 1465POPC   C3B21309  14.485  34.049   7.964
 1465POPC   C4B21310  14.544  33.982   7.664
 1466POPC   NC321311  22.976  26.009   9.464
 1466POPC   PO421312  22.932  26.017   9.164
 1466POPC   GL121313  22.973  26.043   8.864
 1466POPC   GL221314  23.023  26.157   8.864
 1466POPC   C1A21315  22.958  26.063   8.564
 1466POPC   D2A21316  22.914  26.039   8.264
 1466POPC   C3A21317  22.938  26.062   7.964
 1466POPC   C4A21318  22.934  26.075   7.664
 1466POPC   C1B21319  23.102  26.231   8.564
 1466POPC   C2B21320  23.130  26.223   8.264
 1466POPC   C3B21321  23.087  26.168   7.964
 1466POPC   C4B21322  23.146  26.230   7.664
 1467POPC   NC321323  22.121  22.148   9.464
 1467POPC   PO421324  22.169  22.133   9.164
 1467POPC   GL121325  22.187  22.136   8.864
 1467POPC   GL221326  22.205  22.261   8.864
 1467POPC   C1A21327  22.130  22.129   8.564
 1467POPC   D2A21328  22.186  22.190   8.264
 1467POPC   C3A21329  22.120  22.125   7.964
 1467POPC   C4A21330  22.205  22.140   7.664
 1467POPC   C1B21331  22.247  22.366   8.564
 1467POPC   C2B21332  22.275  22.374   8.264
 1467POPC   C3B21333  22.261  22.377   7.964
 1467POPC   C4B21334  22.269  22.397   7.664
 1468POPC   NC321335  26.841  27.543   9.464
 1468POPC   PO421336  26.798  27.559   9.164
 1468POPC   GL121337  26.801  27.630   8.864
 1468POPC   GL221338  26.900  27.580   8.864
 1468POPC   C1A21339  26.821  27.594   8.564
 1468POPC   D2A21340  26.807  27.629   8.264
 1468POPC   C3A21341  26.833  27.578   7.964
 1468POPC   C4A21342  26.848  27.593   7.664
 1468POPC   C1B21343  27.105  27.636   8.564
 1468POPC   C2B21344  27.102  27.658   8.264
 1468POPC   C3B21345  27.019  27.609   7.964
 1468POPC   C4B21346  27.116  27.586   7.664
 1469POPC   NC321347  15.998  41.606   9.464
 1469POPC   PO421348  15.920  41.577   9.164
 1469POPC   GL121349  15.909  41.595   8.864
 1469POPC   GL221350  16.109  41.630   8.864
 1469POPC   C1A21351  16.004  41.529   8.564
 1469POPC   D2A21352  15.934  41.551   8.264
 1469POPC   C3A21353  15.921  41.573   7.964
 1469POPC   C4A21354  15.993  41.534   7.664
 1469POPC   C1B21355  16.176  41.684   8.564
 1469POPC   C2B21356  16.183  41.691   8.264
 1469POPC   C3B21357  16.155  41.711   7.964
 1469POPC   C4B21358  16.144  41.689   7.664
 1470POPC   NC321359  11.281  28.374   9.464
 1470POPC   PO421360  11.346  28.348   9.164
 1470POPC   GL121361  11.265  28.393   8.864
 1470POPC   GL221362  11.190  28.290   8.864
 1470POPC   C1A21363  11.256  28.403   8.564
 1470POPC   D2A21364  11.344  28.382   8.264
 1470POPC   C3A21365  11.262  28.347   7.964
 1470POPC   C4A21366  11.343  28.363   7.664
 1470POPC   C1B21367  11.022  28.330   8.564
 1470POPC   C2B21368  11.042  28.296   8.264
 1470POPC   C3B21369  11.032  28.334   7.964
 1470POPC   C4B21370  11.036  28.337   7.664
 1471POPC   NC321371  29.184   4.269   9.464
 1471POPC   PO421372  29.145   4.298   9.164
 1471POPC   GL121373  29.164   4.334   8.864
 1471POPC   GL221374  29.066   4.452   8.864
 1471POPC   C1A21375  29.105   4.270   8.564
 1471POPC   D2A21376  29.119   4.268   8.264
 1471POPC   C3A21377  29.179   4.365   7.964
 1471POPC   C4A21378  29.155   4.326   7.664
 1471POPC   C1B21379  28.992   4.507   8.564
 1471POPC   C2B21380  28.955   4.561   8.264
 1471POPC   C3B21381  28.949   4.501   7.964
 1471POPC   C4B21382  29.006   4.502   7.664
 1472POPC   NC321383  29.187   6.652   9.464
 1472POPC   PO421384  29.138   6.617   9.164
 1472POPC   GL121385  29.159   6.648   8.864
 1472POPC   GL221386  29.114   6.760   8.864
 1472POPC   C1A21387  29.118   6.642   8.564
 1472POPC   D2A21388  29.186   6.670   8.264
 1472POPC   C3A21389  29.168   6.653   7.964
 1472POPC   C4A21390  29.137   6.617   7.664
 1472POPC   C1B21391  29.117   6.878   8.564
 1472POPC   C2B21392  29.128   6.857   8.264
 1472POPC   C3B21393  29.117   6.908   7.964
 1472POPC   C4B21394  29.094   6.850   7.664
 1473POPC   NC321395   3.567  33.009   9.464
 1473POPC   PO421396   3.555  33.055   9.164
 1473POPC   GL121397   3.523  33.065   8.864
 1473POPC   GL221398   3.701  33.011   8.864
 1473POPC   C1A21399   3.573  33.065   8.564
 1473POPC   D2A21400   3.528  33.017   8.264
 1473POPC   C3A21401   3.533  32.986   7.964
 1473POPC   C4A21402   3.534  32.997   7.664
 1473POPC   C1B21403   3.749  32.929   8.564
 1473POPC   C2B21404   3.755  32.899   8.264
 1473POPC   C3B21405   3.756  32.977   7.964
 1473POPC   C4B21406   3.810  32.925   7.664
 1474POPC   NC321407  40.738  17.492   9.464
 1474POPC   PO421408  40.769  17.508   9.164
 1474POPC   GL121409  40.765  17.508   8.864
 1474POPC   GL221410  40.706  17.570   8.864
 1474POPC   C1A21411  40.801  17.528   8.564
 1474POPC   D2A21412  40.799  17.552   8.264
 1474POPC   C3A21413  40.754  17.481   7.964
 1474POPC   C4A21414  40.815  17.554   7.664
 1474POPC   C1B21415  40.569  17.583   8.564
 1474POPC   C2B21416  40.595  17.586   8.264
 1474POPC   C3B21417  40.566  17.658   7.964
 1474POPC   C4B21418  40.592  17.641   7.664
 1475POPC   NC321419  36.151  17.470   9.464
 1475POPC   PO421420  36.154  17.478   9.164
 1475POPC   GL121421  36.093  17.538   8.864
 1475POPC   GL221422  35.994  17.514   8.864
 1475POPC   C1A21423  36.173  17.511   8.564
 1475POPC   D2A21424  36.171  17.465   8.264
 1475POPC   C3A21425  36.135  17.461   7.964
 1475POPC   C4A21426  36.164  17.541   7.664
 1475POPC   C1B21427  35.844  17.484   8.564
 1475POPC   C2B21428  35.846  17.450   8.264
 1475POPC   C3B21429  35.845  17.475   7.964
 1475POPC   C4B21430  35.860  17.440   7.664
 1476POPC   NC321431  12.040  31.511   9.464
 1476POPC   PO421432  12.049  31.452   9.164
 1476POPC   GL121433  12.114  31.521   8.864
 1476POPC   GL221434  12.107  31.337   8.864
 1476POPC   C1A21435  12.113  31.461   8.564
 1476POPC   D2A21436  12.036  31.491   8.264
 1476POPC   C3A21437  12.055  31.505   7.964
 1476POPC   C4A21438  12.085  31.497   7.664
 1476POPC   C1B21439  12.241  31.239   8.564
 1476POPC   C2B21440  12.247  31.266   8.264
 1476POPC   C3B21441  12.164  31.261   7.964
 1476POPC   C4B21442  12.212  31.297   7.664
 1477POPC   NC321443  35.312  18.298   9.464
 1477POPC   PO421444  35.399  18.234   9.164
 1477POPC   GL121445  35.368  18.310   8.864
 1477POPC   GL221446  35.391  18.438   8.864
 1477POPC   C1A21447  35.348  18.283   8.564
 1477POPC   D2A21448  35.391  18.297   8.264
 1477POPC   C3A21449  35.324  18.315   7.964
 1477POPC   C4A21450  35.366  18.314   7.664
 1477POPC   C1B21451  35.377  18.489   8.564
 1477POPC   C2B21452  35.388  18.509   8.264
 1477POPC   C3B21453  35.330  18.525   7.964
 1477POPC   C4B21454  35.402  18.573   7.664
 1478POPC   NC321455   4.343  31.438   9.464
 1478POPC   PO421456   4.349  31.491   9.164
 1478POPC   GL121457   4.272  31.474   8.864
 1478POPC   GL221458   4.416  31.556   8.864
 1478POPC   C1A21459   4.330  31.500   8.564
 1478POPC   D2A21460   4.284  31.472   8.264
 1478POPC   C3A21461   4.352  31.429   7.964
 1478POPC   C4A21462   4.313  31.502   7.664
 1478POPC   C1B21463   4.588  31.536   8.564
 1478POPC   C2B21464   4.513  31.559   8.264
 1478POPC   C3B21465   4.606  31.503   7.964
 1478POPC   C4B21466   4.598  31.575   7.664
 1479POPC   NC321467  26.806  19.102   9.464
 1479POPC   PO421468  26.810  19.023   9.164
 1479POPC   GL121469  26.832  19.069   8.864
 1479POPC   GL221470  26.687  18.991   8.864
 1479POPC   C1A21471  26.802  19.049   8.564
 1479POPC   D2A21472  26.769  19.063   8.264
 1479POPC   C3A21473  26.776  19.016   7.964
 1479POPC   C4A21474  26.806  19.031   7.664
 1479POPC   C1B21475  26.672  18.875   8.564
 1479POPC   C2B21476  26.643  18.862   8.264
 1479POPC   C3B21477  26.646  18.859   7.964
 1479POPC   C4B21478  26.698  18.842   7.664
 1480POPC   NC321479  15.194  36.917   9.464
 1480POPC   PO421480  15.206  36.866   9.164
 1480POPC   GL121481  15.192  36.893   8.864
 1480POPC   GL221482  15.222  36.772   8.864
 1480POPC   C1A21483  15.190  36.855   8.564
 1480POPC   D2A21484  15.181  36.908   8.264
 1480POPC   C3A21485  15.207  36.914   7.964
 1480POPC   C4A21486  15.140  36.897   7.664
 1480POPC   C1B21487  15.262  36.704   8.564
 1480POPC   C2B21488  15.294  36.674   8.264
 1480POPC   C3B21489  15.308  36.664   7.964
 1480POPC   C4B21490  15.288  36.661   7.664
 1481POPC   NC321491  12.840  12.055   9.464
 1481POPC   PO421492  12.807  12.069   9.164
 1481POPC   GL121493  12.803  12.038   8.864
 1481POPC   GL221494  12.900  12.016   8.864
 1481POPC   C1A21495  12.815  12.091   8.564
 1481POPC   D2A21496  12.894  12.035   8.264
 1481POPC   C3A21497  12.859  12.104   7.964
 1481POPC   C4A21498  12.863  12.050   7.664
 1481POPC   C1B21499  13.076  11.870   8.564
 1481POPC   C2B21500  12.982  11.894   8.264
 1481POPC   C3B21501  12.979  11.862   7.964
 1481POPC   C4B21502  13.025  11.888   7.664
 1482POPC   NC321503  16.739  44.623   9.464
 1482POPC   PO421504  16.772  44.637   9.164
 1482POPC   GL121505  16.722  44.680   8.864
 1482POPC   GL221506  16.662  44.622   8.864
 1482POPC   C1A21507  16.708  44.651   8.564
 1482POPC   D2A21508  16.770  44.670   8.264
 1482POPC   C3A21509  16.706  44.656   7.964
 1482POPC   C4A21510  16.713  44.612   7.664
 1482POPC   C1B21511  16.476  44.606   8.564
 1482POPC   C2B21512  16.474  44.611   8.264
 1482POPC   C3B21513  16.482  44.566   7.964
 1482POPC   C4B21514  16.521  44.623   7.664
 1483POPC   NC321515  36.871  16.703   9.464
 1483POPC   PO421516  36.928  16.737   9.164
 1483POPC   GL121517  36.876  16.746   8.864
 1483POPC   GL221518  36.782  16.818   8.864
 1483POPC   C1A21519  36.858  16.719   8.564
 1483POPC   D2A21520  36.859  16.702   8.264
 1483POPC   C3A21521  36.894  16.724   7.964
 1483POPC   C4A21522  36.895  16.701   7.664
 1483POPC   C1B21523  36.761  16.943   8.564
 1483POPC   C2B21524  36.723  16.877   8.264
 1483POPC   C3B21525  36.726  16.954   7.964
 1483POPC   C4B21526  36.753  16.924   7.664
 1484POPC   NC321527  43.067  29.878   9.464
 1484POPC   PO421528  43.125  29.888   9.164
 1484POPC   GL121529  43.136  29.878   8.864
 1484POPC   GL221530  43.178  29.998   8.864
 1484POPC   C1A21531  43.080  29.925   8.564
 1484POPC   D2A21532  43.115  29.936   8.264
 1484POPC   C3A21533  43.114  29.949   7.964
 1484POPC   C4A21534  43.149  29.876   7.664
 1484POPC   C1B21535  43.177  30.194   8.564
 1484POPC   C2B21536  43.201  30.188   8.264
 1484POPC   C3B21537  43.212  30.148   7.964
 1484POPC   C4B21538  43.183  30.162   7.664
 1485POPC   NC321539  42.376  18.235   9.464
 1485POPC   PO421540  42.371  18.301   9.164
 1485POPC   GL121541  42.335  18.233   8.864
 1485POPC   GL221542  42.193  18.202   8.864
 1485POPC   C1A21543  42.379  18.291   8.564
 1485POPC   D2A21544  42.351  18.282   8.264
 1485POPC   C3A21545  42.346  18.261   7.964
 1485POPC   C4A21546  42.365  18.292   7.664
 1485POPC   C1B21547  42.112  18.164   8.564
 1485POPC   C2B21548  42.076  18.221   8.264
 1485POPC   C3B21549  42.110  18.133   7.964
 1485POPC   C4B21550  42.150  18.124   7.664
 1486POPC   NC321551   3.565  11.340   9.464
 1486POPC   PO421552   3.491  11.297   9.164
 1486POPC   GL121553   3.521  11.290   8.864
 1486POPC   GL221554   3.397  11.237   8.864
 1486POPC   C1A21555   3.492  11.284   8.564
 1486POPC   D2A21556   3.591  11.313   8.264
 1486POPC   C3A21557   3.550  11.291   7.964
 1486POPC   C4A21558   3.530  11.275   7.664
 1486POPC   C1B21559   3.262  11.290   8.564
 1486POPC   C2B21560   3.324  11.283   8.264
 1486POPC   C3B21561   3.270  11.240   7.964
 1486POPC   C4B21562   3.332  11.252   7.664
 1487POPC   NC321563  21.400  20.568   9.464
 1487POPC   PO421564  21.357  20.582   9.164
 1487POPC   GL121565  21.369  20.644   8.864
 1487POPC   GL221566  21.256  20.630   8.864
 1487POPC   C1A21567  21.395  20.640   8.564
 1487POPC   D2A21568  21.429  20.580   8.264
 1487POPC   C3A21569  21.341  20.586   7.964
 1487POPC   C4A21570  21.400  20.580   7.664
 1487POPC   C1B21571  21.174  20.707   8.564
 1487POPC   C2B21572  21.111  20.676   8.264
 1487POPC   C3B21573  21.176  20.677   7.964
 1487POPC   C4B21574  21.152  20.738   7.664
 1488POPC   NC321575  11.267   5.861   9.464
 1488POPC   PO421576  11.346   5.846   9.164
 1488POPC   GL121577  11.317   5.863   8.864
 1488POPC   GL221578  11.256   5.978   8.864
 1488POPC   C1A21579  11.340   5.899   8.564
 1488POPC   D2A21580  11.302   5.835   8.264
 1488POPC   C3A21581  11.340   5.880   7.964
 1488POPC   C4A21582  11.328   5.868   7.664
 1488POPC   C1B21583  11.290   6.076   8.564
 1488POPC   C2B21584  11.308   6.168   8.264
 1488POPC   C3B21585  11.245   6.130   7.964
 1488POPC   C4B21586  11.295   6.114   7.664
 1489POPC   NC321587   8.168  20.659   9.464
 1489POPC   PO421588   8.179  20.571   9.164
 1489POPC   GL121589   8.159  20.561   8.864
 1489POPC   GL221590   8.264  20.536   8.864
 1489POPC   C1A21591   8.160  20.573   8.564
 1489POPC   D2A21592   8.184  20.592   8.264
 1489POPC   C3A21593   8.202  20.644   7.964
 1489POPC   C4A21594   8.184  20.597   7.664
 1489POPC   C1B21595   8.343  20.341   8.564
 1489POPC   C2B21596   8.315  20.431   8.264
 1489POPC   C3B21597   8.291  20.401   7.964
 1489POPC   C4B21598   8.257  20.423   7.664
 1490POPC   NC321599  41.530  43.131   9.464
 1490POPC   PO421600  41.514  43.105   9.164
 1490POPC   GL121601  41.570  43.143   8.864
 1490POPC   GL221602  41.463  43.263   8.864
 1490POPC   C1A21603  41.555  43.146   8.564
 1490POPC   D2A21604  41.561  43.098   8.264
 1490POPC   C3A21605  41.561  43.091   7.964
 1490POPC   C4A21606  41.526  43.150   7.664
 1490POPC   C1B21607  41.432  43.336   8.564
 1490POPC   C2B21608  41.450  43.326   8.264
 1490POPC   C3B21609  41.456  43.293   7.964
 1490POPC   C4B21610  41.435  43.291   7.664
 1491POPC   NC321611  21.345  23.743   9.464
 1491POPC   PO421612  21.367  23.753   9.164
 1491POPC   GL121613  21.351  23.705   8.864
 1491POPC   GL221614  21.418  23.834   8.864
 1491POPC   C1A21615  21.354  23.736   8.564
 1491POPC   D2A21616  21.344  23.695   8.264
 1491POPC   C3A21617  21.426  23.759   7.964
 1491POPC   C4A21618  21.434  23.716   7.664
 1491POPC   C1B21619  21.399  23.937   8.564
 1491POPC   C2B21620  21.412  23.967   8.264
 1491POPC   C3B21621  21.424  23.958   7.964
 1491POPC   C4B21622  21.431  23.927   7.664
 1492POPC   NC321623  21.402  10.521   9.464
 1492POPC   PO421624  21.343  10.505   9.164
 1492POPC   GL121625  21.338  10.551   8.864
 1492POPC   GL221626  21.304  10.427   8.864
 1492POPC   C1A21627  21.417  10.497   8.564
 1492POPC   D2A21628  21.436  10.558   8.264
 1492POPC   C3A21629  21.398  10.511   7.964
 1492POPC   C4A21630  21.411  10.561   7.664
 1492POPC   C1B21631  21.291  10.286   8.564
 1492POPC   C2B21632  21.306  10.315   8.264
 1492POPC   C3B21633  21.328  10.293   7.964
 1492POPC   C4B21634  21.305  10.288   7.664
 1493POPC   NC321635  39.967   1.172   9.464
 1493POPC   PO421636  40.046   1.203   9.164
 1493POPC   GL121637  40.040   1.186   8.864
 1493POPC   GL221638  40.037   1.384   8.864
 1493POPC   C1A21639  40.034   1.236   8.564
 1493POPC   D2A21640  40.029   1.258   8.264
 1493POPC   C3A21641  40.027   1.231   7.964
 1493POPC   C4A21642  39.959   1.201   7.664
 1493POPC   C1B21643  40.010   1.507   8.564
 1493POPC   C2B21644  39.977   1.433   8.264
 1493POPC   C3B21645  39.959   1.429   7.964
 1493POPC   C4B21646  39.985   1.475   7.664
 1494POPC   NC321647  36.911  37.668   9.464
 1494POPC   PO421648  36.946  37.704   9.164
 1494POPC   GL121649  36.929  37.663   8.864
 1494POPC   GL221650  36.896  37.571   8.864
 1494POPC   C1A21651  36.928  37.648   8.564
 1494POPC   D2A21652  36.884  37.699   8.264
 1494POPC   C3A21653  36.920  37.650   7.964
 1494POPC   C4A21654  36.876  37.646   7.664
 1494POPC   C1B21655  36.916  37.437   8.564
 1494POPC   C2B21656  36.921  37.477   8.264
 1494POPC   C3B21657  36.962  37.402   7.964
 1494POPC   C4B21658  36.928  37.430   7.664
 1495POPC   NC321659  32.268  11.291   9.464
 1495POPC   PO421660  32.283  11.335   9.164
 1495POPC   GL121661  32.242  11.344   8.864
 1495POPC   GL221662  32.319  11.169   8.864
 1495POPC   C1A21663  32.288  11.250   8.564
 1495POPC   D2A21664  32.247  11.312   8.264
 1495POPC   C3A21665  32.234  11.273   7.964
 1495POPC   C4A21666  32.244  11.270   7.664
 1495POPC   C1B21667  32.289  11.092   8.564
 1495POPC   C2B21668  32.339  11.082   8.264
 1495POPC   C3B21669  32.365  11.100   7.964
 1495POPC   C4B21670  32.328  11.063   7.664
 1496POPC   NC321671  22.208   8.198   9.464
 1496POPC   PO421672  22.203   8.235   9.164
 1496POPC   GL121673  22.176   8.178   8.864
 1496POPC   GL221674  22.024   8.121   8.864
 1496POPC   C1A21675  22.197   8.154   8.564
 1496POPC   D2A21676  22.129   8.246   8.264
 1496POPC   C3A21677  22.156   8.239   7.964
 1496POPC   C4A21678  22.128   8.243   7.664
 1496POPC   C1B21679  21.892   8.043   8.564
 1496POPC   C2B21680  21.930   8.110   8.264
 1496POPC   C3B21681  21.973   8.077   7.964
 1496POPC   C4B21682  21.960   8.133   7.664
 1497POPC   NC321683   0.455  16.776   9.464
 1497POPC   PO421684   0.464  16.703   9.164
 1497POPC   GL121685   0.426  16.756   8.864
 1497POPC   GL221686   0.595  16.749   8.864
 1497POPC   C1A21687   0.484  16.696   8.564
 1497POPC   D2A21688   0.479  16.753   8.264
 1497POPC   C3A21689   0.434  16.754   7.964
 1497POPC   C4A21690   0.443  16.713   7.664
 1497POPC   C1B21691   0.726  16.674   8.564
 1497POPC   C2B21692   0.735  16.732   8.264
 1497POPC   C3B21693   0.683  16.663   7.964
 1497POPC   C4B21694   0.723  16.732   7.664
 1498POPC   NC321695  42.305  22.943   9.464
 1498POPC   PO421696  42.304  22.909   9.164
 1498POPC   GL121697  42.285  22.959   8.864
 1498POPC   GL221698  42.279  23.056   8.864
 1498POPC   C1A21699  42.321  22.917   8.564
 1498POPC   D2A21700  42.316  22.937   8.264
 1498POPC   C3A21701  42.311  22.941   7.964
 1498POPC   C4A21702  42.332  22.962   7.664
 1498POPC   C1B21703  42.181  23.087   8.564
 1498POPC   C2B21704  42.140  23.070   8.264
 1498POPC   C3B21705  42.126  23.130   7.964
 1498POPC   C4B21706  42.116  23.072   7.664
 1499POPC   NC321707  15.223  39.218   9.464
 1499POPC   PO421708  15.221  39.252   9.164
 1499POPC   GL121709  15.188  39.195   8.864
 1499POPC   GL221710  15.266  39.166   8.864
 1499POPC   C1A21711  15.209  39.262   8.564
 1499POPC   D2A21712  15.159  39.251   8.264
 1499POPC   C3A21713  15.192  39.249   7.964
 1499POPC   C4A21714  15.141  39.191   7.664
 1499POPC   C1B21715  15.265  39.035   8.564
 1499POPC   C2B21716  15.336  38.975   8.264
 1499POPC   C3B21717  15.303  39.057   7.964
 1499POPC   C4B21718  15.329  39.033   7.664
 1500POPC   NC321719  43.915  43.075   9.464
 1500POPC   PO421720  43.932  43.132   9.164
 1500POPC   GL121721  43.916  43.158   8.864
 1500POPC   GL221722  43.781  43.052   8.864
 1500POPC   C1A21723  43.863  43.069   8.564
 1500POPC   D2A21724  43.877  43.139   8.264
 1500POPC   C3A21725  43.883  43.090   7.964
 1500POPC   C4A21726  43.936  43.084   7.664
 1500POPC   C1B21727  43.650  42.980   8.564
 1500POPC   C2B21728  43.614  42.994   8.264
 1500POPC   C3B21729  43.632  43.045   7.964
 1500POPC   C4B21730  43.677  43.030   7.664
 1501POPC   NC321731   4.305   1.185   9.464
 1501POPC   PO421732   4.358   1.182   9.164
 1501POPC   GL121733   4.346   1.185   8.864
 1501POPC   GL221734   4.183   1.219   8.864
 1501POPC   C1A21735   4.328   1.226   8.564
 1501POPC   D2A21736   4.320   1.189   8.264
 1501POPC   C3A21737   4.276   1.243   7.964
 1501POPC   C4A21738   4.309   1.259   7.664
 1501POPC   C1B21739   4.078   1.171   8.564
 1501POPC   C2B21740   4.069   1.113   8.264
 1501POPC   C3B21741   4.059   1.150   7.964
 1501POPC   C4B21742   4.044   1.152   7.664
 1502POPC   NC321743  14.420  24.506   9.464
 1502POPC   PO421744  14.434  24.454   9.164
 1502POPC   GL121745  14.413  24.464   8.864
 1502POPC   GL221746  14.334  24.464   8.864
 1502POPC   C1A21747  14.369  24.526   8.564
 1502POPC   D2A21748  14.432  24.456   8.264
 1502POPC   C3A21749  14.444  24.503   7.964
 1502POPC   C4A21750  14.403  24.522   7.664
 1502POPC   C1B21751  14.175  24.389   8.564
 1502POPC   C2B21752  14.241  24.388   8.264
 1502POPC   C3B21753  14.218  24.385   7.964
 1502POPC   C4B21754  14.158  24.390   7.664
 1503POPC   NC321755  18.317  29.165   9.464
 1503POPC   PO421756  18.277  29.169   9.164
 1503POPC   GL121757  18.258  29.194   8.864
 1503POPC   GL221758  18.376  29.217   8.864
 1503POPC   C1A21759  18.266  29.117   8.564
 1503POPC   D2A21760  18.250  29.158   8.264
 1503POPC   C3A21761  18.269  29.181   7.964
 1503POPC   C4A21762  18.330  29.134   7.664
 1503POPC   C1B21763  18.501  29.212   8.564
 1503POPC   C2B21764  18.482  29.180   8.264
 1503POPC   C3B21765  18.548  29.225   7.964
 1503POPC   C4B21766  18.490  29.252   7.664
 1504POPC   NC321767  15.994   3.496   9.464
 1504POPC   PO421768  15.958   3.569   9.164
 1504POPC   GL121769  15.911   3.547   8.864
 1504POPC   GL221770  16.103   3.563   8.864
 1504POPC   C1A21771  15.913   3.523   8.564
 1504POPC   D2A21772  15.925   3.533   8.264
 1504POPC   C3A21773  15.982   3.524   7.964
 1504POPC   C4A21774  15.942   3.554   7.664
 1504POPC   C1B21775  16.152   3.594   8.564
 1504POPC   C2B21776  16.152   3.599   8.264
 1504POPC   C3B21777  16.163   3.594   7.964
 1504POPC   C4B21778  16.186   3.669   7.664
 1505POPC   NC321779  22.974  37.668   9.464
 1505POPC   PO421780  22.922  37.664   9.164
 1505POPC   GL121781  22.960  37.644   8.864
 1505POPC   GL221782  22.952  37.524   8.864
 1505POPC   C1A21783  22.964  37.681   8.564
 1505POPC   D2A21784  22.974  37.656   8.264
 1505POPC   C3A21785  22.922  37.633   7.964
 1505POPC   C4A21786  22.956  37.689   7.664
 1505POPC   C1B21787  22.984  37.386   8.564
 1505POPC   C2B21788  22.974  37.468   8.264
 1505POPC   C3B21789  22.993  37.410   7.964
 1505POPC   C4B21790  22.936  37.397   7.664
 1506POPC   NC321791  39.194  27.616   9.464
 1506POPC   PO421792  39.194  27.581   9.164
 1506POPC   GL121793  39.261  27.637   8.864
 1506POPC   GL221794  39.390  27.565   8.864
 1506POPC   C1A21795  39.280  27.600   8.564
 1506POPC   D2A21796  39.268  27.585   8.264
 1506POPC   C3A21797  39.270  27.606   7.964
 1506POPC   C4A21798  39.231  27.611   7.664
 1506POPC   C1B21799  39.455  27.500   8.564
 1506POPC   C2B21800  39.466  27.536   8.264
 1506POPC   C3B21801  39.505  27.533   7.964
 1506POPC   C4B21802  39.496  27.549   7.664
 1507POPC   NC321803   9.797  24.488   9.464
 1507POPC   PO421804   9.739  24.538   9.164
 1507POPC   GL121805   9.755  24.489   8.864
 1507POPC   GL221806   9.615  24.456   8.864
 1507POPC   C1A21807   9.764  24.525   8.564
 1507POPC   D2A21808   9.725  24.507   8.264
 1507POPC   C3A21809   9.771  24.479   7.964
 1507POPC   C4A21810   9.758  24.524   7.664
 1507POPC   C1B21811   9.568  24.383   8.564
 1507POPC   C2B21812   9.493  24.364   8.264
 1507POPC   C3B21813   9.512  24.355   7.964
 1507POPC   C4B21814   9.505  24.384   7.664
 1508POPC   NC321815  43.076  33.779   9.464
 1508POPC   PO421816  43.143  33.756   9.164
 1508POPC   GL121817  43.096  33.825   8.864
 1508POPC   GL221818  43.162  33.690   8.864
 1508POPC   C1A21819  43.078  33.832   8.564
 1508POPC   D2A21820  43.075  33.804   8.264
 1508POPC   C3A21821  43.086  33.829   7.964
 1508POPC   C4A21822  43.143  33.772   7.664
 1508POPC   C1B21823  43.261  33.588   8.564
 1508POPC   C2B21824  43.240  33.631   8.264
 1508POPC   C3B21825  43.276  33.616   7.964
 1508POPC   C4B21826  43.278  33.585   7.664
 1509POPC   NC321827  36.165  24.440   9.464
 1509POPC   PO421828  36.090  24.482   9.164
 1509POPC   GL121829  36.088  24.538   8.864
 1509POPC   GL221830  36.076  24.378   8.864
 1509POPC   C1A21831  36.123  24.526   8.564
 1509POPC   D2A21832  36.093  24.477   8.264
 1509POPC   C3A21833  36.140  24.502   7.964
 1509POPC   C4A21834  36.144  24.473   7.664
 1509POPC   C1B21835  35.930  24.283   8.564
 1509POPC   C2B21836  35.983  24.345   8.264
 1509POPC   C3B21837  35.916  24.319   7.964
 1509POPC   C4B21838  35.989  24.332   7.664
 1510POPC   NC321839  14.358  26.073   9.464
 1510POPC   PO421840  14.360  26.082   9.164
 1510POPC   GL121841  14.390  26.060   8.864
 1510POPC   GL221842  14.539  26.063   8.864
 1510POPC   C1A21843  14.388  26.025   8.564
 1510POPC   D2A21844  14.446  26.054   8.264
 1510POPC   C3A21845  14.453  26.062   7.964
 1510POPC   C4A21846  14.451  26.025   7.664
 1510POPC   C1B21847  14.632  26.032   8.564
 1510POPC   C2B21848  14.617  26.034   8.264
 1510POPC   C3B21849  14.678  26.008   7.964
 1510POPC   C4B21850  14.693  25.949   7.664
 1511POPC   NC321851  40.818   4.340   9.464
 1511POPC   PO421852  40.820   4.332   9.164
 1511POPC   GL121853  40.830   4.361   8.864
 1511POPC   GL221854  40.785   4.160   8.864
 1511POPC   C1A21855  40.736   4.276   8.564
 1511POPC   D2A21856  40.770   4.358   8.264
 1511POPC   C3A21857  40.777   4.311   7.964
 1511POPC   C4A21858  40.795   4.345   7.664
 1511POPC   C1B21859  40.837   4.107   8.564
 1511POPC   C2B21860  40.849   4.053   8.264
 1511POPC   C3B21861  40.914   4.111   7.964
 1511POPC   C4B21862  40.875   4.075   7.664
 1512POPC   NC321863   5.121  31.443   9.464
 1512POPC   PO421864   5.077  31.485   9.164
 1512POPC   GL121865   5.118  31.423   8.864
 1512POPC   GL221866   5.261  31.491   8.864
 1512POPC   C1A21867   5.117  31.452   8.564
 1512POPC   D2A21868   5.134  31.485   8.264
 1512POPC   C3A21869   5.099  31.517   7.964
 1512POPC   C4A21870   5.126  31.429   7.664
 1512POPC   C1B21871   5.296  31.485   8.564
 1512POPC   C2B21872   5.337  31.531   8.264
 1512POPC   C3B21873   5.388  31.491   7.964
 1512POPC   C4B21874   5.343  31.526   7.664
 1513POPC   NC321875  16.697  39.207   9.464
 1513POPC   PO421876  16.728  39.255   9.164
 1513POPC   GL121877  16.775  39.262   8.864
 1513POPC   GL221878  16.859  39.161   8.864
 1513POPC   C1A21879  16.697  39.216   8.564
 1513POPC   D2A21880  16.686  39.263   8.264
 1513POPC   C3A21881  16.706  39.231   7.964
 1513POPC   C4A21882  16.683  39.232   7.664
 1513POPC   C1B21883  16.967  39.177   8.564
 1513POPC   C2B21884  16.982  39.135   8.264
 1513POPC   C3B21885  16.985  39.124   7.964
 1513POPC   C4B21886  16.975  39.115   7.664
 1514POPC   NC321887   7.403  16.767   9.464
 1514POPC   PO421888   7.449  16.751   9.164
 1514POPC   GL121889   7.419  16.717   8.864
 1514POPC   GL221890   7.436  16.807   8.864
 1514POPC   C1A21891   7.452  16.694   8.564
 1514POPC   D2A21892   7.395  16.695   8.264
 1514POPC   C3A21893   7.376  16.775   7.964
 1514POPC   C4A21894   7.384  16.721   7.664
 1514POPC   C1B21895   7.425  17.005   8.564
 1514POPC   C2B21896   7.454  16.936   8.264
 1514POPC   C3B21897   7.439  16.929   7.964
 1514POPC   C4B21898   7.464  16.960   7.664
 1515POPC   NC321899  19.846  30.663   9.464
 1515POPC   PO421900  19.821  30.721   9.164
 1515POPC   GL121901  19.797  30.707   8.864
 1515POPC   GL221902  19.916  30.751   8.864
 1515POPC   C1A21903  19.830  30.728   8.564
 1515POPC   D2A21904  19.786  30.737   8.264
 1515POPC   C3A21905  19.795  30.695   7.964
 1515POPC   C4A21906  19.812  30.720   7.664
 1515POPC   C1B21907  19.963  30.891   8.564
 1515POPC   C2B21908  20.051  30.879   8.264
 1515POPC   C3B21909  20.032  30.886   7.964
 1515POPC   C4B21910  19.980  30.871   7.664
 1516POPC   NC321911  36.125   8.191   9.464
 1516POPC   PO421912  36.105   8.229   9.164
 1516POPC   GL121913  36.136   8.225   8.864
 1516POPC   GL221914  36.074   8.102   8.864
 1516POPC   C1A21915  36.126   8.151   8.564
 1516POPC   D2A21916  36.082   8.231   8.264
 1516POPC   C3A21917  36.133   8.190   7.964
 1516POPC   C4A21918  36.135   8.243   7.664
 1516POPC   C1B21919  36.140   7.921   8.564
 1516POPC   C2B21920  36.070   7.983   8.264
 1516POPC   C3B21921  36.132   7.905   7.964
 1516POPC   C4B21922  36.108   7.950   7.664
 1517POPC   NC321923  39.185  22.984   9.464
 1517POPC   PO421924  39.250  22.899   9.164
 1517POPC   GL121925  39.261  22.919   8.864
 1517POPC   GL221926  39.308  22.873   8.864
 1517POPC   C1A21927  39.186  22.938   8.564
 1517POPC   D2A21928  39.216  22.935   8.264
 1517POPC   C3A21929  39.266  22.911   7.964
 1517POPC   C4A21930  39.243  22.936   7.664
 1517POPC   C1B21931  39.353  22.683   8.564
 1517POPC   C2B21932  39.310  22.750   8.264
 1517POPC   C3B21933  39.376  22.675   7.964
 1517POPC   C4B21934  39.315  22.752   7.664
 1518POPC   NC321935  19.096  22.917   9.464
 1518POPC   PO421936  19.081  22.958   9.164
 1518POPC   GL121937  19.014  22.969   8.864
 1518POPC   GL221938  19.090  23.087   8.864
 1518POPC   C1A21939  19.082  22.922   8.564
 1518POPC   D2A21940  19.010  22.946   8.264
 1518POPC   C3A21941  19.041  22.978   7.964
 1518POPC   C4A21942  19.105  22.964   7.664
 1518POPC   C1B21943  19.098  23.165   8.564
 1518POPC   C2B21944  19.076  23.198   8.264
 1518POPC   C3B21945  19.112  23.219   7.964
 1518POPC   C4B21946  19.140  23.214   7.664
 1519POPC   NC321947  40.823   1.205   9.464
 1519POPC   PO421948  40.790   1.166   9.164
 1519POPC   GL121949  40.777   1.199   8.864
 1519POPC   GL221950  40.843   1.370   8.864
 1519POPC   C1A21951  40.748   1.259   8.564
 1519POPC   D2A21952  40.817   1.206   8.264
 1519POPC   C3A21953  40.824   1.227   7.964
 1519POPC   C4A21954  40.782   1.210   7.664
 1519POPC   C1B21955  40.883   1.462   8.564
 1519POPC   C2B21956  40.926   1.476   8.264
 1519POPC   C3B21957  40.925   1.447   7.964
 1519POPC   C4B21958  40.881   1.406   7.664
 1520POPC   NC321959  31.430  43.062   9.464
 1520POPC   PO421960  31.518  43.133   9.164
 1520POPC   GL121961  31.494  43.156   8.864
 1520POPC   GL221962  31.551  43.235   8.864
 1520POPC   C1A21963  31.432  43.079   8.564
 1520POPC   D2A21964  31.489  43.066   8.264
 1520POPC   C3A21965  31.423  43.086   7.964
 1520POPC   C4A21966  31.485  43.076   7.664
 1520POPC   C1B21967  31.578  43.341   8.564
 1520POPC   C2B21968  31.588  43.296   8.264
 1520POPC   C3B21969  31.651  43.274   7.964
 1520POPC   C4B21970  31.626  43.315   7.664
 1521POPC   NC321971  11.279  29.948   9.464
 1521POPC   PO421972  11.320  29.922   9.164
 1521POPC   GL121973  11.252  29.901   8.864
 1521POPC   GL221974  11.361  29.768   8.864
 1521POPC   C1A21975  11.254  29.969   8.564
 1521POPC   D2A21976  11.292  29.877   8.264
 1521POPC   C3A21977  11.307  29.949   7.964
 1521POPC   C4A21978  11.302  29.873   7.664
 1521POPC   C1B21979  11.421  29.669   8.564
 1521POPC   C2B21980  11.393  29.673   8.264
 1521POPC   C3B21981  11.369  29.643   7.964
 1521POPC   C4B21982  11.366  29.714   7.664
 1522POPC   NC321983  24.483  24.455   9.464
 1522POPC   PO421984  24.523  24.497   9.164
 1522POPC   GL121985  24.503  24.477   8.864
 1522POPC   GL221986  24.626  24.413   8.864
 1522POPC   C1A21987  24.522  24.529   8.564
 1522POPC   D2A21988  24.486  24.538   8.264
 1522POPC   C3A21989  24.539  24.501   7.964
 1522POPC   C4A21990  24.453  24.453   7.664
 1522POPC   C1B21991  24.693  24.444   8.564
 1522POPC   C2B21992  24.675  24.389   8.264
 1522POPC   C3B21993  24.725  24.355   7.964
 1522POPC   C4B21994  24.729  24.423   7.664
 1523POPC   NC321995  26.856  25.217   9.464
 1523POPC   PO421996  26.833  25.258   9.164
 1523POPC   GL121997  26.810  25.298   8.864
 1523POPC   GL221998  26.691  25.127   8.864
 1523POPC   C1A21999  26.799  25.269   8.564
 1523POPC   D2A22000  26.833  25.298   8.264
 1523POPC   C3A22001  26.788  25.230   7.964
 1523POPC   C4A22002  26.772  25.307   7.664
 1523POPC   C1B22003  26.631  25.066   8.564
 1523POPC   C2B22004  26.621  25.057   8.264
 1523POPC   C3B22005  26.683  25.105   7.964
 1523POPC   C4B22006  26.636  25.098   7.664
 1524POPC   NC322007  33.830  44.613   9.464
 1524POPC   PO422008  33.835  44.666   9.164
 1524POPC   GL122009  33.813  44.658   8.864
 1524POPC   GL222010  33.743  44.748   8.864
 1524POPC   C1A22011  33.755  44.658   8.564
 1524POPC   D2A22012  33.755  44.645   8.264
 1524POPC   C3A22013  33.751  44.621   7.964
 1524POPC   C4A22014  33.843  44.651   7.664
 1524POPC   C1B22015  33.778  44.877   8.564
 1524POPC   C2B22016  33.757  44.933   8.264
 1524POPC   C3B22017  33.761  44.918   7.964
 1524POPC   C4B22018  33.755  44.915   7.664
 1525POPC   NC322019   8.934   5.088   9.464
 1525POPC   PO422020   8.975   5.063   9.164
 1525POPC   GL122021   8.924   5.055   8.864
 1525POPC   GL222022   9.033   4.933   8.864
 1525POPC   C1A22023   8.927   5.077   8.564
 1525POPC   D2A22024   8.949   5.104   8.264
 1525POPC   C3A22025   8.938   5.096   7.964
 1525POPC   C4A22026   8.942   5.068   7.664
 1525POPC   C1B22027   9.079   4.823   8.564
 1525POPC   C2B22028   9.007   4.891   8.264
 1525POPC   C3B22029   9.072   4.869   7.964
 1525POPC   C4B22030   9.098   4.816   7.664
 1526POPC   NC322031  31.492  32.200   9.464
 1526POPC   PO422032  31.499  32.243   9.164
 1526POPC   GL122033  31.508  32.237   8.864
 1526POPC   GL222034  31.593  32.300   8.864
 1526POPC   C1A22035  31.460  32.253   8.564
 1526POPC   D2A22036  31.467  32.225   8.264
 1526POPC   C3A22037  31.475  32.220   7.964
 1526POPC   C4A22038  31.477  32.285   7.664
 1526POPC   C1B22039  31.685  32.273   8.564
 1526POPC   C2B22040  31.675  32.317   8.264
 1526POPC   C3B22041  31.678  32.362   7.964
 1526POPC   C4B22042  31.714  32.317   7.664
 1527POPC   NC322043  40.049   3.514   9.464
 1527POPC   PO422044  39.964   3.560   9.164
 1527POPC   GL122045  39.992   3.580   8.864
 1527POPC   GL222046  39.876   3.470   8.864
 1527POPC   C1A22047  39.971   3.537   8.564
 1527POPC   D2A22048  40.020   3.503   8.264
 1527POPC   C3A22049  40.039   3.548   7.964
 1527POPC   C4A22050  39.979   3.526   7.664
 1527POPC   C1B22051  39.815   3.437   8.564
 1527POPC   C2B22052  39.819   3.448   8.264
 1527POPC   C3B22053  39.737   3.402   7.964
 1527POPC   C4B22054  39.748   3.431   7.664
 1528POPC   NC322055  33.062  11.251   9.464
 1528POPC   PO422056  33.000  11.310   9.164
 1528POPC   GL122057  32.998  11.268   8.864
 1528POPC   GL222058  33.166  11.270   8.864
 1528POPC   C1A22059  33.059  11.331   8.564
 1528POPC   D2A22060  33.056  11.332   8.264
 1528POPC   C3A22061  32.995  11.336   7.964
 1528POPC   C4A22062  33.046  11.303   7.664
 1528POPC   C1B22063  33.320  11.275   8.564
 1528POPC   C2B22064  33.311  11.295   8.264
 1528POPC   C3B22065  33.243  11.310   7.964
 1528POPC   C4B22066  33.258  11.241   7.664
 1529POPC   NC322067  11.293   3.577   9.464
 1529POPC   PO422068  11.269   3.570   9.164
 1529POPC   GL122069  11.280   3.501   8.864
 1529POPC   GL222070  11.241   3.402   8.864
 1529POPC   C1A22071  11.308   3.511   8.564
 1529POPC   D2A22072  11.316   3.543   8.264
 1529POPC   C3A22073  11.311   3.506   7.964
 1529POPC   C4A22074  11.289   3.545   7.664
 1529POPC   C1B22075  11.237   3.295   8.564
 1529POPC   C2B22076  11.265   3.267   8.264
 1529POPC   C3B22077  11.270   3.344   7.964
 1529POPC   C4B22078  11.185   3.341   7.664
 1530POPC   NC322079  21.431  15.905   9.464
 1530POPC   PO422080  21.375  15.967   9.164
 1530POPC   GL122081  21.428  16.000   8.864
 1530POPC   GL222082  21.331  16.084   8.864
 1530POPC   C1A22083  21.373  15.980   8.564
 1530POPC   D2A22084  21.348  15.933   8.264
 1530POPC   C3A22085  21.410  15.986   7.964
 1530POPC   C4A22086  21.378  15.940   7.664
 1530POPC   C1B22087  21.236  16.144   8.564
 1530POPC   C2B22088  21.217  16.126   8.264
 1530POPC   C3B22089  21.217  16.162   7.964
 1530POPC   C4B22090  21.237  16.076   7.664
 1531POPC   NC322091  30.664   6.661   9.464
 1531POPC   PO422092  30.685   6.597   9.164
 1531POPC   GL122093  30.725   6.694   8.864
 1531POPC   GL222094  30.773   6.516   8.864
 1531POPC   C1A22095  30.657   6.666   8.564
 1531POPC   D2A22096  30.725   6.692   8.264
 1531POPC   C3A22097  30.654   6.666   7.964
 1531POPC   C4A22098  30.719   6.637   7.664
 1531POPC   C1B22099  30.884   6.502   8.564
 1531POPC   C2B22100  30.822   6.424   8.264
 1531POPC   C3B22101  30.876   6.413   7.964
 1531POPC   C4B22102  30.833   6.503   7.664
 1532POPC   NC322103  15.948  16.708   9.464
 1532POPC   PO422104  15.976  16.705   9.164
 1532POPC   GL122105  15.934  16.742   8.864
 1532POPC   GL222106  16.022  16.791   8.864
 1532POPC   C1A22107  15.918  16.728   8.564
 1532POPC   D2A22108  15.921  16.758   8.264
 1532POPC   C3A22109  15.961  16.764   7.964
 1532POPC   C4A22110  15.967  16.710   7.664
 1532POPC   C1B22111  16.128  16.865   8.564
 1532POPC   C2B22112  16.157  16.867   8.264
 1532POPC   C3B22113  16.137  16.945   7.964
 1532POPC   C4B22114  16.129  16.893   7.664
 1533POPC   NC322115  13.608  33.802   9.464
 1533POPC   PO422116  13.607  33.848   9.164
 1533POPC   GL122117  13.610  33.837   8.864
 1533POPC   GL222118  13.469  33.779   8.864
 1533POPC   C1A22119  13.669  33.824   8.564
 1533POPC   D2A22120  13.646  33.834   8.264
 1533POPC   C3A22121  13.626  33.821   7.964
 1533POPC   C4A22122  13.600  33.824   7.664
 1533POPC   C1B22123  13.388  33.725   8.564
 1533POPC   C2B22124  13.445  33.679   8.264
 1533POPC   C3B22125  13.402  33.702   7.964
 1533POPC   C4B22126  13.436  33.673   7.664
 1534POPC   NC322127  15.218   2.022   9.464
 1534POPC   PO422128  15.218   1.996   9.164
 1534POPC   GL122129  15.151   1.997   8.864
 1534POPC   GL222130  15.047   2.091   8.864
 1534POPC   C1A22131  15.161   1.949   8.564
 1534POPC   D2A22132  15.187   1.996   8.264
 1534POPC   C3A22133  15.135   1.979   7.964
 1534POPC   C4A22134  15.155   2.022   7.664
 1534POPC   C1B22135  14.970   2.128   8.564
 1534POPC   C2B22136  14.976   2.108   8.264
 1534POPC   C3B22137  14.921   2.097   7.964
 1534POPC   C4B22138  14.918   2.072   7.664
 1535POPC   NC322139  39.196  42.332   9.464
 1535POPC   PO422140  39.249  42.299   9.164
 1535POPC   GL122141  39.200  42.371   8.864
 1535POPC   GL222142  39.278  42.410   8.864
 1535POPC   C1A22143  39.246  42.300   8.564
 1535POPC   D2A22144  39.196  42.349   8.264
 1535POPC   C3A22145  39.222  42.332   7.964
 1535POPC   C4A22146  39.235  42.299   7.664
 1535POPC   C1B22147  39.365  42.603   8.564
 1535POPC   C2B22148  39.371  42.539   8.264
 1535POPC   C3B22149  39.368  42.524   7.964
 1535POPC   C4B22150  39.365  42.524   7.664
 1536POPC   NC322151  12.815  33.060   9.464
 1536POPC   PO422152  12.847  33.013   9.164
 1536POPC   GL122153  12.824  33.005   8.864
 1536POPC   GL222154  12.893  33.192   8.864
 1536POPC   C1A22155  12.853  33.060   8.564
 1536POPC   D2A22156  12.889  32.978   8.264
 1536POPC   C3A22157  12.853  32.998   7.964
 1536POPC   C4A22158  12.802  33.044   7.664
 1536POPC   C1B22159  12.838  33.242   8.564
 1536POPC   C2B22160  12.794  33.303   8.264
 1536POPC   C3B22161  12.836  33.264   7.964
 1536POPC   C4B22162  12.877  33.311   7.664
 1537POPC   NC322163  21.394  32.257   9.464
 1537POPC   PO422164  21.435  32.263   9.164
 1537POPC   GL122165  21.389  32.208   8.864
 1537POPC   GL222166  21.403  32.360   8.864
 1537POPC   C1A22167  21.338  32.293   8.564
 1537POPC   D2A22168  21.395  32.297   8.264
 1537POPC   C3A22169  21.381  32.219   7.964
 1537POPC   C4A22170  21.343  32.282   7.664
 1537POPC   C1B22171  21.463  32.452   8.564
 1537POPC   C2B22172  21.538  32.506   8.264
 1537POPC   C3B22173  21.481  32.485   7.964
 1537POPC   C4B22174  21.548  32.494   7.664
 1538POPC   NC322175  27.601  27.628   9.464
 1538POPC   PO422176  27.601  27.615   9.164
 1538POPC   GL122177  27.546  27.609   8.864
 1538POPC   GL222178  27.653  27.645   8.864
 1538POPC   C1A22179  27.552  27.545   8.564
 1538POPC   D2A22180  27.628  27.553   8.264
 1538POPC   C3A22181  27.595  27.589   7.964
 1538POPC   C4A22182  27.576  27.571   7.664
 1538POPC   C1B22183  27.786  27.782   8.564
 1538POPC   C2B22184  27.789  27.760   8.264
 1538POPC   C3B22185  27.739  27.755   7.964
 1538POPC   C4B22186  27.749  27.757   7.664
 1539POPC   NC322187  29.899  29.966   9.464
 1539POPC   PO422188  29.908  29.952   9.164
 1539POPC   GL122189  29.879  29.938   8.864
 1539POPC   GL222190  29.856  29.990   8.864
 1539POPC   C1A22191  29.886  29.968   8.564
 1539POPC   D2A22192  29.923  29.919   8.264
 1539POPC   C3A22193  29.921  29.926   7.964
 1539POPC   C4A22194  29.920  29.930   7.664
 1539POPC   C1B22195  29.763  30.086   8.564
 1539POPC   C2B22196  29.750  30.152   8.264
 1539POPC   C3B22197  29.767  30.133   7.964
 1539POPC   C4B22198  29.780  30.148   7.664
 1540POPC   NC322199   8.980  41.559   9.464
 1540POPC   PO422200   8.956  41.594   9.164
 1540POPC   GL122201   8.956  41.544   8.864
 1540POPC   GL222202   8.890  41.527   8.864
 1540POPC   C1A22203   9.001  41.531   8.564
 1540POPC   D2A22204   8.972  41.549   8.264
 1540POPC   C3A22205   8.989  41.571   7.964
 1540POPC   C4A22206   8.926  41.559   7.664
 1540POPC   C1B22207   8.724  41.359   8.564
 1540POPC   C2B22208   8.767  41.378   8.264
 1540POPC   C3B22209   8.729  41.404   7.964
 1540POPC   C4B22210   8.820  41.403   7.664
 1541POPC   NC322211  19.088  32.245   9.464
 1541POPC   PO422212  19.023  32.234   9.164
 1541POPC   GL122213  19.055  32.230   8.864
 1541POPC   GL222214  18.923  32.243   8.864
 1541POPC   C1A22215  19.059  32.202   8.564
 1541POPC   D2A22216  19.096  32.266   8.264
 1541POPC   C3A22217  19.049  32.200   7.964
 1541POPC   C4A22218  19.066  32.264   7.664
 1541POPC   C1B22219  18.842  32.288   8.564
 1541POPC   C2B22220  18.833  32.252   8.264
 1541POPC   C3B22221  18.812  32.299   7.964
 1541POPC   C4B22222  18.782  32.332   7.664
 1542POPC   NC322223  37.714  19.075   9.464
 1542POPC   PO422224  37.635  19.038   9.164
 1542POPC   GL122225  37.676  19.013   8.864
 1542POPC   GL222226  37.836  19.002   8.864
 1542POPC   C1A22227  37.671  19.033   8.564
 1542POPC   D2A22228  37.726  19.070   8.264
 1542POPC   C3A22229  37.667  19.088   7.964
 1542POPC   C4A22230  37.698  19.073   7.664
 1542POPC   C1B22231  37.956  18.982   8.564
 1542POPC   C2B22232  37.903  19.036   8.264
 1542POPC   C3B22233  37.960  19.007   7.964
 1542POPC   C4B22234  37.896  19.004   7.664
 1543POPC   NC322235  21.341  31.504   9.464
 1543POPC   PO422236  21.424  31.494   9.164
 1543POPC   GL122237  21.434  31.429   8.864
 1543POPC   GL222238  21.262  31.540   8.864
 1543POPC   C1A22239  21.395  31.450   8.564
 1543POPC   D2A22240  21.363  31.432   8.264
 1543POPC   C3A22241  21.339  31.479   7.964
 1543POPC   C4A22242  21.383  31.491   7.664
 1543POPC   C1B22243  21.146  31.555   8.564
 1543POPC   C2B22244  21.119  31.508   8.264
 1543POPC   C3B22245  21.132  31.500   7.964
 1543POPC   C4B22246  21.145  31.471   7.664
 1544POPC   NC322247  26.859   4.333   9.464
 1544POPC   PO422248  26.806   4.304   9.164
 1544POPC   GL122249  26.820   4.299   8.864
 1544POPC   GL222250  26.964   4.322   8.864
 1544POPC   C1A22251  26.773   4.299   8.564
 1544POPC   D2A22252  26.774   4.272   8.264
 1544POPC   C3A22253  26.816   4.294   7.964
 1544POPC   C4A22254  26.859   4.319   7.664
 1544POPC   C1B22255  27.067   4.376   8.564
 1544POPC   C2B22256  27.062   4.366   8.264
 1544POPC   C3B22257  27.055   4.353   7.964
 1544POPC   C4B22258  27.078   4.359   7.664
 1545POPC   NC322259  22.964  29.138   9.464
 1545POPC   PO422260  22.915  29.156   9.164
 1545POPC   GL122261  22.988  29.183   8.864
 1545POPC   GL222262  22.942  29.233   8.864
 1545POPC   C1A22263  22.960  29.161   8.564
 1545POPC   D2A22264  22.894  29.152   8.264
 1545POPC   C3A22265  22.981  29.138   7.964
 1545POPC   C4A22266  22.988  29.115   7.664
 1545POPC   C1B22267  23.084  29.380   8.564
 1545POPC   C2B22268  23.059  29.380   8.264
 1545POPC   C3B22269  23.075  29.379   7.964
 1545POPC   C4B22270  23.025  29.397   7.664
 1546POPC   NC322271  32.276  36.119   9.464
 1546POPC   PO422272  32.294  36.159   9.164
 1546POPC   GL122273  32.244  36.098   8.864
 1546POPC   GL222274  32.374  36.161   8.864
 1546POPC   C1A22275  32.257  36.175   8.564
 1546POPC   D2A22276  32.295  36.151   8.264
 1546POPC   C3A22277  32.233  36.110   7.964
 1546POPC   C4A22278  32.212  36.101   7.664
 1546POPC   C1B22279  32.421  36.331   8.564
 1546POPC   C2B22280  32.407  36.249   8.264
 1546POPC   C3B22281  32.404  36.328   7.964
 1546POPC   C4B22282  32.480  36.334   7.664
 1547POPC   NC322283  35.381  41.551   9.464
 1547POPC   PO422284  35.328  41.570   9.164
 1547POPC   GL122285  35.310  41.510   8.864
 1547POPC   GL222286  35.392  41.444   8.864
 1547POPC   C1A22287  35.332  41.591   8.564
 1547POPC   D2A22288  35.359  41.543   8.264
 1547POPC   C3A22289  35.361  41.582   7.964
 1547POPC   C4A22290  35.371  41.540   7.664
 1547POPC   C1B22291  35.346  41.327   8.564
 1547POPC   C2B22292  35.341  41.289   8.264
 1547POPC   C3B22293  35.323  41.311   7.964
 1547POPC   C4B22294  35.350  41.310   7.664
 1548POPC   NC322295  30.726  38.499   9.464
 1548POPC   PO422296  30.739  38.478   9.164
 1548POPC   GL122297  30.687  38.407   8.864
 1548POPC   GL222298  30.812  38.472   8.864
 1548POPC   C1A22299  30.665  38.415   8.564
 1548POPC   D2A22300  30.658  38.448   8.264
 1548POPC   C3A22301  30.718  38.432   7.964
 1548POPC   C4A22302  30.745  38.459   7.664
 1548POPC   C1B22303  30.941  38.578   8.564
 1548POPC   C2B22304  30.975  38.529   8.264
 1548POPC   C3B22305  30.913  38.593   7.964
 1548POPC   C4B22306  30.970  38.529   7.664
 1549POPC   NC322307  42.355   7.427   9.464
 1549POPC   PO422308  42.357   7.384   9.164
 1549POPC   GL122309  42.336   7.433   8.864
 1549POPC   GL222310  42.448   7.502   8.864
 1549POPC   C1A22311  42.348   7.436   8.564
 1549POPC   D2A22312  42.296   7.394   8.264
 1549POPC   C3A22313  42.308   7.412   7.964
 1549POPC   C4A22314  42.346   7.396   7.664
 1549POPC   C1B22315  42.462   7.593   8.564
 1549POPC   C2B22316  42.488   7.591   8.264
 1549POPC   C3B22317  42.518   7.647   7.964
 1549POPC   C4B22318  42.483   7.582   7.664
 1550POPC   NC322319   9.751  11.255   9.464
 1550POPC   PO422320   9.756  11.273   9.164
 1550POPC   GL122321   9.729  11.297   8.864
 1550POPC   GL222322   9.715  11.468   8.864
 1550POPC   C1A22323   9.771  11.285   8.564
 1550POPC   D2A22324   9.723  11.291   8.264
 1550POPC   C3A22325   9.708  11.285   7.964
 1550POPC   C4A22326   9.798  11.333   7.664
 1550POPC   C1B22327   9.738  11.551   8.564
 1550POPC   C2B22328   9.741  11.581   8.264
 1550POPC   C3B22329   9.744  11.513   7.964
 1550POPC   C4B22330   9.716  11.528   7.664
 1551POPC   NC322331  15.926  23.702   9.464
 1551POPC   PO422332  15.951  23.747   9.164
 1551POPC   GL122333  15.958  23.763   8.864
 1551POPC   GL222334  15.882  23.839   8.864
 1551POPC   C1A22335  16.002  23.668   8.564
 1551POPC   D2A22336  15.958  23.712   8.264
 1551POPC   C3A22337  15.933  23.746   7.964
 1551POPC   C4A22338  15.993  23.717   7.664
 1551POPC   C1B22339  15.870  23.957   8.564
 1551POPC   C2B22340  15.833  23.939   8.264
 1551POPC   C3B22341  15.851  23.965   7.964
 1551POPC   C4B22342  15.858  23.885   7.664
 1552POPC   NC322343   8.192  31.439   9.464
 1552POPC   PO422344   8.234  31.508   9.164
 1552POPC   GL122345   8.194  31.492   8.864
 1552POPC   GL222346   8.228  31.394   8.864
 1552POPC   C1A22347   8.241  31.484   8.564
 1552POPC   D2A22348   8.183  31.514   8.264
 1552POPC   C3A22349   8.197  31.437   7.964
 1552POPC   C4A22350   8.210  31.516   7.664
 1552POPC   C1B22351   8.242  31.211   8.564
 1552POPC   C2B22352   8.178  31.192   8.264
 1552POPC   C3B22353   8.173  31.198   7.964
 1552POPC   C4B22354   8.206  31.247   7.664
 1553POPC   NC322355  23.672  33.850   9.464
 1553POPC   PO422356  23.740  33.827   9.164
 1553POPC   GL122357  23.716  33.802   8.864
 1553POPC   GL222358  23.712  33.715   8.864
 1553POPC   C1A22359  23.679  33.787   8.564
 1553POPC   D2A22360  23.732  33.839   8.264
 1553POPC   C3A22361  23.725  33.822   7.964
 1553POPC   C4A22362  23.711  33.823   7.664
 1553POPC   C1B22363  23.594  33.558   8.564
 1553POPC   C2B22364  23.613  33.527   8.264
 1553POPC   C3B22365  23.599  33.600   7.964
 1553POPC   C4B22366  23.626  33.523   7.664
 1554POPC   NC322367  22.983   7.448   9.464
 1554POPC   PO422368  22.939   7.413   9.164
 1554POPC   GL122369  22.976   7.443   8.864
 1554POPC   GL222370  22.851   7.380   8.864
 1554POPC   C1A22371  22.956   7.465   8.564
 1554POPC   D2A22372  22.971   7.429   8.264
 1554POPC   C3A22373  22.937   7.391   7.964
 1554POPC   C4A22374  22.951   7.372   7.664
 1554POPC   C1B22375  22.714   7.362   8.564
 1554POPC   C2B22376  22.683   7.396   8.264
 1554POPC   C3B22377  22.668   7.391   7.964
 1554POPC   C4B22378  22.661   7.325   7.664
 1555POPC   NC322379  23.754  42.320   9.464
 1555POPC   PO422380  23.759  42.302   9.164
 1555POPC   GL122381  23.682  42.321   8.864
 1555POPC   GL222382  23.671  42.448   8.864
 1555POPC   C1A22383  23.742  42.382   8.564
 1555POPC   D2A22384  23.709  42.318   8.264
 1555POPC   C3A22385  23.721  42.382   7.964
 1555POPC   C4A22386  23.665  42.288   7.664
 1555POPC   C1B22387  23.651  42.574   8.564
 1555POPC   C2B22388  23.567  42.516   8.264
 1555POPC   C3B22389  23.640  42.602   7.964
 1555POPC   C4B22390  23.563  42.587   7.664
 1556POPC   NC322391  12.059  29.134   9.464
 1556POPC   PO422392  12.092  29.138   9.164
 1556POPC   GL122393  12.106  29.179   8.864
 1556POPC   GL222394  11.993  29.029   8.864
 1556POPC   C1A22395  12.125  29.115   8.564
 1556POPC   D2A22396  12.042  29.187   8.264
 1556POPC   C3A22397  12.083  29.116   7.964
 1556POPC   C4A22398  12.101  29.111   7.664
 1556POPC   C1B22399  11.917  28.970   8.564
 1556POPC   C2B22400  11.856  28.924   8.264
 1556POPC   C3B22401  11.887  28.990   7.964
 1556POPC   C4B22402  11.865  28.982   7.664
 1557POPC   NC322403  36.125   2.762   9.464
 1557POPC   PO422404  36.083   2.734   9.164
 1557POPC   GL122405  36.093   2.806   8.864
 1557POPC   GL222406  36.025   2.823   8.864
 1557POPC   C1A22407  36.163   2.773   8.564
 1557POPC   D2A22408  36.121   2.761   8.264
 1557POPC   C3A22409  36.121   2.797   7.964
 1557POPC   C4A22410  36.172   2.794   7.664
 1557POPC   C1B22411  35.920   2.917   8.564
 1557POPC   C2B22412  35.927   2.928   8.264
 1557POPC   C3B22413  35.922   2.906   7.964
 1557POPC   C4B22414  35.913   2.951   7.664
 1558POPC   NC322415   5.852  21.337   9.464
 1558POPC   PO422416   5.850  21.363   9.164
 1558POPC   GL122417   5.895  21.399   8.864
 1558POPC   GL222418   5.715  21.410   8.864
 1558POPC   C1A22419   5.900  21.373   8.564
 1558POPC   D2A22420   5.898  21.425   8.264
 1558POPC   C3A22421   5.852  21.406   7.964
 1558POPC   C4A22422   5.868  21.418   7.664
 1558POPC   C1B22423   5.604  21.393   8.564
 1558POPC   C2B22424   5.664  21.369   8.264
 1558POPC   C3B22425   5.646  21.379   7.964
 1558POPC   C4B22426   5.621  21.325   7.664
 1559POPC   NC322427  24.501  38.475   9.464
 1559POPC   PO422428  24.493  38.417   9.164
 1559POPC   GL122429  24.489  38.416   8.864
 1559POPC   GL222430  24.401  38.480   8.864
 1559POPC   C1A22431  24.537  38.440   8.564
 1559POPC   D2A22432  24.538  38.479   8.264
 1559POPC   C3A22433  24.536  38.452   7.964
 1559POPC   C4A22434  24.521  38.450   7.664
 1559POPC   C1B22435  24.211  38.542   8.564
 1559POPC   C2B22436  24.287  38.493   8.264
 1559POPC   C3B22437  24.260  38.474   7.964
 1559POPC   C4B22438  24.276  38.493   7.664
 1560POPC   NC322439  25.220   2.749   9.464
 1560POPC   PO422440  25.228   2.735   9.164
 1560POPC   GL122441  25.266   2.775   8.864
 1560POPC   GL222442  25.375   2.699   8.864
 1560POPC   C1A22443  25.233   2.747   8.564
 1560POPC   D2A22444  25.252   2.812   8.264
 1560POPC   C3A22445  25.268   2.772   7.964
 1560POPC   C4A22446  25.300   2.758   7.664
 1560POPC   C1B22447  25.425   2.557   8.564
 1560POPC   C2B22448  25.452   2.575   8.264
 1560POPC   C3B22449  25.496   2.645   7.964
 1560POPC   C4B22450  25.415   2.652   7.664
 1561POPC   NC322451  10.528  38.426   9.464
 1561POPC   PO422452  10.519  38.466   9.164
 1561POPC   GL122453  10.553  38.460   8.864
 1561POPC   GL222454  10.661  38.480   8.864
 1561POPC   C1A22455  10.507  38.412   8.564
 1561POPC   D2A22456  10.481  38.417   8.264
 1561POPC   C3A22457  10.521  38.433   7.964
 1561POPC   C4A22458  10.542  38.442   7.664
 1561POPC   C1B22459  10.802  38.582   8.564
 1561POPC   C2B22460  10.807  38.517   8.264
 1561POPC   C3B22461  10.774  38.570   7.964
 1561POPC   C4B22462  10.735  38.517   7.664
 1562POPC   NC322463  42.380   8.998   9.464
 1562POPC   PO422464  42.314   8.959   9.164
 1562POPC   GL122465  42.338   8.979   8.864
 1562POPC   GL222466  42.305   9.046   8.864
 1562POPC   C1A22467  42.291   8.950   8.564
 1562POPC   D2A22468  42.335   8.971   8.264
 1562POPC   C3A22469  42.323   8.972   7.964
 1562POPC   C4A22470  42.369   8.952   7.664
 1562POPC   C1B22471  42.189   9.144   8.564
 1562POPC   C2B22472  42.174   9.188   8.264
 1562POPC   C3B22473  42.257   9.182   7.964
 1562POPC   C4B22474  42.230   9.160   7.664
 1563POPC   NC322475   1.947   9.759   9.464
 1563POPC   PO422476   1.965   9.774   9.164
 1563POPC   GL122477   2.006   9.746   8.864
 1563POPC   GL222478   1.901   9.843   8.864
 1563POPC   C1A22479   1.969   9.715   8.564
 1563POPC   D2A22480   1.945   9.740   8.264
 1563POPC   C3A22481   1.969   9.742   7.964
 1563POPC   C4A22482   1.949   9.771   7.664
 1563POPC   C1B22483   1.809   9.898   8.564
 1563POPC   C2B22484   1.721   9.901   8.264
 1563POPC   C3B22485   1.726   9.874   7.964
 1563POPC   C4B22486   1.763   9.878   7.664
 1564POPC   NC322487  32.289  18.268   9.464
 1564POPC   PO422488  32.241  18.307   9.164
 1564POPC   GL122489  32.295  18.320   8.864
 1564POPC   GL222490  32.210  18.115   8.864
 1564POPC   C1A22491  32.245  18.299   8.564
 1564POPC   D2A22492  32.293  18.277   8.264
 1564POPC   C3A22493  32.208  18.252   7.964
 1564POPC   C4A22494  32.213  18.251   7.664
 1564POPC   C1B22495  32.214  18.011   8.564
 1564POPC   C2B22496  32.226  18.072   8.264
 1564POPC   C3B22497  32.298  18.037   7.964
 1564POPC   C4B22498  32.218  18.059   7.664
 1565POPC   NC322499  44.672  36.103   9.464
 1565POPC   PO422500  44.661  36.106   9.164
 1565POPC   GL122501  44.667  36.110   8.864
 1565POPC   GL222502  44.759  36.053   8.864
 1565POPC   C1A22503  44.619  36.162   8.564
 1565POPC   D2A22504  44.693  36.089   8.264
 1565POPC   C3A22505  44.660  36.170   7.964
 1565POPC   C4A22506  44.664  36.172   7.664
 1565POPC   C1B22507  44.893  36.031   8.564
 1565POPC   C2B22508  44.922  36.029   8.264
 1565POPC   C3B22509  44.892  36.056   7.964
 1565POPC   C4B22510  44.891  36.039   7.664
 1566POPC   NC322511   2.755  22.149   9.464
 1566POPC   PO422512   2.733  22.174   9.164
 1566POPC   GL122513   2.725  22.196   8.864
 1566POPC   GL222514   2.699  22.267   8.864
 1566POPC   C1A22515   2.729  22.211   8.564
 1566POPC   D2A22516   2.779  22.126   8.264
 1566POPC   C3A22517   2.759  22.127   7.964
 1566POPC   C4A22518   2.753  22.148   7.664
 1566POPC   C1B22519   2.607  22.429   8.564
 1566POPC   C2B22520   2.635  22.342   8.264
 1566POPC   C3B22521   2.627  22.334   7.964
 1566POPC   C4B22522   2.636  22.422   7.664
 1567POPC   NC322523   9.701  38.466   9.464
 1567POPC   PO422524   9.738  38.433   9.164
 1567POPC   GL122525   9.745  38.473   8.864
 1567POPC   GL222526   9.651  38.473   8.864
 1567POPC   C1A22527   9.757  38.476   8.564
 1567POPC   D2A22528   9.739  38.438   8.264
 1567POPC   C3A22529   9.745  38.493   7.964
 1567POPC   C4A22530   9.732  38.491   7.664
 1567POPC   C1B22531   9.554  38.371   8.564
 1567POPC   C2B22532   9.476  38.378   8.264
 1567POPC   C3B22533   9.488  38.357   7.964
 1567POPC   C4B22534   9.481  38.408   7.664
 1568POPC   NC322535   6.687   5.097   9.464
 1568POPC   PO422536   6.619   5.132   9.164
 1568POPC   GL122537   6.664   5.060   8.864
 1568POPC   GL222538   6.518   5.211   8.864
 1568POPC   C1A22539   6.654   5.044   8.564
 1568POPC   D2A22540   6.611   5.121   8.264
 1568POPC   C3A22541   6.674   5.053   7.964
 1568POPC   C4A22542   6.635   5.082   7.664
 1568POPC   C1B22543   6.450   5.269   8.564
 1568POPC   C2B22544   6.433   5.298   8.264
 1568POPC   C3B22545   6.451   5.255   7.964
 1568POPC   C4B22546   6.440   5.301   7.664
 1569POPC   NC322547   1.983   0.402   9.464
 1569POPC   PO422548   1.994   0.414   9.164
 1569POPC   GL122549   2.003   0.484   8.864
 1569POPC   GL222550   1.875   0.405   8.864
 1569POPC   C1A22551   1.963   0.402   8.564
 1569POPC   D2A22552   1.978   0.486   8.264
 1569POPC   C3A22553   1.980   0.435   7.964
 1569POPC   C4A22554   1.961   0.403   7.664
 1569POPC   C1B22555   1.807   0.260   8.564
 1569POPC   C2B22556   1.784   0.330   8.264
 1569POPC   C3B22557   1.779   0.303   7.964
 1569POPC   C4B22558   1.752   0.320   7.664
 1570POPC   NC322559   7.443   8.987   9.464
 1570POPC   PO422560   7.432   8.967   9.164
 1570POPC   GL122561   7.421   8.950   8.864
 1570POPC   GL222562   7.285   8.934   8.864
 1570POPC   C1A22563   7.447   8.939   8.564
 1570POPC   D2A22564   7.462   8.934   8.264
 1570POPC   C3A22565   7.398   9.001   7.964
 1570POPC   C4A22566   7.385   8.953   7.664
 1570POPC   C1B22567   7.182   8.885   8.564
 1570POPC   C2B22568   7.234   8.872   8.264
 1570POPC   C3B22569   7.244   8.899   7.964
 1570POPC   C4B22570   7.176   8.836   7.664
 1571POPC   NC322571  33.845   8.938   9.464
 1571POPC   PO422572  33.768   9.015   9.164
 1571POPC   GL122573  33.830   8.957   8.864
 1571POPC   GL222574  33.917   8.884   8.864
 1571POPC   C1A22575  33.850   8.987   8.564
 1571POPC   D2A22576  33.764   8.924   8.264
 1571POPC   C3A22577  33.786   9.006   7.964
 1571POPC   C4A22578  33.821   8.997   7.664
 1571POPC   C1B22579  33.995   8.819   8.564
 1571POPC   C2B22580  34.053   8.917   8.264
 1571POPC   C3B22581  33.990   8.843   7.964
 1571POPC   C4B22582  34.041   8.905   7.664
 1572POPC   NC322583  12.125  13.634   9.464
 1572POPC   PO422584  12.082  13.624   9.164
 1572POPC   GL122585  12.086  13.591   8.864
 1572POPC   GL222586  12.057  13.738   8.864
 1572POPC   C1A22587  12.031  13.677   8.564
 1572POPC   D2A22588  12.028  13.617   8.264
 1572POPC   C3A22589  12.075  13.597   7.964
 1572POPC   C4A22590  12.115  13.645   7.664
 1572POPC   C1B22591  12.093  13.889   8.564
 1572POPC   C2B22592  12.096  13.843   8.264
 1572POPC   C3B22593  12.078  13.856   7.964
 1572POPC   C4B22594  12.049  13.848   7.664
 1573POPC   NC322595  34.602   9.735   9.464
 1573POPC   PO422596  34.579   9.787   9.164
 1573POPC   GL122597  34.622   9.756   8.864
 1573POPC   GL222598  34.431   9.708   8.864
 1573POPC   C1A22599  34.526   9.777   8.564
 1573POPC   D2A22600  34.548   9.738   8.264
 1573POPC   C3A22601  34.602   9.763   7.964
 1573POPC   C4A22602  34.594   9.741   7.664
 1573POPC   C1B22603  34.313   9.650   8.564
 1573POPC   C2B22604  34.357   9.627   8.264
 1573POPC   C3B22605  34.398   9.649   7.964
 1573POPC   C4B22606  34.315   9.653   7.664
 1574POPC   NC322607  44.654  10.476   9.464
 1574POPC   PO422608  44.653  10.523   9.164
 1574POPC   GL122609  44.663  10.563   8.864
 1574POPC   GL222610  44.611  10.472   8.864
 1574POPC   C1A22611  44.641  10.483   8.564
 1574POPC   D2A22612  44.688  10.506   8.264
 1574POPC   C3A22613  44.646  10.514   7.964
 1574POPC   C4A22614  44.674  10.509   7.664
 1574POPC   C1B22615  44.430  10.369   8.564
 1574POPC   C2B22616  44.474  10.358   8.264
 1574POPC   C3B22617  44.517  10.319   7.964
 1574POPC   C4B22618  44.456  10.320   7.664
 1575POPC   NC322619  26.050   4.300   9.464
 1575POPC   PO422620  26.051   4.332   9.164
 1575POPC   GL122621  26.036   4.297   8.864
 1575POPC   GL222622  25.877   4.372   8.864
 1575POPC   C1A22623  26.015   4.305   8.564
 1575POPC   D2A22624  26.062   4.334   8.264
 1575POPC   C3A22625  26.077   4.308   7.964
 1575POPC   C4A22626  26.043   4.350   7.664
 1575POPC   C1B22627  25.834   4.376   8.564
 1575POPC   C2B22628  25.850   4.384   8.264
 1575POPC   C3B22629  25.827   4.364   7.964
 1575POPC   C4B22630  25.853   4.391   7.664
 1576POPC   NC322631  10.498  26.004   9.464
 1576POPC   PO422632  10.573  26.010   9.164
 1576POPC   GL122633  10.513  25.996   8.864
 1576POPC   GL222634  10.638  26.065   8.864
 1576POPC   C1A22635  10.559  26.065   8.564
 1576POPC   D2A22636  10.546  26.076   8.264
 1576POPC   C3A22637  10.497  26.055   7.964
 1576POPC   C4A22638  10.567  26.034   7.664
 1576POPC   C1B22639  10.794  26.111   8.564
 1576POPC   C2B22640  10.770  26.178   8.264
 1576POPC   C3B22641  10.716  26.138   7.964
 1576POPC   C4B22642  10.755  26.103   7.664
 1577POPC   NC322643  40.022  39.995   9.464
 1577POPC   PO422644  40.024  40.047   9.164
 1577POPC   GL122645  40.006  40.038   8.864
 1577POPC   GL222646  40.145  39.999   8.864
 1577POPC   C1A22647  40.008  40.053   8.564
 1577POPC   D2A22648  40.036  39.974   8.264
 1577POPC   C3A22649  40.003  39.961   7.964
 1577POPC   C4A22650  40.007  40.012   7.664
 1577POPC   C1B22651  40.201  40.101   8.564
 1577POPC   C2B22652  40.226  40.100   8.264
 1577POPC   C3B22653  40.257  40.037   7.964
 1577POPC   C4B22654  40.265  40.045   7.664
 1578POPC   NC322655   0.410  27.580   9.464
 1578POPC   PO422656   0.402  27.627   9.164
 1578POPC   GL122657   0.410  27.594   8.864
 1578POPC   GL222658   0.362  27.561   8.864
 1578POPC   C1A22659   0.443  27.599   8.564
 1578POPC   D2A22660   0.410  27.608   8.264
 1578POPC   C3A22661   0.420  27.642   7.964
 1578POPC   C4A22662   0.464  27.560   7.664
 1578POPC   C1B22663   0.225  27.536   8.564
 1578POPC   C2B22664   0.235  27.613   8.264
 1578POPC   C3B22665   0.202  27.572   7.964
 1578POPC   C4B22666   0.203  27.630   7.664
 1579POPC   NC322667   7.426   6.662   9.464
 1579POPC   PO422668   7.419   6.674   9.164
 1579POPC   GL122669   7.439   6.600   8.864
 1579POPC   GL222670   7.520   6.705   8.864
 1579POPC   C1A22671   7.455   6.679   8.564
 1579POPC   D2A22672   7.419   6.660   8.264
 1579POPC   C3A22673   7.443   6.678   7.964
 1579POPC   C4A22674   7.388   6.607   7.664
 1579POPC   C1B22675   7.608   6.841   8.564
 1579POPC   C2B22676   7.644   6.830   8.264
 1579POPC   C3B22677   7.607   6.777   7.964
 1579POPC   C4B22678   7.637   6.789   7.664
 1580POPC   NC322679  15.150  12.873   9.464
 1580POPC   PO422680  15.169  12.837   9.164
 1580POPC   GL122681  15.189  12.856   8.864
 1580POPC   GL222682  15.135  12.987   8.864
 1580POPC   C1A22683  15.176  12.808   8.564
 1580POPC   D2A22684  15.198  12.854   8.264
 1580POPC   C3A22685  15.180  12.900   7.964
 1580POPC   C4A22686  15.182  12.875   7.664
 1580POPC   C1B22687  15.094  13.122   8.564
 1580POPC   C2B22688  15.125  13.061   8.264
 1580POPC   C3B22689  15.167  13.131   7.964
 1580POPC   C4B22690  15.097  13.085   7.664
 1581POPC   NC322691  18.263  39.278   9.464
 1581POPC   PO422692  18.250  39.216   9.164
 1581POPC   GL122693  18.234  39.271   8.864
 1581POPC   GL222694  18.373  39.301   8.864
 1581POPC   C1A22695  18.301  39.237   8.564
 1581POPC   D2A22696  18.243  39.213   8.264
 1581POPC   C3A22697  18.319  39.245   7.964
 1581POPC   C4A22698  18.241  39.201   7.664
 1581POPC   C1B22699  18.399  39.446   8.564
 1581POPC   C2B22700  18.464  39.482   8.264
 1581POPC   C3B22701  18.392  39.457   7.964
 1581POPC   C4B22702  18.384  39.453   7.664
 1582POPC   NC322703  35.388  40.782   9.464
 1582POPC   PO422704  35.376  40.823   9.164
 1582POPC   GL122705  35.381  40.772   8.864
 1582POPC   GL222706  35.449  40.733   8.864
 1582POPC   C1A22707  35.348  40.796   8.564
 1582POPC   D2A22708  35.397  40.734   8.264
 1582POPC   C3A22709  35.389  40.827   7.964
 1582POPC   C4A22710  35.345  40.814   7.664
 1582POPC   C1B22711  35.604  40.741   8.564
 1582POPC   C2B22712  35.563  40.744   8.264
 1582POPC   C3B22713  35.649  40.732   7.964
 1582POPC   C4B22714  35.628  40.772   7.664
 1583POPC   NC322715   7.430  39.281   9.464
 1583POPC   PO422716   7.401  39.258   9.164
 1583POPC   GL122717   7.459  39.253   8.864
 1583POPC   GL222718   7.548  39.210   8.864
 1583POPC   C1A22719   7.438  39.277   8.564
 1583POPC   D2A22720   7.379  39.187   8.264
 1583POPC   C3A22721   7.413  39.234   7.964
 1583POPC   C4A22722   7.385  39.271   7.664
 1583POPC   C1B22723   7.695  39.310   8.564
 1583POPC   C2B22724   7.635  39.259   8.264
 1583POPC   C3B22725   7.655  39.312   7.964
 1583POPC   C4B22726   7.620  39.240   7.664
 1584POPC   NC322727  24.537   9.754   9.464
 1584POPC   PO422728  24.440   9.778   9.164
 1584POPC   GL122729  24.454   9.728   8.864
 1584POPC   GL222730  24.463   9.877   8.864
 1584POPC   C1A22731  24.463   9.727   8.564
 1584POPC   D2A22732  24.520   9.713   8.264
 1584POPC   C3A22733  24.517   9.791   7.964
 1584POPC   C4A22734  24.488   9.712   7.664
 1584POPC   C1B22735  24.565  10.043   8.564
 1584POPC   C2B22736  24.496  10.038   8.264
 1584POPC   C3B22737  24.552  10.017   7.964
 1584POPC   C4B22738  24.497  10.035   7.664
 1585POPC   NC322739   9.781  29.126   9.464
 1585POPC   PO422740   9.706  29.112   9.164
 1585POPC   GL122741   9.782  29.189   8.864
 1585POPC   GL222742   9.672  28.997   8.864
 1585POPC   C1A22743   9.770  29.183   8.564
 1585POPC   D2A22744   9.708  29.153   8.264
 1585POPC   C3A22745   9.740  29.113   7.964
 1585POPC   C4A22746   9.762  29.180   7.664
 1585POPC   C1B22747   9.602  28.876   8.564
 1585POPC   C2B22748   9.656  28.887   8.264
 1585POPC   C3B22749   9.685  28.896   7.964
 1585POPC   C4B22750   9.636  28.928   7.664
 1586POPC   NC322751  16.778   9.735   9.464
 1586POPC   PO422752  16.735   9.703   9.164
 1586POPC   GL122753  16.734   9.762   8.864
 1586POPC   GL222754  16.720   9.576   8.864
 1586POPC   C1A22755  16.688   9.730   8.564
 1586POPC   D2A22756  16.723   9.743   8.264
 1586POPC   C3A22757  16.706   9.788   7.964
 1586POPC   C4A22758  16.699   9.728   7.664
 1586POPC   C1B22759  16.790   9.528   8.564
 1586POPC   C2B22760  16.807   9.518   8.264
 1586POPC   C3B22761  16.809   9.453   7.964
 1586POPC   C4B22762  16.747   9.500   7.664
 1587POPC   NC322763  30.671  11.261   9.464
 1587POPC   PO422764  30.704  11.319   9.164
 1587POPC   GL122765  30.662  11.274   8.864
 1587POPC   GL222766  30.790  11.394   8.864
 1587POPC   C1A22767  30.742  11.339   8.564
 1587POPC   D2A22768  30.717  11.317   8.264
 1587POPC   C3A22769  30.713  11.276   7.964
 1587POPC   C4A22770  30.667  11.257   7.664
 1587POPC   C1B22771  30.860  11.479   8.564
 1587POPC   C2B22772  30.826  11.568   8.264
 1587POPC   C3B22773  30.847  11.480   7.964
 1587POPC   C4B22774  30.815  11.519   7.664
 1588POPC   NC322775  44.636  43.900   9.464
 1588POPC   PO422776  44.654  43.872   9.164
 1588POPC   GL122777  44.684  43.934   8.864
 1588POPC   GL222778  44.538  43.757   8.864
 1588POPC   C1A22779  44.687  43.886   8.564
 1588POPC   D2A22780  44.657  43.901   8.264
 1588POPC   C3A22781  44.664  43.896   7.964
 1588POPC   C4A22782  44.626  43.893   7.664
 1588POPC   C1B22783  44.517  43.699   8.564
 1588POPC   C2B22784  44.515  43.659   8.264
 1588POPC   C3B22785  44.544  43.647   7.964
 1588POPC   C4B22786  44.495  43.675   7.664
 1589POPC   NC322787  36.936  19.844   9.464
 1589POPC   PO422788  36.879  19.845   9.164
 1589POPC   GL122789  36.936  19.799   8.864
 1589POPC   GL222790  36.768  19.853   8.864
 1589POPC   C1A22791  36.898  19.881   8.564
 1589POPC   D2A22792  36.914  19.843   8.264
 1589POPC   C3A22793  36.906  19.853   7.964
 1589POPC   C4A22794  36.884  19.853   7.664
 1589POPC   C1B22795  36.671  19.929   8.564
 1589POPC   C2B22796  36.629  19.975   8.264
 1589POPC   C3B22797  36.676  19.955   7.964
 1589POPC   C4B22798  36.646  19.976   7.664
 1590POPC   NC322799  12.032  32.996   9.464
 1590POPC   PO422800  12.028  33.017   9.164
 1590POPC   GL122801  12.070  32.996   8.864
 1590POPC   GL222802  11.927  32.971   8.864
 1590POPC   C1A22803  12.073  33.004   8.564
 1590POPC   D2A22804  12.116  32.977   8.264
 1590POPC   C3A22805  12.046  32.996   7.964
 1590POPC   C4A22806  12.085  33.064   7.664
 1590POPC   C1B22807  11.819  33.013   8.564
 1590POPC   C2B22808  11.819  32.996   8.264
 1590POPC   C3B22809  11.826  33.015   7.964
 1590POPC   C4B22810  11.820  32.970   7.664
 1591POPC   NC322811   6.652  15.212   9.464
 1591POPC   PO422812   6.647  15.193   9.164
 1591POPC   GL122813   6.623  15.134   8.864
 1591POPC   GL222814   6.585  15.218   8.864
 1591POPC   C1A22815   6.604  15.220   8.564
 1591POPC   D2A22816   6.666  15.155   8.264
 1591POPC   C3A22817   6.662  15.132   7.964
 1591POPC   C4A22818   6.657  15.222   7.664
 1591POPC   C1B22819   6.463  15.283   8.564
 1591POPC   C2B22820   6.401  15.313   8.264
 1591POPC   C3B22821   6.454  15.288   7.964
 1591POPC   C4B22822   6.480  15.328   7.664
 1592POPC   NC322823  18.325  19.875   9.464
 1592POPC   PO422824  18.267  19.883   9.164
 1592POPC   GL122825  18.266  19.833   8.864
 1592POPC   GL222826  18.223  19.915   8.864
 1592POPC   C1A22827  18.289  19.788   8.564
 1592POPC   D2A22828  18.300  19.805   8.264
 1592POPC   C3A22829  18.269  19.834   7.964
 1592POPC   C4A22830  18.260  19.798   7.664
 1592POPC   C1B22831  18.200  20.047   8.564
 1592POPC   C2B22832  18.198  20.034   8.264
 1592POPC   C3B22833  18.203  20.057   7.964
 1592POPC   C4B22834  18.284  20.084   7.664
 1593POPC   NC322835  17.463  34.552   9.464
 1593POPC   PO422836  17.469  34.596   9.164
 1593POPC   GL122837  17.555  34.569   8.864
 1593POPC   GL222838  17.394  34.690   8.864
 1593POPC   C1A22839  17.488  34.534   8.564
 1593POPC   D2A22840  17.553  34.598   8.264
 1593POPC   C3A22841  17.460  34.534   7.964
 1593POPC   C4A22842  17.490  34.544   7.664
 1593POPC   C1B22843  17.340  34.765   8.564
 1593POPC   C2B22844  17.319  34.687   8.264
 1593POPC   C3B22845  17.329  34.756   7.964
 1593POPC   C4B22846  17.347  34.754   7.664
 1594POPC   NC322847  22.200  18.325   9.464
 1594POPC   PO422848  22.129  18.282   9.164
 1594POPC   GL122849  22.128  18.323   8.864
 1594POPC   GL222850  22.087  18.380   8.864
 1594POPC   C1A22851  22.186  18.259   8.564
 1594POPC   D2A22852  22.171  18.329   8.264
 1594POPC   C3A22853  22.168  18.280   7.964
 1594POPC   C4A22854  22.201  18.297   7.664
 1594POPC   C1B22855  21.898  18.458   8.564
 1594POPC   C2B22856  21.970  18.380   8.264
 1594POPC   C3B22857  21.982  18.369   7.964
 1594POPC   C4B22858  21.955  18.432   7.664
 1595POPC   NC322859  33.803  16.688   9.464
 1595POPC   PO422860  33.809  16.698   9.164
 1595POPC   GL122861  33.841  16.736   8.864
 1595POPC   GL222862  33.831  16.613   8.864
 1595POPC   C1A22863  33.845  16.748   8.564
 1595POPC   D2A22864  33.831  16.701   8.264
 1595POPC   C3A22865  33.828  16.704   7.964
 1595POPC   C4A22866  33.757  16.771   7.664
 1595POPC   C1B22867  33.935  16.529   8.564
 1595POPC   C2B22868  33.863  16.491   8.264
 1595POPC   C3B22869  33.930  16.472   7.964
 1595POPC   C4B22870  33.836  16.475   7.664
 1596POPC   NC322871  44.709   4.331   9.464
 1596POPC   PO422872  44.704   4.298   9.164
 1596POPC   GL122873  44.671   4.288   8.864
 1596POPC   GL222874  44.665   4.237   8.864
 1596POPC   C1A22875  44.686   4.297   8.564
 1596POPC   D2A22876  44.627   4.284   8.264
 1596POPC   C3A22877  44.709   4.325   7.964
 1596POPC   C4A22878  44.633   4.311   7.664
 1596POPC   C1B22879  44.613   4.118   8.564
 1596POPC   C2B22880  44.537   4.033   8.264
 1596POPC   C3B22881  44.528   4.062   7.964
 1596POPC   C4B22882  44.626   4.104   7.664
 1597POPC   NC322883  33.782  25.247   9.464
 1597POPC   PO422884  33.813  25.287   9.164
 1597POPC   GL122885  33.758  25.278   8.864
 1597POPC   GL222886  33.727  25.186   8.864
 1597POPC   C1A22887  33.819  25.290   8.564
 1597POPC   D2A22888  33.838  25.276   8.264
 1597POPC   C3A22889  33.834  25.278   7.964
 1597POPC   C4A22890  33.820  25.274   7.664
 1597POPC   C1B22891  33.666  25.036   8.564
 1597POPC   C2B22892  33.611  25.079   8.264
 1597POPC   C3B22893  33.671  25.100   7.964
 1597POPC   C4B22894  33.602  25.068   7.664
 1598POPC   NC322895  43.089   9.011   9.464
 1598POPC   PO422896  43.060   8.976   9.164
 1598POPC   GL122897  43.100   8.951   8.864
 1598POPC   GL222898  43.146   8.850   8.864
 1598POPC   C1A22899  43.148   8.957   8.564
 1598POPC   D2A22900  43.078   9.000   8.264
 1598POPC   C3A22901  43.097   8.972   7.964
 1598POPC   C4A22902  43.105   8.925   7.664
 1598POPC   C1B22903  43.194   8.712   8.564
 1598POPC   C2B22904  43.212   8.757   8.264
 1598POPC   C3B22905  43.292   8.792   7.964
 1598POPC   C4B22906  43.289   8.754   7.664
 1599POPC   NC322907  39.275  39.235   9.464
 1599POPC   PO422908  39.276  39.243   9.164
 1599POPC   GL122909  39.248  39.212   8.864
 1599POPC   GL222910  39.075  39.208   8.864
 1599POPC   C1A22911  39.266  39.275   8.564
 1599POPC   D2A22912  39.211  39.253   8.264
 1599POPC   C3A22913  39.255  39.258   7.964
 1599POPC   C4A22914  39.279  39.211   7.664
 1599POPC   C1B22915  39.011  39.149   8.564
 1599POPC   C2B22916  39.012  39.210   8.264
 1599POPC   C3B22917  38.981  39.153   7.964
 1599POPC   C4B22918  39.024  39.169   7.664
 1600POPC   NC322919  42.375  15.935   9.464
 1600POPC   PO422920  42.296  15.950   9.164
 1600POPC   GL122921  42.341  15.919   8.864
 1600POPC   GL222922  42.401  16.117   8.864
 1600POPC   C1A22923  42.288  15.924   8.564
 1600POPC   D2A22924  42.308  15.943   8.264
 1600POPC   C3A22925  42.321  15.981   7.964
 1600POPC   C4A22926  42.351  15.909   7.664
 1600POPC   C1B22927  42.447  16.220   8.564
 1600POPC   C2B22928  42.452  16.146   8.264
 1600POPC   C3B22929  42.449  16.159   7.964
 1600POPC   C4B22930  42.470  16.139   7.664
 1601POPC   NC322931  12.876  25.300   9.464
 1601POPC   PO422932  12.805  25.256   9.164
 1601POPC   GL122933  12.808  25.243   8.864
 1601POPC   GL222934  12.906  25.432   8.864
 1601POPC   C1A22935  12.871  25.255   8.564
 1601POPC   D2A22936  12.881  25.300   8.264
 1601POPC   C3A22937  12.820  25.281   7.964
 1601POPC   C4A22938  12.821  25.255   7.664
 1601POPC   C1B22939  12.877  25.542   8.564
 1601POPC   C2B22940  12.923  25.500   8.264
 1601POPC   C3B22941  12.850  25.479   7.964
 1601POPC   C4B22942  12.899  25.535   7.664
 1602POPC   NC322943   8.151  15.946   9.464
 1602POPC   PO422944   8.186  15.935   9.164
 1602POPC   GL122945   8.153  15.996   8.864
 1602POPC   GL222946   8.356  15.949   8.864
 1602POPC   C1A22947   8.201  15.969   8.564
 1602POPC   D2A22948   8.238  15.997   8.264
 1602POPC   C3A22949   8.162  15.909   7.964
 1602POPC   C4A22950   8.148  15.940   7.664
 1602POPC   C1B22951   8.444  16.047   8.564
 1602POPC   C2B22952   8.422  15.978   8.264
 1602POPC   C3B22953   8.466  16.060   7.964
 1602POPC   C4B22954   8.427  16.000   7.664
 1603POPC   NC322955  43.898  14.411   9.464
 1603POPC   PO422956  43.867  14.447   9.164
 1603POPC   GL122957  43.838  14.389   8.864
 1603POPC   GL222958  43.761  14.489   8.864
 1603POPC   C1A22959  43.846  14.398   8.564
 1603POPC   D2A22960  43.917  14.408   8.264
 1603POPC   C3A22961  43.838  14.364   7.964
 1603POPC   C4A22962  43.921  14.361   7.664
 1603POPC   C1B22963  43.661  14.625   8.564
 1603POPC   C2B22964  43.751  14.588   8.264
 1603POPC   C3B22965  43.720  14.601   7.964
 1603POPC   C4B22966  43.746  14.600   7.664
 1604POPC   NC322967   0.458  29.123   9.464
 1604POPC   PO422968   0.419  29.117   9.164
 1604POPC   GL122969   0.474  29.100   8.864
 1604POPC   GL222970   0.433  28.990   8.864
 1604POPC   C1A22971   0.429  29.122   8.564
 1604POPC   D2A22972   0.446  29.172   8.264
 1604POPC   C3A22973   0.478  29.106   7.964
 1604POPC   C4A22974   0.409  29.114   7.664
 1604POPC   C1B22975   0.457  28.935   8.564
 1604POPC   C2B22976   0.449  28.893   8.264
 1604POPC   C3B22977   0.396  28.881   7.964
 1604POPC   C4B22978   0.397  28.931   7.664
 1605POPC   NC322979   0.396  44.670   9.464
 1605POPC   PO422980   0.456  44.691   9.164
 1605POPC   GL122981   0.471  44.681   8.864
 1605POPC   GL222982   0.564  44.628   8.864
 1605POPC   C1A22983   0.458  44.654   8.564
 1605POPC   D2A22984   0.431  44.643   8.264
 1605POPC   C3A22985   0.477  44.642   7.964
 1605POPC   C4A22986   0.441  44.705   7.664
 1605POPC   C1B22987   0.598  44.524   8.564
 1605POPC   C2B22988   0.647  44.510   8.264
 1605POPC   C3B22989   0.648  44.463   7.964
 1605POPC   C4B22990   0.673  44.467   7.664
 1606POPC   NC322991  35.318  38.491   9.464
 1606POPC   PO422992  35.313  38.444   9.164
 1606POPC   GL122993  35.352  38.489   8.864
 1606POPC   GL222994  35.207  38.354   8.864
 1606POPC   C1A22995  35.335  38.463   8.564
 1606POPC   D2A22996  35.370  38.498   8.264
 1606POPC   C3A22997  35.312  38.428   7.964
 1606POPC   C4A22998  35.379  38.441   7.664
 1606POPC   C1B22999  35.167  38.332   8.564
 1606POPC   C2B23000  35.160  38.332   8.264
 1606POPC   C3B23001  35.166  38.279   7.964
 1606POPC   C4B23002  35.151  38.293   7.664
 1607POPC   NC323003  43.928  44.680   9.464
 1607POPC   PO423004  43.888  44.644   9.164
 1607POPC   GL123005  43.884  44.618   8.864
 1607POPC   GL223006  43.778  44.697   8.864
 1607POPC   C1A23007  43.926  44.646   8.564
 1607POPC   D2A23008  43.881  44.698   8.264
 1607POPC   C3A23009  43.915  44.613   7.964
 1607POPC   C4A23010  43.921  44.653   7.664
 1607POPC   C1B23011  43.610  44.768   8.564
 1607POPC   C2B23012  43.682  44.745   8.264
 1607POPC   C3B23013  43.608  44.755   7.964
 1607POPC   C4B23014  43.609  44.791   7.664
 1608POPC   NC323015  22.895  35.345   9.464
 1608POPC   PO423016  22.947  35.364   9.164
 1608POPC   GL123017  22.930  35.347   8.864
 1608POPC   GL223018  22.930  35.512   8.864
 1608POPC   C1A23019  22.923  35.359   8.564
 1608POPC   D2A23020  22.932  35.338   8.264
 1608POPC   C3A23021  22.953  35.392   7.964
 1608POPC   C4A23022  22.971  35.378   7.664
 1608POPC   C1B23023  22.975  35.621   8.564
 1608POPC   C2B23024  22.968  35.578   8.264
 1608POPC   C3B23025  23.007  35.617   7.964
 1608POPC   C4B23026  22.971  35.636   7.664
 1609POPC   NC323027  33.830  33.842   9.464
 1609POPC   PO423028  33.824  33.842   9.164
 1609POPC   GL123029  33.758  33.790   8.864
 1609POPC   GL223030  33.685  33.870   8.864
 1609POPC   C1A23031  33.843  33.817   8.564
 1609POPC   D2A23032  33.836  33.820   8.264
 1609POPC   C3A23033  33.820  33.811   7.964
 1609POPC   C4A23034  33.768  33.775   7.664
 1609POPC   C1B23035  33.611  33.991   8.564
 1609POPC   C2B23036  33.636  33.975   8.264
 1609POPC   C3B23037  33.550  33.956   7.964
 1609POPC   C4B23038  33.606  33.940   7.664
 1610POPC   NC323039   1.971  28.406   9.464
 1610POPC   PO423040   1.989  28.360   9.164
 1610POPC   GL123041   1.968  28.339   8.864
 1610POPC   GL223042   1.975  28.515   8.864
 1610POPC   C1A23043   2.038  28.343   8.564
 1610POPC   D2A23044   1.947  28.327   8.264
 1610POPC   C3A23045   1.953  28.321   7.964
 1610POPC   C4A23046   2.010  28.369   7.664
 1610POPC   C1B23047   2.009  28.650   8.564
 1610POPC   C2B23048   2.069  28.635   8.264
 1610POPC   C3B23049   2.073  28.646   7.964
 1610POPC   C4B23050   2.055  28.574   7.664
 1611POPC   NC323051  33.769  17.480   9.464
 1611POPC   PO423052  33.786  17.527   9.164
 1611POPC   GL123053  33.765  17.475   8.864
 1611POPC   GL223054  33.797  17.399   8.864
 1611POPC   C1A23055  33.796  17.503   8.564
 1611POPC   D2A23056  33.796  17.500   8.264
 1611POPC   C3A23057  33.788  17.473   7.964
 1611POPC   C4A23058  33.832  17.556   7.664
 1611POPC   C1B23059  33.874  17.296   8.564
 1611POPC   C2B23060  33.884  17.234   8.264
 1611POPC   C3B23061  33.850  17.304   7.964
 1611POPC   C4B23062  33.878  17.271   7.664
 1612POPC   NC323063  33.004  17.530   9.464
 1612POPC   PO423064  32.984  17.552   9.164
 1612POPC   GL123065  32.976  17.506   8.864
 1612POPC   GL223066  33.132  17.605   8.864
 1612POPC   C1A23067  33.052  17.547   8.564
 1612POPC   D2A23068  33.051  17.460   8.264
 1612POPC   C3A23069  33.033  17.510   7.964
 1612POPC   C4A23070  33.065  17.515   7.664
 1612POPC   C1B23071  33.197  17.696   8.564
 1612POPC   C2B23072  33.240  17.641   8.264
 1612POPC   C3B23073  33.201  17.639   7.964
 1612POPC   C4B23074  33.216  17.607   7.664
 1613POPC   NC323075  30.689  32.283   9.464
 1613POPC   PO423076  30.649  32.242   9.164
 1613POPC   GL123077  30.693  32.284   8.864
 1613POPC   GL223078  30.718  32.098   8.864
 1613POPC   C1A23079  30.683  32.296   8.564
 1613POPC   D2A23080  30.740  32.231   8.264
 1613POPC   C3A23081  30.656  32.293   7.964
 1613POPC   C4A23082  30.707  32.239   7.664
 1613POPC   C1B23083  30.730  31.997   8.564
 1613POPC   C2B23084  30.665  32.043   8.264
 1613POPC   C3B23085  30.721  32.042   7.964
 1613POPC   C4B23086  30.707  32.037   7.664
 1614POPC   NC323087  15.982  15.219   9.464
 1614POPC   PO423088  15.995  15.167   9.164
 1614POPC   GL123089  15.984  15.207   8.864
 1614POPC   GL223090  15.953  15.347   8.864
 1614POPC   C1A23091  15.993  15.197   8.564
 1614POPC   D2A23092  15.931  15.217   8.264
 1614POPC   C3A23093  15.996  15.170   7.964
 1614POPC   C4A23094  15.997  15.154   7.664
 1614POPC   C1B23095  16.015  15.371   8.564
 1614POPC   C2B23096  16.028  15.450   8.264
 1614POPC   C3B23097  16.060  15.414   7.964
 1614POPC   C4B23098  16.001  15.429   7.664
 1615POPC   NC323099   8.998  17.481   9.464
 1615POPC   PO423100   8.972  17.494   9.164
 1615POPC   GL123101   8.951  17.496   8.864
 1615POPC   GL223102   9.018  17.596   8.864
 1615POPC   C1A23103   8.954  17.474   8.564
 1615POPC   D2A23104   8.958  17.479   8.264
 1615POPC   C3A23105   8.923  17.542   7.964
 1615POPC   C4A23106   8.997  17.465   7.664
 1615POPC   C1B23107   9.200  17.664   8.564
 1615POPC   C2B23108   9.167  17.692   8.264
 1615POPC   C3B23109   9.144  17.725   7.964
 1615POPC   C4B23110   9.153  17.725   7.664
 1616POPC   NC323111  36.138  22.192   9.464
 1616POPC   PO423112  36.158  22.209   9.164
 1616POPC   GL123113  36.167  22.129   8.864
 1616POPC   GL223114  36.239  22.144   8.864
 1616POPC   C1A23115  36.116  22.146   8.564
 1616POPC   D2A23116  36.095  22.145   8.264
 1616POPC   C3A23117  36.101  22.194   7.964
 1616POPC   C4A23118  36.121  22.159   7.664
 1616POPC   C1B23119  36.412  22.218   8.564
 1616POPC   C2B23120  36.349  22.211   8.264
 1616POPC   C3B23121  36.337  22.185   7.964
 1616POPC   C4B23122  36.411  22.166   7.664
 1617POPC   NC323123   2.790  32.284   9.464
 1617POPC   PO423124   2.772  32.265   9.164
 1617POPC   GL123125   2.782  32.253   8.864
 1617POPC   GL223126   2.755  32.395   8.864
 1617POPC   C1A23127   2.805  32.235   8.564
 1617POPC   D2A23128   2.791  32.235   8.264
 1617POPC   C3A23129   2.769  32.259   7.964
 1617POPC   C4A23130   2.736  32.257   7.664
 1617POPC   C1B23131   2.754  32.486   8.564
 1617POPC   C2B23132   2.811  32.544   8.264
 1617POPC   C3B23133   2.781  32.498   7.964
 1617POPC   C4B23134   2.746  32.545   7.664
 1618POPC   NC323135  32.243  37.707   9.464
 1618POPC   PO423136  32.276  37.671   9.164
 1618POPC   GL123137  32.216  37.652   8.864
 1618POPC   GL223138  32.126  37.772   8.864
 1618POPC   C1A23139  32.287  37.703   8.564
 1618POPC   D2A23140  32.257  37.636   8.264
 1618POPC   C3A23141  32.220  37.658   7.964
 1618POPC   C4A23142  32.283  37.664   7.664
 1618POPC   C1B23143  32.008  37.858   8.564
 1618POPC   C2B23144  32.028  37.799   8.264
 1618POPC   C3B23145  32.074  37.823   7.964
 1618POPC   C4B23146  32.001  37.814   7.664
 1619POPC   NC323147  26.854  37.672   9.464
 1619POPC   PO423148  26.781  37.657   9.164
 1619POPC   GL123149  26.814  37.648   8.864
 1619POPC   GL223150  26.671  37.698   8.864
 1619POPC   C1A23151  26.826  37.703   8.564
 1619POPC   D2A23152  26.818  37.685   8.264
 1619POPC   C3A23153  26.794  37.723   7.964
 1619POPC   C4A23154  26.845  37.650   7.664
 1619POPC   C1B23155  26.535  37.723   8.564
 1619POPC   C2B23156  26.572  37.705   8.264
 1619POPC   C3B23157  26.555  37.681   7.964
 1619POPC   C4B23158  26.617  37.677   7.664
 1620POPC   NC323159   9.021  11.345   9.464
 1620POPC   PO423160   8.968  11.270   9.164
 1620POPC   GL123161   9.003  11.307   8.864
 1620POPC   GL223162   9.079  11.390   8.864
 1620POPC   C1A23163   9.011  11.314   8.564
 1620POPC   D2A23164   9.018  11.317   8.264
 1620POPC   C3A23165   9.010  11.282   7.964
 1620POPC   C4A23166   8.925  11.337   7.664
 1620POPC   C1B23167   9.185  11.432   8.564
 1620POPC   C2B23168   9.133  11.490   8.264
 1620POPC   C3B23169   9.172  11.485   7.964
 1620POPC   C4B23170   9.136  11.441   7.664
 1621POPC   NC323171  36.085  30.699   9.464
 1621POPC   PO423172  36.135  30.728   9.164
 1621POPC   GL123173  36.091  30.694   8.864
 1621POPC   GL223174  36.142  30.849   8.864
 1621POPC   C1A23175  36.177  30.729   8.564
 1621POPC   D2A23176  36.118  30.746   8.264
 1621POPC   C3A23177  36.081  30.657   7.964
 1621POPC   C4A23178  36.135  30.667   7.664
 1621POPC   C1B23179  36.071  30.951   8.564
 1621POPC   C2B23180  36.068  30.946   8.264
 1621POPC   C3B23181  36.055  30.898   7.964
 1621POPC   C4B23182  36.071  30.957   7.664
 1622POPC   NC323183  19.792  41.548   9.464
 1622POPC   PO423184  19.822  41.574   9.164
 1622POPC   GL123185  19.810  41.568   8.864
 1622POPC   GL223186  19.838  41.398   8.864
 1622POPC   C1A23187  19.843  41.564   8.564
 1622POPC   D2A23188  19.859  41.593   8.264
 1622POPC   C3A23189  19.867  41.577   7.964
 1622POPC   C4A23190  19.820  41.561   7.664
 1622POPC   C1B23191  19.889  41.373   8.564
 1622POPC   C2B23192  19.887  41.337   8.264
 1622POPC   C3B23193  19.955  41.306   7.964
 1622POPC   C4B23194  19.952  41.366   7.664
 1623POPC   NC323195  10.548  22.210   9.464
 1623POPC   PO423196  10.512  22.134   9.164
 1623POPC   GL123197  10.529  22.197   8.864
 1623POPC   GL223198  10.617  22.024   8.864
 1623POPC   C1A23199  10.535  22.155   8.564
 1623POPC   D2A23200  10.565  22.185   8.264
 1623POPC   C3A23201  10.558  22.177   7.964
 1623POPC   C4A23202  10.570  22.161   7.664
 1623POPC   C1B23203  10.604  21.952   8.564
 1623POPC   C2B23204  10.643  21.892   8.264
 1623POPC   C3B23205  10.645  21.919   7.964
 1623POPC   C4B23206  10.611  21.919   7.664
 1624POPC   NC323207  41.543  41.589   9.464
 1624POPC   PO423208  41.565  41.599   9.164
 1624POPC   GL123209  41.514  41.511   8.864
 1624POPC   GL223210  41.576  41.641   8.864
 1624POPC   C1A23211  41.549  41.512   8.564
 1624POPC   D2A23212  41.593  41.514   8.264
 1624POPC   C3A23213  41.568  41.563   7.964
 1624POPC   C4A23214  41.579  41.566   7.664
 1624POPC   C1B23215  41.621  41.756   8.564
 1624POPC   C2B23216  41.688  41.794   8.264
 1624POPC   C3B23217  41.641  41.819   7.964
 1624POPC   C4B23218  41.666  41.836   7.664
 1625POPC   NC323219  43.153  35.343   9.464
 1625POPC   PO423220  43.114  35.400   9.164
 1625POPC   GL123221  43.135  35.365   8.864
 1625POPC   GL223222  42.977  35.271   8.864
 1625POPC   C1A23223  43.153  35.333   8.564
 1625POPC   D2A23224  43.155  35.336   8.264
 1625POPC   C3A23225  43.115  35.366   7.964
 1625POPC   C4A23226  43.121  35.380   7.664
 1625POPC   C1B23227  42.923  35.224   8.564
 1625POPC   C2B23228  42.942  35.193   8.264
 1625POPC   C3B23229  42.941  35.196   7.964
 1625POPC   C4B23230  42.912  35.213   7.664
 1626POPC   NC323231  36.880   4.363   9.464
 1626POPC   PO423232  36.855   4.357   9.164
 1626POPC   GL123233  36.853   4.354   8.864
 1626POPC   GL223234  36.989   4.446   8.864
 1626POPC   C1A23235  36.953   4.323   8.564
 1626POPC   D2A23236  36.934   4.335   8.264
 1626POPC   C3A23237  36.946   4.290   7.964
 1626POPC   C4A23238  36.945   4.298   7.664
 1626POPC   C1B23239  37.068   4.466   8.564
 1626POPC   C2B23240  37.115   4.531   8.264
 1626POPC   C3B23241  37.065   4.478   7.964
 1626POPC   C4B23242  37.100   4.443   7.664
 1627POPC   NC323243  39.978  31.434   9.464
 1627POPC   PO423244  39.977  31.466   9.164
 1627POPC   GL123245  39.961  31.450   8.864
 1627POPC   GL223246  39.905  31.456   8.864
 1627POPC   C1A23247  40.026  31.519   8.564
 1627POPC   D2A23248  40.026  31.456   8.264
 1627POPC   C3A23249  39.963  31.472   7.964
 1627POPC   C4A23250  39.983  31.430   7.664
 1627POPC   C1B23251  39.766  31.425   8.564
 1627POPC   C2B23252  39.725  31.430   8.264
 1627POPC   C3B23253  39.721  31.464   7.964
 1627POPC   C4B23254  39.791  31.431   7.664
 1628POPC   NC323255   4.279  44.675   9.464
 1628POPC   PO423256   4.295  44.657   9.164
 1628POPC   GL123257   4.339  44.660   8.864
 1628POPC   GL223258   4.240  44.515   8.864
 1628POPC   C1A23259   4.336  44.690   8.564
 1628POPC   D2A23260   4.304  44.612   8.264
 1628POPC   C3A23261   4.358  44.648   7.964
 1628POPC   C4A23262   4.365  44.624   7.664
 1628POPC   C1B23263   4.193  44.451   8.564
 1628POPC   C2B23264   4.167  44.396   8.264
 1628POPC   C3B23265   4.232  44.440   7.964
 1628POPC   C4B23266   4.190  44.461   7.664
 1629POPC   NC323267  43.144   5.057   9.464
 1629POPC   PO423268  43.112   5.133   9.164
 1629POPC   GL123269  43.117   5.117   8.864
 1629POPC   GL223270  43.095   4.992   8.864
 1629POPC   C1A23271  43.063   5.139   8.564
 1629POPC   D2A23272  43.065   5.095   8.264
 1629POPC   C3A23273  43.098   5.063   7.964
 1629POPC   C4A23274  43.105   5.049   7.664
 1629POPC   C1B23275  43.112   4.825   8.564
 1629POPC   C2B23276  43.109   4.834   8.264
 1629POPC   C3B23277  43.078   4.832   7.964
 1629POPC   C4B23278  43.088   4.816   7.664
 1630POPC   NC323279  11.281  39.983   9.464
 1630POPC   PO423280  11.309  39.995   9.164
 1630POPC   GL123281  11.346  40.003   8.864
 1630POPC   GL223282  11.181  39.962   8.864
 1630POPC   C1A23283  11.307  40.054   8.564
 1630POPC   D2A23284  11.268  40.042   8.264
 1630POPC   C3A23285  11.290  40.026   7.964
 1630POPC   C4A23286  11.321  40.035   7.664
 1630POPC   C1B23287  11.091  39.963   8.564
 1630POPC   C2B23288  11.002  40.049   8.264
 1630POPC   C3B23289  11.100  39.994   7.964
 1630POPC   C4B23290  11.040  39.994   7.664
 1631POPC   NC323291  15.982  12.836   9.464
 1631POPC   PO423292  15.924  12.864   9.164
 1631POPC   GL123293  15.923  12.867   8.864
 1631POPC   GL223294  15.929  12.930   8.864
 1631POPC   C1A23295  16.005  12.846   8.564
 1631POPC   D2A23296  15.916  12.887   8.264
 1631POPC   C3A23297  15.997  12.809   7.964
 1631POPC   C4A23298  15.969  12.820   7.664
 1631POPC   C1B23299  16.008  13.124   8.564
 1631POPC   C2B23300  15.967  13.115   8.264
 1631POPC   C3B23301  16.008  13.085   7.964
 1631POPC   C4B23302  16.026  13.052   7.664
 1632POPC   NC323303  29.167  24.518   9.464
 1632POPC   PO423304  29.149  24.512   9.164
 1632POPC   GL123305  29.146  24.465   8.864
 1632POPC   GL223306  29.118  24.649   8.864
 1632POPC   C1A23307  29.113  24.458   8.564
 1632POPC   D2A23308  29.186  24.493   8.264
 1632POPC   C3A23309  29.130  24.449   7.964
 1632POPC   C4A23310  29.156  24.482   7.664
 1632POPC   C1B23311  29.047  24.687   8.564
 1632POPC   C2B23312  29.011  24.721   8.264
 1632POPC   C3B23313  28.998  24.715   7.964
 1632POPC   C4B23314  29.067  24.694   7.664
 1633POPC   NC323315  15.204   4.354   9.464
 1633POPC   PO423316  15.170   4.299   9.164
 1633POPC   GL123317  15.189   4.277   8.864
 1633POPC   GL223318  15.084   4.363   8.864
 1633POPC   C1A23319  15.147   4.314   8.564
 1633POPC   D2A23320  15.220   4.301   8.264
 1633POPC   C3A23321  15.193   4.271   7.964
 1633POPC   C4A23322  15.200   4.279   7.664
 1633POPC   C1B23323  14.908   4.351   8.564
 1633POPC   C2B23324  14.954   4.371   8.264
 1633POPC   C3B23325  14.951   4.363   7.964
 1633POPC   C4B23326  14.969   4.279   7.664
 1634POPC   NC323327   9.744   8.221   9.464
 1634POPC   PO423328   9.710   8.217   9.164
 1634POPC   GL123329   9.731   8.153   8.864
 1634POPC   GL223330   9.744   8.052   8.864
 1634POPC   C1A23331   9.706   8.155   8.564
 1634POPC   D2A23332   9.735   8.191   8.264
 1634POPC   C3A23333   9.717   8.238   7.964
 1634POPC   C4A23334   9.769   8.153   7.664
 1634POPC   C1B23335   9.789   7.969   8.564
 1634POPC   C2B23336   9.790   7.909   8.264
 1634POPC   C3B23337   9.792   7.941   7.964
 1634POPC   C4B23338   9.789   7.938   7.664
 1635POPC   NC323339  27.629  44.620   9.464
 1635POPC   PO423340  27.630  44.685   9.164
 1635POPC   GL123341  27.638  44.616   8.864
 1635POPC   GL223342  27.454  44.566   8.864
 1635POPC   C1A23343  27.553  44.709   8.564
 1635POPC   D2A23344  27.639  44.639   8.264
 1635POPC   C3A23345  27.597  44.675   7.964
 1635POPC   C4A23346  27.618  44.708   7.664
 1635POPC   C1B23347  27.375  44.566   8.564
 1635POPC   C2B23348  27.369  44.552   8.264
 1635POPC   C3B23349  27.392  44.491   7.964
 1635POPC   C4B23350  27.392  44.528   7.664
 1636POPC   NC323351  12.058  15.988   9.464
 1636POPC   PO423352  12.055  15.984   9.164
 1636POPC   GL123353  12.096  15.979   8.864
 1636POPC   GL223354  12.233  16.035   8.864
 1636POPC   C1A23355  12.100  15.905   8.564
 1636POPC   D2A23356  12.086  15.923   8.264
 1636POPC   C3A23357  12.092  15.969   7.964
 1636POPC   C4A23358  12.099  15.970   7.664
 1636POPC   C1B23359  12.319  16.081   8.564
 1636POPC   C2B23360  12.260  16.100   8.264
 1636POPC   C3B23361  12.291  16.028   7.964
 1636POPC   C4B23362  12.325  16.099   7.664
 1637POPC   NC323363   0.476  12.830   9.464
 1637POPC   PO423364   0.480  12.868   9.164
 1637POPC   GL123365   0.393  12.827   8.864
 1637POPC   GL223366   0.292  12.777   8.864
 1637POPC   C1A23367   0.486  12.863   8.564
 1637POPC   D2A23368   0.451  12.891   8.264
 1637POPC   C3A23369   0.446  12.893   7.964
 1637POPC   C4A23370   0.488  12.899   7.664
 1637POPC   C1B23371   0.182  12.824   8.564
 1637POPC   C2B23372   0.173  12.827   8.264
 1637POPC   C3B23373   0.218  12.779   7.964
 1637POPC   C4B23374   0.217  12.765   7.664
 1638POPC   NC323375   2.757  38.432   9.464
 1638POPC   PO423376   2.719  38.473   9.164
 1638POPC   GL123377   2.743  38.407   8.864
 1638POPC   GL223378   2.622  38.427   8.864
 1638POPC   C1A23379   2.758  38.450   8.564
 1638POPC   D2A23380   2.723  38.475   8.264
 1638POPC   C3A23381   2.774  38.409   7.964
 1638POPC   C4A23382   2.748  38.460   7.664
 1638POPC   C1B23383   2.508  38.410   8.564
 1638POPC   C2B23384   2.471  38.400   8.264
 1638POPC   C3B23385   2.561  38.436   7.964
 1638POPC   C4B23386   2.539  38.417   7.664
 1639POPC   NC323387  43.123  33.054   9.464
 1639POPC   PO423388  43.127  33.044   9.164
 1639POPC   GL123389  43.146  33.069   8.864
 1639POPC   GL223390  43.092  32.895   8.864
 1639POPC   C1A23391  43.075  33.017   8.564
 1639POPC   D2A23392  43.068  33.019   8.264
 1639POPC   C3A23393  43.126  33.001   7.964
 1639POPC   C4A23394  43.120  33.008   7.664
 1639POPC   C1B23395  43.058  32.764   8.564
 1639POPC   C2B23396  42.980  32.748   8.264
 1639POPC   C3B23397  43.033  32.833   7.964
 1639POPC   C4B23398  43.016  32.794   7.664
 1640POPC   NC323399   2.728  19.090   9.464
 1640POPC   PO423400   2.762  19.093   9.164
 1640POPC   GL123401   2.784  19.057   8.864
 1640POPC   GL223402   2.832  18.981   8.864
 1640POPC   C1A23403   2.740  19.042   8.564
 1640POPC   D2A23404   2.798  19.101   8.264
 1640POPC   C3A23405   2.769  19.067   7.964
 1640POPC   C4A23406   2.780  19.073   7.664
 1640POPC   C1B23407   2.865  18.832   8.564
 1640POPC   C2B23408   2.865  18.788   8.264
 1640POPC   C3B23409   2.782  18.804   7.964
 1640POPC   C4B23410   2.820  18.786   7.664
 1641POPC   NC323411   5.882   8.215   9.464
 1641POPC   PO423412   5.897   8.172   9.164
 1641POPC   GL123413   5.880   8.154   8.864
 1641POPC   GL223414   5.818   8.134   8.864
 1641POPC   C1A23415   5.915   8.231   8.564
 1641POPC   D2A23416   5.873   8.177   8.264
 1641POPC   C3A23417   5.870   8.243   7.964
 1641POPC   C4A23418   5.893   8.195   7.664
 1641POPC   C1B23419   5.690   7.942   8.564
 1641POPC   C2B23420   5.761   7.951   8.264
 1641POPC   C3B23421   5.746   7.984   7.964
 1641POPC   C4B23422   5.729   7.958   7.664
 1642POPC   NC323423   8.936  44.617   9.464
 1642POPC   PO423424   8.962  44.703   9.164
 1642POPC   GL123425   8.935  44.686   8.864
 1642POPC   GL223426   9.081  44.537   8.864
 1642POPC   C1A23427   8.955  44.693   8.564
 1642POPC   D2A23428   8.932  44.702   8.264
 1642POPC   C3A23429   8.997  44.656   7.964
 1642POPC   C4A23430   8.951  44.669   7.664
 1642POPC   C1B23431   9.108  44.512   8.564
 1642POPC   C2B23432   9.178  44.453   8.264
 1642POPC   C3B23433   9.192  44.472   7.964
 1642POPC   C4B23434   9.193  44.448   7.664
 1643POPC   NC323435  30.671  19.807   9.464
 1643POPC   PO423436  30.659  19.789   9.164
 1643POPC   GL123437  30.731  19.822   8.864
 1643POPC   GL223438  30.564  19.833   8.864
 1643POPC   C1A23439  30.723  19.855   8.564
 1643POPC   D2A23440  30.649  19.882   8.264
 1643POPC   C3A23441  30.728  19.872   7.964
 1643POPC   C4A23442  30.685  19.863   7.664
 1643POPC   C1B23443  30.475  19.918   8.564
 1643POPC   C2B23444  30.430  19.867   8.264
 1643POPC   C3B23445  30.446  19.920   7.964
 1643POPC   C4B23446  30.493  19.865   7.664
 1644POPC   NC323447  25.233  19.816   9.464
 1644POPC   PO423448  25.216  19.798   9.164
 1644POPC   GL123449  25.242  19.800   8.864
 1644POPC   GL223450  25.161  19.792   8.864
 1644POPC   C1A23451  25.257  19.808   8.564
 1644POPC   D2A23452  25.273  19.816   8.264
 1644POPC   C3A23453  25.242  19.808   7.964
 1644POPC   C4A23454  25.282  19.871   7.664
 1644POPC   C1B23455  25.086  19.724   8.564
 1644POPC   C2B23456  25.048  19.695   8.264
 1644POPC   C3B23457  25.019  19.760   7.964
 1644POPC   C4B23458  25.055  19.754   7.664
 1645POPC   NC323459  19.050   6.637   9.464
 1645POPC   PO423460  19.102   6.650   9.164
 1645POPC   GL123461  19.063   6.625   8.864
 1645POPC   GL223462  19.094   6.548   8.864
 1645POPC   C1A23463  19.060   6.651   8.564
 1645POPC   D2A23464  19.024   6.597   8.264
 1645POPC   C3A23465  19.074   6.636   7.964
 1645POPC   C4A23466  19.089   6.677   7.664
 1645POPC   C1B23467  19.090   6.403   8.564
 1645POPC   C2B23468  19.068   6.403   8.264
 1645POPC   C3B23469  19.085   6.368   7.964
 1645POPC   C4B23470  19.074   6.437   7.664
 1646POPC   NC323471  12.885  30.707   9.464
 1646POPC   PO423472  12.891  30.696   9.164
 1646POPC   GL123473  12.803  30.717   8.864
 1646POPC   GL223474  12.785  30.537   8.864
 1646POPC   C1A23475  12.881  30.724   8.564
 1646POPC   D2A23476  12.856  30.729   8.264
 1646POPC   C3A23477  12.832  30.667   7.964
 1646POPC   C4A23478  12.820  30.725   7.664
 1646POPC   C1B23479  12.817  30.424   8.564
 1646POPC   C2B23480  12.791  30.441   8.264
 1646POPC   C3B23481  12.744  30.466   7.964
 1646POPC   C4B23482  12.725  30.454   7.664
 1647POPC   NC323483   0.440  39.201   9.464
 1647POPC   PO423484   0.485  39.262   9.164
 1647POPC   GL123485   0.433  39.201   8.864
 1647POPC   GL223486   0.555  39.190   8.864
 1647POPC   C1A23487   0.454  39.226   8.564
 1647POPC   D2A23488   0.475  39.220   8.264
 1647POPC   C3A23489   0.474  39.271   7.964
 1647POPC   C4A23490   0.400  39.185   7.664
 1647POPC   C1B23491   0.613  39.131   8.564
 1647POPC   C2B23492   0.616  39.071   8.264
 1647POPC   C3B23493   0.603  39.038   7.964
 1647POPC   C4B23494   0.679  39.037   7.664
 1648POPC   NC323495  22.201  32.277   9.464
 1648POPC   PO423496  22.200  32.281   9.164
 1648POPC   GL123497  22.183  32.238   8.864
 1648POPC   GL223498  22.265  32.218   8.864
 1648POPC   C1A23499  22.176  32.250   8.564
 1648POPC   D2A23500  22.138  32.223   8.264
 1648POPC   C3A23501  22.130  32.265   7.964
 1648POPC   C4A23502  22.152  32.252   7.664
 1648POPC   C1B23503  22.371  32.135   8.564
 1648POPC   C2B23504  22.406  32.152   8.264
 1648POPC   C3B23505  22.350  32.204   7.964
 1648POPC   C4B23506  22.359  32.171   7.664
 1649POPC   NC323507  13.637  27.595   9.464
 1649POPC   PO423508  13.595  27.625   9.164
 1649POPC   GL123509  13.588  27.639   8.864
 1649POPC   GL223510  13.463  27.594   8.864
 1649POPC   C1A23511  13.658  27.630   8.564
 1649POPC   D2A23512  13.617  27.592   8.264
 1649POPC   C3A23513  13.635  27.623   7.964
 1649POPC   C4A23514  13.606  27.616   7.664
 1649POPC   C1B23515  13.352  27.604   8.564
 1649POPC   C2B23516  13.369  27.632   8.264
 1649POPC   C3B23517  13.351  27.541   7.964
 1649POPC   C4B23518  13.417  27.603   7.664
 1650POPC   NC323519  43.114  42.303   9.464
 1650POPC   PO423520  43.103  42.368   9.164
 1650POPC   GL123521  43.149  42.335   8.864
 1650POPC   GL223522  43.116  42.185   8.864
 1650POPC   C1A23523  43.132  42.308   8.564
 1650POPC   D2A23524  43.157  42.291   8.264
 1650POPC   C3A23525  43.087  42.321   7.964
 1650POPC   C4A23526  43.071  42.364   7.664
 1650POPC   C1B23527  43.029  42.109   8.564
 1650POPC   C2B23528  43.033  42.091   8.264
 1650POPC   C3B23529  43.044  42.118   7.964
 1650POPC   C4B23530  43.079  42.058   7.664
 1651POPC   NC323531  42.338   2.038   9.464
 1651POPC   PO423532  42.347   1.994   9.164
 1651POPC   GL123533  42.336   2.017   8.864
 1651POPC   GL223534  42.228   2.087   8.864
 1651POPC   C1A23535  42.302   1.993   8.564
 1651POPC   D2A23536  42.352   2.018   8.264
 1651POPC   C3A23537  42.372   1.998   7.964
 1651POPC   C4A23538  42.285   1.967   7.664
 1651POPC   C1B23539  42.117   2.087   8.564
 1651POPC   C2B23540  42.130   2.108   8.264
 1651POPC   C3B23541  42.067   2.084   7.964
 1651POPC   C4B23542  42.103   2.084   7.664
 1652POPC   NC323543  20.641   5.829   9.464
 1652POPC   PO423544  20.656   5.898   9.164
 1652POPC   GL123545  20.566   5.832   8.864
 1652POPC   GL223546  20.574   5.981   8.864
 1652POPC   C1A23547  20.612   5.895   8.564
 1652POPC   D2A23548  20.574   5.838   8.264
 1652POPC   C3A23549  20.647   5.862   7.964
 1652POPC   C4A23550  20.653   5.851   7.664
 1652POPC   C1B23551  20.570   6.123   8.564
 1652POPC   C2B23552  20.558   6.087   8.264
 1652POPC   C3B23553  20.553   6.078   7.964
 1652POPC   C4B23554  20.595   6.078   7.664
 1653POPC   NC323555  17.502  31.482   9.464
 1653POPC   PO423556  17.531  31.442   9.164
 1653POPC   GL123557  17.492  31.496   8.864
 1653POPC   GL223558  17.574  31.398   8.864
 1653POPC   C1A23559  17.503  31.446   8.564
 1653POPC   D2A23560  17.482  31.515   8.264
 1653POPC   C3A23561  17.532  31.461   7.964
 1653POPC   C4A23562  17.499  31.456   7.664
 1653POPC   C1B23563  17.626  31.282   8.564
 1653POPC   C2B23564  17.621  31.230   8.264
 1653POPC   C3B23565  17.597  31.246   7.964
 1653POPC   C4B23566  17.623  31.286   7.664
 1654POPC   NC323567   4.294  36.165   9.464
 1654POPC   PO423568   4.330  36.088   9.164
 1654POPC   GL123569   4.367  36.111   8.864
 1654POPC   GL223570   4.429  36.099   8.864
 1654POPC   C1A23571   4.271  36.148   8.564
 1654POPC   D2A23572   4.344  36.143   8.264
 1654POPC   C3A23573   4.303  36.143   7.964
 1654POPC   C4A23574   4.340  36.177   7.664
 1654POPC   C1B23575   4.590  36.040   8.564
 1654POPC   C2B23576   4.571  36.097   8.264
 1654POPC   C3B23577   4.594  36.072   7.964
 1654POPC   C4B23578   4.530  36.017   7.664
 1655POPC   NC323579  20.653   8.168   9.464
 1655POPC   PO423580  20.658   8.206   9.164
 1655POPC   GL123581  20.619   8.149   8.864
 1655POPC   GL223582  20.646   8.054   8.864
 1655POPC   C1A23583  20.581   8.184   8.564
 1655POPC   D2A23584  20.599   8.155   8.264
 1655POPC   C3A23585  20.615   8.195   7.964
 1655POPC   C4A23586  20.575   8.168   7.664
 1655POPC   C1B23587  20.598   7.998   8.564
 1655POPC   C2B23588  20.650   7.911   8.264
 1655POPC   C3B23589  20.612   7.934   7.964
 1655POPC   C4B23590  20.616   7.969   7.664
 1656POPC   NC323591  44.665  22.954   9.464
 1656POPC   PO423592  44.620  22.893   9.164
 1656POPC   GL123593  44.624  22.946   8.864
 1656POPC   GL223594  44.673  22.860   8.864
 1656POPC   C1A23595  44.671  22.969   8.564
 1656POPC   D2A23596  44.616  22.965   8.264
 1656POPC   C3A23597  44.701  22.897   7.964
 1656POPC   C4A23598  44.655  22.967   7.664
 1656POPC   C1B23599  44.624  22.692   8.564
 1656POPC   C2B23600  44.567  22.682   8.264
 1656POPC   C3B23601  44.556  22.700   7.964
 1656POPC   C4B23602  44.563  22.670   7.664
 1657POPC   NC323603   1.967  39.220   9.464
 1657POPC   PO423604   1.951  39.251   9.164
 1657POPC   GL123605   2.034  39.230   8.864
 1657POPC   GL223606   1.944  39.099   8.864
 1657POPC   C1A23607   2.008  39.185   8.564
 1657POPC   D2A23608   1.971  39.257   8.264
 1657POPC   C3A23609   1.957  39.280   7.964
 1657POPC   C4A23610   1.986  39.213   7.664
 1657POPC   C1B23611   1.912  39.013   8.564
 1657POPC   C2B23612   1.940  38.962   8.264
 1657POPC   C3B23613   1.974  38.941   7.964
 1657POPC   C4B23614   1.986  38.935   7.664
 1658POPC   NC323615  11.294  27.615   9.464
 1658POPC   PO423616  11.278  27.602   9.164
 1658POPC   GL123617  11.325  27.637   8.864
 1658POPC   GL223618  11.291  27.514   8.864
 1658POPC   C1A23619  11.337  27.599   8.564
 1658POPC   D2A23620  11.319  27.576   8.264
 1658POPC   C3A23621  11.295  27.608   7.964
 1658POPC   C4A23622  11.281  27.579   7.664
 1658POPC   C1B23623  11.298  27.306   8.564
 1658POPC   C2B23624  11.278  27.314   8.264
 1658POPC   C3B23625  11.216  27.314   7.964
 1658POPC   C4B23626  11.231  27.340   7.664
 1659POPC   NC323627  21.337  33.829   9.464
 1659POPC   PO423628  21.403  33.796   9.164
 1659POPC   GL123629  21.391  33.810   8.864
 1659POPC   GL223630  21.554  33.841   8.864
 1659POPC   C1A23631  21.421  33.753   8.564
 1659POPC   D2A23632  21.415  33.755   8.264
 1659POPC   C3A23633  21.378  33.846   7.964
 1659POPC   C4A23634  21.433  33.828   7.664
 1659POPC   C1B23635  21.627  33.812   8.564
 1659POPC   C2B23636  21.640  33.811   8.264
 1659POPC   C3B23637  21.661  33.886   7.964
 1659POPC   C4B23638  21.661  33.888   7.664
 1660POPC   NC323639  43.839  11.310   9.464
 1660POPC   PO423640  43.927  11.292   9.164
 1660POPC   GL123641  43.867  11.297   8.864
 1660POPC   GL223642  43.994  11.294   8.864
 1660POPC   C1A23643  43.904  11.274   8.564
 1660POPC   D2A23644  43.921  11.304   8.264
 1660POPC   C3A23645  43.846  11.319   7.964
 1660POPC   C4A23646  43.865  11.283   7.664
 1660POPC   C1B23647  44.132  11.340   8.564
 1660POPC   C2B23648  44.091  11.408   8.264
 1660POPC   C3B23649  44.128  11.392   7.964
 1660POPC   C4B23650  44.168  11.402   7.664
 1661POPC   NC323651  30.717  20.616   9.464
 1661POPC   PO423652  30.668  20.640   9.164
 1661POPC   GL123653  30.695  20.600   8.864
 1661POPC   GL223654  30.790  20.496   8.864
 1661POPC   C1A23655  30.746  20.624   8.564
 1661POPC   D2A23656  30.674  20.588   8.264
 1661POPC   C3A23657  30.715  20.573   7.964
 1661POPC   C4A23658  30.732  20.617   7.664
 1661POPC   C1B23659  30.935  20.494   8.564
 1661POPC   C2B23660  30.939  20.424   8.264
 1661POPC   C3B23661  30.893  20.457   7.964
 1661POPC   C4B23662  30.930  20.502   7.664
 1662POPC   NC323663  18.309  32.240   9.464
 1662POPC   PO423664  18.234  32.273   9.164
 1662POPC   GL123665  18.331  32.246   8.864
 1662POPC   GL223666  18.347  32.335   8.864
 1662POPC   C1A23667  18.300  32.237   8.564
 1662POPC   D2A23668  18.245  32.250   8.264
 1662POPC   C3A23669  18.317  32.200   7.964
 1662POPC   C4A23670  18.266  32.201   7.664
 1662POPC   C1B23671  18.385  32.436   8.564
 1662POPC   C2B23672  18.415  32.445   8.264
 1662POPC   C3B23673  18.380  32.446   7.964
 1662POPC   C4B23674  18.367  32.424   7.664
 1663POPC   NC323675  26.847  38.477   9.464
 1663POPC   PO423676  26.801  38.446   9.164
 1663POPC   GL123677  26.832  38.430   8.864
 1663POPC   GL223678  26.937  38.375   8.864
 1663POPC   C1A23679  26.813  38.414   8.564
 1663POPC   D2A23680  26.771  38.458   8.264
 1663POPC   C3A23681  26.818  38.495   7.964
 1663POPC   C4A23682  26.774  38.421   7.664
 1663POPC   C1B23683  27.003  38.297   8.564
 1663POPC   C2B23684  27.020  38.210   8.264
 1663POPC   C3B23685  26.954  38.223   7.964
 1663POPC   C4B23686  26.925  38.220   7.664
 1664POPC   NC323687  32.296  26.793   9.464
 1664POPC   PO423688  32.289  26.770   9.164
 1664POPC   GL123689  32.263  26.829   8.864
 1664POPC   GL223690  32.279  26.732   8.864
 1664POPC   C1A23691  32.298  26.856   8.564
 1664POPC   D2A23692  32.228  26.798   8.264
 1664POPC   C3A23693  32.286  26.812   7.964
 1664POPC   C4A23694  32.205  26.859   7.664
 1664POPC   C1B23695  32.414  26.600   8.564
 1664POPC   C2B23696  32.346  26.659   8.264
 1664POPC   C3B23697  32.405  26.587   7.964
 1664POPC   C4B23698  32.432  26.662   7.664
 1665POPC   NC323699   5.873  22.124   9.464
 1665POPC   PO423700   5.869  22.158   9.164
 1665POPC   GL123701   5.893  22.163   8.864
 1665POPC   GL223702   5.790  22.181   8.864
 1665POPC   C1A23703   5.868  22.196   8.564
 1665POPC   D2A23704   5.870  22.202   8.264
 1665POPC   C3A23705   5.913  22.162   7.964
 1665POPC   C4A23706   5.898  22.146   7.664
 1665POPC   C1B23707   5.658  22.297   8.564
 1665POPC   C2B23708   5.659  22.317   8.264
 1665POPC   C3B23709   5.672  22.253   7.964
 1665POPC   C4B23710   5.642  22.320   7.664
 1666POPC   NC323711  13.596  26.831   9.464
 1666POPC   PO423712  13.579  26.843   9.164
 1666POPC   GL123713  13.648  26.810   8.864
 1666POPC   GL223714  13.695  26.752   8.864
 1666POPC   C1A23715  13.654  26.843   8.564
 1666POPC   D2A23716  13.653  26.801   8.264
 1666POPC   C3A23717  13.598  26.779   7.964
 1666POPC   C4A23718  13.586  26.829   7.664
 1666POPC   C1B23719  13.740  26.676   8.564
 1666POPC   C2B23720  13.821  26.616   8.264
 1666POPC   C3B23721  13.756  26.655   7.964
 1666POPC   C4B23722  13.837  26.602   7.664
 1667POPC   NC323723  36.949  29.883   9.464
 1667POPC   PO423724  36.936  29.908   9.164
 1667POPC   GL123725  36.949  29.957   8.864
 1667POPC   GL223726  37.006  29.987   8.864
 1667POPC   C1A23727  36.912  29.961   8.564
 1667POPC   D2A23728  36.952  29.884   8.264
 1667POPC   C3A23729  36.923  29.970   7.964
 1667POPC   C4A23730  36.886  29.953   7.664
 1667POPC   C1B23731  37.064  30.096   8.564
 1667POPC   C2B23732  37.129  30.095   8.264
 1667POPC   C3B23733  37.055  30.087   7.964
 1667POPC   C4B23734  37.089  30.052   7.664
 1668POPC   NC323735  38.495  11.324   9.464
 1668POPC   PO423736  38.448  11.255   9.164
 1668POPC   GL123737  38.478  11.256   8.864
 1668POPC   GL223738  38.538  11.369   8.864
 1668POPC   C1A23739  38.420  11.255   8.564
 1668POPC   D2A23740  38.446  11.326   8.264
 1668POPC   C3A23741  38.502  11.277   7.964
 1668POPC   C4A23742  38.478  11.311   7.664
 1668POPC   C1B23743  38.626  11.413   8.564
 1668POPC   C2B23744  38.650  11.388   8.264
 1668POPC   C3B23745  38.648  11.433   7.964
 1668POPC   C4B23746  38.702  11.414   7.664
 1669POPC   NC323747  14.421  22.975   9.464
 1669POPC   PO423748  14.438  22.913   9.164
 1669POPC   GL123749  14.438  22.964   8.864
 1669POPC   GL223750  14.327  22.979   8.864
 1669POPC   C1A23751  14.390  22.932   8.564
 1669POPC   D2A23752  14.417  22.926   8.264
 1669POPC   C3A23753  14.444  22.947   7.964
 1669POPC   C4A23754  14.413  22.978   7.664
 1669POPC   C1B23755  14.221  23.120   8.564
 1669POPC   C2B23756  14.240  23.062   8.264
 1669POPC   C3B23757  14.196  23.088   7.964
 1669POPC   C4B23758  14.167  23.129   7.664
 1670POPC   NC323759  15.999  28.329   9.464
 1670POPC   PO423760  16.003  28.370   9.164
 1670POPC   GL123761  15.944  28.416   8.864
 1670POPC   GL223762  16.063  28.235   8.864
 1670POPC   C1A23763  15.908  28.403   8.564
 1670POPC   D2A23764  15.983  28.331   8.264
 1670POPC   C3A23765  15.956  28.368   7.964
 1670POPC   C4A23766  15.941  28.341   7.664
 1670POPC   C1B23767  16.129  28.146   8.564
 1670POPC   C2B23768  16.122  28.149   8.264
 1670POPC   C3B23769  16.102  28.171   7.964
 1670POPC   C4B23770  16.142  28.149   7.664
 1671POPC   NC323771  26.021   3.565   9.464
 1671POPC   PO423772  26.085   3.563   9.164
 1671POPC   GL123773  26.005   3.501   8.864
 1671POPC   GL223774  25.924   3.513   8.864
 1671POPC   C1A23775  26.088   3.570   8.564
 1671POPC   D2A23776  26.079   3.536   8.264
 1671POPC   C3A23777  26.056   3.547   7.964
 1671POPC   C4A23778  26.010   3.568   7.664
 1671POPC   C1B23779  25.744   3.512   8.564
 1671POPC   C2B23780  25.836   3.553   8.264
 1671POPC   C3B23781  25.792   3.546   7.964
 1671POPC   C4B23782  25.819   3.541   7.664
 1672POPC   NC323783  39.267  43.077   9.464
 1672POPC   PO423784  39.233  43.131   9.164
 1672POPC   GL123785  39.210  43.107   8.864
 1672POPC   GL223786  39.086  43.183   8.864
 1672POPC   C1A23787  39.251  43.121   8.564
 1672POPC   D2A23788  39.222  43.128   8.264
 1672POPC   C3A23789  39.262  43.135   7.964
 1672POPC   C4A23790  39.201  43.082   7.664
 1672POPC   C1B23791  38.999  43.165   8.564
 1672POPC   C2B23792  38.992  43.244   8.264
 1672POPC   C3B23793  39.039  43.215   7.964
 1672POPC   C4B23794  39.041  43.188   7.664
 1673POPC   NC323795   0.424   3.519   9.464
 1673POPC   PO423796   0.399   3.558   9.164
 1673POPC   GL123797   0.469   3.516   8.864
 1673POPC   GL223798   0.459   3.688   8.864
 1673POPC   C1A23799   0.465   3.514   8.564
 1673POPC   D2A23800   0.447   3.539   8.264
 1673POPC   C3A23801   0.391   3.520   7.964
 1673POPC   C4A23802   0.485   3.509   7.664
 1673POPC   C1B23803   0.580   3.744   8.564
 1673POPC   C2B23804   0.505   3.745   8.264
 1673POPC   C3B23805   0.489   3.750   7.964
 1673POPC   C4B23806   0.551   3.802   7.664
 1674POPC   NC323807   1.188   0.435   9.464
 1674POPC   PO423808   1.210   0.450   9.164
 1674POPC   GL123809   1.188   0.388   8.864
 1674POPC   GL223810   1.200   0.340   8.864
 1674POPC   C1A23811   1.191   0.459   8.564
 1674POPC   D2A23812   1.244   0.430   8.264
 1674POPC   C3A23813   1.213   0.445   7.964
 1674POPC   C4A23814   1.213   0.468   7.664
 1674POPC   C1B23815   1.251   0.218   8.564
 1674POPC   C2B23816   1.245   0.237   8.264
 1674POPC   C3B23817   1.197   0.173   7.964
 1674POPC   C4B23818   1.261   0.177   7.664
 1675POPC   NC323819  43.890  42.322   9.464
 1675POPC   PO423820  43.845  42.326   9.164
 1675POPC   GL123821  43.890  42.308   8.864
 1675POPC   GL223822  43.993  42.464   8.864
 1675POPC   C1A23823  43.872  42.303   8.564
 1675POPC   D2A23824  43.888  42.314   8.264
 1675POPC   C3A23825  43.850  42.354   7.964
 1675POPC   C4A23826  43.932  42.375   7.664
 1675POPC   C1B23827  44.047  42.553   8.564
 1675POPC   C2B23828  44.009  42.563   8.264
 1675POPC   C3B23829  44.090  42.556   7.964
 1675POPC   C4B23830  44.079  42.531   7.664
 1676POPC   NC323831  26.810  14.426   9.464
 1676POPC   PO423832  26.831  14.384   9.164
 1676POPC   GL123833  26.845  14.362   8.864
 1676POPC   GL223834  26.728  14.324   8.864
 1676POPC   C1A23835  26.770  14.356   8.564
 1676POPC   D2A23836  26.774  14.397   8.264
 1676POPC   C3A23837  26.774  14.385   7.964
 1676POPC   C4A23838  26.794  14.407   7.664
 1676POPC   C1B23839  26.670  14.200   8.564
 1676POPC   C2B23840  26.660  14.158   8.264
 1676POPC   C3B23841  26.642  14.198   7.964
 1676POPC   C4B23842  26.679  14.150   7.664
 1677POPC   NC323843  12.872  15.133   9.464
 1677POPC   PO423844  12.813  15.137   9.164
 1677POPC   GL123845  12.812  15.221   8.864
 1677POPC   GL223846  12.961  15.287   8.864
 1677POPC   C1A23847  12.817  15.154   8.564
 1677POPC   D2A23848  12.832  15.159   8.264
 1677POPC   C3A23849  12.820  15.212   7.964
 1677POPC   C4A23850  12.843  15.227   7.664
 1677POPC   C1B23851  13.057  15.309   8.564
 1677POPC   C2B23852  13.010  15.352   8.264
 1677POPC   C3B23853  13.074  15.402   7.964
 1677POPC   C4B23854  13.000  15.381   7.664
 1678POPC   NC323855   4.319  33.064   9.464
 1678POPC   PO423856   4.301  33.067   9.164
 1678POPC   GL123857   4.291  32.998   8.864
 1678POPC   GL223858   4.227  32.941   8.864
 1678POPC   C1A23859   4.295  32.979   8.564
 1678POPC   D2A23860   4.298  32.985   8.264
 1678POPC   C3A23861   4.315  32.978   7.964
 1678POPC   C4A23862   4.316  32.988   7.664
 1678POPC   C1B23863   4.119  32.919   8.564
 1678POPC   C2B23864   4.075  32.868   8.264
 1678POPC   C3B23865   4.082  32.893   7.964
 1678POPC   C4B23866   4.054  32.890   7.664
 1679POPC   NC323867   9.707  31.498   9.464
 1679POPC   PO423868   9.752  31.462   9.164
 1679POPC   GL123869   9.792  31.507   8.864
 1679POPC   GL223870   9.761  31.552   8.864
 1679POPC   C1A23871   9.760  31.435   8.564
 1679POPC   D2A23872   9.705  31.466   8.264
 1679POPC   C3A23873   9.707  31.453   7.964
 1679POPC   C4A23874   9.725  31.429   7.664
 1679POPC   C1B23875   9.807  31.756   8.564
 1679POPC   C2B23876   9.805  31.700   8.264
 1679POPC   C3B23877   9.776  31.755   7.964
 1679POPC   C4B23878   9.789  31.736   7.664
 1680POPC   NC323879  35.358   0.410   9.464
 1680POPC   PO423880  35.342   0.445   9.164
 1680POPC   GL123881  35.375   0.391   8.864
 1680POPC   GL223882  35.392   0.556   8.864
 1680POPC   C1A23883  35.357   0.476   8.564
 1680POPC   D2A23884  35.332   0.437   8.264
 1680POPC   C3A23885  35.307   0.472   7.964
 1680POPC   C4A23886  35.396   0.484   7.664
 1680POPC   C1B23887  35.408   0.716   8.564
 1680POPC   C2B23888  35.387   0.652   8.264
 1680POPC   C3B23889  35.442   0.652   7.964
 1680POPC   C4B23890  35.449   0.637   7.664
 1681POPC   NC323891   4.272  20.655   9.464
 1681POPC   PO423892   4.313  20.577   9.164
 1681POPC   GL123893   4.275  20.604   8.864
 1681POPC   GL223894   4.358  20.530   8.864
 1681POPC   C1A23895   4.278  20.609   8.564
 1681POPC   D2A23896   4.271  20.569   8.264
 1681POPC   C3A23897   4.314  20.567   7.964
 1681POPC   C4A23898   4.297  20.608   7.664
 1681POPC   C1B23899   4.461  20.359   8.564
 1681POPC   C2B23900   4.439  20.387   8.264
 1681POPC   C3B23901   4.427  20.341   7.964
 1681POPC   C4B23902   4.390  20.385   7.664
 1682POPC   NC323903  20.637  42.382   9.464
 1682POPC   PO423904  20.653  42.325   9.164
 1682POPC   GL123905  20.596  42.376   8.864
 1682POPC   GL223906  20.633  42.181   8.864
 1682POPC   C1A23907  20.591  42.370   8.564
 1682POPC   D2A23908  20.605  42.327   8.264
 1682POPC   C3A23909  20.580  42.298   7.964
 1682POPC   C4A23910  20.622  42.323   7.664
 1682POPC   C1B23911  20.553  42.086   8.564
 1682POPC   C2B23912  20.571  42.109   8.264
 1682POPC   C3B23913  20.544  42.109   7.964
 1682POPC   C4B23914  20.588  42.054   7.664
 1683POPC   NC323915   1.249  27.624   9.464
 1683POPC   PO423916   1.167  27.606   9.164
 1683POPC   GL123917   1.261  27.620   8.864
 1683POPC   GL223918   1.302  27.506   8.864
 1683POPC   C1A23919   1.186  27.547   8.564
 1683POPC   D2A23920   1.250  27.614   8.264
 1683POPC   C3A23921   1.231  27.607   7.964
 1683POPC   C4A23922   1.185  27.556   7.664
 1683POPC   C1B23923   1.397  27.437   8.564
 1683POPC   C2B23924   1.360  27.431   8.264
 1683POPC   C3B23925   1.357  27.386   7.964
 1683POPC   C4B23926   1.342  27.455   7.664
 1684POPC   NC323927   8.165  15.211   9.464
 1684POPC   PO423928   8.203  15.162   9.164
 1684POPC   GL123929   8.237  15.156   8.864
 1684POPC   GL223930   8.150  15.009   8.864
 1684POPC   C1A23931   8.151  15.200   8.564
 1684POPC   D2A23932   8.232  15.203   8.264
 1684POPC   C3A23933   8.189  15.130   7.964
 1684POPC   C4A23934   8.192  15.203   7.664
 1684POPC   C1B23935   8.158  14.882   8.564
 1684POPC   C2B23936   8.230  14.916   8.264
 1684POPC   C3B23937   8.210  14.894   7.964
 1684POPC   C4B23938   8.219  14.894   7.664
 1685POPC   NC323939   0.413   0.450   9.464
 1685POPC   PO423940   0.397   0.421   9.164
 1685POPC   GL123941   0.411   0.464   8.864
 1685POPC   GL223942   0.468   0.537   8.864
 1685POPC   C1A23943   0.478   0.432   8.564
 1685POPC   D2A23944   0.427   0.466   8.264
 1685POPC   C3A23945   0.405   0.394   7.964
 1685POPC   C4A23946   0.455   0.440   7.664
 1685POPC   C1B23947   0.602   0.588   8.564
 1685POPC   C2B23948   0.600   0.586   8.264
 1685POPC   C3B23949   0.548   0.619   7.964
 1685POPC   C4B23950   0.589   0.629   7.664
 1686POPC   NC323951   8.206  22.191   9.464
 1686POPC   PO423952   8.160  22.120   9.164
 1686POPC   GL123953   8.214  22.131   8.864
 1686POPC   GL223954   8.332  22.067   8.864
 1686POPC   C1A23955   8.203  22.154   8.564
 1686POPC   D2A23956   8.153  22.155   8.264
 1686POPC   C3A23957   8.178  22.129   7.964
 1686POPC   C4A23958   8.201  22.194   7.664
 1686POPC   C1B23959   8.374  22.007   8.564
 1686POPC   C2B23960   8.368  22.042   8.264
 1686POPC   C3B23961   8.416  21.972   7.964
 1686POPC   C4B23962   8.435  22.024   7.664
 1687POPC   NC323963  40.040  15.206   9.464
 1687POPC   PO423964  39.986  15.211   9.164
 1687POPC   GL123965  39.984  15.213   8.864
 1687POPC   GL223966  39.936  15.292   8.864
 1687POPC   C1A23967  40.054  15.146   8.564
 1687POPC   D2A23968  40.007  15.207   8.264
 1687POPC   C3A23969  40.022  15.146   7.964
 1687POPC   C4A23970  40.050  15.144   7.664
 1687POPC   C1B23971  39.854  15.348   8.564
 1687POPC   C2B23972  39.839  15.398   8.264
 1687POPC   C3B23973  39.833  15.359   7.964
 1687POPC   C4B23974  39.829  15.357   7.664
 1688POPC   NC323975  37.725  26.860   9.464
 1688POPC   PO423976  37.641  26.824   9.164
 1688POPC   GL123977  37.662  26.775   8.864
 1688POPC   GL223978  37.682  26.739   8.864
 1688POPC   C1A23979  37.710  26.783   8.564
 1688POPC   D2A23980  37.647  26.860   8.264
 1688POPC   C3A23981  37.652  26.782   7.964
 1688POPC   C4A23982  37.642  26.835   7.664
 1688POPC   C1B23983  37.580  26.559   8.564
 1688POPC   C2B23984  37.615  26.539   8.264
 1688POPC   C3B23985  37.665  26.619   7.964
 1688POPC   C4B23986  37.643  26.550   7.664
 1689POPC   NC323987   1.255  43.079   9.464
 1689POPC   PO423988   1.223  43.080   9.164
 1689POPC   GL123989   1.205  43.160   8.864
 1689POPC   GL223990   1.184  43.021   8.864
 1689POPC   C1A23991   1.253  43.067   8.564
 1689POPC   D2A23992   1.221  43.117   8.264
 1689POPC   C3A23993   1.237  43.155   7.964
 1689POPC   C4A23994   1.188  43.158   7.664
 1689POPC   C1B23995   1.210  42.897   8.564
 1689POPC   C2B23996   1.163  42.912   8.264
 1689POPC   C3B23997   1.209  42.903   7.964
 1689POPC   C4B23998   1.177  42.818   7.664
 1690POPC   NC323999   5.088   8.191   9.464
 1690POPC   PO424000   5.136   8.228   9.164
 1690POPC   GL124001   5.142   8.224   8.864
 1690POPC   GL224002   5.143   8.245   8.864
 1690POPC   C1A24003   5.143   8.212   8.564
 1690POPC   D2A24004   5.060   8.196   8.264
 1690POPC   C3A24005   5.122   8.202   7.964
 1690POPC   C4A24006   5.103   8.182   7.664
 1690POPC   C1B24007   5.260   8.363   8.564
 1690POPC   C2B24008   5.271   8.369   8.264
 1690POPC   C3B24009   5.297   8.394   7.964
 1690POPC   C4B24010   5.220   8.419   7.664
 1691POPC   NC324011  38.499  26.829   9.464
 1691POPC   PO424012  38.444  26.828   9.164
 1691POPC   GL124013  38.466  26.838   8.864
 1691POPC   GL224014  38.372  26.732   8.864
 1691POPC   C1A24015  38.405  26.843   8.564
 1691POPC   D2A24016  38.482  26.775   8.264
 1691POPC   C3A24017  38.462  26.774   7.964
 1691POPC   C4A24018  38.501  26.779   7.664
 1691POPC   C1B24019  38.257  26.732   8.564
 1691POPC   C2B24020  38.234  26.693   8.264
 1691POPC   C3B24021  38.259  26.697   7.964
 1691POPC   C4B24022  38.253  26.706   7.664
 1692POPC   NC324023  33.808  12.042   9.464
 1692POPC   PO424024  33.837  12.100   9.164
 1692POPC   GL124025  33.756  12.063   8.864
 1692POPC   GL224026  33.701  12.156   8.864
 1692POPC   C1A24027  33.753  12.096   8.564
 1692POPC   D2A24028  33.844  12.054   8.264
 1692POPC   C3A24029  33.813  12.112   7.964
 1692POPC   C4A24030  33.817  12.029   7.664
 1692POPC   C1B24031  33.590  12.269   8.564
 1692POPC   C2B24032  33.566  12.177   8.264
 1692POPC   C3B24033  33.571  12.210   7.964
 1692POPC   C4B24034  33.644  12.245   7.664
 1693POPC   NC324035  43.850  36.173   9.464
 1693POPC   PO424036  43.867  36.148   9.164
 1693POPC   GL124037  43.925  36.142   8.864
 1693POPC   GL224038  43.803  36.065   8.864
 1693POPC   C1A24039  43.929  36.115   8.564
 1693POPC   D2A24040  43.845  36.114   8.264
 1693POPC   C3A24041  43.881  36.104   7.964
 1693POPC   C4A24042  43.838  36.095   7.664
 1693POPC   C1B24043  43.623  36.060   8.564
 1693POPC   C2B24044  43.620  35.967   8.264
 1693POPC   C3B24045  43.650  36.033   7.964
 1693POPC   C4B24046  43.656  35.970   7.664
 1694POPC   NC324047   9.754  42.361   9.464
 1694POPC   PO424048   9.774  42.353   9.164
 1694POPC   GL124049   9.756  42.301   8.864
 1694POPC   GL224050   9.730  42.232   8.864
 1694POPC   C1A24051   9.795  42.314   8.564
 1694POPC   D2A24052   9.770  42.379   8.264
 1694POPC   C3A24053   9.753  42.300   7.964
 1694POPC   C4A24054   9.738  42.319   7.664
 1694POPC   C1B24055   9.741  42.120   8.564
 1694POPC   C2B24056   9.656  42.089   8.264
 1694POPC   C3B24057   9.753  42.061   7.964
 1694POPC   C4B24058   9.656  42.087   7.664
 1695POPC   NC324059  33.779  20.628   9.464
 1695POPC   PO424060  33.830  20.626   9.164
 1695POPC   GL124061  33.817  20.639   8.864
 1695POPC   GL224062  33.887  20.597   8.864
 1695POPC   C1A24063  33.841  20.584   8.564
 1695POPC   D2A24064  33.806  20.629   8.264
 1695POPC   C3A24065  33.757  20.579   7.964
 1695POPC   C4A24066  33.758  20.602   7.664
 1695POPC   C1B24067  34.031  20.639   8.564
 1695POPC   C2B24068  34.045  20.640   8.264
 1695POPC   C3B24069  34.083  20.600   7.964
 1695POPC   C4B24070  34.095  20.676   7.664
 1696POPC   NC324071  19.009  29.958   9.464
 1696POPC   PO424072  19.057  29.940   9.164
 1696POPC   GL124073  19.099  29.905   8.864
 1696POPC   GL224074  18.915  30.010   8.864
 1696POPC   C1A24075  19.108  29.938   8.564
 1696POPC   D2A24076  19.050  29.899   8.264
 1696POPC   C3A24077  19.096  29.954   7.964
 1696POPC   C4A24078  19.069  29.924   7.664
 1696POPC   C1B24079  18.860  30.062   8.564
 1696POPC   C2B24080  18.838  30.055   8.264
 1696POPC   C3B24081  18.782  30.070   7.964
 1696POPC   C4B24082  18.798  30.005   7.664
 1697POPC   NC324083  30.730  44.696   9.464
 1697POPC   PO424084  30.666  44.644   9.164
 1697POPC   GL124085  30.740  44.652   8.864
 1697POPC   GL224086  30.611  44.651   8.864
 1697POPC   C1A24087  30.705  44.633   8.564
 1697POPC   D2A24088  30.739  44.644   8.264
 1697POPC   C3A24089  30.712  44.652   7.964
 1697POPC   C4A24090  30.710  44.652   7.664
 1697POPC   C1B24091  30.434  44.577   8.564
 1697POPC   C2B24092  30.432  44.546   8.264
 1697POPC   C3B24093  30.480  44.550   7.964
 1697POPC   C4B24094  30.484  44.533   7.664
 1698POPC   NC324095  15.155  33.761   9.464
 1698POPC   PO424096  15.148  33.827   9.164
 1698POPC   GL124097  15.184  33.818   8.864
 1698POPC   GL224098  15.278  33.895   8.864
 1698POPC   C1A24099  15.170  33.765   8.564
 1698POPC   D2A24100  15.160  33.777   8.264
 1698POPC   C3A24101  15.169  33.767   7.964
 1698POPC   C4A24102  15.189  33.841   7.664
 1698POPC   C1B24103  15.395  34.004   8.564
 1698POPC   C2B24104  15.331  33.979   8.264
 1698POPC   C3B24105  15.352  33.916   7.964
 1698POPC   C4B24106  15.380  33.985   7.664
 1699POPC   NC324107  28.334  18.304   9.464
 1699POPC   PO424108  28.356  18.236   9.164
 1699POPC   GL124109  28.377  18.236   8.864
 1699POPC   GL224110  28.480  18.330   8.864
 1699POPC   C1A24111  28.338  18.286   8.564
 1699POPC   D2A24112  28.324  18.271   8.264
 1699POPC   C3A24113  28.374  18.289   7.964
 1699POPC   C4A24114  28.326  18.319   7.664
 1699POPC   C1B24115  28.626  18.371   8.564
 1699POPC   C2B24116  28.581  18.357   8.264
 1699POPC   C3B24117  28.567  18.300   7.964
 1699POPC   C4B24118  28.620  18.340   7.664
 1700POPC   NC324119  10.526   6.622   9.464
 1700POPC   PO424120  10.573   6.651   9.164
 1700POPC   GL124121  10.568   6.648   8.864
 1700POPC   GL224122  10.608   6.525   8.864
 1700POPC   C1A24123  10.482   6.674   8.564
 1700POPC   D2A24124  10.508   6.655   8.264
 1700POPC   C3A24125  10.549   6.596   7.964
 1700POPC   C4A24126  10.529   6.618   7.664
 1700POPC   C1B24127  10.723   6.500   8.564
 1700POPC   C2B24128  10.673   6.511   8.264
 1700POPC   C3B24129  10.690   6.531   7.964
 1700POPC   C4B24130  10.720   6.490   7.664
 1701POPC   NC324131  28.366  32.257   9.464
 1701POPC   PO424132  28.348  32.288   9.164
 1701POPC   GL124133  28.384  32.292   8.864
 1701POPC   GL224134  28.253  32.263   8.864
 1701POPC   C1A24135  28.319  32.254   8.564
 1701POPC   D2A24136  28.326  32.221   8.264
 1701POPC   C3A24137  28.418  32.264   7.964
 1701POPC   C4A24138  28.370  32.251   7.664
 1701POPC   C1B24139  28.159  32.352   8.564
 1701POPC   C2B24140  28.179  32.307   8.264
 1701POPC   C3B24141  28.149  32.332   7.964
 1701POPC   C4B24142  28.178  32.298   7.664
 1702POPC   NC324143  29.914  10.490   9.464
 1702POPC   PO424144  29.928  10.565   9.164
 1702POPC   GL124145  29.901  10.563   8.864
 1702POPC   GL224146  29.846  10.437   8.864
 1702POPC   C1A24147  29.893  10.561   8.564
 1702POPC   D2A24148  29.954  10.562   8.264
 1702POPC   C3A24149  29.906  10.550   7.964
 1702POPC   C4A24150  29.907  10.502   7.664
 1702POPC   C1B24151  29.789  10.335   8.564
 1702POPC   C2B24152  29.795  10.349   8.264
 1702POPC   C3B24153  29.801  10.295   7.964
 1702POPC   C4B24154  29.819  10.309   7.664
 1703POPC   NC324155  39.218   3.514   9.464
 1703POPC   PO424156  39.262   3.513   9.164
 1703POPC   GL124157  39.243   3.526   8.864
 1703POPC   GL224158  39.169   3.667   8.864
 1703POPC   C1A24159  39.249   3.541   8.564
 1703POPC   D2A24160  39.258   3.517   8.264
 1703POPC   C3A24161  39.185   3.581   7.964
 1703POPC   C4A24162  39.236   3.556   7.664
 1703POPC   C1B24163  39.120   3.826   8.564
 1703POPC   C2B24164  39.137   3.819   8.264
 1703POPC   C3B24165  39.143   3.773   7.964
 1703POPC   C4B24166  39.149   3.755   7.664
 1704POPC   NC324167  39.214  29.873   9.464
 1704POPC   PO424168  39.270  29.949   9.164
 1704POPC   GL124169  39.213  29.874   8.864
 1704POPC   GL224170  39.338  29.830   8.864
 1704POPC   C1A24171  39.194  29.887   8.564
 1704POPC   D2A24172  39.237  29.881   8.264
 1704POPC   C3A24173  39.185  29.891   7.964
 1704POPC   C4A24174  39.205  29.903   7.664
 1704POPC   C1B24175  39.421  29.812   8.564
 1704POPC   C2B24176  39.481  29.819   8.264
 1704POPC   C3B24177  39.444  29.770   7.964
 1704POPC   C4B24178  39.482  29.822   7.664
 1705POPC   NC324179   0.427  10.552   9.464
 1705POPC   PO424180   0.470  10.475   9.164
 1705POPC   GL124181   0.449  10.510   8.864
 1705POPC   GL224182   0.559  10.622   8.864
 1705POPC   C1A24183   0.411  10.570   8.564
 1705POPC   D2A24184   0.419  10.530   8.264
 1705POPC   C3A24185   0.471  10.515   7.964
 1705POPC   C4A24186   0.440  10.506   7.664
 1705POPC   C1B24187   0.619  10.656   8.564
 1705POPC   C2B24188   0.622  10.656   8.264
 1705POPC   C3B24189   0.570  10.687   7.964
 1705POPC   C4B24190   0.623  10.725   7.664
 1706POPC   NC324191  41.552  17.509   9.464
 1706POPC   PO424192  41.559  17.515   9.164
 1706POPC   GL124193  41.607  17.514   8.864
 1706POPC   GL224194  41.398  17.427   8.864
 1706POPC   C1A24195  41.521  17.513   8.564
 1706POPC   D2A24196  41.561  17.531   8.264
 1706POPC   C3A24197  41.535  17.469   7.964
 1706POPC   C4A24198  41.592  17.478   7.664
 1706POPC   C1B24199  41.304  17.440   8.564
 1706POPC   C2B24200  41.348  17.399   8.264
 1706POPC   C3B24201  41.312  17.407   7.964
 1706POPC   C4B24202  41.348  17.406   7.664
 1707POPC   NC324203  17.554  24.503   9.464
 1707POPC   PO424204  17.474  24.481   9.164
 1707POPC   GL124205  17.541  24.528   8.864
 1707POPC   GL224206  17.371  24.427   8.864
 1707POPC   C1A24207  17.543  24.457   8.564
 1707POPC   D2A24208  17.471  24.520   8.264
 1707POPC   C3A24209  17.530  24.451   7.964
 1707POPC   C4A24210  17.460  24.445   7.664
 1707POPC   C1B24211  17.352  24.267   8.564
 1707POPC   C2B24212  17.285  24.341   8.264
 1707POPC   C3B24213  17.305  24.335   7.964
 1707POPC   C4B24214  17.324  24.267   7.664
 1708POPC   NC324215  29.097  19.023   9.464
 1708POPC   PO424216  29.169  19.092   9.164
 1708POPC   GL124217  29.120  19.092   8.864
 1708POPC   GL224218  29.187  19.220   8.864
 1708POPC   C1A24219  29.179  19.010   8.564
 1708POPC   D2A24220  29.108  19.029   8.264
 1708POPC   C3A24221  29.171  19.024   7.964
 1708POPC   C4A24222  29.130  19.059   7.664
 1708POPC   C1B24223  29.144  19.340   8.564
 1708POPC   C2B24224  29.187  19.312   8.264
 1708POPC   C3B24225  29.125  19.287   7.964
 1708POPC   C4B24226  29.164  19.335   7.664
 1709POPC   NC324227  13.654  40.830   9.464
 1709POPC   PO424228  13.647  40.819   9.164
 1709POPC   GL124229  13.613  40.737   8.864
 1709POPC   GL224230  13.628  40.865   8.864
 1709POPC   C1A24231  13.639  40.757   8.564
 1709POPC   D2A24232  13.633  40.781   8.264
 1709POPC   C3A24233  13.646  40.783   7.964
 1709POPC   C4A24234  13.620  40.818   7.664
 1709POPC   C1B24235  13.669  40.980   8.564
 1709POPC   C2B24236  13.724  40.983   8.264
 1709POPC   C3B24237  13.723  41.027   7.964
 1709POPC   C4B24238  13.679  41.053   7.664
 1710POPC   NC324239  41.533   8.196   9.464
 1710POPC   PO424240  41.587   8.209   9.164
 1710POPC   GL124241  41.525   8.198   8.864
 1710POPC   GL224242  41.492   8.295   8.864
 1710POPC   C1A24243  41.593   8.242   8.564
 1710POPC   D2A24244  41.567   8.195   8.264
 1710POPC   C3A24245  41.530   8.153   7.964
 1710POPC   C4A24246  41.561   8.163   7.664
 1710POPC   C1B24247  41.496   8.414   8.564
 1710POPC   C2B24248  41.509   8.415   8.264
 1710POPC   C3B24249  41.510   8.404   7.964
 1710POPC   C4B24250  41.538   8.469   7.664
 1711POPC   NC324251   7.432  12.103   9.464
 1711POPC   PO424252   7.463  12.121   9.164
 1711POPC   GL124253   7.427  12.085   8.864
 1711POPC   GL224254   7.509  12.118   8.864
 1711POPC   C1A24255   7.383  12.049   8.564
 1711POPC   D2A24256   7.457  12.064   8.264
 1711POPC   C3A24257   7.469  12.062   7.964
 1711POPC   C4A24258   7.414  12.098   7.664
 1711POPC   C1B24259   7.626  12.202   8.564
 1711POPC   C2B24260   7.600  12.211   8.264
 1711POPC   C3B24261   7.573  12.215   7.964
 1711POPC   C4B24262   7.582  12.245   7.664
 1712POPC   NC324263  32.247  13.631   9.464
 1712POPC   PO424264  32.296  13.640   9.164
 1712POPC   GL124265  32.240  13.641   8.864
 1712POPC   GL224266  32.140  13.718   8.864
 1712POPC   C1A24267  32.227  13.660   8.564
 1712POPC   D2A24268  32.240  13.616   8.264
 1712POPC   C3A24269  32.217  13.589   7.964
 1712POPC   C4A24270  32.277  13.641   7.664
 1712POPC   C1B24271  32.028  13.784   8.564
 1712POPC   C2B24272  32.024  13.775   8.264
 1712POPC   C3B24273  32.029  13.748   7.964
 1712POPC   C4B24274  32.070  13.753   7.664
 1713POPC   NC324275   9.782   5.880   9.464
 1713POPC   PO424276   9.705   5.847   9.164
 1713POPC   GL124277   9.780   5.898   8.864
 1713POPC   GL224278   9.830   5.994   8.864
 1713POPC   C1A24279   9.763   5.885   8.564
 1713POPC   D2A24280   9.763   5.901   8.264
 1713POPC   C3A24281   9.764   5.897   7.964
 1713POPC   C4A24282   9.748   5.911   7.664
 1713POPC   C1B24283   9.885   6.142   8.564
 1713POPC   C2B24284   9.857   6.141   8.264
 1713POPC   C3B24285   9.841   6.060   7.964
 1713POPC   C4B24286   9.805   6.050   7.664
 1714POPC   NC324287  12.118  43.069   9.464
 1714POPC   PO424288  12.113  43.089   9.164
 1714POPC   GL124289  12.028  43.089   8.864
 1714POPC   GL224290  12.010  43.277   8.864
 1714POPC   C1A24291  12.061  43.099   8.564
 1714POPC   D2A24292  12.119  43.065   8.264
 1714POPC   C3A24293  12.061  43.150   7.964
 1714POPC   C4A24294  12.077  43.071   7.664
 1714POPC   C1B24295  11.986  43.342   8.564
 1714POPC   C2B24296  12.018  43.326   8.264
 1714POPC   C3B24297  12.060  43.308   7.964
 1714POPC   C4B24298  12.068  43.378   7.664
 1715POPC   NC324299  34.576  13.634   9.464
 1715POPC   PO424300  34.625  13.670   9.164
 1715POPC   GL124301  34.582  13.630   8.864
 1715POPC   GL224302  34.478  13.638   8.864
 1715POPC   C1A24303  34.606  13.661   8.564
 1715POPC   D2A24304  34.536  13.622   8.264
 1715POPC   C3A24305  34.604  13.669   7.964
 1715POPC   C4A24306  34.587  13.595   7.664
 1715POPC   C1B24307  34.283  13.682   8.564
 1715POPC   C2B24308  34.377  13.711   8.264
 1715POPC   C3B24309  34.305  13.722   7.964
 1715POPC   C4B24310  34.356  13.711   7.664
 1716POPC   NC324311  33.042  32.983   9.464
 1716POPC   PO424312  33.045  33.046   9.164
 1716POPC   GL124313  32.986  33.057   8.864
 1716POPC   GL224314  33.067  33.103   8.864
 1716POPC   C1A24315  32.979  33.030   8.564
 1716POPC   D2A24316  33.029  32.980   8.264
 1716POPC   C3A24317  33.014  32.975   7.964
 1716POPC   C4A24318  33.027  33.005   7.664
 1716POPC   C1B24319  33.178  33.257   8.564
 1716POPC   C2B24320  33.180  33.238   8.264
 1716POPC   C3B24321  33.119  33.244   7.964
 1716POPC   C4B24322  33.159  33.219   7.664
 1717POPC   NC324323  19.077  26.831   9.464
 1717POPC   PO424324  19.100  26.838   9.164
 1717POPC   GL124325  19.087  26.843   8.864
 1717POPC   GL224326  19.002  26.879   8.864
 1717POPC   C1A24327  19.100  26.807   8.564
 1717POPC   D2A24328  19.031  26.853   8.264
 1717POPC   C3A24329  19.087  26.838   7.964
 1717POPC   C4A24330  19.060  26.796   7.664
 1717POPC   C1B24331  18.888  27.016   8.564
 1717POPC   C2B24332  18.937  27.005   8.264
 1717POPC   C3B24333  18.898  26.984   7.964
 1717POPC   C4B24334  18.859  27.016   7.664
 1718POPC   NC324335   2.759  34.611   9.464
 1718POPC   PO424336   2.801  34.610   9.164
 1718POPC   GL124337   2.815  34.612   8.864
 1718POPC   GL224338   2.782  34.499   8.864
 1718POPC   C1A24339   2.718  34.560   8.564
 1718POPC   D2A24340   2.758  34.594   8.264
 1718POPC   C3A24341   2.796  34.571   7.964
 1718POPC   C4A24342   2.732  34.605   7.664
 1718POPC   C1B24343   2.743  34.349   8.564
 1718POPC   C2B24344   2.667  34.325   8.264
 1718POPC   C3B24345   2.707  34.354   7.964
 1718POPC   C4B24346   2.676  34.356   7.664
 1719POPC   NC324347  25.259  26.069   9.464
 1719POPC   PO424348  25.260  26.005   9.164
 1719POPC   GL124349  25.307  26.080   8.864
 1719POPC   GL224350  25.317  26.102   8.864
 1719POPC   C1A24351  25.253  26.031   8.564
 1719POPC   D2A24352  25.218  26.051   8.264
 1719POPC   C3A24353  25.249  26.003   7.964
 1719POPC   C4A24354  25.306  26.006   7.664
 1719POPC   C1B24355  25.417  26.288   8.564
 1719POPC   C2B24356  25.438  26.251   8.264
 1719POPC   C3B24357  25.402  26.295   7.964
 1719POPC   C4B24358  25.428  26.294   7.664
 1720POPC   NC324359  22.899  40.035   9.464
 1720POPC   PO424360  22.973  39.964   9.164
 1720POPC   GL124361  22.924  39.973   8.864
 1720POPC   GL224362  22.830  39.989   8.864
 1720POPC   C1A24363  22.923  40.036   8.564
 1720POPC   D2A24364  22.949  39.995   8.264
 1720POPC   C3A24365  22.985  39.976   7.964
 1720POPC   C4A24366  22.920  40.043   7.664
 1720POPC   C1B24367  22.643  39.928   8.564
 1720POPC   C2B24368  22.662  40.000   8.264
 1720POPC   C3B24369  22.672  40.003   7.964
 1720POPC   C4B24370  22.697  39.944   7.664
 1721POPC   NC324371  40.026  22.944   9.464
 1721POPC   PO424372  40.012  22.912   9.164
 1721POPC   GL124373  40.004  22.932   8.864
 1721POPC   GL224374  40.029  23.111   8.864
 1721POPC   C1A24375  39.996  22.976   8.564
 1721POPC   D2A24376  39.987  22.927   8.264
 1721POPC   C3A24377  39.964  22.928   7.964
 1721POPC   C4A24378  40.016  22.906   7.664
 1721POPC   C1B24379  40.027  23.205   8.564
 1721POPC   C2B24380  40.014  23.156   8.264
 1721POPC   C3B24381  39.993  23.198   7.964
 1721POPC   C4B24382  39.975  23.228   7.664
 1722POPC   NC324383  43.131  19.023   9.464
 1722POPC   PO424384  43.131  19.066   9.164
 1722POPC   GL124385  43.131  19.049   8.864
 1722POPC   GL224386  42.997  19.114   8.864
 1722POPC   C1A24387  43.094  19.028   8.564
 1722POPC   D2A24388  43.145  19.013   8.264
 1722POPC   C3A24389  43.117  19.025   7.964
 1722POPC   C4A24390  43.109  19.074   7.664
 1722POPC   C1B24391  42.973  19.220   8.564
 1722POPC   C2B24392  42.954  19.185   8.264
 1722POPC   C3B24393  42.928  19.223   7.964
 1722POPC   C4B24394  42.888  19.199   7.664
 1723POPC   NC324395  35.370  39.961   9.464
 1723POPC   PO424396  35.338  39.990   9.164
 1723POPC   GL124397  35.332  40.018   8.864
 1723POPC   GL224398  35.215  40.005   8.864
 1723POPC   C1A24399  35.395  40.053   8.564
 1723POPC   D2A24400  35.307  40.013   8.264
 1723POPC   C3A24401  35.341  39.980   7.964
 1723POPC   C4A24402  35.335  40.022   7.664
 1723POPC   C1B24403  35.096  40.013   8.564
 1723POPC   C2B24404  35.070  40.044   8.264
 1723POPC   C3B24405  35.074  39.961   7.964
 1723POPC   C4B24406  35.123  39.979   7.664
 1724POPC   NC324407  16.688   8.934   9.464
 1724POPC   PO424408  16.737   8.950   9.164
 1724POPC   GL124409  16.722   8.970   8.864
 1724POPC   GL224410  16.894   8.899   8.864
 1724POPC   C1A24411  16.738   8.952   8.564
 1724POPC   D2A24412  16.749   8.959   8.264
 1724POPC   C3A24413  16.768   8.967   7.964
 1724POPC   C4A24414  16.683   8.929   7.664
 1724POPC   C1B24415  16.928   8.887   8.564
 1724POPC   C2B24416  16.948   8.946   8.264
 1724POPC   C3B24417  16.944   8.872   7.964
 1724POPC   C4B24418  17.017   8.852   7.664
 1725POPC   NC324419  40.047  15.977   9.464
 1725POPC   PO424420  39.989  15.977   9.164
 1725POPC   GL124421  40.032  15.955   8.864
 1725POPC   GL224422  40.046  15.823   8.864
 1725POPC   C1A24423  39.966  15.950   8.564
 1725POPC   D2A24424  40.036  15.909   8.264
 1725POPC   C3A24425  40.046  15.999   7.964
 1725POPC   C4A24426  39.991  15.959   7.664
 1725POPC   C1B24427  40.158  15.724   8.564
 1725POPC   C2B24428  40.115  15.772   8.264
 1725POPC   C3B24429  40.094  15.698   7.964
 1725POPC   C4B24430  40.102  15.757   7.664
 1726POPC   NC324431  16.707  20.653   9.464
 1726POPC   PO424432  16.710  20.602   9.164
 1726POPC   GL124433  16.719  20.642   8.864
 1726POPC   GL224434  16.643  20.542   8.864
 1726POPC   C1A24435  16.721  20.653   8.564
 1726POPC   D2A24436  16.697  20.564   8.264
 1726POPC   C3A24437  16.712  20.622   7.964
 1726POPC   C4A24438  16.710  20.637   7.664
 1726POPC   C1B24439  16.630  20.350   8.564
 1726POPC   C2B24440  16.580  20.405   8.264
 1726POPC   C3B24441  16.667  20.355   7.964
 1726POPC   C4B24442  16.581  20.373   7.664
 1727POPC   NC324443  15.167   3.524   9.464
 1727POPC   PO424444  15.185   3.499   9.164
 1727POPC   GL124445  15.198   3.501   8.864
 1727POPC   GL224446  15.111   3.636   8.864
 1727POPC   C1A24447  15.185   3.550   8.564
 1727POPC   D2A24448  15.137   3.562   8.264
 1727POPC   C3A24449  15.194   3.581   7.964
 1727POPC   C4A24450  15.175   3.517   7.664
 1727POPC   C1B24451  15.021   3.759   8.564
 1727POPC   C2B24452  15.017   3.732   8.264
 1727POPC   C3B24453  15.028   3.769   7.964
 1727POPC   C4B24454  15.006   3.766   7.664
 1728POPC   NC324455  36.907  28.340   9.464
 1728POPC   PO424456  36.945  28.321   9.164
 1728POPC   GL124457  36.877  28.331   8.864
 1728POPC   GL224458  37.071  28.352   8.864
 1728POPC   C1A24459  36.858  28.337   8.564
 1728POPC   D2A24460  36.910  28.328   8.264
 1728POPC   C3A24461  36.925  28.372   7.964
 1728POPC   C4A24462  36.905  28.399   7.664
 1728POPC   C1B24463  37.181  28.308   8.564
 1728POPC   C2B24464  37.144  28.338   8.264
 1728POPC   C3B24465  37.147  28.322   7.964
 1728POPC   C4B24466  37.143  28.393   7.664
 1729POPC   NC324467  16.716  10.507   9.464
 1729POPC   PO424468  16.751  10.570   9.164
 1729POPC   GL124469  16.740  10.521   8.864
 1729POPC   GL224470  16.856  10.471   8.864
 1729POPC   C1A24471  16.761  10.542   8.564
 1729POPC   D2A24472  16.703  10.496   8.264
 1729POPC   C3A24473  16.735  10.569   7.964
 1729POPC   C4A24474  16.681  10.509   7.664
 1729POPC   C1B24475  16.853  10.344   8.564
 1729POPC   C2B24476  16.893  10.352   8.264
 1729POPC   C3B24477  16.856  10.372   7.964
 1729POPC   C4B24478  16.943  10.358   7.664
 1730POPC   NC324479   8.976  33.772   9.464
 1730POPC   PO424480   9.022  33.848   9.164
 1730POPC   GL124481   8.936  33.767   8.864
 1730POPC   GL224482   9.086  33.854   8.864
 1730POPC   C1A24483   8.962  33.809   8.564
 1730POPC   D2A24484   8.986  33.773   8.264
 1730POPC   C3A24485   9.004  33.769   7.964
 1730POPC   C4A24486   8.927  33.775   7.664
 1730POPC   C1B24487   9.183  33.947   8.564
 1730POPC   C2B24488   9.124  33.974   8.264
 1730POPC   C3B24489   9.185  33.925   7.964
 1730POPC   C4B24490   9.154  33.999   7.664
 1731POPC   NC324491  16.776  28.376   9.464
 1731POPC   PO424492  16.705  28.366   9.164
 1731POPC   GL124493  16.763  28.344   8.864
 1731POPC   GL224494  16.811  28.308   8.864
 1731POPC   C1A24495  16.705  28.394   8.564
 1731POPC   D2A24496  16.726  28.381   8.264
 1731POPC   C3A24497  16.738  28.342   7.964
 1731POPC   C4A24498  16.752  28.388   7.664
 1731POPC   C1B24499  16.906  28.237   8.564
 1731POPC   C2B24500  16.917  28.191   8.264
 1731POPC   C3B24501  16.952  28.259   7.964
 1731POPC   C4B24502  16.928  28.225   7.664
 1732POPC   NC324503  32.994  40.761   9.464
 1732POPC   PO424504  33.022  40.831   9.164
 1732POPC   GL124505  33.017  40.792   8.864
 1732POPC   GL224506  32.945  40.713   8.864
 1732POPC   C1A24507  33.073  40.778   8.564
 1732POPC   D2A24508  33.030  40.827   8.264
 1732POPC   C3A24509  33.041  40.803   7.964
 1732POPC   C4A24510  32.977  40.819   7.664
 1732POPC   C1B24511  32.829  40.627   8.564
 1732POPC   C2B24512  32.760  40.675   8.264
 1732POPC   C3B24513  32.857  40.635   7.964
 1732POPC   C4B24514  32.818  40.704   7.664
 1733POPC   NC324515  16.690  27.623   9.464
 1733POPC   PO424516  16.759  27.601   9.164
 1733POPC   GL124517  16.772  27.580   8.864
 1733POPC   GL224518  16.763  27.766   8.864
 1733POPC   C1A24519  16.696  27.598   8.564
 1733POPC   D2A24520  16.711  27.602   8.264
 1733POPC   C3A24521  16.719  27.559   7.964
 1733POPC   C4A24522  16.775  27.597   7.664
 1733POPC   C1B24523  16.800  27.836   8.564
 1733POPC   C2B24524  16.792  27.864   8.264
 1733POPC   C3B24525  16.712  27.856   7.964
 1733POPC   C4B24526  16.759  27.812   7.664
 1734POPC   NC324527  33.048  12.039   9.464
 1734POPC   PO424528  33.039  12.032   9.164
 1734POPC   GL124529  33.051  12.081   8.864
 1734POPC   GL224530  33.082  12.010   8.864
 1734POPC   C1A24531  32.995  12.122   8.564
 1734POPC   D2A24532  33.010  12.044   8.264
 1734POPC   C3A24533  33.064  12.107   7.964
 1734POPC   C4A24534  33.020  12.099   7.664
 1734POPC   C1B24535  33.134  11.842   8.564
 1734POPC   C2B24536  33.133  11.856   8.264
 1734POPC   C3B24537  33.190  11.892   7.964
 1734POPC   C4B24538  33.169  11.860   7.664
 1735POPC   NC324539  25.303   7.376   9.464
 1735POPC   PO424540  25.281   7.405   9.164
 1735POPC   GL124541  25.228   7.421   8.864
 1735POPC   GL224542  25.414   7.331   8.864
 1735POPC   C1A24543  25.235   7.462   8.564
 1735POPC   D2A24544  25.226   7.385   8.264
 1735POPC   C3A24545  25.235   7.437   7.964
 1735POPC   C4A24546  25.296   7.401   7.664
 1735POPC   C1B24547  25.500   7.339   8.564
 1735POPC   C2B24548  25.532   7.320   8.264
 1735POPC   C3B24549  25.506   7.323   7.964
 1735POPC   C4B24550  25.474   7.307   7.664
 1736POPC   NC324551   8.172   8.186   9.464
 1736POPC   PO424552   8.201   8.148   9.164
 1736POPC   GL124553   8.175   8.179   8.864
 1736POPC   GL224554   8.256   8.060   8.864
 1736POPC   C1A24555   8.235   8.238   8.564
 1736POPC   D2A24556   8.176   8.227   8.264
 1736POPC   C3A24557   8.209   8.162   7.964
 1736POPC   C4A24558   8.234   8.226   7.664
 1736POPC   C1B24559   8.364   7.929   8.564
 1736POPC   C2B24560   8.364   8.021   8.264
 1736POPC   C3B24561   8.344   7.931   7.964
 1736POPC   C4B24562   8.311   8.018   7.664
 1737POPC   NC324563  13.647   9.713   9.464
 1737POPC   PO424564  13.582   9.749   9.164
 1737POPC   GL124565  13.652   9.769   8.864
 1737POPC   GL224566  13.534   9.748   8.864
 1737POPC   C1A24567  13.677   9.735   8.564
 1737POPC   D2A24568  13.595   9.726   8.264
 1737POPC   C3A24569  13.624   9.726   7.964
 1737POPC   C4A24570  13.643   9.720   7.664
 1737POPC   C1B24571  13.386   9.767   8.564
 1737POPC   C2B24572  13.398   9.830   8.264
 1737POPC   C3B24573  13.402   9.747   7.964
 1737POPC   C4B24574  13.413   9.838   7.664
 1738POPC   NC324575  15.909   4.318   9.464
 1738POPC   PO424576  15.984   4.284   9.164
 1738POPC   GL124577  15.969   4.300   8.864
 1738POPC   GL224578  16.006   4.445   8.864
 1738POPC   C1A24579  15.922   4.325   8.564
 1738POPC   D2A24580  15.968   4.344   8.264
 1738POPC   C3A24581  15.982   4.296   7.964
 1738POPC   C4A24582  15.933   4.301   7.664
 1738POPC   C1B24583  15.968   4.525   8.564
 1738POPC   C2B24584  15.967   4.610   8.264
 1738POPC   C3B24585  15.933   4.612   7.964
 1738POPC   C4B24586  16.000   4.526   7.664
 1739POPC   NC324587  17.551  14.405   9.464
 1739POPC   PO424588  17.516  14.367   9.164
 1739POPC   GL124589  17.539  14.440   8.864
 1739POPC   GL224590  17.625  14.342   8.864
 1739POPC   C1A24591  17.539  14.442   8.564
 1739POPC   D2A24592  17.539  14.437   8.264
 1739POPC   C3A24593  17.552  14.402   7.964
 1739POPC   C4A24594  17.460  14.405   7.664
 1739POPC   C1B24595  17.730  14.373   8.564
 1739POPC   C2B24596  17.722  14.331   8.264
 1739POPC   C3B24597  17.745  14.380   7.964
 1739POPC   C4B24598  17.793  14.397   7.664
 1740POPC   NC324599  36.943   2.716   9.464
 1740POPC   PO424600  36.940   2.731   9.164
 1740POPC   GL124601  36.875   2.806   8.864
 1740POPC   GL224602  36.825   2.609   8.864
 1740POPC   C1A24603  36.873   2.768   8.564
 1740POPC   D2A24604  36.880   2.725   8.264
 1740POPC   C3A24605  36.950   2.790   7.964
 1740POPC   C4A24606  36.901   2.759   7.664
 1740POPC   C1B24607  36.765   2.532   8.564
 1740POPC   C2B24608  36.797   2.558   8.264
 1740POPC   C3B24609  36.791   2.540   7.964
 1740POPC   C4B24610  36.823   2.579   7.664
 1741POPC   NC324611  33.056  26.811   9.464
 1741POPC   PO424612  32.983  26.844   9.164
 1741POPC   GL124613  33.014  26.781   8.864
 1741POPC   GL224614  33.121  26.886   8.864
 1741POPC   C1A24615  32.986  26.781   8.564
 1741POPC   D2A24616  32.980  26.816   8.264
 1741POPC   C3A24617  33.041  26.835   7.964
 1741POPC   C4A24618  33.015  26.818   7.664
 1741POPC   C1B24619  33.238  26.890   8.564
 1741POPC   C2B24620  33.298  26.951   8.264
 1741POPC   C3B24621  33.234  26.949   7.964
 1741POPC   C4B24622  33.230  26.877   7.664
 1742POPC   NC324623  35.306  39.227   9.464
 1742POPC   PO424624  35.369  39.266   9.164
 1742POPC   GL124625  35.328  39.198   8.864
 1742POPC   GL224626  35.316  39.103   8.864
 1742POPC   C1A24627  35.317  39.269   8.564
 1742POPC   D2A24628  35.313  39.202   8.264
 1742POPC   C3A24629  35.401  39.250   7.964
 1742POPC   C4A24630  35.344  39.238   7.664
 1742POPC   C1B24631  35.246  39.045   8.564
 1742POPC   C2B24632  35.241  38.988   8.264
 1742POPC   C3B24633  35.289  39.004   7.964
 1742POPC   C4B24634  35.273  38.957   7.664
 1743POPC   NC324635  40.809  13.598   9.464
 1743POPC   PO424636  40.770  13.627   9.164
 1743POPC   GL124637  40.780  13.592   8.864
 1743POPC   GL224638  40.924  13.554   8.864
 1743POPC   C1A24639  40.759  13.676   8.564
 1743POPC   D2A24640  40.742  13.657   8.264
 1743POPC   C3A24641  40.763  13.580   7.964
 1743POPC   C4A24642  40.772  13.623   7.664
 1743POPC   C1B24643  40.948  13.452   8.564
 1743POPC   C2B24644  40.965  13.440   8.264
 1743POPC   C3B24645  41.026  13.446   7.964
 1743POPC   C4B24646  40.986  13.521   7.664
 1744POPC   NC324647   5.071  34.570   9.464
 1744POPC   PO424648   5.130  34.548   9.164
 1744POPC   GL124649   5.108  34.611   8.864
 1744POPC   GL224650   5.246  34.583   8.864
 1744POPC   C1A24651   5.058  34.624   8.564
 1744POPC   D2A24652   5.102  34.600   8.264
 1744POPC   C3A24653   5.117  34.572   7.964
 1744POPC   C4A24654   5.079  34.623   7.664
 1744POPC   C1B24655   5.279  34.633   8.564
 1744POPC   C2B24656   5.365  34.667   8.264
 1744POPC   C3B24657   5.343  34.675   7.964
 1744POPC   C4B24658   5.314  34.658   7.664
 1745POPC   NC324659  28.381  23.743   9.464
 1745POPC   PO424660  28.355  23.684   9.164
 1745POPC   GL124661  28.413  23.737   8.864
 1745POPC   GL224662  28.218  23.624   8.864
 1745POPC   C1A24663  28.374  23.673   8.564
 1745POPC   D2A24664  28.404  23.672   8.264
 1745POPC   C3A24665  28.351  23.751   7.964
 1745POPC   C4A24666  28.347  23.712   7.664
 1745POPC   C1B24667  28.113  23.584   8.564
 1745POPC   C2B24668  28.124  23.676   8.264
 1745POPC   C3B24669  28.184  23.589   7.964
 1745POPC   C4B24670  28.117  23.630   7.664
 1746POPC   NC324671  19.800   9.750   9.464
 1746POPC   PO424672  19.823   9.707   9.164
 1746POPC   GL124673  19.793   9.698   8.864
 1746POPC   GL224674  19.889   9.853   8.864
 1746POPC   C1A24675  19.844   9.739   8.564
 1746POPC   D2A24676  19.818   9.753   8.264
 1746POPC   C3A24677  19.824   9.710   7.964
 1746POPC   C4A24678  19.853   9.794   7.664
 1746POPC   C1B24679  20.022   9.915   8.564
 1746POPC   C2B24680  20.061   9.880   8.264
 1746POPC   C3B24681  19.980   9.962   7.964
 1746POPC   C4B24682  20.009   9.872   7.664
 1747POPC   NC324683  31.445  22.917   9.464
 1747POPC   PO424684  31.463  22.903   9.164
 1747POPC   GL124685  31.516  22.940   8.864
 1747POPC   GL224686  31.351  22.888   8.864
 1747POPC   C1A24687  31.433  22.898   8.564
 1747POPC   D2A24688  31.430  22.959   8.264
 1747POPC   C3A24689  31.473  22.978   7.964
 1747POPC   C4A24690  31.486  22.956   7.664
 1747POPC   C1B24691  31.313  22.846   8.564
 1747POPC   C2B24692  31.254  22.785   8.264
 1747POPC   C3B24693  31.231  22.817   7.964
 1747POPC   C4B24694  31.296  22.829   7.664
 1748POPC   NC324695  35.310   9.720   9.464
 1748POPC   PO424696  35.381   9.715   9.164
 1748POPC   GL124697  35.343   9.730   8.864
 1748POPC   GL224698  35.424   9.605   8.864
 1748POPC   C1A24699  35.334   9.699   8.564
 1748POPC   D2A24700  35.307   9.716   8.264
 1748POPC   C3A24701  35.352   9.785   7.964
 1748POPC   C4A24702  35.306   9.748   7.664
 1748POPC   C1B24703  35.411   9.516   8.564
 1748POPC   C2B24704  35.459   9.486   8.264
 1748POPC   C3B24705  35.444   9.551   7.964
 1748POPC   C4B24706  35.469   9.520   7.664
 1749POPC   NC324707  22.175  31.503   9.464
 1749POPC   PO424708  22.174  31.448   9.164
 1749POPC   GL124709  22.200  31.485   8.864
 1749POPC   GL224710  22.134  31.338   8.864
 1749POPC   C1A24711  22.184  31.478   8.564
 1749POPC   D2A24712  22.202  31.489   8.264
 1749POPC   C3A24713  22.185  31.505   7.964
 1749POPC   C4A24714  22.128  31.488   7.664
 1749POPC   C1B24715  22.032  31.290   8.564
 1749POPC   C2B24716  21.996  31.263   8.264
 1749POPC   C3B24717  21.981  31.286   7.964
 1749POPC   C4B24718  22.059  31.219   7.664
 1750POPC   NC324719  29.956  27.547   9.464
 1750POPC   PO424720  29.925  27.626   9.164
 1750POPC   GL124721  29.898  27.545   8.864
 1750POPC   GL224722  30.035  27.705   8.864
 1750POPC   C1A24723  29.949  27.560   8.564
 1750POPC   D2A24724  29.946  27.560   8.264
 1750POPC   C3A24725  29.951  27.547   7.964
 1750POPC   C4A24726  29.968  27.612   7.664
 1750POPC   C1B24727  30.060  27.797   8.564
 1750POPC   C2B24728  30.020  27.790   8.264
 1750POPC   C3B24729  30.015  27.766   7.964
 1750POPC   C4B24730  30.090  27.765   7.664
 1751POPC   NC324731  37.705  22.195   9.464
 1751POPC   PO424732  37.726  22.199   9.164
 1751POPC   GL124733  37.719  22.171   8.864
 1751POPC   GL224734  37.640  22.078   8.864
 1751POPC   C1A24735  37.681  22.158   8.564
 1751POPC   D2A24736  37.680  22.174   8.264
 1751POPC   C3A24737  37.665  22.134   7.964
 1751POPC   C4A24738  37.719  22.137   7.664
 1751POPC   C1B24739  37.612  21.924   8.564
 1751POPC   C2B24740  37.574  21.931   8.264
 1751POPC   C3B24741  37.639  21.876   7.964
 1751POPC   C4B24742  37.642  21.946   7.664
 1752POPC   NC324743  41.510  36.150   9.464
 1752POPC   PO424744  41.561  36.154   9.164
 1752POPC   GL124745  41.572  36.146   8.864
 1752POPC   GL224746  41.529  36.297   8.864
 1752POPC   C1A24747  41.581  36.118   8.564
 1752POPC   D2A24748  41.580  36.139   8.264
 1752POPC   C3A24749  41.543  36.109   7.964
 1752POPC   C4A24750  41.594  36.095   7.664
 1752POPC   C1B24751  41.460  36.345   8.564
 1752POPC   C2B24752  41.513  36.372   8.264
 1752POPC   C3B24753  41.448  36.370   7.964
 1752POPC   C4B24754  41.513  36.373   7.664
 1753POPC   NC324755  10.539  40.828   9.464
 1753POPC   PO424756  10.543  40.756   9.164
 1753POPC   GL124757  10.483  40.780   8.864
 1753POPC   GL224758  10.541  40.941   8.864
 1753POPC   C1A24759  10.567  40.813   8.564
 1753POPC   D2A24760  10.525  40.762   8.264
 1753POPC   C3A24761  10.509  40.769   7.964
 1753POPC   C4A24762  10.530  40.807   7.664
 1753POPC   C1B24763  10.556  41.047   8.564
 1753POPC   C2B24764  10.591  41.068   8.264
 1753POPC   C3B24765  10.559  41.007   7.964
 1753POPC   C4B24766  10.560  40.997   7.664
 1754POPC   NC324767  11.324  17.554   9.464
 1754POPC   PO424768  11.300  17.500   9.164
 1754POPC   GL124769  11.293  17.495   8.864
 1754POPC   GL224770  11.275  17.609   8.864
 1754POPC   C1A24771  11.327  17.467   8.564
 1754POPC   D2A24772  11.272  17.553   8.264
 1754POPC   C3A24773  11.258  17.534   7.964
 1754POPC   C4A24774  11.337  17.511   7.664
 1754POPC   C1B24775  11.150  17.718   8.564
 1754POPC   C2B24776  11.204  17.771   8.264
 1754POPC   C3B24777  11.122  17.703   7.964
 1754POPC   C4B24778  11.165  17.713   7.664
 1755POPC   NC324779  38.435  41.536   9.464
 1755POPC   PO424780  38.412  41.542   9.164
 1755POPC   GL124781  38.408  41.568   8.864
 1755POPC   GL224782  38.335  41.566   8.864
 1755POPC   C1A24783  38.432  41.564   8.564
 1755POPC   D2A24784  38.449  41.602   8.264
 1755POPC   C3A24785  38.480  41.530   7.964
 1755POPC   C4A24786  38.441  41.567   7.664
 1755POPC   C1B24787  38.191  41.476   8.564
 1755POPC   C2B24788  38.170  41.506   8.264
 1755POPC   C3B24789  38.190  41.465   7.964
 1755POPC   C4B24790  38.164  41.516   7.664
 1756POPC   NC324791   2.767  44.631   9.464
 1756POPC   PO424792   2.796  44.617   9.164
 1756POPC   GL124793   2.791  44.710   8.864
 1756POPC   GL224794   2.691  44.506   8.864
 1756POPC   C1A24795   2.717  44.703   8.564
 1756POPC   D2A24796   2.753  44.703   8.264
 1756POPC   C3A24797   2.716  44.617   7.964
 1756POPC   C4A24798   2.727  44.650   7.664
 1756POPC   C1B24799   2.675  44.417   8.564
 1756POPC   C2B24800   2.639  44.464   8.264
 1756POPC   C3B24801   2.608  44.481   7.964
 1756POPC   C4B24802   2.654  44.474   7.664
 1757POPC   NC324803  21.399  19.832   9.464
 1757POPC   PO424804  21.359  19.828   9.164
 1757POPC   GL124805  21.406  19.868   8.864
 1757POPC   GL224806  21.359  19.720   8.864
 1757POPC   C1A24807  21.371  19.872   8.564
 1757POPC   D2A24808  21.340  19.806   8.264
 1757POPC   C3A24809  21.357  19.845   7.964
 1757POPC   C4A24810  21.380  19.884   7.664
 1757POPC   C1B24811  21.279  19.576   8.564
 1757POPC   C2B24812  21.293  19.629   8.264
 1757POPC   C3B24813  21.273  19.607   7.964
 1757POPC   C4B24814  21.247  19.564   7.664
 1758POPC   NC324815   2.035  29.176   9.464
 1758POPC   PO424816   1.958  29.098   9.164
 1758POPC   GL124817   1.992  29.102   8.864
 1758POPC   GL224818   2.011  29.044   8.864
 1758POPC   C1A24819   1.957  29.162   8.564
 1758POPC   D2A24820   1.960  29.162   8.264
 1758POPC   C3A24821   2.002  29.096   7.964
 1758POPC   C4A24822   2.002  29.143   7.664
 1758POPC   C1B24823   2.070  28.940   8.564
 1758POPC   C2B24824   2.067  28.944   8.264
 1758POPC   C3B24825   2.092  28.928   7.964
 1758POPC   C4B24826   2.110  28.883   7.664
 1759POPC   NC324827   5.125  18.244   9.464
 1759POPC   PO424828   5.121  18.269   9.164
 1759POPC   GL124829   5.127  18.263   8.864
 1759POPC   GL224830   5.030  18.410   8.864
 1759POPC   C1A24831   5.099  18.240   8.564
 1759POPC   D2A24832   5.138  18.263   8.264
 1759POPC   C3A24833   5.077  18.234   7.964
 1759POPC   C4A24834   5.093  18.283   7.664
 1759POPC   C1B24835   4.996  18.479   8.564
 1759POPC   C2B24836   4.989  18.495   8.264
 1759POPC   C3B24837   5.056  18.520   7.964
 1759POPC   C4B24838   5.070  18.534   7.664
 1760POPC   NC324839  14.411   1.237   9.464
 1760POPC   PO424840  14.412   1.171   9.164
 1760POPC   GL124841  14.417   1.166   8.864
 1760POPC   GL224842  14.490   1.106   8.864
 1760POPC   C1A24843  14.378   1.222   8.564
 1760POPC   D2A24844  14.415   1.259   8.264
 1760POPC   C3A24845  14.406   1.231   7.964
 1760POPC   C4A24846  14.355   1.177   7.664
 1760POPC   C1B24847  14.461   1.002   8.564
 1760POPC   C2B24848  14.467   0.965   8.264
 1760POPC   C3B24849  14.539   0.991   7.964
 1760POPC   C4B24850  14.494   1.015   7.664
 1761POPC   NC324851  34.573   0.427   9.464
 1761POPC   PO424852  34.625   0.398   9.164
 1761POPC   GL124853  34.604   0.402   8.864
 1761POPC   GL224854  34.684   0.375   8.864
 1761POPC   C1A24855  34.608   0.407   8.564
 1761POPC   D2A24856  34.579   0.413   8.264
 1761POPC   C3A24857  34.602   0.448   7.964
 1761POPC   C4A24858  34.610   0.456   7.664
 1761POPC   C1B24859  34.760   0.345   8.564
 1761POPC   C2B24860  34.842   0.303   8.264
 1761POPC   C3B24861  34.832   0.324   7.964
 1761POPC   C4B24862  34.833   0.307   7.664
 1762POPC   NC324863  22.918  19.845   9.464
 1762POPC   PO424864  22.945  19.825   9.164
 1762POPC   GL124865  22.976  19.819   8.864
 1762POPC   GL224866  23.034  19.802   8.864
 1762POPC   C1A24867  22.980  19.879   8.564
 1762POPC   D2A24868  22.972  19.848   8.264
 1762POPC   C3A24869  22.927  19.832   7.964
 1762POPC   C4A24870  22.946  19.836   7.664
 1762POPC   C1B24871  23.147  19.742   8.564
 1762POPC   C2B24872  23.115  19.693   8.264
 1762POPC   C3B24873  23.183  19.740   7.964
 1762POPC   C4B24874  23.197  19.727   7.664
 1763POPC   NC324875  34.581  17.524   9.464
 1763POPC   PO424876  34.564  17.475   9.164
 1763POPC   GL124877  34.546  17.484   8.864
 1763POPC   GL224878  34.685  17.483   8.864
 1763POPC   C1A24879  34.562  17.535   8.564
 1763POPC   D2A24880  34.536  17.521   8.264
 1763POPC   C3A24881  34.596  17.497   7.964
 1763POPC   C4A24882  34.603  17.528   7.664
 1763POPC   C1B24883  34.793  17.463   8.564
 1763POPC   C2B24884  34.828  17.543   8.264
 1763POPC   C3B24885  34.843  17.476   7.964
 1763POPC   C4B24886  34.820  17.519   7.664
 1764POPC   NC324887   0.467  23.682   9.464
 1764POPC   PO424888   0.462  23.756   9.164
 1764POPC   GL124889   0.482  23.712   8.864
 1764POPC   GL224890   0.520  23.735   8.864
 1764POPC   C1A24891   0.473  23.711   8.564
 1764POPC   D2A24892   0.469  23.753   8.264
 1764POPC   C3A24893   0.413  23.697   7.964
 1764POPC   C4A24894   0.472  23.723   7.664
 1764POPC   C1B24895   0.644  23.704   8.564
 1764POPC   C2B24896   0.673  23.710   8.264
 1764POPC   C3B24897   0.726  23.716   7.964
 1764POPC   C4B24898   0.680  23.761   7.664
 1765POPC   NC324899  29.873  15.155   9.464
 1765POPC   PO424900  29.909  15.177   9.164
 1765POPC   GL124901  29.937  15.177   8.864
 1765POPC   GL224902  29.945  15.091   8.864
 1765POPC   C1A24903  29.948  15.189   8.564
 1765POPC   D2A24904  29.915  15.137   8.264
 1765POPC   C3A24905  29.919  15.208   7.964
 1765POPC   C4A24906  29.893  15.150   7.664
 1765POPC   C1B24907  30.021  15.021   8.564
 1765POPC   C2B24908  30.049  14.940   8.264
 1765POPC   C3B24909  30.075  14.978   7.964
 1765POPC   C4B24910  30.072  14.983   7.664
 1766POPC   NC324911  18.259  25.250   9.464
 1766POPC   PO424912  18.283  25.308   9.164
 1766POPC   GL124913  18.264  25.232   8.864
 1766POPC   GL224914  18.251  25.423   8.864
 1766POPC   C1A24915  18.309  25.241   8.564
 1766POPC   D2A24916  18.317  25.293   8.264
 1766POPC   C3A24917  18.244  25.297   7.964
 1766POPC   C4A24918  18.319  25.296   7.664
 1766POPC   C1B24919  18.245  25.523   8.564
 1766POPC   C2B24920  18.272  25.510   8.264
 1766POPC   C3B24921  18.256  25.539   7.964
 1766POPC   C4B24922  18.259  25.494   7.664
 1767POPC   NC324923  37.718   8.995   9.464
 1767POPC   PO424924  37.709   8.927   9.164
 1767POPC   GL124925  37.720   8.952   8.864
 1767POPC   GL224926  37.638   8.832   8.864
 1767POPC   C1A24927  37.680   8.965   8.564
 1767POPC   D2A24928  37.659   8.956   8.264
 1767POPC   C3A24929  37.686   9.022   7.964
 1767POPC   C4A24930  37.695   8.943   7.664
 1767POPC   C1B24931  37.556   8.813   8.564
 1767POPC   C2B24932  37.546   8.756   8.264
 1767POPC   C3B24933  37.531   8.815   7.964
 1767POPC   C4B24934  37.538   8.754   7.664
 1768POPC   NC324935  27.570   0.418   9.464
 1768POPC   PO424936  27.635   0.401   9.164
 1768POPC   GL124937  27.565   0.454   8.864
 1768POPC   GL224938  27.749   0.392   8.864
 1768POPC   C1A24939  27.608   0.401   8.564
 1768POPC   D2A24940  27.563   0.409   8.264
 1768POPC   C3A24941  27.556   0.468   7.964
 1768POPC   C4A24942  27.587   0.433   7.664
 1768POPC   C1B24943  27.818   0.387   8.564
 1768POPC   C2B24944  27.843   0.355   8.264
 1768POPC   C3B24945  27.875   0.361   7.964
 1768POPC   C4B24946  27.850   0.326   7.664
 1769POPC   NC324947   9.703  15.179   9.464
 1769POPC   PO424948   9.778  15.221   9.164
 1769POPC   GL124949   9.714  15.201   8.864
 1769POPC   GL224950   9.668  15.142   8.864
 1769POPC   C1A24951   9.718  15.134   8.564
 1769POPC   D2A24952   9.768  15.229   8.264
 1769POPC   C3A24953   9.790  15.228   7.964
 1769POPC   C4A24954   9.702  15.196   7.664
 1769POPC   C1B24955   9.507  15.161   8.564
 1769POPC   C2B24956   9.532  15.224   8.264
 1769POPC   C3B24957   9.519  15.132   7.964
 1769POPC   C4B24958   9.500  15.153   7.664
 1770POPC   NC324959  19.878  26.011   9.464
 1770POPC   PO424960  19.822  26.084   9.164
 1770POPC   GL124961  19.801  26.090   8.864
 1770POPC   GL224962  19.770  26.202   8.864
 1770POPC   C1A24963  19.848  26.060   8.564
 1770POPC   D2A24964  19.799  26.042   8.264
 1770POPC   C3A24965  19.820  26.063   7.964
 1770POPC   C4A24966  19.795  25.997   7.664
 1770POPC   C1B24967  19.743  26.222   8.564
 1770POPC   C2B24968  19.700  26.278   8.264
 1770POPC   C3B24969  19.736  26.272   7.964
 1770POPC   C4B24970  19.678  26.239   7.664
 1771POPC   NC324971  33.754  11.273   9.464
 1771POPC   PO424972  33.810  11.269   9.164
 1771POPC   GL124973  33.752  11.263   8.864
 1771POPC   GL224974  33.671  11.346   8.864
 1771POPC   C1A24975  33.794  11.298   8.564
 1771POPC   D2A24976  33.810  11.276   8.264
 1771POPC   C3A24977  33.833  11.346   7.964
 1771POPC   C4A24978  33.816  11.328   7.664
 1771POPC   C1B24979  33.666  11.489   8.564
 1771POPC   C2B24980  33.646  11.451   8.264
 1771POPC   C3B24981  33.645  11.431   7.964
 1771POPC   C4B24982  33.595  11.523   7.664
 1772POPC   NC324983  11.299  37.726   9.464
 1772POPC   PO424984  11.299  37.718   9.164
 1772POPC   GL124985  11.315  37.710   8.864
 1772POPC   GL224986  11.261  37.519   8.864
 1772POPC   C1A24987  11.290  37.633   8.564
 1772POPC   D2A24988  11.318  37.705   8.264
 1772POPC   C3A24989  11.255  37.676   7.964
 1772POPC   C4A24990  11.258  37.675   7.664
 1772POPC   C1B24991  11.167  37.427   8.564
 1772POPC   C2B24992  11.183  37.411   8.264
 1772POPC   C3B24993  11.147  37.421   7.964
 1772POPC   C4B24994  11.195  37.482   7.664
 1773POPC   NC324995  39.207  41.518   9.464
 1773POPC   PO424996  39.269  41.567   9.164
 1773POPC   GL124997  39.273  41.515   8.864
 1773POPC   GL224998  39.356  41.517   8.864
 1773POPC   C1A24999  39.217  41.571   8.564
 1773POPC   D2A25000  39.243  41.568   8.264
 1773POPC   C3A25001  39.242  41.595   7.964
 1773POPC   C4A25002  39.259  41.583   7.664
 1773POPC   C1B25003  39.444  41.617   8.564
 1773POPC   C2B25004  39.481  41.533   8.264
 1773POPC   C3B25005  39.482  41.594   7.964
 1773POPC   C4B25006  39.485  41.610   7.664
 1774POPC   NC325007  32.264  33.062   9.464
 1774POPC   PO425008  32.292  33.049   9.164
 1774POPC   GL125009  32.253  33.065   8.864
 1774POPC   GL225010  32.250  32.865   8.864
 1774POPC   C1A25011  32.256  33.011   8.564
 1774POPC   D2A25012  32.276  33.007   8.264
 1774POPC   C3A25013  32.220  33.027   7.964
 1774POPC   C4A25014  32.256  33.021   7.664
 1774POPC   C1B25015  32.362  32.791   8.564
 1774POPC   C2B25016  32.330  32.829   8.264
 1774POPC   C3B25017  32.390  32.801   7.964
 1774POPC   C4B25018  32.318  32.808   7.664
 1775POPC   NC325019  26.055  30.650   9.464
 1775POPC   PO425020  25.998  30.701   9.164
 1775POPC   GL125021  26.001  30.678   8.864
 1775POPC   GL225022  26.140  30.786   8.864
 1775POPC   C1A25023  26.028  30.720   8.564
 1775POPC   D2A25024  26.075  30.671   8.264
 1775POPC   C3A25025  26.049  30.649   7.964
 1775POPC   C4A25026  25.996  30.695   7.664
 1775POPC   C1B25027  26.128  30.919   8.564
 1775POPC   C2B25028  26.136  30.923   8.264
 1775POPC   C3B25029  26.196  30.888   7.964
 1775POPC   C4B25030  26.145  30.933   7.664
 1776POPC   NC325031   1.970  29.878   9.464
 1776POPC   PO425032   2.002  29.962   9.164
 1776POPC   GL125033   1.969  29.941   8.864
 1776POPC   GL225034   2.079  29.777   8.864
 1776POPC   C1A25035   1.987  29.955   8.564
 1776POPC   D2A25036   1.981  29.921   8.264
 1776POPC   C3A25037   1.989  29.959   7.964
 1776POPC   C4A25038   2.014  29.949   7.664
 1776POPC   C1B25039   2.097  29.714   8.564
 1776POPC   C2B25040   2.113  29.734   8.264
 1776POPC   C3B25041   2.086  29.680   7.964
 1776POPC   C4B25042   2.122  29.691   7.664
 1777POPC   NC325043  24.501   4.270   9.464
 1777POPC   PO425044  24.464   4.281   9.164
 1777POPC   GL125045  24.452   4.288   8.864
 1777POPC   GL225046  24.653   4.253   8.864
 1777POPC   C1A25047  24.472   4.270   8.564
 1777POPC   D2A25048  24.477   4.312   8.264
 1777POPC   C3A25049  24.495   4.337   7.964
 1777POPC   C4A25050  24.464   4.328   7.664
 1777POPC   C1B25051  24.771   4.276   8.564
 1777POPC   C2B25052  24.715   4.289   8.264
 1777POPC   C3B25053  24.690   4.250   7.964
 1777POPC   C4B25054  24.729   4.262   7.664
 1778POPC   NC325055   5.903   7.393   9.464
 1778POPC   PO425056   5.893   7.402   9.164
 1778POPC   GL125057   5.896   7.435   8.864
 1778POPC   GL225058   5.945   7.282   8.864
 1778POPC   C1A25059   5.899   7.450   8.564
 1778POPC   D2A25060   5.825   7.387   8.264
 1778POPC   C3A25061   5.851   7.391   7.964
 1778POPC   C4A25062   5.872   7.436   7.664
 1778POPC   C1B25063   5.942   7.157   8.564
 1778POPC   C2B25064   5.930   7.198   8.264
 1778POPC   C3B25065   5.902   7.180   7.964
 1778POPC   C4B25066   5.956   7.129   7.664
 1779POPC   NC325067  39.252  11.315   9.464
 1779POPC   PO425068  39.273  11.306   9.164
 1779POPC   GL125069  39.183  11.284   8.864
 1779POPC   GL225070  39.253  11.428   8.864
 1779POPC   C1A25071  39.279  11.252   8.564
 1779POPC   D2A25072  39.252  11.286   8.264
 1779POPC   C3A25073  39.208  11.332   7.964
 1779POPC   C4A25074  39.244  11.301   7.664
 1779POPC   C1B25075  39.322  11.517   8.564
 1779POPC   C2B25076  39.345  11.532   8.264
 1779POPC   C3B25077  39.357  11.554   7.964
 1779POPC   C4B25078  39.283  11.519   7.664
 1780POPC   NC325079  33.760  38.428   9.464
 1780POPC   PO425080  33.786  38.412   9.164
 1780POPC   GL125081  33.793  38.489   8.864
 1780POPC   GL225082  33.653  38.468   8.864
 1780POPC   C1A25083  33.786  38.422   8.564
 1780POPC   D2A25084  33.755  38.411   8.264
 1780POPC   C3A25085  33.846  38.474   7.964
 1780POPC   C4A25086  33.757  38.437   7.664
 1780POPC   C1B25087  33.565  38.474   8.564
 1780POPC   C2B25088  33.590  38.519   8.264
 1780POPC   C3B25089  33.517  38.552   7.964
 1780POPC   C4B25090  33.605  38.486   7.664
 1781POPC   NC325091  40.777  16.704   9.464
 1781POPC   PO425092  40.796  16.699   9.164
 1781POPC   GL125093  40.826  16.704   8.864
 1781POPC   GL225094  40.919  16.812   8.864
 1781POPC   C1A25095  40.743  16.705   8.564
 1781POPC   D2A25096  40.740  16.707   8.264
 1781POPC   C3A25097  40.782  16.733   7.964
 1781POPC   C4A25098  40.794  16.714   7.664
 1781POPC   C1B25099  40.965  16.873   8.564
 1781POPC   C2B25100  40.959  16.827   8.264
 1781POPC   C3B25101  40.969  16.851   7.964
 1781POPC   C4B25102  40.980  16.863   7.664
 1782POPC   NC325103  12.803  26.837   9.464
 1782POPC   PO425104  12.898  26.788   9.164
 1782POPC   GL125105  12.858  26.839   8.864
 1782POPC   GL225106  12.947  26.788   8.864
 1782POPC   C1A25107  12.877  26.850   8.564
 1782POPC   D2A25108  12.839  26.801   8.264
 1782POPC   C3A25109  12.821  26.787   7.964
 1782POPC   C4A25110  12.808  26.837   7.664
 1782POPC   C1B25111  13.099  26.868   8.564
 1782POPC   C2B25112  13.067  26.879   8.264
 1782POPC   C3B25113  13.141  26.828   7.964
 1782POPC   C4B25114  13.149  26.855   7.664
 1783POPC   NC325115  37.674   3.531   9.464
 1783POPC   PO425116  37.707   3.494   9.164
 1783POPC   GL125117  37.630   3.497   8.864
 1783POPC   GL225118  37.569   3.478   8.864
 1783POPC   C1A25119  37.677   3.569   8.564
 1783POPC   D2A25120  37.708   3.584   8.264
 1783POPC   C3A25121  37.662   3.528   7.964
 1783POPC   C4A25122  37.632   3.586   7.664
 1783POPC   C1B25123  37.602   3.332   8.564
 1783POPC   C2B25124  37.585   3.328   8.264
 1783POPC   C3B25125  37.543   3.322   7.964
 1783POPC   C4B25126  37.533   3.286   7.664
 1784POPC   NC325127  28.396   5.121   9.464
 1784POPC   PO425128  28.357   5.076   9.164
 1784POPC   GL125129  28.372   5.052   8.864
 1784POPC   GL225130  28.487   4.986   8.864
 1784POPC   C1A25131  28.363   5.117   8.564
 1784POPC   D2A25132  28.365   5.142   8.264
 1784POPC   C3A25133  28.390   5.047   7.964
 1784POPC   C4A25134  28.341   5.099   7.664
 1784POPC   C1B25135  28.539   4.863   8.564
 1784POPC   C2B25136  28.559   4.933   8.264
 1784POPC   C3B25137  28.502   4.889   7.964
 1784POPC   C4B25138  28.499   4.940   7.664
 1785POPC   NC325139  34.553  35.361   9.464
 1785POPC   PO425140  34.538  35.399   9.164
 1785POPC   GL125141  34.571  35.315   8.864
 1785POPC   GL225142  34.428  35.370   8.864
 1785POPC   C1A25143  34.547  35.329   8.564
 1785POPC   D2A25144  34.529  35.326   8.264
 1785POPC   C3A25145  34.592  35.354   7.964
 1785POPC   C4A25146  34.538  35.342   7.664
 1785POPC   C1B25147  34.301  35.252   8.564
 1785POPC   C2B25148  34.311  35.271   8.264
 1785POPC   C3B25149  34.373  35.280   7.964
 1785POPC   C4B25150  34.326  35.333   7.664
 1786POPC   NC325151  32.997   5.131   9.464
 1786POPC   PO425152  33.026   5.110   9.164
 1786POPC   GL125153  33.045   5.053   8.864
 1786POPC   GL225154  32.976   5.180   8.864
 1786POPC   C1A25155  33.042   5.114   8.564
 1786POPC   D2A25156  33.019   5.124   8.264
 1786POPC   C3A25157  33.050   5.129   7.964
 1786POPC   C4A25158  32.998   5.126   7.664
 1786POPC   C1B25159  32.927   5.289   8.564
 1786POPC   C2B25160  32.981   5.347   8.264
 1786POPC   C3B25161  32.966   5.296   7.964
 1786POPC   C4B25162  32.943   5.375   7.664
 1787POPC   NC325163  41.555  19.786   9.464
 1787POPC   PO425164  41.577  19.786   9.164
 1787POPC   GL125165  41.602  19.809   8.864
 1787POPC   GL225166  41.629  19.890   8.864
 1787POPC   C1A25167  41.513  19.860   8.564
 1787POPC   D2A25168  41.566  19.796   8.264
 1787POPC   C3A25169  41.599  19.856   7.964
 1787POPC   C4A25170  41.597  19.880   7.664
 1787POPC   C1B25171  41.738  20.044   8.564
 1787POPC   C2B25172  41.703  20.054   8.264
 1787POPC   C3B25173  41.708  19.980   7.964
 1787POPC   C4B25174  41.724  20.012   7.664
 1788POPC   NC325175  33.762  12.855   9.464
 1788POPC   PO425176  33.801  12.812   9.164
 1788POPC   GL125177  33.786  12.884   8.864
 1788POPC   GL225178  33.699  12.736   8.864
 1788POPC   C1A25179  33.840  12.852   8.564
 1788POPC   D2A25180  33.846  12.823   8.264
 1788POPC   C3A25181  33.773  12.860   7.964
 1788POPC   C4A25182  33.811  12.880   7.664
 1788POPC   C1B25183  33.619  12.724   8.564
 1788POPC   C2B25184  33.611  12.730   8.264
 1788POPC   C3B25185  33.661  12.700   7.964
 1788POPC   C4B25186  33.648  12.707   7.664
 1789POPC   NC325187   5.115  16.743   9.464
 1789POPC   PO425188   5.110  16.741   9.164
 1789POPC   GL125189   5.109  16.768   8.864
 1789POPC   GL225190   5.229  16.796   8.864
 1789POPC   C1A25191   5.107  16.765   8.564
 1789POPC   D2A25192   5.085  16.735   8.264
 1789POPC   C3A25193   5.125  16.694   7.964
 1789POPC   C4A25194   5.048  16.734   7.664
 1789POPC   C1B25195   5.354  16.738   8.564
 1789POPC   C2B25196   5.321  16.793   8.264
 1789POPC   C3B25197   5.343  16.827   7.964
 1789POPC   C4B25198   5.309  16.827   7.664
 1790POPC   NC325199   2.804  16.698   9.464
 1790POPC   PO425200   2.797  16.711   9.164
 1790POPC   GL125201   2.758  16.712   8.864
 1790POPC   GL225202   2.704  16.571   8.864
 1790POPC   C1A25203   2.737  16.684   8.564
 1790POPC   D2A25204   2.797  16.735   8.264
 1790POPC   C3A25205   2.774  16.756   7.964
 1790POPC   C4A25206   2.802  16.697   7.664
 1790POPC   C1B25207   2.764  16.486   8.564
 1790POPC   C2B25208   2.758  16.460   8.264
 1790POPC   C3B25209   2.696  16.515   7.964
 1790POPC   C4B25210   2.736  16.439   7.664
 1791POPC   NC325211  27.553  26.016   9.464
 1791POPC   PO425212  27.550  26.026   9.164
 1791POPC   GL125213  27.543  26.034   8.864
 1791POPC   GL225214  27.463  26.134   8.864
 1791POPC   C1A25215  27.590  26.089   8.564
 1791POPC   D2A25216  27.587  26.026   8.264
 1791POPC   C3A25217  27.583  26.036   7.964
 1791POPC   C4A25218  27.598  25.992   7.664
 1791POPC   C1B25219  27.436  26.188   8.564
 1791POPC   C2B25220  27.422  26.241   8.264
 1791POPC   C3B25221  27.423  26.230   7.964
 1791POPC   C4B25222  27.400  26.186   7.664
 1792POPC   NC325223   8.170  23.681   9.464
 1792POPC   PO425224   8.162  23.735   9.164
 1792POPC   GL125225   8.197  23.743   8.864
 1792POPC   GL225226   8.358  23.697   8.864
 1792POPC   C1A25227   8.209  23.688   8.564
 1792POPC   D2A25228   8.220  23.693   8.264
 1792POPC   C3A25229   8.204  23.719   7.964
 1792POPC   C4A25230   8.237  23.744   7.664
 1792POPC   C1B25231   8.469  23.639   8.564
 1792POPC   C2B25232   8.439  23.653   8.264
 1792POPC   C3B25233   8.449  23.593   7.964
 1792POPC   C4B25234   8.441  23.620   7.664
 1793POPC   NC325235  39.970  35.336   9.464
 1793POPC   PO425236  39.973  35.377   9.164
 1793POPC   GL125237  39.960  35.350   8.864
 1793POPC   GL225238  40.115  35.459   8.864
 1793POPC   C1A25239  40.038  35.341   8.564
 1793POPC   D2A25240  40.026  35.306   8.264
 1793POPC   C3A25241  40.037  35.401   7.964
 1793POPC   C4A25242  39.963  35.365   7.664
 1793POPC   C1B25243  40.103  35.580   8.564
 1793POPC   C2B25244  40.137  35.589   8.264
 1793POPC   C3B25245  40.112  35.545   7.964
 1793POPC   C4B25246  40.166  35.531   7.664
 1794POPC   NC325247  37.638  21.425   9.464
 1794POPC   PO425248  37.700  21.361   9.164
 1794POPC   GL125249  37.646  21.411   8.864
 1794POPC   GL225250  37.637  21.471   8.864
 1794POPC   C1A25251  37.640  21.396   8.564
 1794POPC   D2A25252  37.726  21.403   8.264
 1794POPC   C3A25253  37.666  21.356   7.964
 1794POPC   C4A25254  37.673  21.405   7.664
 1794POPC   C1B25255  37.653  21.627   8.564
 1794POPC   C2B25256  37.632  21.588   8.264
 1794POPC   C3B25257  37.629  21.619   7.964
 1794POPC   C4B25258  37.608  21.588   7.664
 1795POPC   NC325259  39.973  28.369   9.464
 1795POPC   PO425260  39.992  28.376   9.164
 1795POPC   GL125261  40.057  28.395   8.864
 1795POPC   GL225262  40.118  28.299   8.864
 1795POPC   C1A25263  39.975  28.321   8.564
 1795POPC   D2A25264  40.011  28.344   8.264
 1795POPC   C3A25265  40.036  28.356   7.964
 1795POPC   C4A25266  39.969  28.374   7.664
 1795POPC   C1B25267  40.226  28.281   8.564
 1795POPC   C2B25268  40.241  28.337   8.264
 1795POPC   C3B25269  40.241  28.252   7.964
 1795POPC   C4B25270  40.285  28.318   7.664
 1796POPC   NC325271  18.241  26.068   9.464
 1796POPC   PO425272  18.329  26.066   9.164
 1796POPC   GL125273  18.248  26.033   8.864
 1796POPC   GL225274  18.268  26.168   8.864
 1796POPC   C1A25275  18.310  26.064   8.564
 1796POPC   D2A25276  18.267  26.043   8.264
 1796POPC   C3A25277  18.300  26.067   7.964
 1796POPC   C4A25278  18.259  26.010   7.664
 1796POPC   C1B25279  18.328  26.257   8.564
 1796POPC   C2B25280  18.341  26.334   8.264
 1796POPC   C3B25281  18.280  26.261   7.964
 1796POPC   C4B25282  18.320  26.241   7.664
 1797POPC   NC325283  35.344  19.819   9.464
 1797POPC   PO425284  35.305  19.811   9.164
 1797POPC   GL125285  35.365  19.866   8.864
 1797POPC   GL225286  35.351  19.718   8.864
 1797POPC   C1A25287  35.331  19.822   8.564
 1797POPC   D2A25288  35.314  19.879   8.264
 1797POPC   C3A25289  35.310  19.834   7.964
 1797POPC   C4A25290  35.373  19.820   7.664
 1797POPC   C1B25291  35.376  19.538   8.564
 1797POPC   C2B25292  35.427  19.569   8.264
 1797POPC   C3B25293  35.378  19.559   7.964
 1797POPC   C4B25294  35.364  19.555   7.664
 1798POPC   NC325295  40.745  41.545   9.464
 1798POPC   PO425296  40.807  41.604   9.164
 1798POPC   GL125297  40.769  41.516   8.864
 1798POPC   GL225298  40.737  41.416   8.864
 1798POPC   C1A25299  40.803  41.526   8.564
 1798POPC   D2A25300  40.812  41.594   8.264
 1798POPC   C3A25301  40.777  41.519   7.964
 1798POPC   C4A25302  40.783  41.598   7.664
 1798POPC   C1B25303  40.686  41.371   8.564
 1798POPC   C2B25304  40.684  41.368   8.264
 1798POPC   C3B25305  40.705  41.308   7.964
 1798POPC   C4B25306  40.693  41.303   7.664
 1799POPC   NC325307  22.126  21.371   9.464
 1799POPC   PO425308  22.113  21.425   9.164
 1799POPC   GL125309  22.163  21.357   8.864
 1799POPC   GL225310  22.142  21.507   8.864
 1799POPC   C1A25311  22.146  21.424   8.564
 1799POPC   D2A25312  22.160  21.353   8.264
 1799POPC   C3A25313  22.172  21.399   7.964
 1799POPC   C4A25314  22.188  21.354   7.664
 1799POPC   C1B25315  22.162  21.666   8.564
 1799POPC   C2B25316  22.206  21.629   8.264
 1799POPC   C3B25317  22.210  21.658   7.964
 1799POPC   C4B25318  22.206  21.655   7.664
 1800POPC   NC325319  29.115  22.115   9.464
 1800POPC   PO425320  29.150  22.206   9.164
 1800POPC   GL125321  29.180  22.128   8.864
 1800POPC   GL225322  29.024  22.140   8.864
 1800POPC   C1A25323  29.163  22.127   8.564
 1800POPC   D2A25324  29.110  22.165   8.264
 1800POPC   C3A25325  29.189  22.152   7.964
 1800POPC   C4A25326  29.162  22.141   7.664
 1800POPC   C1B25327  28.856  22.109   8.564
 1800POPC   C2B25328  28.873  22.147   8.264
 1800POPC   C3B25329  28.890  22.099   7.964
 1800POPC   C4B25330  28.875  22.162   7.664
 1801POPC   NC325331  19.865  31.451   9.464
 1801POPC   PO425332  19.872  31.434   9.164
 1801POPC   GL125333  19.798  31.424   8.864
 1801POPC   GL225334  19.935  31.367   8.864
 1801POPC   C1A25335  19.860  31.510   8.564
 1801POPC   D2A25336  19.875  31.516   8.264
 1801POPC   C3A25337  19.879  31.508   7.964
 1801POPC   C4A25338  19.850  31.517   7.664
 1801POPC   C1B25339  19.980  31.262   8.564
 1801POPC   C2B25340  19.969  31.236   8.264
 1801POPC   C3B25341  19.987  31.246   7.964
 1801POPC   C4B25342  20.019  31.257   7.664
 1802POPC   NC325343   5.838  44.657   9.464
 1802POPC   PO425344   5.874  44.632   9.164
 1802POPC   GL125345   5.849  44.656   8.864
 1802POPC   GL225346   5.794  44.524   8.864
 1802POPC   C1A25347   5.869  44.615   8.564
 1802POPC   D2A25348   5.918  44.644   8.264
 1802POPC   C3A25349   5.858  44.683   7.964
 1802POPC   C4A25350   5.904  44.633   7.664
 1802POPC   C1B25351   5.793  44.447   8.564
 1802POPC   C2B25352   5.803  44.412   8.264
 1802POPC   C3B25353   5.832  44.398   7.964
 1802POPC   C4B25354   5.767  44.396   7.664
 1803POPC   NC325355  22.983  32.237   9.464
 1803POPC   PO425356  22.965  32.213   9.164
 1803POPC   GL125357  22.905  32.233   8.864
 1803POPC   GL225358  23.029  32.235   8.864
 1803POPC   C1A25359  22.951  32.224   8.564
 1803POPC   D2A25360  22.921  32.296   8.264
 1803POPC   C3A25361  22.963  32.296   7.964
 1803POPC   C4A25362  22.896  32.200   7.664
 1803POPC   C1B25363  23.216  32.190   8.564
 1803POPC   C2B25364  23.139  32.225   8.264
 1803POPC   C3B25365  23.169  32.198   7.964
 1803POPC   C4B25366  23.172  32.249   7.664
 1804POPC   NC325367  40.043   5.862   9.464
 1804POPC   PO425368  40.054   5.831   9.164
 1804POPC   GL125369  40.001   5.830   8.864
 1804POPC   GL225370  39.913   5.855   8.864
 1804POPC   C1A25371  40.033   5.906   8.564
 1804POPC   D2A25372  40.036   5.872   8.264
 1804POPC   C3A25373  40.045   5.891   7.964
 1804POPC   C4A25374  40.045   5.878   7.664
 1804POPC   C1B25375  39.779   5.864   8.564
 1804POPC   C2B25376  39.759   5.907   8.264
 1804POPC   C3B25377  39.740   5.920   7.964
 1804POPC   C4B25378  39.751   5.919   7.664
 1805POPC   NC325379   7.407  42.303   9.464
 1805POPC   PO425380   7.419  42.353   9.164
 1805POPC   GL125381   7.469  42.294   8.864
 1805POPC   GL225382   7.338  42.414   8.864
 1805POPC   C1A25383   7.466  42.347   8.564
 1805POPC   D2A25384   7.398  42.346   8.264
 1805POPC   C3A25385   7.406  42.309   7.964
 1805POPC   C4A25386   7.454  42.351   7.664
 1805POPC   C1B25387   7.297  42.535   8.564
 1805POPC   C2B25388   7.337  42.538   8.264
 1805POPC   C3B25389   7.299  42.555   7.964
 1805POPC   C4B25390   7.308  42.567   7.664
 1806POPC   NC325391  22.136  35.355   9.464
 1806POPC   PO425392  22.171  35.351   9.164
 1806POPC   GL125393  22.193  35.390   8.864
 1806POPC   GL225394  22.108  35.273   8.864
 1806POPC   C1A25395  22.164  35.349   8.564
 1806POPC   D2A25396  22.198  35.362   8.264
 1806POPC   C3A25397  22.114  35.337   7.964
 1806POPC   C4A25398  22.128  35.333   7.664
 1806POPC   C1B25399  22.131  35.105   8.564
 1806POPC   C2B25400  22.130  35.104   8.264
 1806POPC   C3B25401  22.089  35.132   7.964
 1806POPC   C4B25402  22.097  35.081   7.664
 1807POPC   NC325403   8.948  16.743   9.464
 1807POPC   PO425404   9.000  16.762   9.164
 1807POPC   GL125405   9.013  16.712   8.864
 1807POPC   GL225406   8.912  16.607   8.864
 1807POPC   C1A25407   8.927  16.732   8.564
 1807POPC   D2A25408   8.928  16.719   8.264
 1807POPC   C3A25409   9.019  16.704   7.964
 1807POPC   C4A25410   8.974  16.697   7.664
 1807POPC   C1B25411   8.748  16.613   8.564
 1807POPC   C2B25412   8.814  16.571   8.264
 1807POPC   C3B25413   8.759  16.574   7.964
 1807POPC   C4B25414   8.802  16.553   7.664
 1808POPC   NC325415  44.702   2.733   9.464
 1808POPC   PO425416  44.662   2.795   9.164
 1808POPC   GL125417  44.668   2.737   8.864
 1808POPC   GL225418  44.588   2.827   8.864
 1808POPC   C1A25419  44.701   2.730   8.564
 1808POPC   D2A25420  44.625   2.780   8.264
 1808POPC   C3A25421  44.630   2.777   7.964
 1808POPC   C4A25422  44.700   2.754   7.664
 1808POPC   C1B25423  44.439   2.942   8.564
 1808POPC   C2B25424  44.489   2.917   8.264
 1808POPC   C3B25425  44.507   2.960   7.964
 1808POPC   C4B25426  44.454   2.944   7.664
 1809POPC   NC325427   0.413  38.494   9.464
 1809POPC   PO425428   0.445  38.421   9.164
 1809POPC   GL125429   0.397  38.444   8.864
 1809POPC   GL225430   0.448  38.367   8.864
 1809POPC   C1A25431   0.390  38.468   8.564
 1809POPC   D2A25432   0.461  38.467   8.264
 1809POPC   C3A25433   0.438  38.407   7.964
 1809POPC   C4A25434   0.427  38.469   7.664
 1809POPC   C1B25435   0.373  38.209   8.564
 1809POPC   C2B25436   0.445  38.223   8.264
 1809POPC   C3B25437   0.466  38.247   7.964
 1809POPC   C4B25438   0.394  38.247   7.664
 1810POPC   NC325439  22.974  34.562   9.464
 1810POPC   PO425440  22.974  34.613   9.164
 1810POPC   GL125441  22.935  34.577   8.864
 1810POPC   GL225442  22.963  34.639   8.864
 1810POPC   C1A25443  22.969  34.575   8.564
 1810POPC   D2A25444  22.956  34.613   8.264
 1810POPC   C3A25445  22.958  34.598   7.964
 1810POPC   C4A25446  22.975  34.528   7.664
 1810POPC   C1B25447  23.131  34.776   8.564
 1810POPC   C2B25448  23.111  34.730   8.264
 1810POPC   C3B25449  23.084  34.813   7.964
 1810POPC   C4B25450  23.060  34.815   7.664
 1811POPC   NC325451  42.364  24.458   9.464
 1811POPC   PO425452  42.303  24.484   9.164
 1811POPC   GL125453  42.306  24.486   8.864
 1811POPC   GL225454  42.404  24.420   8.864
 1811POPC   C1A25455  42.307  24.474   8.564
 1811POPC   D2A25456  42.374  24.536   8.264
 1811POPC   C3A25457  42.357  24.494   7.964
 1811POPC   C4A25458  42.324  24.463   7.664
 1811POPC   C1B25459  42.531  24.398   8.564
 1811POPC   C2B25460  42.517  24.368   8.264
 1811POPC   C3B25461  42.562  24.349   7.964
 1811POPC   C4B25462  42.582  24.392   7.664
 1812POPC   NC325463  41.525   0.434   9.464
 1812POPC   PO425464  41.600   0.453   9.164
 1812POPC   GL125465  41.569   0.416   8.864
 1812POPC   GL225466  41.501   0.517   8.864
 1812POPC   C1A25467  41.543   0.435   8.564
 1812POPC   D2A25468  41.597   0.396   8.264
 1812POPC   C3A25469  41.545   0.430   7.964
 1812POPC   C4A25470  41.537   0.408   7.664
 1812POPC   C1B25471  41.316   0.600   8.564
 1812POPC   C2B25472  41.357   0.578   8.264
 1812POPC   C3B25473  41.331   0.543   7.964
 1812POPC   C4B25474  41.342   0.550   7.664
 1813POPC   NC325475  33.052  15.912   9.464
 1813POPC   PO425476  33.026  15.994   9.164
 1813POPC   GL125477  33.054  15.909   8.864
 1813POPC   GL225478  33.143  15.815   8.864
 1813POPC   C1A25479  33.030  15.928   8.564
 1813POPC   D2A25480  33.033  15.972   8.264
 1813POPC   C3A25481  32.976  16.002   7.964
 1813POPC   C4A25482  32.975  15.907   7.664
 1813POPC   C1B25483  33.211  15.800   8.564
 1813POPC   C2B25484  33.126  15.733   8.264
 1813POPC   C3B25485  33.211  15.785   7.964
 1813POPC   C4B25486  33.199  15.712   7.664
 1814POPC   NC325487   5.853  36.900   9.464
 1814POPC   PO425488   5.867  36.903   9.164
 1814POPC   GL125489   5.834  36.879   8.864
 1814POPC   GL225490   5.799  37.035   8.864
 1814POPC   C1A25491   5.915  36.917   8.564
 1814POPC   D2A25492   5.887  36.862   8.264
 1814POPC   C3A25493   5.904  36.914   7.964
 1814POPC   C4A25494   5.840  36.876   7.664
 1814POPC   C1B25495   5.751  37.158   8.564
 1814POPC   C2B25496   5.812  37.151   8.264
 1814POPC   C3B25497   5.800  37.131   7.964
 1814POPC   C4B25498   5.818  37.185   7.664
 1815POPC   NC325499  19.837  28.326   9.464
 1815POPC   PO425500  19.870  28.372   9.164
 1815POPC   GL125501  19.809  28.347   8.864
 1815POPC   GL225502  19.711  28.436   8.864
 1815POPC   C1A25503  19.879  28.392   8.564
 1815POPC   D2A25504  19.883  28.368   8.264
 1815POPC   C3A25505  19.794  28.363   7.964
 1815POPC   C4A25506  19.850  28.375   7.664
 1815POPC   C1B25507  19.568  28.451   8.564
 1815POPC   C2B25508  19.567  28.459   8.264
 1815POPC   C3B25509  19.600  28.415   7.964
 1815POPC   C4B25510  19.607  28.379   7.664
 1816POPC   NC325511   8.994  34.582   9.464
 1816POPC   PO425512   9.010  34.546   9.164
 1816POPC   GL125513   9.008  34.590   8.864
 1816POPC   GL225514   9.006  34.474   8.864
 1816POPC   C1A25515   8.931  34.547   8.564
 1816POPC   D2A25516   9.001  34.551   8.264
 1816POPC   C3A25517   8.927  34.591   7.964
 1816POPC   C4A25518   8.953  34.571   7.664
 1816POPC   C1B25519   9.047  34.348   8.564
 1816POPC   C2B25520   9.017  34.329   8.264
 1816POPC   C3B25521   9.076  34.365   7.964
 1816POPC   C4B25522   9.050  34.300   7.664
 1817POPC   NC325523   8.993  42.318   9.464
 1817POPC   PO425524   8.925  42.384   9.164
 1817POPC   GL125525   8.970  42.288   8.864
 1817POPC   GL225526   8.956  42.219   8.864
 1817POPC   C1A25527   9.002  42.370   8.564
 1817POPC   D2A25528   8.978  42.378   8.264
 1817POPC   C3A25529   8.950  42.342   7.964
 1817POPC   C4A25530   8.983  42.377   7.664
 1817POPC   C1B25531   9.022  42.038   8.564
 1817POPC   C2B25532   9.005  42.057   8.264
 1817POPC   C3B25533   8.984  42.115   7.964
 1817POPC   C4B25534   9.007  42.129   7.664
 1818POPC   NC325535  44.699  28.382   9.464
 1818POPC   PO425536  44.678  28.321   9.164
 1818POPC   GL125537  44.687  28.349   8.864
 1818POPC   GL225538  44.569  28.262   8.864
 1818POPC   C1A25539  44.637  28.329   8.564
 1818POPC   D2A25540  44.686  28.339   8.264
 1818POPC   C3A25541  44.615  28.409   7.964
 1818POPC   C4A25542  44.642  28.322   7.664
 1818POPC   C1B25543  44.449  28.196   8.564
 1818POPC   C2B25544  44.504  28.189   8.264
 1818POPC   C3B25545  44.444  28.219   7.964
 1818POPC   C4B25546  44.429  28.182   7.664
 1819POPC   NC325547  17.548   9.004   9.464
 1819POPC   PO425548  17.510   8.958   9.164
 1819POPC   GL125549  17.535   8.958   8.864
 1819POPC   GL225550  17.532   9.075   8.864
 1819POPC   C1A25551  17.512   8.938   8.564
 1819POPC   D2A25552  17.510   8.969   8.264
 1819POPC   C3A25553  17.517   9.009   7.964
 1819POPC   C4A25554  17.462   8.950   7.664
 1819POPC   C1B25555  17.608   9.236   8.564
 1819POPC   C2B25556  17.646   9.223   8.264
 1819POPC   C3B25557  17.586   9.143   7.964
 1819POPC   C4B25558  17.660   9.200   7.664
 1820POPC   NC325559  31.432   8.939   9.464
 1820POPC   PO425560  31.470   8.962   9.164
 1820POPC   GL125561  31.424   8.986   8.864
 1820POPC   GL225562  31.307   8.968   8.864
 1820POPC   C1A25563  31.489   8.941   8.564
 1820POPC   D2A25564  31.423   8.995   8.264
 1820POPC   C3A25565  31.443   8.958   7.964
 1820POPC   C4A25566  31.468   8.957   7.664
 1820POPC   C1B25567  31.264   8.963   8.564
 1820POPC   C2B25568  31.177   8.923   8.264
 1820POPC   C3B25569  31.223   8.980   7.964
 1820POPC   C4B25570  31.237   8.974   7.664
 1821POPC   NC325571  15.184  25.289   9.464
 1821POPC   PO425572  15.216  25.285   9.164
 1821POPC   GL125573  15.193  25.278   8.864
 1821POPC   GL225574  15.214  25.366   8.864
 1821POPC   C1A25575  15.196  25.237   8.564
 1821POPC   D2A25576  15.158  25.287   8.264
 1821POPC   C3A25577  15.194  25.296   7.964
 1821POPC   C4A25578  15.203  25.245   7.664
 1821POPC   C1B25579  15.248  25.457   8.564
 1821POPC   C2B25580  15.262  25.490   8.264
 1821POPC   C3B25581  15.287  25.534   7.964
 1821POPC   C4B25582  15.294  25.510   7.664
 1822POPC   NC325583   1.210  19.063   9.464
 1822POPC   PO425584   1.225  19.038   9.164
 1822POPC   GL125585   1.183  19.095   8.864
 1822POPC   GL225586   1.291  18.963   8.864
 1822POPC   C1A25587   1.255  19.080   8.564
 1822POPC   D2A25588   1.226  19.105   8.264
 1822POPC   C3A25589   1.222  19.104   7.964
 1822POPC   C4A25590   1.182  19.046   7.664
 1822POPC   C1B25591   1.350  18.881   8.564
 1822POPC   C2B25592   1.415  18.823   8.264
 1822POPC   C3B25593   1.369  18.841   7.964
 1822POPC   C4B25594   1.319  18.896   7.664
 1823POPC   NC325595  19.075  23.691   9.464
 1823POPC   PO425596  19.108  23.702   9.164
 1823POPC   GL125597  19.075  23.667   8.864
 1823POPC   GL225598  19.049  23.549   8.864
 1823POPC   C1A25599  19.103  23.703   8.564
 1823POPC   D2A25600  19.083  23.750   8.264
 1823POPC   C3A25601  19.050  23.711   7.964
 1823POPC   C4A25602  19.042  23.685   7.664
 1823POPC   C1B25603  19.094  23.478   8.564
 1823POPC   C2B25604  19.159  23.517   8.264
 1823POPC   C3B25605  19.151  23.452   7.964
 1823POPC   C4B25606  19.094  23.452   7.664
 1824POPC   NC325607   5.826  39.202   9.464
 1824POPC   PO425608   5.839  39.203   9.164
 1824POPC   GL125609   5.893  39.270   8.864
 1824POPC   GL225610   5.928  39.347   8.864
 1824POPC   C1A25611   5.828  39.248   8.564
 1824POPC   D2A25612   5.842  39.252   8.264
 1824POPC   C3A25613   5.877  39.207   7.964
 1824POPC   C4A25614   5.894  39.266   7.664
 1824POPC   C1B25615   6.043  39.337   8.564
 1824POPC   C2B25616   6.081  39.351   8.264
 1824POPC   C3B25617   6.102  39.390   7.964
 1824POPC   C4B25618   6.072  39.390   7.664
 1825POPC   NC325619  24.462  36.870   9.464
 1825POPC   PO425620  24.442  36.859   9.164
 1825POPC   GL125621  24.538  36.890   8.864
 1825POPC   GL225622  24.368  36.791   8.864
 1825POPC   C1A25623  24.504  36.881   8.564
 1825POPC   D2A25624  24.464  36.894   8.264
 1825POPC   C3A25625  24.485  36.947   7.964
 1825POPC   C4A25626  24.444  36.887   7.664
 1825POPC   C1B25627  24.258  36.694   8.564
 1825POPC   C2B25628  24.276  36.769   8.264
 1825POPC   C3B25629  24.339  36.768   7.964
 1825POPC   C4B25630  24.272  36.747   7.664
 1826POPC   NC325631  36.104  27.596   9.464
 1826POPC   PO425632  36.108  27.626   9.164
 1826POPC   GL125633  36.079  27.550   8.864
 1826POPC   GL225634  36.016  27.562   8.864
 1826POPC   C1A25635  36.079  27.564   8.564
 1826POPC   D2A25636  36.148  27.592   8.264
 1826POPC   C3A25637  36.080  27.624   7.964
 1826POPC   C4A25638  36.081  27.600   7.664
 1826POPC   C1B25639  35.962  27.420   8.564
 1826POPC   C2B25640  35.962  27.501   8.264
 1826POPC   C3B25641  35.876  27.428   7.964
 1826POPC   C4B25642  35.866  27.506   7.664
 1827POPC   NC325643   1.261  42.321   9.464
 1827POPC   PO425644   1.215  42.343   9.164
 1827POPC   GL125645   1.210  42.340   8.864
 1827POPC   GL225646   1.156  42.439   8.864
 1827POPC   C1A25647   1.220  42.363   8.564
 1827POPC   D2A25648   1.196  42.381   8.264
 1827POPC   C3A25649   1.223  42.364   7.964
 1827POPC   C4A25650   1.258  42.328   7.664
 1827POPC   C1B25651   1.074  42.575   8.564
 1827POPC   C2B25652   1.087  42.513   8.264
 1827POPC   C3B25653   1.039  42.527   7.964
 1827POPC   C4B25654   1.066  42.554   7.664
 1828POPC   NC325655  33.846  30.719   9.464
 1828POPC   PO425656  33.754  30.651   9.164
 1828POPC   GL125657  33.805  30.680   8.864
 1828POPC   GL225658  33.918  30.601   8.864
 1828POPC   C1A25659  33.790  30.683   8.564
 1828POPC   D2A25660  33.799  30.727   8.264
 1828POPC   C3A25661  33.785  30.672   7.964
 1828POPC   C4A25662  33.840  30.681   7.664
 1828POPC   C1B25663  33.936  30.440   8.564
 1828POPC   C2B25664  33.975  30.494   8.264
 1828POPC   C3B25665  33.891  30.507   7.964
 1828POPC   C4B25666  33.974  30.490   7.664
 1829POPC   NC325667  11.275  29.142   9.464
 1829POPC   PO425668  11.313  29.174   9.164
 1829POPC   GL125669  11.343  29.191   8.864
 1829POPC   GL225670  11.420  29.131   8.864
 1829POPC   C1A25671  11.293  29.111   8.564
 1829POPC   D2A25672  11.273  29.102   8.264
 1829POPC   C3A25673  11.268  29.138   7.964
 1829POPC   C4A25674  11.311  29.167   7.664
 1829POPC   C1B25675  11.595  29.167   8.564
 1829POPC   C2B25676  11.553  29.184   8.264
 1829POPC   C3B25677  11.567  29.150   7.964
 1829POPC   C4B25678  11.517  29.150   7.664
 1830POPC   NC325679  41.596  16.713   9.464
 1830POPC   PO425680  41.584  16.713   9.164
 1830POPC   GL125681  41.597  16.764   8.864
 1830POPC   GL225682  41.568  16.837   8.864
 1830POPC   C1A25683  41.601  16.760   8.564
 1830POPC   D2A25684  41.532  16.747   8.264
 1830POPC   C3A25685  41.588  16.689   7.964
 1830POPC   C4A25686  41.514  16.738   7.664
 1830POPC   C1B25687  41.668  16.931   8.564
 1830POPC   C2B25688  41.667  16.981   8.264
 1830POPC   C3B25689  41.713  16.953   7.964
 1830POPC   C4B25690  41.660  16.964   7.664
 1831POPC   NC325691   2.718  22.933   9.464
 1831POPC   PO425692   2.812  22.922   9.164
 1831POPC   GL125693   2.810  22.919   8.864
 1831POPC   GL225694   2.808  22.998   8.864
 1831POPC   C1A25695   2.784  22.901   8.564
 1831POPC   D2A25696   2.803  22.924   8.264
 1831POPC   C3A25697   2.749  22.924   7.964
 1831POPC   C4A25698   2.719  22.891   7.664
 1831POPC   C1B25699   2.893  23.126   8.564
 1831POPC   C2B25700   2.903  23.141   8.264
 1831POPC   C3B25701   2.949  23.178   7.964
 1831POPC   C4B25702   2.897  23.095   7.664
 1832POPC   NC325703   1.212   6.630   9.464
 1832POPC   PO425704   1.188   6.628   9.164
 1832POPC   GL125705   1.196   6.658   8.864
 1832POPC   GL225706   1.197   6.802   8.864
 1832POPC   C1A25707   1.167   6.687   8.564
 1832POPC   D2A25708   1.231   6.615   8.264
 1832POPC   C3A25709   1.244   6.628   7.964
 1832POPC   C4A25710   1.165   6.651   7.664
 1832POPC   C1B25711   1.286   6.847   8.564
 1832POPC   C2B25712   1.295   6.881   8.264
 1832POPC   C3B25713   1.246   6.872   7.964
 1832POPC   C4B25714   1.320   6.907   7.664
 1833POPC   NC325715  17.535  30.687   9.464
 1833POPC   PO425716  17.463  30.674   9.164
 1833POPC   GL125717  17.498  30.683   8.864
 1833POPC   GL225718  17.609  30.738   8.864
 1833POPC   C1A25719  17.503  30.683   8.564
 1833POPC   D2A25720  17.516  30.700   8.264
 1833POPC   C3A25721  17.472  30.663   7.964
 1833POPC   C4A25722  17.535  30.662   7.664
 1833POPC   C1B25723  17.678  30.827   8.564
 1833POPC   C2B25724  17.701  30.847   8.264
 1833POPC   C3B25725  17.691  30.831   7.964
 1833POPC   C4B25726  17.739  30.896   7.664
 1834POPC   NC325727  12.861  20.574   9.464
 1834POPC   PO425728  12.829  20.646   9.164
 1834POPC   GL125729  12.850  20.622   8.864
 1834POPC   GL225730  12.963  20.689   8.864
 1834POPC   C1A25731  12.828  20.657   8.564
 1834POPC   D2A25732  12.843  20.576   8.264
 1834POPC   C3A25733  12.828  20.567   7.964
 1834POPC   C4A25734  12.839  20.616   7.664
 1834POPC   C1B25735  13.013  20.741   8.564
 1834POPC   C2B25736  13.052  20.766   8.264
 1834POPC   C3B25737  13.067  20.709   7.964
 1834POPC   C4B25738  13.074  20.716   7.664
 1835POPC   NC325739   0.475  25.280   9.464
 1835POPC   PO425740   0.399  25.288   9.164
 1835POPC   GL125741   0.419  25.248   8.864
 1835POPC   GL225742   0.308  25.217   8.864
 1835POPC   C1A25743   0.487  25.267   8.564
 1835POPC   D2A25744   0.447  25.302   8.264
 1835POPC   C3A25745   0.483  25.222   7.964
 1835POPC   C4A25746   0.393  25.226   7.664
 1835POPC   C1B25747   0.250  25.144   8.564
 1835POPC   C2B25748   0.209  25.167   8.264
 1835POPC   C3B25749   0.208  25.138   7.964
 1835POPC   C4B25750   0.224  25.152   7.664
 1836POPC   NC325751  36.095  42.359   9.464
 1836POPC   PO425752  36.121  42.304   9.164
 1836POPC   GL125753  36.105  42.291   8.864
 1836POPC   GL225754  35.954  42.377   8.864
 1836POPC   C1A25755  36.163  42.321   8.564
 1836POPC   D2A25756  36.163  42.286   8.264
 1836POPC   C3A25757  36.175  42.351   7.964
 1836POPC   C4A25758  36.172  42.377   7.664
 1836POPC   C1B25759  35.862  42.296   8.564
 1836POPC   C2B25760  35.862  42.337   8.264
 1836POPC   C3B25761  35.847  42.380   7.964
 1836POPC   C4B25762  35.914  42.292   7.664
 1837POPC   NC325763  36.133  15.971   9.464
 1837POPC   PO425764  36.149  15.907   9.164
 1837POPC   GL125765  36.160  15.987   8.864
 1837POPC   GL225766  36.103  16.121   8.864
 1837POPC   C1A25767  36.171  15.926   8.564
 1837POPC   D2A25768  36.103  15.997   8.264
 1837POPC   C3A25769  36.106  15.953   7.964
 1837POPC   C4A25770  36.084  15.958   7.664
 1837POPC   C1B25771  36.164  16.217   8.564
 1837POPC   C2B25772  36.157  16.255   8.264
 1837POPC   C3B25773  36.117  16.172   7.964
 1837POPC   C4B25774  36.154  16.250   7.664
 1838POPC   NC325775  22.985  12.889   9.464
 1838POPC   PO425776  22.955  12.837   9.164
 1838POPC   GL125777  22.911  12.828   8.864
 1838POPC   GL225778  22.905  12.735   8.864
 1838POPC   C1A25779  22.928  12.851   8.564
 1838POPC   D2A25780  22.949  12.837   8.264
 1838POPC   C3A25781  22.982  12.875   7.964
 1838POPC   C4A25782  22.913  12.808   7.664
 1838POPC   C1B25783  22.881  12.584   8.564
 1838POPC   C2B25784  22.872  12.622   8.264
 1838POPC   C3B25785  22.872  12.628   7.964
 1838POPC   C4B25786  22.919  12.656   7.664
 1839POPC   NC325787  12.121   8.955   9.464
 1839POPC   PO425788  12.091   8.977   9.164
 1839POPC   GL125789  12.043   8.929   8.864
 1839POPC   GL225790  11.955   9.062   8.864
 1839POPC   C1A25791  12.036   8.935   8.564
 1839POPC   D2A25792  12.118   8.941   8.264
 1839POPC   C3A25793  12.113   8.945   7.964
 1839POPC   C4A25794  12.122   8.926   7.664
 1839POPC   C1B25795  11.906   9.171   8.564
 1839POPC   C2B25796  11.917   9.191   8.264
 1839POPC   C3B25797  11.880   9.209   7.964
 1839POPC   C4B25798  11.912   9.120   7.664
 1840POPC   NC325799  10.478   8.200   9.464
 1840POPC   PO425800  10.572   8.160   9.164
 1840POPC   GL125801  10.573   8.232   8.864
 1840POPC   GL225802  10.493   8.071   8.864
 1840POPC   C1A25803  10.493   8.238   8.564
 1840POPC   D2A25804  10.491   8.176   8.264
 1840POPC   C3A25805  10.522   8.168   7.964
 1840POPC   C4A25806  10.535   8.203   7.664
 1840POPC   C1B25807  10.420   7.954   8.564
 1840POPC   C2B25808  10.397   8.002   8.264
 1840POPC   C3B25809  10.402   7.971   7.964
 1840POPC   C4B25810  10.381   7.946   7.664
 1841POPC   NC325811  27.547  36.870   9.464
 1841POPC   PO425812  27.627  36.904   9.164
 1841POPC   GL125813  27.582  36.874   8.864
 1841POPC   GL225814  27.538  36.997   8.864
 1841POPC   C1A25815  27.617  36.912   8.564
 1841POPC   D2A25816  27.594  36.929   8.264
 1841POPC   C3A25817  27.621  36.868   7.964
 1841POPC   C4A25818  27.552  36.928   7.664
 1841POPC   C1B25819  27.562  37.145   8.564
 1841POPC   C2B25820  27.570  37.174   8.264
 1841POPC   C3B25821  27.577  37.187   7.964
 1841POPC   C4B25822  27.563  37.141   7.664
 1842POPC   NC325823  15.930  33.056   9.464
 1842POPC   PO425824  15.969  33.009   9.164
 1842POPC   GL125825  15.927  32.987   8.864
 1842POPC   GL225826  16.030  32.927   8.864
 1842POPC   C1A25827  15.929  33.057   8.564
 1842POPC   D2A25828  15.961  33.020   8.264
 1842POPC   C3A25829  15.989  33.033   7.964
 1842POPC   C4A25830  15.927  33.000   7.664
 1842POPC   C1B25831  16.144  32.829   8.564
 1842POPC   C2B25832  16.094  32.831   8.264
 1842POPC   C3B25833  16.119  32.822   7.964
 1842POPC   C4B25834  16.124  32.839   7.664
 1843POPC   NC325835  10.563  20.567   9.464
 1843POPC   PO425836  10.537  20.578   9.164
 1843POPC   GL125837  10.478  20.618   8.864
 1843POPC   GL225838  10.665  20.714   8.864
 1843POPC   C1A25839  10.534  20.596   8.564
 1843POPC   D2A25840  10.490  20.602   8.264
 1843POPC   C3A25841  10.540  20.643   7.964
 1843POPC   C4A25842  10.540  20.660   7.664
 1843POPC   C1B25843  10.719  20.776   8.564
 1843POPC   C2B25844  10.677  20.753   8.264
 1843POPC   C3B25845  10.749  20.779   7.964
 1843POPC   C4B25846  10.734  20.809   7.664
 1844POPC   NC325847  40.826  11.289   9.464
 1844POPC   PO425848  40.733  11.298   9.164
 1844POPC   GL125849  40.821  11.326   8.864
 1844POPC   GL225850  40.888  11.264   8.864
 1844POPC   C1A25851  40.785  11.275   8.564
 1844POPC   D2A25852  40.813  11.288   8.264
 1844POPC   C3A25853  40.780  11.300   7.964
 1844POPC   C4A25854  40.772  11.279   7.664
 1844POPC   C1B25855  41.012  11.172   8.564
 1844POPC   C2B25856  40.962  11.185   8.264
 1844POPC   C3B25857  41.008  11.107   7.964
 1844POPC   C4B25858  40.984  11.115   7.664
 1845POPC   NC325859   1.216  26.064   9.464
 1845POPC   PO425860   1.254  26.054   9.164
 1845POPC   GL125861   1.226  26.025   8.864
 1845POPC   GL225862   1.338  26.089   8.864
 1845POPC   C1A25863   1.251  26.027   8.564
 1845POPC   D2A25864   1.166  26.080   8.264
 1845POPC   C3A25865   1.187  26.032   7.964
 1845POPC   C4A25866   1.218  26.045   7.664
 1845POPC   C1B25867   1.429  26.055   8.564
 1845POPC   C2B25868   1.449  26.117   8.264
 1845POPC   C3B25869   1.474  26.097   7.964
 1845POPC   C4B25870   1.483  26.101   7.664
 1846POPC   NC325871  40.008  36.870   9.464
 1846POPC   PO425872  40.047  36.882   9.164
 1846POPC   GL125873  39.997  36.907   8.864
 1846POPC   GL225874  39.882  36.838   8.864
 1846POPC   C1A25875  40.052  36.854   8.564
 1846POPC   D2A25876  39.964  36.943   8.264
 1846POPC   C3A25877  40.009  36.891   7.964
 1846POPC   C4A25878  39.966  36.898   7.664
 1846POPC   C1B25879  39.762  36.782   8.564
 1846POPC   C2B25880  39.793  36.877   8.264
 1846POPC   C3B25881  39.817  36.832   7.964
 1846POPC   C4B25882  39.770  36.857   7.664
 1847POPC   NC325883  36.938  36.950   9.464
 1847POPC   PO425884  36.880  36.904   9.164
 1847POPC   GL125885  36.942  36.891   8.864
 1847POPC   GL225886  36.871  37.019   8.864
 1847POPC   C1A25887  36.892  36.870   8.564
 1847POPC   D2A25888  36.864  36.946   8.264
 1847POPC   C3A25889  36.898  36.869   7.964
 1847POPC   C4A25890  36.881  36.900   7.664
 1847POPC   C1B25891  36.810  37.083   8.564
 1847POPC   C2B25892  36.736  37.082   8.264
 1847POPC   C3B25893  36.747  37.069   7.964
 1847POPC   C4B25894  36.807  37.095   7.664
 1848POPC   NC325895  13.583   8.932   9.464
 1848POPC   PO425896  13.653   8.934   9.164
 1848POPC   GL125897  13.579   8.978   8.864
 1848POPC   GL225898  13.658   8.867   8.864
 1848POPC   C1A25899  13.629   8.929   8.564
 1848POPC   D2A25900  13.620   8.966   8.264
 1848POPC   C3A25901  13.641   9.006   7.964
 1848POPC   C4A25902  13.653   8.953   7.664
 1848POPC   C1B25903  13.560   8.731   8.564
 1848POPC   C2B25904  13.546   8.760   8.264
 1848POPC   C3B25905  13.577   8.734   7.964
 1848POPC   C4B25906  13.542   8.726   7.664
 1849POPC   NC325907   1.986  36.900   9.464
 1849POPC   PO425908   1.950  36.950   9.164
 1849POPC   GL125909   1.959  36.928   8.864
 1849POPC   GL225910   1.939  37.016   8.864
 1849POPC   C1A25911   2.018  36.910   8.564
 1849POPC   D2A25912   2.001  36.854   8.264
 1849POPC   C3A25913   1.955  36.879   7.964
 1849POPC   C4A25914   1.947  36.892   7.664
 1849POPC   C1B25915   1.835  37.084   8.564
 1849POPC   C2B25916   1.795  37.095   8.264
 1849POPC   C3B25917   1.792  37.055   7.964
 1849POPC   C4B25918   1.809  37.105   7.664
 1850POPC   NC325919  43.069  23.708   9.464
 1850POPC   PO425920  43.063  23.681   9.164
 1850POPC   GL125921  43.158  23.727   8.864
 1850POPC   GL225922  43.060  23.823   8.864
 1850POPC   C1A25923  43.135  23.679   8.564
 1850POPC   D2A25924  43.066  23.725   8.264
 1850POPC   C3A25925  43.066  23.737   7.964
 1850POPC   C4A25926  43.119  23.743   7.664
 1850POPC   C1B25927  42.947  23.950   8.564
 1850POPC   C2B25928  43.022  23.895   8.264
 1850POPC   C3B25929  42.996  23.907   7.964
 1850POPC   C4B25930  42.967  23.952   7.664
 1851POPC   NC325931  25.997  43.141   9.464
 1851POPC   PO425932  26.012  43.082   9.164
 1851POPC   GL125933  26.072  43.090   8.864
 1851POPC   GL225934  26.072  43.270   8.864
 1851POPC   C1A25935  26.084  43.072   8.564
 1851POPC   D2A25936  25.998  43.134   8.264
 1851POPC   C3A25937  26.068  43.112   7.964
 1851POPC   C4A25938  26.028  43.143   7.664
 1851POPC   C1B25939  26.129  43.388   8.564
 1851POPC   C2B25940  26.166  43.354   8.264
 1851POPC   C3B25941  26.156  43.385   7.964
 1851POPC   C4B25942  26.131  43.310   7.664
 1852POPC   NC325943  31.490  39.218   9.464
 1852POPC   PO425944  31.503  39.241   9.164
 1852POPC   GL125945  31.434  39.279   8.864
 1852POPC   GL225946  31.620  39.184   8.864
 1852POPC   C1A25947  31.506  39.260   8.564
 1852POPC   D2A25948  31.474  39.251   8.264
 1852POPC   C3A25949  31.425  39.281   7.964
 1852POPC   C4A25950  31.510  39.185   7.664
 1852POPC   C1B25951  31.677  39.181   8.564
 1852POPC   C2B25952  31.683  39.193   8.264
 1852POPC   C3B25953  31.709  39.165   7.964
 1852POPC   C4B25954  31.686  39.194   7.664
 1853POPC   NC325955  30.712  37.687   9.464
 1853POPC   PO425956  30.726  37.722   9.164
 1853POPC   GL125957  30.710  37.658   8.864
 1853POPC   GL225958  30.626  37.742   8.864
 1853POPC   C1A25959  30.698  37.699   8.564
 1853POPC   D2A25960  30.744  37.634   8.264
 1853POPC   C3A25961  30.719  37.637   7.964
 1853POPC   C4A25962  30.728  37.644   7.664
 1853POPC   C1B25963  30.515  37.844   8.564
 1853POPC   C2B25964  30.558  37.878   8.264
 1853POPC   C3B25965  30.554  37.915   7.964
 1853POPC   C4B25966  30.526  37.872   7.664
 1854POPC   NC325967  38.442  12.036   9.464
 1854POPC   PO425968  38.417  12.120   9.164
 1854POPC   GL125969  38.425  12.051   8.864
 1854POPC   GL225970  38.414  12.209   8.864
 1854POPC   C1A25971  38.454  12.047   8.564
 1854POPC   D2A25972  38.496  12.042   8.264
 1854POPC   C3A25973  38.471  12.117   7.964
 1854POPC   C4A25974  38.469  12.101   7.664
 1854POPC   C1B25975  38.322  12.273   8.564
 1854POPC   C2B25976  38.339  12.282   8.264
 1854POPC   C3B25977  38.294  12.252   7.964
 1854POPC   C4B25978  38.304  12.234   7.664
 1855POPC   NC325979   8.931  12.122   9.464
 1855POPC   PO425980   8.990  12.124   9.164
 1855POPC   GL125981   8.978  12.096   8.864
 1855POPC   GL225982   9.053  12.203   8.864
 1855POPC   C1A25983   8.988  12.037   8.564
 1855POPC   D2A25984   9.009  12.066   8.264
 1855POPC   C3A25985   8.990  12.077   7.964
 1855POPC   C4A25986   8.994  12.103   7.664
 1855POPC   C1B25987   9.164  12.284   8.564
 1855POPC   C2B25988   9.147  12.219   8.264
 1855POPC   C3B25989   9.146  12.292   7.964
 1855POPC   C4B25990   9.116  12.283   7.664
 1856POPC   NC325991  42.356  32.270   9.464
 1856POPC   PO425992  42.298  32.250   9.164
 1856POPC   GL125993  42.363  32.270   8.864
 1856POPC   GL225994  42.351  32.141   8.864
 1856POPC   C1A25995  42.294  32.214   8.564
 1856POPC   D2A25996  42.352  32.265   8.264
 1856POPC   C3A25997  42.305  32.228   7.964
 1856POPC   C4A25998  42.319  32.228   7.664
 1856POPC   C1B25999  42.329  32.042   8.564
 1856POPC   C2B26000  42.335  32.029   8.264
 1856POPC   C3B26001  42.334  31.960   7.964
 1856POPC   C4B26002  42.296  31.976   7.664
 1857POPC   NC326003   5.869  25.260   9.464
 1857POPC   PO426004   5.872  25.306   9.164
 1857POPC   GL126005   5.825  25.279   8.864
 1857POPC   GL226006   5.823  25.353   8.864
 1857POPC   C1A26007   5.901  25.302   8.564
 1857POPC   D2A26008   5.894  25.288   8.264
 1857POPC   C3A26009   5.850  25.230   7.964
 1857POPC   C4A26010   5.903  25.280   7.664
 1857POPC   C1B26011   5.729  25.475   8.564
 1857POPC   C2B26012   5.655  25.454   8.264
 1857POPC   C3B26013   5.726  25.474   7.964
 1857POPC   C4B26014   5.662  25.395   7.664
 1858POPC   NC326015  36.869  43.085   9.464
 1858POPC   PO426016  36.925  43.099   9.164
 1858POPC   GL126017  36.924  43.087   8.864
 1858POPC   GL226018  36.807  43.188   8.864
 1858POPC   C1A26019  36.937  43.114   8.564
 1858POPC   D2A26020  36.862  43.069   8.264
 1858POPC   C3A26021  36.875  43.093   7.964
 1858POPC   C4A26022  36.902  43.122   7.664
 1858POPC   C1B26023  36.752  43.333   8.564
 1858POPC   C2B26024  36.767  43.290   8.264
 1858POPC   C3B26025  36.764  43.341   7.964
 1858POPC   C4B26026  36.800  43.318   7.664
 1859POPC   NC326027  23.682  14.380   9.464
 1859POPC   PO426028  23.737  14.397   9.164
 1859POPC   GL126029  23.688  14.394   8.864
 1859POPC   GL226030  23.645  14.319   8.864
 1859POPC   C1A26031  23.692  14.382   8.564
 1859POPC   D2A26032  23.696  14.365   8.264
 1859POPC   C3A26033  23.704  14.407   7.964
 1859POPC   C4A26034  23.752  14.408   7.664
 1859POPC   C1B26035  23.472  14.282   8.564
 1859POPC   C2B26036  23.551  14.280   8.264
 1859POPC   C3B26037  23.455  14.229   7.964
 1859POPC   C4B26038  23.493  14.291   7.664
 1860POPC   NC326039  19.034  12.049   9.464
 1860POPC   PO426040  19.035  12.090   9.164
 1860POPC   GL126041  19.053  12.115   8.864
 1860POPC   GL226042  18.932  12.069   8.864
 1860POPC   C1A26043  19.048  12.033   8.564
 1860POPC   D2A26044  19.108  12.077   8.264
 1860POPC   C3A26045  19.080  12.073   7.964
 1860POPC   C4A26046  19.091  12.092   7.664
 1860POPC   C1B26047  18.859  12.016   8.564
 1860POPC   C2B26048  18.815  11.978   8.264
 1860POPC   C3B26049  18.864  12.018   7.964
 1860POPC   C4B26050  18.784  12.034   7.664
 1861POPC   NC326051  28.370  33.048   9.464
 1861POPC   PO426052  28.359  33.013   9.164
 1861POPC   GL126053  28.410  33.059   8.864
 1861POPC   GL226054  28.380  32.865   8.864
 1861POPC   C1A26055  28.379  33.015   8.564
 1861POPC   D2A26056  28.380  33.052   8.264
 1861POPC   C3A26057  28.382  33.035   7.964
 1861POPC   C4A26058  28.330  33.028   7.664
 1861POPC   C1B26059  28.248  32.789   8.564
 1861POPC   C2B26060  28.265  32.804   8.264
 1861POPC   C3B26061  28.265  32.754   7.964
 1861POPC   C4B26062  28.309  32.834   7.664
 1862POPC   NC326063   5.877  30.711   9.464
 1862POPC   PO426064   5.903  30.709   9.164
 1862POPC   GL126065   5.844  30.690   8.864
 1862POPC   GL226066   5.895  30.549   8.864
 1862POPC   C1A26067   5.907  30.702   8.564
 1862POPC   D2A26068   5.909  30.680   8.264
 1862POPC   C3A26069   5.876  30.722   7.964
 1862POPC   C4A26070   5.896  30.675   7.664
 1862POPC   C1B26071   5.896  30.397   8.564
 1862POPC   C2B26072   5.907  30.467   8.264
 1862POPC   C3B26073   5.839  30.442   7.964
 1862POPC   C4B26074   5.897  30.485   7.664
 1863POPC   NC326075  40.001  11.272   9.464
 1863POPC   PO426076  39.963  11.323   9.164
 1863POPC   GL126077  40.013  11.289   8.864
 1863POPC   GL226078  39.984  11.138   8.864
 1863POPC   C1A26079  40.008  11.282   8.564
 1863POPC   D2A26080  40.006  11.282   8.264
 1863POPC   C3A26081  39.961  11.290   7.964
 1863POPC   C4A26082  40.018  11.328   7.664
 1863POPC   C1B26083  39.954  11.009   8.564
 1863POPC   C2B26084  39.929  11.028   8.264
 1863POPC   C3B26085  39.954  11.040   7.964
 1863POPC   C4B26086  39.938  11.043   7.664
 1864POPC   NC326087  17.480  29.913   9.464
 1864POPC   PO426088  17.459  29.917   9.164
 1864POPC   GL126089  17.555  29.883   8.864
 1864POPC   GL226090  17.416  29.993   8.864
 1864POPC   C1A26091  17.497  29.922   8.564
 1864POPC   D2A26092  17.483  29.890   8.264
 1864POPC   C3A26093  17.494  29.893   7.964
 1864POPC   C4A26094  17.489  29.945   7.664
 1864POPC   C1B26095  17.238  30.009   8.564
 1864POPC   C2B26096  17.250  29.961   8.264
 1864POPC   C3B26097  17.264  29.980   7.964
 1864POPC   C4B26098  17.269  30.010   7.664
 1865POPC   NC326099   8.172  22.899   9.464
 1865POPC   PO426100   8.179  22.948   9.164
 1865POPC   GL126101   8.160  22.934   8.864
 1865POPC   GL226102   8.289  22.792   8.864
 1865POPC   C1A26103   8.168  22.953   8.564
 1865POPC   D2A26104   8.225  22.960   8.264
 1865POPC   C3A26105   8.191  22.935   7.964
 1865POPC   C4A26106   8.182  22.984   7.664
 1865POPC   C1B26107   8.242  22.730   8.564
 1865POPC   C2B26108   8.331  22.666   8.264
 1865POPC   C3B26109   8.298  22.677   7.964
 1865POPC   C4B26110   8.284  22.682   7.664
 1866POPC   NC326111   7.402  19.861   9.464
 1866POPC   PO426112   7.461  19.865   9.164
 1866POPC   GL126113   7.470  19.858   8.864
 1866POPC   GL226114   7.481  19.731   8.864
 1866POPC   C1A26115   7.371  19.787   8.564
 1866POPC   D2A26116   7.418  19.821   8.264
 1866POPC   C3A26117   7.441  19.829   7.964
 1866POPC   C4A26118   7.420  19.868   7.664
 1866POPC   C1B26119   7.517  19.582   8.564
 1866POPC   C2B26120   7.523  19.563   8.264
 1866POPC   C3B26121   7.554  19.657   7.964
 1866POPC   C4B26122   7.563  19.577   7.664
 1867POPC   NC326123  29.907   7.423   9.464
 1867POPC   PO426124  29.944   7.407   9.164
 1867POPC   GL126125  29.958   7.401   8.864
 1867POPC   GL226126  29.830   7.355   8.864
 1867POPC   C1A26127  29.881   7.388   8.564
 1867POPC   D2A26128  29.939   7.404   8.264
 1867POPC   C3A26129  29.965   7.376   7.964
 1867POPC   C4A26130  29.941   7.434   7.664
 1867POPC   C1B26131  29.781   7.177   8.564
 1867POPC   C2B26132  29.828   7.237   8.264
 1867POPC   C3B26133  29.836   7.222   7.964
 1867POPC   C4B26134  29.847   7.198   7.664
 1868POPC   NC326135  37.707  26.079   9.464
 1868POPC   PO426136  37.692  26.042   9.164
 1868POPC   GL126137  37.664  26.060   8.864
 1868POPC   GL226138  37.763  26.133   8.864
 1868POPC   C1A26139  37.708  26.081   8.564
 1868POPC   D2A26140  37.716  26.083   8.264
 1868POPC   C3A26141  37.699  26.040   7.964
 1868POPC   C4A26142  37.652  26.061   7.664
 1868POPC   C1B26143  37.873  26.167   8.564
 1868POPC   C2B26144  37.873  26.149   8.264
 1868POPC   C3B26145  37.918  26.218   7.964
 1868POPC   C4B26146  37.839  26.231   7.664
 1869POPC   NC326147   4.273  18.258   9.464
 1869POPC   PO426148   4.299  18.256   9.164
 1869POPC   GL126149   4.324  18.233   8.864
 1869POPC   GL226150   4.180  18.249   8.864
 1869POPC   C1A26151   4.362  18.251   8.564
 1869POPC   D2A26152   4.347  18.269   8.264
 1869POPC   C3A26153   4.348  18.315   7.964
 1869POPC   C4A26154   4.268  18.287   7.664
 1869POPC   C1B26155   4.097  18.277   8.564
 1869POPC   C2B26156   4.071  18.185   8.264
 1869POPC   C3B26157   4.043  18.269   7.964
 1869POPC   C4B26158   4.062  18.267   7.664
 1870POPC   NC326159  24.449  19.880   9.464
 1870POPC   PO426160  24.512  19.785   9.164
 1870POPC   GL126161  24.529  19.858   8.864
 1870POPC   GL226162  24.525  19.942   8.864
 1870POPC   C1A26163  24.457  19.868   8.564
 1870POPC   D2A26164  24.459  19.860   8.264
 1870POPC   C3A26165  24.468  19.846   7.964
 1870POPC   C4A26166  24.488  19.827   7.664
 1870POPC   C1B26167  24.537  20.084   8.564
 1870POPC   C2B26168  24.495  20.059   8.264
 1870POPC   C3B26169  24.549  20.105   7.964
 1870POPC   C4B26170  24.494  20.035   7.664
 1871POPC   NC326171  41.517  39.223   9.464
 1871POPC   PO426172  41.559  39.230   9.164
 1871POPC   GL126173  41.525  39.245   8.864
 1871POPC   GL226174  41.687  39.138   8.864
 1871POPC   C1A26175  41.517  39.275   8.564
 1871POPC   D2A26176  41.542  39.200   8.264
 1871POPC   C3A26177  41.603  39.239   7.964
 1871POPC   C4A26178  41.537  39.183   7.664
 1871POPC   C1B26179  41.719  39.087   8.564
 1871POPC   C2B26180  41.750  39.056   8.264
 1871POPC   C3B26181  41.790  39.072   7.964
 1871POPC   C4B26182  41.706  39.056   7.664
 1872POPC   NC326183  25.231  10.482   9.464
 1872POPC   PO426184  25.244  10.476   9.164
 1872POPC   GL126185  25.282  10.502   8.864
 1872POPC   GL226186  25.422  10.424   8.864
 1872POPC   C1A26187  25.237  10.515   8.564
 1872POPC   D2A26188  25.272  10.527   8.264
 1872POPC   C3A26189  25.299  10.522   7.964
 1872POPC   C4A26190  25.238  10.508   7.664
 1872POPC   C1B26191  25.473  10.377   8.564
 1872POPC   C2B26192  25.512  10.367   8.264
 1872POPC   C3B26193  25.485  10.406   7.964
 1872POPC   C4B26194  25.436  10.363   7.664
 1873POPC   NC326195   5.821  22.958   9.464
 1873POPC   PO426196   5.857  22.946   9.164
 1873POPC   GL126197   5.839  22.924   8.864
 1873POPC   GL226198   6.029  22.879   8.864
 1873POPC   C1A26199   5.873  22.909   8.564
 1873POPC   D2A26200   5.878  22.952   8.264
 1873POPC   C3A26201   5.899  22.898   7.964
 1873POPC   C4A26202   5.914  22.920   7.664
 1873POPC   C1B26203   6.065  22.861   8.564
 1873POPC   C2B26204   6.105  22.889   8.264
 1873POPC   C3B26205   6.139  22.924   7.964
 1873POPC   C4B26206   6.136  22.895   7.664
 1874POPC   NC326207   9.770   9.699   9.464
 1874POPC   PO426208   9.773   9.785   9.164
 1874POPC   GL126209   9.766   9.770   8.864
 1874POPC   GL226210   9.793   9.614   8.864
 1874POPC   C1A26211   9.703   9.719   8.564
 1874POPC   D2A26212   9.774   9.798   8.264
 1874POPC   C3A26213   9.774   9.723   7.964
 1874POPC   C4A26214   9.730   9.701   7.664
 1874POPC   C1B26215   9.753   9.543   8.564
 1874POPC   C2B26216   9.781   9.505   8.264
 1874POPC   C3B26217   9.813   9.496   7.964
 1874POPC   C4B26218   9.788   9.546   7.664
 1875POPC   NC326219   8.226  19.873   9.464
 1875POPC   PO426220   8.191  19.850   9.164
 1875POPC   GL126221   8.226  19.792   8.864
 1875POPC   GL226222   8.108  19.754   8.864
 1875POPC   C1A26223   8.227  19.866   8.564
 1875POPC   D2A26224   8.201  19.817   8.264
 1875POPC   C3A26225   8.193  19.862   7.964
 1875POPC   C4A26226   8.241  19.876   7.664
 1875POPC   C1B26227   8.008  19.738   8.564
 1875POPC   C2B26228   7.979  19.712   8.264
 1875POPC   C3B26229   7.929  19.722   7.964
 1875POPC   C4B26230   7.964  19.733   7.664
 1876POPC   NC326231  14.406  33.062   9.464
 1876POPC   PO426232  14.398  33.040   9.164
 1876POPC   GL126233  14.363  33.004   8.864
 1876POPC   GL226234  14.308  32.938   8.864
 1876POPC   C1A26235  14.383  33.056   8.564
 1876POPC   D2A26236  14.432  33.066   8.264
 1876POPC   C3A26237  14.427  33.070   7.964
 1876POPC   C4A26238  14.390  33.042   7.664
 1876POPC   C1B26239  14.205  32.846   8.564
 1876POPC   C2B26240  14.168  32.859   8.264
 1876POPC   C3B26241  14.210  32.890   7.964
 1876POPC   C4B26242  14.193  32.901   7.664
 1877POPC   NC326243  44.670  34.611   9.464
 1877POPC   PO426244  44.634  34.531   9.164
 1877POPC   GL126245  44.669  34.610   8.864
 1877POPC   GL226246  44.547  34.502   8.864
 1877POPC   C1A26247  44.615  34.574   8.564
 1877POPC   D2A26248  44.674  34.556   8.264
 1877POPC   C3A26249  44.620  34.550   7.964
 1877POPC   C4A26250  44.632  34.541   7.664
 1877POPC   C1B26251  44.524  34.362   8.564
 1877POPC   C2B26252  44.476  34.413   8.264
 1877POPC   C3B26253  44.489  34.405   7.964
 1877POPC   C4B26254  44.521  34.347   7.664
 1878POPC   NC326255  42.365   1.244   9.464
 1878POPC   PO426256  42.357   1.167   9.164
 1878POPC   GL126257  42.286   1.214   8.864
 1878POPC   GL226258  42.165   1.247   8.864
 1878POPC   C1A26259  42.323   1.174   8.564
 1878POPC   D2A26260  42.353   1.204   8.264
 1878POPC   C3A26261  42.326   1.218   7.964
 1878POPC   C4A26262  42.319   1.261   7.664
 1878POPC   C1B26263  42.124   1.241   8.564
 1878POPC   C2B26264  42.127   1.295   8.264
 1878POPC   C3B26265  42.135   1.255   7.964
 1878POPC   C4B26266  42.107   1.207   7.664
 1879POPC   NC326267  38.450  15.135   9.464
 1879POPC   PO426268  38.455  15.188   9.164
 1879POPC   GL126269  38.415  15.194   8.864
 1879POPC   GL226270  38.351  15.222   8.864
 1879POPC   C1A26271  38.420  15.144   8.564
 1879POPC   D2A26272  38.464  15.132   8.264
 1879POPC   C3A26273  38.418  15.161   7.964
 1879POPC   C4A26274  38.484  15.214   7.664
 1879POPC   C1B26275  38.231  15.130   8.564
 1879POPC   C2B26276  38.169  15.196   8.264
 1879POPC   C3B26277  38.212  15.214   7.964
 1879POPC   C4B26278  38.194  15.145   7.664
 1880POPC   NC326279   5.856   9.789   9.464
 1880POPC   PO426280   5.842   9.718   9.164
 1880POPC   GL126281   5.826   9.731   8.864
 1880POPC   GL226282   5.938   9.689   8.864
 1880POPC   C1A26283   5.909   9.752   8.564
 1880POPC   D2A26284   5.916   9.732   8.264
 1880POPC   C3A26285   5.902   9.724   7.964
 1880POPC   C4A26286   5.846   9.722   7.664
 1880POPC   C1B26287   6.075   9.711   8.564
 1880POPC   C2B26288   6.083   9.690   8.264
 1880POPC   C3B26289   6.140   9.639   7.964
 1880POPC   C4B26290   6.087   9.699   7.664
 1881POPC   NC326291   8.236  44.709   9.464
 1881POPC   PO426292   8.173  44.630   9.164
 1881POPC   GL126293   8.223  44.656   8.864
 1881POPC   GL226294   8.275  44.621   8.864
 1881POPC   C1A26295   8.197  44.665   8.564
 1881POPC   D2A26296   8.218  44.699   8.264
 1881POPC   C3A26297   8.222  44.692   7.964
 1881POPC   C4A26298   8.160  44.673   7.664
 1881POPC   C1B26299   8.485  44.673   8.564
 1881POPC   C2B26300   8.409  44.671   8.264
 1881POPC   C3B26301   8.448  44.649   7.964
 1881POPC   C4B26302   8.490  44.694   7.664
 1882POPC   NC326303  33.048  29.111   9.464
 1882POPC   PO426304  33.023  29.118   9.164
 1882POPC   GL126305  33.045  29.095   8.864
 1882POPC   GL226306  32.921  29.105   8.864
 1882POPC   C1A26307  33.067  29.124   8.564
 1882POPC   D2A26308  33.009  29.136   8.264
 1882POPC   C3A26309  33.052  29.171   7.964
 1882POPC   C4A26310  33.026  29.175   7.664
 1882POPC   C1B26311  32.865  28.967   8.564
 1882POPC   C2B26312  32.867  28.961   8.264
 1882POPC   C3B26313  32.847  29.039   7.964
 1882POPC   C4B26314  32.776  29.025   7.664
 1883POPC   NC326315  16.700  22.117   9.464
 1883POPC   PO426316  16.710  22.178   9.164
 1883POPC   GL126317  16.735  22.166   8.864
 1883POPC   GL226318  16.634  22.253   8.864
 1883POPC   C1A26319  16.760  22.181   8.564
 1883POPC   D2A26320  16.726  22.165   8.264
 1883POPC   C3A26321  16.731  22.146   7.964
 1883POPC   C4A26322  16.715  22.117   7.664
 1883POPC   C1B26323  16.487  22.305   8.564
 1883POPC   C2B26324  16.537  22.282   8.264
 1883POPC   C3B26325  16.518  22.233   7.964
 1883POPC   C4B26326  16.516  22.322   7.664
 1884POPC   NC326327  19.851  21.347   9.464
 1884POPC   PO426328  19.842  21.367   9.164
 1884POPC   GL126329  19.813  21.400   8.864
 1884POPC   GL226330  19.947  21.378   8.864
 1884POPC   C1A26331  19.832  21.354   8.564
 1884POPC   D2A26332  19.835  21.431   8.264
 1884POPC   C3A26333  19.841  21.345   7.964
 1884POPC   C4A26334  19.787  21.395   7.664
 1884POPC   C1B26335  20.070  21.487   8.564
 1884POPC   C2B26336  20.090  21.452   8.264
 1884POPC   C3B26337  20.054  21.488   7.964
 1884POPC   C4B26338  20.100  21.453   7.664
 1885POPC   NC326339  31.501  16.749   9.464
 1885POPC   PO426340  31.500  16.743   9.164
 1885POPC   GL126341  31.430  16.714   8.864
 1885POPC   GL226342  31.631  16.711   8.864
 1885POPC   C1A26343  31.439  16.704   8.564
 1885POPC   D2A26344  31.447  16.777   8.264
 1885POPC   C3A26345  31.513  16.688   7.964
 1885POPC   C4A26346  31.460  16.754   7.664
 1885POPC   C1B26347  31.654  16.580   8.564
 1885POPC   C2B26348  31.720  16.618   8.264
 1885POPC   C3B26349  31.681  16.648   7.964
 1885POPC   C4B26350  31.676  16.609   7.664
 1886POPC   NC326351  37.681  22.944   9.464
 1886POPC   PO426352  37.658  22.925   9.164
 1886POPC   GL126353  37.726  22.895   8.864
 1886POPC   GL226354  37.640  22.815   8.864
 1886POPC   C1A26355  37.660  22.983   8.564
 1886POPC   D2A26356  37.658  22.904   8.264
 1886POPC   C3A26357  37.635  22.930   7.964
 1886POPC   C4A26358  37.690  22.898   7.664
 1886POPC   C1B26359  37.534  22.770   8.564
 1886POPC   C2B26360  37.576  22.738   8.264
 1886POPC   C3B26361  37.504  22.676   7.964
 1886POPC   C4B26362  37.583  22.685   7.664
 1887POPC   NC326363  43.147  40.811   9.464
 1887POPC   PO426364  43.093  40.821   9.164
 1887POPC   GL126365  43.135  40.784   8.864
 1887POPC   GL226366  42.968  40.808   8.864
 1887POPC   C1A26367  43.063  40.790   8.564
 1887POPC   D2A26368  43.139  40.787   8.264
 1887POPC   C3A26369  43.066  40.742   7.964
 1887POPC   C4A26370  43.067  40.751   7.664
 1887POPC   C1B26371  42.834  40.799   8.564
 1887POPC   C2B26372  42.818  40.823   8.264
 1887POPC   C3B26373  42.892  40.793   7.964
 1887POPC   C4B26374  42.865  40.797   7.664
 1888POPC   NC326375  30.667  39.280   9.464
 1888POPC   PO426376  30.659  39.261   9.164
 1888POPC   GL126377  30.684  39.247   8.864
 1888POPC   GL226378  30.673  39.152   8.864
 1888POPC   C1A26379  30.735  39.278   8.564
 1888POPC   D2A26380  30.675  39.267   8.264
 1888POPC   C3A26381  30.685  39.218   7.964
 1888POPC   C4A26382  30.651  39.195   7.664
 1888POPC   C1B26383  30.703  38.959   8.564
 1888POPC   C2B26384  30.775  38.997   8.264
 1888POPC   C3B26385  30.711  39.001   7.964
 1888POPC   C4B26386  30.730  39.031   7.664
 1889POPC   NC326387   8.236  24.482   9.464
 1889POPC   PO426388   8.205  24.516   9.164
 1889POPC   GL126389   8.223  24.446   8.864
 1889POPC   GL226390   8.322  24.368   8.864
 1889POPC   C1A26391   8.154  24.510   8.564
 1889POPC   D2A26392   8.190  24.443   8.264
 1889POPC   C3A26393   8.167  24.519   7.964
 1889POPC   C4A26394   8.203  24.515   7.664
 1889POPC   C1B26395   8.318  24.320   8.564
 1889POPC   C2B26396   8.357  24.260   8.264
 1889POPC   C3B26397   8.342  24.261   7.964
 1889POPC   C4B26398   8.366  24.281   7.664
 1890POPC   NC326399   7.425  22.200   9.464
 1890POPC   PO426400   7.402  22.164   9.164
 1890POPC   GL126401   7.401  22.201   8.864
 1890POPC   GL226402   7.256  22.065   8.864
 1890POPC   C1A26403   7.372  22.154   8.564
 1890POPC   D2A26404   7.377  22.137   8.264
 1890POPC   C3A26405   7.392  22.124   7.964
 1890POPC   C4A26406   7.379  22.203   7.664
 1890POPC   C1B26407   7.205  22.046   8.564
 1890POPC   C2B26408   7.237  22.026   8.264
 1890POPC   C3B26409   7.170  22.017   7.964
 1890POPC   C4B26410   7.171  22.095   7.664
 1891POPC   NC326411  27.642   7.415   9.464
 1891POPC   PO426412  27.598   7.453   9.164
 1891POPC   GL126413  27.551   7.451   8.864
 1891POPC   GL226414  27.520   7.295   8.864
 1891POPC   C1A26415  27.628   7.413   8.564
 1891POPC   D2A26416  27.544   7.454   8.264
 1891POPC   C3A26417  27.593   7.453   7.964
 1891POPC   C4A26418  27.583   7.440   7.664
 1891POPC   C1B26419  27.435   7.177   8.564
 1891POPC   C2B26420  27.473   7.193   8.264
 1891POPC   C3B26421  27.447   7.190   7.964
 1891POPC   C4B26422  27.451   7.231   7.664
 1892POPC   NC326423   5.062  36.170   9.464
 1892POPC   PO426424   5.090  36.079   9.164
 1892POPC   GL126425   5.114  36.118   8.864
 1892POPC   GL226426   5.154  36.031   8.864
 1892POPC   C1A26427   5.097  36.088   8.564
 1892POPC   D2A26428   5.055  36.154   8.264
 1892POPC   C3A26429   5.081  36.162   7.964
 1892POPC   C4A26430   5.091  36.108   7.664
 1892POPC   C1B26431   5.091  35.891   8.564
 1892POPC   C2B26432   5.145  35.883   8.264
 1892POPC   C3B26433   5.182  35.835   7.964
 1892POPC   C4B26434   5.111  35.922   7.664
 1893POPC   NC326435  38.452   1.212   9.464
 1893POPC   PO426436  38.501   1.170   9.164
 1893POPC   GL126437  38.464   1.234   8.864
 1893POPC   GL226438  38.508   1.290   8.864
 1893POPC   C1A26439  38.498   1.199   8.564
 1893POPC   D2A26440  38.482   1.246   8.264
 1893POPC   C3A26441  38.485   1.222   7.964
 1893POPC   C4A26442  38.473   1.206   7.664
 1893POPC   C1B26443  38.516   1.452   8.564
 1893POPC   C2B26444  38.539   1.470   8.264
 1893POPC   C3B26445  38.560   1.410   7.964
 1893POPC   C4B26446  38.526   1.430   7.664
 1894POPC   NC326447   2.763  30.732   9.464
 1894POPC   PO426448   2.749  30.696   9.164
 1894POPC   GL126449   2.798  30.669   8.864
 1894POPC   GL226450   2.831  30.786   8.864
 1894POPC   C1A26451   2.758  30.690   8.564
 1894POPC   D2A26452   2.735  30.663   8.264
 1894POPC   C3A26453   2.811  30.734   7.964
 1894POPC   C4A26454   2.743  30.683   7.664
 1894POPC   C1B26455   2.972  30.876   8.564
 1894POPC   C2B26456   2.957  30.885   8.264
 1894POPC   C3B26457   2.926  30.823   7.964
 1894POPC   C4B26458   2.945  30.795   7.664
 1895POPC   NC326459  15.176  34.592   9.464
 1895POPC   PO426460  15.145  34.598   9.164
 1895POPC   GL126461  15.149  34.581   8.864
 1895POPC   GL226462  15.066  34.620   8.864
 1895POPC   C1A26463  15.189  34.528   8.564
 1895POPC   D2A26464  15.146  34.613   8.264
 1895POPC   C3A26465  15.158  34.596   7.964
 1895POPC   C4A26466  15.176  34.536   7.664
 1895POPC   C1B26467  14.937  34.653   8.564
 1895POPC   C2B26468  14.933  34.586   8.264
 1895POPC   C3B26469  14.979  34.597   7.964
 1895POPC   C4B26470  14.914  34.659   7.664
 1896POPC   NC326471  32.975  32.294   9.464
 1896POPC   PO426472  32.997  32.262   9.164
 1896POPC   GL126473  33.024  32.225   8.864
 1896POPC   GL226474  33.038  32.361   8.864
 1896POPC   C1A26475  33.041  32.248   8.564
 1896POPC   D2A26476  32.975  32.257   8.264
 1896POPC   C3A26477  33.020  32.232   7.964
 1896POPC   C4A26478  33.002  32.226   7.664
 1896POPC   C1B26479  32.945  32.533   8.564
 1896POPC   C2B26480  32.995  32.475   8.264
 1896POPC   C3B26481  32.971  32.479   7.964
 1896POPC   C4B26482  33.003  32.490   7.664
 1897POPC   NC326483  32.235  26.060   9.464
 1897POPC   PO426484  32.265  26.075   9.164
 1897POPC   GL126485  32.214  26.033   8.864
 1897POPC   GL226486  32.292  25.954   8.864
 1897POPC   C1A26487  32.216  26.041   8.564
 1897POPC   D2A26488  32.245  26.076   8.264
 1897POPC   C3A26489  32.228  26.068   7.964
 1897POPC   C4A26490  32.241  26.065   7.664
 1897POPC   C1B26491  32.341  25.882   8.564
 1897POPC   C2B26492  32.409  25.788   8.264
 1897POPC   C3B26493  32.351  25.858   7.964
 1897POPC   C4B26494  32.378  25.812   7.664
 1898POPC   NC326495   4.349  38.424   9.464
 1898POPC   PO426496   4.355  38.417   9.164
 1898POPC   GL126497   4.299  38.455   8.864
 1898POPC   GL226498   4.242  38.523   8.864
 1898POPC   C1A26499   4.274  38.492   8.564
 1898POPC   D2A26500   4.297  38.482   8.264
 1898POPC   C3A26501   4.293  38.431   7.964
 1898POPC   C4A26502   4.359  38.453   7.664
 1898POPC   C1B26503   4.185  38.644   8.564
 1898POPC   C2B26504   4.234  38.671   8.264
 1898POPC   C3B26505   4.205  38.683   7.964
 1898POPC   C4B26506   4.175  38.633   7.664
 1899POPC   NC326507  36.086  29.184   9.464
 1899POPC   PO426508  36.107  29.192   9.164
 1899POPC   GL126509  36.106  29.154   8.864
 1899POPC   GL226510  36.028  29.085   8.864
 1899POPC   C1A26511  36.141  29.157   8.564
 1899POPC   D2A26512  36.092  29.097   8.264
 1899POPC   C3A26513  36.170  29.186   7.964
 1899POPC   C4A26514  36.177  29.148   7.664
 1899POPC   C1B26515  35.917  29.151   8.564
 1899POPC   C2B26516  35.837  29.115   8.264
 1899POPC   C3B26517  35.882  29.130   7.964
 1899POPC   C4B26518  35.864  29.086   7.664
 1900POPC   NC326519  29.877  38.417   9.464
 1900POPC   PO426520  29.906  38.435   9.164
 1900POPC   GL126521  29.942  38.471   8.864
 1900POPC   GL226522  29.988  38.592   8.864
 1900POPC   C1A26523  29.964  38.435   8.564
 1900POPC   D2A26524  29.967  38.503   8.264
 1900POPC   C3A26525  29.954  38.414   7.964
 1900POPC   C4A26526  29.914  38.453   7.664
 1900POPC   C1B26527  30.009  38.688   8.564
 1900POPC   C2B26528  30.031  38.706   8.264
 1900POPC   C3B26529  29.978  38.677   7.964
 1900POPC   C4B26530  29.950  38.702   7.664
 1901POPC   NC326531  15.917  26.770   9.464
 1901POPC   PO426532  15.965  26.796   9.164
 1901POPC   GL126533  15.949  26.857   8.864
 1901POPC   GL226534  15.819  26.790   8.864
 1901POPC   C1A26535  15.994  26.794   8.564
 1901POPC   D2A26536  15.967  26.851   8.264
 1901POPC   C3A26537  15.935  26.862   7.964
 1901POPC   C4A26538  15.997  26.771   7.664
 1901POPC   C1B26539  15.755  26.783   8.564
 1901POPC   C2B26540  15.749  26.832   8.264
 1901POPC   C3B26541  15.686  26.849   7.964
 1901POPC   C4B26542  15.655  26.795   7.664
 1902POPC   NC326543  31.502  11.282   9.464
 1902POPC   PO426544  31.517  11.281   9.164
 1902POPC   GL126545  31.440  11.300   8.864
 1902POPC   GL226546  31.641  11.313   8.864
 1902POPC   C1A26547  31.521  11.288   8.564
 1902POPC   D2A26548  31.514  11.327   8.264
 1902POPC   C3A26549  31.499  11.318   7.964
 1902POPC   C4A26550  31.443  11.304   7.664
 1902POPC   C1B26551  31.680  11.293   8.564
 1902POPC   C2B26552  31.712  11.278   8.264
 1902POPC   C3B26553  31.716  11.252   7.964
 1902POPC   C4B26554  31.730  11.271   7.664
 1903POPC   NC326555  40.760  42.349   9.464
 1903POPC   PO426556  40.767  42.371   9.164
 1903POPC   GL126557  40.798  42.326   8.864
 1903POPC   GL226558  40.835  42.475   8.864
 1903POPC   C1A26559  40.738  42.348   8.564
 1903POPC   D2A26560  40.734  42.295   8.264
 1903POPC   C3A26561  40.777  42.368   7.964
 1903POPC   C4A26562  40.747  42.320   7.664
 1903POPC   C1B26563  40.898  42.570   8.564
 1903POPC   C2B26564  40.856  42.520   8.264
 1903POPC   C3B26565  40.936  42.559   7.964
 1903POPC   C4B26566  40.950  42.581   7.664
 1904POPC   NC326567  23.671  20.562   9.464
 1904POPC   PO426568  23.715  20.573   9.164
 1904POPC   GL126569  23.707  20.566   8.864
 1904POPC   GL226570  23.655  20.528   8.864
 1904POPC   C1A26571  23.700  20.650   8.564
 1904POPC   D2A26572  23.675  20.581   8.264
 1904POPC   C3A26573  23.720  20.584   7.964
 1904POPC   C4A26574  23.687  20.658   7.664
 1904POPC   C1B26575  23.567  20.410   8.564
 1904POPC   C2B26576  23.566  20.447   8.264
 1904POPC   C3B26577  23.538  20.472   7.964
 1904POPC   C4B26578  23.556  20.479   7.664
 1905POPC   NC326579  22.147  19.844   9.464
 1905POPC   PO426580  22.202  19.831   9.164
 1905POPC   GL126581  22.144  19.785   8.864
 1905POPC   GL226582  22.226  19.802   8.864
 1905POPC   C1A26583  22.137  19.830   8.564
 1905POPC   D2A26584  22.141  19.814   8.264
 1905POPC   C3A26585  22.196  19.867   7.964
 1905POPC   C4A26586  22.184  19.801   7.664
 1905POPC   C1B26587  22.332  19.690   8.564
 1905POPC   C2B26588  22.354  19.701   8.264
 1905POPC   C3B26589  22.336  19.706   7.964
 1905POPC   C4B26590  22.400  19.705   7.664
 1906POPC   NC326591  22.908  15.148   9.464
 1906POPC   PO426592  22.891  15.158   9.164
 1906POPC   GL126593  22.941  15.154   8.864
 1906POPC   GL226594  22.791  15.126   8.864
 1906POPC   C1A26595  22.950  15.154   8.564
 1906POPC   D2A26596  22.984  15.151   8.264
 1906POPC   C3A26597  22.961  15.157   7.964
 1906POPC   C4A26598  22.896  15.191   7.664
 1906POPC   C1B26599  22.644  15.123   8.564
 1906POPC   C2B26600  22.668  15.104   8.264
 1906POPC   C3B26601  22.717  15.105   7.964
 1906POPC   C4B26602  22.651  15.169   7.664
 1907POPC   NC326603  27.573  36.082   9.464
 1907POPC   PO426604  27.589  36.097   9.164
 1907POPC   GL126605  27.640  36.161   8.864
 1907POPC   GL226606  27.546  36.222   8.864
 1907POPC   C1A26607  27.552  36.121   8.564
 1907POPC   D2A26608  27.591  36.144   8.264
 1907POPC   C3A26609  27.569  36.151   7.964
 1907POPC   C4A26610  27.638  36.156   7.664
 1907POPC   C1B26611  27.553  36.354   8.564
 1907POPC   C2B26612  27.535  36.357   8.264
 1907POPC   C3B26613  27.593  36.354   7.964
 1907POPC   C4B26614  27.567  36.374   7.664
 1908POPC   NC326615  39.250  40.807   9.464
 1908POPC   PO426616  39.253  40.741   9.164
 1908POPC   GL126617  39.218  40.791   8.864
 1908POPC   GL226618  39.177  40.856   8.864
 1908POPC   C1A26619  39.273  40.827   8.564
 1908POPC   D2A26620  39.206  40.788   8.264
 1908POPC   C3A26621  39.198  40.763   7.964
 1908POPC   C4A26622  39.242  40.733   7.664
 1908POPC   C1B26623  38.988  40.939   8.564
 1908POPC   C2B26624  39.002  40.950   8.264
 1908POPC   C3B26625  38.997  40.883   7.964
 1908POPC   C4B26626  39.057  40.944   7.664
 1909POPC   NC326627  19.842  29.171   9.464
 1909POPC   PO426628  19.816  29.109   9.164
 1909POPC   GL126629  19.841  29.149   8.864
 1909POPC   GL226630  19.769  29.272   8.864
 1909POPC   C1A26631  19.878  29.155   8.564
 1909POPC   D2A26632  19.873  29.149   8.264
 1909POPC   C3A26633  19.859  29.128   7.964
 1909POPC   C4A26634  19.844  29.176   7.664
 1909POPC   C1B26635  19.722  29.349   8.564
 1909POPC   C2B26636  19.706  29.376   8.264
 1909POPC   C3B26637  19.705  29.317   7.964
 1909POPC   C4B26638  19.737  29.362   7.664
 1910POPC   NC326639  40.055  21.384   9.464
 1910POPC   PO426640  39.962  21.353   9.164
 1910POPC   GL126641  39.973  21.401   8.864
 1910POPC   GL226642  40.156  21.387   8.864
 1910POPC   C1A26643  40.048  21.348   8.564
 1910POPC   D2A26644  40.043  21.384   8.264
 1910POPC   C3A26645  40.015  21.386   7.964
 1910POPC   C4A26646  39.977  21.387   7.664
 1910POPC   C1B26647  40.216  21.300   8.564
 1910POPC   C2B26648  40.249  21.376   8.264
 1910POPC   C3B26649  40.257  21.336   7.964
 1910POPC   C4B26650  40.216  21.338   7.664
 1911POPC   NC326651  39.986  34.538   9.464
 1911POPC   PO426652  39.959  34.575   9.164
 1911POPC   GL126653  40.029  34.571   8.864
 1911POPC   GL226654  40.049  34.494   8.864
 1911POPC   C1A26655  39.963  34.575   8.564
 1911POPC   D2A26656  40.040  34.575   8.264
 1911POPC   C3A26657  40.056  34.585   7.964
 1911POPC   C4A26658  40.053  34.552   7.664
 1911POPC   C1B26659  40.058  34.363   8.564
 1911POPC   C2B26660  40.066  34.368   8.264
 1911POPC   C3B26661  39.989  34.298   7.964
 1911POPC   C4B26662  40.039  34.348   7.664
 1912POPC   NC326663  41.589  29.949   9.464
 1912POPC   PO426664  41.558  29.889   9.164
 1912POPC   GL126665  41.565  29.871   8.864
 1912POPC   GL226666  41.442  29.852   8.864
 1912POPC   C1A26667  41.526  29.873   8.564
 1912POPC   D2A26668  41.593  29.962   8.264
 1912POPC   C3A26669  41.598  29.910   7.964
 1912POPC   C4A26670  41.526  29.967   7.664
 1912POPC   C1B26671  41.454  29.723   8.564
 1912POPC   C2B26672  41.400  29.722   8.264
 1912POPC   C3B26673  41.418  29.758   7.964
 1912POPC   C4B26674  41.383  29.732   7.664
 1913POPC   NC326675   8.986   0.432   9.464
 1913POPC   PO426676   9.000   0.429   9.164
 1913POPC   GL126677   8.966   0.458   8.864
 1913POPC   GL226678   8.889   0.387   8.864
 1913POPC   C1A26679   8.964   0.463   8.564
 1913POPC   D2A26680   8.931   0.426   8.264
 1913POPC   C3A26681   8.988   0.404   7.964
 1913POPC   C4A26682   8.985   0.411   7.664
 1913POPC   C1B26683   8.754   0.368   8.564
 1913POPC   C2B26684   8.710   0.400   8.264
 1913POPC   C3B26685   8.775   0.430   7.964
 1913POPC   C4B26686   8.679   0.439   7.664
 1914POPC   NC326687  41.588  19.056   9.464
 1914POPC   PO426688  41.516  19.012   9.164
 1914POPC   GL126689  41.580  19.039   8.864
 1914POPC   GL226690  41.524  19.123   8.864
 1914POPC   C1A26691  41.529  19.018   8.564
 1914POPC   D2A26692  41.558  19.045   8.264
 1914POPC   C3A26693  41.601  19.044   7.964
 1914POPC   C4A26694  41.597  19.066   7.664
 1914POPC   C1B26695  41.458  19.250   8.564
 1914POPC   C2B26696  41.416  19.277   8.264
 1914POPC   C3B26697  41.457  19.237   7.964
 1914POPC   C4B26698  41.465  19.333   7.664
 1915POPC   NC326699  23.755  26.848   9.464
 1915POPC   PO426700  23.698  26.855   9.164
 1915POPC   GL126701  23.685  26.796   8.864
 1915POPC   GL226702  23.608  26.743   8.864
 1915POPC   C1A26703  23.692  26.777   8.564
 1915POPC   D2A26704  23.690  26.773   8.264
 1915POPC   C3A26705  23.737  26.835   7.964
 1915POPC   C4A26706  23.681  26.835   7.664
 1915POPC   C1B26707  23.448  26.785   8.564
 1915POPC   C2B26708  23.521  26.793   8.264
 1915POPC   C3B26709  23.488  26.762   7.964
 1915POPC   C4B26710  23.504  26.772   7.664
 1916POPC   NC326711  15.926  20.649   9.464
 1916POPC   PO426712  15.990  20.648   9.164
 1916POPC   GL126713  15.934  20.636   8.864
 1916POPC   GL226714  15.870  20.668   8.864
 1916POPC   C1A26715  15.948  20.653   8.564
 1916POPC   D2A26716  15.924  20.639   8.264
 1916POPC   C3A26717  15.912  20.620   7.964
 1916POPC   C4A26718  15.968  20.583   7.664
 1916POPC   C1B26719  15.738  20.624   8.564
 1916POPC   C2B26720  15.742  20.680   8.264
 1916POPC   C3B26721  15.700  20.646   7.964
 1916POPC   C4B26722  15.743  20.667   7.664
 1917POPC   NC326723  33.059  38.499   9.464
 1917POPC   PO426724  33.004  38.498   9.164
 1917POPC   GL126725  33.022  38.416   8.864
 1917POPC   GL226726  32.907  38.526   8.864
 1917POPC   C1A26727  33.065  38.448   8.564
 1917POPC   D2A26728  33.063  38.469   8.264
 1917POPC   C3A26729  33.011  38.430   7.964
 1917POPC   C4A26730  33.072  38.456   7.664
 1917POPC   C1B26731  32.768  38.481   8.564
 1917POPC   C2B26732  32.742  38.510   8.264
 1917POPC   C3B26733  32.801  38.481   7.964
 1917POPC   C4B26734  32.796  38.500   7.664
 1918POPC   NC326735  42.293  20.579   9.464
 1918POPC   PO426736  42.310  20.563   9.164
 1918POPC   GL126737  42.332  20.567   8.864
 1918POPC   GL226738  42.324  20.707   8.864
 1918POPC   C1A26739  42.378  20.596   8.564
 1918POPC   D2A26740  42.338  20.592   8.264
 1918POPC   C3A26741  42.310  20.564   7.964
 1918POPC   C4A26742  42.287  20.660   7.664
 1918POPC   C1B26743  42.312  20.809   8.564
 1918POPC   C2B26744  42.286  20.810   8.264
 1918POPC   C3B26745  42.320  20.851   7.964
 1918POPC   C4B26746  42.308  20.898   7.664
 1919POPC   NC326747  26.771  18.248   9.464
 1919POPC   PO426748  26.778  18.265   9.164
 1919POPC   GL126749  26.804  18.251   8.864
 1919POPC   GL226750  26.920  18.142   8.864
 1919POPC   C1A26751  26.782  18.277   8.564
 1919POPC   D2A26752  26.793  18.276   8.264
 1919POPC   C3A26753  26.828  18.276   7.964
 1919POPC   C4A26754  26.798  18.275   7.664
 1919POPC   C1B26755  27.003  18.126   8.564
 1919POPC   C2B26756  26.924  18.071   8.264
 1919POPC   C3B26757  26.926  18.083   7.964
 1919POPC   C4B26758  26.995  18.134   7.664
 1920POPC   NC326759  38.496  36.110   9.464
 1920POPC   PO426760  38.503  36.107   9.164
 1920POPC   GL126761  38.418  36.147   8.864
 1920POPC   GL226762  38.531  36.053   8.864
 1920POPC   C1A26763  38.455  36.106   8.564
 1920POPC   D2A26764  38.434  36.162   8.264
 1920POPC   C3A26765  38.478  36.168   7.964
 1920POPC   C4A26766  38.452  36.129   7.664
 1920POPC   C1B26767  38.584  35.949   8.564
 1920POPC   C2B26768  38.603  35.949   8.264
 1920POPC   C3B26769  38.600  35.897   7.964
 1920POPC   C4B26770  38.582  35.967   7.664
 1921POPC   NC326771   1.987  34.543   9.464
 1921POPC   PO426772   2.000  34.607   9.164
 1921POPC   GL126773   1.941  34.592   8.864
 1921POPC   GL226774   1.912  34.516   8.864
 1921POPC   C1A26775   1.972  34.595   8.564
 1921POPC   D2A26776   1.971  34.586   8.264
 1921POPC   C3A26777   1.969  34.602   7.964
 1921POPC   C4A26778   1.991  34.608   7.664
 1921POPC   C1B26779   1.748  34.487   8.564
 1921POPC   C2B26780   1.759  34.423   8.264
 1921POPC   C3B26781   1.755  34.411   7.964
 1921POPC   C4B26782   1.729  34.462   7.664
 1922POPC   NC326783  26.019  26.829   9.464
 1922POPC   PO426784  25.993  26.806   9.164
 1922POPC   GL126785  26.090  26.818   8.864
 1922POPC   GL226786  25.991  26.679   8.864
 1922POPC   C1A26787  26.001  26.813   8.564
 1922POPC   D2A26788  26.067  26.864   8.264
 1922POPC   C3A26789  25.996  26.860   7.964
 1922POPC   C4A26790  26.024  26.801   7.664
 1922POPC   C1B26791  26.024  26.582   8.564
 1922POPC   C2B26792  25.950  26.561   8.264
 1922POPC   C3B26793  26.017  26.561   7.964
 1922POPC   C4B26794  25.960  26.566   7.664
 1923POPC   NC326795  24.479  37.652   9.464
 1923POPC   PO426796  24.474  37.643   9.164
 1923POPC   GL126797  24.450  37.718   8.864
 1923POPC   GL226798  24.609  37.587   8.864
 1923POPC   C1A26799  24.502  37.659   8.564
 1923POPC   D2A26800  24.490  37.716   8.264
 1923POPC   C3A26801  24.533  37.715   7.964
 1923POPC   C4A26802  24.465  37.705   7.664
 1923POPC   C1B26803  24.700  37.500   8.564
 1923POPC   C2B26804  24.651  37.529   8.264
 1923POPC   C3B26805  24.730  37.545   7.964
 1923POPC   C4B26806  24.654  37.512   7.664
 1924POPC   NC326807  26.802  29.952   9.464
 1924POPC   PO426808  26.809  29.970   9.164
 1924POPC   GL126809  26.864  29.963   8.864
 1924POPC   GL226810  26.924  30.031   8.864
 1924POPC   C1A26811  26.800  29.902   8.564
 1924POPC   D2A26812  26.780  29.895   8.264
 1924POPC   C3A26813  26.818  29.939   7.964
 1924POPC   C4A26814  26.824  29.911   7.664
 1924POPC   C1B26815  27.004  30.020   8.564
 1924POPC   C2B26816  27.036  30.075   8.264
 1924POPC   C3B26817  27.080  30.061   7.964
 1924POPC   C4B26818  27.054  30.020   7.664
 1925POPC   NC326819  43.901  19.095   9.464
 1925POPC   PO426820  43.867  19.021   9.164
 1925POPC   GL126821  43.922  19.026   8.864
 1925POPC   GL226822  43.806  18.962   8.864
 1925POPC   C1A26823  43.857  19.109   8.564
 1925POPC   D2A26824  43.883  19.052   8.264
 1925POPC   C3A26825  43.877  19.065   7.964
 1925POPC   C4A26826  43.861  19.090   7.664
 1925POPC   C1B26827  43.679  18.959   8.564
 1925POPC   C2B26828  43.635  18.952   8.264
 1925POPC   C3B26829  43.696  18.972   7.964
 1925POPC   C4B26830  43.640  19.012   7.664
 1926POPC   NC326831  30.664  23.743   9.464
 1926POPC   PO426832  30.739  23.715   9.164
 1926POPC   GL126833  30.649  23.749   8.864
 1926POPC   GL226834  30.620  23.688   8.864
 1926POPC   C1A26835  30.710  23.677   8.564
 1926POPC   D2A26836  30.700  23.684   8.264
 1926POPC   C3A26837  30.666  23.692   7.964
 1926POPC   C4A26838  30.683  23.728   7.664
 1926POPC   C1B26839  30.439  23.628   8.564
 1926POPC   C2B26840  30.487  23.587   8.264
 1926POPC   C3B26841  30.450  23.588   7.964
 1926POPC   C4B26842  30.445  23.598   7.664
 1927POPC   NC326843  19.824  33.063   9.464
 1927POPC   PO426844  19.827  33.049   9.164
 1927POPC   GL126845  19.819  32.975   8.864
 1927POPC   GL226846  19.963  33.137   8.864
 1927POPC   C1A26847  19.859  33.041   8.564
 1927POPC   D2A26848  19.853  33.046   8.264
 1927POPC   C3A26849  19.822  32.996   7.964
 1927POPC   C4A26850  19.811  33.048   7.664
 1927POPC   C1B26851  20.057  33.185   8.564
 1927POPC   C2B26852  20.049  33.176   8.264
 1927POPC   C3B26853  20.024  33.200   7.964
 1927POPC   C4B26854  20.033  33.140   7.664
 1928POPC   NC326855  43.916   4.347   9.464
 1928POPC   PO426856  43.906   4.277   9.164
 1928POPC   GL126857  43.845   4.273   8.864
 1928POPC   GL226858  44.043   4.380   8.864
 1928POPC   C1A26859  43.878   4.282   8.564
 1928POPC   D2A26860  43.910   4.360   8.264
 1928POPC   C3A26861  43.847   4.297   7.964
 1928POPC   C4A26862  43.931   4.304   7.664
 1928POPC   C1B26863  44.152   4.426   8.564
 1928POPC   C2B26864  44.129   4.441   8.264
 1928POPC   C3B26865  44.105   4.370   7.964
 1928POPC   C4B26866  44.156   4.356   7.664
 1929POPC   NC326867  40.790   8.232   9.464
 1929POPC   PO426868  40.825   8.161   9.164
 1929POPC   GL126869  40.824   8.170   8.864
 1929POPC   GL226870  40.751   8.123   8.864
 1929POPC   C1A26871  40.780   8.230   8.564
 1929POPC   D2A26872  40.796   8.229   8.264
 1929POPC   C3A26873  40.741   8.190   7.964
 1929POPC   C4A26874  40.760   8.233   7.664
 1929POPC   C1B26875  40.627   8.022   8.564
 1929POPC   C2B26876  40.679   7.971   8.264
 1929POPC   C3B26877  40.657   8.041   7.964
 1929POPC   C4B26878  40.655   7.958   7.664
 1930POPC   NC326879  19.791  13.609   9.464
 1930POPC   PO426880  19.874  13.598   9.164
 1930POPC   GL126881  19.785  13.665   8.864
 1930POPC   GL226882  19.921  13.729   8.864
 1930POPC   C1A26883  19.847  13.604   8.564
 1930POPC   D2A26884  19.798  13.676   8.264
 1930POPC   C3A26885  19.849  13.634   7.964
 1930POPC   C4A26886  19.823  13.600   7.664
 1930POPC   C1B26887  19.882  13.823   8.564
 1930POPC   C2B26888  19.926  13.891   8.264
 1930POPC   C3B26889  19.935  13.849   7.964
 1930POPC   C4B26890  19.957  13.863   7.664
 1931POPC   NC326891  19.022  10.537   9.464
 1931POPC   PO426892  19.015  10.493   9.164
 1931POPC   GL126893  19.016  10.529   8.864
 1931POPC   GL226894  18.997  10.586   8.864
 1931POPC   C1A26895  19.027  10.508   8.564
 1931POPC   D2A26896  19.017  10.505   8.264
 1931POPC   C3A26897  19.108  10.488   7.964
 1931POPC   C4A26898  19.094  10.547   7.664
 1931POPC   C1B26899  18.844  10.717   8.564
 1931POPC   C2B26900  18.920  10.687   8.264
 1931POPC   C3B26901  18.885  10.684   7.964
 1931POPC   C4B26902  18.839  10.727   7.664
 1932POPC   NC326903  22.153   5.871   9.464
 1932POPC   PO426904  22.152   5.872   9.164
 1932POPC   GL126905  22.165   5.847   8.864
 1932POPC   GL226906  22.049   6.000   8.864
 1932POPC   C1A26907  22.184   5.850   8.564
 1932POPC   D2A26908  22.181   5.901   8.264
 1932POPC   C3A26909  22.117   5.835   7.964
 1932POPC   C4A26910  22.135   5.857   7.664
 1932POPC   C1B26911  22.002   6.066   8.564
 1932POPC   C2B26912  21.944   6.076   8.264
 1932POPC   C3B26913  21.966   6.080   7.964
 1932POPC   C4B26914  21.995   6.080   7.664
 1933POPC   NC326915  35.303  44.636   9.464
 1933POPC   PO426916  35.397  44.684   9.164
 1933POPC   GL126917  35.358  44.616   8.864
 1933POPC   GL226918  35.310  44.802   8.864
 1933POPC   C1A26919  35.313  44.696   8.564
 1933POPC   D2A26920  35.366  44.683   8.264
 1933POPC   C3A26921  35.386  44.628   7.964
 1933POPC   C4A26922  35.363  44.710   7.664
 1933POPC   C1B26923  35.246  44.826   8.564
 1933POPC   C2B26924  35.215  44.861   8.264
 1933POPC   C3B26925  35.196  44.853   7.964
 1933POPC   C4B26926  35.164  44.914   7.664
 1934POPC   NC326927  26.802  11.305   9.464
 1934POPC   PO426928  26.801  11.310   9.164
 1934POPC   GL126929  26.789  11.251   8.864
 1934POPC   GL226930  26.925  11.306   8.864
 1934POPC   C1A26931  26.852  11.270   8.564
 1934POPC   D2A26932  26.866  11.317   8.264
 1934POPC   C3A26933  26.838  11.256   7.964
 1934POPC   C4A26934  26.791  11.328   7.664
 1934POPC   C1B26935  27.103  11.343   8.564
 1934POPC   C2B26936  27.098  11.362   8.264
 1934POPC   C3B26937  27.042  11.374   7.964
 1934POPC   C4B26938  27.102  11.365   7.664
 1935POPC   NC326939   3.518  29.937   9.464
 1935POPC   PO426940   3.533  29.880   9.164
 1935POPC   GL126941   3.573  29.962   8.864
 1935POPC   GL226942   3.539  29.838   8.864
 1935POPC   C1A26943   3.525  29.907   8.564
 1935POPC   D2A26944   3.564  29.939   8.264
 1935POPC   C3A26945   3.510  29.926   7.964
 1935POPC   C4A26946   3.528  29.927   7.664
 1935POPC   C1B26947   3.578  29.650   8.564
 1935POPC   C2B26948   3.605  29.708   8.264
 1935POPC   C3B26949   3.556  29.632   7.964
 1935POPC   C4B26950   3.570  29.679   7.664
 1936POPC   NC326951  33.832  10.528   9.464
 1936POPC   PO426952  33.841  10.509   9.164
 1936POPC   GL126953  33.846  10.476   8.864
 1936POPC   GL226954  33.760  10.648   8.864
 1936POPC   C1A26955  33.785  10.566   8.564
 1936POPC   D2A26956  33.816  10.516   8.264
 1936POPC   C3A26957  33.776  10.511   7.964
 1936POPC   C4A26958  33.783  10.495   7.664
 1936POPC   C1B26959  33.773  10.791   8.564
 1936POPC   C2B26960  33.761  10.811   8.264
 1936POPC   C3B26961  33.781  10.757   7.964
 1936POPC   C4B26962  33.837  10.816   7.664
 1937POPC   NC326963  19.813  19.866   9.464
 1937POPC   PO426964  19.793  19.846   9.164
 1937POPC   GL126965  19.815  19.792   8.864
 1937POPC   GL226966  19.715  19.893   8.864
 1937POPC   C1A26967  19.813  19.811   8.564
 1937POPC   D2A26968  19.800  19.854   8.264
 1937POPC   C3A26969  19.837  19.794   7.964
 1937POPC   C4A26970  19.797  19.823   7.664
 1937POPC   C1B26971  19.583  19.910   8.564
 1937POPC   C2B26972  19.570  19.950   8.264
 1937POPC   C3B26973  19.606  19.900   7.964
 1937POPC   C4B26974  19.559  19.949   7.664
 1938POPC   NC326975  19.796  16.692   9.464
 1938POPC   PO426976  19.877  16.697   9.164
 1938POPC   GL126977  19.856  16.693   8.864
 1938POPC   GL226978  19.844  16.852   8.864
 1938POPC   C1A26979  19.862  16.728   8.564
 1938POPC   D2A26980  19.864  16.723   8.264
 1938POPC   C3A26981  19.802  16.708   7.964
 1938POPC   C4A26982  19.884  16.752   7.664
 1938POPC   C1B26983  19.810  17.007   8.564
 1938POPC   C2B26984  19.785  16.987   8.264
 1938POPC   C3B26985  19.844  17.001   7.964
 1938POPC   C4B26986  19.787  16.943   7.664
 1939POPC   NC326987   7.417  26.865   9.464
 1939POPC   PO426988   7.449  26.810   9.164
 1939POPC   GL126989   7.375  26.863   8.864
 1939POPC   GL226990   7.294  26.838   8.864
 1939POPC   C1A26991   7.384  26.819   8.564
 1939POPC   D2A26992   7.409  26.807   8.264
 1939POPC   C3A26993   7.405  26.809   7.964
 1939POPC   C4A26994   7.445  26.804   7.664
 1939POPC   C1B26995   7.204  26.849   8.564
 1939POPC   C2B26996   7.148  26.813   8.264
 1939POPC   C3B26997   7.218  26.813   7.964
 1939POPC   C4B26998   7.142  26.811   7.664
 1940POPC   NC326999  26.772   5.877   9.464
 1940POPC   PO427000  26.791   5.891   9.164
 1940POPC   GL127001  26.854   5.858   8.864
 1940POPC   GL227002  26.681   5.857   8.864
 1940POPC   C1A27003  26.768   5.904   8.564
 1940POPC   D2A27004  26.863   5.834   8.264
 1940POPC   C3A27005  26.864   5.887   7.964
 1940POPC   C4A27006  26.779   5.911   7.664
 1940POPC   C1B27007  26.533   5.856   8.564
 1940POPC   C2B27008  26.609   5.842   8.264
 1940POPC   C3B27009  26.590   5.845   7.964
 1940POPC   C4B27010  26.598   5.916   7.664
 1941POPC   NC327011  19.017  36.128   9.464
 1941POPC   PO427012  19.106  36.079   9.164
 1941POPC   GL127013  19.095  36.163   8.864
 1941POPC   GL227014  18.889  36.166   8.864
 1941POPC   C1A27015  19.024  36.113   8.564
 1941POPC   D2A27016  19.049  36.140   8.264
 1941POPC   C3A27017  19.097  36.164   7.964
 1941POPC   C4A27018  19.078  36.079   7.664
 1941POPC   C1B27019  18.784  36.159   8.564
 1941POPC   C2B27020  18.799  36.113   8.264
 1941POPC   C3B27021  18.857  36.182   7.964
 1941POPC   C4B27022  18.800  36.158   7.664
 1942POPC   NC327023  34.601  12.894   9.464
 1942POPC   PO427024  34.542  12.804   9.164
 1942POPC   GL127025  34.569  12.838   8.864
 1942POPC   GL227026  34.514  12.936   8.864
 1942POPC   C1A27027  34.553  12.895   8.564
 1942POPC   D2A27028  34.549  12.816   8.264
 1942POPC   C3A27029  34.573  12.816   7.964
 1942POPC   C4A27030  34.594  12.875   7.664
 1942POPC   C1B27031  34.453  13.092   8.564
 1942POPC   C2B27032  34.416  13.034   8.264
 1942POPC   C3B27033  34.448  13.031   7.964
 1942POPC   C4B27034  34.429  13.056   7.664
 1943POPC   NC327035  19.853  38.496   9.464
 1943POPC   PO427036  19.842  38.474   9.164
 1943POPC   GL127037  19.824  38.421   8.864
 1943POPC   GL227038  19.726  38.435   8.864
 1943POPC   C1A27039  19.856  38.418   8.564
 1943POPC   D2A27040  19.795  38.419   8.264
 1943POPC   C3A27041  19.843  38.407   7.964
 1943POPC   C4A27042  19.821  38.443   7.664
 1943POPC   C1B27043  19.548  38.446   8.564
 1943POPC   C2B27044  19.558  38.460   8.264
 1943POPC   C3B27045  19.564  38.444   7.964
 1943POPC   C4B27046  19.540  38.467   7.664
 1944POPC   NC327047  39.245  33.836   9.464
 1944POPC   PO427048  39.279  33.750   9.164
 1944POPC   GL127049  39.273  33.754   8.864
 1944POPC   GL227050  39.310  33.796   8.864
 1944POPC   C1A27051  39.244  33.798   8.564
 1944POPC   D2A27052  39.216  33.815   8.264
 1944POPC   C3A27053  39.197  33.793   7.964
 1944POPC   C4A27054  39.246  33.833   7.664
 1944POPC   C1B27055  39.495  33.764   8.564
 1944POPC   C2B27056  39.478  33.786   8.264
 1944POPC   C3B27057  39.494  33.753   7.964
 1944POPC   C4B27058  39.466  33.783   7.664
 1945POPC   NC327059   3.503  19.081   9.464
 1945POPC   PO427060   3.562  19.103   9.164
 1945POPC   GL127061   3.548  19.073   8.864
 1945POPC   GL227062   3.430  19.120   8.864
 1945POPC   C1A27063   3.529  19.058   8.564
 1945POPC   D2A27064   3.507  19.013   8.264
 1945POPC   C3A27065   3.557  19.073   7.964
 1945POPC   C4A27066   3.491  19.013   7.664
 1945POPC   C1B27067   3.322  19.146   8.564
 1945POPC   C2B27068   3.351  19.163   8.264
 1945POPC   C3B27069   3.290  19.151   7.964
 1945POPC   C4B27070   3.340  19.084   7.664
 1946POPC   NC327071  24.515  36.145   9.464
 1946POPC   PO427072  24.463  36.102   9.164
 1946POPC   GL127073  24.513  36.091   8.864
 1946POPC   GL227074  24.403  36.270   8.864
 1946POPC   C1A27075  24.530  36.127   8.564
 1946POPC   D2A27076  24.525  36.143   8.264
 1946POPC   C3A27077  24.507  36.093   7.964
 1946POPC   C4A27078  24.507  36.121   7.664
 1946POPC   C1B27079  24.406  36.339   8.564
 1946POPC   C2B27080  24.460  36.412   8.264
 1946POPC   C3B27081  24.415  36.330   7.964
 1946POPC   C4B27082  24.414  36.321   7.664
 1947POPC   NC327083  36.884  12.813   9.464
 1947POPC   PO427084  36.861  12.863   9.164
 1947POPC   GL127085  36.916  12.868   8.864
 1947POPC   GL227086  36.992  12.807   8.864
 1947POPC   C1A27087  36.897  12.901   8.564
 1947POPC   D2A27088  36.898  12.840   8.264
 1947POPC   C3A27089  36.919  12.883   7.964
 1947POPC   C4A27090  36.921  12.848   7.664
 1947POPC   C1B27091  37.117  12.803   8.564
 1947POPC   C2B27092  37.163  12.855   8.264
 1947POPC   C3B27093  37.188  12.860   7.964
 1947POPC   C4B27094  37.199  12.864   7.664
 1948POPC   NC327095  33.041   3.536   9.464
 1948POPC   PO427096  32.977   3.502   9.164
 1948POPC   GL127097  33.073   3.497   8.864
 1948POPC   GL227098  33.042   3.688   8.864
 1948POPC   C1A27099  33.060   3.565   8.564
 1948POPC   D2A27100  33.003   3.590   8.264
 1948POPC   C3A27101  33.047   3.517   7.964
 1948POPC   C4A27102  32.993   3.539   7.664
 1948POPC   C1B27103  33.066   3.751   8.564
 1948POPC   C2B27104  33.098   3.798   8.264
 1948POPC   C3B27105  33.030   3.826   7.964
 1948POPC   C4B27106  33.054   3.740   7.664
 1949POPC   NC327107   4.319  32.216   9.464
 1949POPC   PO427108   4.343  32.287   9.164
 1949POPC   GL127109   4.365  32.228   8.864
 1949POPC   GL227110   4.264  32.129   8.864
 1949POPC   C1A27111   4.314  32.298   8.564
 1949POPC   D2A27112   4.313  32.209   8.264
 1949POPC   C3A27113   4.273  32.272   7.964
 1949POPC   C4A27114   4.342  32.249   7.664
 1949POPC   C1B27115   4.175  31.978   8.564
 1949POPC   C2B27116   4.246  31.984   8.264
 1949POPC   C3B27117   4.184  32.052   7.964
 1949POPC   C4B27118   4.213  32.046   7.664
 1950POPC   NC327119  18.257  26.797   9.464
 1950POPC   PO427120  18.242  26.820   9.164
 1950POPC   GL127121  18.250  26.787   8.864
 1950POPC   GL227122  18.227  26.911   8.864
 1950POPC   C1A27123  18.315  26.834   8.564
 1950POPC   D2A27124  18.289  26.835   8.264
 1950POPC   C3A27125  18.269  26.775   7.964
 1950POPC   C4A27126  18.295  26.848   7.664
 1950POPC   C1B27127  18.137  27.011   8.564
 1950POPC   C2B27128  18.184  27.024   8.264
 1950POPC   C3B27129  18.212  27.013   7.964
 1950POPC   C4B27130  18.185  27.083   7.664
 1951POPC   NC327131  12.034  35.323   9.464
 1951POPC   PO427132  12.031  35.377   9.164
 1951POPC   GL127133  12.072  35.343   8.864
 1951POPC   GL227134  12.146  35.346   8.864
 1951POPC   C1A27135  12.053  35.386   8.564
 1951POPC   D2A27136  12.059  35.329   8.264
 1951POPC   C3A27137  12.122  35.374   7.964
 1951POPC   C4A27138  12.087  35.398   7.664
 1951POPC   C1B27139  12.313  35.251   8.564
 1951POPC   C2B27140  12.323  35.263   8.264
 1951POPC   C3B27141  12.306  35.210   7.964
 1951POPC   C4B27142  12.306  35.207   7.664
 1952POPC   NC327143  29.915  22.911   9.464
 1952POPC   PO427144  29.908  22.961   9.164
 1952POPC   GL127145  29.883  22.916   8.864
 1952POPC   GL227146  30.027  22.874   8.864
 1952POPC   C1A27147  29.902  22.904   8.564
 1952POPC   D2A27148  29.930  22.951   8.264
 1952POPC   C3A27149  29.906  22.892   7.964
 1952POPC   C4A27150  29.882  22.898   7.664
 1952POPC   C1B27151  30.141  22.804   8.564
 1952POPC   C2B27152  30.119  22.773   8.264
 1952POPC   C3B27153  30.096  22.720   7.964
 1952POPC   C4B27154  30.137  22.800   7.664
 1953POPC   NC327155  33.054  43.893   9.464
 1953POPC   PO427156  33.017  43.884   9.164
 1953POPC   GL127157  32.997  43.899   8.864
 1953POPC   GL227158  33.192  43.858   8.864
 1953POPC   C1A27159  33.028  43.921   8.564
 1953POPC   D2A27160  33.061  43.871   8.264
 1953POPC   C3A27161  33.054  43.897   7.964
 1953POPC   C4A27162  33.025  43.839   7.664
 1953POPC   C1B27163  33.305  43.823   8.564
 1953POPC   C2B27164  33.316  43.860   8.264
 1953POPC   C3B27165  33.245  43.854   7.964
 1953POPC   C4B27166  33.260  43.841   7.664
 1954POPC   NC327167  30.655  34.582   9.464
 1954POPC   PO427168  30.723  34.540   9.164
 1954POPC   GL127169  30.690  34.603   8.864
 1954POPC   GL227170  30.727  34.473   8.864
 1954POPC   C1A27171  30.729  34.618   8.564
 1954POPC   D2A27172  30.692  34.554   8.264
 1954POPC   C3A27173  30.744  34.544   7.964
 1954POPC   C4A27174  30.743  34.569   7.664
 1954POPC   C1B27175  30.781  34.370   8.564
 1954POPC   C2B27176  30.733  34.364   8.264
 1954POPC   C3B27177  30.731  34.330   7.964
 1954POPC   C4B27178  30.709  34.335   7.664
 1955POPC   NC327179  17.516  26.042   9.464
 1955POPC   PO427180  17.507  26.036   9.164
 1955POPC   GL127181  17.476  26.089   8.864
 1955POPC   GL227182  17.586  25.937   8.864
 1955POPC   C1A27183  17.532  26.085   8.564
 1955POPC   D2A27184  17.464  26.077   8.264
 1955POPC   C3A27185  17.505  26.021   7.964
 1955POPC   C4A27186  17.514  26.050   7.664
 1955POPC   C1B27187  17.692  25.816   8.564
 1955POPC   C2B27188  17.715  25.898   8.264
 1955POPC   C3B27189  17.705  25.835   7.964
 1955POPC   C4B27190  17.690  25.844   7.664
 1956POPC   NC327191  12.859  16.750   9.464
 1956POPC   PO427192  12.802  16.686   9.164
 1956POPC   GL127193  12.854  16.766   8.864
 1956POPC   GL227194  12.788  16.664   8.864
 1956POPC   C1A27195  12.830  16.745   8.564
 1956POPC   D2A27196  12.896  16.764   8.264
 1956POPC   C3A27197  12.902  16.759   7.964
 1956POPC   C4A27198  12.831  16.771   7.664
 1956POPC   C1B27199  12.727  16.529   8.564
 1956POPC   C2B27200  12.789  16.509   8.264
 1956POPC   C3B27201  12.745  16.460   7.964
 1956POPC   C4B27202  12.766  16.495   7.664
 1957POPC   NC327203  22.960  24.504   9.464
 1957POPC   PO427204  22.940  24.499   9.164
 1957POPC   GL127205  22.920  24.443   8.864
 1957POPC   GL227206  23.021  24.472   8.864
 1957POPC   C1A27207  22.917  24.471   8.564
 1957POPC   D2A27208  22.933  24.493   8.264
 1957POPC   C3A27209  22.926  24.509   7.964
 1957POPC   C4A27210  22.977  24.505   7.664
 1957POPC   C1B27211  23.217  24.381   8.564
 1957POPC   C2B27212  23.152  24.427   8.264
 1957POPC   C3B27213  23.151  24.381   7.964
 1957POPC   C4B27214  23.215  24.384   7.664
 1958POPC   NC327215  40.004  18.242   9.464
 1958POPC   PO427216  39.962  18.240   9.164
 1958POPC   GL127217  40.039  18.322   8.864
 1958POPC   GL227218  40.107  18.347   8.864
 1958POPC   C1A27219  39.971  18.305   8.564
 1958POPC   D2A27220  40.007  18.265   8.264
 1958POPC   C3A27221  40.055  18.240   7.964
 1958POPC   C4A27222  39.958  18.274   7.664
 1958POPC   C1B27223  40.144  18.410   8.564
 1958POPC   C2B27224  40.179  18.412   8.264
 1958POPC   C3B27225  40.140  18.492   7.964
 1958POPC   C4B27226  40.148  18.482   7.664
 1959POPC   NC327227  12.824  31.486   9.464
 1959POPC   PO427228  12.867  31.515   9.164
 1959POPC   GL127229  12.900  31.445   8.864
 1959POPC   GL227230  12.772  31.334   8.864
 1959POPC   C1A27231  12.890  31.458   8.564
 1959POPC   D2A27232  12.836  31.434   8.264
 1959POPC   C3A27233  12.832  31.478   7.964
 1959POPC   C4A27234  12.885  31.501   7.664
 1959POPC   C1B27235  12.786  31.188   8.564
 1959POPC   C2B27236  12.781  31.223   8.264
 1959POPC   C3B27237  12.781  31.258   7.964
 1959POPC   C4B27238  12.729  31.207   7.664
 1960POPC   NC327239  31.480  19.108   9.464
 1960POPC   PO427240  31.511  19.039   9.164
 1960POPC   GL127241  31.494  19.048   8.864
 1960POPC   GL227242  31.381  19.123   8.864
 1960POPC   C1A27243  31.454  19.080   8.564
 1960POPC   D2A27244  31.452  19.078   8.264
 1960POPC   C3A27245  31.467  19.088   7.964
 1960POPC   C4A27246  31.515  19.068   7.664
 1960POPC   C1B27247  31.339  19.250   8.564
 1960POPC   C2B27248  31.269  19.201   8.264
 1960POPC   C3B27249  31.335  19.272   7.964
 1960POPC   C4B27250  31.332  19.239   7.664
 1961POPC   NC327251  30.685  29.914   9.464
 1961POPC   PO427252  30.688  29.920   9.164
 1961POPC   GL127253  30.688  29.924   8.864
 1961POPC   GL227254  30.615  29.839   8.864
 1961POPC   C1A27255  30.743  29.945   8.564
 1961POPC   D2A27256  30.694  29.942   8.264
 1961POPC   C3A27257  30.673  29.918   7.964
 1961POPC   C4A27258  30.704  29.907   7.664
 1961POPC   C1B27259  30.609  29.689   8.564
 1961POPC   C2B27260  30.579  29.701   8.264
 1961POPC   C3B27261  30.592  29.710   7.964
 1961POPC   C4B27262  30.582  29.716   7.664
 1962POPC   NC327263  19.103  33.799   9.464
 1962POPC   PO427264  19.108  33.793   9.164
 1962POPC   GL127265  19.044  33.800   8.864
 1962POPC   GL227266  19.177  33.708   8.864
 1962POPC   C1A27267  19.075  33.813   8.564
 1962POPC   D2A27268  19.055  33.781   8.264
 1962POPC   C3A27269  19.071  33.801   7.964
 1962POPC   C4A27270  19.015  33.753   7.664
 1962POPC   C1B27271  19.256  33.581   8.564
 1962POPC   C2B27272  19.242  33.621   8.264
 1962POPC   C3B27273  19.242  33.574   7.964
 1962POPC   C4B27274  19.233  33.638   7.664
 1963POPC   NC327275  30.717  17.524   9.464
 1963POPC   PO427276  30.678  17.464   9.164
 1963POPC   GL127277  30.670  17.470   8.864
 1963POPC   GL227278  30.675  17.666   8.864
 1963POPC   C1A27279  30.656  17.506   8.564
 1963POPC   D2A27280  30.647  17.499   8.264
 1963POPC   C3A27281  30.682  17.501   7.964
 1963POPC   C4A27282  30.683  17.509   7.664
 1963POPC   C1B27283  30.705  17.780   8.564
 1963POPC   C2B27284  30.694  17.803   8.264
 1963POPC   C3B27285  30.699  17.768   7.964
 1963POPC   C4B27286  30.749  17.742   7.664
 1964POPC   NC327287  43.075  17.533   9.464
 1964POPC   PO427288  43.090  17.513   9.164
 1964POPC   GL127289  43.095  17.503   8.864
 1964POPC   GL227290  43.222  17.468   8.864
 1964POPC   C1A27291  43.078  17.530   8.564
 1964POPC   D2A27292  43.137  17.544   8.264
 1964POPC   C3A27293  43.122  17.501   7.964
 1964POPC   C4A27294  43.089  17.473   7.664
 1964POPC   C1B27295  43.336  17.461   8.564
 1964POPC   C2B27296  43.336  17.459   8.264
 1964POPC   C3B27297  43.355  17.422   7.964
 1964POPC   C4B27298  43.338  17.455   7.664
 1965POPC   NC327299  19.097  19.792   9.464
 1965POPC   PO427300  19.063  19.815   9.164
 1965POPC   GL127301  19.098  19.821   8.864
 1965POPC   GL227302  18.945  19.866   8.864
 1965POPC   C1A27303  19.054  19.798   8.564
 1965POPC   D2A27304  19.022  19.789   8.264
 1965POPC   C3A27305  19.093  19.842   7.964
 1965POPC   C4A27306  19.045  19.871   7.664
 1965POPC   C1B27307  18.836  19.985   8.564
 1965POPC   C2B27308  18.789  19.912   8.264
 1965POPC   C3B27309  18.797  19.928   7.964
 1965POPC   C4B27310  18.814  19.965   7.664
 1966POPC   NC327311  42.337  43.143   9.464
 1966POPC   PO427312  42.291  43.151   9.164
 1966POPC   GL127313  42.365  43.092   8.864
 1966POPC   GL227314  42.480  43.084   8.864
 1966POPC   C1A27315  42.324  43.062   8.564
 1966POPC   D2A27316  42.309  43.088   8.264
 1966POPC   C3A27317  42.332  43.136   7.964
 1966POPC   C4A27318  42.294  43.077   7.664
 1966POPC   C1B27319  42.548  42.935   8.564
 1966POPC   C2B27320  42.496  42.995   8.264
 1966POPC   C3B27321  42.584  42.929   7.964
 1966POPC   C4B27322  42.519  42.981   7.664
 1967POPC   NC327323  11.301  25.249   9.464
 1967POPC   PO427324  11.263  25.265   9.164
 1967POPC   GL127325  11.345  25.269   8.864
 1967POPC   GL227326  11.222  25.132   8.864
 1967POPC   C1A27327  11.296  25.305   8.564
 1967POPC   D2A27328  11.327  25.290   8.264
 1967POPC   C3A27329  11.330  25.306   7.964
 1967POPC   C4A27330  11.327  25.262   7.664
 1967POPC   C1B27331  11.166  25.067   8.564
 1967POPC   C2B27332  11.227  25.003   8.264
 1967POPC   C3B27333  11.244  25.016   7.964
 1967POPC   C4B27334  11.218  25.015   7.664
 1968POPC   NC327335  27.630  43.142   9.464
 1968POPC   PO427336  27.561  43.077   9.164
 1968POPC   GL127337  27.549  43.085   8.864
 1968POPC   GL227338  27.500  43.201   8.864
 1968POPC   C1A27339  27.634  43.086   8.564
 1968POPC   D2A27340  27.544  43.062   8.264
 1968POPC   C3A27341  27.608  43.092   7.964
 1968POPC   C4A27342  27.548  43.091   7.664
 1968POPC   C1B27343  27.460  43.291   8.564
 1968POPC   C2B27344  27.478  43.280   8.264
 1968POPC   C3B27345  27.423  43.279   7.964
 1968POPC   C4B27346  27.457  43.346   7.664
 1969POPC   NC327347  32.975  33.829   9.464
 1969POPC   PO427348  32.987  33.775   9.164
 1969POPC   GL127349  33.041  33.766   8.864
 1969POPC   GL227350  33.008  33.924   8.864
 1969POPC   C1A27351  33.020  33.757   8.564
 1969POPC   D2A27352  32.986  33.817   8.264
 1969POPC   C3A27353  33.039  33.830   7.964
 1969POPC   C4A27354  33.004  33.807   7.664
 1969POPC   C1B27355  32.951  33.984   8.564
 1969POPC   C2B27356  32.897  33.982   8.264
 1969POPC   C3B27357  32.967  34.015   7.964
 1969POPC   C4B27358  32.881  33.980   7.664
 1970POPC   NC327359  27.611  39.972   9.464
 1970POPC   PO427360  27.628  40.041   9.164
 1970POPC   GL127361  27.563  40.027   8.864
 1970POPC   GL227362  27.622  40.152   8.864
 1970POPC   C1A27363  27.586  39.991   8.564
 1970POPC   D2A27364  27.606  40.034   8.264
 1970POPC   C3A27365  27.545  40.027   7.964
 1970POPC   C4A27366  27.606  40.034   7.664
 1970POPC   C1B27367  27.529  40.275   8.564
 1970POPC   C2B27368  27.625  40.298   8.264
 1970POPC   C3B27369  27.538  40.275   7.964
 1970POPC   C4B27370  27.575  40.286   7.664
 1971POPC   NC327371   1.238   8.195   9.464
 1971POPC   PO427372   1.185   8.153   9.164
 1971POPC   GL127373   1.178   8.242   8.864
 1971POPC   GL227374   1.164   8.282   8.864
 1971POPC   C1A27375   1.229   8.148   8.564
 1971POPC   D2A27376   1.233   8.209   8.264
 1971POPC   C3A27377   1.176   8.208   7.964
 1971POPC   C4A27378   1.233   8.193   7.664
 1971POPC   C1B27379   1.127   8.438   8.564
 1971POPC   C2B27380   1.135   8.460   8.264
 1971POPC   C3B27381   1.094   8.468   7.964
 1971POPC   C4B27382   1.142   8.480   7.664
 1972POPC   NC327383  30.700  24.537   9.464
 1972POPC   PO427384  30.671  24.451   9.164
 1972POPC   GL127385  30.737  24.495   8.864
 1972POPC   GL227386  30.836  24.509   8.864
 1972POPC   C1A27387  30.701  24.526   8.564
 1972POPC   D2A27388  30.680  24.469   8.264
 1972POPC   C3A27389  30.672  24.444   7.964
 1972POPC   C4A27390  30.739  24.502   7.664
 1972POPC   C1B27391  30.946  24.577   8.564
 1972POPC   C2B27392  30.988  24.544   8.264
 1972POPC   C3B27393  30.961  24.581   7.964
 1972POPC   C4B27394  30.930  24.592   7.664
 1973POPC   NC327395  40.744   7.439   9.464
 1973POPC   PO427396  40.765   7.461   9.164
 1973POPC   GL127397  40.767   7.406   8.864
 1973POPC   GL227398  40.809   7.347   8.864
 1973POPC   C1A27399  40.795   7.434   8.564
 1973POPC   D2A27400  40.763   7.430   8.264
 1973POPC   C3A27401  40.822   7.375   7.964
 1973POPC   C4A27402  40.771   7.428   7.664
 1973POPC   C1B27403  40.867   7.197   8.564
 1973POPC   C2B27404  40.904   7.169   8.264
 1973POPC   C3B27405  40.867   7.153   7.964
 1973POPC   C4B27406  40.903   7.202   7.664
 1974POPC   NC327407  13.592  16.735   9.464
 1974POPC   PO427408  13.645  16.746   9.164
 1974POPC   GL127409  13.675  16.753   8.864
 1974POPC   GL227410  13.711  16.759   8.864
 1974POPC   C1A27411  13.654  16.717   8.564
 1974POPC   D2A27412  13.671  16.696   8.264
 1974POPC   C3A27413  13.614  16.690   7.964
 1974POPC   C4A27414  13.611  16.690   7.664
 1974POPC   C1B27415  13.808  16.868   8.564
 1974POPC   C2B27416  13.840  16.838   8.264
 1974POPC   C3B27417  13.830  16.848   7.964
 1974POPC   C4B27418  13.881  16.888   7.664
 1975POPC   NC327419   1.251  12.901   9.464
 1975POPC   PO427420   1.259  12.834   9.164
 1975POPC   GL127421   1.176  12.851   8.864
 1975POPC   GL227422   1.161  12.695   8.864
 1975POPC   C1A27423   1.201  12.809   8.564
 1975POPC   D2A27424   1.218  12.816   8.264
 1975POPC   C3A27425   1.248  12.858   7.964
 1975POPC   C4A27426   1.182  12.849   7.664
 1975POPC   C1B27427   1.095  12.616   8.564
 1975POPC   C2B27428   1.095  12.606   8.264
 1975POPC   C3B27429   1.071  12.587   7.964
 1975POPC   C4B27430   1.141  12.608   7.664
 1976POPC   NC327431  38.420  43.865   9.464
 1976POPC   PO427432  38.439  43.862   9.164
 1976POPC   GL127433  38.439  43.867   8.864
 1976POPC   GL227434  38.554  43.956   8.864
 1976POPC   C1A27435  38.436  43.866   8.564
 1976POPC   D2A27436  38.433  43.857   8.264
 1976POPC   C3A27437  38.499  43.838   7.964
 1976POPC   C4A27438  38.474  43.877   7.664
 1976POPC   C1B27439  38.692  44.018   8.564
 1976POPC   C2B27440  38.739  43.956   8.264
 1976POPC   C3B27441  38.694  43.939   7.964
 1976POPC   C4B27442  38.712  43.923   7.664
 1977POPC   NC327443  39.264  38.412   9.464
 1977POPC   PO427444  39.203  38.496   9.164
 1977POPC   GL127445  39.253  38.452   8.864
 1977POPC   GL227446  39.205  38.520   8.864
 1977POPC   C1A27447  39.210  38.471   8.564
 1977POPC   D2A27448  39.216  38.466   8.264
 1977POPC   C3A27449  39.281  38.431   7.964
 1977POPC   C4A27450  39.245  38.444   7.664
 1977POPC   C1B27451  39.151  38.626   8.564
 1977POPC   C2B27452  39.160  38.636   8.264
 1977POPC   C3B27453  39.094  38.702   7.964
 1977POPC   C4B27454  39.131  38.669   7.664
 1978POPC   NC327455  38.440   8.983   9.464
 1978POPC   PO427456  38.451   9.002   9.164
 1978POPC   GL127457  38.484   9.022   8.864
 1978POPC   GL227458  38.364   9.086   8.864
 1978POPC   C1A27459  38.492   8.998   8.564
 1978POPC   D2A27460  38.430   8.973   8.264
 1978POPC   C3A27461  38.424   8.964   7.964
 1978POPC   C4A27462  38.409   8.925   7.664
 1978POPC   C1B27463  38.369   9.182   8.564
 1978POPC   C2B27464  38.394   9.197   8.264
 1978POPC   C3B27465  38.406   9.202   7.964
 1978POPC   C4B27466  38.401   9.174   7.664
 1979POPC   NC327467  19.077   9.011   9.464
 1979POPC   PO427468  19.050   8.975   9.164
 1979POPC   GL127469  19.037   8.985   8.864
 1979POPC   GL227470  19.039   9.131   8.864
 1979POPC   C1A27471  19.046   8.932   8.564
 1979POPC   D2A27472  19.081   8.942   8.264
 1979POPC   C3A27473  19.015   9.008   7.964
 1979POPC   C4A27474  19.028   8.973   7.664
 1979POPC   C1B27475  19.073   9.180   8.564
 1979POPC   C2B27476  19.068   9.232   8.264
 1979POPC   C3B27477  19.041   9.196   7.964
 1979POPC   C4B27478  19.077   9.176   7.664
 1980POPC   NC327479  24.493  27.573   9.464
 1980POPC   PO427480  24.491  27.629   9.164
 1980POPC   GL127481  24.514  27.578   8.864
 1980POPC   GL227482  24.481  27.716   8.864
 1980POPC   C1A27483  24.465  27.595   8.564
 1980POPC   D2A27484  24.516  27.566   8.264
 1980POPC   C3A27485  24.472  27.570   7.964
 1980POPC   C4A27486  24.486  27.559   7.664
 1980POPC   C1B27487  24.432  27.795   8.564
 1980POPC   C2B27488  24.417  27.841   8.264
 1980POPC   C3B27489  24.479  27.869   7.964
 1980POPC   C4B27490  24.407  27.877   7.664
 1981POPC   NC327491  43.910  18.234   9.464
 1981POPC   PO427492  43.852  18.270   9.164
 1981POPC   GL127493  43.886  18.235   8.864
 1981POPC   GL227494  43.921  18.393   8.864
 1981POPC   C1A27495  43.846  18.296   8.564
 1981POPC   D2A27496  43.882  18.329   8.264
 1981POPC   C3A27497  43.859  18.239   7.964
 1981POPC   C4A27498  43.860  18.317   7.664
 1981POPC   C1B27499  43.868  18.486   8.564
 1981POPC   C2B27500  43.901  18.566   8.264
 1981POPC   C3B27501  43.910  18.537   7.964
 1981POPC   C4B27502  43.819  18.501   7.664
 1982POPC   NC327503  23.719  41.585   9.464
 1982POPC   PO427504  23.717  41.516   9.164
 1982POPC   GL127505  23.664  41.591   8.864
 1982POPC   GL227506  23.711  41.437   8.864
 1982POPC   C1A27507  23.746  41.584   8.564
 1982POPC   D2A27508  23.761  41.551   8.264
 1982POPC   C3A27509  23.696  41.546   7.964
 1982POPC   C4A27510  23.763  41.521   7.664
 1982POPC   C1B27511  23.653  41.338   8.564
 1982POPC   C2B27512  23.687  41.297   8.264
 1982POPC   C3B27513  23.650  41.320   7.964
 1982POPC   C4B27514  23.706  41.277   7.664
 1983POPC   NC327515   8.972  38.469   9.464
 1983POPC   PO427516   8.985  38.450   9.164
 1983POPC   GL127517   8.965  38.487   8.864
 1983POPC   GL227518   8.877  38.361   8.864
 1983POPC   C1A27519   8.991  38.498   8.564
 1983POPC   D2A27520   9.012  38.440   8.264
 1983POPC   C3A27521   9.007  38.456   7.964
 1983POPC   C4A27522   9.010  38.456   7.664
 1983POPC   C1B27523   8.842  38.225   8.564
 1983POPC   C2B27524   8.776  38.220   8.264
 1983POPC   C3B27525   8.816  38.288   7.964
 1983POPC   C4B27526   8.831  38.272   7.664
 1984POPC   NC327527   6.610  13.585   9.464
 1984POPC   PO427528   6.645  13.652   9.164
 1984POPC   GL127529   6.695  13.665   8.864
 1984POPC   GL227530   6.800  13.543   8.864
 1984POPC   C1A27531   6.678  13.645   8.564
 1984POPC   D2A27532   6.608  13.604   8.264
 1984POPC   C3A27533   6.693  13.655   7.964
 1984POPC   C4A27534   6.634  13.616   7.664
 1984POPC   C1B27535   6.909  13.545   8.564
 1984POPC   C2B27536   6.852  13.524   8.264
 1984POPC   C3B27537   6.870  13.551   7.964
 1984POPC   C4B27538   6.855  13.477   7.664
 1985POPC   NC327539   2.760  37.667   9.464
 1985POPC   PO427540   2.781  37.643   9.164
 1985POPC   GL127541   2.787  37.674   8.864
 1985POPC   GL227542   2.687  37.664   8.864
 1985POPC   C1A27543   2.804  37.631   8.564
 1985POPC   D2A27544   2.799  37.682   8.264
 1985POPC   C3A27545   2.786  37.633   7.964
 1985POPC   C4A27546   2.790  37.719   7.664
 1985POPC   C1B27547   2.471  37.688   8.564
 1985POPC   C2B27548   2.525  37.667   8.264
 1985POPC   C3B27549   2.477  37.667   7.964
 1985POPC   C4B27550   2.473  37.672   7.664
 1986POPC   NC327551  19.873  22.895   9.464
 1986POPC   PO427552  19.866  22.966   9.164
 1986POPC   GL127553  19.857  22.955   8.864
 1986POPC   GL227554  19.932  23.006   8.864
 1986POPC   C1A27555  19.830  22.958   8.564
 1986POPC   D2A27556  19.837  22.889   8.264
 1986POPC   C3A27557  19.817  22.971   7.964
 1986POPC   C4A27558  19.812  22.949   7.664
 1986POPC   C1B27559  20.043  23.061   8.564
 1986POPC   C2B27560  20.064  22.997   8.264
 1986POPC   C3B27561  20.035  23.044   7.964
 1986POPC   C4B27562  20.043  23.022   7.664
 1987POPC   NC327563  19.033   5.849   9.464
 1987POPC   PO427564  19.080   5.888   9.164
 1987POPC   GL127565  19.029   5.840   8.864
 1987POPC   GL227566  18.968   5.752   8.864
 1987POPC   C1A27567  19.105   5.840   8.564
 1987POPC   D2A27568  19.093   5.901   8.264
 1987POPC   C3A27569  19.034   5.898   7.964
 1987POPC   C4A27570  19.025   5.830   7.664
 1987POPC   C1B27571  18.848   5.706   8.564
 1987POPC   C2B27572  18.874   5.739   8.264
 1987POPC   C3B27573  18.904   5.725   7.964
 1987POPC   C4B27574  18.887   5.731   7.664
 1988POPC   NC327575  40.825  22.114   9.464
 1988POPC   PO427576  40.763  22.191   9.164
 1988POPC   GL127577  40.735  22.142   8.864
 1988POPC   GL227578  40.758  22.084   8.864
 1988POPC   C1A27579  40.798  22.162   8.564
 1988POPC   D2A27580  40.774  22.166   8.264
 1988POPC   C3A27581  40.777  22.202   7.964
 1988POPC   C4A27582  40.788  22.152   7.664
 1988POPC   C1B27583  40.773  21.909   8.564
 1988POPC   C2B27584  40.747  21.950   8.264
 1988POPC   C3B27585  40.781  21.962   7.964
 1988POPC   C4B27586  40.749  21.954   7.664
 1989POPC   NC327587   6.602  43.078   9.464
 1989POPC   PO427588   6.648  43.101   9.164
 1989POPC   GL127589   6.597  43.096   8.864
 1989POPC   GL227590   6.726  43.209   8.864
 1989POPC   C1A27591   6.617  43.085   8.564
 1989POPC   D2A27592   6.670  43.063   8.264
 1989POPC   C3A27593   6.687  43.078   7.964
 1989POPC   C4A27594   6.643  43.095   7.664
 1989POPC   C1B27595   6.733  43.336   8.564
 1989POPC   C2B27596   6.702  43.322   8.264
 1989POPC   C3B27597   6.760  43.326   7.964
 1989POPC   C4B27598   6.771  43.374   7.664
 1990POPC   NC327599  15.145  12.046   9.464
 1990POPC   PO427600  15.228  12.083   9.164
 1990POPC   GL127601  15.167  12.068   8.864
 1990POPC   GL227602  15.077  12.215   8.864
 1990POPC   C1A27603  15.209  12.052   8.564
 1990POPC   D2A27604  15.159  12.060   8.264
 1990POPC   C3A27605  15.146  12.104   7.964
 1990POPC   C4A27606  15.225  12.108   7.664
 1990POPC   C1B27607  15.066  12.281   8.564
 1990POPC   C2B27608  15.020  12.292   8.264
 1990POPC   C3B27609  14.999  12.235   7.964
 1990POPC   C4B27610  14.978  12.220   7.664
 1991POPC   NC327611  19.793   2.010   9.464
 1991POPC   PO427612  19.874   2.016   9.164
 1991POPC   GL127613  19.852   1.956   8.864
 1991POPC   GL227614  19.861   1.897   8.864
 1991POPC   C1A27615  19.790   1.985   8.564
 1991POPC   D2A27616  19.817   2.027   8.264
 1991POPC   C3A27617  19.812   2.021   7.964
 1991POPC   C4A27618  19.812   1.997   7.664
 1991POPC   C1B27619  19.876   1.714   8.564
 1991POPC   C2B27620  19.787   1.695   8.264
 1991POPC   C3B27621  19.806   1.744   7.964
 1991POPC   C4B27622  19.873   1.727   7.664
 1992POPC   NC327623   8.177  42.311   9.464
 1992POPC   PO427624   8.244  42.364   9.164
 1992POPC   GL127625   8.162  42.374   8.864
 1992POPC   GL227626   8.100  42.349   8.864
 1992POPC   C1A27627   8.184  42.364   8.564
 1992POPC   D2A27628   8.156  42.317   8.264
 1992POPC   C3A27629   8.186  42.339   7.964
 1992POPC   C4A27630   8.162  42.338   7.664
 1992POPC   C1B27631   7.897  42.311   8.564
 1992POPC   C2B27632   7.900  42.381   8.264
 1992POPC   C3B27633   7.917  42.353   7.964
 1992POPC   C4B27634   7.921  42.321   7.664
 1993POPC   NC327635  11.348  32.230   9.464
 1993POPC   PO427636  11.300  32.279   9.164
 1993POPC   GL127637  11.300  32.278   8.864
 1993POPC   GL227638  11.362  32.398   8.864
 1993POPC   C1A27639  11.270  32.283   8.564
 1993POPC   D2A27640  11.293  32.211   8.264
 1993POPC   C3A27641  11.344  32.251   7.964
 1993POPC   C4A27642  11.337  32.289   7.664
 1993POPC   C1B27643  11.353  32.475   8.564
 1993POPC   C2B27644  11.370  32.532   8.264
 1993POPC   C3B27645  11.314  32.488   7.964
 1993POPC   C4B27646  11.366  32.520   7.664
 1994POPC   NC327647  15.160  27.572   9.464
 1994POPC   PO427648  15.180  27.630   9.164
 1994POPC   GL127649  15.168  27.591   8.864
 1994POPC   GL227650  15.099  27.708   8.864
 1994POPC   C1A27651  15.139  27.545   8.564
 1994POPC   D2A27652  15.144  27.565   8.264
 1994POPC   C3A27653  15.223  27.584   7.964
 1994POPC   C4A27654  15.139  27.611   7.664
 1994POPC   C1B27655  15.039  27.816   8.564
 1994POPC   C2B27656  15.120  27.799   8.264
 1994POPC   C3B27657  15.118  27.859   7.964
 1994POPC   C4B27658  15.086  27.836   7.664
 1995POPC   NC327659  37.675  13.598   9.464
 1995POPC   PO427660  37.721  13.607   9.164
 1995POPC   GL127661  37.679  13.657   8.864
 1995POPC   GL227662  37.623  13.553   8.864
 1995POPC   C1A27663  37.680  13.587   8.564
 1995POPC   D2A27664  37.644  13.633   8.264
 1995POPC   C3A27665  37.714  13.668   7.964
 1995POPC   C4A27666  37.726  13.599   7.664
 1995POPC   C1B27667  37.592  13.399   8.564
 1995POPC   C2B27668  37.528  13.384   8.264
 1995POPC   C3B27669  37.582  13.373   7.964
 1995POPC   C4B27670  37.612  13.378   7.664
 1996POPC   NC327671  33.772   0.454   9.464
 1996POPC   PO427672  33.752   0.416   9.164
 1996POPC   GL127673  33.810   0.455   8.864
 1996POPC   GL227674  33.690   0.545   8.864
 1996POPC   C1A27675  33.753   0.394   8.564
 1996POPC   D2A27676  33.763   0.430   8.264
 1996POPC   C3A27677  33.758   0.485   7.964
 1996POPC   C4A27678  33.796   0.450   7.664
 1996POPC   C1B27679  33.679   0.584   8.564
 1996POPC   C2B27680  33.660   0.668   8.264
 1996POPC   C3B27681  33.593   0.671   7.964
 1996POPC   C4B27682  33.613   0.591   7.664
 1997POPC   NC327683  32.213  40.796   9.464
 1997POPC   PO427684  32.285  40.797   9.164
 1997POPC   GL127685  32.270  40.785   8.864
 1997POPC   GL227686  32.401  40.860   8.864
 1997POPC   C1A27687  32.269  40.761   8.564
 1997POPC   D2A27688  32.248  40.832   8.264
 1997POPC   C3A27689  32.230  40.786   7.964
 1997POPC   C4A27690  32.271  40.770   7.664
 1997POPC   C1B27691  32.417  40.940   8.564
 1997POPC   C2B27692  32.442  40.915   8.264
 1997POPC   C3B27693  32.431  40.898   7.964
 1997POPC   C4B27694  32.500  40.949   7.664
 1998POPC   NC327695   1.999  17.487   9.464
 1998POPC   PO427696   1.947  17.498   9.164
 1998POPC   GL127697   1.974  17.533   8.864
 1998POPC   GL227698   2.046  17.563   8.864
 1998POPC   C1A27699   2.034  17.533   8.564
 1998POPC   D2A27700   2.029  17.469   8.264
 1998POPC   C3A27701   2.004  17.460   7.964
 1998POPC   C4A27702   2.008  17.522   7.664
 1998POPC   C1B27703   2.211  17.669   8.564
 1998POPC   C2B27704   2.147  17.624   8.264
 1998POPC   C3B27705   2.145  17.666   7.964
 1998POPC   C4B27706   2.194  17.625   7.664
 1999POPC   NC327707  32.203   0.480   9.464
 1999POPC   PO427708  32.237   0.403   9.164
 1999POPC   GL127709  32.239   0.479   8.864
 1999POPC   GL227710  32.110   0.486   8.864
 1999POPC   C1A27711  32.293   0.452   8.564
 1999POPC   D2A27712  32.269   0.476   8.264
 1999POPC   C3A27713  32.208   0.457   7.964
 1999POPC   C4A27714  32.267   0.407   7.664
 1999POPC   C1B27715  32.045   0.445   8.564
 1999POPC   C2B27716  31.992   0.432   8.264
 1999POPC   C3B27717  32.007   0.491   7.964
 1999POPC   C4B27718  32.019   0.420   7.664
 2000POPC   NC327719   5.116  20.599   9.464
 2000POPC   PO427720   5.064  20.601   9.164
 2000POPC   GL127721   5.102  20.610   8.864
 2000POPC   GL227722   5.225  20.686   8.864
 2000POPC   C1A27723   5.079  20.620   8.564
 2000POPC   D2A27724   5.115  20.577   8.264
 2000POPC   C3A27725   5.065  20.580   7.964
 2000POPC   C4A27726   5.139  20.571   7.664
 2000POPC   C1B27727   5.273  20.755   8.564
 2000POPC   C2B27728   5.310  20.807   8.264
 2000POPC   C3B27729   5.287  20.773   7.964
 2000POPC   C4B27730   5.230  20.795   7.664
 2001POPC   NC327731  36.882  18.239   9.464
 2001POPC   PO427732  36.937  18.248   9.164
 2001POPC   GL127733  36.917  18.287   8.864
 2001POPC   GL227734  36.801  18.245   8.864
 2001POPC   C1A27735  36.923  18.266   8.564
 2001POPC   D2A27736  36.918  18.244   8.264
 2001POPC   C3A27737  36.934  18.244   7.964
 2001POPC   C4A27738  36.942  18.320   7.664
 2001POPC   C1B27739  36.701  18.150   8.564
 2001POPC   C2B27740  36.741  18.198   8.264
 2001POPC   C3B27741  36.688  18.111   7.964
 2001POPC   C4B27742  36.694  18.191   7.664
 2002POPC   NC327743  21.376  18.280   9.464
 2002POPC   PO427744  21.425  18.325   9.164
 2002POPC   GL127745  21.389  18.266   8.864
 2002POPC   GL227746  21.489  18.222   8.864
 2002POPC   C1A27747  21.424  18.257   8.564
 2002POPC   D2A27748  21.415  18.318   8.264
 2002POPC   C3A27749  21.402  18.275   7.964
 2002POPC   C4A27750  21.410  18.315   7.664
 2002POPC   C1B27751  21.630  18.259   8.564
 2002POPC   C2B27752  21.644  18.275   8.264
 2002POPC   C3B27753  21.634  18.227   7.964
 2002POPC   C4B27754  21.635  18.271   7.664
 2003POPC   NC327755  28.374   6.597   9.464
 2003POPC   PO427756  28.379   6.604   9.164
 2003POPC   GL127757  28.327   6.609   8.864
 2003POPC   GL227758  28.205   6.626   8.864
 2003POPC   C1A27759  28.414   6.640   8.564
 2003POPC   D2A27760  28.351   6.666   8.264
 2003POPC   C3A27761  28.366   6.688   7.964
 2003POPC   C4A27762  28.328   6.628   7.664
 2003POPC   C1B27763  28.168   6.505   8.564
 2003POPC   C2B27764  28.187   6.509   8.264
 2003POPC   C3B27765  28.126   6.592   7.964
 2003POPC   C4B27766  28.107   6.572   7.664
 2004POPC   NC327767  39.972  38.478   9.464
 2004POPC   PO427768  40.010  38.478   9.164
 2004POPC   GL127769  40.052  38.457   8.864
 2004POPC   GL227770  39.921  38.520   8.864
 2004POPC   C1A27771  40.000  38.464   8.564
 2004POPC   D2A27772  39.981  38.453   8.264
 2004POPC   C3A27773  39.977  38.498   7.964
 2004POPC   C4A27774  39.966  38.462   7.664
 2004POPC   C1B27775  39.786  38.507   8.564
 2004POPC   C2B27776  39.762  38.541   8.264
 2004POPC   C3B27777  39.774  38.576   7.964
 2004POPC   C4B27778  39.736  38.572   7.664
 2005POPC   NC327779  15.906  34.619   9.464
 2005POPC   PO427780  15.916  34.611   9.164
 2005POPC   GL127781  15.961  34.570   8.864
 2005POPC   GL227782  15.813  34.533   8.864
 2005POPC   C1A27783  15.908  34.557   8.564
 2005POPC   D2A27784  15.910  34.551   8.264
 2005POPC   C3A27785  15.965  34.533   7.964
 2005POPC   C4A27786  15.932  34.616   7.664
 2005POPC   C1B27787  15.737  34.463   8.564
 2005POPC   C2B27788  15.751  34.484   8.264
 2005POPC   C3B27789  15.748  34.396   7.964
 2005POPC   C4B27790  15.719  34.471   7.664
 2006POPC   NC327791   1.195  10.485   9.464
 2006POPC   PO427792   1.217  10.550   9.164
 2006POPC   GL127793   1.192  10.574   8.864
 2006POPC   GL227794   1.255  10.372   8.864
 2006POPC   C1A27795   1.187  10.540   8.564
 2006POPC   D2A27796   1.222  10.496   8.264
 2006POPC   C3A27797   1.165  10.495   7.964
 2006POPC   C4A27798   1.188  10.544   7.664
 2006POPC   C1B27799   1.344  10.256   8.564
 2006POPC   C2B27800   1.362  10.338   8.264
 2006POPC   C3B27801   1.355  10.296   7.964
 2006POPC   C4B27802   1.349  10.337   7.664
 2007POPC   NC327803  13.616  37.702   9.464
 2007POPC   PO427804  13.645  37.696   9.164
 2007POPC   GL127805  13.581  37.639   8.864
 2007POPC   GL227806  13.540  37.770   8.864
 2007POPC   C1A27807  13.661  37.641   8.564
 2007POPC   D2A27808  13.616  37.727   8.264
 2007POPC   C3A27809  13.602  37.645   7.964
 2007POPC   C4A27810  13.601  37.699   7.664
 2007POPC   C1B27811  13.462  37.918   8.564
 2007POPC   C2B27812  13.473  37.824   8.264
 2007POPC   C3B27813  13.460  37.911   7.964
 2007POPC   C4B27814  13.456  37.857   7.664
 2008POPC   NC327815   4.341  19.104   9.464
 2008POPC   PO427816   4.302  19.064   9.164
 2008POPC   GL127817   4.306  19.037   8.864
 2008POPC   GL227818   4.437  19.173   8.864
 2008POPC   C1A27819   4.290  19.025   8.564
 2008POPC   D2A27820   4.305  19.061   8.264
 2008POPC   C3A27821   4.353  19.027   7.964
 2008POPC   C4A27822   4.358  19.020   7.664
 2008POPC   C1B27823   4.524  19.230   8.564
 2008POPC   C2B27824   4.520  19.243   8.264
 2008POPC   C3B27825   4.507  19.177   7.964
 2008POPC   C4B27826   4.553  19.170   7.664
 2009POPC   NC327827  34.607  27.641   9.464
 2009POPC   PO427828  34.576  27.622   9.164
 2009POPC   GL127829  34.526  27.584   8.864
 2009POPC   GL227830  34.490  27.662   8.864
 2009POPC   C1A27831  34.609  27.563   8.564
 2009POPC   D2A27832  34.557  27.605   8.264
 2009POPC   C3A27833  34.604  27.598   7.964
 2009POPC   C4A27834  34.544  27.599   7.664
 2009POPC   C1B27835  34.494  27.817   8.564
 2009POPC   C2B27836  34.461  27.763   8.264
 2009POPC   C3B27837  34.403  27.797   7.964
 2009POPC   C4B27838  34.495  27.841   7.664
 2010POPC   NC327839  17.469  35.328   9.464
 2010POPC   PO427840  17.545  35.329   9.164
 2010POPC   GL127841  17.466  35.361   8.864
 2010POPC   GL227842  17.653  35.332   8.864
 2010POPC   C1A27843  17.545  35.309   8.564
 2010POPC   D2A27844  17.550  35.328   8.264
 2010POPC   C3A27845  17.499  35.376   7.964
 2010POPC   C4A27846  17.462  35.352   7.664
 2010POPC   C1B27847  17.732  35.297   8.564
 2010POPC   C2B27848  17.770  35.305   8.264
 2010POPC   C3B27849  17.754  35.282   7.964
 2010POPC   C4B27850  17.723  35.279   7.664
 2011POPC   NC327851  19.075  15.936   9.464
 2011POPC   PO427852  19.024  16.003   9.164
 2011POPC   GL127853  19.037  15.924   8.864
 2011POPC   GL227854  19.171  15.963   8.864
 2011POPC   C1A27855  19.070  15.986   8.564
 2011POPC   D2A27856  19.037  15.998   8.264
 2011POPC   C3A27857  19.057  16.003   7.964
 2011POPC   C4A27858  19.015  15.982   7.664
 2011POPC   C1B27859  19.289  15.991   8.564
 2011POPC   C2B27860  19.319  15.980   8.264
 2011POPC   C3B27861  19.259  15.937   7.964
 2011POPC   C4B27862  19.270  16.012   7.664
 2012POPC   NC327863  12.816   2.795   9.464
 2012POPC   PO427864  12.860   2.772   9.164
 2012POPC   GL127865  12.817   2.790   8.864
 2012POPC   GL227866  13.004   2.712   8.864
 2012POPC   C1A27867  12.873   2.776   8.564
 2012POPC   D2A27868  12.818   2.812   8.264
 2012POPC   C3A27869  12.864   2.813   7.964
 2012POPC   C4A27870  12.867   2.755   7.664
 2012POPC   C1B27871  13.081   2.697   8.564
 2012POPC   C2B27872  13.095   2.702   8.264
 2012POPC   C3B27873  13.059   2.691   7.964
 2012POPC   C4B27874  13.058   2.646   7.664
 2013POPC   NC327875  17.494  18.295   9.464
 2013POPC   PO427876  17.538  18.273   9.164
 2013POPC   GL127877  17.507  18.290   8.864
 2013POPC   GL227878  17.608  18.165   8.864
 2013POPC   C1A27879  17.459  18.270   8.564
 2013POPC   D2A27880  17.517  18.311   8.264
 2013POPC   C3A27881  17.536  18.319   7.964
 2013POPC   C4A27882  17.501  18.291   7.664
 2013POPC   C1B27883  17.668  18.113   8.564
 2013POPC   C2B27884  17.621  18.059   8.264
 2013POPC   C3B27885  17.693  18.099   7.964
 2013POPC   C4B27886  17.628  18.098   7.664
 2014POPC   NC327887  12.835  36.902   9.464
 2014POPC   PO427888  12.862  36.858   9.164
 2014POPC   GL127889  12.893  36.925   8.864
 2014POPC   GL227890  12.779  36.745   8.864
 2014POPC   C1A27891  12.898  36.854   8.564
 2014POPC   D2A27892  12.824  36.910   8.264
 2014POPC   C3A27893  12.833  36.941   7.964
 2014POPC   C4A27894  12.841  36.937   7.664
 2014POPC   C1B27895  12.818  36.634   8.564
 2014POPC   C2B27896  12.759  36.680   8.264
 2014POPC   C3B27897  12.765  36.706   7.964
 2014POPC   C4B27898  12.835  36.700   7.664
 2015POPC   NC327899  39.257   2.805   9.464
 2015POPC   PO427900  39.242   2.787   9.164
 2015POPC   GL127901  39.189   2.717   8.864
 2015POPC   GL227902  39.124   2.721   8.864
 2015POPC   C1A27903  39.205   2.803   8.564
 2015POPC   D2A27904  39.219   2.783   8.264
 2015POPC   C3A27905  39.275   2.787   7.964
 2015POPC   C4A27906  39.199   2.740   7.664
 2015POPC   C1B27907  38.955   2.787   8.564
 2015POPC   C2B27908  38.940   2.720   8.264
 2015POPC   C3B27909  38.933   2.769   7.964
 2015POPC   C4B27910  38.941   2.806   7.664
 2016POPC   NC327911   1.177  16.695   9.464
 2016POPC   PO427912   1.259  16.693   9.164
 2016POPC   GL127913   1.171  16.736   8.864
 2016POPC   GL227914   1.353  16.748   8.864
 2016POPC   C1A27915   1.175  16.714   8.564
 2016POPC   D2A27916   1.191  16.710   8.264
 2016POPC   C3A27917   1.230  16.761   7.964
 2016POPC   C4A27918   1.209  16.745   7.664
 2016POPC   C1B27919   1.403  16.850   8.564
 2016POPC   C2B27920   1.450  16.866   8.264
 2016POPC   C3B27921   1.430  16.819   7.964
 2016POPC   C4B27922   1.400  16.842   7.664
 2017POPC   NC327923  39.277  13.583   9.464
 2017POPC   PO427924  39.201  13.668   9.164
 2017POPC   GL127925  39.248  13.621   8.864
 2017POPC   GL227926  39.283  13.714   8.864
 2017POPC   C1A27927  39.190  13.605   8.564
 2017POPC   D2A27928  39.223  13.623   8.264
 2017POPC   C3A27929  39.226  13.670   7.964
 2017POPC   C4A27930  39.212  13.660   7.664
 2017POPC   C1B27931  39.426  13.830   8.564
 2017POPC   C2B27932  39.438  13.817   8.264
 2017POPC   C3B27933  39.404  13.799   7.964
 2017POPC   C4B27934  39.352  13.796   7.664
 2018POPC   NC327935  24.462  12.869   9.464
 2018POPC   PO427936  24.481  12.864   9.164
 2018POPC   GL127937  24.497  12.834   8.864
 2018POPC   GL227938  24.589  12.794   8.864
 2018POPC   C1A27939  24.486  12.865   8.564
 2018POPC   D2A27940  24.539  12.859   8.264
 2018POPC   C3A27941  24.516  12.833   7.964
 2018POPC   C4A27942  24.534  12.839   7.664
 2018POPC   C1B27943  24.694  12.661   8.564
 2018POPC   C2B27944  24.637  12.641   8.264
 2018POPC   C3B27945  24.647  12.696   7.964
 2018POPC   C4B27946  24.637  12.675   7.664
 2019POPC   NC327947  17.549   8.207   9.464
 2019POPC   PO427948  17.521   8.152   9.164
 2019POPC   GL127949  17.521   8.193   8.864
 2019POPC   GL227950  17.598   8.250   8.864
 2019POPC   C1A27951  17.510   8.232   8.564
 2019POPC   D2A27952  17.523   8.245   8.264
 2019POPC   C3A27953  17.518   8.185   7.964
 2019POPC   C4A27954  17.534   8.212   7.664
 2019POPC   C1B27955  17.722   8.297   8.564
 2019POPC   C2B27956  17.713   8.276   8.264
 2019POPC   C3B27957  17.685   8.338   7.964
 2019POPC   C4B27958  17.700   8.276   7.664
 2020POPC   NC327959  22.115  29.175   9.464
 2020POPC   PO427960  22.125  29.135   9.164
 2020POPC   GL127961  22.167  29.136   8.864
 2020POPC   GL227962  22.073  29.175   8.864
 2020POPC   C1A27963  22.202  29.105   8.564
 2020POPC   D2A27964  22.188  29.187   8.264
 2020POPC   C3A27965  22.112  29.165   7.964
 2020POPC   C4A27966  22.141  29.184   7.664
 2020POPC   C1B27967  21.917  29.320   8.564
 2020POPC   C2B27968  21.935  29.320   8.264
 2020POPC   C3B27969  21.931  29.269   7.964
 2020POPC   C4B27970  21.961  29.332   7.664
 2021POPC   NC327971   5.090   8.988   9.464
 2021POPC   PO427972   5.137   9.007   9.164
 2021POPC   GL127973   5.124   8.988   8.864
 2021POPC   GL227974   5.224   8.939   8.864
 2021POPC   C1A27975   5.119   8.927   8.564
 2021POPC   D2A27976   5.140   9.016   8.264
 2021POPC   C3A27977   5.091   8.951   7.964
 2021POPC   C4A27978   5.085   9.001   7.664
 2021POPC   C1B27979   5.318   8.959   8.564
 2021POPC   C2B27980   5.339   9.014   8.264
 2021POPC   C3B27981   5.351   8.953   7.964
 2021POPC   C4B27982   5.367   9.034   7.664
 2022POPC   NC327983  18.325   6.645   9.464
 2022POPC   PO427984  18.317   6.605   9.164
 2022POPC   GL127985  18.242   6.617   8.864
 2022POPC   GL227986  18.395   6.746   8.864
 2022POPC   C1A27987  18.301   6.687   8.564
 2022POPC   D2A27988  18.245   6.673   8.264
 2022POPC   C3A27989  18.250   6.633   7.964
 2022POPC   C4A27990  18.314   6.656   7.664
 2022POPC   C1B27991  18.519   6.757   8.564
 2022POPC   C2B27992  18.494   6.824   8.264
 2022POPC   C3B27993  18.502   6.807   7.964
 2022POPC   C4B27994  18.459   6.764   7.664
 2023POPC   NC327995  38.443  31.469   9.464
 2023POPC   PO427996  38.489  31.477   9.164
 2023POPC   GL127997  38.414  31.493   8.864
 2023POPC   GL227998  38.502  31.357   8.864
 2023POPC   C1A27999  38.415  31.514   8.564
 2023POPC   D2A28000  38.466  31.503   8.264
 2023POPC   C3A28001  38.465  31.513   7.964
 2023POPC   C4A28002  38.428  31.441   7.664
 2023POPC   C1B28003  38.632  31.284   8.564
 2023POPC   C2B28004  38.583  31.308   8.264
 2023POPC   C3B28005  38.633  31.254   7.964
 2023POPC   C4B28006  38.639  31.263   7.664
 2024POPC   NC328007  42.336  36.078   9.464
 2024POPC   PO428008  42.290  36.136   9.164
 2024POPC   GL128009  42.320  36.156   8.864
 2024POPC   GL228010  42.298  36.053   8.864
 2024POPC   C1A28011  42.297  36.162   8.564
 2024POPC   D2A28012  42.339  36.093   8.264
 2024POPC   C3A28013  42.357  36.100   7.964
 2024POPC   C4A28014  42.295  36.114   7.664
 2024POPC   C1B28015  42.155  35.901   8.564
 2024POPC   C2B28016  42.213  35.898   8.264
 2024POPC   C3B28017  42.226  35.900   7.964
 2024POPC   C4B28018  42.215  35.888   7.664
 2025POPC   NC328019   5.858  31.427   9.464
 2025POPC   PO428020   5.821  31.458   9.164
 2025POPC   GL128021   5.852  31.451   8.864
 2025POPC   GL228022   5.863  31.370   8.864
 2025POPC   C1A28023   5.833  31.424   8.564
 2025POPC   D2A28024   5.840  31.510   8.264
 2025POPC   C3A28025   5.906  31.498   7.964
 2025POPC   C4A28026   5.859  31.495   7.664
 2025POPC   C1B28027   5.946  31.204   8.564
 2025POPC   C2B28028   5.913  31.205   8.264
 2025POPC   C3B28029   5.923  31.219   7.964
 2025POPC   C4B28030   5.886  31.250   7.664
 2026POPC   NC328031  12.883  29.961   9.464
 2026POPC   PO428032  12.897  29.900   9.164
 2026POPC   GL128033  12.879  29.885   8.864
 2026POPC   GL228034  12.795  30.051   8.864
 2026POPC   C1A28035  12.852  29.888   8.564
 2026POPC   D2A28036  12.871  29.907   8.264
 2026POPC   C3A28037  12.886  29.959   7.964
 2026POPC   C4A28038  12.851  29.961   7.664
 2026POPC   C1B28039  12.714  30.090   8.564
 2026POPC   C2B28040  12.684  30.065   8.264
 2026POPC   C3B28041  12.732  30.057   7.964
 2026POPC   C4B28042  12.674  30.072   7.664
 2027POPC   NC328043  20.611  28.346   9.464
 2027POPC   PO428044  20.613  28.338   9.164
 2027POPC   GL128045  20.649  28.375   8.864
 2027POPC   GL228046  20.664  28.440   8.864
 2027POPC   C1A28047  20.600  28.349   8.564
 2027POPC   D2A28048  20.609  28.391   8.264
 2027POPC   C3A28049  20.608  28.387   7.964
 2027POPC   C4A28050  20.640  28.365   7.664
 2027POPC   C1B28051  20.805  28.478   8.564
 2027POPC   C2B28052  20.800  28.489   8.264
 2027POPC   C3B28053  20.858  28.475   7.964
 2027POPC   C4B28054  20.773  28.549   7.664
 2028POPC   NC328055  41.539   7.374   9.464
 2028POPC   PO428056  41.516   7.422   9.164
 2028POPC   GL128057  41.608   7.449   8.864
 2028POPC   GL228058  41.459   7.363   8.864
 2028POPC   C1A28059  41.606   7.383   8.564
 2028POPC   D2A28060  41.572   7.423   8.264
 2028POPC   C3A28061  41.582   7.469   7.964
 2028POPC   C4A28062  41.594   7.431   7.664
 2028POPC   C1B28063  41.357   7.236   8.564
 2028POPC   C2B28064  41.332   7.320   8.264
 2028POPC   C3B28065  41.308   7.269   7.964
 2028POPC   C4B28066  41.319   7.302   7.664
 2029POPC   NC328067  12.804   4.298   9.464
 2029POPC   PO428068  12.845   4.288   9.164
 2029POPC   GL128069  12.852   4.350   8.864
 2029POPC   GL228070  12.776   4.323   8.864
 2029POPC   C1A28071  12.829   4.322   8.564
 2029POPC   D2A28072  12.846   4.294   8.264
 2029POPC   C3A28073  12.874   4.334   7.964
 2029POPC   C4A28074  12.845   4.329   7.664
 2029POPC   C1B28075  12.648   4.407   8.564
 2029POPC   C2B28076  12.649   4.393   8.264
 2029POPC   C3B28077  12.631   4.404   7.964
 2029POPC   C4B28078  12.625   4.340   7.664
 2030POPC   NC328079  22.925  29.967   9.464
 2030POPC   PO428080  22.915  29.903   9.164
 2030POPC   GL128081  22.955  29.927   8.864
 2030POPC   GL228082  23.105  29.985   8.864
 2030POPC   C1A28083  22.904  29.967   8.564
 2030POPC   D2A28084  22.950  29.880   8.264
 2030POPC   C3A28085  22.902  29.915   7.964
 2030POPC   C4A28086  22.931  29.896   7.664
 2030POPC   C1B28087  23.203  29.951   8.564
 2030POPC   C2B28088  23.137  29.972   8.264
 2030POPC   C3B28089  23.158  29.954   7.964
 2030POPC   C4B28090  23.170  29.993   7.664
 2031POPC   NC328091  14.368  12.893   9.464
 2031POPC   PO428092  14.439  12.847   9.164
 2031POPC   GL128093  14.411  12.881   8.864
 2031POPC   GL228094  14.505  12.824   8.864
 2031POPC   C1A28095  14.355  12.805   8.564
 2031POPC   D2A28096  14.424  12.888   8.264
 2031POPC   C3A28097  14.412  12.896   7.964
 2031POPC   C4A28098  14.409  12.830   7.664
 2031POPC   C1B28099  14.637  12.788   8.564
 2031POPC   C2B28100  14.597  12.763   8.264
 2031POPC   C3B28101  14.641  12.811   7.964
 2031POPC   C4B28102  14.628  12.734   7.664
 2032POPC   NC328103  26.842  23.674   9.464
 2032POPC   PO428104  26.822  23.746   9.164
 2032POPC   GL128105  26.792  23.763   8.864
 2032POPC   GL228106  26.744  23.666   8.864
 2032POPC   C1A28107  26.851  23.666   8.564
 2032POPC   D2A28108  26.831  23.671   8.264
 2032POPC   C3A28109  26.841  23.737   7.964
 2032POPC   C4A28110  26.818  23.665   7.664
 2032POPC   C1B28111  26.639  23.609   8.564
 2032POPC   C2B28112  26.656  23.532   8.264
 2032POPC   C3B28113  26.660  23.544   7.964
 2032POPC   C4B28114  26.624  23.572   7.664
 2033POPC   NC328115  15.158   9.795   9.464
 2033POPC   PO428116  15.181   9.702   9.164
 2033POPC   GL128117  15.186   9.766   8.864
 2033POPC   GL228118  15.300   9.671   8.864
 2033POPC   C1A28119  15.203   9.784   8.564
 2033POPC   D2A28120  15.195   9.742   8.264
 2033POPC   C3A28121  15.174   9.757   7.964
 2033POPC   C4A28122  15.166   9.728   7.664
 2033POPC   C1B28123  15.340   9.577   8.564
 2033POPC   C2B28124  15.386   9.528   8.264
 2033POPC   C3B28125  15.339   9.525   7.964
 2033POPC   C4B28126  15.319   9.575   7.664
 2034POPC   NC328127   8.176   0.427   9.464
 2034POPC   PO428128   8.167   0.442   9.164
 2034POPC   GL128129   8.206   0.440   8.864
 2034POPC   GL228130   8.087   0.438   8.864
 2034POPC   C1A28131   8.177   0.420   8.564
 2034POPC   D2A28132   8.176   0.470   8.264
 2034POPC   C3A28133   8.183   0.398   7.964
 2034POPC   C4A28134   8.190   0.397   7.664
 2034POPC   C1B28135   7.940   0.377   8.564
 2034POPC   C2B28136   7.944   0.446   8.264
 2034POPC   C3B28137   7.957   0.426   7.964
 2034POPC   C4B28138   7.984   0.428   7.664
 2035POPC   NC328139  36.907   0.469   9.464
 2035POPC   PO428140  36.880   0.458   9.164
 2035POPC   GL128141  36.906   0.480   8.864
 2035POPC   GL228142  37.003   0.443   8.864
 2035POPC   C1A28143  36.909   0.413   8.564
 2035POPC   D2A28144  36.947   0.487   8.264
 2035POPC   C3A28145  36.862   0.397   7.964
 2035POPC   C4A28146  36.864   0.416   7.664
 2035POPC   C1B28147  37.139   0.415   8.564
 2035POPC   C2B28148  37.134   0.480   8.264
 2035POPC   C3B28149  37.146   0.486   7.964
 2035POPC   C4B28150  37.187   0.416   7.664
 2036POPC   NC328151  31.452  29.924   9.464
 2036POPC   PO428152  31.488  29.871   9.164
 2036POPC   GL128153  31.440  29.940   8.864
 2036POPC   GL228154  31.433  30.051   8.864
 2036POPC   C1A28155  31.448  29.924   8.564
 2036POPC   D2A28156  31.448  29.888   8.264
 2036POPC   C3A28157  31.448  29.927   7.964
 2036POPC   C4A28158  31.485  29.947   7.664
 2036POPC   C1B28159  31.296  30.120   8.564
 2036POPC   C2B28160  31.376  30.145   8.264
 2036POPC   C3B28161  31.297  30.115   7.964
 2036POPC   C4B28162  31.313  30.132   7.664
 2037POPC   NC328163   1.207  12.053   9.464
 2037POPC   PO428164   1.240  12.039   9.164
 2037POPC   GL128165   1.210  12.103   8.864
 2037POPC   GL228166   1.311  12.123   8.864
 2037POPC   C1A28167   1.218  12.037   8.564
 2037POPC   D2A28168   1.194  12.026   8.264
 2037POPC   C3A28169   1.199  12.089   7.964
 2037POPC   C4A28170   1.230  12.036   7.664
 2037POPC   C1B28171   1.398  12.228   8.564
 2037POPC   C2B28172   1.459  12.153   8.264
 2037POPC   C3B28173   1.471  12.206   7.964
 2037POPC   C4B28174   1.486  12.228   7.664
 2038POPC   NC328175   6.612  17.510   9.464
 2038POPC   PO428176   6.642  17.483   9.164
 2038POPC   GL128177   6.644  17.544   8.864
 2038POPC   GL228178   6.696  17.561   8.864
 2038POPC   C1A28179   6.671  17.494   8.564
 2038POPC   D2A28180   6.616  17.480   8.264
 2038POPC   C3A28181   6.653  17.474   7.964
 2038POPC   C4A28182   6.599  17.496   7.664
 2038POPC   C1B28183   6.830  17.635   8.564
 2038POPC   C2B28184   6.870  17.611   8.264
 2038POPC   C3B28185   6.861  17.667   7.964
 2038POPC   C4B28186   6.886  17.666   7.664
 2039POPC   NC328187   0.404  15.200   9.464
 2039POPC   PO428188   0.470  15.196   9.164
 2039POPC   GL128189   0.439  15.201   8.864
 2039POPC   GL228190   0.489  15.316   8.864
 2039POPC   C1A28191   0.425  15.218   8.564
 2039POPC   D2A28192   0.463  15.138   8.264
 2039POPC   C3A28193   0.441  15.133   7.964
 2039POPC   C4A28194   0.416  15.147   7.664
 2039POPC   C1B28195   0.643  15.332   8.564
 2039POPC   C2B28196   0.645  15.361   8.264
 2039POPC   C3B28197   0.600  15.354   7.964
 2039POPC   C4B28198   0.615  15.399   7.664
 2040POPC   NC328199  26.854  20.589   9.464
 2040POPC   PO428200  26.812  20.570   9.164
 2040POPC   GL128201  26.791  20.578   8.864
 2040POPC   GL228202  26.879  20.700   8.864
 2040POPC   C1A28203  26.794  20.653   8.564
 2040POPC   D2A28204  26.859  20.574   8.264
 2040POPC   C3A28205  26.835  20.623   7.964
 2040POPC   C4A28206  26.850  20.577   7.664
 2040POPC   C1B28207  27.080  20.716   8.564
 2040POPC   C2B28208  27.006  20.775   8.264
 2040POPC   C3B28209  27.082  20.703   7.964
 2040POPC   C4B28210  27.011  20.776   7.664
 2041POPC   NC328211  30.675  31.488   9.464
 2041POPC   PO428212  30.675  31.492   9.164
 2041POPC   GL128213  30.679  31.457   8.864
 2041POPC   GL228214  30.769  31.495   8.864
 2041POPC   C1A28215  30.734  31.450   8.564
 2041POPC   D2A28216  30.693  31.424   8.264
 2041POPC   C3A28217  30.696  31.520   7.964
 2041POPC   C4A28218  30.717  31.466   7.664
 2041POPC   C1B28219  30.976  31.550   8.564
 2041POPC   C2B28220  30.911  31.578   8.264
 2041POPC   C3B28221  30.910  31.595   7.964
 2041POPC   C4B28222  30.932  31.579   7.664
 2042POPC   NC328223   1.222  31.458   9.464
 2042POPC   PO428224   1.238  31.511   9.164
 2042POPC   GL128225   1.175  31.459   8.864
 2042POPC   GL228226   1.317  31.355   8.864
 2042POPC   C1A28227   1.208  31.476   8.564
 2042POPC   D2A28228   1.226  31.462   8.264
 2042POPC   C3A28229   1.247  31.520   7.964
 2042POPC   C4A28230   1.212  31.448   7.664
 2042POPC   C1B28231   1.319  31.270   8.564
 2042POPC   C2B28232   1.310  31.251   8.264
 2042POPC   C3B28233   1.382  31.299   7.964
 2042POPC   C4B28234   1.307  31.241   7.664
 2043POPC   NC328235  28.322   1.247   9.464
 2043POPC   PO428236  28.390   1.259   9.164
 2043POPC   GL128237  28.395   1.164   8.864
 2043POPC   GL228238  28.232   1.188   8.864
 2043POPC   C1A28239  28.333   1.211   8.564
 2043POPC   D2A28240  28.320   1.197   8.264
 2043POPC   C3A28241  28.334   1.188   7.964
 2043POPC   C4A28242  28.333   1.232   7.664
 2043POPC   C1B28243  28.102   1.216   8.564
 2043POPC   C2B28244  28.127   1.183   8.264
 2043POPC   C3B28245  28.123   1.221   7.964
 2043POPC   C4B28246  28.118   1.214   7.664
 2044POPC   NC328247  21.375  26.841   9.464
 2044POPC   PO428248  21.427  26.821   9.164
 2044POPC   GL128249  21.391  26.802   8.864
 2044POPC   GL228250  21.293  26.880   8.864
 2044POPC   C1A28251  21.428  26.785   8.564
 2044POPC   D2A28252  21.343  26.789   8.264
 2044POPC   C3A28253  21.421  26.859   7.964
 2044POPC   C4A28254  21.348  26.847   7.664
 2044POPC   C1B28255  21.262  27.028   8.564
 2044POPC   C2B28256  21.296  27.058   8.264
 2044POPC   C3B28257  21.298  27.077   7.964
 2044POPC   C4B28258  21.248  26.990   7.664
 2045POPC   NC328259  24.528  12.077   9.464
 2045POPC   PO428260  24.492  12.110   9.164
 2045POPC   GL128261  24.520  12.040   8.864
 2045POPC   GL228262  24.512  12.205   8.864
 2045POPC   C1A28263  24.496  12.047   8.564
 2045POPC   D2A28264  24.500  12.124   8.264
 2045POPC   C3A28265  24.444  12.071   7.964
 2045POPC   C4A28266  24.447  12.029   7.664
 2045POPC   C1B28267  24.508  12.372   8.564
 2045POPC   C2B28268  24.422  12.340   8.264
 2045POPC   C3B28269  24.452  12.332   7.964
 2045POPC   C4B28270  24.458  12.319   7.664
 2046POPC   NC328271   6.638  12.082   9.464
 2046POPC   PO428272   6.607  12.089   9.164
 2046POPC   GL128273   6.634  12.061   8.864
 2046POPC   GL228274   6.759  12.185   8.864
 2046POPC   C1A28275   6.617  12.088   8.564
 2046POPC   D2A28276   6.602  12.056   8.264
 2046POPC   C3A28277   6.672  12.090   7.964
 2046POPC   C4A28278   6.686  12.109   7.664
 2046POPC   C1B28279   6.745  12.283   8.564
 2046POPC   C2B28280   6.762  12.235   8.264
 2046POPC   C3B28281   6.775  12.235   7.964
 2046POPC   C4B28282   6.751  12.274   7.664
 2047POPC   NC328283   4.321  16.741   9.464
 2047POPC   PO428284   4.268  16.761   9.164
 2047POPC   GL128285   4.338  16.730   8.864
 2047POPC   GL228286   4.378  16.832   8.864
 2047POPC   C1A28287   4.313  16.734   8.564
 2047POPC   D2A28288   4.315  16.762   8.264
 2047POPC   C3A28289   4.365  16.768   7.964
 2047POPC   C4A28290   4.307  16.728   7.664
 2047POPC   C1B28291   4.470  16.876   8.564
 2047POPC   C2B28292   4.469  16.933   8.264
 2047POPC   C3B28293   4.470  16.843   7.964
 2047POPC   C4B28294   4.490  16.845   7.664
 2048POPC   NC328295  42.324  27.600   9.464
 2048POPC   PO428296  42.360  27.607   9.164
 2048POPC   GL128297  42.310  27.575   8.864
 2048POPC   GL228298  42.448  27.461   8.864
 2048POPC   C1A28299  42.298  27.594   8.564
 2048POPC   D2A28300  42.319  27.627   8.264
 2048POPC   C3A28301  42.352  27.546   7.964
 2048POPC   C4A28302  42.291  27.571   7.664
 2048POPC   C1B28303  42.517  27.359   8.564
 2048POPC   C2B28304  42.505  27.366   8.264
 2048POPC   C3B28305  42.466  27.357   7.964
 2048POPC   C4B28306  42.458  27.345   7.664
 2049POPC   NC328307  29.141   3.585   9.464
 2049POPC   PO428308  29.146   3.553   9.164
 2049POPC   GL128309  29.113   3.538   8.864
 2049POPC   GL228310  28.999   3.513   8.864
 2049POPC   C1A28311  29.158   3.565   8.564
 2049POPC   D2A28312  29.113   3.582   8.264
 2049POPC   C3A28313  29.136   3.528   7.964
 2049POPC   C4A28314  29.149   3.543   7.664
 2049POPC   C1B28315  28.932   3.396   8.564
 2049POPC   C2B28316  28.959   3.431   8.264
 2049POPC   C3B28317  28.971   3.480   7.964
 2049POPC   C4B28318  28.933   3.400   7.664
 2050POPC   NC328319   1.183  18.301   9.464
 2050POPC   PO428320   1.261  18.258   9.164
 2050POPC   GL128321   1.190  18.326   8.864
 2050POPC   GL228322   1.118  18.191   8.864
 2050POPC   C1A28323   1.204  18.278   8.564
 2050POPC   D2A28324   1.222  18.268   8.264
 2050POPC   C3A28325   1.179  18.241   7.964
 2050POPC   C4A28326   1.191  18.261   7.664
 2050POPC   C1B28327   1.081  18.089   8.564
 2050POPC   C2B28328   1.085  18.079   8.264
 2050POPC   C3B28329   1.128  18.071   7.964
 2050POPC   C4B28330   1.119  18.052   7.664
 2051POPC   NC328331  33.009  37.668   9.464
 2051POPC   PO428332  33.069  37.709   9.164
 2051POPC   GL128333  33.047  37.684   8.864
 2051POPC   GL228334  32.995  37.827   8.864
 2051POPC   C1A28335  33.010  37.630   8.564
 2051POPC   D2A28336  33.040  37.649   8.264
 2051POPC   C3A28337  33.059  37.726   7.964
 2051POPC   C4A28338  33.061  37.683   7.664
 2051POPC   C1B28339  32.892  37.879   8.564
 2051POPC   C2B28340  32.954  37.900   8.264
 2051POPC   C3B28341  32.917  37.918   7.964
 2051POPC   C4B28342  32.959  37.919   7.664
 2052POPC   NC328343  12.878  42.306   9.464
 2052POPC   PO428344  12.814  42.301   9.164
 2052POPC   GL128345  12.876  42.338   8.864
 2052POPC   GL228346  12.788  42.284   8.864
 2052POPC   C1A28347  12.901  42.324   8.564
 2052POPC   D2A28348  12.840  42.309   8.264
 2052POPC   C3A28349  12.856  42.333   7.964
 2052POPC   C4A28350  12.871  42.381   7.664
 2052POPC   C1B28351  12.696  42.180   8.564
 2052POPC   C2B28352  12.649  42.176   8.264
 2052POPC   C3B28353  12.678  42.205   7.964
 2052POPC   C4B28354  12.670  42.176   7.664
 2053POPC   NC328355  16.776  33.030   9.464
 2053POPC   PO428356  16.692  33.069   9.164
 2053POPC   GL128357  16.754  32.987   8.864
 2053POPC   GL228358  16.588  32.917   8.864
 2053POPC   C1A28359  16.771  33.037   8.564
 2053POPC   D2A28360  16.749  32.979   8.264
 2053POPC   C3A28361  16.766  33.011   7.964
 2053POPC   C4A28362  16.768  33.070   7.664
 2053POPC   C1B28363  16.529  32.929   8.564
 2053POPC   C2B28364  16.494  32.850   8.264
 2053POPC   C3B28365  16.567  32.887   7.964
 2053POPC   C4B28366  16.519  32.911   7.664
 2054POPC   NC328367   0.475  12.109   9.464
 2054POPC   PO428368   0.420  12.071   9.164
 2054POPC   GL128369   0.471  12.113   8.864
 2054POPC   GL228370   0.450  11.954   8.864
 2054POPC   C1A28371   0.462  12.033   8.564
 2054POPC   D2A28372   0.418  12.037   8.264
 2054POPC   C3A28373   0.427  12.026   7.964
 2054POPC   C4A28374   0.457  12.041   7.664
 2054POPC   C1B28375   0.508  11.837   8.564
 2054POPC   C2B28376   0.510  11.817   8.264
 2054POPC   C3B28377   0.498  11.809   7.964
 2054POPC   C4B28378   0.505  11.824   7.664
 2055POPC   NC328379  23.709  32.240   9.464
 2055POPC   PO428380  23.746  32.254   9.164
 2055POPC   GL128381  23.761  32.270   8.864
 2055POPC   GL228382  23.786  32.151   8.864
 2055POPC   C1A28383  23.749  32.256   8.564
 2055POPC   D2A28384  23.721  32.210   8.264
 2055POPC   C3A28385  23.666  32.220   7.964
 2055POPC   C4A28386  23.718  32.281   7.664
 2055POPC   C1B28387  23.846  32.022   8.564
 2055POPC   C2B28388  23.816  32.027   8.264
 2055POPC   C3B28389  23.872  32.035   7.964
 2055POPC   C4B28390  23.872  32.040   7.664
 2056POPC   NC328391   2.814  20.637   9.464
 2056POPC   PO428392   2.759  20.570   9.164
 2056POPC   GL128393   2.763  20.643   8.864
 2056POPC   GL228394   2.823  20.732   8.864
 2056POPC   C1A28395   2.814  20.650   8.564
 2056POPC   D2A28396   2.751  20.612   8.264
 2056POPC   C3A28397   2.759  20.629   7.964
 2056POPC   C4A28398   2.797  20.584   7.664
 2056POPC   C1B28399   2.952  20.842   8.564
 2056POPC   C2B28400   2.975  20.792   8.264
 2056POPC   C3B28401   2.956  20.840   7.964
 2056POPC   C4B28402   2.979  20.762   7.664
 2057POPC   NC328403   2.778  15.968   9.464
 2057POPC   PO428404   2.743  15.988   9.164
 2057POPC   GL128405   2.800  15.944   8.864
 2057POPC   GL228406   2.763  15.860   8.864
 2057POPC   C1A28407   2.758  16.003   8.564
 2057POPC   D2A28408   2.756  15.984   8.264
 2057POPC   C3A28409   2.785  15.952   7.964
 2057POPC   C4A28410   2.777  15.994   7.664
 2057POPC   C1B28411   2.746  15.703   8.564
 2057POPC   C2B28412   2.770  15.717   8.264
 2057POPC   C3B28413   2.776  15.738   7.964
 2057POPC   C4B28414   2.786  15.708   7.664
 2058POPC   NC328415   5.913   2.019   9.464
 2058POPC   PO428416   5.829   1.993   9.164
 2058POPC   GL128417   5.849   1.975   8.864
 2058POPC   GL228418   5.796   1.831   8.864
 2058POPC   C1A28419   5.882   2.006   8.564
 2058POPC   D2A28420   5.849   2.017   8.264
 2058POPC   C3A28421   5.893   2.037   7.964
 2058POPC   C4A28422   5.852   1.941   7.664
 2058POPC   C1B28423   5.848   1.719   8.564
 2058POPC   C2B28424   5.779   1.761   8.264
 2058POPC   C3B28425   5.768   1.790   7.964
 2058POPC   C4B28426   5.788   1.751   7.664
 2059POPC   NC328427  36.150  18.287   9.464
 2059POPC   PO428428  36.168  18.321   9.164
 2059POPC   GL128429  36.136  18.331   8.864
 2059POPC   GL228430  36.284  18.291   8.864
 2059POPC   C1A28431  36.159  18.237   8.564
 2059POPC   D2A28432  36.176  18.238   8.264
 2059POPC   C3A28433  36.115  18.253   7.964
 2059POPC   C4A28434  36.158  18.294   7.664
 2059POPC   C1B28435  36.409  18.369   8.564
 2059POPC   C2B28436  36.311  18.338   8.264
 2059POPC   C3B28437  36.363  18.350   7.964
 2059POPC   C4B28438  36.379  18.417   7.664
 2060POPC   NC328439   5.114  43.876   9.464
 2060POPC   PO428440   5.117  43.864   9.164
 2060POPC   GL128441   5.083  43.862   8.864
 2060POPC   GL228442   4.945  43.897   8.864
 2060POPC   C1A28443   5.089  43.848   8.564
 2060POPC   D2A28444   5.136  43.936   8.264
 2060POPC   C3A28445   5.095  43.839   7.964
 2060POPC   C4A28446   5.129  43.925   7.664
 2060POPC   C1B28447   4.845  43.907   8.564
 2060POPC   C2B28448   4.824  43.944   8.264
 2060POPC   C3B28449   4.798  43.920   7.964
 2060POPC   C4B28450   4.865  43.945   7.664
 2061POPC   NC328451  22.162  44.697   9.464
 2061POPC   PO428452  22.169  44.614   9.164
 2061POPC   GL128453  22.135  44.697   8.864
 2061POPC   GL228454  22.070  44.783   8.864
 2061POPC   C1A28455  22.113  44.693   8.564
 2061POPC   D2A28456  22.187  44.690   8.264
 2061POPC   C3A28457  22.149  44.652   7.964
 2061POPC   C4A28458  22.129  44.681   7.664
 2061POPC   C1B28459  21.917  44.773   8.564
 2061POPC   C2B28460  21.995  44.863   8.264
 2061POPC   C3B28461  21.953  44.796   7.964
 2061POPC   C4B28462  21.933  44.811   7.664
 2062POPC   NC328463  28.416   5.878   9.464
 2062POPC   PO428464  28.380   5.826   9.164
 2062POPC   GL128465  28.377   5.829   8.864
 2062POPC   GL228466  28.364   5.741   8.864
 2062POPC   C1A28467  28.375   5.887   8.564
 2062POPC   D2A28468  28.379   5.913   8.264
 2062POPC   C3A28469  28.372   5.887   7.964
 2062POPC   C4A28470  28.329   5.858   7.664
 2062POPC   C1B28471  28.295   5.585   8.564
 2062POPC   C2B28472  28.301   5.628   8.264
 2062POPC   C3B28473  28.321   5.643   7.964
 2062POPC   C4B28474  28.296   5.666   7.664
 2063POPC   NC328475  19.881   8.938   9.464
 2063POPC   PO428476  19.797   8.925   9.164
 2063POPC   GL128477  19.805   8.925   8.864
 2063POPC   GL228478  19.843   8.891   8.864
 2063POPC   C1A28479  19.877   9.003   8.564
 2063POPC   D2A28480  19.840   8.996   8.264
 2063POPC   C3A28481  19.871   8.926   7.964
 2063POPC   C4A28482  19.861   8.980   7.664
 2063POPC   C1B28483  19.883   8.769   8.564
 2063POPC   C2B28484  19.875   8.703   8.264
 2063POPC   C3B28485  19.833   8.712   7.964
 2063POPC   C4B28486  19.919   8.735   7.664
 2064POPC   NC328487  24.452   8.995   9.464
 2064POPC   PO428488  24.475   8.991   9.164
 2064POPC   GL128489  24.462   8.947   8.864
 2064POPC   GL228490  24.648   8.936   8.864
 2064POPC   C1A28491  24.469   8.936   8.564
 2064POPC   D2A28492  24.461   8.927   8.264
 2064POPC   C3A28493  24.467   8.951   7.964
 2064POPC   C4A28494  24.508   9.016   7.664
 2064POPC   C1B28495  24.701   8.839   8.564
 2064POPC   C2B28496  24.719   8.816   8.264
 2064POPC   C3B28497  24.711   8.862   7.964
 2064POPC   C4B28498  24.703   8.862   7.664
 2065POPC   NC328499  17.488  42.327   9.464
 2065POPC   PO428500  17.547  42.357   9.164
 2065POPC   GL128501  17.482  42.365   8.864
 2065POPC   GL228502  17.430  42.185   8.864
 2065POPC   C1A28503  17.542  42.375   8.564
 2065POPC   D2A28504  17.474  42.308   8.264
 2065POPC   C3A28505  17.458  42.342   7.964
 2065POPC   C4A28506  17.552  42.302   7.664
 2065POPC   C1B28507  17.351  42.090   8.564
 2065POPC   C2B28508  17.397  42.150   8.264
 2065POPC   C3B28509  17.397  42.103   7.964
 2065POPC   C4B28510  17.373  42.130   7.664
 2066POPC   NC328511  13.601  34.608   9.464
 2066POPC   PO428512  13.629  34.538   9.164
 2066POPC   GL128513  13.582  34.582   8.864
 2066POPC   GL228514  13.563  34.502   8.864
 2066POPC   C1A28515  13.664  34.559   8.564
 2066POPC   D2A28516  13.621  34.566   8.264
 2066POPC   C3A28517  13.636  34.563   7.964
 2066POPC   C4A28518  13.586  34.579   7.664
 2066POPC   C1B28519  13.452  34.429   8.564
 2066POPC   C2B28520  13.435  34.365   8.264
 2066POPC   C3B28521  13.485  34.406   7.964
 2066POPC   C4B28522  13.507  34.389   7.664
 2067POPC   NC328523  27.594  42.313   9.464
 2067POPC   PO428524  27.639  42.301   9.164
 2067POPC   GL128525  27.604  42.378   8.864
 2067POPC   GL228526  27.554  42.445   8.864
 2067POPC   C1A28527  27.626  42.302   8.564
 2067POPC   D2A28528  27.567  42.312   8.264
 2067POPC   C3A28529  27.557  42.363   7.964
 2067POPC   C4A28530  27.592  42.305   7.664
 2067POPC   C1B28531  27.607  42.620   8.564
 2067POPC   C2B28532  27.584  42.580   8.264
 2067POPC   C3B28533  27.608  42.615   7.964
 2067POPC   C4B28534  27.638  42.590   7.664
 2068POPC   NC328535   3.579  12.109   9.464
 2068POPC   PO428536   3.506  12.089   9.164
 2068POPC   GL128537   3.529  12.074   8.864
 2068POPC   GL228538   3.649  12.067   8.864
 2068POPC   C1A28539   3.557  12.075   8.564
 2068POPC   D2A28540   3.557  12.119   8.264
 2068POPC   C3A28541   3.587  12.045   7.964
 2068POPC   C4A28542   3.586  12.057   7.664
 2068POPC   C1B28543   3.805  12.163   8.564
 2068POPC   C2B28544   3.744  12.167   8.264
 2068POPC   C3B28545   3.816  12.104   7.964
 2068POPC   C4B28546   3.817  12.101   7.664
 2069POPC   NC328547  16.774  26.859   9.464
 2069POPC   PO428548  16.778  26.817   9.164
 2069POPC   GL128549  16.774  26.840   8.864
 2069POPC   GL228550  16.778  26.972   8.864
 2069POPC   C1A28551  16.697  26.804   8.564
 2069POPC   D2A28552  16.710  26.850   8.264
 2069POPC   C3A28553  16.750  26.835   7.964
 2069POPC   C4A28554  16.687  26.852   7.664
 2069POPC   C1B28555  16.787  27.059   8.564
 2069POPC   C2B28556  16.744  27.090   8.264
 2069POPC   C3B28557  16.744  27.040   7.964
 2069POPC   C4B28558  16.707  27.044   7.664
 2070POPC   NC328559  11.313  24.466   9.464
 2070POPC   PO428560  11.263  24.523   9.164
 2070POPC   GL128561  11.261  24.480   8.864
 2070POPC   GL228562  11.214  24.531   8.864
 2070POPC   C1A28563  11.298  24.468   8.564
 2070POPC   D2A28564  11.290  24.447   8.264
 2070POPC   C3A28565  11.315  24.450   7.964
 2070POPC   C4A28566  11.306  24.493   7.664
 2070POPC   C1B28567  11.046  24.557   8.564
 2070POPC   C2B28568  11.053  24.569   8.264
 2070POPC   C3B28569  11.036  24.523   7.964
 2070POPC   C4B28570  11.075  24.569   7.664
 2071POPC   NC328571  10.548  29.097   9.464
 2071POPC   PO428572  10.549  29.183   9.164
 2071POPC   GL128573  10.555  29.121   8.864
 2071POPC   GL228574  10.613  29.157   8.864
 2071POPC   C1A28575  10.520  29.169   8.564
 2071POPC   D2A28576  10.548  29.158   8.264
 2071POPC   C3A28577  10.543  29.096   7.964
 2071POPC   C4A28578  10.544  29.192   7.664
 2071POPC   C1B28579  10.737  29.050   8.564
 2071POPC   C2B28580  10.816  29.116   8.264
 2071POPC   C3B28581  10.764  29.131   7.964
 2071POPC   C4B28582  10.751  29.079   7.664
 2072POPC   NC328583   9.712  28.383   9.464
 2072POPC   PO428584   9.759  28.337   9.164
 2072POPC   GL128585   9.768  28.396   8.864
 2072POPC   GL228586   9.778  28.455   8.864
 2072POPC   C1A28587   9.729  28.325   8.564
 2072POPC   D2A28588   9.715  28.355   8.264
 2072POPC   C3A28589   9.749  28.325   7.964
 2072POPC   C4A28590   9.763  28.356   7.664
 2072POPC   C1B28591   9.875  28.536   8.564
 2072POPC   C2B28592   9.895  28.580   8.264
 2072POPC   C3B28593   9.862  28.584   7.964
 2072POPC   C4B28594   9.835  28.555   7.664
 2073POPC   NC328595  18.237  15.914   9.464
 2073POPC   PO428596  18.290  15.958   9.164
 2073POPC   GL128597  18.323  15.923   8.864
 2073POPC   GL228598  18.182  15.845   8.864
 2073POPC   C1A28599  18.246  15.995   8.564
 2073POPC   D2A28600  18.273  15.972   8.264
 2073POPC   C3A28601  18.313  15.954   7.964
 2073POPC   C4A28602  18.327  15.932   7.664
 2073POPC   C1B28603  18.229  15.694   8.564
 2073POPC   C2B28604  18.185  15.753   8.264
 2073POPC   C3B28605  18.176  15.700   7.964
 2073POPC   C4B28606  18.188  15.770   7.664
 2074POPC   NC328607   7.381  25.221   9.464
 2074POPC   PO428608   7.418  25.281   9.164
 2074POPC   GL128609   7.382  25.308   8.864
 2074POPC   GL228610   7.426  25.384   8.864
 2074POPC   C1A28611   7.420  25.229   8.564
 2074POPC   D2A28612   7.435  25.264   8.264
 2074POPC   C3A28613   7.438  25.291   7.964
 2074POPC   C4A28614   7.436  25.293   7.664
 2074POPC   C1B28615   7.374  25.464   8.564
 2074POPC   C2B28616   7.408  25.525   8.264
 2074POPC   C3B28617   7.382  25.500   7.964
 2074POPC   C4B28618   7.392  25.544   7.664
 2075POPC   NC328619  22.953  31.506   9.464
 2075POPC   PO428620  22.979  31.500   9.164
 2075POPC   GL128621  22.900  31.518   8.864
 2075POPC   GL228622  22.843  31.487   8.864
 2075POPC   C1A28623  22.936  31.427   8.564
 2075POPC   D2A28624  22.912  31.428   8.264
 2075POPC   C3A28625  22.911  31.462   7.964
 2075POPC   C4A28626  22.953  31.456   7.664
 2075POPC   C1B28627  22.654  31.469   8.564
 2075POPC   C2B28628  22.657  31.485   8.264
 2075POPC   C3B28629  22.661  31.551   7.964
 2075POPC   C4B28630  22.721  31.548   7.664
 2076POPC   NC328631  38.424  18.277   9.464
 2076POPC   PO428632  38.436  18.268   9.164
 2076POPC   GL128633  38.500  18.241   8.864
 2076POPC   GL228634  38.541  18.223   8.864
 2076POPC   C1A28635  38.460  18.327   8.564
 2076POPC   D2A28636  38.419  18.262   8.264
 2076POPC   C3A28637  38.416  18.305   7.964
 2076POPC   C4A28638  38.419  18.269   7.664
 2076POPC   C1B28639  38.625  18.034   8.564
 2076POPC   C2B28640  38.590  18.083   8.264
 2076POPC   C3B28641  38.574  18.102   7.964
 2076POPC   C4B28642  38.572  18.110   7.664
 2077POPC   NC328643  25.251  22.967   9.464
 2077POPC   PO428644  25.289  22.961   9.164
 2077POPC   GL128645  25.284  22.921   8.864
 2077POPC   GL228646  25.192  22.823   8.864
 2077POPC   C1A28647  25.291  22.953   8.564
 2077POPC   D2A28648  25.239  22.962   8.264
 2077POPC   C3A28649  25.253  22.954   7.964
 2077POPC   C4A28650  25.289  22.987   7.664
 2077POPC   C1B28651  25.102  22.723   8.564
 2077POPC   C2B28652  25.083  22.725   8.264
 2077POPC   C3B28653  25.059  22.743   7.964
 2077POPC   C4B28654  25.035  22.754   7.664
 2078POPC   NC328655  43.099  30.697   9.464
 2078POPC   PO428656  43.105  30.665   9.164
 2078POPC   GL128657  43.141  30.667   8.864
 2078POPC   GL228658  43.078  30.553   8.864
 2078POPC   C1A28659  43.132  30.737   8.564
 2078POPC   D2A28660  43.069  30.658   8.264
 2078POPC   C3A28661  43.085  30.707   7.964
 2078POPC   C4A28662  43.113  30.734   7.664
 2078POPC   C1B28663  43.026  30.495   8.564
 2078POPC   C2B28664  43.094  30.420   8.264
 2078POPC   C3B28665  43.110  30.454   7.964
 2078POPC   C4B28666  43.092  30.446   7.664
 2079POPC   NC328667  23.750  31.513   9.464
 2079POPC   PO428668  23.727  31.487   9.164
 2079POPC   GL128669  23.709  31.512   8.864
 2079POPC   GL228670  23.775  31.329   8.864
 2079POPC   C1A28671  23.733  31.433   8.564
 2079POPC   D2A28672  23.712  31.459   8.264
 2079POPC   C3A28673  23.684  31.472   7.964
 2079POPC   C4A28674  23.746  31.474   7.664
 2079POPC   C1B28675  23.825  31.281   8.564
 2079POPC   C2B28676  23.828  31.235   8.264
 2079POPC   C3B28677  23.798  31.204   7.964
 2079POPC   C4B28678  23.814  31.239   7.664
 2080POPC   NC328679  24.498  25.286   9.464
 2080POPC   PO428680  24.476  25.256   9.164
 2080POPC   GL128681  24.458  25.304   8.864
 2080POPC   GL228682  24.334  25.274   8.864
 2080POPC   C1A28683  24.457  25.274   8.564
 2080POPC   D2A28684  24.501  25.219   8.264
 2080POPC   C3A28685  24.458  25.305   7.964
 2080POPC   C4A28686  24.470  25.264   7.664
 2080POPC   C1B28687  24.295  25.310   8.564
 2080POPC   C2B28688  24.279  25.326   8.264
 2080POPC   C3B28689  24.263  25.372   7.964
 2080POPC   C4B28690  24.240  25.384   7.664
 2081POPC   NC328691  23.741   9.749   9.464
 2081POPC   PO428692  23.698   9.742   9.164
 2081POPC   GL128693  23.734   9.773   8.864
 2081POPC   GL228694  23.705   9.856   8.864
 2081POPC   C1A28695  23.721   9.791   8.564
 2081POPC   D2A28696  23.728   9.755   8.264
 2081POPC   C3A28697  23.666   9.708   7.964
 2081POPC   C4A28698  23.685   9.793   7.664
 2081POPC   C1B28699  23.794  10.041   8.564
 2081POPC   C2B28700  23.709   9.947   8.264
 2081POPC   C3B28701  23.708   9.983   7.964
 2081POPC   C4B28702  23.802  10.032   7.664
 2082POPC   NC328703  15.990  21.364   9.464
 2082POPC   PO428704  15.911  21.383   9.164
 2082POPC   GL128705  15.992  21.373   8.864
 2082POPC   GL228706  15.875  21.367   8.864
 2082POPC   C1A28707  15.934  21.385   8.564
 2082POPC   D2A28708  15.907  21.337   8.264
 2082POPC   C3A28709  15.965  21.342   7.964
 2082POPC   C4A28710  15.920  21.402   7.664
 2082POPC   C1B28711  15.726  21.413   8.564
 2082POPC   C2B28712  15.733  21.463   8.264
 2082POPC   C3B28713  15.711  21.388   7.964
 2082POPC   C4B28714  15.730  21.409   7.664
 2083POPC   NC328715  34.575  32.297   9.464
 2083POPC   PO428716  34.608  32.206   9.164
 2083POPC   GL128717  34.571  32.232   8.864
 2083POPC   GL228718  34.709  32.209   8.864
 2083POPC   C1A28719  34.561  32.258   8.564
 2083POPC   D2A28720  34.567  32.208   8.264
 2083POPC   C3A28721  34.545  32.289   7.964
 2083POPC   C4A28722  34.589  32.230   7.664
 2083POPC   C1B28723  34.722  32.098   8.564
 2083POPC   C2B28724  34.757  32.123   8.264
 2083POPC   C3B28725  34.749  32.045   7.964
 2083POPC   C4B28726  34.725  32.030   7.664
 2084POPC   NC328727  20.644  25.223   9.464
 2084POPC   PO428728  20.615  25.291   9.164
 2084POPC   GL128729  20.591  25.227   8.864
 2084POPC   GL228730  20.721  25.350   8.864
 2084POPC   C1A28731  20.645  25.278   8.564
 2084POPC   D2A28732  20.641  25.224   8.264
 2084POPC   C3A28733  20.570  25.217   7.964
 2084POPC   C4A28734  20.634  25.287   7.664
 2084POPC   C1B28735  20.836  25.400   8.564
 2084POPC   C2B28736  20.841  25.391   8.264
 2084POPC   C3B28737  20.789  25.409   7.964
 2084POPC   C4B28738  20.859  25.391   7.664
 2085POPC   NC328739  29.967  33.048   9.464
 2085POPC   PO428740  29.946  33.069   9.164
 2085POPC   GL128741  29.912  32.981   8.864
 2085POPC   GL228742  29.840  33.169   8.864
 2085POPC   C1A28743  29.931  33.054   8.564
 2085POPC   D2A28744  29.969  33.053   8.264
 2085POPC   C3A28745  29.949  33.007   7.964
 2085POPC   C4A28746  29.906  33.053   7.664
 2085POPC   C1B28747  29.795  33.190   8.564
 2085POPC   C2B28748  29.815  33.236   8.264
 2085POPC   C3B28749  29.828  33.237   7.964
 2085POPC   C4B28750  29.763  33.236   7.664
 2086POPC   NC328751  21.384  36.855   9.464
 2086POPC   PO428752  21.365  36.881   9.164
 2086POPC   GL128753  21.337  36.869   8.864
 2086POPC   GL228754  21.482  36.799   8.864
 2086POPC   C1A28755  21.386  36.888   8.564
 2086POPC   D2A28756  21.358  36.926   8.264
 2086POPC   C3A28757  21.432  36.932   7.964
 2086POPC   C4A28758  21.424  36.900   7.664
 2086POPC   C1B28759  21.604  36.682   8.564
 2086POPC   C2B28760  21.578  36.719   8.264
 2086POPC   C3B28761  21.526  36.746   7.964
 2086POPC   C4B28762  21.549  36.739   7.664
 2087POPC   NC328763  35.330  33.037   9.464
 2087POPC   PO428764  35.384  33.065   9.164
 2087POPC   GL128765  35.319  32.990   8.864
 2087POPC   GL228766  35.251  33.072   8.864
 2087POPC   C1A28767  35.324  33.005   8.564
 2087POPC   D2A28768  35.329  33.043   8.264
 2087POPC   C3A28769  35.335  33.012   7.964
 2087POPC   C4A28770  35.356  33.070   7.664
 2087POPC   C1B28771  35.144  33.180   8.564
 2087POPC   C2B28772  35.181  33.206   8.264
 2087POPC   C3B28773  35.198  33.240   7.964
 2087POPC   C4B28774  35.175  33.168   7.664
 2088POPC   NC328775   1.970  19.817   9.464
 2088POPC   PO428776   1.974  19.814   9.164
 2088POPC   GL128777   2.021  19.786   8.864
 2088POPC   GL228778   1.947  19.907   8.864
 2088POPC   C1A28779   1.977  19.814   8.564
 2088POPC   D2A28780   1.960  19.857   8.264
 2088POPC   C3A28781   2.003  19.831   7.964
 2088POPC   C4A28782   1.943  19.842   7.664
 2088POPC   C1B28783   1.833  20.049   8.564
 2088POPC   C2B28784   1.798  20.007   8.264
 2088POPC   C3B28785   1.826  19.993   7.964
 2088POPC   C4B28786   1.873  20.059   7.664
 2089POPC   NC328787  25.270  41.543   9.464
 2089POPC   PO428788  25.270  41.523   9.164
 2089POPC   GL128789  25.240  41.591   8.864
 2089POPC   GL228790  25.257  41.429   8.864
 2089POPC   C1A28791  25.245  41.591   8.564
 2089POPC   D2A28792  25.260  41.607   8.264
 2089POPC   C3A28793  25.228  41.528   7.964
 2089POPC   C4A28794  25.282  41.583   7.664
 2089POPC   C1B28795  25.176  41.361   8.564
 2089POPC   C2B28796  25.227  41.313   8.264
 2089POPC   C3B28797  25.175  41.336   7.964
 2089POPC   C4B28798  25.144  41.362   7.664
 2090POPC   NC328799  22.988   0.425   9.464
 2090POPC   PO428800  22.941   0.464   9.164
 2090POPC   GL128801  22.913   0.439   8.864
 2090POPC   GL228802  22.890   0.530   8.864
 2090POPC   C1A28803  22.961   0.457   8.564
 2090POPC   D2A28804  22.892   0.402   8.264
 2090POPC   C3A28805  22.971   0.407   7.964
 2090POPC   C4A28806  22.913   0.402   7.664
 2090POPC   C1B28807  22.840   0.701   8.564
 2090POPC   C2B28808  22.889   0.644   8.264
 2090POPC   C3B28809  22.921   0.722   7.964
 2090POPC   C4B28810  22.887   0.694   7.664
 2091POPC   NC328811  39.993  20.658   9.464
 2091POPC   PO428812  40.051  20.617   9.164
 2091POPC   GL128813  40.023  20.619   8.864
 2091POPC   GL228814  39.888  20.507   8.864
 2091POPC   C1A28815  39.988  20.638   8.564
 2091POPC   D2A28816  40.012  20.645   8.264
 2091POPC   C3A28817  40.052  20.567   7.964
 2091POPC   C4A28818  39.986  20.605   7.664
 2091POPC   C1B28819  39.866  20.368   8.564
 2091POPC   C2B28820  39.846  20.386   8.264
 2091POPC   C3B28821  39.819  20.413   7.964
 2091POPC   C4B28822  39.898  20.452   7.664
 2092POPC   NC328823   6.598  22.986   9.464
 2092POPC   PO428824   6.667  22.934   9.164
 2092POPC   GL128825   6.690  22.943   8.864
 2092POPC   GL228826   6.760  22.924   8.864
 2092POPC   C1A28827   6.622  22.899   8.564
 2092POPC   D2A28828   6.657  22.922   8.264
 2092POPC   C3A28829   6.636  22.932   7.964
 2092POPC   C4A28830   6.643  22.920   7.664
 2092POPC   C1B28831   6.924  22.959   8.564
 2092POPC   C2B28832   6.934  23.028   8.264
 2092POPC   C3B28833   6.923  22.993   7.964
 2092POPC   C4B28834   6.890  23.054   7.664
 2093POPC   NC328835  21.421  22.988   9.464
 2093POPC   PO428836  21.344  22.978   9.164
 2093POPC   GL128837  21.371  22.891   8.864
 2093POPC   GL228838  21.248  22.896   8.864
 2093POPC   C1A28839  21.380  22.918   8.564
 2093POPC   D2A28840  21.347  22.944   8.264
 2093POPC   C3A28841  21.370  22.933   7.964
 2093POPC   C4A28842  21.426  22.940   7.664
 2093POPC   C1B28843  21.195  22.798   8.564
 2093POPC   C2B28844  21.167  22.785   8.264
 2093POPC   C3B28845  21.220  22.777   7.964
 2093POPC   C4B28846  21.223  22.747   7.664
 2094POPC   NC328847   3.518   4.282   9.464
 2094POPC   PO428848   3.562   4.287   9.164
 2094POPC   GL128849   3.559   4.286   8.864
 2094POPC   GL228850   3.577   4.435   8.864
 2094POPC   C1A28851   3.564   4.310   8.564
 2094POPC   D2A28852   3.497   4.328   8.264
 2094POPC   C3A28853   3.589   4.293   7.964
 2094POPC   C4A28854   3.536   4.280   7.664
 2094POPC   C1B28855   3.699   4.506   8.564
 2094POPC   C2B28856   3.667   4.562   8.264
 2094POPC   C3B28857   3.667   4.522   7.964
 2094POPC   C4B28858   3.729   4.504   7.664
 2095POPC   NC328859   1.175  29.153   9.464
 2095POPC   PO428860   1.213  29.178   9.164
 2095POPC   GL128861   1.166  29.142   8.864
 2095POPC   GL228862   1.316  29.153   8.864
 2095POPC   C1A28863   1.259  29.135   8.564
 2095POPC   D2A28864   1.254  29.149   8.264
 2095POPC   C3A28865   1.219  29.156   7.964
 2095POPC   C4A28866   1.253  29.142   7.664
 2095POPC   C1B28867   1.480  29.227   8.564
 2095POPC   C2B28868   1.409  29.253   8.264
 2095POPC   C3B28869   1.430  29.235   7.964
 2095POPC   C4B28870   1.390  29.288   7.664
 2096POPC   NC328871  41.581  35.373   9.464
 2096POPC   PO428872  41.576  35.391   9.164
 2096POPC   GL128873  41.581  35.372   8.864
 2096POPC   GL228874  41.579  35.211   8.864
 2096POPC   C1A28875  41.536  35.351   8.564
 2096POPC   D2A28876  41.588  35.388   8.264
 2096POPC   C3A28877  41.538  35.333   7.964
 2096POPC   C4A28878  41.566  35.392   7.664
 2096POPC   C1B28879  41.669  35.147   8.564
 2096POPC   C2B28880  41.679  35.139   8.264
 2096POPC   C3B28881  41.738  35.157   7.964
 2096POPC   C4B28882  41.663  35.158   7.664
 2097POPC   NC328883  43.920  39.244   9.464
 2097POPC   PO428884  43.868  39.241   9.164
 2097POPC   GL128885  43.870  39.268   8.864
 2097POPC   GL228886  43.858  39.386   8.864
 2097POPC   C1A28887  43.851  39.191   8.564
 2097POPC   D2A28888  43.871  39.248   8.264
 2097POPC   C3A28889  43.860  39.210   7.964
 2097POPC   C4A28890  43.891  39.226   7.664
 2097POPC   C1B28891  43.871  39.462   8.564
 2097POPC   C2B28892  43.852  39.512   8.264
 2097POPC   C3B28893  43.923  39.479   7.964
 2097POPC   C4B28894  43.844  39.450   7.664
 2098POPC   NC328895   2.010  43.160   9.464
 2098POPC   PO428896   1.949  43.094   9.164
 2098POPC   GL128897   2.030  43.132   8.864
 2098POPC   GL228898   2.096  43.086   8.864
 2098POPC   C1A28899   2.007  43.075   8.564
 2098POPC   D2A28900   2.039  43.150   8.264
 2098POPC   C3A28901   1.968  43.106   7.964
 2098POPC   C4A28902   2.035  43.109   7.664
 2098POPC   C1B28903   2.201  43.052   8.564
 2098POPC   C2B28904   2.232  43.019   8.264
 2098POPC   C3B28905   2.224  43.021   7.964
 2098POPC   C4B28906   2.235  43.057   7.664
 2099POPC   NC328907  21.411   2.803   9.464
 2099POPC   PO428908  21.385   2.746   9.164
 2099POPC   GL128909  21.368   2.774   8.864
 2099POPC   GL228910  21.515   2.819   8.864
 2099POPC   C1A28911  21.384   2.732   8.564
 2099POPC   D2A28912  21.427   2.786   8.264
 2099POPC   C3A28913  21.353   2.738   7.964
 2099POPC   C4A28914  21.344   2.774   7.664
 2099POPC   C1B28915  21.646   2.766   8.564
 2099POPC   C2B28916  21.603   2.748   8.264
 2099POPC   C3B28917  21.665   2.779   7.964
 2099POPC   C4B28918  21.665   2.749   7.664
 2100POPC   NC328919  24.496  11.278   9.464
 2100POPC   PO428920  24.450  11.256   9.164
 2100POPC   GL128921  24.507  11.255   8.864
 2100POPC   GL228922  24.480  11.385   8.864
 2100POPC   C1A28923  24.489  11.310   8.564
 2100POPC   D2A28924  24.473  11.345   8.264
 2100POPC   C3A28925  24.530  11.350   7.964
 2100POPC   C4A28926  24.468  11.340   7.664
 2100POPC   C1B28927  24.439  11.587   8.564
 2100POPC   C2B28928  24.439  11.507   8.264
 2100POPC   C3B28929  24.460  11.490   7.964
 2100POPC   C4B28930  24.387  11.570   7.664
 2101POPC   NC328931  32.987  25.221   9.464
 2101POPC   PO428932  33.000  25.284   9.164
 2101POPC   GL128933  33.037  25.249   8.864
 2101POPC   GL228934  32.971  25.182   8.864
 2101POPC   C1A28935  33.066  25.272   8.564
 2101POPC   D2A28936  33.049  25.252   8.264
 2101POPC   C3A28937  33.049  25.225   7.964
 2101POPC   C4A28938  33.033  25.230   7.664
 2101POPC   C1B28939  32.926  25.079   8.564
 2101POPC   C2B28940  32.896  25.056   8.264
 2101POPC   C3B28941  32.965  25.011   7.964
 2101POPC   C4B28942  32.985  25.026   7.664
 2102POPC   NC328943   8.989  14.359   9.464
 2102POPC   PO428944   9.020  14.398   9.164
 2102POPC   GL128945   9.020  14.379   8.864
 2102POPC   GL228946   9.070  14.325   8.864
 2102POPC   C1A28947   8.954  14.362   8.564
 2102POPC   D2A28948   8.995  14.444   8.264
 2102POPC   C3A28949   8.962  14.434   7.964
 2102POPC   C4A28950   8.985  14.383   7.664
 2102POPC   C1B28951   9.130  14.250   8.564
 2102POPC   C2B28952   9.144  14.257   8.264
 2102POPC   C3B28953   9.148  14.231   7.964
 2102POPC   C4B28954   9.143  14.271   7.664
 2103POPC   NC328955   7.465  27.589   9.464
 2103POPC   PO428956   7.429  27.602   9.164
 2103POPC   GL128957   7.427  27.552   8.864
 2103POPC   GL228958   7.318  27.569   8.864
 2103POPC   C1A28959   7.402  27.626   8.564
 2103POPC   D2A28960   7.403  27.589   8.264
 2103POPC   C3A28961   7.406  27.621   7.964
 2103POPC   C4A28962   7.446  27.562   7.664
 2103POPC   C1B28963   7.182  27.611   8.564
 2103POPC   C2B28964   7.155  27.549   8.264
 2103POPC   C3B28965   7.207  27.577   7.964
 2103POPC   C4B28966   7.180  27.578   7.664
 2104POPC   NC328967  21.358  39.987   9.464
 2104POPC   PO428968  21.348  40.014   9.164
 2104POPC   GL128969  21.378  40.013   8.864
 2104POPC   GL228970  21.362  39.908   8.864
 2104POPC   C1A28971  21.349  39.997   8.564
 2104POPC   D2A28972  21.351  40.023   8.264
 2104POPC   C3A28973  21.414  40.017   7.964
 2104POPC   C4A28974  21.432  40.042   7.664
 2104POPC   C1B28975  21.272  39.829   8.564
 2104POPC   C2B28976  21.194  39.773   8.264
 2104POPC   C3B28977  21.223  39.813   7.964
 2104POPC   C4B28978  21.230  39.847   7.664
 2105POPC   NC328979  37.652  28.340   9.464
 2105POPC   PO428980  37.716  28.381   9.164
 2105POPC   GL128981  37.675  28.327   8.864
 2105POPC   GL228982  37.815  28.394   8.864
 2105POPC   C1A28983  37.685  28.394   8.564
 2105POPC   D2A28984  37.678  28.413   8.264
 2105POPC   C3A28985  37.636  28.405   7.964
 2105POPC   C4A28986  37.640  28.362   7.664
 2105POPC   C1B28987  37.907  28.390   8.564
 2105POPC   C2B28988  37.955  28.374   8.264
 2105POPC   C3B28989  37.923  28.405   7.964
 2105POPC   C4B28990  37.978  28.352   7.664
 2106POPC   NC328991  37.639  31.487   9.464
 2106POPC   PO428992  37.662  31.424   9.164
 2106POPC   GL128993  37.671  31.506   8.864
 2106POPC   GL228994  37.812  31.366   8.864
 2106POPC   C1A28995  37.656  31.507   8.564
 2106POPC   D2A28996  37.655  31.472   8.264
 2106POPC   C3A28997  37.678  31.481   7.964
 2106POPC   C4A28998  37.658  31.450   7.664
 2106POPC   C1B28999  37.859  31.307   8.564
 2106POPC   C2B29000  37.931  31.282   8.264
 2106POPC   C3B29001  37.931  31.302   7.964
 2106POPC   C4B29002  37.856  31.286   7.664
 2107POPC   NC329003  21.394  11.285   9.464
 2107POPC   PO429004  21.429  11.348   9.164
 2107POPC   GL129005  21.380  11.279   8.864
 2107POPC   GL229006  21.422  11.396   8.864
 2107POPC   C1A29007  21.387  11.279   8.564
 2107POPC   D2A29008  21.391  11.274   8.264
 2107POPC   C3A29009  21.425  11.296   7.964
 2107POPC   C4A29010  21.415  11.335   7.664
 2107POPC   C1B29011  21.525  11.518   8.564
 2107POPC   C2B29012  21.519  11.473   8.264
 2107POPC   C3B29013  21.539  11.505   7.964
 2107POPC   C4B29014  21.536  11.495   7.664
 2108POPC   NC329015  16.747  12.037   9.464
 2108POPC   PO429016  16.698  12.069   9.164
 2108POPC   GL129017  16.764  12.028   8.864
 2108POPC   GL229018  16.557  12.070   8.864
 2108POPC   C1A29019  16.707  12.044   8.564
 2108POPC   D2A29020  16.757  12.075   8.264
 2108POPC   C3A29021  16.736  12.040   7.964
 2108POPC   C4A29022  16.749  12.123   7.664
 2108POPC   C1B29023  16.520  12.085   8.564
 2108POPC   C2B29024  16.471  12.041   8.264
 2108POPC   C3B29025  16.482  12.080   7.964
 2108POPC   C4B29026  16.471  12.108   7.664
 2109POPC   NC329027   2.027   2.726   9.464
 2109POPC   PO429028   2.035   2.763   9.164
 2109POPC   GL129029   1.994   2.785   8.864
 2109POPC   GL229030   2.025   2.672   8.864
 2109POPC   C1A29031   1.968   2.788   8.564
 2109POPC   D2A29032   2.001   2.780   8.264
 2109POPC   C3A29033   1.985   2.716   7.964
 2109POPC   C4A29034   2.023   2.785   7.664
 2109POPC   C1B29035   2.066   2.483   8.564
 2109POPC   C2B29036   2.052   2.496   8.264
 2109POPC   C3B29037   2.030   2.547   7.964
 2109POPC   C4B29038   1.991   2.512   7.664
 2110POPC   NC329039   7.454   9.749   9.464
 2110POPC   PO429040   7.419   9.774   9.164
 2110POPC   GL129041   7.372   9.776   8.864
 2110POPC   GL229042   7.363   9.853   8.864
 2110POPC   C1A29043   7.436   9.743   8.564
 2110POPC   D2A29044   7.383   9.770   8.264
 2110POPC   C3A29045   7.403   9.739   7.964
 2110POPC   C4A29046   7.374   9.711   7.664
 2110POPC   C1B29047   7.184   9.949   8.564
 2110POPC   C2B29048   7.259   9.939   8.264
 2110POPC   C3B29049   7.253   9.948   7.964
 2110POPC   C4B29050   7.245   9.910   7.664
 2111POPC   NC329051  33.759   5.839   9.464
 2111POPC   PO429052  33.756   5.897   9.164
 2111POPC   GL129053  33.800   5.871   8.864
 2111POPC   GL229054  33.810   5.959   8.864
 2111POPC   C1A29055  33.812   5.827   8.564
 2111POPC   D2A29056  33.782   5.845   8.264
 2111POPC   C3A29057  33.797   5.916   7.964
 2111POPC   C4A29058  33.802   5.913   7.664
 2111POPC   C1B29059  33.890   6.087   8.564
 2111POPC   C2B29060  33.885   6.086   8.264
 2111POPC   C3B29061  33.855   6.122   7.964
 2111POPC   C4B29062  33.839   6.148   7.664
 2112POPC   NC329063  28.384  40.052   9.464
 2112POPC   PO429064  28.394  39.998   9.164
 2112POPC   GL129065  28.394  40.048   8.864
 2112POPC   GL229066  28.334  39.902   8.864
 2112POPC   C1A29067  28.389  39.989   8.564
 2112POPC   D2A29068  28.409  39.962   8.264
 2112POPC   C3A29069  28.393  39.985   7.964
 2112POPC   C4A29070  28.375  40.002   7.664
 2112POPC   C1B29071  28.411  39.738   8.564
 2112POPC   C2B29072  28.355  39.731   8.264
 2112POPC   C3B29073  28.357  39.760   7.964
 2112POPC   C4B29074  28.327  39.720   7.664
 2113POPC   NC329075  19.062   9.762   9.464
 2113POPC   PO429076  19.045   9.713   9.164
 2113POPC   GL129077  19.073   9.791   8.864
 2113POPC   GL229078  18.979   9.774   8.864
 2113POPC   C1A29079  19.013   9.789   8.564
 2113POPC   D2A29080  19.091   9.765   8.264
 2113POPC   C3A29081  19.072   9.737   7.964
 2113POPC   C4A29082  19.048   9.787   7.664
 2113POPC   C1B29083  18.812   9.697   8.564
 2113POPC   C2B29084  18.785   9.747   8.264
 2113POPC   C3B29085  18.768   9.710   7.964
 2113POPC   C4B29086  18.842   9.692   7.664
 2114POPC   NC329087  12.101  23.664   9.464
 2114POPC   PO429088  12.046  23.742   9.164
 2114POPC   GL129089  12.066  23.680   8.864
 2114POPC   GL229090  12.154  23.716   8.864
 2114POPC   C1A29091  12.092  23.704   8.564
 2114POPC   D2A29092  12.106  23.727   8.264
 2114POPC   C3A29093  12.108  23.680   7.964
 2114POPC   C4A29094  12.042  23.666   7.664
 2114POPC   C1B29095  12.317  23.790   8.564
 2114POPC   C2B29096  12.336  23.786   8.264
 2114POPC   C3B29097  12.319  23.766   7.964
 2114POPC   C4B29098  12.355  23.777   7.664
 2115POPC   NC329099  38.437  21.435   9.464
 2115POPC   PO429100  38.419  21.382   9.164
 2115POPC   GL129101  38.433  21.406   8.864
 2115POPC   GL229102  38.624  21.349   8.864
 2115POPC   C1A29103  38.502  21.380   8.564
 2115POPC   D2A29104  38.448  21.397   8.264
 2115POPC   C3A29105  38.408  21.415   7.964
 2115POPC   C4A29106  38.502  21.417   7.664
 2115POPC   C1B29107  38.658  21.327   8.564
 2115POPC   C2B29108  38.665  21.373   8.264
 2115POPC   C3B29109  38.718  21.388   7.964
 2115POPC   C4B29110  38.688  21.374   7.664
 2116POPC   NC329111  36.895  38.429   9.464
 2116POPC   PO429112  36.861  38.406   9.164
 2116POPC   GL129113  36.928  38.415   8.864
 2116POPC   GL229114  37.022  38.570   8.864
 2116POPC   C1A29115  36.946  38.410   8.564
 2116POPC   D2A29116  36.927  38.496   8.264
 2116POPC   C3A29117  36.945  38.417   7.964
 2116POPC   C4A29118  36.910  38.498   7.664
 2116POPC   C1B29119  37.082  38.570   8.564
 2116POPC   C2B29120  37.093  38.610   8.264
 2116POPC   C3B29121  37.140  38.566   7.964
 2116POPC   C4B29122  37.145  38.644   7.664
 2117POPC   NC329123  20.647  20.621   9.464
 2117POPC   PO429124  20.621  20.577   9.164
 2117POPC   GL129125  20.650  20.602   8.864
 2117POPC   GL229126  20.581  20.720   8.864
 2117POPC   C1A29127  20.595  20.638   8.564
 2117POPC   D2A29128  20.585  20.637   8.264
 2117POPC   C3A29129  20.599  20.632   7.964
 2117POPC   C4A29130  20.627  20.649   7.664
 2117POPC   C1B29131  20.573  20.811   8.564
 2117POPC   C2B29132  20.568  20.881   8.264
 2117POPC   C3B29133  20.565  20.841   7.964
 2117POPC   C4B29134  20.551  20.835   7.664
 2118POPC   NC329135  41.569   2.716   9.464
 2118POPC   PO429136  41.596   2.789   9.164
 2118POPC   GL129137  41.596   2.776   8.864
 2118POPC   GL229138  41.487   2.663   8.864
 2118POPC   C1A29139  41.561   2.793   8.564
 2118POPC   D2A29140  41.562   2.748   8.264
 2118POPC   C3A29141  41.582   2.742   7.964
 2118POPC   C4A29142  41.547   2.792   7.664
 2118POPC   C1B29143  41.369   2.538   8.564
 2118POPC   C2B29144  41.380   2.556   8.264
 2118POPC   C3B29145  41.450   2.542   7.964
 2118POPC   C4B29146  41.368   2.564   7.664
 2119POPC   NC329147  35.355   5.135   9.464
 2119POPC   PO429148  35.380   5.135   9.164
 2119POPC   GL129149  35.374   5.047   8.864
 2119POPC   GL229150  35.368   4.964   8.864
 2119POPC   C1A29151  35.399   5.076   8.564
 2119POPC   D2A29152  35.385   5.142   8.264
 2119POPC   C3A29153  35.379   5.071   7.964
 2119POPC   C4A29154  35.388   5.072   7.664
 2119POPC   C1B29155  35.276   4.813   8.564
 2119POPC   C2B29156  35.330   4.820   8.264
 2119POPC   C3B29157  35.278   4.869   7.964
 2119POPC   C4B29158  35.313   4.863   7.664
 2120POPC   NC329159   5.098  23.720   9.464
 2120POPC   PO429160   5.128  23.752   9.164
 2120POPC   GL129161   5.089  23.758   8.864
 2120POPC   GL229162   5.049  23.877   8.864
 2120POPC   C1A29163   5.140  23.693   8.564
 2120POPC   D2A29164   5.075  23.680   8.264
 2120POPC   C3A29165   5.045  23.686   7.964
 2120POPC   C4A29166   5.055  23.740   7.664
 2120POPC   C1B29167   5.091  23.938   8.564
 2120POPC   C2B29168   5.057  23.967   8.264
 2120POPC   C3B29169   5.062  23.949   7.964
 2120POPC   C4B29170   5.098  23.965   7.664
 2121POPC   NC329171   4.284  29.879   9.464
 2121POPC   PO429172   4.328  29.920   9.164
 2121POPC   GL129173   4.302  29.946   8.864
 2121POPC   GL229174   4.269  29.808   8.864
 2121POPC   C1A29175   4.326  29.908   8.564
 2121POPC   D2A29176   4.329  29.898   8.264
 2121POPC   C3A29177   4.348  29.928   7.964
 2121POPC   C4A29178   4.358  29.900   7.664
 2121POPC   C1B29179   4.284  29.715   8.564
 2121POPC   C2B29180   4.237  29.718   8.264
 2121POPC   C3B29181   4.209  29.651   7.964
 2121POPC   C4B29182   4.241  29.727   7.664
 2122POPC   NC329183  14.437  40.830   9.464
 2122POPC   PO429184  14.387  40.750   9.164
 2122POPC   GL129185  14.400  40.751   8.864
 2122POPC   GL229186  14.449  40.874   8.864
 2122POPC   C1A29187  14.356  40.812   8.564
 2122POPC   D2A29188  14.419  40.736   8.264
 2122POPC   C3A29189  14.357  40.768   7.964
 2122POPC   C4A29190  14.415  40.815   7.664
 2122POPC   C1B29191  14.415  41.008   8.564
 2122POPC   C2B29192  14.455  41.075   8.264
 2122POPC   C3B29193  14.447  41.042   7.964
 2122POPC   C4B29194  14.501  41.035   7.664
 2123POPC   NC329195   6.681  21.424   9.464
 2123POPC   PO429196   6.600  21.397   9.164
 2123POPC   GL129197   6.618  21.342   8.864
 2123POPC   GL229198   6.744  21.297   8.864
 2123POPC   C1A29199   6.596  21.410   8.564
 2123POPC   D2A29200   6.613  21.347   8.264
 2123POPC   C3A29201   6.610  21.355   7.964
 2123POPC   C4A29202   6.687  21.433   7.664
 2123POPC   C1B29203   6.829  21.252   8.564
 2123POPC   C2B29204   6.781  21.259   8.264
 2123POPC   C3B29205   6.831  21.250   7.964
 2123POPC   C4B29206   6.815  21.261   7.664
 2124POPC   NC329207  19.060  30.716   9.464
 2124POPC   PO429208  19.095  30.649   9.164
 2124POPC   GL129209  19.108  30.709   8.864
 2124POPC   GL229210  18.958  30.555   8.864
 2124POPC   C1A29211  19.087  30.702   8.564
 2124POPC   D2A29212  19.090  30.693   8.264
 2124POPC   C3A29213  19.018  30.649   7.964
 2124POPC   C4A29214  19.089  30.694   7.664
 2124POPC   C1B29215  18.880  30.443   8.564
 2124POPC   C2B29216  18.914  30.455   8.264
 2124POPC   C3B29217  18.967  30.493   7.964
 2124POPC   C4B29218  18.904  30.484   7.664
 2125POPC   NC329219  42.374   8.239   9.464
 2125POPC   PO429220  42.339   8.193   9.164
 2125POPC   GL129221  42.360   8.241   8.864
 2125POPC   GL229222  42.478   8.278   8.864
 2125POPC   C1A29223  42.303   8.155   8.564
 2125POPC   D2A29224  42.361   8.235   8.264
 2125POPC   C3A29225  42.311   8.240   7.964
 2125POPC   C4A29226  42.366   8.240   7.664
 2125POPC   C1B29227  42.602   8.265   8.564
 2125POPC   C2B29228  42.513   8.344   8.264
 2125POPC   C3B29229  42.598   8.359   7.964
 2125POPC   C4B29230  42.510   8.311   7.664
 2126POPC   NC329231  10.541  42.373   9.464
 2126POPC   PO429232  10.486  42.329   9.164
 2126POPC   GL129233  10.571  42.310   8.864
 2126POPC   GL229234  10.605  42.463   8.864
 2126POPC   C1A29235  10.536  42.310   8.564
 2126POPC   D2A29236  10.534  42.335   8.264
 2126POPC   C3A29237  10.549  42.348   7.964
 2126POPC   C4A29238  10.555  42.339   7.664
 2126POPC   C1B29239  10.667  42.544   8.564
 2126POPC   C2B29240  10.696  42.497   8.264
 2126POPC   C3B29241  10.726  42.522   7.964
 2126POPC   C4B29242  10.679  42.470   7.664
 2127POPC   NC329243  38.436  24.455   9.464
 2127POPC   PO429244  38.465  24.507   9.164
 2127POPC   GL129245  38.408  24.494   8.864
 2127POPC   GL229246  38.350  24.397   8.864
 2127POPC   C1A29247  38.475  24.461   8.564
 2127POPC   D2A29248  38.464  24.539   8.264
 2127POPC   C3A29249  38.434  24.520   7.964
 2127POPC   C4A29250  38.411  24.495   7.664
 2127POPC   C1B29251  38.287  24.307   8.564
 2127POPC   C2B29252  38.317  24.275   8.264
 2127POPC   C3B29253  38.263  24.294   7.964
 2127POPC   C4B29254  38.257  24.304   7.664
 2128POPC   NC329255  34.605   8.175   9.464
 2128POPC   PO429256  34.619   8.230   9.164
 2128POPC   GL129257  34.606   8.212   8.864
 2128POPC   GL229258  34.537   8.341   8.864
 2128POPC   C1A29259  34.529   8.217   8.564
 2128POPC   D2A29260  34.526   8.154   8.264
 2128POPC   C3A29261  34.595   8.216   7.964
 2128POPC   C4A29262  34.568   8.227   7.664
 2128POPC   C1B29263  34.550   8.477   8.564
 2128POPC   C2B29264  34.498   8.439   8.264
 2128POPC   C3B29265  34.580   8.451   7.964
 2128POPC   C4B29266  34.580   8.465   7.664
 2129POPC   NC329267  43.125  34.604   9.464
 2129POPC   PO429268  43.126  34.571   9.164
 2129POPC   GL129269  43.130  34.609   8.864
 2129POPC   GL229270  43.029  34.649   8.864
 2129POPC   C1A29271  43.108  34.551   8.564
 2129POPC   D2A29272  43.149  34.579   8.264
 2129POPC   C3A29273  43.131  34.617   7.964
 2129POPC   C4A29274  43.083  34.569   7.664
 2129POPC   C1B29275  42.960  34.759   8.564
 2129POPC   C2B29276  42.933  34.775   8.264
 2129POPC   C3B29277  42.932  34.757   7.964
 2129POPC   C4B29278  42.872  34.738   7.664
 2130POPC   NC329279  44.692  22.144   9.464
 2130POPC   PO429280  44.683  22.166   9.164
 2130POPC   GL129281  44.639  22.211   8.864
 2130POPC   GL229282  44.752  22.095   8.864
 2130POPC   C1A29283  44.614  22.138   8.564
 2130POPC   D2A29284  44.624  22.176   8.264
 2130POPC   C3A29285  44.665  22.194   7.964
 2130POPC   C4A29286  44.614  22.140   7.664
 2130POPC   C1B29287  44.775  21.907   8.564
 2130POPC   C2B29288  44.772  21.934   8.264
 2130POPC   C3B29289  44.782  21.911   7.964
 2130POPC   C4B29290  44.819  21.926   7.664
 2131POPC   NC329291  39.975  39.210   9.464
 2131POPC   PO429292  39.981  39.225   9.164
 2131POPC   GL129293  39.966  39.212   8.864
 2131POPC   GL229294  39.960  39.317   8.864
 2131POPC   C1A29295  40.012  39.235   8.564
 2131POPC   D2A29296  40.033  39.279   8.264
 2131POPC   C3A29297  40.008  39.240   7.964
 2131POPC   C4A29298  40.048  39.186   7.664
 2131POPC   C1B29299  39.856  39.388   8.564
 2131POPC   C2B29300  39.829  39.446   8.264
 2131POPC   C3B29301  39.838  39.374   7.964
 2131POPC   C4B29302  39.779  39.406   7.664
 2132POPC   NC329303  40.040  32.207   9.464
 2132POPC   PO429304  40.017  32.229   9.164
 2132POPC   GL129305  39.980  32.223   8.864
 2132POPC   GL229306  39.992  32.094   8.864
 2132POPC   C1A29307  39.967  32.205   8.564
 2132POPC   D2A29308  40.044  32.290   8.264
 2132POPC   C3A29309  39.975  32.247   7.964
 2132POPC   C4A29310  40.028  32.273   7.664
 2132POPC   C1B29311  39.951  31.968   8.564
 2132POPC   C2B29312  39.904  31.971   8.264
 2132POPC   C3B29313  39.926  31.988   7.964
 2132POPC   C4B29314  39.915  32.007   7.664
 2133POPC   NC329315  37.699  24.450   9.464
 2133POPC   PO429316  37.656  24.442   9.164
 2133POPC   GL129317  37.707  24.509   8.864
 2133POPC   GL229318  37.712  24.628   8.864
 2133POPC   C1A29319  37.630  24.525   8.564
 2133POPC   D2A29320  37.717  24.524   8.264
 2133POPC   C3A29321  37.726  24.493   7.964
 2133POPC   C4A29322  37.635  24.520   7.664
 2133POPC   C1B29323  37.833  24.756   8.564
 2133POPC   C2B29324  37.818  24.704   8.264
 2133POPC   C3B29325  37.843  24.681   7.964
 2133POPC   C4B29326  37.842  24.695   7.664
 2134POPC   NC329327  22.127  28.339   9.464
 2134POPC   PO429328  22.141  28.391   9.164
 2134POPC   GL129329  22.173  28.320   8.864
 2134POPC   GL229330  22.110  28.451   8.864
 2134POPC   C1A29331  22.142  28.322   8.564
 2134POPC   D2A29332  22.158  28.355   8.264
 2134POPC   C3A29333  22.114  28.411   7.964
 2134POPC   C4A29334  22.184  28.397   7.664
 2134POPC   C1B29335  22.091  28.612   8.564
 2134POPC   C2B29336  22.139  28.605   8.264
 2134POPC   C3B29337  22.085  28.568   7.964
 2134POPC   C4B29338  22.085  28.617   7.664
 2135POPC   NC329339  29.177  40.005   9.464
 2135POPC   PO429340  29.174  40.057   9.164
 2135POPC   GL129341  29.129  40.017   8.864
 2135POPC   GL229342  28.995  39.911   8.864
 2135POPC   C1A29343  29.111  40.043   8.564
 2135POPC   D2A29344  29.165  39.984   8.264
 2135POPC   C3A29345  29.190  40.049   7.964
 2135POPC   C4A29346  29.124  40.016   7.664
 2135POPC   C1B29347  28.947  39.840   8.564
 2135POPC   C2B29348  28.981  39.887   8.264
 2135POPC   C3B29349  28.975  39.903   7.964
 2135POPC   C4B29350  28.927  39.880   7.664
 2136POPC   NC329351  22.147  20.576   9.464
 2136POPC   PO429352  22.161  20.607   9.164
 2136POPC   GL129353  22.125  20.627   8.864
 2136POPC   GL229354  22.162  20.744   8.864
 2136POPC   C1A29355  22.193  20.589   8.564
 2136POPC   D2A29356  22.124  20.600   8.264
 2136POPC   C3A29357  22.177  20.603   7.964
 2136POPC   C4A29358  22.193  20.583   7.664
 2136POPC   C1B29359  22.151  20.826   8.564
 2136POPC   C2B29360  22.171  20.860   8.264
 2136POPC   C3B29361  22.137  20.820   7.964
 2136POPC   C4B29362  22.119  20.841   7.664
 2137POPC   NC329363   5.865  35.304   9.464
 2137POPC   PO429364   5.901  35.390   9.164
 2137POPC   GL129365   5.918  35.331   8.864
 2137POPC   GL229366   5.771  35.228   8.864
 2137POPC   C1A29367   5.917  35.363   8.564
 2137POPC   D2A29368   5.873  35.342   8.264
 2137POPC   C3A29369   5.919  35.315   7.964
 2137POPC   C4A29370   5.907  35.387   7.664
 2137POPC   C1B29371   5.637  35.192   8.564
 2137POPC   C2B29372   5.695  35.181   8.264
 2137POPC   C3B29373   5.648  35.142   7.964
 2137POPC   C4B29374   5.647  35.138   7.664
 2138POPC   NC329375  10.548  26.823   9.464
 2138POPC   PO429376  10.492  26.800   9.164
 2138POPC   GL129377  10.567  26.847   8.864
 2138POPC   GL229378  10.433  26.844   8.864
 2138POPC   C1A29379  10.486  26.774   8.564
 2138POPC   D2A29380  10.515  26.842   8.264
 2138POPC   C3A29381  10.539  26.864   7.964
 2138POPC   C4A29382  10.507  26.861   7.664
 2138POPC   C1B29383  10.299  26.868   8.564
 2138POPC   C2B29384  10.247  26.857   8.264
 2138POPC   C3B29385  10.242  26.808   7.964
 2138POPC   C4B29386  10.256  26.818   7.664
 2139POPC   NC329387  27.548  11.281   9.464
 2139POPC   PO429388  27.557  11.251   9.164
 2139POPC   GL129389  27.545  11.252   8.864
 2139POPC   GL229390  27.639  11.385   8.864
 2139POPC   C1A29391  27.617  11.266   8.564
 2139POPC   D2A29392  27.638  11.333   8.264
 2139POPC   C3A29393  27.595  11.255   7.964
 2139POPC   C4A29394  27.606  11.253   7.664
 2139POPC   C1B29395  27.694  11.562   8.564
 2139POPC   C2B29396  27.676  11.583   8.264
 2139POPC   C3B29397  27.650  11.539   7.964
 2139POPC   C4B29398  27.661  11.587   7.664
 2140POPC   NC329399  39.218   1.185   9.464
 2140POPC   PO429400  39.227   1.242   9.164
 2140POPC   GL129401  39.248   1.220   8.864
 2140POPC   GL229402  39.221   1.386   8.864
 2140POPC   C1A29403  39.199   1.208   8.564
 2140POPC   D2A29404  39.197   1.261   8.264
 2140POPC   C3A29405  39.194   1.250   7.964
 2140POPC   C4A29406  39.217   1.253   7.664
 2140POPC   C1B29407  39.198   1.468   8.564
 2140POPC   C2B29408  39.209   1.467   8.264
 2140POPC   C3B29409  39.166   1.418   7.964
 2140POPC   C4B29410  39.220   1.484   7.664
 2141POPC   NC329411  43.932  21.395   9.464
 2141POPC   PO429412  43.906  21.389   9.164
 2141POPC   GL129413  43.927  21.348   8.864
 2141POPC   GL229414  43.898  21.532   8.864
 2141POPC   C1A29415  43.840  21.406   8.564
 2141POPC   D2A29416  43.851  21.346   8.264
 2141POPC   C3A29417  43.931  21.418   7.964
 2141POPC   C4A29418  43.857  21.382   7.664
 2141POPC   C1B29419  43.800  21.632   8.564
 2141POPC   C2B29420  43.826  21.663   8.264
 2141POPC   C3B29421  43.867  21.610   7.964
 2141POPC   C4B29422  43.814  21.664   7.664
 2142POPC   NC329423  25.289  33.806   9.464
 2142POPC   PO429424  25.230  33.763   9.164
 2142POPC   GL129425  25.313  33.765   8.864
 2142POPC   GL229426  25.131  33.802   8.864
 2142POPC   C1A29427  25.251  33.821   8.564
 2142POPC   D2A29428  25.295  33.827   8.264
 2142POPC   C3A29429  25.280  33.760   7.964
 2142POPC   C4A29430  25.234  33.830   7.664
 2142POPC   C1B29431  24.977  33.750   8.564
 2142POPC   C2B29432  25.039  33.782   8.264
 2142POPC   C3B29433  25.056  33.753   7.964
 2142POPC   C4B29434  25.023  33.761   7.664
 2143POPC   NC329435  29.969  35.396   9.464
 2143POPC   PO429436  29.872  35.323   9.164
 2143POPC   GL129437  29.921  35.323   8.864
 2143POPC   GL229438  29.982  35.471   8.864
 2143POPC   C1A29439  29.953  35.313   8.564
 2143POPC   D2A29440  29.947  35.383   8.264
 2143POPC   C3A29441  29.946  35.336   7.964
 2143POPC   C4A29442  29.967  35.353   7.664
 2143POPC   C1B29443  30.040  35.532   8.564
 2143POPC   C2B29444  30.092  35.591   8.264
 2143POPC   C3B29445  30.018  35.584   7.964
 2143POPC   C4B29446  30.008  35.568   7.664
 2144POPC   NC329447  44.692  13.653   9.464
 2144POPC   PO429448  44.676  13.666   9.164
 2144POPC   GL129449  44.680  13.664   8.864
 2144POPC   GL229450  44.657  13.502   8.864
 2144POPC   C1A29451  44.645  13.605   8.564
 2144POPC   D2A29452  44.700  13.579   8.264
 2144POPC   C3A29453  44.694  13.585   7.964
 2144POPC   C4A29454  44.630  13.592   7.664
 2144POPC   C1B29455  44.596  13.391   8.564
 2144POPC   C2B29456  44.552  13.429   8.264
 2144POPC   C3B29457  44.604  13.439   7.964
 2144POPC   C4B29458  44.619  13.392   7.664
 2145POPC   NC329459  12.902  44.615   9.464
 2145POPC   PO429460  12.804  44.652   9.164
 2145POPC   GL129461  12.896  44.683   8.864
 2145POPC   GL229462  12.776  44.699   8.864
 2145POPC   C1A29463  12.834  44.704   8.564
 2145POPC   D2A29464  12.883  44.691   8.264
 2145POPC   C3A29465  12.901  44.674   7.964
 2145POPC   C4A29466  12.901  44.679   7.664
 2145POPC   C1B29467  12.559  44.647   8.564
 2145POPC   C2B29468  12.624  44.596   8.264
 2145POPC   C3B29469  12.621  44.676   7.964
 2145POPC   C4B29470  12.576  44.594   7.664
 2146POPC   NC329471  32.985  18.300   9.464
 2146POPC   PO429472  33.050  18.236   9.164
 2146POPC   GL129473  33.029  18.303   8.864
 2146POPC   GL229474  32.989  18.412   8.864
 2146POPC   C1A29475  33.065  18.234   8.564
 2146POPC   D2A29476  33.049  18.257   8.264
 2146POPC   C3A29477  32.981  18.315   7.964
 2146POPC   C4A29478  32.992  18.234   7.664
 2146POPC   C1B29479  33.044  18.557   8.564
 2146POPC   C2B29480  33.043  18.500   8.264
 2146POPC   C3B29481  33.072  18.575   7.964
 2146POPC   C4B29482  33.012  18.538   7.664
 2147POPC   NC329483   8.148  39.249   9.464
 2147POPC   PO429484   8.210  39.252   9.164
 2147POPC   GL129485   8.224  39.279   8.864
 2147POPC   GL229486   8.343  39.219   8.864
 2147POPC   C1A29487   8.198  39.209   8.564
 2147POPC   D2A29488   8.200  39.262   8.264
 2147POPC   C3A29489   8.171  39.264   7.964
 2147POPC   C4A29490   8.214  39.221   7.664
 2147POPC   C1B29491   8.406  39.175   8.564
 2147POPC   C2B29492   8.401  39.132   8.264
 2147POPC   C3B29493   8.470  39.162   7.964
 2147POPC   C4B29494   8.400  39.154   7.664
 2148POPC   NC329495  37.707  18.258   9.464
 2148POPC   PO429496  37.639  18.317   9.164
 2148POPC   GL129497  37.652  18.251   8.864
 2148POPC   GL229498  37.743  18.349   8.864
 2148POPC   C1A29499  37.720  18.322   8.564
 2148POPC   D2A29500  37.702  18.288   8.264
 2148POPC   C3A29501  37.727  18.252   7.964
 2148POPC   C4A29502  37.636  18.286   7.664
 2148POPC   C1B29503  37.897  18.456   8.564
 2148POPC   C2B29504  37.845  18.395   8.264
 2148POPC   C3B29505  37.877  18.427   7.964
 2148POPC   C4B29506  37.897  18.394   7.664
 2149POPC   NC329507  26.776  40.813   9.464
 2149POPC   PO429508  26.808  40.826   9.164
 2149POPC   GL129509  26.831  40.812   8.864
 2149POPC   GL229510  26.937  40.723   8.864
 2149POPC   C1A29511  26.811  40.785   8.564
 2149POPC   D2A29512  26.843  40.744   8.264
 2149POPC   C3A29513  26.809  40.773   7.964
 2149POPC   C4A29514  26.836  40.788   7.664
 2149POPC   C1B29515  27.069  40.732   8.564
 2149POPC   C2B29516  27.091  40.709   8.264
 2149POPC   C3B29517  27.062  40.721   7.964
 2149POPC   C4B29518  27.038  40.808   7.664
 2150POPC   NC329519  29.162  44.669   9.464
 2150POPC   PO429520  29.187  44.657   9.164
 2150POPC   GL129521  29.161  44.618   8.864
 2150POPC   GL229522  29.171  44.568   8.864
 2150POPC   C1A29523  29.155  44.652   8.564
 2150POPC   D2A29524  29.152  44.711   8.264
 2150POPC   C3A29525  29.194  44.666   7.964
 2150POPC   C4A29526  29.180  44.698   7.664
 2150POPC   C1B29527  29.164  44.463   8.564
 2150POPC   C2B29528  29.175  44.420   8.264
 2150POPC   C3B29529  29.199  44.418   7.964
 2150POPC   C4B29530  29.164  44.413   7.664
 2151POPC   NC329531  12.115  42.360   9.464
 2151POPC   PO429532  12.121  42.363   9.164
 2151POPC   GL129533  12.061  42.289   8.864
 2151POPC   GL229534  12.149  42.181   8.864
 2151POPC   C1A29535  12.109  42.326   8.564
 2151POPC   D2A29536  12.084  42.368   8.264
 2151POPC   C3A29537  12.058  42.294   7.964
 2151POPC   C4A29538  12.070  42.301   7.664
 2151POPC   C1B29539  12.174  42.106   8.564
 2151POPC   C2B29540  12.147  42.117   8.264
 2151POPC   C3B29541  12.186  42.093   7.964
 2151POPC   C4B29542  12.182  42.075   7.664
 2152POPC   NC329543  26.792   5.081   9.464
 2152POPC   PO429544  26.836   5.053   9.164
 2152POPC   GL129545  26.816   5.102   8.864
 2152POPC   GL229546  26.756   5.009   8.864
 2152POPC   C1A29547  26.769   5.124   8.564
 2152POPC   D2A29548  26.811   5.060   8.264
 2152POPC   C3A29549  26.865   5.087   7.964
 2152POPC   C4A29550  26.864   5.046   7.664
 2152POPC   C1B29551  26.761   4.800   8.564
 2152POPC   C2B29552  26.772   4.832   8.264
 2152POPC   C3B29553  26.764   4.868   7.964
 2152POPC   C4B29554  26.732   4.873   7.664
 2153POPC   NC329555  11.289   0.487   9.464
 2153POPC   PO429556  11.254   0.449   9.164
 2153POPC   GL129557  11.335   0.456   8.864
 2153POPC   GL229558  11.194   0.444   8.864
 2153POPC   C1A29559  11.328   0.442   8.564
 2153POPC   D2A29560  11.279   0.400   8.264
 2153POPC   C3A29561  11.261   0.432   7.964
 2153POPC   C4A29562  11.257   0.393   7.664
 2153POPC   C1B29563  11.014   0.446   8.564
 2153POPC   C2B29564  11.084   0.484   8.264
 2153POPC   C3B29565  11.095   0.456   7.964
 2153POPC   C4B29566  11.020   0.454   7.664
 2154POPC   NC329567  32.217   2.757   9.464
 2154POPC   PO429568  32.294   2.717   9.164
 2154POPC   GL129569  32.257   2.765   8.864
 2154POPC   GL229570  32.217   2.633   8.864
 2154POPC   C1A29571  32.235   2.760   8.564
 2154POPC   D2A29572  32.287   2.743   8.264
 2154POPC   C3A29573  32.297   2.789   7.964
 2154POPC   C4A29574  32.261   2.792   7.664
 2154POPC   C1B29575  32.217   2.557   8.564
 2154POPC   C2B29576  32.189   2.474   8.264
 2154POPC   C3B29577  32.220   2.525   7.964
 2154POPC   C4B29578  32.209   2.512   7.664
 2155POPC   NC329579  26.846   8.164   9.464
 2155POPC   PO429580  26.793   8.197   9.164
 2155POPC   GL129581  26.785   8.171   8.864
 2155POPC   GL229582  26.733   8.200   8.864
 2155POPC   C1A29583  26.809   8.207   8.564
 2155POPC   D2A29584  26.791   8.232   8.264
 2155POPC   C3A29585  26.808   8.227   7.964
 2155POPC   C4A29586  26.821   8.155   7.664
 2155POPC   C1B29587  26.529   8.212   8.564
 2155POPC   C2B29588  26.616   8.232   8.264
 2155POPC   C3B29589  26.585   8.213   7.964
 2155POPC   C4B29590  26.524   8.173   7.664
 2156POPC   NC329591  32.234   5.840   9.464
 2156POPC   PO429592  32.212   5.883   9.164
 2156POPC   GL129593  32.296   5.853   8.864
 2156POPC   GL229594  32.392   5.886   8.864
 2156POPC   C1A29595  32.226   5.826   8.564
 2156POPC   D2A29596  32.199   5.859   8.264
 2156POPC   C3A29597  32.209   5.843   7.964
 2156POPC   C4A29598  32.276   5.821   7.664
 2156POPC   C1B29599  32.517   5.834   8.564
 2156POPC   C2B29600  32.513   5.888   8.264
 2156POPC   C3B29601  32.478   5.852   7.964
 2156POPC   C4B29602  32.500   5.855   7.664
 2157POPC   NC329603  24.524  32.282   9.464
 2157POPC   PO429604  24.454  32.204   9.164
 2157POPC   GL129605  24.461  32.298   8.864
 2157POPC   GL229606  24.460  32.093   8.864
 2157POPC   C1A29607  24.482  32.229   8.564
 2157POPC   D2A29608  24.441  32.259   8.264
 2157POPC   C3A29609  24.524  32.231   7.964
 2157POPC   C4A29610  24.447  32.241   7.664
 2157POPC   C1B29611  24.452  32.061   8.564
 2157POPC   C2B29612  24.376  32.031   8.264
 2157POPC   C3B29613  24.451  32.025   7.964
 2157POPC   C4B29614  24.451  32.050   7.664
 2158POPC   NC329615   4.358  37.712   9.464
 2158POPC   PO429616   4.297  37.726   9.164
 2158POPC   GL129617   4.280  37.690   8.864
 2158POPC   GL229618   4.475  37.615   8.864
 2158POPC   C1A29619   4.295  37.651   8.564
 2158POPC   D2A29620   4.284  37.633   8.264
 2158POPC   C3A29621   4.275  37.683   7.964
 2158POPC   C4A29622   4.356  37.729   7.664
 2158POPC   C1B29623   4.525  37.542   8.564
 2158POPC   C2B29624   4.542  37.586   8.264
 2158POPC   C3B29625   4.514  37.580   7.964
 2158POPC   C4B29626   4.534  37.570   7.664
 2159POPC   NC329627  18.288   7.428   9.464
 2159POPC   PO429628  18.324   7.399   9.164
 2159POPC   GL129629  18.318   7.426   8.864
 2159POPC   GL229630  18.143   7.465   8.864
 2159POPC   C1A29631  18.330   7.462   8.564
 2159POPC   D2A29632  18.313   7.402   8.264
 2159POPC   C3A29633  18.329   7.449   7.964
 2159POPC   C4A29634  18.250   7.449   7.664
 2159POPC   C1B29635  18.133   7.547   8.564
 2159POPC   C2B29636  18.095   7.574   8.264
 2159POPC   C3B29637  18.073   7.622   7.964
 2159POPC   C4B29638  18.138   7.629   7.664
 2160POPC   NC329639  34.551  19.026   9.464
 2160POPC   PO429640  34.545  19.048   9.164
 2160POPC   GL129641  34.613  19.049   8.864
 2160POPC   GL229642  34.612  19.154   8.864
 2160POPC   C1A29643  34.540  19.100   8.564
 2160POPC   D2A29644  34.588  19.073   8.264
 2160POPC   C3A29645  34.612  19.070   7.964
 2160POPC   C4A29646  34.539  19.078   7.664
 2160POPC   C1B29647  34.694  19.296   8.564
 2160POPC   C2B29648  34.659  19.241   8.264
 2160POPC   C3B29649  34.702  19.242   7.964
 2160POPC   C4B29650  34.680  19.238   7.664
 2161POPC   NC329651   5.098   5.826   9.464
 2161POPC   PO429652   5.046   5.901   9.164
 2161POPC   GL129653   5.065   5.839   8.864
 2161POPC   GL229654   5.019   5.997   8.864
 2161POPC   C1A29655   5.127   5.864   8.564
 2161POPC   D2A29656   5.115   5.895   8.264
 2161POPC   C3A29657   5.081   5.851   7.964
 2161POPC   C4A29658   5.104   5.880   7.664
 2161POPC   C1B29659   4.920   6.097   8.564
 2161POPC   C2B29660   4.894   6.038   8.264
 2161POPC   C3B29661   4.884   6.084   7.964
 2161POPC   C4B29662   4.893   6.045   7.664
 2162POPC   NC329663  26.795  21.394   9.464
 2162POPC   PO429664  26.860  21.368   9.164
 2162POPC   GL129665  26.863  21.414   8.864
 2162POPC   GL229666  26.713  21.327   8.864
 2162POPC   C1A29667  26.805  21.396   8.564
 2162POPC   D2A29668  26.813  21.431   8.264
 2162POPC   C3A29669  26.861  21.422   7.964
 2162POPC   C4A29670  26.846  21.417   7.664
 2162POPC   C1B29671  26.539  21.328   8.564
 2162POPC   C2B29672  26.583  21.321   8.264
 2162POPC   C3B29673  26.566  21.347   7.964
 2162POPC   C4B29674  26.598  21.386   7.664
 2163POPC   NC329675  43.099   7.380   9.464
 2163POPC   PO429676  43.094   7.456   9.164
 2163POPC   GL129677  43.092   7.469   8.864
 2163POPC   GL229678  43.124   7.295   8.864
 2163POPC   C1A29679  43.131   7.383   8.564
 2163POPC   D2A29680  43.131   7.411   8.264
 2163POPC   C3A29681  43.094   7.438   7.964
 2163POPC   C4A29682  43.085   7.460   7.664
 2163POPC   C1B29683  43.157   7.185   8.564
 2163POPC   C2B29684  43.205   7.219   8.264
 2163POPC   C3B29685  43.172   7.227   7.964
 2163POPC   C4B29686  43.139   7.188   7.664
 2164POPC   NC329687   2.729  17.517   9.464
 2164POPC   PO429688   2.778  17.460   9.164
 2164POPC   GL129689   2.784  17.523   8.864
 2164POPC   GL229690   2.805  17.598   8.864
 2164POPC   C1A29691   2.754  17.552   8.564
 2164POPC   D2A29692   2.773  17.468   8.264
 2164POPC   C3A29693   2.780  17.530   7.964
 2164POPC   C4A29694   2.815  17.495   7.664
 2164POPC   C1B29695   2.773  17.728   8.564
 2164POPC   C2B29696   2.738  17.714   8.264
 2164POPC   C3B29697   2.781  17.732   7.964
 2164POPC   C4B29698   2.794  17.780   7.664
 2165POPC   NC329699   4.360   2.729   9.464
 2165POPC   PO429700   4.322   2.757   9.164
 2165POPC   GL129701   4.299   2.797   8.864
 2165POPC   GL229702   4.447   2.815   8.864
 2165POPC   C1A29703   4.304   2.730   8.564
 2165POPC   D2A29704   4.355   2.766   8.264
 2165POPC   C3A29705   4.362   2.725   7.964
 2165POPC   C4A29706   4.338   2.782   7.664
 2165POPC   C1B29707   4.531   2.935   8.564
 2165POPC   C2B29708   4.496   2.958   8.264
 2165POPC   C3B29709   4.476   2.886   7.964
 2165POPC   C4B29710   4.519   2.882   7.664
 2166POPC   NC329711  28.319  14.410   9.464
 2166POPC   PO429712  28.324  14.380   9.164
 2166POPC   GL129713  28.328  14.359   8.864
 2166POPC   GL229714  28.271  14.343   8.864
 2166POPC   C1A29715  28.342  14.420   8.564
 2166POPC   D2A29716  28.396  14.402   8.264
 2166POPC   C3A29717  28.405  14.440   7.964
 2166POPC   C4A29718  28.386  14.382   7.664
 2166POPC   C1B29719  28.135  14.272   8.564
 2166POPC   C2B29720  28.140  14.232   8.264
 2166POPC   C3B29721  28.161  14.222   7.964
 2166POPC   C4B29722  28.227  14.217   7.664
 2167POPC   NC329723  13.607  39.220   9.464
 2167POPC   PO429724  13.665  39.239   9.164
 2167POPC   GL129725  13.588  39.245   8.864
 2167POPC   GL229726  13.495  39.353   8.864
 2167POPC   C1A29727  13.672  39.218   8.564
 2167POPC   D2A29728  13.605  39.272   8.264
 2167POPC   C3A29729  13.589  39.221   7.964
 2167POPC   C4A29730  13.650  39.234   7.664
 2167POPC   C1B29731  13.444  39.384   8.564
 2167POPC   C2B29732  13.418  39.405   8.264
 2167POPC   C3B29733  13.423  39.378   7.964
 2167POPC   C4B29734  13.410  39.371   7.664
 2168POPC   NC329735  14.445  38.454   9.464
 2168POPC   PO429736  14.432  38.438   9.164
 2168POPC   GL129737  14.448  38.468   8.864
 2168POPC   GL229738  14.468  38.429   8.864
 2168POPC   C1A29739  14.445  38.487   8.564
 2168POPC   D2A29740  14.431  38.462   8.264
 2168POPC   C3A29741  14.403  38.500   7.964
 2168POPC   C4A29742  14.362  38.425   7.664
 2168POPC   C1B29743  14.632  38.373   8.564
 2168POPC   C2B29744  14.605  38.283   8.264
 2168POPC   C3B29745  14.615  38.345   7.964
 2168POPC   C4B29746  14.653  38.281   7.664
 2169POPC   NC329747  26.848  12.109   9.464
 2169POPC   PO429748  26.780  12.102   9.164
 2169POPC   GL129749  26.769  12.042   8.864
 2169POPC   GL229750  26.862  11.970   8.864
 2169POPC   C1A29751  26.844  12.075   8.564
 2169POPC   D2A29752  26.799  12.084   8.264
 2169POPC   C3A29753  26.810  12.049   7.964
 2169POPC   C4A29754  26.825  12.092   7.664
 2169POPC   C1B29755  26.866  11.840   8.564
 2169POPC   C2B29756  26.878  11.835   8.264
 2169POPC   C3B29757  26.851  11.790   7.964
 2169POPC   C4B29758  26.874  11.843   7.664
 2170POPC   NC329759  25.222  15.215   9.464
 2170POPC   PO429760  25.304  15.221   9.164
 2170POPC   GL129761  25.231  15.222   8.864
 2170POPC   GL229762  25.116  15.155   8.864
 2170POPC   C1A29763  25.234  15.135   8.564
 2170POPC   D2A29764  25.253  15.160   8.264
 2170POPC   C3A29765  25.279  15.172   7.964
 2170POPC   C4A29766  25.289  15.174   7.664
 2170POPC   C1B29767  25.065  15.163   8.564
 2170POPC   C2B29768  24.993  15.157   8.264
 2170POPC   C3B29769  25.018  15.135   7.964
 2170POPC   C4B29770  25.061  15.102   7.664
 2171POPC   NC329771  14.422  28.409   9.464
 2171POPC   PO429772  14.394  28.328   9.164
 2171POPC   GL129773  14.355  28.351   8.864
 2171POPC   GL229774  14.343  28.315   8.864
 2171POPC   C1A29775  14.368  28.344   8.564
 2171POPC   D2A29776  14.451  28.359   8.264
 2171POPC   C3A29777  14.445  28.385   7.964
 2171POPC   C4A29778  14.436  28.372   7.664
 2171POPC   C1B29779  14.162  28.250   8.564
 2171POPC   C2B29780  14.227  28.217   8.264
 2171POPC   C3B29781  14.162  28.259   7.964
 2171POPC   C4B29782  14.218  28.213   7.664
 2172POPC   NC329783  15.992   1.258   9.464
 2172POPC   PO429784  15.981   1.206   9.164
 2172POPC   GL129785  15.969   1.165   8.864
 2172POPC   GL229786  16.125   1.208   8.864
 2172POPC   C1A29787  15.924   1.248   8.564
 2172POPC   D2A29788  15.950   1.209   8.264
 2172POPC   C3A29789  15.989   1.244   7.964
 2172POPC   C4A29790  15.949   1.260   7.664
 2172POPC   C1B29791  16.206   1.205   8.564
 2172POPC   C2B29792  16.183   1.260   8.264
 2172POPC   C3B29793  16.178   1.273   7.964
 2172POPC   C4B29794  16.238   1.236   7.664
 2173POPC   NC329795   5.098  33.763   9.464
 2173POPC   PO429796   5.100  33.822   9.164
 2173POPC   GL129797   5.134  33.844   8.864
 2173POPC   GL229798   5.132  33.884   8.864
 2173POPC   C1A29799   5.106  33.790   8.564
 2173POPC   D2A29800   5.116  33.771   8.264
 2173POPC   C3A29801   5.139  33.757   7.964
 2173POPC   C4A29802   5.135  33.784   7.664
 2173POPC   C1B29803   5.242  33.971   8.564
 2173POPC   C2B29804   5.297  33.979   8.264
 2173POPC   C3B29805   5.217  34.023   7.964
 2173POPC   C4B29806   5.253  34.039   7.664
 2174POPC   NC329807   5.088  44.687   9.464
 2174POPC   PO429808   5.045  44.648   9.164
 2174POPC   GL129809   5.140  44.634   8.864
 2174POPC   GL229810   5.179  44.745   8.864
 2174POPC   C1A29811   5.108  44.690   8.564
 2174POPC   D2A29812   5.059  44.628   8.264
 2174POPC   C3A29813   5.076  44.626   7.964
 2174POPC   C4A29814   5.115  44.677   7.664
 2174POPC   C1B29815   5.330  44.875   8.564
 2174POPC   C2B29816   5.274  44.837   8.264
 2174POPC   C3B29817   5.234  44.826   7.964
 2174POPC   C4B29818   5.313  44.840   7.664
 2175POPC   NC329819   6.640  41.537   9.464
 2175POPC   PO429820   6.682  41.567   9.164
 2175POPC   GL129821   6.663  41.579   8.864
 2175POPC   GL229822   6.674  41.650   8.864
 2175POPC   C1A29823   6.611  41.550   8.564
 2175POPC   D2A29824   6.652  41.596   8.264
 2175POPC   C3A29825   6.619  41.608   7.964
 2175POPC   C4A29826   6.650  41.515   7.664
 2175POPC   C1B29827   6.671  41.777   8.564
 2175POPC   C2B29828   6.670  41.813   8.264
 2175POPC   C3B29829   6.662  41.830   7.964
 2175POPC   C4B29830   6.676  41.799   7.664
 2176POPC   NC329831  39.195  28.343   9.464
 2176POPC   PO429832  39.189  28.358   9.164
 2176POPC   GL129833  39.280  28.372   8.864
 2176POPC   GL229834  39.151  28.372   8.864
 2176POPC   C1A29835  39.202  28.342   8.564
 2176POPC   D2A29836  39.259  28.374   8.264
 2176POPC   C3A29837  39.210  28.368   7.964
 2176POPC   C4A29838  39.203  28.360   7.664
 2176POPC   C1B29839  39.016  28.380   8.564
 2176POPC   C2B29840  38.956  28.439   8.264
 2176POPC   C3B29841  38.947  28.450   7.964
 2176POPC   C4B29842  38.987  28.416   7.664
 2177POPC   NC329843  23.738  10.563   9.464
 2177POPC   PO429844  23.705  10.527   9.164
 2177POPC   GL129845  23.669  10.476   8.864
 2177POPC   GL229846  23.805  10.402   8.864
 2177POPC   C1A29847  23.675  10.543   8.564
 2177POPC   D2A29848  23.711  10.519   8.264
 2177POPC   C3A29849  23.716  10.487   7.964
 2177POPC   C4A29850  23.678  10.485   7.664
 2177POPC   C1B29851  23.875  10.299   8.564
 2177POPC   C2B29852  23.923  10.326   8.264
 2177POPC   C3B29853  23.900  10.380   7.964
 2177POPC   C4B29854  23.880  10.374   7.664
 2178POPC   NC329855  13.669  29.911   9.464
 2178POPC   PO429856  13.654  29.948   9.164
 2178POPC   GL129857  13.622  29.920   8.864
 2178POPC   GL229858  13.709  29.880   8.864
 2178POPC   C1A29859  13.606  29.904   8.564
 2178POPC   D2A29860  13.669  29.912   8.264
 2178POPC   C3A29861  13.593  29.876   7.964
 2178POPC   C4A29862  13.629  29.960   7.664
 2178POPC   C1B29863  13.793  29.824   8.564
 2178POPC   C2B29864  13.834  29.782   8.264
 2178POPC   C3B29865  13.872  29.769   7.964
 2178POPC   C4B29866  13.834  29.761   7.664
 2179POPC   NC329867  37.656  10.505   9.464
 2179POPC   PO429868  37.652  10.493   9.164
 2179POPC   GL129869  37.686  10.545   8.864
 2179POPC   GL229870  37.625  10.473   8.864
 2179POPC   C1A29871  37.686  10.553   8.564
 2179POPC   D2A29872  37.654  10.533   8.264
 2179POPC   C3A29873  37.694  10.505   7.964
 2179POPC   C4A29874  37.705  10.507   7.664
 2179POPC   C1B29875  37.488  10.336   8.564
 2179POPC   C2B29876  37.462  10.402   8.264
 2179POPC   C3B29877  37.508  10.402   7.964
 2179POPC   C4B29878  37.488  10.414   7.664
 2180POPC   NC329879   7.374  31.448   9.464
 2180POPC   PO429880   7.392  31.482   9.164
 2180POPC   GL129881   7.436  31.504   8.864
 2180POPC   GL229882   7.479  31.388   8.864
 2180POPC   C1A29883   7.453  31.468   8.564
 2180POPC   D2A29884   7.402  31.476   8.264
 2180POPC   C3A29885   7.453  31.486   7.964
 2180POPC   C4A29886   7.417  31.505   7.664
 2180POPC   C1B29887   7.641  31.332   8.564
 2180POPC   C2B29888   7.587  31.273   8.264
 2180POPC   C3B29889   7.646  31.341   7.964
 2180POPC   C4B29890   7.640  31.323   7.664
 2181POPC   NC329891  30.720   2.033   9.464
 2181POPC   PO429892  30.739   2.023   9.164
 2181POPC   GL129893  30.705   2.007   8.864
 2181POPC   GL229894  30.580   1.985   8.864
 2181POPC   C1A29895  30.699   2.008   8.564
 2181POPC   D2A29896  30.654   1.962   8.264
 2181POPC   C3A29897  30.701   1.990   7.964
 2181POPC   C4A29898  30.738   1.948   7.664
 2181POPC   C1B29899  30.470   2.051   8.564
 2181POPC   C2B29900  30.410   2.074   8.264
 2181POPC   C3B29901  30.431   2.023   7.964
 2181POPC   C4B29902  30.455   2.029   7.664
 2182POPC   NC329903  12.044  32.254   9.464
 2182POPC   PO429904  12.077  32.260   9.164
 2182POPC   GL129905  12.109  32.255   8.864
 2182POPC   GL229906  12.101  32.344   8.864
 2182POPC   C1A29907  12.063  32.298   8.564
 2182POPC   D2A29908  12.108  32.241   8.264
 2182POPC   C3A29909  12.045  32.223   7.964
 2182POPC   C4A29910  12.062  32.254   7.664
 2182POPC   C1B29911  12.200  32.493   8.564
 2182POPC   C2B29912  12.133  32.472   8.264
 2182POPC   C3B29913  12.132  32.461   7.964
 2182POPC   C4B29914  12.213  32.446   7.664
 2183POPC   NC329915  41.528  20.656   9.464
 2183POPC   PO429916  41.591  20.579   9.164
 2183POPC   GL129917  41.529  20.594   8.864
 2183POPC   GL229918  41.463  20.560   8.864
 2183POPC   C1A29919  41.578  20.567   8.564
 2183POPC   D2A29920  41.518  20.576   8.264
 2183POPC   C3A29921  41.524  20.609   7.964
 2183POPC   C4A29922  41.574  20.636   7.664
 2183POPC   C1B29923  41.369  20.475   8.564
 2183POPC   C2B29924  41.370  20.563   8.264
 2183POPC   C3B29925  41.355  20.543   7.964
 2183POPC   C4B29926  41.345  20.532   7.664
 2184POPC   NC329927  22.190  38.491   9.464
 2184POPC   PO429928  22.167  38.440   9.164
 2184POPC   GL129929  22.146  38.425   8.864
 2184POPC   GL229930  22.288  38.551   8.864
 2184POPC   C1A29931  22.154  38.459   8.564
 2184POPC   D2A29932  22.124  38.488   8.264
 2184POPC   C3A29933  22.126  38.426   7.964
 2184POPC   C4A29934  22.142  38.475   7.664
 2184POPC   C1B29935  22.368  38.568   8.564
 2184POPC   C2B29936  22.388  38.613   8.264
 2184POPC   C3B29937  22.325  38.636   7.964
 2184POPC   C4B29938  22.407  38.568   7.664
 2185POPC   NC329939   1.246  23.679   9.464
 2185POPC   PO429940   1.208  23.681   9.164
 2185POPC   GL129941   1.247  23.731   8.864
 2185POPC   GL229942   1.168  23.843   8.864
 2185POPC   C1A29943   1.236  23.748   8.564
 2185POPC   D2A29944   1.230  23.724   8.264
 2185POPC   C3A29945   1.222  23.675   7.964
 2185POPC   C4A29946   1.217  23.717   7.664
 2185POPC   C1B29947   1.058  23.884   8.564
 2185POPC   C2B29948   1.079  23.878   8.264
 2185POPC   C3B29949   1.079  23.969   7.964
 2185POPC   C4B29950   1.085  23.968   7.664
 2186POPC   NC329951  31.441  37.646   9.464
 2186POPC   PO429952  31.470  37.702   9.164
 2186POPC   GL129953  31.437  37.683   8.864
 2186POPC   GL229954  31.426  37.814   8.864
 2186POPC   C1A29955  31.458  37.718   8.564
 2186POPC   D2A29956  31.518  37.678   8.264
 2186POPC   C3A29957  31.424  37.642   7.964
 2186POPC   C4A29958  31.424  37.684   7.664
 2186POPC   C1B29959  31.284  37.814   8.564
 2186POPC   C2B29960  31.308  37.895   8.264
 2186POPC   C3B29961  31.330  37.826   7.964
 2186POPC   C4B29962  31.310  37.822   7.664
 2187POPC   NC329963  11.284  33.813   9.464
 2187POPC   PO429964  11.315  33.754   9.164
 2187POPC   GL129965  11.253  33.764   8.864
 2187POPC   GL229966  11.448  33.746   8.864
 2187POPC   C1A29967  11.335  33.778   8.564
 2187POPC   D2A29968  11.349  33.818   8.264
 2187POPC   C3A29969  11.317  33.782   7.964
 2187POPC   C4A29970  11.337  33.845   7.664
 2187POPC   C1B29971  11.538  33.671   8.564
 2187POPC   C2B29972  11.524  33.664   8.264
 2187POPC   C3B29973  11.496  33.729   7.964
 2187POPC   C4B29974  11.534  33.651   7.664
 2188POPC   NC329975  26.008  19.796   9.464
 2188POPC   PO429976  26.084  19.803   9.164
 2188POPC   GL129977  26.013  19.818   8.864
 2188POPC   GL229978  26.064  19.675   8.864
 2188POPC   C1A29979  26.066  19.812   8.564
 2188POPC   D2A29980  26.060  19.865   8.264
 2188POPC   C3A29981  26.016  19.852   7.964
 2188POPC   C4A29982  26.065  19.821   7.664
 2188POPC   C1B29983  26.108  19.570   8.564
 2188POPC   C2B29984  26.082  19.544   8.264
 2188POPC   C3B29985  26.055  19.622   7.964
 2188POPC   C4B29986  26.053  19.623   7.664
 2189POPC   NC329987  40.009  36.115   9.464
 2189POPC   PO429988  39.988  36.133   9.164
 2189POPC   GL129989  40.010  36.090   8.864
 2189POPC   GL229990  40.067  36.277   8.864
 2189POPC   C1A29991  40.046  36.088   8.564
 2189POPC   D2A29992  40.044  36.131   8.264
 2189POPC   C3A29993  39.997  36.118   7.964
 2189POPC   C4A29994  40.041  36.148   7.664
 2189POPC   C1B29995  40.114  36.353   8.564
 2189POPC   C2B29996  40.065  36.397   8.264
 2189POPC   C3B29997  40.102  36.370   7.964
 2189POPC   C4B29998  40.084  36.383   7.664
 2190POPC   NC329999  17.555  17.505   9.464
 2190POPC   PO430000  17.502  17.509   9.164
 2190POPC   GL130001  17.505  17.509   8.864
 2190POPC   GL230002  17.421  17.458   8.864
 2190POPC   C1A30003  17.542  17.501   8.564
 2190POPC   D2A30004  17.465  17.515   8.264
 2190POPC   C3A30005  17.479  17.542   7.964
 2190POPC   C4A30006  17.503  17.554   7.664
 2190POPC   C1B30007  17.284  17.471   8.564
 2190POPC   C2B30008  17.290  17.476   8.264
 2190POPC   C3B30009  17.269  17.433   7.964
 2190POPC   C4B30010  17.224  17.492   7.664
 2191POPC   NC330011  26.782  26.043   9.464
 2191POPC   PO430012  26.779  26.000   9.164
 2191POPC   GL130013  26.841  26.037   8.864
 2191POPC   GL230014  26.701  25.989   8.864
 2191POPC   C1A30015  26.842  26.007   8.564
 2191POPC   D2A30016  26.787  26.026   8.264
 2191POPC   C3A30017  26.856  26.036   7.964
 2191POPC   C4A30018  26.779  26.047   7.664
 2191POPC   C1B30019  26.587  25.961   8.564
 2191POPC   C2B30020  26.635  25.875   8.264
 2191POPC   C3B30021  26.552  25.912   7.964
 2191POPC   C4B30022  26.594  25.912   7.664
 2192POPC   NC330023  35.369  14.415   9.464
 2192POPC   PO430024  35.328  14.440   9.164
 2192POPC   GL130025  35.337  14.440   8.864
 2192POPC   GL230026  35.198  14.480   8.864
 2192POPC   C1A30027  35.330  14.394   8.564
 2192POPC   D2A30028  35.330  14.416   8.264
 2192POPC   C3A30029  35.376  14.450   7.964
 2192POPC   C4A30030  35.348  14.389   7.664
 2192POPC   C1B30031  35.146  14.499   8.564
 2192POPC   C2B30032  35.151  14.493   8.264
 2192POPC   C3B30033  35.062  14.465   7.964
 2192POPC   C4B30034  35.150  14.443   7.664
 2193POPC   NC330035  29.177   2.721   9.464
 2193POPC   PO430036  29.128   2.741   9.164
 2193POPC   GL130037  29.139   2.732   8.864
 2193POPC   GL230038  29.012   2.672   8.864
 2193POPC   C1A30039  29.154   2.745   8.564
 2193POPC   D2A30040  29.167   2.802   8.264
 2193POPC   C3A30041  29.150   2.738   7.964
 2193POPC   C4A30042  29.181   2.745   7.664
 2193POPC   C1B30043  28.920   2.688   8.564
 2193POPC   C2B30044  28.939   2.604   8.264
 2193POPC   C3B30045  28.881   2.664   7.964
 2193POPC   C4B30046  28.964   2.653   7.664
 2194POPC   NC330047  30.731  29.108   9.464
 2194POPC   PO430048  30.695  29.188   9.164
 2194POPC   GL130049  30.680  29.157   8.864
 2194POPC   GL230050  30.617  29.013   8.864
 2194POPC   C1A30051  30.719  29.143   8.564
 2194POPC   D2A30052  30.681  29.117   8.264
 2194POPC   C3A30053  30.678  29.165   7.964
 2194POPC   C4A30054  30.703  29.116   7.664
 2194POPC   C1B30055  30.539  28.900   8.564
 2194POPC   C2B30056  30.562  28.978   8.264
 2194POPC   C3B30057  30.523  28.985   7.964
 2194POPC   C4B30058  30.500  28.979   7.664
 2195POPC   NC330059  42.285  17.466   9.464
 2195POPC   PO430060  42.379  17.461   9.164
 2195POPC   GL130061  42.313  17.510   8.864
 2195POPC   GL230062  42.300  17.370   8.864
 2195POPC   C1A30063  42.349  17.538   8.564
 2195POPC   D2A30064  42.298  17.492   8.264
 2195POPC   C3A30065  42.316  17.543   7.964
 2195POPC   C4A30066  42.314  17.500   7.664
 2195POPC   C1B30067  42.327  17.236   8.564
 2195POPC   C2B30068  42.298  17.248   8.264
 2195POPC   C3B30069  42.305  17.226   7.964
 2195POPC   C4B30070  42.329  17.272   7.664
 2196POPC   NC330071  40.760  14.368   9.464
 2196POPC   PO430072  40.789  14.400   9.164
 2196POPC   GL130073  40.788  14.386   8.864
 2196POPC   GL230074  40.651  14.456   8.864
 2196POPC   C1A30075  40.818  14.420   8.564
 2196POPC   D2A30076  40.807  14.430   8.264
 2196POPC   C3A30077  40.819  14.358   7.964
 2196POPC   C4A30078  40.734  14.421   7.664
 2196POPC   C1B30079  40.544  14.452   8.564
 2196POPC   C2B30080  40.494  14.448   8.264
 2196POPC   C3B30081  40.579  14.457   7.964
 2196POPC   C4B30082  40.490  14.447   7.664
 2197POPC   NC330083  29.874  12.827   9.464
 2197POPC   PO430084  29.934  12.876   9.164
 2197POPC   GL130085  29.897  12.808   8.864
 2197POPC   GL230086  29.950  12.742   8.864
 2197POPC   C1A30087  29.945  12.890   8.564
 2197POPC   D2A30088  29.970  12.877   8.264
 2197POPC   C3A30089  29.944  12.897   7.964
 2197POPC   C4A30090  29.900  12.814   7.664
 2197POPC   C1B30091  29.967  12.625   8.564
 2197POPC   C2B30092  29.989  12.650   8.264
 2197POPC   C3B30093  29.972  12.614   7.964
 2197POPC   C4B30094  30.007  12.627   7.664
 2198POPC   NC330095  13.636  15.151   9.464
 2198POPC   PO430096  13.659  15.191   9.164
 2198POPC   GL130097  13.586  15.207   8.864
 2198POPC   GL230098  13.600  15.259   8.864
 2198POPC   C1A30099  13.614  15.174   8.564
 2198POPC   D2A30100  13.674  15.206   8.264
 2198POPC   C3A30101  13.602  15.129   7.964
 2198POPC   C4A30102  13.667  15.188   7.664
 2198POPC   C1B30103  13.495  15.399   8.564
 2198POPC   C2B30104  13.487  15.392   8.264
 2198POPC   C3B30105  13.465  15.397   7.964
 2198POPC   C4B30106  13.486  15.359   7.664
 2199POPC   NC330107  11.316   1.258   9.464
 2199POPC   PO430108  11.315   1.245   9.164
 2199POPC   GL130109  11.307   1.229   8.864
 2199POPC   GL230110  11.420   1.247   8.864
 2199POPC   C1A30111  11.327   1.195   8.564
 2199POPC   D2A30112  11.250   1.249   8.264
 2199POPC   C3A30113  11.298   1.264   7.964
 2199POPC   C4A30114  11.322   1.227   7.664
 2199POPC   C1B30115  11.552   1.327   8.564
 2199POPC   C2B30116  11.538   1.317   8.264
 2199POPC   C3B30117  11.481   1.273   7.964
 2199POPC   C4B30118  11.486   1.287   7.664
 2200POPC   NC330119  29.935  18.248   9.464
 2200POPC   PO430120  29.882  18.308   9.164
 2200POPC   GL130121  29.892  18.296   8.864
 2200POPC   GL230122  29.770  18.282   8.864
 2200POPC   C1A30123  29.899  18.298   8.564
 2200POPC   D2A30124  29.965  18.251   8.264
 2200POPC   C3A30125  29.911  18.239   7.964
 2200POPC   C4A30126  29.930  18.265   7.664
 2200POPC   C1B30127  29.681  18.199   8.564
 2200POPC   C2B30128  29.639  18.164   8.264
 2200POPC   C3B30129  29.690  18.184   7.964
 2200POPC   C4B30130  29.729  18.230   7.664
 2201POPC   NC330131  40.736  15.165   9.464
 2201POPC   PO430132  40.804  15.138   9.164
 2201POPC   GL130133  40.735  15.143   8.864
 2201POPC   GL230134  40.752  15.316   8.864
 2201POPC   C1A30135  40.810  15.153   8.564
 2201POPC   D2A30136  40.824  15.131   8.264
 2201POPC   C3A30137  40.743  15.199   7.964
 2201POPC   C4A30138  40.808  15.207   7.664
 2201POPC   C1B30139  40.651  15.427   8.564
 2201POPC   C2B30140  40.634  15.433   8.264
 2201POPC   C3B30141  40.667  15.443   7.964
 2201POPC   C4B30142  40.671  15.381   7.664
 2202POPC   NC330143  10.570   0.396   9.464
 2202POPC   PO430144  10.480   0.454   9.164
 2202POPC   GL130145  10.518   0.414   8.864
 2202POPC   GL230146  10.623   0.366   8.864
 2202POPC   C1A30147  10.515   0.463   8.564
 2202POPC   D2A30148  10.558   0.402   8.264
 2202POPC   C3A30149  10.501   0.430   7.964
 2202POPC   C4A30150  10.568   0.472   7.664
 2202POPC   C1B30151  10.671   0.199   8.564
 2202POPC   C2B30152  10.638   0.271   8.264
 2202POPC   C3B30153  10.685   0.194   7.964
 2202POPC   C4B30154  10.668   0.260   7.664
 2203POPC   NC330155   6.637   6.657   9.464
 2203POPC   PO430156   6.599   6.619   9.164
 2203POPC   GL130157   6.621   6.662   8.864
 2203POPC   GL230158   6.637   6.529   8.864
 2203POPC   C1A30159   6.650   6.692   8.564
 2203POPC   D2A30160   6.688   6.649   8.264
 2203POPC   C3A30161   6.619   6.664   7.964
 2203POPC   C4A30162   6.653   6.673   7.664
 2203POPC   C1B30163   6.749   6.408   8.564
 2203POPC   C2B30164   6.694   6.421   8.264
 2203POPC   C3B30165   6.731   6.414   7.964
 2203POPC   C4B30166   6.658   6.445   7.664
 2204POPC   NC330167  42.349   5.112   9.464
 2204POPC   PO430168  42.324   5.065   9.164
 2204POPC   GL130169  42.346   5.138   8.864
 2204POPC   GL230170  42.209   5.010   8.864
 2204POPC   C1A30171  42.286   5.070   8.564
 2204POPC   D2A30172  42.375   5.054   8.264
 2204POPC   C3A30173  42.382   5.055   7.964
 2204POPC   C4A30174  42.383   5.094   7.664
 2204POPC   C1B30175  42.187   4.897   8.564
 2204POPC   C2B30176  42.126   4.937   8.264
 2204POPC   C3B30177  42.183   4.925   7.964
 2204POPC   C4B30178  42.139   4.895   7.664
 2205POPC   NC330179  40.039  40.752   9.464
 2205POPC   PO430180  40.032  40.794   9.164
 2205POPC   GL130181  40.052  40.751   8.864
 2205POPC   GL230182  40.176  40.793   8.864
 2205POPC   C1A30183  40.050  40.801   8.564
 2205POPC   D2A30184  40.055  40.770   8.264
 2205POPC   C3A30185  40.046  40.779   7.964
 2205POPC   C4A30186  39.963  40.801   7.664
 2205POPC   C1B30187  40.251  40.750   8.564
 2205POPC   C2B30188  40.231  40.806   8.264
 2205POPC   C3B30189  40.284  40.794   7.964
 2205POPC   C4B30190  40.227  40.751   7.664
 2206POPC   NC330191  10.564  33.026   9.464
 2206POPC   PO430192  10.552  33.004   9.164
 2206POPC   GL130193  10.525  33.022   8.864
 2206POPC   GL230194  10.581  32.916   8.864
 2206POPC   C1A30195  10.532  32.998   8.564
 2206POPC   D2A30196  10.536  33.074   8.264
 2206POPC   C3A30197  10.537  33.031   7.964
 2206POPC   C4A30198  10.571  32.993   7.664
 2206POPC   C1B30199  10.606  32.798   8.564
 2206POPC   C2B30200  10.639  32.808   8.264
 2206POPC   C3B30201  10.685  32.808   7.964
 2206POPC   C4B30202  10.606  32.777   7.664
 2207POPC   NC330203  13.675   4.340   9.464
 2207POPC   PO430204  13.607   4.330   9.164
 2207POPC   GL130205  13.629   4.282   8.864
 2207POPC   GL230206  13.746   4.292   8.864
 2207POPC   C1A30207  13.642   4.283   8.564
 2207POPC   D2A30208  13.651   4.362   8.264
 2207POPC   C3A30209  13.607   4.296   7.964
 2207POPC   C4A30210  13.626   4.322   7.664
 2207POPC   C1B30211  13.902   4.313   8.564
 2207POPC   C2B30212  13.881   4.223   8.264
 2207POPC   C3B30213  13.918   4.311   7.964
 2207POPC   C4B30214  13.849   4.247   7.664
 2208POPC   NC330215  31.514   6.657   9.464
 2208POPC   PO430216  31.503   6.675   9.164
 2208POPC   GL130217  31.459   6.609   8.864
 2208POPC   GL230218  31.499   6.488   8.864
 2208POPC   C1A30219  31.484   6.615   8.564
 2208POPC   D2A30220  31.463   6.595   8.264
 2208POPC   C3A30221  31.453   6.674   7.964
 2208POPC   C4A30222  31.518   6.663   7.664
 2208POPC   C1B30223  31.379   6.396   8.564
 2208POPC   C2B30224  31.415   6.414   8.264
 2208POPC   C3B30225  31.404   6.386   7.964
 2208POPC   C4B30226  31.458   6.375   7.664
 2209POPC   NC330227  23.746  29.190   9.464
 2209POPC   PO430228  23.724  29.105   9.164
 2209POPC   GL130229  23.686  29.133   8.864
 2209POPC   GL230230  23.790  29.293   8.864
 2209POPC   C1A30231  23.719  29.171   8.564
 2209POPC   D2A30232  23.757  29.116   8.264
 2209POPC   C3A30233  23.752  29.114   7.964
 2209POPC   C4A30234  23.730  29.106   7.664
 2209POPC   C1B30235  23.808  29.367   8.564
 2209POPC   C2B30236  23.813  29.394   8.264
 2209POPC   C3B30237  23.836  29.388   7.964
 2209POPC   C4B30238  23.806  29.413   7.664
 2210POPC   NC330239  40.832  36.113   9.464
 2210POPC   PO430240  40.782  36.176   9.164
 2210POPC   GL130241  40.734  36.086   8.864
 2210POPC   GL230242  40.768  35.988   8.864
 2210POPC   C1A30243  40.818  36.124   8.564
 2210POPC   D2A30244  40.805  36.124   8.264
 2210POPC   C3A30245  40.824  36.105   7.964
 2210POPC   C4A30246  40.817  36.125   7.664
 2210POPC   C1B30247  40.696  35.917   8.564
 2210POPC   C2B30248  40.727  35.936   8.264
 2210POPC   C3B30249  40.690  35.902   7.964
 2210POPC   C4B30250  40.686  35.941   7.664
 2211POPC   NC330251  31.512   0.450   9.464
 2211POPC   PO430252  31.509   0.481   9.164
 2211POPC   GL130253  31.480   0.466   8.864
 2211POPC   GL230254  31.394   0.455   8.864
 2211POPC   C1A30255  31.433   0.487   8.564
 2211POPC   D2A30256  31.507   0.449   8.264
 2211POPC   C3A30257  31.483   0.417   7.964
 2211POPC   C4A30258  31.447   0.400   7.664
 2211POPC   C1B30259  31.281   0.483   8.564
 2211POPC   C2B30260  31.267   0.546   8.264
 2211POPC   C3B30261  31.279   0.471   7.964
 2211POPC   C4B30262  31.231   0.505   7.664
 2212POPC   NC330263  39.258  14.394   9.464
 2212POPC   PO430264  39.182  14.442   9.164
 2212POPC   GL130265  39.191  14.383   8.864
 2212POPC   GL230266  39.323  14.417   8.864
 2212POPC   C1A30267  39.252  14.384   8.564
 2212POPC   D2A30268  39.249  14.355   8.264
 2212POPC   C3A30269  39.206  14.436   7.964
 2212POPC   C4A30270  39.231  14.360   7.664
 2212POPC   C1B30271  39.471  14.447   8.564
 2212POPC   C2B30272  39.444  14.416   8.264
 2212POPC   C3B30273  39.498  14.453   7.964
 2212POPC   C4B30274  39.516  14.362   7.664
 2213POPC   NC330275  26.828  33.769   9.464
 2213POPC   PO430276  26.806  33.841   9.164
 2213POPC   GL130277  26.860  33.808   8.864
 2213POPC   GL230278  26.818  33.722   8.864
 2213POPC   C1A30279  26.827  33.837   8.564
 2213POPC   D2A30280  26.861  33.781   8.264
 2213POPC   C3A30281  26.789  33.845   7.964
 2213POPC   C4A30282  26.863  33.766   7.664
 2213POPC   C1B30283  26.897  33.513   8.564
 2213POPC   C2B30284  26.927  33.558   8.264
 2213POPC   C3B30285  26.864  33.596   7.964
 2213POPC   C4B30286  26.931  33.513   7.664
 2214POPC   NC330287   5.906   6.658   9.464
 2214POPC   PO430288   5.893   6.662   9.164
 2214POPC   GL130289   5.889   6.632   8.864
 2214POPC   GL230290   5.934   6.600   8.864
 2214POPC   C1A30291   5.840   6.666   8.564
 2214POPC   D2A30292   5.846   6.606   8.264
 2214POPC   C3A30293   5.893   6.642   7.964
 2214POPC   C4A30294   5.836   6.687   7.664
 2214POPC   C1B30295   6.075   6.502   8.564
 2214POPC   C2B30296   6.069   6.494   8.264
 2214POPC   C3B30297   6.065   6.524   7.964
 2214POPC   C4B30298   6.117   6.508   7.664
 2215POPC   NC330299   8.956  15.223   9.464
 2215POPC   PO430300   8.963  15.134   9.164
 2215POPC   GL130301   8.979  15.145   8.864
 2215POPC   GL230302   9.049  15.311   8.864
 2215POPC   C1A30303   8.924  15.188   8.564
 2215POPC   D2A30304   8.950  15.198   8.264
 2215POPC   C3A30305   8.931  15.146   7.964
 2215POPC   C4A30306   9.019  15.209   7.664
 2215POPC   C1B30307   9.058  15.377   8.564
 2215POPC   C2B30308   9.053  15.451   8.264
 2215POPC   C3B30309   8.995  15.444   7.964
 2215POPC   C4B30310   9.020  15.391   7.664
 2216POPC   NC330311  24.462  21.406   9.464
 2216POPC   PO430312  24.490  21.407   9.164
 2216POPC   GL130313  24.499  21.338   8.864
 2216POPC   GL230314  24.457  21.221   8.864
 2216POPC   C1A30315  24.521  21.387   8.564
 2216POPC   D2A30316  24.465  21.410   8.264
 2216POPC   C3A30317  24.444  21.367   7.964
 2216POPC   C4A30318  24.459  21.344   7.664
 2216POPC   C1B30319  24.513  21.130   8.564
 2216POPC   C2B30320  24.468  21.156   8.264
 2216POPC   C3B30321  24.518  21.131   7.964
 2216POPC   C4B30322  24.466  21.127   7.664
 2217POPC   NC330323   8.228   5.889   9.464
 2217POPC   PO430324   8.208   5.825   9.164
 2217POPC   GL130325   8.201   5.908   8.864
 2217POPC   GL230326   8.093   5.814   8.864
 2217POPC   C1A30327   8.204   5.918   8.564
 2217POPC   D2A30328   8.160   5.910   8.264
 2217POPC   C3A30329   8.185   5.857   7.964
 2217POPC   C4A30330   8.245   5.830   7.664
 2217POPC   C1B30331   8.103   5.653   8.564
 2217POPC   C2B30332   8.078   5.704   8.264
 2217POPC   C3B30333   8.057   5.703   7.964
 2217POPC   C4B30334   8.065   5.699   7.664
 2218POPC   NC330335  18.297  13.629   9.464
 2218POPC   PO430336  18.317  13.591   9.164
 2218POPC   GL130337  18.324  13.601   8.864
 2218POPC   GL230338  18.344  13.756   8.864
 2218POPC   C1A30339  18.331  13.596   8.564
 2218POPC   D2A30340  18.272  13.585   8.264
 2218POPC   C3A30341  18.294  13.669   7.964
 2218POPC   C4A30342  18.290  13.578   7.664
 2218POPC   C1B30343  18.376  13.839   8.564
 2218POPC   C2B30344  18.355  13.821   8.264
 2218POPC   C3B30345  18.337  13.847   7.964
 2218POPC   C4B30346  18.419  13.875   7.664
 2219POPC   NC330347  36.138  41.573   9.464
 2219POPC   PO430348  36.166  41.516   9.164
 2219POPC   GL130349  36.148  41.554   8.864
 2219POPC   GL230350  36.095  41.655   8.864
 2219POPC   C1A30351  36.162  41.520   8.564
 2219POPC   D2A30352  36.130  41.527   8.264
 2219POPC   C3A30353  36.174  41.589   7.964
 2219POPC   C4A30354  36.117  41.600   7.664
 2219POPC   C1B30355  36.050  41.845   8.564
 2219POPC   C2B30356  36.020  41.770   8.264
 2219POPC   C3B30357  36.015  41.807   7.964
 2219POPC   C4B30358  36.037  41.775   7.664
 2220POPC   NC330359  18.279  40.733   9.464
 2220POPC   PO430360  18.280  40.759   9.164
 2220POPC   GL130361  18.242  40.757   8.864
 2220POPC   GL230362  18.389  40.692   8.864
 2220POPC   C1A30363  18.248  40.745   8.564
 2220POPC   D2A30364  18.262  40.740   8.264
 2220POPC   C3A30365  18.300  40.738   7.964
 2220POPC   C4A30366  18.281  40.805   7.664
 2220POPC   C1B30367  18.372  40.521   8.564
 2220POPC   C2B30368  18.373  40.590   8.264
 2220POPC   C3B30369  18.368  40.575   7.964
 2220POPC   C4B30370  18.397  40.521   7.664
 2221POPC   NC330371  32.265  43.888   9.464
 2221POPC   PO430372  32.203  43.918   9.164
 2221POPC   GL130373  32.222  43.844   8.864
 2221POPC   GL230374  32.122  44.006   8.864
 2221POPC   C1A30375  32.239  43.836   8.564
 2221POPC   D2A30376  32.281  43.839   8.264
 2221POPC   C3A30377  32.292  43.886   7.964
 2221POPC   C4A30378  32.216  43.876   7.664
 2221POPC   C1B30379  32.133  44.101   8.564
 2221POPC   C2B30380  32.066  44.055   8.264
 2221POPC   C3B30381  32.114  44.126   7.964
 2221POPC   C4B30382  32.091  44.100   7.664
 2222POPC   NC330383   8.230  40.807   9.464
 2222POPC   PO430384   8.198  40.786   9.164
 2222POPC   GL130385   8.231  40.788   8.864
 2222POPC   GL230386   8.098  40.695   8.864
 2222POPC   C1A30387   8.222  40.819   8.564
 2222POPC   D2A30388   8.230  40.773   8.264
 2222POPC   C3A30389   8.181  40.814   7.964
 2222POPC   C4A30390   8.191  40.780   7.664
 2222POPC   C1B30391   8.078  40.552   8.564
 2222POPC   C2B30392   8.088  40.607   8.264
 2222POPC   C3B30393   8.050  40.606   7.964
 2222POPC   C4B30394   8.006  40.578   7.664
 2223POPC   NC330395  24.536  20.611   9.464
 2223POPC   PO430396  24.470  20.626   9.164
 2223POPC   GL130397  24.445  20.602   8.864
 2223POPC   GL230398  24.373  20.611   8.864
 2223POPC   C1A30399  24.503  20.581   8.564
 2223POPC   D2A30400  24.522  20.637   8.264
 2223POPC   C3A30401  24.511  20.612   7.964
 2223POPC   C4A30402  24.519  20.617   7.664
 2223POPC   C1B30403  24.222  20.562   8.564
 2223POPC   C2B30404  24.264  20.618   8.264
 2223POPC   C3B30405  24.234  20.579   7.964
 2223POPC   C4B30406  24.264  20.590   7.664
 2224POPC   NC330407   5.860  10.512   9.464
 2224POPC   PO430408   5.854  10.523   9.164
 2224POPC   GL130409   5.828  10.517   8.864
 2224POPC   GL230410   5.782  10.409   8.864
 2224POPC   C1A30411   5.839  10.558   8.564
 2224POPC   D2A30412   5.839  10.512   8.264
 2224POPC   C3A30413   5.854  10.564   7.964
 2224POPC   C4A30414   5.855  10.491   7.664
 2224POPC   C1B30415   5.664  10.313   8.564
 2224POPC   C2B30416   5.699  10.321   8.264
 2224POPC   C3B30417   5.668  10.314   7.964
 2224POPC   C4B30418   5.707  10.365   7.664
 2225POPC   NC330419  15.988  10.500   9.464
 2225POPC   PO430420  15.966  10.573   9.164
 2225POPC   GL130421  15.932  10.567   8.864
 2225POPC   GL230422  16.003  10.406   8.864
 2225POPC   C1A30423  15.944  10.474   8.564
 2225POPC   D2A30424  15.964  10.530   8.264
 2225POPC   C3A30425  15.918  10.495   7.964
 2225POPC   C4A30426  15.971  10.569   7.664
 2225POPC   C1B30427  16.137  10.307   8.564
 2225POPC   C2B30428  16.165  10.348   8.264
 2225POPC   C3B30429  16.144  10.339   7.964
 2225POPC   C4B30430  16.158  10.314   7.664
 2226POPC   NC330431   9.715  40.019   9.464
 2226POPC   PO430432   9.729  39.990   9.164
 2226POPC   GL130433   9.791  40.031   8.864
 2226POPC   GL230434   9.659  40.034   8.864
 2226POPC   C1A30435   9.712  39.989   8.564
 2226POPC   D2A30436   9.740  39.983   8.264
 2226POPC   C3A30437   9.770  39.968   7.964
 2226POPC   C4A30438   9.707  40.025   7.664
 2226POPC   C1B30439   9.558  40.091   8.564
 2226POPC   C2B30440   9.509  40.047   8.264
 2226POPC   C3B30441   9.555  40.138   7.964
 2226POPC   C4B30442   9.547  40.109   7.664
 2227POPC   NC330443  43.847  43.884   9.464
 2227POPC   PO430444  43.896  43.932   9.164
 2227POPC   GL130445  43.867  43.906   8.864
 2227POPC   GL230446  43.790  43.756   8.864
 2227POPC   C1A30447  43.918  43.876   8.564
 2227POPC   D2A30448  43.852  43.866   8.264
 2227POPC   C3A30449  43.925  43.913   7.964
 2227POPC   C4A30450  43.861  43.874   7.664
 2227POPC   C1B30451  43.727  43.656   8.564
 2227POPC   C2B30452  43.792  43.647   8.264
 2227POPC   C3B30453  43.809  43.710   7.964
 2227POPC   C4B30454  43.718  43.628   7.664
 2228POPC   NC330455  40.028  12.809   9.464
 2228POPC   PO430456  40.018  12.808   9.164
 2228POPC   GL130457  40.037  12.844   8.864
 2228POPC   GL230458  40.174  12.857   8.864
 2228POPC   C1A30459  39.969  12.895   8.564
 2228POPC   D2A30460  40.034  12.821   8.264
 2228POPC   C3A30461  39.958  12.879   7.964
 2228POPC   C4A30462  39.972  12.898   7.664
 2228POPC   C1B30463  40.244  12.974   8.564
 2228POPC   C2B30464  40.291  12.970   8.264
 2228POPC   C3B30465  40.285  12.944   7.964
 2228POPC   C4B30466  40.263  12.957   7.664
 2229POPC   NC330467   9.789  25.233   9.464
 2229POPC   PO430468   9.793  25.243   9.164
 2229POPC   GL130469   9.752  25.288   8.864
 2229POPC   GL230470   9.868  25.204   8.864
 2229POPC   C1A30471   9.742  25.254   8.564
 2229POPC   D2A30472   9.723  25.221   8.264
 2229POPC   C3A30473   9.792  25.308   7.964
 2229POPC   C4A30474   9.798  25.298   7.664
 2229POPC   C1B30475   9.949  25.072   8.564
 2229POPC   C2B30476   9.919  25.097   8.264
 2229POPC   C3B30477   9.983  25.159   7.964
 2229POPC   C4B30478   9.934  25.079   7.664
 2230POPC   NC330479  28.332  39.267   9.464
 2230POPC   PO430480  28.382  39.281   9.164
 2230POPC   GL130481  28.365  39.266   8.864
 2230POPC   GL230482  28.368  39.157   8.864
 2230POPC   C1A30483  28.370  39.264   8.564
 2230POPC   D2A30484  28.323  39.209   8.264
 2230POPC   C3A30485  28.416  39.245   7.964
 2230POPC   C4A30486  28.362  39.274   7.664
 2230POPC   C1B30487  28.264  39.012   8.564
 2230POPC   C2B30488  28.248  38.971   8.264
 2230POPC   C3B30489  28.334  38.964   7.964
 2230POPC   C4B30490  28.311  38.996   7.664
 2231POPC   NC330491  27.605  38.478   9.464
 2231POPC   PO430492  27.568  38.455   9.164
 2231POPC   GL130493  27.583  38.494   8.864
 2231POPC   GL230494  27.687  38.357   8.864
 2231POPC   C1A30495  27.549  38.456   8.564
 2231POPC   D2A30496  27.558  38.500   8.264
 2231POPC   C3A30497  27.610  38.420   7.964
 2231POPC   C4A30498  27.618  38.448   7.664
 2231POPC   C1B30499  27.789  38.350   8.564
 2231POPC   C2B30500  27.811  38.315   8.264
 2231POPC   C3B30501  27.849  38.293   7.964
 2231POPC   C4B30502  27.769  38.309   7.664
 2232POPC   NC330503  15.960  27.575   9.464
 2232POPC   PO430504  15.966  27.640   9.164
 2232POPC   GL130505  15.935  27.631   8.864
 2232POPC   GL230506  15.995  27.445   8.864
 2232POPC   C1A30507  15.940  27.545   8.564
 2232POPC   D2A30508  15.954  27.593   8.264
 2232POPC   C3A30509  15.945  27.639   7.964
 2232POPC   C4A30510  15.969  27.583   7.664
 2232POPC   C1B30511  16.008  27.413   8.564
 2232POPC   C2B30512  16.060  27.357   8.264
 2232POPC   C3B30513  16.035  27.401   7.964
 2232POPC   C4B30514  16.100  27.320   7.664
 2233POPC   NC330515  31.503  30.654   9.464
 2233POPC   PO430516  31.464  30.662   9.164
 2233POPC   GL130517  31.438  30.659   8.864
 2233POPC   GL230518  31.397  30.607   8.864
 2233POPC   C1A30519  31.432  30.722   8.564
 2233POPC   D2A30520  31.448  30.686   8.264
 2233POPC   C3A30521  31.506  30.710   7.964
 2233POPC   C4A30522  31.466  30.727   7.664
 2233POPC   C1B30523  31.208  30.638   8.564
 2233POPC   C2B30524  31.221  30.603   8.264
 2233POPC   C3B30525  31.240  30.582   7.964
 2233POPC   C4B30526  31.233  30.574   7.664
 2234POPC   NC330527  33.783  40.773   9.464
 2234POPC   PO430528  33.778  40.820   9.164
 2234POPC   GL130529  33.847  40.782   8.864
 2234POPC   GL230530  33.905  40.823   8.864
 2234POPC   C1A30531  33.793  40.827   8.564
 2234POPC   D2A30532  33.788  40.761   8.264
 2234POPC   C3A30533  33.751  40.818   7.964
 2234POPC   C4A30534  33.825  40.767   7.664
 2234POPC   C1B30535  33.986  40.920   8.564
 2234POPC   C2B30536  34.014  40.938   8.264
 2234POPC   C3B30537  33.984  40.975   7.964
 2234POPC   C4B30538  33.986  40.929   7.664
 2235POPC   NC330539  15.947  35.328   9.464
 2235POPC   PO430540  15.992  35.323   9.164
 2235POPC   GL130541  15.917  35.359   8.864
 2235POPC   GL230542  16.102  35.459   8.864
 2235POPC   C1A30543  15.999  35.342   8.564
 2235POPC   D2A30544  15.946  35.400   8.264
 2235POPC   C3A30545  16.004  35.307   7.964
 2235POPC   C4A30546  15.951  35.395   7.664
 2235POPC   C1B30547  16.178  35.469   8.564
 2235POPC   C2B30548  16.103  35.467   8.264
 2235POPC   C3B30549  16.110  35.500   7.964
 2235POPC   C4B30550  16.175  35.554   7.664
 2236POPC   NC330551  39.188   6.682   9.464
 2236POPC   PO430552  39.227   6.627   9.164
 2236POPC   GL130553  39.207   6.695   8.864
 2236POPC   GL230554  39.192   6.770   8.864
 2236POPC   C1A30555  39.262   6.615   8.564
 2236POPC   D2A30556  39.212   6.632   8.264
 2236POPC   C3A30557  39.247   6.617   7.964
 2236POPC   C4A30558  39.199   6.674   7.664
 2236POPC   C1B30559  39.206   6.912   8.564
 2236POPC   C2B30560  39.233   6.873   8.264
 2236POPC   C3B30561  39.227   6.885   7.964
 2236POPC   C4B30562  39.200   6.917   7.664
 2237POPC   NC330563   7.462  26.022   9.464
 2237POPC   PO430564   7.402  26.072   9.164
 2237POPC   GL130565   7.450  26.079   8.864
 2237POPC   GL230566   7.398  26.142   8.864
 2237POPC   C1A30567   7.470  26.007   8.564
 2237POPC   D2A30568   7.384  26.087   8.264
 2237POPC   C3A30569   7.381  26.061   7.964
 2237POPC   C4A30570   7.458  26.014   7.664
 2237POPC   C1B30571   7.451  26.334   8.564
 2237POPC   C2B30572   7.470  26.263   8.264
 2237POPC   C3B30573   7.422  26.294   7.964
 2237POPC   C4B30574   7.386  26.263   7.664
 2238POPC   NC330575  10.554   1.951   9.464
 2238POPC   PO430576  10.493   1.997   9.164
 2238POPC   GL130577  10.478   1.957   8.864
 2238POPC   GL230578  10.624   2.063   8.864
 2238POPC   C1A30579  10.549   1.978   8.564
 2238POPC   D2A30580  10.493   2.018   8.264
 2238POPC   C3A30581  10.561   2.002   7.964
 2238POPC   C4A30582  10.487   1.997   7.664
 2238POPC   C1B30583  10.678   2.133   8.564
 2238POPC   C2B30584  10.698   2.190   8.264
 2238POPC   C3B30585  10.705   2.163   7.964
 2238POPC   C4B30586  10.698   2.175   7.664
 2239POPC   NC330587  15.144  22.980   9.464
 2239POPC   PO430588  15.156  22.963   9.164
 2239POPC   GL130589  15.219  22.974   8.864
 2239POPC   GL230590  15.271  22.966   8.864
 2239POPC   C1A30591  15.167  22.983   8.564
 2239POPC   D2A30592  15.162  22.919   8.264
 2239POPC   C3A30593  15.167  22.918   7.964
 2239POPC   C4A30594  15.150  22.940   7.664
 2239POPC   C1B30595  15.367  23.044   8.564
 2239POPC   C2B30596  15.440  23.022   8.264
 2239POPC   C3B30597  15.452  23.009   7.964
 2239POPC   C4B30598  15.373  23.024   7.664
 2240POPC   NC330599  26.017  40.055   9.464
 2240POPC   PO430600  26.070  40.055   9.164
 2240POPC   GL130601  25.994  40.020   8.864
 2240POPC   GL230602  26.045  40.090   8.864
 2240POPC   C1A30603  26.063  39.978   8.564
 2240POPC   D2A30604  26.057  39.994   8.264
 2240POPC   C3A30605  26.000  39.968   7.964
 2240POPC   C4A30606  26.045  40.030   7.664
 2240POPC   C1B30607  26.097  40.270   8.564
 2240POPC   C2B30608  26.123  40.270   8.264
 2240POPC   C3B30609  26.120  40.298   7.964
 2240POPC   C4B30610  26.058  40.257   7.664
 2241POPC   NC330611  42.350  33.815   9.464
 2241POPC   PO430612  42.371  33.764   9.164
 2241POPC   GL130613  42.378  33.836   8.864
 2241POPC   GL230614  42.458  33.936   8.864
 2241POPC   C1A30615  42.382  33.775   8.564
 2241POPC   D2A30616  42.286  33.838   8.264
 2241POPC   C3A30617  42.346  33.840   7.964
 2241POPC   C4A30618  42.333  33.801   7.664
 2241POPC   C1B30619  42.514  33.956   8.564
 2241POPC   C2B30620  42.522  33.958   8.264
 2241POPC   C3B30621  42.477  34.025   7.964
 2241POPC   C4B30622  42.527  34.014   7.664
 2242POPC   NC330623  19.062  28.389   9.464
 2242POPC   PO430624  19.084  28.416   9.164
 2242POPC   GL130625  19.021  28.380   8.864
 2242POPC   GL230626  19.131  28.230   8.864
 2242POPC   C1A30627  19.063  28.376   8.564
 2242POPC   D2A30628  19.057  28.419   8.264
 2242POPC   C3A30629  19.053  28.319   7.964
 2242POPC   C4A30630  19.025  28.388   7.664
 2242POPC   C1B30631  19.188  28.167   8.564
 2242POPC   C2B30632  19.176  28.111   8.264
 2242POPC   C3B30633  19.139  28.171   7.964
 2242POPC   C4B30634  19.110  28.119   7.664
 2243POPC   NC330635  12.112  33.776   9.464
 2243POPC   PO430636  12.085  33.807   9.164
 2243POPC   GL130637  12.092  33.810   8.864
 2243POPC   GL230638  12.048  33.913   8.864
 2243POPC   C1A30639  12.061  33.806   8.564
 2243POPC   D2A30640  12.098  33.825   8.264
 2243POPC   C3A30641  12.048  33.813   7.964
 2243POPC   C4A30642  12.070  33.828   7.664
 2243POPC   C1B30643  11.957  33.982   8.564
 2243POPC   C2B30644  11.977  34.055   8.264
 2243POPC   C3B30645  12.020  34.071   7.964
 2243POPC   C4B30646  12.008  34.048   7.664
 2244POPC   NC330647  15.959  36.908   9.464
 2244POPC   PO430648  15.931  36.920   9.164
 2244POPC   GL130649  15.977  36.892   8.864
 2244POPC   GL230650  15.919  36.788   8.864
 2244POPC   C1A30651  15.956  36.901   8.564
 2244POPC   D2A30652  15.961  36.868   8.264
 2244POPC   C3A30653  15.915  36.914   7.964
 2244POPC   C4A30654  15.950  36.902   7.664
 2244POPC   C1B30655  15.920  36.626   8.564
 2244POPC   C2B30656  15.929  36.690   8.264
 2244POPC   C3B30657  15.899  36.612   7.964
 2244POPC   C4B30658  15.916  36.619   7.664
 2245POPC   NC330659  40.054  12.120   9.464
 2245POPC   PO430660  39.988  12.085   9.164
 2245POPC   GL130661  39.983  12.035   8.864
 2245POPC   GL230662  40.058  12.166   8.864
 2245POPC   C1A30663  39.994  12.051   8.564
 2245POPC   D2A30664  40.014  12.070   8.264
 2245POPC   C3A30665  40.020  12.033   7.964
 2245POPC   C4A30666  40.013  12.051   7.664
 2245POPC   C1B30667  40.152  12.261   8.564
 2245POPC   C2B30668  40.139  12.318   8.264
 2245POPC   C3B30669  40.115  12.295   7.964
 2245POPC   C4B30670  40.130  12.326   7.664
 2246POPC   NC330671  42.383   9.797   9.464
 2246POPC   PO430672  42.372   9.779   9.164
 2246POPC   GL130673  42.331   9.788   8.864
 2246POPC   GL230674  42.220   9.680   8.864
 2246POPC   C1A30675  42.350   9.710   8.564
 2246POPC   D2A30676  42.344   9.763   8.264
 2246POPC   C3A30677  42.303   9.790   7.964
 2246POPC   C4A30678  42.345   9.793   7.664
 2246POPC   C1B30679  42.160   9.554   8.564
 2246POPC   C2B30680  42.217   9.542   8.264
 2246POPC   C3B30681  42.150   9.580   7.964
 2246POPC   C4B30682  42.237   9.530   7.664
 2247POPC   NC330683  43.918   5.873   9.464
 2247POPC   PO430684  43.930   5.871   9.164
 2247POPC   GL130685  43.865   5.911   8.864
 2247POPC   GL230686  43.926   5.999   8.864
 2247POPC   C1A30687  43.845   5.901   8.564
 2247POPC   D2A30688  43.845   5.893   8.264
 2247POPC   C3A30689  43.921   5.911   7.964
 2247POPC   C4A30690  43.850   5.903   7.664
 2247POPC   C1B30691  43.859   6.071   8.564
 2247POPC   C2B30692  43.854   6.141   8.264
 2247POPC   C3B30693  43.886   6.165   7.964
 2247POPC   C4B30694  43.856   6.094   7.664
 2248POPC   NC330695  18.263  28.375   9.464
 2248POPC   PO430696  18.259  28.382   9.164
 2248POPC   GL130697  18.271  28.358   8.864
 2248POPC   GL230698  18.294  28.498   8.864
 2248POPC   C1A30699  18.296  28.372   8.564
 2248POPC   D2A30700  18.292  28.417   8.264
 2248POPC   C3A30701  18.279  28.404   7.964
 2248POPC   C4A30702  18.283  28.415   7.664
 2248POPC   C1B30703  18.406  28.609   8.564
 2248POPC   C2B30704  18.417  28.562   8.264
 2248POPC   C3B30705  18.411  28.635   7.964
 2248POPC   C4B30706  18.362  28.545   7.664
 2249POPC   NC330707   2.038  21.409   9.464
 2249POPC   PO430708   1.940  21.381   9.164
 2249POPC   GL130709   2.033  21.418   8.864
 2249POPC   GL230710   1.850  21.453   8.864
 2249POPC   C1A30711   1.979  21.408   8.564
 2249POPC   D2A30712   1.993  21.404   8.264
 2249POPC   C3A30713   1.989  21.359   7.964
 2249POPC   C4A30714   2.004  21.426   7.664
 2249POPC   C1B30715   1.739  21.475   8.564
 2249POPC   C2B30716   1.772  21.441   8.264
 2249POPC   C3B30717   1.757  21.465   7.964
 2249POPC   C4B30718   1.758  21.424   7.664
 2250POPC   NC330719  44.682  15.149   9.464
 2250POPC   PO430720  44.643  15.133   9.164
 2250POPC   GL130721  44.627  15.131   8.864
 2250POPC   GL230722  44.615  15.063   8.864
 2250POPC   C1A30723  44.645  15.201   8.564
 2250POPC   D2A30724  44.619  15.182   8.264
 2250POPC   C3A30725  44.626  15.213   7.964
 2250POPC   C4A30726  44.710  15.161   7.664
 2250POPC   C1B30727  44.617  14.966   8.564
 2250POPC   C2B30728  44.568  14.919   8.264
 2250POPC   C3B30729  44.617  14.887   7.964
 2250POPC   C4B30730  44.661  14.900   7.664
 2251POPC   NC330731  21.405   5.134   9.464
 2251POPC   PO430732  21.352   5.089   9.164
 2251POPC   GL130733  21.428   5.108   8.864
 2251POPC   GL230734  21.428   5.234   8.864
 2251POPC   C1A30735  21.408   5.062   8.564
 2251POPC   D2A30736  21.357   5.071   8.264
 2251POPC   C3A30737  21.417   5.112   7.964
 2251POPC   C4A30738  21.362   5.079   7.664
 2251POPC   C1B30739  21.553   5.300   8.564
 2251POPC   C2B30740  21.484   5.351   8.264
 2251POPC   C3B30741  21.530   5.288   7.964
 2251POPC   C4B30742  21.512   5.279   7.664
 2252POPC   NC330743  20.618  21.347   9.464
 2252POPC   PO430744  20.639  21.394   9.164
 2252POPC   GL130745  20.574  21.407   8.864
 2252POPC   GL230746  20.475  21.374   8.864
 2252POPC   C1A30747  20.625  21.345   8.564
 2252POPC   D2A30748  20.606  21.374   8.264
 2252POPC   C3A30749  20.648  21.373   7.964
 2252POPC   C4A30750  20.603  21.376   7.664
 2252POPC   C1B30751  20.342  21.337   8.564
 2252POPC   C2B30752  20.365  21.274   8.264
 2252POPC   C3B30753  20.391  21.255   7.964
 2252POPC   C4B30754  20.370  21.350   7.664
 2253POPC   NC330755  10.520  18.302   9.464
 2253POPC   PO430756  10.493  18.284   9.164
 2253POPC   GL130757  10.572  18.295   8.864
 2253POPC   GL230758  10.677  18.220   8.864
 2253POPC   C1A30759  10.519  18.296   8.564
 2253POPC   D2A30760  10.491  18.261   8.264
 2253POPC   C3A30761  10.536  18.299   7.964
 2253POPC   C4A30762  10.548  18.274   7.664
 2253POPC   C1B30763  10.765  18.163   8.564
 2253POPC   C2B30764  10.716  18.216   8.264
 2253POPC   C3B30765  10.757  18.203   7.964
 2253POPC   C4B30766  10.726  18.220   7.664
 2254POPC   NC330767  21.373  12.055   9.464
 2254POPC   PO430768  21.386  12.091   9.164
 2254POPC   GL130769  21.373  12.085   8.864
 2254POPC   GL230770  21.332  11.947   8.864
 2254POPC   C1A30771  21.355  12.064   8.564
 2254POPC   D2A30772  21.385  12.120   8.264
 2254POPC   C3A30773  21.387  12.119   7.964
 2254POPC   C4A30774  21.391  12.099   7.664
 2254POPC   C1B30775  21.283  11.860   8.564
 2254POPC   C2B30776  21.282  11.871   8.264
 2254POPC   C3B30777  21.227  11.832   7.964
 2254POPC   C4B30778  21.233  11.836   7.664
 2255POPC   NC330779   0.411  28.371   9.464
 2255POPC   PO430780   0.476  28.361   9.164
 2255POPC   GL130781   0.471  28.342   8.864
 2255POPC   GL230782   0.287  28.274   8.864
 2255POPC   C1A30783   0.436  28.416   8.564
 2255POPC   D2A30784   0.403  28.338   8.264
 2255POPC   C3A30785   0.475  28.354   7.964
 2255POPC   C4A30786   0.424  28.395   7.664
 2255POPC   C1B30787   0.257  28.271   8.564
 2255POPC   C2B30788   0.230  28.194   8.264
 2255POPC   C3B30789   0.220  28.214   7.964
 2255POPC   C4B30790   0.214  28.223   7.664
 2256POPC   NC330791  15.187  41.537   9.464
 2256POPC   PO430792  15.218  41.569   9.164
 2256POPC   GL130793  15.211  41.535   8.864
 2256POPC   GL230794  15.074  41.678   8.864
 2256POPC   C1A30795  15.163  41.585   8.564
 2256POPC   D2A30796  15.196  41.537   8.264
 2256POPC   C3A30797  15.138  41.587   7.964
 2256POPC   C4A30798  15.223  41.582   7.664
 2256POPC   C1B30799  15.100  41.750   8.564
 2256POPC   C2B30800  15.043  41.784   8.264
 2256POPC   C3B30801  15.079  41.805   7.964
 2256POPC   C4B30802  15.060  41.736   7.664
 2257POPC   NC330803  19.017  16.694   9.464
 2257POPC   PO430804  19.063  16.748   9.164
 2257POPC   GL130805  19.076  16.699   8.864
 2257POPC   GL230806  19.109  16.643   8.864
 2257POPC   C1A30807  19.054  16.700   8.564
 2257POPC   D2A30808  19.060  16.746   8.264
 2257POPC   C3A30809  19.060  16.752   7.964
 2257POPC   C4A30810  19.087  16.770   7.664
 2257POPC   C1B30811  19.234  16.549   8.564
 2257POPC   C2B30812  19.225  16.572   8.264
 2257POPC   C3B30813  19.228  16.610   7.964
 2257POPC   C4B30814  19.256  16.552   7.664
 2258POPC   NC330815  22.984  11.252   9.464
 2258POPC   PO430816  22.897  11.263   9.164
 2258POPC   GL130817  22.909  11.273   8.864
 2258POPC   GL230818  22.960  11.141   8.864
 2258POPC   C1A30819  22.905  11.270   8.564
 2258POPC   D2A30820  22.901  11.266   8.264
 2258POPC   C3A30821  22.916  11.347   7.964
 2258POPC   C4A30822  22.892  11.316   7.664
 2258POPC   C1B30823  22.938  11.065   8.564
 2258POPC   C2B30824  22.918  11.003   8.264
 2258POPC   C3B30825  22.950  11.050   7.964
 2258POPC   C4B30826  22.938  11.052   7.664
 2259POPC   NC330827  32.253   1.998   9.464
 2259POPC   PO430828  32.211   1.984   9.164
 2259POPC   GL130829  32.269   2.035   8.864
 2259POPC   GL230830  32.154   1.877   8.864
 2259POPC   C1A30831  32.220   1.982   8.564
 2259POPC   D2A30832  32.225   1.961   8.264
 2259POPC   C3A30833  32.219   2.021   7.964
 2259POPC   C4A30834  32.227   1.948   7.664
 2259POPC   C1B30835  32.164   1.793   8.564
 2259POPC   C2B30836  32.195   1.727   8.264
 2259POPC   C3B30837  32.157   1.727   7.964
 2259POPC   C4B30838  32.155   1.711   7.664
 2260POPC   NC330839  43.880   9.764   9.464
 2260POPC   PO430840  43.864   9.781   9.164
 2260POPC   GL130841  43.929   9.753   8.864
 2260POPC   GL230842  43.961   9.793   8.864
 2260POPC   C1A30843  43.843   9.793   8.564
 2260POPC   D2A30844  43.905   9.710   8.264
 2260POPC   C3A30845  43.932   9.736   7.964
 2260POPC   C4A30846  43.936   9.792   7.664
 2260POPC   C1B30847  44.077   9.851   8.564
 2260POPC   C2B30848  44.126   9.890   8.264
 2260POPC   C3B30849  44.150   9.869   7.964
 2260POPC   C4B30850  44.095   9.904   7.664
 2261POPC   NC330851  40.008  30.649   9.464
 2261POPC   PO430852  39.984  30.726   9.164
 2261POPC   GL130853  39.977  30.661   8.864
 2261POPC   GL230854  39.909  30.711   8.864
 2261POPC   C1A30855  40.046  30.649   8.564
 2261POPC   D2A30856  40.019  30.663   8.264
 2261POPC   C3A30857  39.986  30.734   7.964
 2261POPC   C4A30858  40.025  30.682   7.664
 2261POPC   C1B30859  39.813  30.759   8.564
 2261POPC   C2B30860  39.766  30.792   8.264
 2261POPC   C3B30861  39.816  30.770   7.964
 2261POPC   C4B30862  39.754  30.834   7.664
 2262POPC   NC330863  28.393  43.932   9.464
 2262POPC   PO430864  28.409  43.935   9.164
 2262POPC   GL130865  28.381  43.866   8.864
 2262POPC   GL230866  28.375  43.794   8.864
 2262POPC   C1A30867  28.375  43.929   8.564
 2262POPC   D2A30868  28.410  43.925   8.264
 2262POPC   C3A30869  28.323  43.870   7.964
 2262POPC   C4A30870  28.337  43.921   7.664
 2262POPC   C1B30871  28.323  43.629   8.564
 2262POPC   C2B30872  28.316  43.675   8.264
 2262POPC   C3B30873  28.359  43.682   7.964
 2262POPC   C4B30874  28.380  43.593   7.664
 2263POPC   NC330875  44.619   1.997   9.464
 2263POPC   PO430876  44.632   1.950   9.164
 2263POPC   GL130877  44.698   2.034   8.864
 2263POPC   GL230878  44.745   1.910   8.864
 2263POPC   C1A30879  44.705   1.947   8.564
 2263POPC   D2A30880  44.664   1.969   8.264
 2263POPC   C3A30881  44.666   2.039   7.964
 2263POPC   C4A30882  44.700   1.994   7.664
 2263POPC   C1B30883  44.852   1.778   8.564
 2263POPC   C2B30884  44.868   1.803   8.264
 2263POPC   C3B30885  44.811   1.784   7.964
 2263POPC   C4B30886  44.873   1.757   7.664
 2264POPC   NC330887  26.053  12.855   9.464
 2264POPC   PO430888  26.053  12.823   9.164
 2264POPC   GL130889  26.024  12.816   8.864
 2264POPC   GL230890  26.163  12.849   8.864
 2264POPC   C1A30891  26.007  12.863   8.564
 2264POPC   D2A30892  26.037  12.871   8.264
 2264POPC   C3A30893  25.998  12.839   7.964
 2264POPC   C4A30894  26.067  12.815   7.664
 2264POPC   C1B30895  26.278  12.906   8.564
 2264POPC   C2B30896  26.338  12.864   8.264
 2264POPC   C3B30897  26.242  12.854   7.964
 2264POPC   C4B30898  26.310  12.896   7.664
 2265POPC   NC330899  28.350  15.143   9.464
 2265POPC   PO430900  28.360  15.186   9.164
 2265POPC   GL130901  28.372  15.150   8.864
 2265POPC   GL230902  28.497  15.098   8.864
 2265POPC   C1A30903  28.357  15.157   8.564
 2265POPC   D2A30904  28.418  15.183   8.264
 2265POPC   C3A30905  28.324  15.136   7.964
 2265POPC   C4A30906  28.350  15.156   7.664
 2265POPC   C1B30907  28.613  15.082   8.564
 2265POPC   C2B30908  28.627  15.052   8.264
 2265POPC   C3B30909  28.625  15.110   7.964
 2265POPC   C4B30910  28.616  15.119   7.664
 2266POPC   NC330911  38.426  27.611   9.464
 2266POPC   PO430912  38.469  27.579   9.164
 2266POPC   GL130913  38.423  27.621   8.864
 2266POPC   GL230914  38.504  27.726   8.864
 2266POPC   C1A30915  38.477  27.558   8.564
 2266POPC   D2A30916  38.501  27.588   8.264
 2266POPC   C3A30917  38.459  27.607   7.964
 2266POPC   C4A30918  38.484  27.552   7.664
 2266POPC   C1B30919  38.620  27.795   8.564
 2266POPC   C2B30920  38.556  27.777   8.264
 2266POPC   C3B30921  38.623  27.842   7.964
 2266POPC   C4B30922  38.581  27.829   7.664
 2267POPC   NC330923  12.084  40.018   9.464
 2267POPC   PO430924  12.091  39.990   9.164
 2267POPC   GL130925  12.050  39.967   8.864
 2267POPC   GL230926  12.228  40.085   8.864
 2267POPC   C1A30927  12.030  40.012   8.564
 2267POPC   D2A30928  12.105  40.022   8.264
 2267POPC   C3A30929  12.102  40.038   7.964
 2267POPC   C4A30930  12.067  40.043   7.664
 2267POPC   C1B30931  12.305  40.152   8.564
 2267POPC   C2B30932  12.237  40.109   8.264
 2267POPC   C3B30933  12.287  40.148   7.964
 2267POPC   C4B30934  12.317  40.172   7.664
 2268POPC   NC330935  39.219   7.462   9.464
 2268POPC   PO430936  39.244   7.398   9.164
 2268POPC   GL130937  39.241   7.379   8.864
 2268POPC   GL230938  39.242   7.512   8.864
 2268POPC   C1A30939  39.187   7.395   8.564
 2268POPC   D2A30940  39.217   7.409   8.264
 2268POPC   C3A30941  39.207   7.407   7.964
 2268POPC   C4A30942  39.212   7.406   7.664
 2268POPC   C1B30943  39.169   7.714   8.564
 2268POPC   C2B30944  39.253   7.649   8.264
 2268POPC   C3B30945  39.240   7.682   7.964
 2268POPC   C4B30946  39.217   7.646   7.664
 2269POPC   NC330947  26.063  21.422   9.464
 2269POPC   PO430948  26.090  21.433   9.164
 2269POPC   GL130949  26.056  21.435   8.864
 2269POPC   GL230950  26.061  21.317   8.864
 2269POPC   C1A30951  26.073  21.383   8.564
 2269POPC   D2A30952  26.089  21.394   8.264
 2269POPC   C3A30953  26.048  21.351   7.964
 2269POPC   C4A30954  26.053  21.427   7.664
 2269POPC   C1B30955  26.163  21.175   8.564
 2269POPC   C2B30956  26.182  21.177   8.264
 2269POPC   C3B30957  26.187  21.165   7.964
 2269POPC   C4B30958  26.106  21.121   7.664
 2270POPC   NC330959  29.100  13.585   9.464
 2270POPC   PO430960  29.177  13.662   9.164
 2270POPC   GL130961  29.153  13.626   8.864
 2270POPC   GL230962  29.061  13.612   8.864
 2270POPC   C1A30963  29.178  13.634   8.564
 2270POPC   D2A30964  29.139  13.647   8.264
 2270POPC   C3A30965  29.131  13.604   7.964
 2270POPC   C4A30966  29.189  13.595   7.664
 2270POPC   C1B30967  28.928  13.525   8.564
 2270POPC   C2B30968  28.856  13.541   8.264
 2270POPC   C3B30969  28.887  13.569   7.964
 2270POPC   C4B30970  28.900  13.588   7.664
 2271POPC   NC330971  22.900   4.353   9.464
 2271POPC   PO430972  22.915   4.275   9.164
 2271POPC   GL130973  22.972   4.293   8.864
 2271POPC   GL230974  22.821   4.367   8.864
 2271POPC   C1A30975  22.940   4.359   8.564
 2271POPC   D2A30976  22.903   4.336   8.264
 2271POPC   C3A30977  22.904   4.329   7.964
 2271POPC   C4A30978  22.959   4.364   7.664
 2271POPC   C1B30979  22.720   4.371   8.564
 2271POPC   C2B30980  22.660   4.348   8.264
 2271POPC   C3B30981  22.701   4.349   7.964
 2271POPC   C4B30982  22.673   4.314   7.664
 2272POPC   NC330983  40.737  26.047   9.464
 2272POPC   PO430984  40.816  25.994   9.164
 2272POPC   GL130985  40.779  26.006   8.864
 2272POPC   GL230986  40.696  25.923   8.864
 2272POPC   C1A30987  40.811  26.074   8.564
 2272POPC   D2A30988  40.736  26.069   8.264
 2272POPC   C3A30989  40.808  26.037   7.964
 2272POPC   C4A30990  40.819  26.020   7.664
 2272POPC   C1B30991  40.646  25.856   8.564
 2272POPC   C2B30992  40.570  25.863   8.264
 2272POPC   C3B30993  40.638  25.817   7.964
 2272POPC   C4B30994  40.608  25.833   7.664
 2273POPC   NC330995  19.843  36.117   9.464
 2273POPC   PO430996  19.861  36.086   9.164
 2273POPC   GL130997  19.820  36.106   8.864
 2273POPC   GL230998  19.907  36.297   8.864
 2273POPC   C1A30999  19.826  36.135   8.564
 2273POPC   D2A31000  19.795  36.099   8.264
 2273POPC   C3A31001  19.875  36.112   7.964
 2273POPC   C4A31002  19.803  36.140   7.664
 2273POPC   C1B31003  19.882  36.421   8.564
 2273POPC   C2B31004  19.905  36.347   8.264
 2273POPC   C3B31005  19.919  36.350   7.964
 2273POPC   C4B31006  19.860  36.324   7.664
 2274POPC   NC331007   0.432   6.618   9.464
 2274POPC   PO431008   0.485   6.603   9.164
 2274POPC   GL131009   0.480   6.690   8.864
 2274POPC   GL231010   0.510   6.511   8.864
 2274POPC   C1A31011   0.423   6.612   8.564
 2274POPC   D2A31012   0.393   6.666   8.264
 2274POPC   C3A31013   0.424   6.628   7.964
 2274POPC   C4A31014   0.389   6.636   7.664
 2274POPC   C1B31015   0.529   6.396   8.564
 2274POPC   C2B31016   0.522   6.452   8.264
 2274POPC   C3B31017   0.535   6.396   7.964
 2274POPC   C4B31018   0.546   6.374   7.664
 2275POPC   NC331019  12.060  19.064   9.464
 2275POPC   PO431020  12.069  19.062   9.164
 2275POPC   GL131021  12.108  19.074   8.864
 2275POPC   GL231022  12.157  18.988   8.864
 2275POPC   C1A31023  12.046  19.089   8.564
 2275POPC   D2A31024  12.126  19.094   8.264
 2275POPC   C3A31025  12.075  19.105   7.964
 2275POPC   C4A31026  12.081  19.031   7.664
 2275POPC   C1B31027  12.234  18.852   8.564
 2275POPC   C2B31028  12.264  18.803   8.264
 2275POPC   C3B31029  12.229  18.895   7.964
 2275POPC   C4B31030  12.252  18.878   7.664
 2276POPC   NC331031  13.650  15.906   9.464
 2276POPC   PO431032  13.641  15.963   9.164
 2276POPC   GL131033  13.603  15.958   8.864
 2276POPC   GL231034  13.500  16.016   8.864
 2276POPC   C1A31035  13.610  15.951   8.564
 2276POPC   D2A31036  13.595  15.975   8.264
 2276POPC   C3A31037  13.640  15.960   7.964
 2276POPC   C4A31038  13.647  15.930   7.664
 2276POPC   C1B31039  13.459  16.152   8.564
 2276POPC   C2B31040  13.413  16.143   8.264
 2276POPC   C3B31041  13.453  16.091   7.964
 2276POPC   C4B31042  13.446  16.089   7.664
 2277POPC   NC331043  32.216  36.868   9.464
 2277POPC   PO431044  32.242  36.934   9.164
 2277POPC   GL131045  32.210  36.937   8.864
 2277POPC   GL231046  32.168  36.983   8.864
 2277POPC   C1A31047  32.205  36.932   8.564
 2277POPC   D2A31048  32.258  36.914   8.264
 2277POPC   C3A31049  32.259  36.864   7.964
 2277POPC   C4A31050  32.282  36.905   7.664
 2277POPC   C1B31051  32.112  37.064   8.564
 2277POPC   C2B31052  32.042  37.047   8.264
 2277POPC   C3B31053  32.085  37.092   7.964
 2277POPC   C4B31054  32.049  37.047   7.664
 2278POPC   NC331055   0.479   4.343   9.464
 2278POPC   PO431056   0.478   4.340   9.164
 2278POPC   GL131057   0.421   4.357   8.864
 2278POPC   GL231058   0.547   4.330   8.864
 2278POPC   C1A31059   0.395   4.314   8.564
 2278POPC   D2A31060   0.469   4.356   8.264
 2278POPC   C3A31061   0.462   4.304   7.964
 2278POPC   C4A31062   0.434   4.314   7.664
 2278POPC   C1B31063   0.655   4.326   8.564
 2278POPC   C2B31064   0.693   4.335   8.264
 2278POPC   C3B31065   0.699   4.311   7.964
 2278POPC   C4B31066   0.673   4.354   7.664
 2279POPC   NC331067  22.916   1.257   9.464
 2279POPC   PO431068  22.966   1.182   9.164
 2279POPC   GL131069  22.954   1.190   8.864
 2279POPC   GL231070  22.869   1.334   8.864
 2279POPC   C1A31071  22.939   1.181   8.564
 2279POPC   D2A31072  22.929   1.165   8.264
 2279POPC   C3A31073  22.917   1.193   7.964
 2279POPC   C4A31074  22.968   1.253   7.664
 2279POPC   C1B31075  22.769   1.331   8.564
 2279POPC   C2B31076  22.775   1.319   8.264
 2279POPC   C3B31077  22.706   1.389   7.964
 2279POPC   C4B31078  22.696   1.361   7.664
 2280POPC   NC331079   2.005  14.416   9.464
 2280POPC   PO431080   1.941  14.368   9.164
 2280POPC   GL131081   2.005  14.427   8.864
 2280POPC   GL231082   2.081  14.295   8.864
 2280POPC   C1A31083   2.014  14.442   8.564
 2280POPC   D2A31084   1.967  14.411   8.264
 2280POPC   C3A31085   1.971  14.408   7.964
 2280POPC   C4A31086   2.006  14.405   7.664
 2280POPC   C1B31087   2.214  14.301   8.564
 2280POPC   C2B31088   2.207  14.213   8.264
 2280POPC   C3B31089   2.174  14.279   7.964
 2280POPC   C4B31090   2.203  14.251   7.664
 2281POPC   NC331091  17.545  36.947   9.464
 2281POPC   PO431092  17.469  36.945   9.164
 2281POPC   GL131093  17.523  36.915   8.864
 2281POPC   GL231094  17.348  36.929   8.864
 2281POPC   C1A31095  17.462  36.918   8.564
 2281POPC   D2A31096  17.543  36.873   8.264
 2281POPC   C3A31097  17.464  36.914   7.964
 2281POPC   C4A31098  17.549  36.892   7.664
 2281POPC   C1B31099  17.242  36.995   8.564
 2281POPC   C2B31100  17.298  37.058   8.264
 2281POPC   C3B31101  17.248  37.065   7.964
 2281POPC   C4B31102  17.303  37.021   7.664
 2282POPC   NC331103   3.539   2.761   9.464
 2282POPC   PO431104   3.510   2.766   9.164
 2282POPC   GL131105   3.539   2.803   8.864
 2282POPC   GL231106   3.658   2.693   8.864
 2282POPC   C1A31107   3.529   2.761   8.564
 2282POPC   D2A31108   3.554   2.791   8.264
 2282POPC   C3A31109   3.584   2.813   7.964
 2282POPC   C4A31110   3.542   2.720   7.664
 2282POPC   C1B31111   3.712   2.563   8.564
 2282POPC   C2B31112   3.672   2.616   8.264
 2282POPC   C3B31113   3.761   2.599   7.964
 2282POPC   C4B31114   3.765   2.544   7.664
 2283POPC   NC331115  18.330  17.549   9.464
 2283POPC   PO431116  18.267  17.475   9.164
 2283POPC   GL131117  18.248  17.526   8.864
 2283POPC   GL231118  18.367  17.496   8.864
 2283POPC   C1A31119  18.303  17.480   8.564
 2283POPC   D2A31120  18.249  17.554   8.264
 2283POPC   C3A31121  18.317  17.551   7.964
 2283POPC   C4A31122  18.289  17.515   7.664
 2283POPC   C1B31123  18.545  17.591   8.564
 2283POPC   C2B31124  18.498  17.519   8.264
 2283POPC   C3B31125  18.534  17.558   7.964
 2283POPC   C4B31126  18.496  17.551   7.664
 2284POPC   NC331127  35.367  35.371   9.464
 2284POPC   PO431128  35.351  35.359   9.164
 2284POPC   GL131129  35.319  35.327   8.864
 2284POPC   GL231130  35.183  35.303   8.864
 2284POPC   C1A31131  35.350  35.362   8.564
 2284POPC   D2A31132  35.332  35.307   8.264
 2284POPC   C3A31133  35.357  35.401   7.964
 2284POPC   C4A31134  35.387  35.302   7.664
 2284POPC   C1B31135  35.122  35.341   8.564
 2284POPC   C2B31136  35.126  35.299   8.264
 2284POPC   C3B31137  35.093  35.309   7.964
 2284POPC   C4B31138  35.113  35.319   7.664
 2285POPC   NC331139  11.276  22.987   9.464
 2285POPC   PO431140  11.265  22.913   9.164
 2285POPC   GL131141  11.284  22.928   8.864
 2285POPC   GL231142  11.399  23.062   8.864
 2285POPC   C1A31143  11.295  22.908   8.564
 2285POPC   D2A31144  11.340  22.930   8.264
 2285POPC   C3A31145  11.283  22.932   7.964
 2285POPC   C4A31146  11.347  22.950   7.664
 2285POPC   C1B31147  11.451  23.173   8.564
 2285POPC   C2B31148  11.413  23.146   8.264
 2285POPC   C3B31149  11.479  23.101   7.964
 2285POPC   C4B31150  11.498  23.106   7.664
 2286POPC   NC331151  16.762  36.860   9.464
 2286POPC   PO431152  16.714  36.885   9.164
 2286POPC   GL131153  16.685  36.884   8.864
 2286POPC   GL231154  16.636  36.943   8.864
 2286POPC   C1A31155  16.763  36.898   8.564
 2286POPC   D2A31156  16.777  36.878   8.264
 2286POPC   C3A31157  16.736  36.909   7.964
 2286POPC   C4A31158  16.684  36.948   7.664
 2286POPC   C1B31159  16.485  37.016   8.564
 2286POPC   C2B31160  16.483  37.033   8.264
 2286POPC   C3B31161  16.499  36.962   7.964
 2286POPC   C4B31162  16.501  36.997   7.664
 2287POPC   NC331163  14.440  22.170   9.464
 2287POPC   PO431164  14.366  22.123   9.164
 2287POPC   GL131165  14.389  22.119   8.864
 2287POPC   GL231166  14.442  22.025   8.864
 2287POPC   C1A31167  14.407  22.166   8.564
 2287POPC   D2A31168  14.442  22.125   8.264
 2287POPC   C3A31169  14.370  22.132   7.964
 2287POPC   C4A31170  14.366  22.149   7.664
 2287POPC   C1B31171  14.336  21.930   8.564
 2287POPC   C2B31172  14.414  21.949   8.264
 2287POPC   C3B31173  14.405  21.866   7.964
 2287POPC   C4B31174  14.394  21.928   7.664
 2288POPC   NC331175  25.228  34.553   9.464
 2288POPC   PO431176  25.286  34.579   9.164
 2288POPC   GL131177  25.308  34.594   8.864
 2288POPC   GL231178  25.306  34.633   8.864
 2288POPC   C1A31179  25.238  34.538   8.564
 2288POPC   D2A31180  25.243  34.587   8.264
 2288POPC   C3A31181  25.235  34.595   7.964
 2288POPC   C4A31182  25.291  34.608   7.664
 2288POPC   C1B31183  25.405  34.732   8.564
 2288POPC   C2B31184  25.392  34.704   8.264
 2288POPC   C3B31185  25.462  34.757   7.964
 2288POPC   C4B31186  25.420  34.784   7.664
 2289POPC   NC331187   2.793  36.870   9.464
 2289POPC   PO431188   2.723  36.922   9.164
 2289POPC   GL131189   2.809  36.900   8.864
 2289POPC   GL231190   2.883  36.794   8.864
 2289POPC   C1A31191   2.719  36.916   8.564
 2289POPC   D2A31192   2.791  36.923   8.264
 2289POPC   C3A31193   2.736  36.900   7.964
 2289POPC   C4A31194   2.810  36.869   7.664
 2289POPC   C1B31195   2.955  36.693   8.564
 2289POPC   C2B31196   2.925  36.732   8.264
 2289POPC   C3B31197   2.903  36.780   7.964
 2289POPC   C4B31198   2.947  36.702   7.664
 2290POPC   NC331199  26.067  33.763   9.464
 2290POPC   PO431200  26.086  33.792   9.164
 2290POPC   GL131201  26.059  33.762   8.864
 2290POPC   GL231202  25.897  33.837   8.864
 2290POPC   C1A31203  26.036  33.841   8.564
 2290POPC   D2A31204  26.025  33.847   8.264
 2290POPC   C3A31205  26.027  33.818   7.964
 2290POPC   C4A31206  26.002  33.763   7.664
 2290POPC   C1B31207  25.797  33.792   8.564
 2290POPC   C2B31208  25.819  33.803   8.264
 2290POPC   C3B31209  25.797  33.799   7.964
 2290POPC   C4B31210  25.842  33.857   7.664
 2291POPC   NC331211   5.829  12.038   9.464
 2291POPC   PO431212   5.831  12.105   9.164
 2291POPC   GL131213   5.859  12.033   8.864
 2291POPC   GL231214   5.897  11.967   8.864
 2291POPC   C1A31215   5.899  12.089   8.564
 2291POPC   D2A31216   5.859  12.114   8.264
 2291POPC   C3A31217   5.877  12.047   7.964
 2291POPC   C4A31218   5.903  12.110   7.664
 2291POPC   C1B31219   6.028  11.872   8.564
 2291POPC   C2B31220   5.965  11.902   8.264
 2291POPC   C3B31221   5.936  11.887   7.964
 2291POPC   C4B31222   5.950  11.807   7.664
 2292POPC   NC331223  11.322   2.724   9.464
 2292POPC   PO431224  11.263   2.771   9.164
 2292POPC   GL131225  11.318   2.747   8.864
 2292POPC   GL231226  11.248   2.873   8.864
 2292POPC   C1A31227  11.342   2.723   8.564
 2292POPC   D2A31228  11.344   2.760   8.264
 2292POPC   C3A31229  11.289   2.808   7.964
 2292POPC   C4A31230  11.265   2.773   7.664
 2292POPC   C1B31231  11.134   2.910   8.564
 2292POPC   C2B31232  11.125   2.922   8.264
 2292POPC   C3B31233  11.096   2.899   7.964
 2292POPC   C4B31234  11.067   2.907   7.664
 2293POPC   NC331235   5.099   1.170   9.464
 2293POPC   PO431236   5.116   1.214   9.164
 2293POPC   GL131237   5.119   1.174   8.864
 2293POPC   GL231238   5.003   1.205   8.864
 2293POPC   C1A31239   5.125   1.179   8.564
 2293POPC   D2A31240   5.055   1.255   8.264
 2293POPC   C3A31241   5.097   1.184   7.964
 2293POPC   C4A31242   5.123   1.236   7.664
 2293POPC   C1B31243   4.842   1.165   8.564
 2293POPC   C2B31244   4.891   1.168   8.264
 2293POPC   C3B31245   4.875   1.140   7.964
 2293POPC   C4B31246   4.872   1.174   7.664
 2294POPC   NC331247  23.698   4.277   9.464
 2294POPC   PO431248  23.747   4.304   9.164
 2294POPC   GL131249  23.763   4.320   8.864
 2294POPC   GL231250  23.689   4.470   8.864
 2294POPC   C1A31251  23.705   4.272   8.564
 2294POPC   D2A31252  23.730   4.313   8.264
 2294POPC   C3A31253  23.742   4.278   7.964
 2294POPC   C4A31254  23.720   4.365   7.664
 2294POPC   C1B31255  23.661   4.599   8.564
 2294POPC   C2B31256  23.644   4.536   8.264
 2294POPC   C3B31257  23.639   4.568   7.964
 2294POPC   C4B31258  23.666   4.573   7.664
 2295POPC   NC331259  33.849  31.476   9.464
 2295POPC   PO431260  33.750  31.490   9.164
 2295POPC   GL131261  33.816  31.493   8.864
 2295POPC   GL231262  33.715  31.370   8.864
 2295POPC   C1A31263  33.831  31.498   8.564
 2295POPC   D2A31264  33.807  31.516   8.264
 2295POPC   C3A31265  33.800  31.463   7.964
 2295POPC   C4A31266  33.778  31.449   7.664
 2295POPC   C1B31267  33.735  31.230   8.564
 2295POPC   C2B31268  33.655  31.231   8.264
 2295POPC   C3B31269  33.703  31.210   7.964
 2295POPC   C4B31270  33.654  31.196   7.664
 2296POPC   NC331271  42.363  23.730   9.464
 2296POPC   PO431272  42.317  23.670   9.164
 2296POPC   GL131273  42.384  23.760   8.864
 2296POPC   GL231274  42.415  23.609   8.864
 2296POPC   C1A31275  42.319  23.685   8.564
 2296POPC   D2A31276  42.324  23.743   8.264
 2296POPC   C3A31277  42.327  23.740   7.964
 2296POPC   C4A31278  42.293  23.723   7.664
 2296POPC   C1B31279  42.504  23.570   8.564
 2296POPC   C2B31280  42.550  23.534   8.264
 2296POPC   C3B31281  42.559  23.599   7.964
 2296POPC   C4B31282  42.585  23.614   7.664
 2297POPC   NC331283  18.307  30.722   9.464
 2297POPC   PO431284  18.295  30.699   9.164
 2297POPC   GL131285  18.328  30.693   8.864
 2297POPC   GL231286  18.370  30.636   8.864
 2297POPC   C1A31287  18.259  30.695   8.564
 2297POPC   D2A31288  18.310  30.743   8.264
 2297POPC   C3A31289  18.260  30.686   7.964
 2297POPC   C4A31290  18.330  30.661   7.664
 2297POPC   C1B31291  18.410  30.546   8.564
 2297POPC   C2B31292  18.468  30.474   8.264
 2297POPC   C3B31293  18.470  30.529   7.964
 2297POPC   C4B31294  18.411  30.564   7.664
 2298POPC   NC331295  11.252  44.622   9.464
 2298POPC   PO431296  11.270  44.701   9.164
 2298POPC   GL131297  11.301  44.690   8.864
 2298POPC   GL231298  11.376  44.669   8.864
 2298POPC   C1A31299  11.313  44.654   8.564
 2298POPC   D2A31300  11.341  44.643   8.264
 2298POPC   C3A31301  11.259  44.665   7.964
 2298POPC   C4A31302  11.316  44.674   7.664
 2298POPC   C1B31303  11.557  44.776   8.564
 2298POPC   C2B31304  11.551  44.776   8.264
 2298POPC   C3B31305  11.499  44.785   7.964
 2298POPC   C4B31306  11.489  44.735   7.664
 2299POPC   NC331307  29.118  23.664   9.464
 2299POPC   PO431308  29.120  23.723   9.164
 2299POPC   GL131309  29.127  23.714   8.864
 2299POPC   GL231310  29.035  23.723   8.864
 2299POPC   C1A31311  29.162  23.725   8.564
 2299POPC   D2A31312  29.165  23.745   8.264
 2299POPC   C3A31313  29.130  23.749   7.964
 2299POPC   C4A31314  29.099  23.727   7.664
 2299POPC   C1B31315  28.925  23.783   8.564
 2299POPC   C2B31316  28.907  23.803   8.264
 2299POPC   C3B31317  28.890  23.847   7.964
 2299POPC   C4B31318  28.880  23.835   7.664
 2300POPC   NC331319  36.110  11.295   9.464
 2300POPC   PO431320  36.146  11.294   9.164
 2300POPC   GL131321  36.097  11.277   8.864
 2300POPC   GL231322  36.068  11.243   8.864
 2300POPC   C1A31323  36.139  11.260   8.564
 2300POPC   D2A31324  36.123  11.319   8.264
 2300POPC   C3A31325  36.102  11.291   7.964
 2300POPC   C4A31326  36.134  11.269   7.664
 2300POPC   C1B31327  35.893  11.129   8.564
 2300POPC   C2B31328  35.959  11.132   8.264
 2300POPC   C3B31329  35.915  11.195   7.964
 2300POPC   C4B31330  35.939  11.158   7.664
 2301POPC   NC331331   6.674  37.664   9.464
 2301POPC   PO431332   6.656  37.645   9.164
 2301POPC   GL131333   6.651  37.659   8.864
 2301POPC   GL231334   6.556  37.521   8.864
 2301POPC   C1A31335   6.676  37.681   8.564
 2301POPC   D2A31336   6.662  37.726   8.264
 2301POPC   C3A31337   6.692  37.674   7.964
 2301POPC   C4A31338   6.681  37.693   7.664
 2301POPC   C1B31339   6.546  37.459   8.564
 2301POPC   C2B31340   6.552  37.421   8.264
 2301POPC   C3B31341   6.594  37.452   7.964
 2301POPC   C4B31342   6.534  37.433   7.664
 2302POPC   NC331343  22.163  14.362   9.464
 2302POPC   PO431344  22.120  14.394   9.164
 2302POPC   GL131345  22.125  14.447   8.864
 2302POPC   GL231346  22.222  14.312   8.864
 2302POPC   C1A31347  22.199  14.406   8.564
 2302POPC   D2A31348  22.164  14.432   8.264
 2302POPC   C3A31349  22.136  14.390   7.964
 2302POPC   C4A31350  22.130  14.453   7.664
 2302POPC   C1B31351  22.230  14.130   8.564
 2302POPC   C2B31352  22.207  14.115   8.264
 2302POPC   C3B31353  22.251  14.132   7.964
 2302POPC   C4B31354  22.201  14.137   7.664
 2303POPC   NC331355   2.034  12.037   9.464
 2303POPC   PO431356   1.946  12.081   9.164
 2303POPC   GL131357   1.967  12.086   8.864
 2303POPC   GL231358   2.106  12.110   8.864
 2303POPC   C1A31359   2.026  12.115   8.564
 2303POPC   D2A31360   2.036  12.050   8.264
 2303POPC   C3A31361   1.940  12.095   7.964
 2303POPC   C4A31362   1.966  12.123   7.664
 2303POPC   C1B31363   2.197  12.136   8.564
 2303POPC   C2B31364   2.245  12.158   8.264
 2303POPC   C3B31365   2.245  12.081   7.964
 2303POPC   C4B31366   2.233  12.111   7.664
 2304POPC   NC331367  12.098  20.596   9.464
 2304POPC   PO431368  12.073  20.643   9.164
 2304POPC   GL131369  12.082  20.627   8.864
 2304POPC   GL231370  12.147  20.696   8.864
 2304POPC   C1A31371  12.052  20.631   8.564
 2304POPC   D2A31372  12.082  20.621   8.264
 2304POPC   C3A31373  12.108  20.598   7.964
 2304POPC   C4A31374  12.088  20.578   7.664
 2304POPC   C1B31375  12.115  20.887   8.564
 2304POPC   C2B31376  12.142  20.814   8.264
 2304POPC   C3B31377  12.124  20.823   7.964
 2304POPC   C4B31378  12.165  20.880   7.664
 2305POPC   NC331379  24.502  33.758   9.464
 2305POPC   PO431380  24.444  33.839   9.164
 2305POPC   GL131381  24.495  33.773   8.864
 2305POPC   GL231382  24.467  33.709   8.864
 2305POPC   C1A31383  24.516  33.790   8.564
 2305POPC   D2A31384  24.461  33.775   8.264
 2305POPC   C3A31385  24.503  33.802   7.964
 2305POPC   C4A31386  24.450  33.833   7.664
 2305POPC   C1B31387  24.426  33.560   8.564
 2305POPC   C2B31388  24.384  33.531   8.264
 2305POPC   C3B31389  24.365  33.598   7.964
 2305POPC   C4B31390  24.412  33.562   7.664
 2306POPC   NC331391  41.521  34.607   9.464
 2306POPC   PO431392  41.512  34.588   9.164
 2306POPC   GL131393  41.570  34.584   8.864
 2306POPC   GL231394  41.516  34.729   8.864
 2306POPC   C1A31395  41.573  34.583   8.564
 2306POPC   D2A31396  41.586  34.600   8.264
 2306POPC   C3A31397  41.566  34.569   7.964
 2306POPC   C4A31398  41.554  34.564   7.664
 2306POPC   C1B31399  41.422  34.825   8.564
 2306POPC   C2B31400  41.447  34.806   8.264
 2306POPC   C3B31401  41.404  34.762   7.964
 2306POPC   C4B31402  41.460  34.819   7.664
 2307POPC   NC331403   9.750   7.397   9.464
 2307POPC   PO431404   9.788   7.445   9.164
 2307POPC   GL131405   9.782   7.442   8.864
 2307POPC   GL231406   9.653   7.532   8.864
 2307POPC   C1A31407   9.772   7.395   8.564
 2307POPC   D2A31408   9.734   7.390   8.264
 2307POPC   C3A31409   9.791   7.422   7.964
 2307POPC   C4A31410   9.721   7.417   7.664
 2307POPC   C1B31411   9.523   7.525   8.564
 2307POPC   C2B31412   9.505   7.528   8.264
 2307POPC   C3B31413   9.568   7.605   7.964
 2307POPC   C4B31414   9.557   7.517   7.664
 2308POPC   NC331415  16.709   6.600   9.464
 2308POPC   PO431416  16.733   6.642   9.164
 2308POPC   GL131417  16.748   6.632   8.864
 2308POPC   GL231418  16.644   6.687   8.864
 2308POPC   C1A31419  16.715   6.606   8.564
 2308POPC   D2A31420  16.687   6.631   8.264
 2308POPC   C3A31421  16.750   6.688   7.964
 2308POPC   C4A31422  16.726   6.658   7.664
 2308POPC   C1B31423  16.534   6.725   8.564
 2308POPC   C2B31424  16.452   6.761   8.264
 2308POPC   C3B31425  16.518   6.766   7.964
 2308POPC   C4B31426  16.488   6.765   7.664
 2309POPC   NC331427   9.788  36.884   9.464
 2309POPC   PO431428   9.699  36.897   9.164
 2309POPC   GL131429   9.792  36.919   8.864
 2309POPC   GL231430   9.859  36.979   8.864
 2309POPC   C1A31431   9.758  36.920   8.564
 2309POPC   D2A31432   9.738  36.923   8.264
 2309POPC   C3A31433   9.732  36.935   7.964
 2309POPC   C4A31434   9.704  36.914   7.664
 2309POPC   C1B31435   9.975  36.996   8.564
 2309POPC   C2B31436   9.987  37.051   8.264
 2309POPC   C3B31437   9.999  36.996   7.964
 2309POPC   C4B31438   9.957  37.081   7.664
 2310POPC   NC331439   6.688  39.183   9.464
 2310POPC   PO431440   6.676  39.247   9.164
 2310POPC   GL131441   6.658  39.260   8.864
 2310POPC   GL231442   6.565  39.372   8.864
 2310POPC   C1A31443   6.623  39.230   8.564
 2310POPC   D2A31444   6.609  39.182   8.264
 2310POPC   C3A31445   6.694  39.188   7.964
 2310POPC   C4A31446   6.639  39.239   7.664
 2310POPC   C1B31447   6.523  39.402   8.564
 2310POPC   C2B31448   6.466  39.412   8.264
 2310POPC   C3B31449   6.451  39.442   7.964
 2310POPC   C4B31450   6.452  39.425   7.664
 2311POPC   NC331451   0.482  33.073   9.464
 2311POPC   PO431452   0.461  32.977   9.164
 2311POPC   GL131453   0.449  33.043   8.864
 2311POPC   GL231454   0.533  33.071   8.864
 2311POPC   C1A31455   0.416  32.987   8.564
 2311POPC   D2A31456   0.444  32.998   8.264
 2311POPC   C3A31457   0.452  33.049   7.964
 2311POPC   C4A31458   0.482  33.050   7.664
 2311POPC   C1B31459   0.614  33.226   8.564
 2311POPC   C2B31460   0.657  33.201   8.264
 2311POPC   C3B31461   0.657  33.207   7.964
 2311POPC   C4B31462   0.591  33.166   7.664
 2312POPC   NC331463  36.144  19.009   9.464
 2312POPC   PO431464  36.171  19.054   9.164
 2312POPC   GL131465  36.178  19.066   8.864
 2312POPC   GL231466  36.014  18.913   8.864
 2312POPC   C1A31467  36.175  19.050   8.564
 2312POPC   D2A31468  36.173  19.074   8.264
 2312POPC   C3A31469  36.138  19.020   7.964
 2312POPC   C4A31470  36.115  19.068   7.664
 2312POPC   C1B31471  35.976  18.829   8.564
 2312POPC   C2B31472  36.027  18.875   8.264
 2312POPC   C3B31473  36.010  18.867   7.964
 2312POPC   C4B31474  36.018  18.805   7.664
 2313POPC   NC331475  13.664  38.449   9.464
 2313POPC   PO431476  13.608  38.455   9.164
 2313POPC   GL131477  13.645  38.465   8.864
 2313POPC   GL231478  13.765  38.424   8.864
 2313POPC   C1A31479  13.631  38.481   8.564
 2313POPC   D2A31480  13.596  38.456   8.264
 2313POPC   C3A31481  13.597  38.412   7.964
 2313POPC   C4A31482  13.586  38.454   7.664
 2313POPC   C1B31483  13.889  38.407   8.564
 2313POPC   C2B31484  13.865  38.484   8.264
 2313POPC   C3B31485  13.900  38.482   7.964
 2313POPC   C4B31486  13.918  38.413   7.664
 2314POPC   NC331487  44.638  39.963   9.464
 2314POPC   PO431488  44.641  40.013   9.164
 2314POPC   GL131489  44.661  39.985   8.864
 2314POPC   GL231490  44.550  40.121   8.864
 2314POPC   C1A31491  44.658  40.050   8.564
 2314POPC   D2A31492  44.628  40.001   8.264
 2314POPC   C3A31493  44.635  40.017   7.964
 2314POPC   C4A31494  44.620  40.006   7.664
 2314POPC   C1B31495  44.496  40.156   8.564
 2314POPC   C2B31496  44.459  40.216   8.264
 2314POPC   C3B31497  44.461  40.238   7.964
 2314POPC   C4B31498  44.478  40.178   7.664
 2315POPC   NC331499  28.325  41.543   9.464
 2315POPC   PO431500  28.372  41.546   9.164
 2315POPC   GL131501  28.392  41.567   8.864
 2315POPC   GL231502  28.232  41.624   8.864
 2315POPC   C1A31503  28.327  41.574   8.564
 2315POPC   D2A31504  28.361  41.523   8.264
 2315POPC   C3A31505  28.360  41.554   7.964
 2315POPC   C4A31506  28.339  41.563   7.664
 2315POPC   C1B31507  28.164  41.691   8.564
 2315POPC   C2B31508  28.158  41.697   8.264
 2315POPC   C3B31509  28.150  41.663   7.964
 2315POPC   C4B31510  28.109  41.632   7.664
 2316POPC   NC331511  29.901  13.624   9.464
 2316POPC   PO431512  29.953  13.616   9.164
 2316POPC   GL131513  29.896  13.658   8.864
 2316POPC   GL231514  29.844  13.726   8.864
 2316POPC   C1A31515  29.961  13.652   8.564
 2316POPC   D2A31516  29.948  13.583   8.264
 2316POPC   C3A31517  29.923  13.665   7.964
 2316POPC   C4A31518  29.916  13.634   7.664
 2316POPC   C1B31519  29.681  13.777   8.564
 2316POPC   C2B31520  29.709  13.731   8.264
 2316POPC   C3B31521  29.718  13.742   7.964
 2316POPC   C4B31522  29.703  13.732   7.664
 2317POPC   NC331523  41.534  42.368   9.464
 2317POPC   PO431524  41.512  42.308   9.164
 2317POPC   GL131525  41.543  42.339   8.864
 2317POPC   GL231526  41.617  42.240   8.864
 2317POPC   C1A31527  41.555  42.351   8.564
 2317POPC   D2A31528  41.568  42.326   8.264
 2317POPC   C3A31529  41.573  42.329   7.964
 2317POPC   C4A31530  41.533  42.360   7.664
 2317POPC   C1B31531  41.656  42.110   8.564
 2317POPC   C2B31532  41.669  42.133   8.264
 2317POPC   C3B31533  41.576  42.104   7.964
 2317POPC   C4B31534  41.639  42.126   7.664
 2318POPC   NC331535   7.395  36.865   9.464
 2318POPC   PO431536   7.446  36.946   9.164
 2318POPC   GL131537   7.469  36.950   8.864
 2318POPC   GL231538   7.397  37.028   8.864
 2318POPC   C1A31539   7.470  36.947   8.564
 2318POPC   D2A31540   7.424  36.855   8.264
 2318POPC   C3A31541   7.421  36.900   7.964
 2318POPC   C4A31542   7.463  36.871   7.664
 2318POPC   C1B31543   7.508  37.110   8.564
 2318POPC   C2B31544   7.423  37.140   8.264
 2318POPC   C3B31545   7.430  37.162   7.964
 2318POPC   C4B31546   7.451  37.126   7.664
 2319POPC   NC331547   2.014  36.153   9.464
 2319POPC   PO431548   1.994  36.135   9.164
 2319POPC   GL131549   2.033  36.115   8.864
 2319POPC   GL231550   1.828  36.115   8.864
 2319POPC   C1A31551   1.974  36.094   8.564
 2319POPC   D2A31552   2.006  36.081   8.264
 2319POPC   C3A31553   1.955  36.161   7.964
 2319POPC   C4A31554   2.014  36.160   7.664
 2319POPC   C1B31555   1.780  36.016   8.564
 2319POPC   C2B31556   1.781  36.037   8.264
 2319POPC   C3B31557   1.729  36.075   7.964
 2319POPC   C4B31558   1.745  36.056   7.664
 2320POPC   NC331559   8.941  19.877   9.464
 2320POPC   PO431560   8.960  19.844   9.164
 2320POPC   GL131561   8.942  19.792   8.864
 2320POPC   GL231562   8.817  19.738   8.864
 2320POPC   C1A31563   8.992  19.790   8.564
 2320POPC   D2A31564   8.927  19.883   8.264
 2320POPC   C3A31565   8.933  19.840   7.964
 2320POPC   C4A31566   8.981  19.822   7.664
 2320POPC   C1B31567   8.703  19.720   8.564
 2320POPC   C2B31568   8.774  19.766   8.264
 2320POPC   C3B31569   8.728  19.732   7.964
 2320POPC   C4B31570   8.776  19.731   7.664
 2321POPC   NC331571  26.074  19.046   9.464
 2321POPC   PO431572  26.075  19.077   9.164
 2321POPC   GL131573  26.012  19.093   8.864
 2321POPC   GL231574  26.175  19.068   8.864
 2321POPC   C1A31575  25.996  19.031   8.564
 2321POPC   D2A31576  26.058  19.036   8.264
 2321POPC   C3A31577  26.059  19.032   7.964
 2321POPC   C4A31578  26.077  19.020   7.664
 2321POPC   C1B31579  26.271  19.120   8.564
 2321POPC   C2B31580  26.257  19.058   8.264
 2321POPC   C3B31581  26.274  19.057   7.964
 2321POPC   C4B31582  26.268  19.094   7.664
 2322POPC   NC331583  14.434   4.349   9.464
 2322POPC   PO431584  14.439   4.300   9.164
 2322POPC   GL131585  14.440   4.322   8.864
 2322POPC   GL231586  14.268   4.277   8.864
 2322POPC   C1A31587  14.422   4.339   8.564
 2322POPC   D2A31588  14.365   4.307   8.264
 2322POPC   C3A31589  14.419   4.285   7.964
 2322POPC   C4A31590  14.429   4.324   7.664
 2322POPC   C1B31591  14.149   4.262   8.564
 2322POPC   C2B31592  14.161   4.250   8.264
 2322POPC   C3B31593  14.163   4.237   7.964
 2322POPC   C4B31594  14.163   4.306   7.664
 2323POPC   NC331595  32.266  41.520   9.464
 2323POPC   PO431596  32.289  41.535   9.164
 2323POPC   GL131597  32.208  41.575   8.864
 2323POPC   GL231598  32.343  41.409   8.864
 2323POPC   C1A31599  32.214  41.541   8.564
 2323POPC   D2A31600  32.229  41.533   8.264
 2323POPC   C3A31601  32.248  41.561   7.964
 2323POPC   C4A31602  32.281  41.550   7.664
 2323POPC   C1B31603  32.372  41.348   8.564
 2323POPC   C2B31604  32.374  41.356   8.264
 2323POPC   C3B31605  32.333  41.326   7.964
 2323POPC   C4B31606  32.351  41.325   7.664
 2324POPC   NC331607  39.994  19.027   9.464
 2324POPC   PO431608  40.003  19.088   9.164
 2324POPC   GL131609  39.975  19.068   8.864
 2324POPC   GL231610  40.003  19.148   8.864
 2324POPC   C1A31611  40.037  19.070   8.564
 2324POPC   D2A31612  40.004  19.098   8.264
 2324POPC   C3A31613  40.023  19.109   7.964
 2324POPC   C4A31614  40.026  19.079   7.664
 2324POPC   C1B31615  40.068  19.296   8.564
 2324POPC   C2B31616  40.039  19.327   8.264
 2324POPC   C3B31617  40.065  19.325   7.964
 2324POPC   C4B31618  39.983  19.305   7.664
 2325POPC   NC331619  16.728  15.182   9.464
 2325POPC   PO431620  16.724  15.174   9.164
 2325POPC   GL131621  16.759  15.154   8.864
 2325POPC   GL231622  16.673  15.298   8.864
 2325POPC   C1A31623  16.738  15.207   8.564
 2325POPC   D2A31624  16.688  15.173   8.264
 2325POPC   C3A31625  16.687  15.153   7.964
 2325POPC   C4A31626  16.771  15.192   7.664
 2325POPC   C1B31627  16.682  15.436   8.564
 2325POPC   C2B31628  16.667  15.393   8.264
 2325POPC   C3B31629  16.705  15.472   7.964
 2325POPC   C4B31630  16.721  15.444   7.664
 2326POPC   NC331631  36.865  23.733   9.464
 2326POPC   PO431632  36.892  23.721   9.164
 2326POPC   GL131633  36.901  23.744   8.864
 2326POPC   GL231634  36.980  23.776   8.864
 2326POPC   C1A31635  36.908  23.686   8.564
 2326POPC   D2A31636  36.902  23.671   8.264
 2326POPC   C3A31637  36.898  23.689   7.964
 2326POPC   C4A31638  36.917  23.685   7.664
 2326POPC   C1B31639  37.119  23.715   8.564
 2326POPC   C2B31640  37.195  23.792   8.264
 2326POPC   C3B31641  37.163  23.699   7.964
 2326POPC   C4B31642  37.183  23.781   7.664
 2327POPC   NC331643  20.574  40.032   9.464
 2327POPC   PO431644  20.564  40.036   9.164
 2327POPC   GL131645  20.563  39.994   8.864
 2327POPC   GL231646  20.568  39.899   8.864
 2327POPC   C1A31647  20.599  39.993   8.564
 2327POPC   D2A31648  20.645  39.989   8.264
 2327POPC   C3A31649  20.574  40.047   7.964
 2327POPC   C4A31650  20.574  39.985   7.664
 2327POPC   C1B31651  20.438  39.844   8.564
 2327POPC   C2B31652  20.452  39.769   8.264
 2327POPC   C3B31653  20.427  39.766   7.964
 2327POPC   C4B31654  20.423  39.770   7.664
 2328POPC   NC331655  13.617  22.925   9.464
 2328POPC   PO431656  13.614  22.966   9.164
 2328POPC   GL131657  13.591  22.980   8.864
 2328POPC   GL231658  13.691  22.840   8.864
 2328POPC   C1A31659  13.584  22.912   8.564
 2328POPC   D2A31660  13.603  22.977   8.264
 2328POPC   C3A31661  13.602  22.913   7.964
 2328POPC   C4A31662  13.661  22.919   7.664
 2328POPC   C1B31663  13.815  22.741   8.564
 2328POPC   C2B31664  13.764  22.769   8.264
 2328POPC   C3B31665  13.792  22.742   7.964
 2328POPC   C4B31666  13.793  22.801   7.664
 2329POPC   NC331667  32.991  24.505   9.464
 2329POPC   PO431668  32.993  24.540   9.164
 2329POPC   GL131669  33.034  24.530   8.864
 2329POPC   GL231670  32.955  24.386   8.864
 2329POPC   C1A31671  33.071  24.504   8.564
 2329POPC   D2A31672  33.055  24.506   8.264
 2329POPC   C3A31673  33.067  24.509   7.964
 2329POPC   C4A31674  33.061  24.443   7.664
 2329POPC   C1B31675  33.010  24.233   8.564
 2329POPC   C2B31676  32.941  24.290   8.264
 2329POPC   C3B31677  32.927  24.242   7.964
 2329POPC   C4B31678  33.000  24.226   7.664
 2330POPC   NC331679  35.322  27.573   9.464
 2330POPC   PO431680  35.339  27.616   9.164
 2330POPC   GL131681  35.382  27.583   8.864
 2330POPC   GL231682  35.476  27.565   8.864
 2330POPC   C1A31683  35.337  27.562   8.564
 2330POPC   D2A31684  35.338  27.610   8.264
 2330POPC   C3A31685  35.400  27.614   7.964
 2330POPC   C4A31686  35.378  27.635   7.664
 2330POPC   C1B31687  35.544  27.421   8.564
 2330POPC   C2B31688  35.562  27.476   8.264
 2330POPC   C3B31689  35.593  27.441   7.964
 2330POPC   C4B31690  35.534  27.417   7.664
 2331POPC   NC331691   4.344  35.397   9.464
 2331POPC   PO431692   4.325  35.364   9.164
 2331POPC   GL131693   4.298  35.385   8.864
 2331POPC   GL231694   4.267  35.459   8.864
 2331POPC   C1A31695   4.320  35.313   8.564
 2331POPC   D2A31696   4.367  35.304   8.264
 2331POPC   C3A31697   4.298  35.347   7.964
 2331POPC   C4A31698   4.332  35.341   7.664
 2331POPC   C1B31699   4.141  35.475   8.564
 2331POPC   C2B31700   4.150  35.524   8.264
 2331POPC   C3B31701   4.107  35.474   7.964
 2331POPC   C4B31702   4.086  35.550   7.664
 2332POPC   NC331703  42.325  36.943   9.464
 2332POPC   PO431704  42.295  36.867   9.164
 2332POPC   GL131705  42.296  36.896   8.864
 2332POPC   GL231706  42.470  36.892   8.864
 2332POPC   C1A31707  42.383  36.890   8.564
 2332POPC   D2A31708  42.299  36.891   8.264
 2332POPC   C3A31709  42.371  36.937   7.964
 2332POPC   C4A31710  42.318  36.940   7.664
 2332POPC   C1B31711  42.561  36.936   8.564
 2332POPC   C2B31712  42.557  36.935   8.264
 2332POPC   C3B31713  42.601  36.913   7.964
 2332POPC   C4B31714  42.560  36.916   7.664
 2333POPC   NC331715  24.516  29.170   9.464
 2333POPC   PO431716  24.444  29.144   9.164
 2333POPC   GL131717  24.495  29.190   8.864
 2333POPC   GL231718  24.589  29.155   8.864
 2333POPC   C1A31719  24.517  29.157   8.564
 2333POPC   D2A31720  24.502  29.160   8.264
 2333POPC   C3A31721  24.509  29.161   7.964
 2333POPC   C4A31722  24.486  29.107   7.664
 2333POPC   C1B31723  24.698  29.201   8.564
 2333POPC   C2B31724  24.689  29.262   8.264
 2333POPC   C3B31725  24.735  29.191   7.964
 2333POPC   C4B31726  24.704  29.260   7.664
 2334POPC   NC331727   4.328  33.811   9.464
 2334POPC   PO431728   4.362  33.770   9.164
 2334POPC   GL131729   4.283  33.826   8.864
 2334POPC   GL231730   4.411  33.838   8.864
 2334POPC   C1A31731   4.301  33.768   8.564
 2334POPC   D2A31732   4.343  33.775   8.264
 2334POPC   C3A31733   4.335  33.797   7.964
 2334POPC   C4A31734   4.279  33.821   7.664
 2334POPC   C1B31735   4.468  33.935   8.564
 2334POPC   C2B31736   4.459  33.978   8.264
 2334POPC   C3B31737   4.492  33.948   7.964
 2334POPC   C4B31738   4.498  33.957   7.664
 2335POPC   NC331739  11.345   5.125   9.464
 2335POPC   PO431740  11.276   5.116   9.164
 2335POPC   GL131741  11.308   5.066   8.864
 2335POPC   GL231742  11.216   4.975   8.864
 2335POPC   C1A31743  11.267   5.044   8.564
 2335POPC   D2A31744  11.264   5.097   8.264
 2335POPC   C3A31745  11.256   5.104   7.964
 2335POPC   C4A31746  11.282   5.138   7.664
 2335POPC   C1B31747  11.116   4.964   8.564
 2335POPC   C2B31748  11.083   4.997   8.264
 2335POPC   C3B31749  11.056   4.931   7.964
 2335POPC   C4B31750  11.050   4.927   7.664
 2336POPC   NC331751  27.616  17.555   9.464
 2336POPC   PO431752  27.590  17.493   9.164
 2336POPC   GL131753  27.590  17.504   8.864
 2336POPC   GL231754  27.717  17.550   8.864
 2336POPC   C1A31755  27.606  17.473   8.564
 2336POPC   D2A31756  27.583  17.467   8.264
 2336POPC   C3A31757  27.642  17.493   7.964
 2336POPC   C4A31758  27.577  17.540   7.664
 2336POPC   C1B31759  27.887  17.522   8.564
 2336POPC   C2B31760  27.835  17.569   8.264
 2336POPC   C3B31761  27.812  17.497   7.964
 2336POPC   C4B31762  27.820  17.552   7.664
 2337POPC   NC331763  25.265  36.093   9.464
 2337POPC   PO431764  25.254  36.107   9.164
 2337POPC   GL131765  25.289  36.090   8.864
 2337POPC   GL231766  25.295  35.981   8.864
 2337POPC   C1A31767  25.249  36.134   8.564
 2337POPC   D2A31768  25.257  36.108   8.264
 2337POPC   C3A31769  25.244  36.089   7.964
 2337POPC   C4A31770  25.222  36.176   7.664
 2337POPC   C1B31771  25.275  35.861   8.564
 2337POPC   C2B31772  25.305  35.929   8.264
 2337POPC   C3B31773  25.307  35.887   7.964
 2337POPC   C4B31774  25.302  35.840   7.664
 2338POPC   NC331775  38.421  39.987   9.464
 2338POPC   PO431776  38.419  39.999   9.164
 2338POPC   GL131777  38.443  40.002   8.864
 2338POPC   GL231778  38.479  40.155   8.864
 2338POPC   C1A31779  38.448  40.025   8.564
 2338POPC   D2A31780  38.441  40.007   8.264
 2338POPC   C3A31781  38.483  39.981   7.964
 2338POPC   C4A31782  38.457  39.985   7.664
 2338POPC   C1B31783  38.410  40.265   8.564
 2338POPC   C2B31784  38.384  40.227   8.264
 2338POPC   C3B31785  38.384  40.253   7.964
 2338POPC   C4B31786  38.445  40.267   7.664
 2339POPC   NC331787  34.553  10.521   9.464
 2339POPC   PO431788  34.622  10.559   9.164
 2339POPC   GL131789  34.572  10.495   8.864
 2339POPC   GL231790  34.662  10.619   8.864
 2339POPC   C1A31791  34.602  10.483   8.564
 2339POPC   D2A31792  34.581  10.523   8.264
 2339POPC   C3A31793  34.581  10.475   7.964
 2339POPC   C4A31794  34.535  10.487   7.664
 2339POPC   C1B31795  34.793  10.713   8.564
 2339POPC   C2B31796  34.751  10.681   8.264
 2339POPC   C3B31797  34.773  10.733   7.964
 2339POPC   C4B31798  34.760  10.645   7.664
 2340POPC   NC331799  29.884  25.220   9.464
 2340POPC   PO431800  29.924  25.244   9.164
 2340POPC   GL131801  29.944  25.287   8.864
 2340POPC   GL231802  29.834  25.406   8.864
 2340POPC   C1A31803  29.910  25.296   8.564
 2340POPC   D2A31804  29.931  25.243   8.264
 2340POPC   C3A31805  29.871  25.255   7.964
 2340POPC   C4A31806  29.894  25.302   7.664
 2340POPC   C1B31807  29.799  25.509   8.564
 2340POPC   C2B31808  29.779  25.505   8.264
 2340POPC   C3B31809  29.831  25.464   7.964
 2340POPC   C4B31810  29.737  25.460   7.664
 2341POPC   NC331811  16.770   2.023   9.464
 2341POPC   PO431812  16.718   2.017   9.164
 2341POPC   GL131813  16.721   2.037   8.864
 2341POPC   GL231814  16.691   1.901   8.864
 2341POPC   C1A31815  16.771   2.015   8.564
 2341POPC   D2A31816  16.768   2.001   8.264
 2341POPC   C3A31817  16.716   2.008   7.964
 2341POPC   C4A31818  16.738   1.994   7.664
 2341POPC   C1B31819  16.538   1.859   8.564
 2341POPC   C2B31820  16.594   1.849   8.264
 2341POPC   C3B31821  16.514   1.833   7.964
 2341POPC   C4B31822  16.570   1.856   7.664
 2342POPC   NC331823  29.156  29.192   9.464
 2342POPC   PO431824  29.119  29.162   9.164
 2342POPC   GL131825  29.110  29.158   8.864
 2342POPC   GL231826  29.222  29.303   8.864
 2342POPC   C1A31827  29.173  29.167   8.564
 2342POPC   D2A31828  29.191  29.126   8.264
 2342POPC   C3A31829  29.149  29.119   7.964
 2342POPC   C4A31830  29.172  29.146   7.664
 2342POPC   C1B31831  29.221  29.343   8.564
 2342POPC   C2B31832  29.202  29.428   8.264
 2342POPC   C3B31833  29.283  29.342   7.964
 2342POPC   C4B31834  29.274  29.397   7.664
 2343POPC   NC331835  12.854   0.404   9.464
 2343POPC   PO431836  12.849   0.476   9.164
 2343POPC   GL131837  12.833   0.454   8.864
 2343POPC   GL231838  12.958   0.378   8.864
 2343POPC   C1A31839  12.823   0.424   8.564
 2343POPC   D2A31840  12.860   0.486   8.264
 2343POPC   C3A31841  12.881   0.416   7.964
 2343POPC   C4A31842  12.877   0.478   7.664
 2343POPC   C1B31843  13.051   0.286   8.564
 2343POPC   C2B31844  13.082   0.330   8.264
 2343POPC   C3B31845  13.120   0.306   7.964
 2343POPC   C4B31846  13.039   0.379   7.664
 2344POPC   NC331847  12.813   1.185   9.464
 2344POPC   PO431848  12.827   1.199   9.164
 2344POPC   GL131849  12.882   1.242   8.864
 2344POPC   GL231850  12.822   1.361   8.864
 2344POPC   C1A31851  12.851   1.243   8.564
 2344POPC   D2A31852  12.813   1.204   8.264
 2344POPC   C3A31853  12.853   1.165   7.964
 2344POPC   C4A31854  12.859   1.168   7.664
 2344POPC   C1B31855  12.744   1.484   8.564
 2344POPC   C2B31856  12.784   1.397   8.264
 2344POPC   C3B31857  12.735   1.450   7.964
 2344POPC   C4B31858  12.721   1.481   7.664
 2345POPC   NC331859  38.441  29.953   9.464
 2345POPC   PO431860  38.457  29.915   9.164
 2345POPC   GL131861  38.472  29.958   8.864
 2345POPC   GL231862  38.371  29.930   8.864
 2345POPC   C1A31863  38.443  29.959   8.564
 2345POPC   D2A31864  38.451  29.904   8.264
 2345POPC   C3A31865  38.449  29.931   7.964
 2345POPC   C4A31866  38.497  29.874   7.664
 2345POPC   C1B31867  38.254  29.842   8.564
 2345POPC   C2B31868  38.174  29.836   8.264
 2345POPC   C3B31869  38.243  29.841   7.964
 2345POPC   C4B31870  38.172  29.879   7.664
 2346POPC   NC331871  26.782  40.005   9.464
 2346POPC   PO431872  26.781  39.984   9.164
 2346POPC   GL131873  26.768  40.035   8.864
 2346POPC   GL231874  26.883  40.077   8.864
 2346POPC   C1A31875  26.770  39.971   8.564
 2346POPC   D2A31876  26.831  40.022   8.264
 2346POPC   C3A31877  26.820  39.969   7.964
 2346POPC   C4A31878  26.806  39.972   7.664
 2346POPC   C1B31879  26.852  40.250   8.564
 2346POPC   C2B31880  26.873  40.218   8.264
 2346POPC   C3B31881  26.923  40.208   7.964
 2346POPC   C4B31882  26.892  40.230   7.664
 2347POPC   NC331883  36.910  12.106   9.464
 2347POPC   PO431884  36.935  12.029   9.164
 2347POPC   GL131885  36.870  12.048   8.864
 2347POPC   GL231886  36.942  11.962   8.864
 2347POPC   C1A31887  36.912  12.082   8.564
 2347POPC   D2A31888  36.890  12.071   8.264
 2347POPC   C3A31889  36.871  12.052   7.964
 2347POPC   C4A31890  36.930  12.086   7.664
 2347POPC   C1B31891  36.967  11.817   8.564
 2347POPC   C2B31892  36.948  11.839   8.264
 2347POPC   C3B31893  36.969  11.856   7.964
 2347POPC   C4B31894  36.957  11.843   7.664
 2348POPC   NC331895  11.322  16.687   9.464
 2348POPC   PO431896  11.266  16.731   9.164
 2348POPC   GL131897  11.319  16.742   8.864
 2348POPC   GL231898  11.275  16.653   8.864
 2348POPC   C1A31899  11.297  16.716   8.564
 2348POPC   D2A31900  11.265  16.761   8.264
 2348POPC   C3A31901  11.299  16.700   7.964
 2348POPC   C4A31902  11.305  16.725   7.664
 2348POPC   C1B31903  11.173  16.522   8.564
 2348POPC   C2B31904  11.205  16.541   8.264
 2348POPC   C3B31905  11.157  16.543   7.964
 2348POPC   C4B31906  11.171  16.518   7.664
 2349POPC   NC331907  26.863  15.146   9.464
 2349POPC   PO431908  26.795  15.184   9.164
 2349POPC   GL131909  26.842  15.177   8.864
 2349POPC   GL231910  26.702  15.150   8.864
 2349POPC   C1A31911  26.844  15.197   8.564
 2349POPC   D2A31912  26.816  15.226   8.264
 2349POPC   C3A31913  26.860  15.213   7.964
 2349POPC   C4A31914  26.805  15.167   7.664
 2349POPC   C1B31915  26.607  15.220   8.564
 2349POPC   C2B31916  26.562  15.236   8.264
 2349POPC   C3B31917  26.524  15.183   7.964
 2349POPC   C4B31918  26.534  15.253   7.664
 2350POPC   NC331919  39.183  18.272   9.464
 2350POPC   PO431920  39.210  18.269   9.164
 2350POPC   GL131921  39.262  18.279   8.864
 2350POPC   GL231922  39.318  18.247   8.864
 2350POPC   C1A31923  39.258  18.265   8.564
 2350POPC   D2A31924  39.230  18.315   8.264
 2350POPC   C3A31925  39.223  18.289   7.964
 2350POPC   C4A31926  39.185  18.300   7.664
 2350POPC   C1B31927  39.445  18.112   8.564
 2350POPC   C2B31928  39.472  18.119   8.264
 2350POPC   C3B31929  39.463  18.159   7.964
 2350POPC   C4B31930  39.461  18.103   7.664
 2351POPC   NC331931  33.765  37.645   9.464
 2351POPC   PO431932  33.844  37.646   9.164
 2351POPC   GL131933  33.760  37.675   8.864
 2351POPC   GL231934  33.656  37.635   8.864
 2351POPC   C1A31935  33.796  37.680   8.564
 2351POPC   D2A31936  33.794  37.647   8.264
 2351POPC   C3A31937  33.761  37.631   7.964
 2351POPC   C4A31938  33.761  37.634   7.664
 2351POPC   C1B31939  33.561  37.547   8.564
 2351POPC   C2B31940  33.562  37.558   8.264
 2351POPC   C3B31941  33.595  37.532   7.964
 2351POPC   C4B31942  33.545  37.544   7.664
 2352POPC   NC331943  40.765  36.859   9.464
 2352POPC   PO431944  40.813  36.856   9.164
 2352POPC   GL131945  40.790  36.943   8.864
 2352POPC   GL231946  40.702  36.974   8.864
 2352POPC   C1A31947  40.757  36.896   8.564
 2352POPC   D2A31948  40.801  36.892   8.264
 2352POPC   C3A31949  40.800  36.859   7.964
 2352POPC   C4A31950  40.783  36.881   7.664
 2352POPC   C1B31951  40.679  37.107   8.564
 2352POPC   C2B31952  40.672  37.145   8.264
 2352POPC   C3B31953  40.678  37.159   7.964
 2352POPC   C4B31954  40.714  37.135   7.664
 2353POPC   NC331955  35.388  43.065   9.464
 2353POPC   PO431956  35.337  43.130   9.164
 2353POPC   GL131957  35.340  43.103   8.864
 2353POPC   GL231958  35.359  42.973   8.864
 2353POPC   C1A31959  35.385  43.148   8.564
 2353POPC   D2A31960  35.316  43.103   8.264
 2353POPC   C3A31961  35.304  43.152   7.964
 2353POPC   C4A31962  35.306  43.140   7.664
 2353POPC   C1B31963  35.271  42.858   8.564
 2353POPC   C2B31964  35.332  42.819   8.264
 2353POPC   C3B31965  35.296  42.906   7.964
 2353POPC   C4B31966  35.305  42.846   7.664
 2354POPC   NC331967  38.456  19.798   9.464
 2354POPC   PO431968  38.480  19.802   9.164
 2354POPC   GL131969  38.489  19.789   8.864
 2354POPC   GL231970  38.345  19.951   8.864
 2354POPC   C1A31971  38.486  19.857   8.564
 2354POPC   D2A31972  38.484  19.884   8.264
 2354POPC   C3A31973  38.485  19.793   7.964
 2354POPC   C4A31974  38.495  19.865   7.664
 2354POPC   C1B31975  38.330  20.051   8.564
 2354POPC   C2B31976  38.315  20.024   8.264
 2354POPC   C3B31977  38.322  20.079   7.964
 2354POPC   C4B31978  38.283  20.040   7.664
 2355POPC   NC331979  39.971  10.533   9.464
 2355POPC   PO431980  40.029  10.502   9.164
 2355POPC   GL131981  40.004  10.565   8.864
 2355POPC   GL231982  40.024  10.349   8.864
 2355POPC   C1A31983  40.022  10.476   8.564
 2355POPC   D2A31984  40.004  10.520   8.264
 2355POPC   C3A31985  40.053  10.529   7.964
 2355POPC   C4A31986  39.975  10.567   7.664
 2355POPC   C1B31987  40.026  10.299   8.564
 2355POPC   C2B31988  39.966  10.240   8.264
 2355POPC   C3B31989  40.056  10.264   7.964
 2355POPC   C4B31990  40.001  10.226   7.664
 2356POPC   NC331991  16.704  43.124   9.464
 2356POPC   PO431992  16.735  43.084   9.164
 2356POPC   GL131993  16.752  43.090   8.864
 2356POPC   GL231994  16.873  43.134   8.864
 2356POPC   C1A31995  16.753  43.066   8.564
 2356POPC   D2A31996  16.695  43.128   8.264
 2356POPC   C3A31997  16.712  43.067   7.964
 2356POPC   C4A31998  16.730  43.156   7.664
 2356POPC   C1B31999  16.997  43.131   8.564
 2356POPC   C2B32000  16.944  43.127   8.264
 2356POPC   C3B32001  17.025  43.169   7.964
 2356POPC   C4B32002  17.017  43.124   7.664
 2357POPC   NC332003  39.969   1.964   9.464
 2357POPC   PO432004  40.024   1.970   9.164
 2357POPC   GL132005  40.010   2.027   8.864
 2357POPC   GL232006  39.925   2.044   8.864
 2357POPC   C1A32007  39.974   1.960   8.564
 2357POPC   D2A32008  39.996   1.983   8.264
 2357POPC   C3A32009  40.049   2.017   7.964
 2357POPC   C4A32010  39.972   2.028   7.664
 2357POPC   C1B32011  39.792   1.997   8.564
 2357POPC   C2B32012  39.770   1.970   8.264
 2357POPC   C3B32013  39.780   2.017   7.964
 2357POPC   C4B32014  39.801   2.010   7.664
 2358POPC   NC332015  33.035  41.520   9.464
 2358POPC   PO432016  33.048  41.513   9.164
 2358POPC   GL132017  33.024  41.576   8.864
 2358POPC   GL232018  33.046  41.726   8.864
 2358POPC   C1A32019  33.009  41.519   8.564
 2358POPC   D2A32020  32.993  41.540   8.264
 2358POPC   C3A32021  33.058  41.546   7.964
 2358POPC   C4A32022  33.013  41.529   7.664
 2358POPC   C1B32023  33.081  41.840   8.564
 2358POPC   C2B32024  33.073  41.815   8.264
 2358POPC   C3B32025  33.061  41.782   7.964
 2358POPC   C4B32026  33.071  41.770   7.664
 2359POPC   NC332027  11.252   8.188   9.464
 2359POPC   PO432028  11.343   8.244   9.164
 2359POPC   GL132029  11.263   8.167   8.864
 2359POPC   GL232030  11.236   8.364   8.864
 2359POPC   C1A32031  11.329   8.166   8.564
 2359POPC   D2A32032  11.281   8.225   8.264
 2359POPC   C3A32033  11.328   8.226   7.964
 2359POPC   C4A32034  11.320   8.180   7.664
 2359POPC   C1B32035  11.265   8.467   8.564
 2359POPC   C2B32036  11.265   8.447   8.264
 2359POPC   C3B32037  11.219   8.437   7.964
 2359POPC   C4B32038  11.226   8.438   7.664
 2360POPC   NC332039  16.001  32.283   9.464
 2360POPC   PO432040  15.916  32.265   9.164
 2360POPC   GL132041  15.958  32.231   8.864
 2360POPC   GL232042  15.920  32.166   8.864
 2360POPC   C1A32043  15.959  32.221   8.564
 2360POPC   D2A32044  15.973  32.275   8.264
 2360POPC   C3A32045  15.960  32.202   7.964
 2360POPC   C4A32046  15.997  32.236   7.664
 2360POPC   C1B32047  15.917  32.038   8.564
 2360POPC   C2B32048  15.943  31.972   8.264
 2360POPC   C3B32049  15.921  32.024   7.964
 2360POPC   C4B32050  15.900  32.047   7.664
 2361POPC   NC332051   2.743   9.732   9.464
 2361POPC   PO432052   2.723   9.730   9.164
 2361POPC   GL132053   2.769   9.757   8.864
 2361POPC   GL232054   2.612   9.649   8.864
 2361POPC   C1A32055   2.785   9.778   8.564
 2361POPC   D2A32056   2.788   9.757   8.264
 2361POPC   C3A32057   2.742   9.736   7.964
 2361POPC   C4A32058   2.812   9.773   7.664
 2361POPC   C1B32059   2.583   9.637   8.564
 2361POPC   C2B32060   2.514   9.612   8.264
 2361POPC   C3B32061   2.590   9.617   7.964
 2361POPC   C4B32062   2.571   9.671   7.664
 2362POPC   NC332063  12.895  43.843   9.464
 2362POPC   PO432064  12.841  43.891   9.164
 2362POPC   GL132065  12.820  43.934   8.864
 2362POPC   GL232066  12.844  43.754   8.864
 2362POPC   C1A32067  12.805  43.915   8.564
 2362POPC   D2A32068  12.816  43.904   8.264
 2362POPC   C3A32069  12.894  43.934   7.964
 2362POPC   C4A32070  12.874  43.917   7.664
 2362POPC   C1B32071  12.941  43.632   8.564
 2362POPC   C2B32072  12.897  43.668   8.264
 2362POPC   C3B32073  12.895  43.611   7.964
 2362POPC   C4B32074  12.925  43.664   7.664
 2363POPC   NC332075  18.238  18.311   9.464
 2363POPC   PO432076  18.324  18.277   9.164
 2363POPC   GL132077  18.276  18.304   8.864
 2363POPC   GL232078  18.347  18.112   8.864
 2363POPC   C1A32079  18.235  18.323   8.564
 2363POPC   D2A32080  18.317  18.295   8.264
 2363POPC   C3A32081  18.274  18.288   7.964
 2363POPC   C4A32082  18.253  18.246   7.664
 2363POPC   C1B32083  18.328  18.000   8.564
 2363POPC   C2B32084  18.336  18.063   8.264
 2363POPC   C3B32085  18.299  18.005   7.964
 2363POPC   C4B32086  18.371  17.991   7.664
 2364POPC   NC332087  25.236  19.066   9.464
 2364POPC   PO432088  25.224  19.072   9.164
 2364POPC   GL132089  25.241  19.072   8.864
 2364POPC   GL232090  25.417  19.070   8.864
 2364POPC   C1A32091  25.313  19.062   8.564
 2364POPC   D2A32092  25.267  19.098   8.264
 2364POPC   C3A32093  25.268  19.047   7.964
 2364POPC   C4A32094  25.231  19.042   7.664
 2364POPC   C1B32095  25.469  19.075   8.564
 2364POPC   C2B32096  25.468  19.124   8.264
 2364POPC   C3B32097  25.467  19.047   7.964
 2364POPC   C4B32098  25.558  19.110   7.664
 2365POPC   NC332099  31.490  41.520   9.464
 2365POPC   PO432100  31.490  41.607   9.164
 2365POPC   GL132101  31.488  41.586   8.864
 2365POPC   GL232102  31.536  41.638   8.864
 2365POPC   C1A32103  31.482  41.527   8.564
 2365POPC   D2A32104  31.449  41.595   8.264
 2365POPC   C3A32105  31.514  41.523   7.964
 2365POPC   C4A32106  31.438  41.559   7.664
 2365POPC   C1B32107  31.652  41.797   8.564
 2365POPC   C2B32108  31.578  41.743   8.264
 2365POPC   C3B32109  31.642  41.801   7.964
 2365POPC   C4B32110  31.645  41.757   7.664
 2366POPC   NC332111  34.611  29.936   9.464
 2366POPC   PO432112  34.544  29.893   9.164
 2366POPC   GL132113  34.568  29.890   8.864
 2366POPC   GL232114  34.611  30.014   8.864
 2366POPC   C1A32115  34.557  29.929   8.564
 2366POPC   D2A32116  34.532  29.876   8.264
 2366POPC   C3A32117  34.556  29.879   7.964
 2366POPC   C4A32118  34.552  29.950   7.664
 2366POPC   C1B32119  34.702  30.144   8.564
 2366POPC   C2B32120  34.746  30.125   8.264
 2366POPC   C3B32121  34.772  30.063   7.964
 2366POPC   C4B32122  34.717  30.117   7.664
 2367POPC   NC332123  20.568  26.847   9.464
 2367POPC   PO432124  20.640  26.819   9.164
 2367POPC   GL132125  20.612  26.847   8.864
 2367POPC   GL232126  20.710  26.747   8.864
 2367POPC   C1A32127  20.601  26.821   8.564
 2367POPC   D2A32128  20.599  26.776   8.264
 2367POPC   C3A32129  20.622  26.836   7.964
 2367POPC   C4A32130  20.640  26.852   7.664
 2367POPC   C1B32131  20.867  26.693   8.564
 2367POPC   C2B32132  20.814  26.650   8.264
 2367POPC   C3B32133  20.786  26.739   7.964
 2367POPC   C4B32134  20.783  26.682   7.664
 2368POPC   NC332135  39.266  31.481   9.464
 2368POPC   PO432136  39.280  31.479   9.164
 2368POPC   GL132137  39.185  31.478   8.864
 2368POPC   GL232138  39.129  31.413   8.864
 2368POPC   C1A32139  39.215  31.522   8.564
 2368POPC   D2A32140  39.275  31.455   8.264
 2368POPC   C3A32141  39.218  31.452   7.964
 2368POPC   C4A32142  39.188  31.500   7.664
 2368POPC   C1B32143  38.992  31.427   8.564
 2368POPC   C2B32144  38.995  31.377   8.264
 2368POPC   C3B32145  38.991  31.335   7.964
 2368POPC   C4B32146  38.957  31.344   7.664
 2369POPC   NC332147  35.395  37.635   9.464
 2369POPC   PO432148  35.304  37.632   9.164
 2369POPC   GL132149  35.327  37.631   8.864
 2369POPC   GL232150  35.281  37.596   8.864
 2369POPC   C1A32151  35.315  37.723   8.564
 2369POPC   D2A32152  35.306  37.647   8.264
 2369POPC   C3A32153  35.343  37.722   7.964
 2369POPC   C4A32154  35.345  37.672   7.664
 2369POPC   C1B32155  35.208  37.562   8.564
 2369POPC   C2B32156  35.115  37.512   8.264
 2369POPC   C3B32157  35.129  37.512   7.964
 2369POPC   C4B32158  35.134  37.470   7.664
 2370POPC   NC332159  12.079  44.660   9.464
 2370POPC   PO432160  12.106  44.707   9.164
 2370POPC   GL132161  12.124  44.695   8.864
 2370POPC   GL232162  11.996  44.591   8.864
 2370POPC   C1A32163  12.122  44.668   8.564
 2370POPC   D2A32164  12.057  44.689   8.264
 2370POPC   C3A32165  12.070  44.708   7.964
 2370POPC   C4A32166  12.050  44.636   7.664
 2370POPC   C1B32167  11.938  44.465   8.564
 2370POPC   C2B32168  12.012  44.389   8.264
 2370POPC   C3B32169  12.002  44.404   7.964
 2370POPC   C4B32170  11.966  44.434   7.664
 2371POPC   NC332171  15.159   5.112   9.464
 2371POPC   PO432172  15.182   5.098   9.164
 2371POPC   GL132173  15.170   5.128   8.864
 2371POPC   GL232174  15.214   5.198   8.864
 2371POPC   C1A32175  15.184   5.129   8.564
 2371POPC   D2A32176  15.199   5.053   8.264
 2371POPC   C3A32177  15.152   5.103   7.964
 2371POPC   C4A32178  15.150   5.100   7.664
 2371POPC   C1B32179  15.197   5.329   8.564
 2371POPC   C2B32180  15.226   5.294   8.264
 2371POPC   C3B32181  15.202   5.315   7.964
 2371POPC   C4B32182  15.175   5.382   7.664
 2372POPC   NC332183   6.620  22.166   9.464
 2372POPC   PO432184   6.628  22.207   9.164
 2372POPC   GL132185   6.630  22.146   8.864
 2372POPC   GL232186   6.599  22.281   8.864
 2372POPC   C1A32187   6.614  22.171   8.564
 2372POPC   D2A32188   6.656  22.120   8.264
 2372POPC   C3A32189   6.650  22.129   7.964
 2372POPC   C4A32190   6.668  22.132   7.664
 2372POPC   C1B32191   6.475  22.376   8.564
 2372POPC   C2B32192   6.500  22.345   8.264
 2372POPC   C3B32193   6.533  22.384   7.964
 2372POPC   C4B32194   6.513  22.363   7.664
 2373POPC   NC332195  39.206   4.317   9.464
 2373POPC   PO432196  39.260   4.340   9.164
 2373POPC   GL132197  39.244   4.349   8.864
 2373POPC   GL232198  39.076   4.256   8.864
 2373POPC   C1A32199  39.241   4.308   8.564
 2373POPC   D2A32200  39.240   4.339   8.264
 2373POPC   C3A32201  39.187   4.293   7.964
 2373POPC   C4A32202  39.228   4.332   7.664
 2373POPC   C1B32203  39.044   4.198   8.564
 2373POPC   C2B32204  38.988   4.159   8.264
 2373POPC   C3B32205  39.017   4.178   7.964
 2373POPC   C4B32206  38.993   4.182   7.664
 2374POPC   NC332207  15.967  26.073   9.464
 2374POPC   PO432208  15.932  26.067   9.164
 2374POPC   GL132209  15.928  26.064   8.864
 2374POPC   GL232210  15.948  25.950   8.864
 2374POPC   C1A32211  15.940  26.087   8.564
 2374POPC   D2A32212  15.907  26.045   8.264
 2374POPC   C3A32213  15.921  26.088   7.964
 2374POPC   C4A32214  15.928  26.045   7.664
 2374POPC   C1B32215  15.904  25.827   8.564
 2374POPC   C2B32216  15.978  25.809   8.264
 2374POPC   C3B32217  15.909  25.812   7.964
 2374POPC   C4B32218  15.920  25.819   7.664
 2375POPC   NC332219  42.327  13.596   9.464
 2375POPC   PO432220  42.327  13.665   9.164
 2375POPC   GL132221  42.288  13.666   8.864
 2375POPC   GL232222  42.340  13.725   8.864
 2375POPC   C1A32223  42.343  13.639   8.564
 2375POPC   D2A32224  42.318  13.650   8.264
 2375POPC   C3A32225  42.294  13.634   7.964
 2375POPC   C4A32226  42.336  13.647   7.664
 2375POPC   C1B32227  42.372  13.891   8.564
 2375POPC   C2B32228  42.417  13.826   8.264
 2375POPC   C3B32229  42.370  13.919   7.964
 2375POPC   C4B32230  42.373  13.833   7.664
 2376POPC   NC332231   9.735  20.577   9.464
 2376POPC   PO432232   9.708  20.622   9.164
 2376POPC   GL132233   9.712  20.581   8.864
 2376POPC   GL232234   9.698  20.709   8.864
 2376POPC   C1A32235   9.785  20.584   8.564
 2376POPC   D2A32236   9.760  20.574   8.264
 2376POPC   C3A32237   9.768  20.569   7.964
 2376POPC   C4A32238   9.702  20.634   7.664
 2376POPC   C1B32239   9.727  20.850   8.564
 2376POPC   C2B32240   9.709  20.824   8.264
 2376POPC   C3B32241   9.678  20.901   7.964
 2376POPC   C4B32242   9.656  20.863   7.664
 2377POPC   NC332243  19.085  18.306   9.464
 2377POPC   PO432244  19.061  18.314   9.164
 2377POPC   GL132245  19.089  18.235   8.864
 2377POPC   GL232246  19.080  18.370   8.864
 2377POPC   C1A32247  19.091  18.318   8.564
 2377POPC   D2A32248  19.066  18.329   8.264
 2377POPC   C3A32249  19.083  18.238   7.964
 2377POPC   C4A32250  19.059  18.238   7.664
 2377POPC   C1B32251  19.133  18.562   8.564
 2377POPC   C2B32252  19.102  18.536   8.264
 2377POPC   C3B32253  19.092  18.522   7.964
 2377POPC   C4B32254  19.099  18.565   7.664
 2378POPC   NC332255   6.611   1.972   9.464
 2378POPC   PO432256   6.651   1.971   9.164
 2378POPC   GL132257   6.616   1.992   8.864
 2378POPC   GL232258   6.569   1.976   8.864
 2378POPC   C1A32259   6.605   1.961   8.564
 2378POPC   D2A32260   6.624   1.998   8.264
 2378POPC   C3A32261   6.693   1.977   7.964
 2378POPC   C4A32262   6.676   2.002   7.664
 2378POPC   C1B32263   6.414   1.926   8.564
 2378POPC   C2B32264   6.405   1.956   8.264
 2378POPC   C3B32265   6.366   1.892   7.964
 2378POPC   C4B32266   6.444   1.913   7.664
 2379POPC   NC332267  44.647  14.407   9.464
 2379POPC   PO432268  44.656  14.354   9.164
 2379POPC   GL132269  44.612  14.364   8.864
 2379POPC   GL232270  44.617  14.508   8.864
 2379POPC   C1A32271  44.652  14.438   8.564
 2379POPC   D2A32272  44.670  14.406   8.264
 2379POPC   C3A32273  44.673  14.370   7.964
 2379POPC   C4A32274  44.624  14.359   7.664
 2379POPC   C1B32275  44.464  14.566   8.564
 2379POPC   C2B32276  44.558  14.597   8.264
 2379POPC   C3B32277  44.544  14.637   7.964
 2379POPC   C4B32278  44.486  14.620   7.664
 2380POPC   NC332279  36.892  11.277   9.464
 2380POPC   PO432280  36.899  11.338   9.164
 2380POPC   GL132281  36.936  11.296   8.864
 2380POPC   GL232282  36.963  11.318   8.864
 2380POPC   C1A32283  36.908  11.338   8.564
 2380POPC   D2A32284  36.925  11.338   8.264
 2380POPC   C3A32285  36.920  11.292   7.964
 2380POPC   C4A32286  36.861  11.299   7.664
 2380POPC   C1B32287  37.143  11.381   8.564
 2380POPC   C2B32288  37.086  11.462   8.264
 2380POPC   C3B32289  37.111  11.417   7.964
 2380POPC   C4B32290  37.102  11.381   7.664
 2381POPC   NC332291  28.415   8.206   9.464
 2381POPC   PO432292  28.413   8.200   9.164
 2381POPC   GL132293  28.333   8.157   8.864
 2381POPC   GL232294  28.494   8.135   8.864
 2381POPC   C1A32295  28.371   8.190   8.564
 2381POPC   D2A32296  28.385   8.212   8.264
 2381POPC   C3A32297  28.331   8.224   7.964
 2381POPC   C4A32298  28.359   8.168   7.664
 2381POPC   C1B32299  28.656   8.166   8.564
 2381POPC   C2B32300  28.593   8.098   8.264
 2381POPC   C3B32301  28.609   8.165   7.964
 2381POPC   C4B32302  28.632   8.148   7.664
 2382POPC   NC332303   7.443  41.535   9.464
 2382POPC   PO432304   7.377  41.541   9.164
 2382POPC   GL132305   7.414  41.574   8.864
 2382POPC   GL232306   7.413  41.475   8.864
 2382POPC   C1A32307   7.407  41.583   8.564
 2382POPC   D2A32308   7.427  41.551   8.264
 2382POPC   C3A32309   7.384  41.520   7.964
 2382POPC   C4A32310   7.466  41.539   7.664
 2382POPC   C1B32311   7.319  41.378   8.564
 2382POPC   C2B32312   7.319  41.350   8.264
 2382POPC   C3B32313   7.351  41.317   7.964
 2382POPC   C4B32314   7.264  41.329   7.664
 2383POPC   NC332315  38.434   6.623   9.464
 2383POPC   PO432316  38.469   6.603   9.164
 2383POPC   GL132317  38.485   6.631   8.864
 2383POPC   GL232318  38.315   6.614   8.864
 2383POPC   C1A32319  38.453   6.658   8.564
 2383POPC   D2A32320  38.426   6.666   8.264
 2383POPC   C3A32321  38.486   6.613   7.964
 2383POPC   C4A32322  38.476   6.687   7.664
 2383POPC   C1B32323  38.207   6.584   8.564
 2383POPC   C2B32324  38.215   6.622   8.264
 2383POPC   C3B32325  38.206   6.679   7.964
 2383POPC   C4B32326  38.209   6.677   7.664
 2384POPC   NC332327  26.019   2.015   9.464
 2384POPC   PO432328  26.090   2.027   9.164
 2384POPC   GL132329  26.040   1.942   8.864
 2384POPC   GL232330  26.131   1.879   8.864
 2384POPC   C1A32331  26.066   1.942   8.564
 2384POPC   D2A32332  26.083   2.036   8.264
 2384POPC   C3A32333  25.998   1.950   7.964
 2384POPC   C4A32334  25.995   1.959   7.664
 2384POPC   C1B32335  26.164   1.784   8.564
 2384POPC   C2B32336  26.197   1.761   8.264
 2384POPC   C3B32337  26.194   1.848   7.964
 2384POPC   C4B32338  26.181   1.835   7.664
 2385POPC   NC332339  36.897  26.024   9.464
 2385POPC   PO432340  36.873  26.062   9.164
 2385POPC   GL132341  36.926  26.064   8.864
 2385POPC   GL232342  36.817  26.009   8.864
 2385POPC   C1A32343  36.891  25.997   8.564
 2385POPC   D2A32344  36.904  26.027   8.264
 2385POPC   C3A32345  36.868  26.039   7.964
 2385POPC   C4A32346  36.880  26.066   7.664
 2385POPC   C1B32347  36.676  25.955   8.564
 2385POPC   C2B32348  36.658  25.977   8.264
 2385POPC   C3B32349  36.697  26.030   7.964
 2385POPC   C4B32350  36.654  26.006   7.664
 2386POPC   NC332351  23.743  40.780   9.464
 2386POPC   PO432352  23.666  40.742   9.164
 2386POPC   GL132353  23.664  40.817   8.864
 2386POPC   GL232354  23.693  40.628   8.864
 2386POPC   C1A32355  23.762  40.791   8.564
 2386POPC   D2A32356  23.688  40.777   8.264
 2386POPC   C3A32357  23.698  40.813   7.964
 2386POPC   C4A32358  23.678  40.808   7.664
 2386POPC   C1B32359  23.637  40.513   8.564
 2386POPC   C2B32360  23.597  40.588   8.264
 2386POPC   C3B32361  23.640  40.566   7.964
 2386POPC   C4B32362  23.650  40.513   7.664
 2387POPC   NC332363   4.326  43.925   9.464
 2387POPC   PO432364   4.340  43.930   9.164
 2387POPC   GL132365   4.303  43.843   8.864
 2387POPC   GL232366   4.385  43.740   8.864
 2387POPC   C1A32367   4.299  43.896   8.564
 2387POPC   D2A32368   4.363  43.891   8.264
 2387POPC   C3A32369   4.336  43.880   7.964
 2387POPC   C4A32370   4.360  43.880   7.664
 2387POPC   C1B32371   4.427  43.650   8.564
 2387POPC   C2B32372   4.380  43.660   8.264
 2387POPC   C3B32373   4.407  43.639   7.964
 2387POPC   C4B32374   4.394  43.627   7.664
 2388POPC   NC332375  29.183   8.974   9.464
 2388POPC   PO432376  29.167   8.923   9.164
 2388POPC   GL132377  29.145   9.006   8.864
 2388POPC   GL232378  29.003   8.939   8.864
 2388POPC   C1A32379  29.129   8.990   8.564
 2388POPC   D2A32380  29.150   9.015   8.264
 2388POPC   C3A32381  29.112   8.997   7.964
 2388POPC   C4A32382  29.125   8.983   7.664
 2388POPC   C1B32383  28.863   8.888   8.564
 2388POPC   C2B32384  28.934   8.950   8.264
 2388POPC   C3B32385  28.878   8.936   7.964
 2388POPC   C4B32386  28.909   8.944   7.664
 2389POPC   NC332387  25.315  11.328   9.464
 2389POPC   PO432388  25.274  11.296   9.164
 2389POPC   GL132389  25.271  11.325   8.864
 2389POPC   GL232390  25.240  11.457   8.864
 2389POPC   C1A32391  25.281  11.279   8.564
 2389POPC   D2A32392  25.259  11.255   8.264
 2389POPC   C3A32393  25.291  11.343   7.964
 2389POPC   C4A32394  25.295  11.332   7.664
 2389POPC   C1B32395  25.244  11.500   8.564
 2389POPC   C2B32396  25.261  11.577   8.264
 2389POPC   C3B32397  25.311  11.593   7.964
 2389POPC   C4B32398  25.307  11.566   7.664
 2390POPC   NC332399  40.018  33.760   9.464
 2390POPC   PO432400  40.023  33.834   9.164
 2390POPC   GL132401  40.028  33.836   8.864
 2390POPC   GL232402  39.903  33.791   8.864
 2390POPC   C1A32403  40.019  33.831   8.564
 2390POPC   D2A32404  40.017  33.796   8.264
 2390POPC   C3A32405  39.968  33.840   7.964
 2390POPC   C4A32406  39.992  33.832   7.664
 2390POPC   C1B32407  39.798  33.867   8.564
 2390POPC   C2B32408  39.711  33.820   8.264
 2390POPC   C3B32409  39.711  33.826   7.964
 2390POPC   C4B32410  39.770  33.810   7.664
 2391POPC   NC332411  43.878  29.894   9.464
 2391POPC   PO432412  43.916  29.879   9.164
 2391POPC   GL132413  43.881  29.874   8.864
 2391POPC   GL232414  43.863  29.838   8.864
 2391POPC   C1A32415  43.890  29.913   8.564
 2391POPC   D2A32416  43.927  29.933   8.264
 2391POPC   C3A32417  43.930  29.960   7.964
 2391POPC   C4A32418  43.885  29.920   7.664
 2391POPC   C1B32419  43.782  29.684   8.564
 2391POPC   C2B32420  43.775  29.696   8.264
 2391POPC   C3B32421  43.776  29.686   7.964
 2391POPC   C4B32422  43.846  29.647   7.664
 2392POPC   NC332423  33.035  27.599   9.464
 2392POPC   PO432424  33.073  27.622   9.164
 2392POPC   GL132425  33.006  27.591   8.864
 2392POPC   GL232426  33.048  27.717   8.864
 2392POPC   C1A32427  32.980  27.546   8.564
 2392POPC   D2A32428  33.031  27.617   8.264
 2392POPC   C3A32429  33.038  27.571   7.964
 2392POPC   C4A32430  33.001  27.585   7.664
 2392POPC   C1B32431  32.968  27.892   8.564
 2392POPC   C2B32432  33.025  27.808   8.264
 2392POPC   C3B32433  32.995  27.868   7.964
 2392POPC   C4B32434  33.001  27.806   7.664
 2393POPC   NC332435  39.959   2.736   9.464
 2393POPC   PO432436  40.011   2.750   9.164
 2393POPC   GL132437  40.031   2.728   8.864
 2393POPC   GL232438  39.987   2.862   8.864
 2393POPC   C1A32439  39.972   2.723   8.564
 2393POPC   D2A32440  40.027   2.741   8.264
 2393POPC   C3A32441  40.031   2.742   7.964
 2393POPC   C4A32442  40.004   2.745   7.664
 2393POPC   C1B32443  40.017   3.033   8.564
 2393POPC   C2B32444  40.113   2.997   8.264
 2393POPC   C3B32445  40.017   3.036   7.964
 2393POPC   C4B32446  40.075   3.053   7.664
 2394POPC   NC332447  16.706  26.073   9.464
 2394POPC   PO432448  16.709  26.026   9.164
 2394POPC   GL132449  16.699  26.042   8.864
 2394POPC   GL232450  16.800  26.111   8.864
 2394POPC   C1A32451  16.749  26.050   8.564
 2394POPC   D2A32452  16.773  26.033   8.264
 2394POPC   C3A32453  16.695  26.042   7.964
 2394POPC   C4A32454  16.737  26.078   7.664
 2394POPC   C1B32455  16.929  26.216   8.564
 2394POPC   C2B32456  16.913  26.168   8.264
 2394POPC   C3B32457  16.936  26.256   7.964
 2394POPC   C4B32458  16.905  26.171   7.664
 2395POPC   NC332459  20.603  15.189   9.464
 2395POPC   PO432460  20.577  15.162   9.164
 2395POPC   GL132461  20.591  15.191   8.864
 2395POPC   GL232462  20.739  15.190   8.864
 2395POPC   C1A32463  20.593  15.142   8.564
 2395POPC   D2A32464  20.632  15.134   8.264
 2395POPC   C3A32465  20.577  15.182   7.964
 2395POPC   C4A32466  20.593  15.133   7.664
 2395POPC   C1B32467  20.832  15.216   8.564
 2395POPC   C2B32468  20.862  15.210   8.264
 2395POPC   C3B32469  20.883  15.239   7.964
 2395POPC   C4B32470  20.906  15.233   7.664
 2396POPC   NC332471   1.967  22.172   9.464
 2396POPC   PO432472   1.951  22.144   9.164
 2396POPC   GL132473   1.979  22.155   8.864
 2396POPC   GL232474   1.871  22.182   8.864
 2396POPC   C1A32475   1.980  22.189   8.564
 2396POPC   D2A32476   1.971  22.121   8.264
 2396POPC   C3A32477   2.033  22.126   7.964
 2396POPC   C4A32478   2.015  22.196   7.664
 2396POPC   C1B32479   1.760  22.274   8.564
 2396POPC   C2B32480   1.766  22.235   8.264
 2396POPC   C3B32481   1.726  22.269   7.964
 2396POPC   C4B32482   1.714  22.281   7.664
 2397POPC   NC332483  22.122  19.011   9.464
 2397POPC   PO432484  22.134  19.010   9.164
 2397POPC   GL132485  22.160  19.014   8.864
 2397POPC   GL232486  22.073  19.061   8.864
 2397POPC   C1A32487  22.124  19.047   8.564
 2397POPC   D2A32488  22.196  19.010   8.264
 2397POPC   C3A32489  22.124  19.037   7.964
 2397POPC   C4A32490  22.174  19.087   7.664
 2397POPC   C1B32491  21.905  19.023   8.564
 2397POPC   C2B32492  21.947  18.981   8.264
 2397POPC   C3B32493  21.929  18.992   7.964
 2397POPC   C4B32494  21.920  18.973   7.664
 2398POPC   NC332495  22.200  42.342   9.464
 2398POPC   PO432496  22.204  42.366   9.164
 2398POPC   GL132497  22.207  42.351   8.864
 2398POPC   GL232498  22.260  42.215   8.864
 2398POPC   C1A32499  22.115  42.326   8.564
 2398POPC   D2A32500  22.197  42.308   8.264
 2398POPC   C3A32501  22.207  42.320   7.964
 2398POPC   C4A32502  22.174  42.293   7.664
 2398POPC   C1B32503  22.314  42.152   8.564
 2398POPC   C2B32504  22.364  42.122   8.264
 2398POPC   C3B32505  22.362  42.123   7.964
 2398POPC   C4B32506  22.362  42.154   7.664
 2399POPC   NC332507  22.894   1.946   9.464
 2399POPC   PO432508  22.941   1.982   9.164
 2399POPC   GL132509  22.950   1.994   8.864
 2399POPC   GL232510  22.784   1.979   8.864
 2399POPC   C1A32511  22.978   1.962   8.564
 2399POPC   D2A32512  22.893   1.948   8.264
 2399POPC   C3A32513  22.966   2.028   7.964
 2399POPC   C4A32514  22.927   1.941   7.664
 2399POPC   C1B32515  22.690   1.921   8.564
 2399POPC   C2B32516  22.702   1.902   8.264
 2399POPC   C3B32517  22.662   1.882   7.964
 2399POPC   C4B32518  22.687   1.915   7.664
 2400POPC   NC332519   1.963   4.284   9.464
 2400POPC   PO432520   1.983   4.346   9.164
 2400POPC   GL132521   2.018   4.321   8.864
 2400POPC   GL232522   2.140   4.309   8.864
 2400POPC   C1A32523   2.003   4.347   8.564
 2400POPC   D2A32524   1.992   4.354   8.264
 2400POPC   C3A32525   2.038   4.313   7.964
 2400POPC   C4A32526   1.974   4.336   7.664
 2400POPC   C1B32527   2.259   4.245   8.564
 2400POPC   C2B32528   2.260   4.276   8.264
 2400POPC   C3B32529   2.223   4.258   7.964
 2400POPC   C4B32530   2.284   4.245   7.664
 2401POPC   NC332531  23.753  25.218   9.464
 2401POPC   PO432532  23.740  25.276   9.164
 2401POPC   GL132533  23.712  25.263   8.864
 2401POPC   GL232534  23.821  25.340   8.864
 2401POPC   C1A32535  23.695  25.250   8.564
 2401POPC   D2A32536  23.675  25.310   8.264
 2401POPC   C3A32537  23.695  25.277   7.964
 2401POPC   C4A32538  23.682  25.314   7.664
 2401POPC   C1B32539  23.947  25.401   8.564
 2401POPC   C2B32540  23.901  25.459   8.264
 2401POPC   C3B32541  23.934  25.451   7.964
 2401POPC   C4B32542  23.942  25.400   7.664
 2402POPC   NC332543   3.584   6.665   9.464
 2402POPC   PO432544   3.527   6.682   9.164
 2402POPC   GL132545   3.494   6.599   8.864
 2402POPC   GL232546   3.634   6.566   8.864
 2402POPC   C1A32547   3.589   6.643   8.564
 2402POPC   D2A32548   3.566   6.689   8.264
 2402POPC   C3A32549   3.567   6.637   7.964
 2402POPC   C4A32550   3.590   6.678   7.664
 2402POPC   C1B32551   3.679   6.374   8.564
 2402POPC   C2B32552   3.670   6.449   8.264
 2402POPC   C3B32553   3.629   6.395   7.964
 2402POPC   C4B32554   3.627   6.407   7.664
 2403POPC   NC332555  32.272  17.501   9.464
 2403POPC   PO432556  32.259  17.557   9.164
 2403POPC   GL132557  32.279  17.527   8.864
 2403POPC   GL232558  32.402  17.552   8.864
 2403POPC   C1A32559  32.295  17.459   8.564
 2403POPC   D2A32560  32.267  17.471   8.264
 2403POPC   C3A32561  32.291  17.517   7.964
 2403POPC   C4A32562  32.260  17.530   7.664
 2403POPC   C1B32563  32.465  17.495   8.564
 2403POPC   C2B32564  32.474  17.482   8.264
 2403POPC   C3B32565  32.474  17.499   7.964
 2403POPC   C4B32566  32.531  17.484   7.664
 2404POPC   NC332567  28.346  40.792   9.464
 2404POPC   PO432568  28.404  40.736   9.164
 2404POPC   GL132569  28.329  40.756   8.864
 2404POPC   GL232570  28.275  40.715   8.864
 2404POPC   C1A32571  28.382  40.800   8.564
 2404POPC   D2A32572  28.325  40.778   8.264
 2404POPC   C3A32573  28.326  40.816   7.964
 2404POPC   C4A32574  28.379  40.814   7.664
 2404POPC   C1B32575  28.165  40.725   8.564
 2404POPC   C2B32576  28.101  40.680   8.264
 2404POPC   C3B32577  28.132  40.641   7.964
 2404POPC   C4B32578  28.174  40.718   7.664
 2405POPC   NC332579  42.329  16.759   9.464
 2405POPC   PO432580  42.366  16.703   9.164
 2405POPC   GL132581  42.307  16.726   8.864
 2405POPC   GL232582  42.175  16.768   8.864
 2405POPC   C1A32583  42.293  16.741   8.564
 2405POPC   D2A32584  42.364  16.702   8.264
 2405POPC   C3A32585  42.319  16.764   7.964
 2405POPC   C4A32586  42.377  16.759   7.664
 2405POPC   C1B32587  42.055  16.731   8.564
 2405POPC   C2B32588  42.124  16.754   8.264
 2405POPC   C3B32589  42.109  16.688   7.964
 2405POPC   C4B32590  42.129  16.677   7.664
 2406POPC   NC332591  39.960  26.767   9.464
 2406POPC   PO432592  39.967  26.839   9.164
 2406POPC   GL132593  40.037  26.838   8.864
 2406POPC   GL232594  39.863  26.802   8.864
 2406POPC   C1A32595  40.025  26.866   8.564
 2406POPC   D2A32596  39.980  26.835   8.264
 2406POPC   C3A32597  40.050  26.803   7.964
 2406POPC   C4A32598  39.992  26.806   7.664
 2406POPC   C1B32599  39.747  26.825   8.564
 2406POPC   C2B32600  39.755  26.832   8.264
 2406POPC   C3B32601  39.755  26.796   7.964
 2406POPC   C4B32602  39.777  26.803   7.664
 2407POPC   NC332603  26.049   9.772   9.464
 2407POPC   PO432604  26.090   9.732   9.164
 2407POPC   GL132605  26.084   9.713   8.864
 2407POPC   GL232606  25.928   9.854   8.864
 2407POPC   C1A32607  26.069   9.744   8.564
 2407POPC   D2A32608  26.035   9.758   8.264
 2407POPC   C3A32609  26.041   9.699   7.964
 2407POPC   C4A32610  26.050   9.737   7.664
 2407POPC   C1B32611  25.784   9.839   8.564
 2407POPC   C2B32612  25.839   9.880   8.264
 2407POPC   C3B32613  25.832   9.890   7.964
 2407POPC   C4B32614  25.861   9.851   7.664
 2408POPC   NC332615  26.806  32.241   9.464
 2408POPC   PO432616  26.829  32.222   9.164
 2408POPC   GL132617  26.770  32.290   8.864
 2408POPC   GL232618  26.684  32.211   8.864
 2408POPC   C1A32619  26.844  32.223   8.564
 2408POPC   D2A32620  26.821  32.259   8.264
 2408POPC   C3A32621  26.836  32.269   7.964
 2408POPC   C4A32622  26.806  32.261   7.664
 2408POPC   C1B32623  26.634  32.123   8.564
 2408POPC   C2B32624  26.614  32.122   8.264
 2408POPC   C3B32625  26.630  32.148   7.964
 2408POPC   C4B32626  26.658  32.105   7.664
 2409POPC   NC332627   9.740   0.481   9.464
 2409POPC   PO432628   9.729   0.420   9.164
 2409POPC   GL132629   9.727   0.438   8.864
 2409POPC   GL232630   9.725   0.356   8.864
 2409POPC   C1A32631   9.717   0.455   8.564
 2409POPC   D2A32632   9.786   0.403   8.264
 2409POPC   C3A32633   9.720   0.417   7.964
 2409POPC   C4A32634   9.728   0.404   7.664
 2409POPC   C1B32635   9.701   0.158   8.564
 2409POPC   C2B32636   9.665   0.236   8.264
 2409POPC   C3B32637   9.620   0.219   7.964
 2409POPC   C4B32638   9.669   0.196   7.664
 2410POPC   NC332639   2.756   2.788   9.464
 2410POPC   PO432640   2.770   2.805   9.164
 2410POPC   GL132641   2.810   2.735   8.864
 2410POPC   GL232642   2.733   2.880   8.864
 2410POPC   C1A32643   2.757   2.815   8.564
 2410POPC   D2A32644   2.731   2.719   8.264
 2410POPC   C3A32645   2.766   2.797   7.964
 2410POPC   C4A32646   2.768   2.720   7.664
 2410POPC   C1B32647   2.745   3.040   8.564
 2410POPC   C2B32648   2.724   3.041   8.264
 2410POPC   C3B32649   2.748   3.015   7.964
 2410POPC   C4B32650   2.701   3.043   7.664
 2411POPC   NC332651  28.384  29.953   9.464
 2411POPC   PO432652  28.335  29.936   9.164
 2411POPC   GL132653  28.333  29.871   8.864
 2411POPC   GL232654  28.439  30.083   8.864
 2411POPC   C1A32655  28.333  29.943   8.564
 2411POPC   D2A32656  28.364  29.924   8.264
 2411POPC   C3A32657  28.337  29.927   7.964
 2411POPC   C4A32658  28.397  29.916   7.664
 2411POPC   C1B32659  28.459  30.144   8.564
 2411POPC   C2B32660  28.405  30.123   8.264
 2411POPC   C3B32661  28.412  30.185   7.964
 2411POPC   C4B32662  28.499  30.177   7.664
 2412POPC   NC332663  30.690  18.276   9.464
 2412POPC   PO432664  30.720  18.299   9.164
 2412POPC   GL132665  30.672  18.250   8.864
 2412POPC   GL232666  30.782  18.432   8.864
 2412POPC   C1A32667  30.679  18.265   8.564
 2412POPC   D2A32668  30.707  18.327   8.264
 2412POPC   C3A32669  30.728  18.327   7.964
 2412POPC   C4A32670  30.659  18.300   7.664
 2412POPC   C1B32671  30.825  18.514   8.564
 2412POPC   C2B32672  30.803  18.526   8.264
 2412POPC   C3B32673  30.751  18.562   7.964
 2412POPC   C4B32674  30.756  18.515   7.664
 2413POPC   NC332675  38.414   3.591   9.464
 2413POPC   PO432676  38.465   3.581   9.164
 2413POPC   GL132677  38.498   3.562   8.864
 2413POPC   GL232678  38.481   3.389   8.864
 2413POPC   C1A32679  38.442   3.495   8.564
 2413POPC   D2A32680  38.504   3.571   8.264
 2413POPC   C3A32681  38.459   3.502   7.964
 2413POPC   C4A32682  38.492   3.540   7.664
 2413POPC   C1B32683  38.604   3.299   8.564
 2413POPC   C2B32684  38.578   3.371   8.264
 2413POPC   C3B32685  38.607   3.306   7.964
 2413POPC   C4B32686  38.582   3.368   7.664
 2414POPC   NC332687  24.536  40.036   9.464
 2414POPC   PO432688  24.486  40.048   9.164
 2414POPC   GL132689  24.510  40.017   8.864
 2414POPC   GL232690  24.625  39.971   8.864
 2414POPC   C1A32691  24.453  40.039   8.564
 2414POPC   D2A32692  24.500  40.001   8.264
 2414POPC   C3A32693  24.443  40.034   7.964
 2414POPC   C4A32694  24.508  40.002   7.664
 2414POPC   C1B32695  24.686  39.844   8.564
 2414POPC   C2B32696  24.738  39.898   8.264
 2414POPC   C3B32697  24.711  39.906   7.964
 2414POPC   C4B32698  24.701  39.925   7.664
 2415POPC   NC332699   0.427  35.333   9.464
 2415POPC   PO432700   0.396  35.316   9.164
 2415POPC   GL132701   0.446  35.334   8.864
 2415POPC   GL232702   0.529  35.361   8.864
 2415POPC   C1A32703   0.417  35.370   8.564
 2415POPC   D2A32704   0.479  35.379   8.264
 2415POPC   C3A32705   0.482  35.349   7.964
 2415POPC   C4A32706   0.472  35.365   7.664
 2415POPC   C1B32707   0.724  35.273   8.564
 2415POPC   C2B32708   0.724  35.276   8.264
 2415POPC   C3B32709   0.645  35.277   7.964
 2415POPC   C4B32710   0.681  35.304   7.664
 2416POPC   NC332711  18.263  14.361   9.464
 2416POPC   PO432712  18.319  14.401   9.164
 2416POPC   GL132713  18.240  14.450   8.864
 2416POPC   GL232714  18.156  14.414   8.864
 2416POPC   C1A32715  18.237  14.357   8.564
 2416POPC   D2A32716  18.239  14.436   8.264
 2416POPC   C3A32717  18.293  14.373   7.964
 2416POPC   C4A32718  18.323  14.434   7.664
 2416POPC   C1B32719  18.051  14.292   8.564
 2416POPC   C2B32720  18.048  14.380   8.264
 2416POPC   C3B32721  18.041  14.284   7.964
 2416POPC   C4B32722  18.062  14.351   7.664
 2417POPC   NC332723  21.419   1.187   9.464
 2417POPC   PO432724  21.353   1.180   9.164
 2417POPC   GL132725  21.410   1.191   8.864
 2417POPC   GL232726  21.396   1.318   8.864
 2417POPC   C1A32727  21.387   1.252   8.564
 2417POPC   D2A32728  21.431   1.185   8.264
 2417POPC   C3A32729  21.338   1.223   7.964
 2417POPC   C4A32730  21.352   1.223   7.664
 2417POPC   C1B32731  21.496   1.437   8.564
 2417POPC   C2B32732  21.488   1.466   8.264
 2417POPC   C3B32733  21.517   1.445   7.964
 2417POPC   C4B32734  21.506   1.449   7.664
 2418POPC   NC332735  33.801   1.966   9.464
 2418POPC   PO432736  33.809   1.950   9.164
 2418POPC   GL132737  33.821   1.943   8.864
 2418POPC   GL232738  33.955   1.966   8.864
 2418POPC   C1A32739  33.840   1.991   8.564
 2418POPC   D2A32740  33.785   1.953   8.264
 2418POPC   C3A32741  33.835   2.015   7.964
 2418POPC   C4A32742  33.822   2.027   7.664
 2418POPC   C1B32743  34.091   1.971   8.564
 2418POPC   C2B32744  34.074   1.944   8.264
 2418POPC   C3B32745  34.078   1.919   7.964
 2418POPC   C4B32746  34.073   1.899   7.664
 2419POPC   NC332747  38.484   9.760   9.464
 2419POPC   PO432748  38.458   9.711   9.164
 2419POPC   GL132749  38.429   9.725   8.864
 2419POPC   GL232750  38.486   9.904   8.864
 2419POPC   C1A32751  38.475   9.786   8.564
 2419POPC   D2A32752  38.437   9.732   8.264
 2419POPC   C3A32753  38.495   9.793   7.964
 2419POPC   C4A32754  38.496   9.769   7.664
 2419POPC   C1B32755  38.468  10.022   8.564
 2419POPC   C2B32756  38.428  10.033   8.264
 2419POPC   C3B32757  38.393   9.978   7.964
 2419POPC   C4B32758  38.394   9.986   7.664
 2420POPC   NC332759   5.123  35.341   9.464
 2420POPC   PO432760   5.069  35.347   9.164
 2420POPC   GL132761   5.111  35.378   8.864
 2420POPC   GL232762   5.083  35.524   8.864
 2420POPC   C1A32763   5.078  35.324   8.564
 2420POPC   D2A32764   5.112  35.329   8.264
 2420POPC   C3A32765   5.121  35.357   7.964
 2420POPC   C4A32766   5.132  35.361   7.664
 2420POPC   C1B32767   5.107  35.594   8.564
 2420POPC   C2B32768   5.039  35.578   8.264
 2420POPC   C3B32769   5.051  35.642   7.964
 2420POPC   C4B32770   5.065  35.640   7.664
 2421POPC   NC332771  14.388  23.706   9.464
 2421POPC   PO432772  14.384  23.667   9.164
 2421POPC   GL132773  14.395  23.666   8.864
 2421POPC   GL232774  14.404  23.798   8.864
 2421POPC   C1A32775  14.447  23.672   8.564
 2421POPC   D2A32776  14.359  23.666   8.264
 2421POPC   C3A32777  14.450  23.696   7.964
 2421POPC   C4A32778  14.421  23.684   7.664
 2421POPC   C1B32779  14.430  23.935   8.564
 2421POPC   C2B32780  14.425  23.921   8.264
 2421POPC   C3B32781  14.430  23.916   7.964
 2421POPC   C4B32782  14.426  23.911   7.664
 2422POPC   NC332783   6.610  39.993   9.464
 2422POPC   PO432784   6.612  39.967   9.164
 2422POPC   GL132785   6.610  40.041   8.864
 2422POPC   GL232786   6.789  40.009   8.864
 2422POPC   C1A32787   6.636  40.053   8.564
 2422POPC   D2A32788   6.691  39.963   8.264
 2422POPC   C3A32789   6.595  40.051   7.964
 2422POPC   C4A32790   6.639  40.007   7.664
 2422POPC   C1B32791   6.864  40.018   8.564
 2422POPC   C2B32792   6.944  39.991   8.264
 2422POPC   C3B32793   6.878  40.036   7.964
 2422POPC   C4B32794   6.905  40.029   7.664
 2423POPC   NC332795   5.845  23.704   9.464
 2423POPC   PO432796   5.857  23.715   9.164
 2423POPC   GL132797   5.882  23.761   8.864
 2423POPC   GL232798   5.969  23.777   8.864
 2423POPC   C1A32799   5.861  23.672   8.564
 2423POPC   D2A32800   5.828  23.684   8.264
 2423POPC   C3A32801   5.879  23.665   7.964
 2423POPC   C4A32802   5.824  23.726   7.664
 2423POPC   C1B32803   6.109  23.805   8.564
 2423POPC   C2B32804   6.065  23.750   8.264
 2423POPC   C3B32805   6.068  23.780   7.964
 2423POPC   C4B32806   6.134  23.767   7.664
 2424POPC   NC332807  12.032   5.837   9.464
 2424POPC   PO432808  12.055   5.880   9.164
 2424POPC   GL132809  12.052   5.863   8.864
 2424POPC   GL232810  12.126   5.759   8.864
 2424POPC   C1A32811  12.111   5.857   8.564
 2424POPC   D2A32812  12.061   5.877   8.264
 2424POPC   C3A32813  12.053   5.836   7.964
 2424POPC   C4A32814  12.059   5.881   7.664
 2424POPC   C1B32815  12.228   5.697   8.564
 2424POPC   C2B32816  12.292   5.700   8.264
 2424POPC   C3B32817  12.253   5.705   7.964
 2424POPC   C4B32818  12.203   5.730   7.664
 2425POPC   NC332819  12.872   5.104   9.464
 2425POPC   PO432820  12.821   5.139   9.164
 2425POPC   GL132821  12.855   5.090   8.864
 2425POPC   GL232822  13.001   5.001   8.864
 2425POPC   C1A32823  12.824   5.057   8.564
 2425POPC   D2A32824  12.808   5.139   8.264
 2425POPC   C3A32825  12.821   5.073   7.964
 2425POPC   C4A32826  12.849   5.114   7.664
 2425POPC   C1B32827  13.048   5.029   8.564
 2425POPC   C2B32828  13.080   4.987   8.264
 2425POPC   C3B32829  13.084   4.964   7.964
 2425POPC   C4B32830  13.039   4.999   7.664
 2426POPC   NC332831  22.895   6.623   9.464
 2426POPC   PO432832  22.929   6.631   9.164
 2426POPC   GL132833  22.908   6.617   8.864
 2426POPC   GL232834  22.894   6.739   8.864
 2426POPC   C1A32835  22.911   6.638   8.564
 2426POPC   D2A32836  22.983   6.651   8.264
 2426POPC   C3A32837  22.898   6.636   7.964
 2426POPC   C4A32838  22.911   6.681   7.664
 2426POPC   C1B32839  22.815   6.872   8.564
 2426POPC   C2B32840  22.765   6.810   8.264
 2426POPC   C3B32841  22.813   6.859   7.964
 2426POPC   C4B32842  22.806   6.804   7.664
 2427POPC   NC332843   7.372  15.968   9.464
 2427POPC   PO432844   7.467  16.004   9.164
 2427POPC   GL132845   7.437  15.956   8.864
 2427POPC   GL232846   7.567  15.930   8.864
 2427POPC   C1A32847   7.424  15.991   8.564
 2427POPC   D2A32848   7.383  15.908   8.264
 2427POPC   C3A32849   7.428  15.955   7.964
 2427POPC   C4A32850   7.460  15.921   7.664
 2427POPC   C1B32851   7.668  15.884   8.564
 2427POPC   C2B32852   7.715  15.893   8.264
 2427POPC   C3B32853   7.657  15.931   7.964
 2427POPC   C4B32854   7.679  15.918   7.664
 2428POPC   NC332855   7.398   2.792   9.464
 2428POPC   PO432856   7.444   2.737   9.164
 2428POPC   GL132857   7.381   2.804   8.864
 2428POPC   GL232858   7.423   2.894   8.864
 2428POPC   C1A32859   7.445   2.809   8.564
 2428POPC   D2A32860   7.444   2.732   8.264
 2428POPC   C3A32861   7.401   2.777   7.964
 2428POPC   C4A32862   7.447   2.773   7.664
 2428POPC   C1B32863   7.399   2.999   8.564
 2428POPC   C2B32864   7.367   2.997   8.264
 2428POPC   C3B32865   7.353   2.972   7.964
 2428POPC   C4B32866   7.391   2.971   7.664
 2429POPC   NC332867   2.760   8.225   9.464
 2429POPC   PO432868   2.735   8.217   9.164
 2429POPC   GL132869   2.741   8.165   8.864
 2429POPC   GL232870   2.740   8.302   8.864
 2429POPC   C1A32871   2.776   8.163   8.564
 2429POPC   D2A32872   2.788   8.237   8.264
 2429POPC   C3A32873   2.755   8.187   7.964
 2429POPC   C4A32874   2.801   8.232   7.664
 2429POPC   C1B32875   2.656   8.444   8.564
 2429POPC   C2B32876   2.682   8.459   8.264
 2429POPC   C3B32877   2.647   8.417   7.964
 2429POPC   C4B32878   2.696   8.443   7.664
 2430POPC   NC332879   4.343   9.761   9.464
 2430POPC   PO432880   4.311   9.774   9.164
 2430POPC   GL132881   4.289   9.723   8.864
 2430POPC   GL232882   4.302   9.594   8.864
 2430POPC   C1A32883   4.333   9.725   8.564
 2430POPC   D2A32884   4.366   9.783   8.264
 2430POPC   C3A32885   4.268   9.700   7.964
 2430POPC   C4A32886   4.354   9.721   7.664
 2430POPC   C1B32887   4.294   9.490   8.564
 2430POPC   C2B32888   4.362   9.529   8.264
 2430POPC   C3B32889   4.292   9.465   7.964
 2430POPC   C4B32890   4.316   9.529   7.664
 2431POPC   NC332891  12.862  14.433   9.464
 2431POPC   PO432892  12.852  14.370   9.164
 2431POPC   GL132893  12.809  14.439   8.864
 2431POPC   GL232894  12.748  14.470   8.864
 2431POPC   C1A32895  12.889  14.359   8.564
 2431POPC   D2A32896  12.843  14.387   8.264
 2431POPC   C3A32897  12.877  14.423   7.964
 2431POPC   C4A32898  12.820  14.444   7.664
 2431POPC   C1B32899  12.579  14.451   8.564
 2431POPC   C2B32900  12.613  14.450   8.264
 2431POPC   C3B32901  12.594  14.475   7.964
 2431POPC   C4B32902  12.609  14.448   7.664
 2432POPC   NC332903  38.429  14.451   9.464
 2432POPC   PO432904  38.420  14.394   9.164
 2432POPC   GL132905  38.453  14.376   8.864
 2432POPC   GL232906  38.383  14.466   8.864
 2432POPC   C1A32907  38.487  14.389   8.564
 2432POPC   D2A32908  38.497  14.411   8.264
 2432POPC   C3A32909  38.481  14.406   7.964
 2432POPC   C4A32910  38.466  14.429   7.664
 2432POPC   C1B32911  38.220  14.545   8.564
 2432POPC   C2B32912  38.232  14.585   8.264
 2432POPC   C3B32913  38.304  14.579   7.964
 2432POPC   C4B32914  38.253  14.545   7.664
 2433POPC   NC332915   7.422  36.148   9.464
 2433POPC   PO432916   7.457  36.155   9.164
 2433POPC   GL132917   7.433  36.175   8.864
 2433POPC   GL232918   7.570  36.171   8.864
 2433POPC   C1A32919   7.375  36.120   8.564
 2433POPC   D2A32920   7.460  36.090   8.264
 2433POPC   C3A32921   7.419  36.084   7.964
 2433POPC   C4A32922   7.401  36.098   7.664
 2433POPC   C1B32923   7.603  36.289   8.564
 2433POPC   C2B32924   7.641  36.241   8.264
 2433POPC   C3B32925   7.648  36.270   7.964
 2433POPC   C4B32926   7.641  36.249   7.664
 2434POPC   NC332927  42.290  12.055   9.464
 2434POPC   PO432928  42.287  12.104   9.164
 2434POPC   GL132929  42.376  12.123   8.864
 2434POPC   GL232930  42.415  11.987   8.864
 2434POPC   C1A32931  42.344  12.041   8.564
 2434POPC   D2A32932  42.350  12.085   8.264
 2434POPC   C3A32933  42.305  12.030   7.964
 2434POPC   C4A32934  42.337  12.047   7.664
 2434POPC   C1B32935  42.582  11.942   8.564
 2434POPC   C2B32936  42.526  11.924   8.264
 2434POPC   C3B32937  42.599  12.001   7.964
 2434POPC   C4B32938  42.542  11.953   7.664
 2435POPC   NC332939   8.181   7.423   9.464
 2435POPC   PO432940   8.188   7.458   9.164
 2435POPC   GL132941   8.234   7.452   8.864
 2435POPC   GL232942   8.052   7.395   8.864
 2435POPC   C1A32943   8.196   7.409   8.564
 2435POPC   D2A32944   8.219   7.453   8.264
 2435POPC   C3A32945   8.225   7.397   7.964
 2435POPC   C4A32946   8.150   7.435   7.664
 2435POPC   C1B32947   7.990   7.363   8.564
 2435POPC   C2B32948   7.953   7.370   8.264
 2435POPC   C3B32949   7.973   7.349   7.964
 2435POPC   C4B32950   7.959   7.375   7.664
 2436POPC   NC332951  26.826  43.142   9.464
 2436POPC   PO432952  26.856  43.113   9.164
 2436POPC   GL132953  26.771  43.153   8.864
 2436POPC   GL232954  26.912  43.007   8.864
 2436POPC   C1A32955  26.818  43.113   8.564
 2436POPC   D2A32956  26.827  43.157   8.264
 2436POPC   C3A32957  26.789  43.072   7.964
 2436POPC   C4A32958  26.787  43.073   7.664
 2436POPC   C1B32959  27.029  42.992   8.564
 2436POPC   C2B32960  27.044  42.976   8.264
 2436POPC   C3B32961  26.981  42.931   7.964
 2436POPC   C4B32962  27.034  42.945   7.664
 2437POPC   NC332963  15.187  37.639   9.464
 2437POPC   PO432964  15.157  37.669   9.164
 2437POPC   GL132965  15.174  37.684   8.864
 2437POPC   GL232966  15.079  37.767   8.864
 2437POPC   C1A32967  15.140  37.701   8.564
 2437POPC   D2A32968  15.142  37.704   8.264
 2437POPC   C3A32969  15.130  37.631   7.964
 2437POPC   C4A32970  15.192  37.695   7.664
 2437POPC   C1B32971  15.053  37.862   8.564
 2437POPC   C2B32972  15.039  37.890   8.264
 2437POPC   C3B32973  15.024  37.868   7.964
 2437POPC   C4B32974  14.982  37.887   7.664
 2438POPC   NC332975  29.944   5.076   9.464
 2438POPC   PO432976  29.879   5.098   9.164
 2438POPC   GL132977  29.963   5.089   8.864
 2438POPC   GL232978  30.010   4.979   8.864
 2438POPC   C1A32979  29.927   5.135   8.564
 2438POPC   D2A32980  29.875   5.095   8.264
 2438POPC   C3A32981  29.882   5.082   7.964
 2438POPC   C4A32982  29.941   5.045   7.664
 2438POPC   C1B32983  30.123   4.901   8.564
 2438POPC   C2B32984  30.155   4.914   8.264
 2438POPC   C3B32985  30.127   4.919   7.964
 2438POPC   C4B32986  30.109   4.906   7.664
 2439POPC   NC332987   1.230  19.873   9.464
 2439POPC   PO432988   1.216  19.850   9.164
 2439POPC   GL132989   1.196  19.787   8.864
 2439POPC   GL232990   1.258  19.676   8.864
 2439POPC   C1A32991   1.170  19.853   8.564
 2439POPC   D2A32992   1.209  19.797   8.264
 2439POPC   C3A32993   1.246  19.800   7.964
 2439POPC   C4A32994   1.173  19.806   7.664
 2439POPC   C1B32995   1.293  19.600   8.564
 2439POPC   C2B32996   1.343  19.632   8.264
 2439POPC   C3B32997   1.367  19.586   7.964
 2439POPC   C4B32998   1.273  19.627   7.664
 2440POPC   NC332999  12.045   9.743   9.464
 2440POPC   PO433000  12.123   9.729   9.164
 2440POPC   GL133001  12.074   9.793   8.864
 2440POPC   GL233002  12.061   9.843   8.864
 2440POPC   C1A33003  12.034   9.723   8.564
 2440POPC   D2A33004  12.049   9.776   8.264
 2440POPC   C3A33005  12.083   9.773   7.964
 2440POPC   C4A33006  12.046   9.770   7.664
 2440POPC   C1B33007  12.153   9.969   8.564
 2440POPC   C2B33008  12.135  10.001   8.264
 2440POPC   C3B33009  12.133   9.967   7.964
 2440POPC   C4B33010  12.159   9.956   7.664
 2441POPC   NC333011  44.642  37.633   9.464
 2441POPC   PO433012  44.703  37.704   9.164
 2441POPC   GL133013  44.668  37.663   8.864
 2441POPC   GL233014  44.700  37.828   8.864
 2441POPC   C1A33015  44.628  37.644   8.564
 2441POPC   D2A33016  44.666  37.729   8.264
 2441POPC   C3A33017  44.634  37.656   7.964
 2441POPC   C4A33018  44.666  37.640   7.664
 2441POPC   C1B33019  44.690  37.921   8.564
 2441POPC   C2B33020  44.634  37.925   8.264
 2441POPC   C3B33021  44.663  37.883   7.964
 2441POPC   C4B33022  44.602  37.964   7.664
 2442POPC   NC333023  25.996  28.358   9.464
 2442POPC   PO433024  25.992  28.412   9.164
 2442POPC   GL133025  26.005  28.331   8.864
 2442POPC   GL233026  26.147  28.312   8.864
 2442POPC   C1A33027  26.005  28.400   8.564
 2442POPC   D2A33028  26.085  28.325   8.264
 2442POPC   C3A33029  26.027  28.347   7.964
 2442POPC   C4A33030  26.014  28.365   7.664
 2442POPC   C1B33031  26.226  28.196   8.564
 2442POPC   C2B33032  26.288  28.228   8.264
 2442POPC   C3B33033  26.203  28.237   7.964
 2442POPC   C4B33034  26.201  28.263   7.664
 2443POPC   NC333035  11.336  43.063   9.464
 2443POPC   PO433036  11.320  43.098   9.164
 2443POPC   GL133037  11.339  43.093   8.864
 2443POPC   GL233038  11.389  43.216   8.864
 2443POPC   C1A33039  11.317  43.097   8.564
 2443POPC   D2A33040  11.289  43.063   8.264
 2443POPC   C3A33041  11.287  43.160   7.964
 2443POPC   C4A33042  11.345  43.128   7.664
 2443POPC   C1B33043  11.383  43.301   8.564
 2443POPC   C2B33044  11.456  43.283   8.264
 2443POPC   C3B33045  11.408  43.360   7.964
 2443POPC   C4B33046  11.434  43.373   7.664
 2444POPC   NC333047  14.422  15.925   9.464
 2444POPC   PO433048  14.374  15.973   9.164
 2444POPC   GL133049  14.444  15.967   8.864
 2444POPC   GL233050  14.472  15.897   8.864
 2444POPC   C1A33051  14.421  15.956   8.564
 2444POPC   D2A33052  14.394  15.960   8.264
 2444POPC   C3A33053  14.409  15.974   7.964
 2444POPC   C4A33054  14.371  15.997   7.664
 2444POPC   C1B33055  14.592  15.782   8.564
 2444POPC   C2B33056  14.561  15.803   8.264
 2444POPC   C3B33057  14.650  15.788   7.964
 2444POPC   C4B33058  14.618  15.816   7.664
 2445POPC   NC333059  18.284  31.482   9.464
 2445POPC   PO433060  18.297  31.469   9.164
 2445POPC   GL133061  18.237  31.490   8.864
 2445POPC   GL233062  18.194  31.541   8.864
 2445POPC   C1A33063  18.247  31.487   8.564
 2445POPC   D2A33064  18.298  31.516   8.264
 2445POPC   C3A33065  18.299  31.477   7.964
 2445POPC   C4A33066  18.281  31.465   7.664
 2445POPC   C1B33067  18.074  31.516   8.564
 2445POPC   C2B33068  18.022  31.508   8.264
 2445POPC   C3B33069  18.016  31.515   7.964
 2445POPC   C4B33070  18.060  31.563   7.664
 2446POPC   NC333071  22.151  43.158   9.464
 2446POPC   PO433072  22.195  43.069   9.164
 2446POPC   GL133073  22.171  43.145   8.864
 2446POPC   GL233074  22.110  43.232   8.864
 2446POPC   C1A33075  22.211  43.086   8.564
 2446POPC   D2A33076  22.211  43.103   8.264
 2446POPC   C3A33077  22.165  43.152   7.964
 2446POPC   C4A33078  22.121  43.147   7.664
 2446POPC   C1B33079  22.188  43.379   8.564
 2446POPC   C2B33080  22.129  43.404   8.264
 2446POPC   C3B33081  22.122  43.349   7.964
 2446POPC   C4B33082  22.153  43.404   7.664
 2447POPC   NC333083  42.342   0.450   9.464
 2447POPC   PO433084  42.324   0.441   9.164
 2447POPC   GL133085  42.290   0.476   8.864
 2447POPC   GL233086  42.281   0.317   8.864
 2447POPC   C1A33087  42.366   0.465   8.564
 2447POPC   D2A33088  42.316   0.474   8.264
 2447POPC   C3A33089  42.319   0.422   7.964
 2447POPC   C4A33090  42.384   0.444   7.664
 2447POPC   C1B33091  42.258   0.212   8.564
 2447POPC   C2B33092  42.297   0.207   8.264
 2447POPC   C3B33093  42.319   0.211   7.964
 2447POPC   C4B33094  42.249   0.222   7.664
 2448POPC   NC333095  23.701   2.735   9.464
 2448POPC   PO433096  23.670   2.719   9.164
 2448POPC   GL133097  23.695   2.785   8.864
 2448POPC   GL233098  23.756   2.844   8.864
 2448POPC   C1A33099  23.718   2.754   8.564
 2448POPC   D2A33100  23.762   2.802   8.264
 2448POPC   C3A33101  23.762   2.742   7.964
 2448POPC   C4A33102  23.680   2.749   7.664
 2448POPC   C1B33103  23.672   3.035   8.564
 2448POPC   C2B33104  23.697   3.037   8.264
 2448POPC   C3B33105  23.673   3.034   7.964
 2448POPC   C4B33106  23.678   3.037   7.664
 2449POPC   NC333107  26.027  42.371   9.464
 2449POPC   PO433108  26.075  42.378   9.164
 2449POPC   GL133109  26.038  42.286   8.864
 2449POPC   GL233110  26.082  42.226   8.864
 2449POPC   C1A33111  26.010  42.319   8.564
 2449POPC   D2A33112  26.062  42.345   8.264
 2449POPC   C3A33113  26.050  42.333   7.964
 2449POPC   C4A33114  26.088  42.380   7.664
 2449POPC   C1B33115  26.129  42.047   8.564
 2449POPC   C2B33116  26.122  42.117   8.264
 2449POPC   C3B33117  26.121  42.119   7.964
 2449POPC   C4B33118  26.126  42.099   7.664
 2450POPC   NC333119  13.637  30.672   9.464
 2450POPC   PO433120  13.637  30.666   9.164
 2450POPC   GL133121  13.642  30.712   8.864
 2450POPC   GL233122  13.742  30.641   8.864
 2450POPC   C1A33123  13.613  30.678   8.564
 2450POPC   D2A33124  13.639  30.705   8.264
 2450POPC   C3A33125  13.592  30.685   7.964
 2450POPC   C4A33126  13.673  30.724   7.664
 2450POPC   C1B33127  13.835  30.487   8.564
 2450POPC   C2B33128  13.777  30.531   8.264
 2450POPC   C3B33129  13.855  30.573   7.964
 2450POPC   C4B33130  13.827  30.523   7.664
 2451POPC   NC333131  21.355  17.467   9.464
 2451POPC   PO433132  21.379  17.505   9.164
 2451POPC   GL133133  21.368  17.508   8.864
 2451POPC   GL233134  21.310  17.593   8.864
 2451POPC   C1A33135  21.398  17.492   8.564
 2451POPC   D2A33136  21.429  17.543   8.264
 2451POPC   C3A33137  21.342  17.508   7.964
 2451POPC   C4A33138  21.363  17.527   7.664
 2451POPC   C1B33139  21.358  17.733   8.564
 2451POPC   C2B33140  21.261  17.714   8.264
 2451POPC   C3B33141  21.326  17.720   7.964
 2451POPC   C4B33142  21.265  17.728   7.664
 2452POPC   NC333143  23.665   5.054   9.464
 2452POPC   PO433144  23.738   5.113   9.164
 2452POPC   GL133145  23.702   5.120   8.864
 2452POPC   GL233146  23.798   5.072   8.864
 2452POPC   C1A33147  23.694   5.095   8.564
 2452POPC   D2A33148  23.759   5.088   8.264
 2452POPC   C3A33149  23.758   5.055   7.964
 2452POPC   C4A33150  23.757   5.131   7.664
 2452POPC   C1B33151  23.982   5.091   8.564
 2452POPC   C2B33152  23.937   5.089   8.264
 2452POPC   C3B33153  23.993   5.103   7.964
 2452POPC   C4B33154  23.978   5.020   7.664
 2453POPC   NC333155  39.968  25.229   9.464
 2453POPC   PO433156  40.021  25.272   9.164
 2453POPC   GL133157  39.958  25.231   8.864
 2453POPC   GL233158  40.146  25.234   8.864
 2453POPC   C1A33159  39.991  25.235   8.564
 2453POPC   D2A33160  40.021  25.270   8.264
 2453POPC   C3A33161  40.035  25.267   7.964
 2453POPC   C4A33162  39.984  25.216   7.664
 2453POPC   C1B33163  40.202  25.144   8.564
 2453POPC   C2B33164  40.201  25.135   8.264
 2453POPC   C3B33165  40.200  25.121   7.964
 2453POPC   C4B33166  40.226  25.116   7.664
 2454POPC   NC333167  26.864  22.904   9.464
 2454POPC   PO433168  26.813  22.953   9.164
 2454POPC   GL133169  26.772  22.971   8.864
 2454POPC   GL233170  26.899  23.048   8.864
 2454POPC   C1A33171  26.844  22.950   8.564
 2454POPC   D2A33172  26.855  22.939   8.264
 2454POPC   C3A33173  26.840  22.918   7.964
 2454POPC   C4A33174  26.839  22.909   7.664
 2454POPC   C1B33175  27.054  23.034   8.564
 2454POPC   C2B33176  26.986  23.118   8.264
 2454POPC   C3B33177  27.010  23.039   7.964
 2454POPC   C4B33178  27.042  23.046   7.664
 2455POPC   NC333179  43.889  20.592   9.464
 2455POPC   PO433180  43.841  20.633   9.164
 2455POPC   GL133181  43.856  20.636   8.864
 2455POPC   GL233182  44.018  20.610   8.864
 2455POPC   C1A33183  43.842  20.605   8.564
 2455POPC   D2A33184  43.845  20.574   8.264
 2455POPC   C3A33185  43.851  20.603   7.964
 2455POPC   C4A33186  43.903  20.571   7.664
 2455POPC   C1B33187  44.144  20.615   8.564
 2455POPC   C2B33188  44.120  20.615   8.264
 2455POPC   C3B33189  44.087  20.618   7.964
 2455POPC   C4B33190  44.180  20.686   7.664
 2456POPC   NC333191  23.673  36.146   9.464
 2456POPC   PO433192  23.740  36.132   9.164
 2456POPC   GL133193  23.749  36.150   8.864
 2456POPC   GL233194  23.831  36.046   8.864
 2456POPC   C1A33195  23.695  36.146   8.564
 2456POPC   D2A33196  23.733  36.151   8.264
 2456POPC   C3A33197  23.687  36.159   7.964
 2456POPC   C4A33198  23.689  36.160   7.664
 2456POPC   C1B33199  23.873  35.965   8.564
 2456POPC   C2B33200  23.881  35.970   8.264
 2456POPC   C3B33201  23.873  35.938   7.964
 2456POPC   C4B33202  23.839  35.947   7.664
 2457POPC   NC333203  14.369  13.627   9.464
 2457POPC   PO433204  14.429  13.588   9.164
 2457POPC   GL133205  14.378  13.644   8.864
 2457POPC   GL233206  14.403  13.549   8.864
 2457POPC   C1A33207  14.450  13.620   8.564
 2457POPC   D2A33208  14.377  13.586   8.264
 2457POPC   C3A33209  14.377  13.647   7.964
 2457POPC   C4A33210  14.368  13.607   7.664
 2457POPC   C1B33211  14.477  13.413   8.564
 2457POPC   C2B33212  14.509  13.357   8.264
 2457POPC   C3B33213  14.530  13.389   7.964
 2457POPC   C4B33214  14.506  13.398   7.664
 2458POPC   NC333215  22.902  19.059   9.464
 2458POPC   PO433216  22.911  19.074   9.164
 2458POPC   GL133217  22.895  19.035   8.864
 2458POPC   GL233218  22.882  19.099   8.864
 2458POPC   C1A33219  22.908  19.025   8.564
 2458POPC   D2A33220  22.888  19.082   8.264
 2458POPC   C3A33221  22.937  19.105   7.964
 2458POPC   C4A33222  22.977  19.027   7.664
 2458POPC   C1B33223  22.756  19.236   8.564
 2458POPC   C2B33224  22.763  19.257   8.264
 2458POPC   C3B33225  22.806  19.248   7.964
 2458POPC   C4B33226  22.727  19.273   7.664
 2459POPC   NC333227   5.106  39.233   9.464
 2459POPC   PO433228   5.117  39.197   9.164
 2459POPC   GL133229   5.102  39.188   8.864
 2459POPC   GL233230   5.205  39.151   8.864
 2459POPC   C1A33231   5.122  39.222   8.564
 2459POPC   D2A33232   5.078  39.184   8.264
 2459POPC   C3A33233   5.106  39.254   7.964
 2459POPC   C4A33234   5.100  39.279   7.664
 2459POPC   C1B33235   5.263  39.138   8.564
 2459POPC   C2B33236   5.340  39.088   8.264
 2459POPC   C3B33237   5.323  39.119   7.964
 2459POPC   C4B33238   5.317  39.107   7.664
 2460POPC   NC333239  38.458   4.271   9.464
 2460POPC   PO433240  38.451   4.292   9.164
 2460POPC   GL133241  38.477   4.311   8.864
 2460POPC   GL233242  38.328   4.386   8.864
 2460POPC   C1A33243  38.475   4.312   8.564
 2460POPC   D2A33244  38.465   4.286   8.264
 2460POPC   C3A33245  38.444   4.363   7.964
 2460POPC   C4A33246  38.487   4.300   7.664
 2460POPC   C1B33247  38.198   4.444   8.564
 2460POPC   C2B33248  38.236   4.495   8.264
 2460POPC   C3B33249  38.271   4.491   7.964
 2460POPC   C4B33250  38.198   4.475   7.664
 2461POPC   NC333251  43.893  25.288   9.464
 2461POPC   PO433252  43.871  25.217   9.164
 2461POPC   GL133253  43.935  25.273   8.864
 2461POPC   GL233254  43.807  25.222   8.864
 2461POPC   C1A33255  43.840  25.290   8.564
 2461POPC   D2A33256  43.842  25.234   8.264
 2461POPC   C3A33257  43.919  25.274   7.964
 2461POPC   C4A33258  43.903  25.270   7.664
 2461POPC   C1B33259  43.602  25.305   8.564
 2461POPC   C2B33260  43.670  25.266   8.264
 2461POPC   C3B33261  43.612  25.261   7.964
 2461POPC   C4B33262  43.656  25.246   7.664
 2462POPC   NC333263  22.144  15.182   9.464
 2462POPC   PO433264  22.183  15.194   9.164
 2462POPC   GL133265  22.157  15.208   8.864
 2462POPC   GL233266  22.293  15.109   8.864
 2462POPC   C1A33267  22.149  15.146   8.564
 2462POPC   D2A33268  22.120  15.223   8.264
 2462POPC   C3A33269  22.172  15.216   7.964
 2462POPC   C4A33270  22.149  15.219   7.664
 2462POPC   C1B33271  22.401  15.097   8.564
 2462POPC   C2B33272  22.429  15.081   8.264
 2462POPC   C3B33273  22.406  15.097   7.964
 2462POPC   C4B33274  22.395  15.077   7.664
 2463POPC   NC333275  27.615  20.565   9.464
 2463POPC   PO433276  27.547  20.570   9.164
 2463POPC   GL133277  27.643  20.576   8.864
 2463POPC   GL233278  27.747  20.645   8.864
 2463POPC   C1A33279  27.575  20.566   8.564
 2463POPC   D2A33280  27.625  20.654   8.264
 2463POPC   C3A33281  27.545  20.586   7.964
 2463POPC   C4A33282  27.610  20.620   7.664
 2463POPC   C1B33283  27.874  20.602   8.564
 2463POPC   C2B33284  27.872  20.607   8.264
 2463POPC   C3B33285  27.795  20.565   7.964
 2463POPC   C4B33286  27.873  20.578   7.664
 2464POPC   NC333287  13.669  11.297   9.464
 2464POPC   PO433288  13.676  11.347   9.164
 2464POPC   GL133289  13.621  11.320   8.864
 2464POPC   GL233290  13.611  11.470   8.864
 2464POPC   C1A33291  13.615  11.283   8.564
 2464POPC   D2A33292  13.617  11.274   8.264
 2464POPC   C3A33293  13.669  11.318   7.964
 2464POPC   C4A33294  13.650  11.321   7.664
 2464POPC   C1B33295  13.533  11.522   8.564
 2464POPC   C2B33296  13.552  11.582   8.264
 2464POPC   C3B33297  13.544  11.551   7.964
 2464POPC   C4B33298  13.586  11.513   7.664
 2465POPC   NC333299  14.357  26.812   9.464
 2465POPC   PO433300  14.354  26.774   9.164
 2465POPC   GL133301  14.435  26.841   8.864
 2465POPC   GL233302  14.575  26.846   8.864
 2465POPC   C1A33303  14.360  26.835   8.564
 2465POPC   D2A33304  14.422  26.829   8.264
 2465POPC   C3A33305  14.392  26.818   7.964
 2465POPC   C4A33306  14.427  26.846   7.664
 2465POPC   C1B33307  14.607  26.803   8.564
 2465POPC   C2B33308  14.685  26.756   8.264
 2465POPC   C3B33309  14.669  26.797   7.964
 2465POPC   C4B33310  14.695  26.750   7.664
 2466POPC   NC333311  41.512  40.808   9.464
 2466POPC   PO433312  41.578  40.769   9.164
 2466POPC   GL133313  41.529  40.791   8.864
 2466POPC   GL233314  41.719  40.785   8.864
 2466POPC   C1A33315  41.539  40.832   8.564
 2466POPC   D2A33316  41.533  40.738   8.264
 2466POPC   C3A33317  41.562  40.746   7.964
 2466POPC   C4A33318  41.552  40.734   7.664
 2466POPC   C1B33319  41.843  40.762   8.564
 2466POPC   C2B33320  41.802  40.771   8.264
 2466POPC   C3B33321  41.840  40.818   7.964
 2466POPC   C4B33322  41.781  40.760   7.664
 2467POPC   NC333323  36.899   1.188   9.464
 2467POPC   PO433324  36.936   1.192   9.164
 2467POPC   GL133325  36.915   1.262   8.864
 2467POPC   GL233326  36.887   1.286   8.864
 2467POPC   C1A33327  36.926   1.216   8.564
 2467POPC   D2A33328  36.871   1.188   8.264
 2467POPC   C3A33329  36.933   1.213   7.964
 2467POPC   C4A33330  36.883   1.243   7.664
 2467POPC   C1B33331  36.794   1.455   8.564
 2467POPC   C2B33332  36.830   1.455   8.264
 2467POPC   C3B33333  36.805   1.493   7.964
 2467POPC   C4B33334  36.835   1.475   7.664
 2468POPC   NC333335  29.174  15.144   9.464
 2468POPC   PO433336  29.113  15.174   9.164
 2468POPC   GL133337  29.188  15.141   8.864
 2468POPC   GL233338  29.017  15.107   8.864
 2468POPC   C1A33339  29.178  15.201   8.564
 2468POPC   D2A33340  29.144  15.210   8.264
 2468POPC   C3A33341  29.115  15.198   7.964
 2468POPC   C4A33342  29.161  15.205   7.664
 2468POPC   C1B33343  28.888  15.095   8.564
 2468POPC   C2B33344  28.902  15.138   8.264
 2468POPC   C3B33345  28.911  15.131   7.964
 2468POPC   C4B33346  28.878  15.073   7.664
 2469POPC   NC333347  41.540  18.269   9.464
 2469POPC   PO433348  41.577  18.253   9.164
 2469POPC   GL133349  41.568  18.284   8.864
 2469POPC   GL233350  41.604  18.196   8.864
 2469POPC   C1A33351  41.582  18.286   8.564
 2469POPC   D2A33352  41.538  18.333   8.264
 2469POPC   C3A33353  41.564  18.296   7.964
 2469POPC   C4A33354  41.581  18.254   7.664
 2469POPC   C1B33355  41.575  18.046   8.564
 2469POPC   C2B33356  41.621  18.032   8.264
 2469POPC   C3B33357  41.611  18.050   7.964
 2469POPC   C4B33358  41.578  18.009   7.664
 2470POPC   NC333359  21.354  34.576   9.464
 2470POPC   PO433360  21.400  34.596   9.164
 2470POPC   GL133361  21.370  34.542   8.864
 2470POPC   GL233362  21.301  34.500   8.864
 2470POPC   C1A33363  21.388  34.560   8.564
 2470POPC   D2A33364  21.341  34.536   8.264
 2470POPC   C3A33365  21.430  34.618   7.964
 2470POPC   C4A33366  21.383  34.621   7.664
 2470POPC   C1B33367  21.147  34.437   8.564
 2470POPC   C2B33368  21.104  34.518   8.264
 2470POPC   C3B33369  21.199  34.505   7.964
 2470POPC   C4B33370  21.131  34.519   7.664
 2471POPC   NC333371  21.348   6.667   9.464
 2471POPC   PO433372  21.379   6.637   9.164
 2471POPC   GL133373  21.356   6.682   8.864
 2471POPC   GL233374  21.376   6.502   8.864
 2471POPC   C1A33375  21.414   6.656   8.564
 2471POPC   D2A33376  21.391   6.645   8.264
 2471POPC   C3A33377  21.350   6.663   7.964
 2471POPC   C4A33378  21.395   6.642   7.664
 2471POPC   C1B33379  21.231   6.432   8.564
 2471POPC   C2B33380  21.279   6.445   8.264
 2471POPC   C3B33381  21.315   6.454   7.964
 2471POPC   C4B33382  21.316   6.421   7.664
 2472POPC   NC333383  19.874   5.087   9.464
 2472POPC   PO433384  19.836   5.117   9.164
 2472POPC   GL133385  19.823   5.114   8.864
 2472POPC   GL233386  19.939   5.149   8.864
 2472POPC   C1A33387  19.832   5.076   8.564
 2472POPC   D2A33388  19.826   5.068   8.264
 2472POPC   C3A33389  19.862   5.118   7.964
 2472POPC   C4A33390  19.860   5.090   7.664
 2472POPC   C1B33391  20.083   5.128   8.564
 2472POPC   C2B33392  20.122   5.172   8.264
 2472POPC   C3B33393  20.104   5.106   7.964
 2472POPC   C4B33394  20.110   5.095   7.664
 2473POPC   NC333395  19.011  35.328   9.464
 2473POPC   PO433396  19.087  35.394   9.164
 2473POPC   GL133397  19.076  35.341   8.864
 2473POPC   GL233398  19.200  35.359   8.864
 2473POPC   C1A33399  19.073  35.354   8.564
 2473POPC   D2A33400  19.090  35.353   8.264
 2473POPC   C3A33401  19.070  35.326   7.964
 2473POPC   C4A33402  19.063  35.397   7.664
 2473POPC   C1B33403  19.307  35.411   8.564
 2473POPC   C2B33404  19.277  35.430   8.264
 2473POPC   C3B33405  19.317  35.457   7.964
 2473POPC   C4B33406  19.317  35.402   7.664
 2474POPC   NC333407  24.447  26.077   9.464
 2474POPC   PO433408  24.515  26.086   9.164
 2474POPC   GL133409  24.454  26.016   8.864
 2474POPC   GL233410  24.456  25.893   8.864
 2474POPC   C1A33411  24.517  26.014   8.564
 2474POPC   D2A33412  24.455  26.023   8.264
 2474POPC   C3A33413  24.525  26.040   7.964
 2474POPC   C4A33414  24.519  26.024   7.664
 2474POPC   C1B33415  24.437  25.783   8.564
 2474POPC   C2B33416  24.486  25.796   8.264
 2474POPC   C3B33417  24.430  25.788   7.964
 2474POPC   C4B33418  24.465  25.760   7.664
 2475POPC   NC333419  44.621  15.917   9.464
 2475POPC   PO433420  44.665  15.914   9.164
 2475POPC   GL133421  44.659  15.906   8.864
 2475POPC   GL233422  44.729  15.913   8.864
 2475POPC   C1A33423  44.628  15.910   8.564
 2475POPC   D2A33424  44.686  15.988   8.264
 2475POPC   C3A33425  44.682  15.999   7.964
 2475POPC   C4A33426  44.653  15.922   7.664
 2475POPC   C1B33427  44.853  15.869   8.564
 2475POPC   C2B33428  44.923  15.803   8.264
 2475POPC   C3B33429  44.856  15.886   7.964
 2475POPC   C4B33430  44.915  15.856   7.664
 2476POPC   NC333431  34.603  43.094   9.464
 2476POPC   PO433432  34.582  43.124   9.164
 2476POPC   GL133433  34.529  43.074   8.864
 2476POPC   GL233434  34.538  43.036   8.864
 2476POPC   C1A33435  34.567  43.066   8.564
 2476POPC   D2A33436  34.611  43.132   8.264
 2476POPC   C3A33437  34.573  43.112   7.964
 2476POPC   C4A33438  34.560  43.094   7.664
 2476POPC   C1B33439  34.552  42.840   8.564
 2476POPC   C2B33440  34.562  42.894   8.264
 2476POPC   C3B33441  34.624  42.872   7.964
 2476POPC   C4B33442  34.577  42.879   7.664
 2477POPC   NC333443   6.693  25.254   9.464
 2477POPC   PO433444   6.677  25.237   9.164
 2477POPC   GL133445   6.694  25.260   8.864
 2477POPC   GL233446   6.714  25.295   8.864
 2477POPC   C1A33447   6.645  25.267   8.564
 2477POPC   D2A33448   6.670  25.257   8.264
 2477POPC   C3A33449   6.605  25.285   7.964
 2477POPC   C4A33450   6.650  25.312   7.664
 2477POPC   C1B33451   6.876  25.369   8.564
 2477POPC   C2B33452   6.891  25.380   8.264
 2477POPC   C3B33453   6.810  25.432   7.964
 2477POPC   C4B33454   6.811  25.435   7.664
 2478POPC   NC333455  27.612  19.011   9.464
 2478POPC   PO433456  27.625  19.070   9.164
 2478POPC   GL133457  27.555  19.064   8.864
 2478POPC   GL233458  27.432  19.042   8.864
 2478POPC   C1A33459  27.585  19.016   8.564
 2478POPC   D2A33460  27.592  19.088   8.264
 2478POPC   C3A33461  27.553  19.059   7.964
 2478POPC   C4A33462  27.550  19.043   7.664
 2478POPC   C1B33463  27.342  19.024   8.564
 2478POPC   C2B33464  27.373  19.062   8.264
 2478POPC   C3B33465  27.296  19.080   7.964
 2478POPC   C4B33466  27.366  19.111   7.664
 2479POPC   NC333467  42.346  26.835   9.464
 2479POPC   PO433468  42.381  26.776   9.164
 2479POPC   GL133469  42.302  26.784   8.864
 2479POPC   GL233470  42.315  26.687   8.864
 2479POPC   C1A33471  42.375  26.860   8.564
 2479POPC   D2A33472  42.336  26.836   8.264
 2479POPC   C3A33473  42.300  26.865   7.964
 2479POPC   C4A33474  42.337  26.862   7.664
 2479POPC   C1B33475  42.286  26.550   8.564
 2479POPC   C2B33476  42.264  26.582   8.264
 2479POPC   C3B33477  42.320  26.564   7.964
 2479POPC   C4B33478  42.245  26.597   7.664
 2480POPC   NC333479  21.395   4.279   9.464
 2480POPC   PO433480  21.406   4.302   9.164
 2480POPC   GL133481  21.359   4.280   8.864
 2480POPC   GL233482  21.509   4.288   8.864
 2480POPC   C1A33483  21.386   4.331   8.564
 2480POPC   D2A33484  21.416   4.336   8.264
 2480POPC   C3A33485  21.342   4.352   7.964
 2480POPC   C4A33486  21.424   4.321   7.664
 2480POPC   C1B33487  21.612   4.215   8.564
 2480POPC   C2B33488  21.582   4.246   8.264
 2480POPC   C3B33489  21.655   4.247   7.964
 2480POPC   C4B33490  21.577   4.207   7.664
 2481POPC   NC333491  11.304  39.191   9.464
 2481POPC   PO433492  11.290  39.235   9.164
 2481POPC   GL133493  11.284  39.226   8.864
 2481POPC   GL233494  11.287  39.365   8.864
 2481POPC   C1A33495  11.349  39.204   8.564
 2481POPC   D2A33496  11.314  39.213   8.264
 2481POPC   C3A33497  11.286  39.269   7.964
 2481POPC   C4A33498  11.271  39.189   7.664
 2481POPC   C1B33499  11.357  39.464   8.564
 2481POPC   C2B33500  11.346  39.500   8.264
 2481POPC   C3B33501  11.301  39.463   7.964
 2481POPC   C4B33502  11.341  39.462   7.664
 2482POPC   NC333503  19.804  36.899   9.464
 2482POPC   PO433504  19.833  36.858   9.164
 2482POPC   GL133505  19.807  36.864   8.864
 2482POPC   GL233506  19.955  36.851   8.864
 2482POPC   C1A33507  19.819  36.860   8.564
 2482POPC   D2A33508  19.872  36.940   8.264
 2482POPC   C3A33509  19.813  36.948   7.964
 2482POPC   C4A33510  19.851  36.927   7.664
 2482POPC   C1B33511  20.074  36.839   8.564
 2482POPC   C2B33512  20.048  36.855   8.264
 2482POPC   C3B33513  20.055  36.893   7.964
 2482POPC   C4B33514  20.038  36.887   7.664
 2483POPC   NC333515  31.429  12.883   9.464
 2483POPC   PO433516  31.472  12.831   9.164
 2483POPC   GL133517  31.429  12.869   8.864
 2483POPC   GL233518  31.555  12.998   8.864
 2483POPC   C1A33519  31.477  12.854   8.564
 2483POPC   D2A33520  31.442  12.901   8.264
 2483POPC   C3A33521  31.498  12.867   7.964
 2483POPC   C4A33522  31.457  12.842   7.664
 2483POPC   C1B33523  31.624  13.078   8.564
 2483POPC   C2B33524  31.584  13.095   8.264
 2483POPC   C3B33525  31.592  13.019   7.964
 2483POPC   C4B33526  31.649  13.039   7.664
 2484POPC   NC333527   9.004  21.385   9.464
 2484POPC   PO433528   9.009  21.349   9.164
 2484POPC   GL133529   8.956  21.402   8.864
 2484POPC   GL233530   9.100  21.320   8.864
 2484POPC   C1A33531   9.017  21.392   8.564
 2484POPC   D2A33532   8.991  21.392   8.264
 2484POPC   C3A33533   8.984  21.396   7.964
 2484POPC   C4A33534   8.972  21.413   7.664
 2484POPC   C1B33535   9.130  21.213   8.564
 2484POPC   C2B33536   9.190  21.268   8.264
 2484POPC   C3B33537   9.194  21.249   7.964
 2484POPC   C4B33538   9.148  21.202   7.664
 2485POPC   NC333539  12.043  39.281   9.464
 2485POPC   PO433540  12.051  39.259   9.164
 2485POPC   GL133541  12.048  39.205   8.864
 2485POPC   GL233542  12.080  39.339   8.864
 2485POPC   C1A33543  12.028  39.272   8.564
 2485POPC   D2A33544  12.112  39.274   8.264
 2485POPC   C3A33545  12.051  39.241   7.964
 2485POPC   C4A33546  12.117  39.193   7.664
 2485POPC   C1B33547  12.073  39.440   8.564
 2485POPC   C2B33548  12.118  39.521   8.264
 2485POPC   C3B33549  12.111  39.514   7.964
 2485POPC   C4B33550  12.085  39.484   7.664
 2486POPC   NC333551  39.277  25.264   9.464
 2486POPC   PO433552  39.193  25.268   9.164
 2486POPC   GL133553  39.184  25.297   8.864
 2486POPC   GL233554  39.324  25.136   8.864
 2486POPC   C1A33555  39.196  25.312   8.564
 2486POPC   D2A33556  39.278  25.241   8.264
 2486POPC   C3A33557  39.268  25.231   7.964
 2486POPC   C4A33558  39.189  25.225   7.664
 2486POPC   C1B33559  39.419  25.030   8.564
 2486POPC   C2B33560  39.426  25.077   8.264
 2486POPC   C3B33561  39.339  25.058   7.964
 2486POPC   C4B33562  39.365  25.103   7.664
 2487POPC   NC333563   1.197  33.798   9.464
 2487POPC   PO433564   1.196  33.797   9.164
 2487POPC   GL133565   1.213  33.826   8.864
 2487POPC   GL233566   1.074  33.790   8.864
 2487POPC   C1A33567   1.226  33.806   8.564
 2487POPC   D2A33568   1.187  33.771   8.264
 2487POPC   C3A33569   1.226  33.790   7.964
 2487POPC   C4A33570   1.234  33.784   7.664
 2487POPC   C1B33571   0.971  33.733   8.564
 2487POPC   C2B33572   0.960  33.741   8.264
 2487POPC   C3B33573   0.958  33.759   7.964
 2487POPC   C4B33574   0.991  33.737   7.664
 2488POPC   NC333575  12.896  23.704   9.464
 2488POPC   PO433576  12.896  23.684   9.164
 2488POPC   GL133577  12.843  23.669   8.864
 2488POPC   GL233578  12.803  23.795   8.864
 2488POPC   C1A33579  12.815  23.684   8.564
 2488POPC   D2A33580  12.843  23.724   8.264
 2488POPC   C3A33581  12.835  23.668   7.964
 2488POPC   C4A33582  12.895  23.738   7.664
 2488POPC   C1B33583  12.778  23.918   8.564
 2488POPC   C2B33584  12.850  23.960   8.264
 2488POPC   C3B33585  12.839  23.922   7.964
 2488POPC   C4B33586  12.820  23.942   7.664
 2489POPC   NC333587  37.699  38.440   9.464
 2489POPC   PO433588  37.656  38.409   9.164
 2489POPC   GL133589  37.669  38.497   8.864
 2489POPC   GL233590  37.578  38.514   8.864
 2489POPC   C1A33591  37.675  38.414   8.564
 2489POPC   D2A33592  37.641  38.504   8.264
 2489POPC   C3A33593  37.704  38.464   7.964
 2489POPC   C4A33594  37.668  38.505   7.664
 2489POPC   C1B33595  37.387  38.463   8.564
 2489POPC   C2B33596  37.476  38.502   8.264
 2489POPC   C3B33597  37.430  38.466   7.964
 2489POPC   C4B33598  37.466  38.443   7.664
 2490POPC   NC333599  24.447   7.415   9.464
 2490POPC   PO433600  24.520   7.397   9.164
 2490POPC   GL133601  24.475   7.386   8.864
 2490POPC   GL233602  24.419   7.297   8.864
 2490POPC   C1A33603  24.453   7.456   8.564
 2490POPC   D2A33604  24.510   7.445   8.264
 2490POPC   C3A33605  24.494   7.381   7.964
 2490POPC   C4A33606  24.462   7.432   7.664
 2490POPC   C1B33607  24.430   7.174   8.564
 2490POPC   C2B33608  24.432   7.196   8.264
 2490POPC   C3B33609  24.385   7.153   7.964
 2490POPC   C4B33610  24.442   7.225   7.664
 2491POPC   NC333611  33.803   6.689   9.464
 2491POPC   PO433612  33.802   6.636   9.164
 2491POPC   GL133613  33.763   6.643   8.864
 2491POPC   GL233614  33.896   6.794   8.864
 2491POPC   C1A33615  33.843   6.608   8.564
 2491POPC   D2A33616  33.777   6.690   8.264
 2491POPC   C3A33617  33.796   6.605   7.964
 2491POPC   C4A33618  33.837   6.657   7.664
 2491POPC   C1B33619  33.945   6.867   8.564
 2491POPC   C2B33620  33.897   6.883   8.264
 2491POPC   C3B33621  33.916   6.832   7.964
 2491POPC   C4B33622  33.940   6.905   7.664
 2492POPC   NC333623  41.550  15.219   9.464
 2492POPC   PO433624  41.563  15.211   9.164
 2492POPC   GL133625  41.555  15.206   8.864
 2492POPC   GL233626  41.672  15.155   8.864
 2492POPC   C1A33627  41.529  15.168   8.564
 2492POPC   D2A33628  41.597  15.198   8.264
 2492POPC   C3A33629  41.605  15.185   7.964
 2492POPC   C4A33630  41.525  15.186   7.664
 2492POPC   C1B33631  41.804  15.058   8.564
 2492POPC   C2B33632  41.792  15.108   8.264
 2492POPC   C3B33633  41.817  15.117   7.964
 2492POPC   C4B33634  41.748  15.069   7.664
 2493POPC   NC333635  24.461  22.143   9.464
 2493POPC   PO433636  24.507  22.150   9.164
 2493POPC   GL133637  24.524  22.211   8.864
 2493POPC   GL233638  24.577  22.314   8.864
 2493POPC   C1A33639  24.536  22.186   8.564
 2493POPC   D2A33640  24.507  22.146   8.264
 2493POPC   C3A33641  24.480  22.151   7.964
 2493POPC   C4A33642  24.462  22.182   7.664
 2493POPC   C1B33643  24.575  22.438   8.564
 2493POPC   C2B33644  24.543  22.402   8.264
 2493POPC   C3B33645  24.566  22.412   7.964
 2493POPC   C4B33646  24.556  22.390   7.664
 2494POPC   NC333647  44.653   5.047   9.464
 2494POPC   PO433648  44.652   5.094   9.164
 2494POPC   GL133649  44.647   5.098   8.864
 2494POPC   GL233650  44.559   5.094   8.864
 2494POPC   C1A33651  44.629   5.056   8.564
 2494POPC   D2A33652  44.640   5.106   8.264
 2494POPC   C3A33653  44.698   5.112   7.964
 2494POPC   C4A33654  44.622   5.097   7.664
 2494POPC   C1B33655  44.380   5.018   8.564
 2494POPC   C2B33656  44.431   5.052   8.264
 2494POPC   C3B33657  44.453   5.019   7.964
 2494POPC   C4B33658  44.391   5.072   7.664
 2495POPC   NC333659   8.172  37.679   9.464
 2495POPC   PO433660   8.173  37.710   9.164
 2495POPC   GL133661   8.191  37.706   8.864
 2495POPC   GL233662   8.082  37.631   8.864
 2495POPC   C1A33663   8.182  37.656   8.564
 2495POPC   D2A33664   8.196  37.649   8.264
 2495POPC   C3A33665   8.172  37.649   7.964
 2495POPC   C4A33666   8.154  37.721   7.664
 2495POPC   C1B33667   8.006  37.528   8.564
 2495POPC   C2B33668   7.975  37.549   8.264
 2495POPC   C3B33669   7.956  37.594   7.964
 2495POPC   C4B33670   7.988  37.542   7.664
 2496POPC   NC333671  43.103  18.290   9.464
 2496POPC   PO433672  43.119  18.270   9.164
 2496POPC   GL133673  43.075  18.260   8.864
 2496POPC   GL233674  42.956  18.332   8.864
 2496POPC   C1A33675  43.074  18.332   8.564
 2496POPC   D2A33676  43.071  18.278   8.264
 2496POPC   C3A33677  43.126  18.273   7.964
 2496POPC   C4A33678  43.147  18.328   7.664
 2496POPC   C1B33679  42.907  18.295   8.564
 2496POPC   C2B33680  42.864  18.352   8.264
 2496POPC   C3B33681  42.842  18.293   7.964
 2496POPC   C4B33682  42.837  18.330   7.664
 2497POPC   NC333683  20.581  40.772   9.464
 2497POPC   PO433684  20.602  40.795   9.164
 2497POPC   GL133685  20.591  40.831   8.864
 2497POPC   GL233686  20.632  40.951   8.864
 2497POPC   C1A33687  20.633  40.826   8.564
 2497POPC   D2A33688  20.566  40.825   8.264
 2497POPC   C3A33689  20.621  40.813   7.964
 2497POPC   C4A33690  20.624  40.808   7.664
 2497POPC   C1B33691  20.620  41.011   8.564
 2497POPC   C2B33692  20.651  41.051   8.264
 2497POPC   C3B33693  20.612  41.064   7.964
 2497POPC   C4B33694  20.639  41.064   7.664
 2498POPC   NC333695  43.142  36.140   9.464
 2498POPC   PO433696  43.091  36.174   9.164
 2498POPC   GL133697  43.064  36.153   8.864
 2498POPC   GL233698  43.263  36.172   8.864
 2498POPC   C1A33699  43.156  36.098   8.564
 2498POPC   D2A33700  43.086  36.118   8.264
 2498POPC   C3A33701  43.131  36.086   7.964
 2498POPC   C4A33702  43.135  36.093   7.664
 2498POPC   C1B33703  43.338  36.272   8.564
 2498POPC   C2B33704  43.298  36.298   8.264
 2498POPC   C3B33705  43.336  36.284   7.964
 2498POPC   C4B33706  43.292  36.212   7.664
 2499POPC   NC333707  41.546   1.224   9.464
 2499POPC   PO433708  41.568   1.226   9.164
 2499POPC   GL133709  41.524   1.167   8.864
 2499POPC   GL233710  41.617   1.123   8.864
 2499POPC   C1A33711  41.514   1.193   8.564
 2499POPC   D2A33712  41.569   1.257   8.264
 2499POPC   C3A33713  41.606   1.211   7.964
 2499POPC   C4A33714  41.604   1.212   7.664
 2499POPC   C1B33715  41.771   1.010   8.564
 2499POPC   C2B33716  41.716   0.980   8.264
 2499POPC   C3B33717  41.757   0.998   7.964
 2499POPC   C4B33718  41.716   1.007   7.664
 2500POPC   NC333719   5.119  32.270   9.464
 2500POPC   PO433720   5.133  32.284   9.164
 2500POPC   GL133721   5.128  32.270   8.864
 2500POPC   GL233722   5.168  32.253   8.864
 2500POPC   C1A33723   5.092  32.288   8.564
 2500POPC   D2A33724   5.102  32.265   8.264
 2500POPC   C3A33725   5.068  32.204   7.964
 2500POPC   C4A33726   5.142  32.214   7.664
 2500POPC   C1B33727   5.310  32.280   8.564
 2500POPC   C2B33728   5.375  32.360   8.264
 2500POPC   C3B33729   5.373  32.355   7.964
 2500POPC   C4B33730   5.360  32.319   7.664
 2501POPC   NC333731   9.776  39.229   9.464
 2501POPC   PO433732   9.752  39.230   9.164
 2501POPC   GL133733   9.780  39.251   8.864
 2501POPC   GL233734   9.837  39.256   8.864
 2501POPC   C1A33735   9.711  39.236   8.564
 2501POPC   D2A33736   9.728  39.272   8.264
 2501POPC   C3A33737   9.702  39.258   7.964
 2501POPC   C4A33738   9.774  39.254   7.664
 2501POPC   C1B33739   9.965  39.324   8.564
 2501POPC   C2B33740   9.993  39.309   8.264
 2501POPC   C3B33741   9.984  39.264   7.964
 2501POPC   C4B33742   9.944  39.266   7.664
 2502POPC   NC333743  14.412  25.236   9.464
 2502POPC   PO433744  14.415  25.252   9.164
 2502POPC   GL133745  14.359  25.230   8.864
 2502POPC   GL233746  14.255  25.317   8.864
 2502POPC   C1A33747  14.447  25.288   8.564
 2502POPC   D2A33748  14.422  25.277   8.264
 2502POPC   C3A33749  14.408  25.240   7.964
 2502POPC   C4A33750  14.425  25.241   7.664
 2502POPC   C1B33751  14.242  25.367   8.564
 2502POPC   C2B33752  14.179  25.400   8.264
 2502POPC   C3B33753  14.176  25.387   7.964
 2502POPC   C4B33754  14.183  25.407   7.664
 2503POPC   NC333755  28.408   9.741   9.464
 2503POPC   PO433756  28.395   9.753   9.164
 2503POPC   GL133757  28.374   9.753   8.864
 2503POPC   GL233758  28.392   9.650   8.864
 2503POPC   C1A33759  28.325   9.715   8.564
 2503POPC   D2A33760  28.336   9.772   8.264
 2503POPC   C3A33761  28.346   9.792   7.964
 2503POPC   C4A33762  28.336   9.725   7.664
 2503POPC   C1B33763  28.339   9.481   8.564
 2503POPC   C2B33764  28.327   9.465   8.264
 2503POPC   C3B33765  28.288   9.530   7.964
 2503POPC   C4B33766  28.336   9.502   7.664
 2504POPC   NC333767  19.849   6.659   9.464
 2504POPC   PO433768  19.856   6.606   9.164
 2504POPC   GL133769  19.840   6.684   8.864
 2504POPC   GL233770  19.759   6.667   8.864
 2504POPC   C1A33771  19.867   6.658   8.564
 2504POPC   D2A33772  19.846   6.685   8.264
 2504POPC   C3A33773  19.851   6.661   7.964
 2504POPC   C4A33774  19.818   6.606   7.664
 2504POPC   C1B33775  19.549   6.701   8.564
 2504POPC   C2B33776  19.585   6.637   8.264
 2504POPC   C3B33777  19.624   6.675   7.964
 2504POPC   C4B33778  19.578   6.690   7.664
 2505POPC   NC333779  36.164  15.219   9.464
 2505POPC   PO433780  36.135  15.193   9.164
 2505POPC   GL133781  36.098  15.162   8.864
 2505POPC   GL233782  36.270  15.073   8.864
 2505POPC   C1A33783  36.137  15.217   8.564
 2505POPC   D2A33784  36.153  15.150   8.264
 2505POPC   C3A33785  36.101  15.225   7.964
 2505POPC   C4A33786  36.116  15.214   7.664
 2505POPC   C1B33787  36.323  14.989   8.564
 2505POPC   C2B33788  36.364  14.979   8.264
 2505POPC   C3B33789  36.287  14.988   7.964
 2505POPC   C4B33790  36.274  14.994   7.664
 2506POPC   NC333791  32.237  31.504   9.464
 2506POPC   PO433792  32.289  31.511   9.164
 2506POPC   GL133793  32.273  31.491   8.864
 2506POPC   GL233794  32.303  31.614   8.864
 2506POPC   C1A33795  32.278  31.468   8.564
 2506POPC   D2A33796  32.254  31.447   8.264
 2506POPC   C3A33797  32.222  31.452   7.964
 2506POPC   C4A33798  32.281  31.423   7.664
 2506POPC   C1B33799  32.382  31.706   8.564
 2506POPC   C2B33800  32.405  31.676   8.264
 2506POPC   C3B33801  32.390  31.661   7.964
 2506POPC   C4B33802  32.410  31.661   7.664
 2507POPC   NC333803  33.774   1.166   9.464
 2507POPC   PO433804  33.817   1.260   9.164
 2507POPC   GL133805  33.757   1.172   8.864
 2507POPC   GL233806  33.893   1.277   8.864
 2507POPC   C1A33807  33.754   1.182   8.564
 2507POPC   D2A33808  33.767   1.214   8.264
 2507POPC   C3A33809  33.842   1.180   7.964
 2507POPC   C4A33810  33.780   1.233   7.664
 2507POPC   C1B33811  34.009   1.283   8.564
 2507POPC   C2B33812  34.049   1.281   8.264
 2507POPC   C3B33813  34.058   1.268   7.964
 2507POPC   C4B33814  34.063   1.340   7.664
 2508POPC   NC333815  39.273  19.049   9.464
 2508POPC   PO433816  39.249  19.052   9.164
 2508POPC   GL133817  39.255  19.070   8.864
 2508POPC   GL233818  39.364  19.053   8.864
 2508POPC   C1A33819  39.278  19.049   8.564
 2508POPC   D2A33820  39.270  19.059   8.264
 2508POPC   C3A33821  39.188  19.073   7.964
 2508POPC   C4A33822  39.208  19.105   7.664
 2508POPC   C1B33823  39.479  18.925   8.564
 2508POPC   C2B33824  39.513  18.967   8.264
 2508POPC   C3B33825  39.500  18.918   7.964
 2508POPC   C4B33826  39.483  18.971   7.664
 2509POPC   NC333827  43.061   8.149   9.464
 2509POPC   PO433828  43.120   8.153   9.164
 2509POPC   GL133829  43.131   8.160   8.864
 2509POPC   GL233830  43.236   8.204   8.864
 2509POPC   C1A33831  43.128   8.150   8.564
 2509POPC   D2A33832  43.110   8.162   8.264
 2509POPC   C3A33833  43.122   8.216   7.964
 2509POPC   C4A33834  43.093   8.218   7.664
 2509POPC   C1B33835  43.374   8.283   8.564
 2509POPC   C2B33836  43.362   8.330   8.264
 2509POPC   C3B33837  43.303   8.292   7.964
 2509POPC   C4B33838  43.315   8.293   7.664
 2510POPC   NC333839   3.571  37.684   9.464
 2510POPC   PO433840   3.583  37.712   9.164
 2510POPC   GL133841   3.532  37.652   8.864
 2510POPC   GL233842   3.471  37.744   8.864
 2510POPC   C1A33843   3.533  37.651   8.564
 2510POPC   D2A33844   3.569  37.685   8.264
 2510POPC   C3A33845   3.578  37.645   7.964
 2510POPC   C4A33846   3.549  37.662   7.664
 2510POPC   C1B33847   3.376  37.780   8.564
 2510POPC   C2B33848   3.314  37.808   8.264
 2510POPC   C3B33849   3.334  37.814   7.964
 2510POPC   C4B33850   3.284  37.786   7.664
 2511POPC   NC333851  44.699   1.210   9.464
 2511POPC   PO433852  44.681   1.223   9.164
 2511POPC   GL133853  44.647   1.263   8.864
 2511POPC   GL233854  44.723   1.322   8.864
 2511POPC   C1A33855  44.677   1.165   8.564
 2511POPC   D2A33856  44.683   1.218   8.264
 2511POPC   C3A33857  44.665   1.170   7.964
 2511POPC   C4A33858  44.711   1.239   7.664
 2511POPC   C1B33859  44.908   1.351   8.564
 2511POPC   C2B33860  44.891   1.325   8.264
 2511POPC   C3B33861  44.883   1.368   7.964
 2511POPC   C4B33862  44.922   1.305   7.664
 2512POPC   NC333863   9.706  13.649   9.464
 2512POPC   PO433864   9.721  13.670   9.164
 2512POPC   GL133865   9.756  13.641   8.864
 2512POPC   GL233866   9.752  13.478   8.864
 2512POPC   C1A33867   9.745  13.621   8.564
 2512POPC   D2A33868   9.755  13.649   8.264
 2512POPC   C3A33869   9.762  13.654   7.964
 2512POPC   C4A33870   9.720  13.616   7.664
 2512POPC   C1B33871   9.640  13.380   8.564
 2512POPC   C2B33872   9.647  13.387   8.264
 2512POPC   C3B33873   9.667  13.346   7.964
 2512POPC   C4B33874   9.671  13.423   7.664
 2513POPC   NC333875  16.004  13.652   9.464
 2513POPC   PO433876  15.994  13.582   9.164
 2513POPC   GL133877  15.935  13.594   8.864
 2513POPC   GL233878  15.860  13.513   8.864
 2513POPC   C1A33879  15.956  13.648   8.564
 2513POPC   D2A33880  15.987  13.628   8.264
 2513POPC   C3A33881  15.952  13.663   7.964
 2513POPC   C4A33882  15.921  13.596   7.664
 2513POPC   C1B33883  15.757  13.530   8.564
 2513POPC   C2B33884  15.695  13.539   8.264
 2513POPC   C3B33885  15.722  13.510   7.964
 2513POPC   C4B33886  15.791  13.523   7.664
 2514POPC   NC333887  41.552  33.790   9.464
 2514POPC   PO433888  41.518  33.792   9.164
 2514POPC   GL133889  41.579  33.815   8.864
 2514POPC   GL233890  41.644  33.707   8.864
 2514POPC   C1A33891  41.590  33.807   8.564
 2514POPC   D2A33892  41.551  33.792   8.264
 2514POPC   C3A33893  41.604  33.766   7.964
 2514POPC   C4A33894  41.591  33.833   7.664
 2514POPC   C1B33895  41.759  33.740   8.564
 2514POPC   C2B33896  41.819  33.670   8.264
 2514POPC   C3B33897  41.761  33.695   7.964
 2514POPC   C4B33898  41.792  33.653   7.664
 2515POPC   NC333899  40.811  10.492   9.464
 2515POPC   PO433900  40.817  10.569   9.164
 2515POPC   GL133901  40.831  10.545   8.864
 2515POPC   GL233902  40.942  10.590   8.864
 2515POPC   C1A33903  40.810  10.543   8.564
 2515POPC   D2A33904  40.763  10.541   8.264
 2515POPC   C3A33905  40.750  10.485   7.964
 2515POPC   C4A33906  40.829  10.495   7.664
 2515POPC   C1B33907  41.049  10.649   8.564
 2515POPC   C2B33908  41.016  10.664   8.264
 2515POPC   C3B33909  41.049  10.595   7.964
 2515POPC   C4B33910  40.997  10.646   7.664
 2516POPC   NC333911  23.683  36.872   9.464
 2516POPC   PO433912  23.736  36.952   9.164
 2516POPC   GL133913  23.705  36.894   8.864
 2516POPC   GL233914  23.575  36.783   8.864
 2516POPC   C1A33915  23.696  36.907   8.564
 2516POPC   D2A33916  23.679  36.927   8.264
 2516POPC   C3A33917  23.763  36.870   7.964
 2516POPC   C4A33918  23.691  36.885   7.664
 2516POPC   C1B33919  23.481  36.768   8.564
 2516POPC   C2B33920  23.491  36.789   8.264
 2516POPC   C3B33921  23.497  36.741   7.964
 2516POPC   C4B33922  23.496  36.715   7.664
 2517POPC   NC333923  43.863  32.199   9.464
 2517POPC   PO433924  43.869  32.231   9.164
 2517POPC   GL133925  43.919  32.291   8.864
 2517POPC   GL233926  43.724  32.302   8.864
 2517POPC   C1A33927  43.916  32.279   8.564
 2517POPC   D2A33928  43.862  32.225   8.264
 2517POPC   C3A33929  43.868  32.295   7.964
 2517POPC   C4A33930  43.931  32.261   7.664
 2517POPC   C1B33931  43.645  32.296   8.564
 2517POPC   C2B33932  43.628  32.294   8.264
 2517POPC   C3B33933  43.594  32.298   7.964
 2517POPC   C4B33934  43.680  32.273   7.664
 2518POPC   NC333935  37.705   6.677   9.464
 2518POPC   PO433936  37.724   6.666   9.164
 2518POPC   GL133937  37.667   6.634   8.864
 2518POPC   GL233938  37.779   6.565   8.864
 2518POPC   C1A33939  37.704   6.609   8.564
 2518POPC   D2A33940  37.698   6.672   8.264
 2518POPC   C3A33941  37.687   6.654   7.964
 2518POPC   C4A33942  37.722   6.610   7.664
 2518POPC   C1B33943  37.928   6.549   8.564
 2518POPC   C2B33944  37.893   6.469   8.264
 2518POPC   C3B33945  37.934   6.546   7.964
 2518POPC   C4B33946  37.911   6.545   7.664
 2519POPC   NC333947  22.181  22.911   9.464
 2519POPC   PO433948  22.169  22.948   9.164
 2519POPC   GL133949  22.129  22.891   8.864
 2519POPC   GL233950  22.220  23.004   8.864
 2519POPC   C1A33951  22.116  22.971   8.564
 2519POPC   D2A33952  22.185  22.892   8.264
 2519POPC   C3A33953  22.148  22.941   7.964
 2519POPC   C4A33954  22.194  22.938   7.664
 2519POPC   C1B33955  22.406  23.106   8.564
 2519POPC   C2B33956  22.326  23.045   8.264
 2519POPC   C3B33957  22.410  23.071   7.964
 2519POPC   C4B33958  22.406  23.094   7.664
 2520POPC   NC333959  43.879  33.035   9.464
 2520POPC   PO433960  43.846  32.994   9.164
 2520POPC   GL133961  43.932  33.010   8.864
 2520POPC   GL233962  43.993  33.150   8.864
 2520POPC   C1A33963  43.891  33.060   8.564
 2520POPC   D2A33964  43.857  33.058   8.264
 2520POPC   C3A33965  43.843  33.050   7.964
 2520POPC   C4A33966  43.896  33.045   7.664
 2520POPC   C1B33967  44.096  33.188   8.564
 2520POPC   C2B33968  44.056  33.166   8.264
 2520POPC   C3B33969  44.121  33.143   7.964
 2520POPC   C4B33970  44.103  33.197   7.664
 2521POPC   NC333971  23.748  37.716   9.464
 2521POPC   PO433972  23.731  37.655   9.164
 2521POPC   GL133973  23.686  37.639   8.864
 2521POPC   GL233974  23.838  37.788   8.864
 2521POPC   C1A33975  23.705  37.713   8.564
 2521POPC   D2A33976  23.754  37.652   8.264
 2521POPC   C3A33977  23.720  37.703   7.964
 2521POPC   C4A33978  23.665  37.654   7.664
 2521POPC   C1B33979  23.882  37.793   8.564
 2521POPC   C2B33980  23.953  37.844   8.264
 2521POPC   C3B33981  23.897  37.809   7.964
 2521POPC   C4B33982  23.911  37.785   7.664
 2522POPC   NC333983  25.279  12.899   9.464
 2522POPC   PO433984  25.256  12.803   9.164
 2522POPC   GL133985  25.271  12.901   8.864
 2522POPC   GL233986  25.258  12.979   8.864
 2522POPC   C1A33987  25.278  12.840   8.564
 2522POPC   D2A33988  25.244  12.885   8.264
 2522POPC   C3A33989  25.271  12.806   7.964
 2522POPC   C4A33990  25.296  12.837   7.664
 2522POPC   C1B33991  25.235  13.114   8.564
 2522POPC   C2B33992  25.254  13.135   8.264
 2522POPC   C3B33993  25.213  13.059   7.964
 2522POPC   C4B33994  25.202  13.086   7.664
 2523POPC   NC333995   8.213  33.786   9.464
 2523POPC   PO433996   8.157  33.848   9.164
 2523POPC   GL133997   8.163  33.752   8.864
 2523POPC   GL233998   8.278  33.639   8.864
 2523POPC   C1A33999   8.176  33.799   8.564
 2523POPC   D2A34000   8.218  33.808   8.264
 2523POPC   C3A34001   8.241  33.833   7.964
 2523POPC   C4A34002   8.239  33.805   7.664
 2523POPC   C1B34003   8.302  33.563   8.564
 2523POPC   C2B34004   8.335  33.610   8.264
 2523POPC   C3B34005   8.354  33.570   7.964
 2523POPC   C4B34006   8.325  33.554   7.664
 2524POPC   NC334007  13.612  28.411   9.464
 2524POPC   PO434008  13.642  28.385   9.164
 2524POPC   GL134009  13.655  28.326   8.864
 2524POPC   GL234010  13.543  28.479   8.864
 2524POPC   C1A34011  13.605  28.416   8.564
 2524POPC   D2A34012  13.588  28.350   8.264
 2524POPC   C3A34013  13.647  28.352   7.964
 2524POPC   C4A34014  13.668  28.323   7.664
 2524POPC   C1B34015  13.539  28.594   8.564
 2524POPC   C2B34016  13.527  28.548   8.264
 2524POPC   C3B34017  13.472  28.580   7.964
 2524POPC   C4B34018  13.496  28.561   7.664
 2525POPC   NC334019  12.899  24.462   9.464
 2525POPC   PO434020  12.844  24.500   9.164
 2525POPC   GL134021  12.869  24.459   8.864
 2525POPC   GL234022  12.724  24.470   8.864
 2525POPC   C1A34023  12.885  24.460   8.564
 2525POPC   D2A34024  12.842  24.442   8.264
 2525POPC   C3A34025  12.868  24.527   7.964
 2525POPC   C4A34026  12.816  24.451   7.664
 2525POPC   C1B34027  12.623  24.334   8.564
 2525POPC   C2B34028  12.646  24.409   8.264
 2525POPC   C3B34029  12.620  24.372   7.964
 2525POPC   C4B34030  12.637  24.400   7.664
 2526POPC   NC334031   4.335   8.194   9.464
 2526POPC   PO434032   4.354   8.245   9.164
 2526POPC   GL134033   4.317   8.245   8.864
 2526POPC   GL234034   4.204   8.049   8.864
 2526POPC   C1A34035   4.289   8.191   8.564
 2526POPC   D2A34036   4.306   8.149   8.264
 2526POPC   C3A34037   4.296   8.228   7.964
 2526POPC   C4A34038   4.340   8.157   7.664
 2526POPC   C1B34039   4.184   8.002   8.564
 2526POPC   C2B34040   4.193   7.994   8.264
 2526POPC   C3B34041   4.152   7.986   7.964
 2526POPC   C4B34042   4.130   7.964   7.664
 2527POPC   NC334043  31.474   5.085   9.464
 2527POPC   PO434044  31.454   5.138   9.164
 2527POPC   GL134045  31.428   5.050   8.864
 2527POPC   GL234046  31.392   5.046   8.864
 2527POPC   C1A34047  31.425   5.125   8.564
 2527POPC   D2A34048  31.476   5.045   8.264
 2527POPC   C3A34049  31.494   5.124   7.964
 2527POPC   C4A34050  31.515   5.112   7.664
 2527POPC   C1B34051  31.230   4.906   8.564
 2527POPC   C2B34052  31.226   4.959   8.264
 2527POPC   C3B34053  31.305   4.912   7.964
 2527POPC   C4B34054  31.237   4.929   7.664
 2528POPC   NC334055  35.312  17.459   9.464
 2528POPC   PO434056  35.367  17.474   9.164
 2528POPC   GL134057  35.380  17.533   8.864
 2528POPC   GL234058  35.251  17.608   8.864
 2528POPC   C1A34059  35.325  17.465   8.564
 2528POPC   D2A34060  35.347  17.462   8.264
 2528POPC   C3A34061  35.342  17.484   7.964
 2528POPC   C4A34062  35.374  17.501   7.664
 2528POPC   C1B34063  35.142  17.706   8.564
 2528POPC   C2B34064  35.122  17.640   8.264
 2528POPC   C3B34065  35.169  17.630   7.964
 2528POPC   C4B34066  35.132  17.688   7.664
 2529POPC   NC334067  23.679  22.971   9.464
 2529POPC   PO434068  23.717  22.974   9.164
 2529POPC   GL134069  23.733  22.959   8.864
 2529POPC   GL234070  23.725  22.808   8.864
 2529POPC   C1A34071  23.687  22.965   8.564
 2529POPC   D2A34072  23.722  22.936   8.264
 2529POPC   C3A34073  23.670  22.942   7.964
 2529POPC   C4A34074  23.740  22.938   7.664
 2529POPC   C1B34075  23.782  22.711   8.564
 2529POPC   C2B34076  23.766  22.745   8.264
 2529POPC   C3B34077  23.767  22.714   7.964
 2529POPC   C4B34078  23.813  22.734   7.664
 2530POPC   NC334079  40.798  23.721   9.464
 2530POPC   PO434080  40.757  23.739   9.164
 2530POPC   GL134081  40.805  23.729   8.864
 2530POPC   GL234082  40.654  23.644   8.864
 2530POPC   C1A34083  40.793  23.672   8.564
 2530POPC   D2A34084  40.743  23.719   8.264
 2530POPC   C3A34085  40.740  23.682   7.964
 2530POPC   C4A34086  40.831  23.723   7.664
 2530POPC   C1B34087  40.611  23.528   8.564
 2530POPC   C2B34088  40.562  23.579   8.264
 2530POPC   C3B34089  40.619  23.575   7.964
 2530POPC   C4B34090  40.600  23.572   7.664
 2531POPC   NC334091  36.155  29.894   9.464
 2531POPC   PO434092  36.097  29.896   9.164
 2531POPC   GL134093  36.113  29.934   8.864
 2531POPC   GL234094  36.243  30.014   8.864
 2531POPC   C1A34095  36.173  29.956   8.564
 2531POPC   D2A34096  36.084  29.935   8.264
 2531POPC   C3A34097  36.080  29.967   7.964
 2531POPC   C4A34098  36.152  29.914   7.664
 2531POPC   C1B34099  36.300  30.089   8.564
 2531POPC   C2B34100  36.286  30.076   8.264
 2531POPC   C3B34101  36.305  30.140   7.964
 2531POPC   C4B34102  36.249  30.117   7.664
 2532POPC   NC334103  26.059   9.018   9.464
 2532POPC   PO434104  26.022   9.005   9.164
 2532POPC   GL134105  26.025   8.970   8.864
 2532POPC   GL234106  26.139   8.943   8.864
 2532POPC   C1A34107  26.084   8.974   8.564
 2532POPC   D2A34108  26.051   9.013   8.264
 2532POPC   C3A34109  26.015   8.950   7.964
 2532POPC   C4A34110  26.000   9.004   7.664
 2532POPC   C1B34111  26.215   8.814   8.564
 2532POPC   C2B34112  26.202   8.782   8.264
 2532POPC   C3B34113  26.234   8.799   7.964
 2532POPC   C4B34114  26.262   8.781   7.664
 2533POPC   NC334115   0.417  41.603   9.464
 2533POPC   PO434116   0.456  41.534   9.164
 2533POPC   GL134117   0.423  41.555   8.864
 2533POPC   GL234118   0.574  41.592   8.864
 2533POPC   C1A34119   0.397  41.531   8.564
 2533POPC   D2A34120   0.464  41.590   8.264
 2533POPC   C3A34121   0.449  41.586   7.964
 2533POPC   C4A34122   0.488  41.552   7.664
 2533POPC   C1B34123   0.653  41.522   8.564
 2533POPC   C2B34124   0.688  41.538   8.264
 2533POPC   C3B34125   0.713  41.533   7.964
 2533POPC   C4B34126   0.640  41.582   7.664
 2534POPC   NC334127  14.411  41.546   9.464
 2534POPC   PO434128  14.380  41.570   9.164
 2534POPC   GL134129  14.418  41.558   8.864
 2534POPC   GL234130  14.394  41.407   8.864
 2534POPC   C1A34131  14.412  41.531   8.564
 2534POPC   D2A34132  14.405  41.548   8.264
 2534POPC   C3A34133  14.442  41.538   7.964
 2534POPC   C4A34134  14.419  41.530   7.664
 2534POPC   C1B34135  14.317  41.310   8.564
 2534POPC   C2B34136  14.272  41.367   8.264
 2534POPC   C3B34137  14.346  41.318   7.964
 2534POPC   C4B34138  14.311  41.363   7.664
 2535POPC   NC334139   8.942  13.665   9.464
 2535POPC   PO434140   8.999  13.591   9.164
 2535POPC   GL134141   8.928  13.596   8.864
 2535POPC   GL234142   9.039  13.571   8.864
 2535POPC   C1A34143   8.994  13.593   8.564
 2535POPC   D2A34144   9.001  13.613   8.264
 2535POPC   C3A34145   8.959  13.608   7.964
 2535POPC   C4A34146   8.933  13.656   7.664
 2535POPC   C1B34147   9.170  13.377   8.564
 2535POPC   C2B34148   9.141  13.430   8.264
 2535POPC   C3B34149   9.102  13.398   7.964
 2535POPC   C4B34150   9.079  13.428   7.664
 2536POPC   NC334151   4.293  19.839   9.464
 2536POPC   PO434152   4.290  19.814   9.164
 2536POPC   GL134153   4.362  19.876   8.864
 2536POPC   GL234154   4.221  19.768   8.864
 2536POPC   C1A34155   4.362  19.879   8.564
 2536POPC   D2A34156   4.325  19.817   8.264
 2536POPC   C3A34157   4.329  19.865   7.964
 2536POPC   C4A34158   4.353  19.800   7.664
 2536POPC   C1B34159   4.097  19.698   8.564
 2536POPC   C2B34160   4.085  19.748   8.264
 2536POPC   C3B34161   4.043  19.723   7.964
 2536POPC   C4B34162   4.124  19.722   7.664
 2537POPC   NC334163   2.017  33.798   9.464
 2537POPC   PO434164   2.016  33.813   9.164
 2537POPC   GL134165   2.012  33.799   8.864
 2537POPC   GL234166   2.056  33.906   8.864
 2537POPC   C1A34167   2.005  33.847   8.564
 2537POPC   D2A34168   1.993  33.758   8.264
 2537POPC   C3A34169   1.942  33.785   7.964
 2537POPC   C4A34170   1.944  33.789   7.664
 2537POPC   C1B34171   2.090  34.014   8.564
 2537POPC   C2B34172   2.101  34.020   8.264
 2537POPC   C3B34173   2.068  34.017   7.964
 2537POPC   C4B34174   2.099  34.071   7.664
 2538POPC   NC334175  26.078  31.519   9.464
 2538POPC   PO434176  26.004  31.449   9.164
 2538POPC   GL134177  26.073  31.496   8.864
 2538POPC   GL234178  26.079  31.383   8.864
 2538POPC   C1A34179  26.081  31.443   8.564
 2538POPC   D2A34180  26.082  31.511   8.264
 2538POPC   C3A34181  26.000  31.459   7.964
 2538POPC   C4A34182  26.024  31.435   7.664
 2538POPC   C1B34183  26.040  31.269   8.564
 2538POPC   C2B34184  26.053  31.205   8.264
 2538POPC   C3B34185  26.038  31.224   7.964
 2538POPC   C4B34186  26.106  31.178   7.664
 2539POPC   NC334187  44.671  11.267   9.464
 2539POPC   PO434188  44.689  11.313   9.164
 2539POPC   GL134189  44.642  11.323   8.864
 2539POPC   GL234190  44.583  11.363   8.864
 2539POPC   C1A34191  44.694  11.341   8.564
 2539POPC   D2A34192  44.630  11.342   8.264
 2539POPC   C3A34193  44.661  11.276   7.964
 2539POPC   C4A34194  44.699  11.254   7.664
 2539POPC   C1B34195  44.477  11.443   8.564
 2539POPC   C2B34196  44.414  11.407   8.264
 2539POPC   C3B34197  44.461  11.407   7.964
 2539POPC   C4B34198  44.415  11.487   7.664
 2540POPC   NC334199  29.930  43.851   9.464
 2540POPC   PO434200  29.872  43.878   9.164
 2540POPC   GL134201  29.915  43.879   8.864
 2540POPC   GL234202  29.797  43.871   8.864
 2540POPC   C1A34203  29.933  43.877   8.564
 2540POPC   D2A34204  29.959  43.873   8.264
 2540POPC   C3A34205  29.881  43.930   7.964
 2540POPC   C4A34206  29.970  43.877   7.664
 2540POPC   C1B34207  29.647  43.906   8.564
 2540POPC   C2B34208  29.654  43.900   8.264
 2540POPC   C3B34209  29.680  43.899   7.964
 2540POPC   C4B34210  29.644  43.872   7.664
 2541POPC   NC334211  39.200  32.280   9.464
 2541POPC   PO434212  39.233  32.279   9.164
 2541POPC   GL134213  39.264  32.291   8.864
 2541POPC   GL234214  39.217  32.422   8.864
 2541POPC   C1A34215  39.208  32.279   8.564
 2541POPC   D2A34216  39.232  32.206   8.264
 2541POPC   C3A34217  39.197  32.199   7.964
 2541POPC   C4A34218  39.188  32.209   7.664
 2541POPC   C1B34219  39.221  32.543   8.564
 2541POPC   C2B34220  39.255  32.505   8.264
 2541POPC   C3B34221  39.236  32.459   7.964
 2541POPC   C4B34222  39.276  32.503   7.664
 2542POPC   NC334223  25.267  35.351   9.464
 2542POPC   PO434224  25.310  35.347   9.164
 2542POPC   GL134225  25.222  35.306   8.864
 2542POPC   GL234226  25.302  35.261   8.864
 2542POPC   C1A34227  25.299  35.305   8.564
 2542POPC   D2A34228  25.266  35.333   8.264
 2542POPC   C3A34229  25.264  35.377   7.964
 2542POPC   C4A34230  25.290  35.303   7.664
 2542POPC   C1B34231  25.382  35.070   8.564
 2542POPC   C2B34232  25.314  35.160   8.264
 2542POPC   C3B34233  25.339  35.071   7.964
 2542POPC   C4B34234  25.393  35.084   7.664
 2543POPC   NC334235  32.282  12.106   9.464
 2543POPC   PO434236  32.221  12.114   9.164
 2543POPC   GL134237  32.268  12.083   8.864
 2543POPC   GL234238  32.278  12.226   8.864
 2543POPC   C1A34239  32.205  12.049   8.564
 2543POPC   D2A34240  32.225  12.040   8.264
 2543POPC   C3A34241  32.289  12.056   7.964
 2543POPC   C4A34242  32.282  12.029   7.664
 2543POPC   C1B34243  32.388  12.258   8.564
 2543POPC   C2B34244  32.349  12.339   8.264
 2543POPC   C3B34245  32.378  12.324   7.964
 2543POPC   C4B34246  32.368  12.317   7.664
 2544POPC   NC334247  31.492  24.454   9.464
 2544POPC   PO434248  31.440  24.474   9.164
 2544POPC   GL134249  31.489  24.533   8.864
 2544POPC   GL234250  31.350  24.461   8.864
 2544POPC   C1A34251  31.486  24.536   8.564
 2544POPC   D2A34252  31.502  24.454   8.264
 2544POPC   C3A34253  31.434  24.490   7.964
 2544POPC   C4A34254  31.502  24.493   7.664
 2544POPC   C1B34255  31.248  24.458   8.564
 2544POPC   C2B34256  31.249  24.405   8.264
 2544POPC   C3B34257  31.269  24.391   7.964
 2544POPC   C4B34258  31.276  24.380   7.664
 2545POPC   NC334259   1.216   2.767   9.464
 2545POPC   PO434260   1.211   2.807   9.164
 2545POPC   GL134261   1.188   2.770   8.864
 2545POPC   GL234262   1.202   2.933   8.864
 2545POPC   C1A34263   1.226   2.796   8.564
 2545POPC   D2A34264   1.193   2.755   8.264
 2545POPC   C3A34265   1.256   2.784   7.964
 2545POPC   C4A34266   1.229   2.735   7.664
 2545POPC   C1B34267   1.216   3.055   8.564
 2545POPC   C2B34268   1.256   2.986   8.264
 2545POPC   C3B34269   1.180   2.969   7.964
 2545POPC   C4B34270   1.211   3.057   7.664
 2546POPC   NC334271  20.579  36.161   9.464
 2546POPC   PO434272  20.627  36.095   9.164
 2546POPC   GL134273  20.591  36.160   8.864
 2546POPC   GL234274  20.574  36.012   8.864
 2546POPC   C1A34275  20.656  36.140   8.564
 2546POPC   D2A34276  20.581  36.145   8.264
 2546POPC   C3A34277  20.589  36.105   7.964
 2546POPC   C4A34278  20.586  36.083   7.664
 2546POPC   C1B34279  20.517  35.889   8.564
 2546POPC   C2B34280  20.583  35.871   8.264
 2546POPC   C3B34281  20.569  35.847   7.964
 2546POPC   C4B34282  20.518  35.861   7.664
 2547POPC   NC334283  36.910  13.625   9.464
 2547POPC   PO434284  36.879  13.649   9.164
 2547POPC   GL134285  36.939  13.621   8.864
 2547POPC   GL234286  36.908  13.552   8.864
 2547POPC   C1A34287  36.917  13.608   8.564
 2547POPC   D2A34288  36.927  13.612   8.264
 2547POPC   C3A34289  36.947  13.656   7.964
 2547POPC   C4A34290  36.886  13.663   7.664
 2547POPC   C1B34291  36.903  13.346   8.564
 2547POPC   C2B34292  36.930  13.405   8.264
 2547POPC   C3B34293  36.925  13.365   7.964
 2547POPC   C4B34294  36.892  13.358   7.664
 2548POPC   NC334295  26.089  38.406   9.464
 2548POPC   PO434296  26.075  38.437   9.164
 2548POPC   GL134297  26.033  38.424   8.864
 2548POPC   GL234298  26.168  38.361   8.864
 2548POPC   C1A34299  26.090  38.419   8.564
 2548POPC   D2A34300  26.005  38.447   8.264
 2548POPC   C3A34301  26.046  38.464   7.964
 2548POPC   C4A34302  26.025  38.471   7.664
 2548POPC   C1B34303  26.262  38.266   8.564
 2548POPC   C2B34304  26.229  38.324   8.264
 2548POPC   C3B34305  26.191  38.329   7.964
 2548POPC   C4B34306  26.246  38.294   7.664
 2549POPC   NC334307  44.702  17.483   9.464
 2549POPC   PO434308  44.661  17.524   9.164
 2549POPC   GL134309  44.653  17.556   8.864
 2549POPC   GL234310  44.723  17.523   8.864
 2549POPC   C1A34311  44.641  17.475   8.564
 2549POPC   D2A34312  44.623  17.547   8.264
 2549POPC   C3A34313  44.651  17.544   7.964
 2549POPC   C4A34314  44.658  17.477   7.664
 2549POPC   C1B34315  44.838  17.658   8.564
 2549POPC   C2B34316  44.925  17.583   8.264
 2549POPC   C3B34317  44.894  17.673   7.964
 2549POPC   C4B34318  44.891  17.592   7.664
 2550POPC   NC334319   0.462  13.612   9.464
 2550POPC   PO434320   0.407  13.631   9.164
 2550POPC   GL134321   0.447  13.631   8.864
 2550POPC   GL234322   0.464  13.745   8.864
 2550POPC   C1A34323   0.454  13.627   8.564
 2550POPC   D2A34324   0.440  13.630   8.264
 2550POPC   C3A34325   0.435  13.620   7.964
 2550POPC   C4A34326   0.468  13.597   7.664
 2550POPC   C1B34327   0.498  13.908   8.564
 2550POPC   C2B34328   0.506  13.852   8.264
 2550POPC   C3B34329   0.485  13.902   7.964
 2550POPC   C4B34330   0.436  13.854   7.664
 2551POPC   NC334331  12.825  39.968   9.464
 2551POPC   PO434332  12.854  39.959   9.164
 2551POPC   GL134333  12.851  39.967   8.864
 2551POPC   GL234334  12.864  40.085   8.864
 2551POPC   C1A34335  12.833  40.014   8.564
 2551POPC   D2A34336  12.815  40.001   8.264
 2551POPC   C3A34337  12.823  40.054   7.964
 2551POPC   C4A34338  12.902  39.977   7.664
 2551POPC   C1B34339  12.884  40.281   8.564
 2551POPC   C2B34340  12.857  40.296   8.264
 2551POPC   C3B34341  12.888  40.236   7.964
 2551POPC   C4B34342  12.883  40.238   7.664
 2552POPC   NC334343   8.927  36.949   9.464
 2552POPC   PO434344   8.954  36.868   9.164
 2552POPC   GL134345   8.958  36.862   8.864
 2552POPC   GL234346   9.074  37.037   8.864
 2552POPC   C1A34347   8.961  36.881   8.564
 2552POPC   D2A34348   8.981  36.874   8.264
 2552POPC   C3A34349   8.986  36.898   7.964
 2552POPC   C4A34350   8.948  36.859   7.664
 2552POPC   C1B34351   9.122  37.103   8.564
 2552POPC   C2B34352   9.098  37.107   8.264
 2552POPC   C3B34353   9.176  37.042   7.964
 2552POPC   C4B34354   9.116  37.127   7.664
 2553POPC   NC334355  21.431  30.729   9.464
 2553POPC   PO434356  21.367  30.725   9.164
 2553POPC   GL134357  21.400  30.656   8.864
 2553POPC   GL234358  21.274  30.691   8.864
 2553POPC   C1A34359  21.433  30.669   8.564
 2553POPC   D2A34360  21.339  30.692   8.264
 2553POPC   C3A34361  21.388  30.692   7.964
 2553POPC   C4A34362  21.342  30.707   7.664
 2553POPC   C1B34363  21.150  30.698   8.564
 2553POPC   C2B34364  21.136  30.664   8.264
 2553POPC   C3B34365  21.159  30.703   7.964
 2553POPC   C4B34366  21.159  30.665   7.664
 2554POPC   NC334367  42.327  15.174   9.464
 2554POPC   PO434368  42.328  15.178   9.164
 2554POPC   GL134369  42.321  15.136   8.864
 2554POPC   GL234370  42.468  15.123   8.864
 2554POPC   C1A34371  42.328  15.162   8.564
 2554POPC   D2A34372  42.364  15.215   8.264
 2554POPC   C3A34373  42.326  15.206   7.964
 2554POPC   C4A34374  42.337  15.221   7.664
 2554POPC   C1B34375  42.571  15.035   8.564
 2554POPC   C2B34376  42.517  15.044   8.264
 2554POPC   C3B34377  42.529  15.003   7.964
 2554POPC   C4B34378  42.537  15.011   7.664
 2555POPC   NC334379  20.567  35.318   9.464
 2555POPC   PO434380  20.576  35.355   9.164
 2555POPC   GL134381  20.603  35.336   8.864
 2555POPC   GL234382  20.580  35.234   8.864
 2555POPC   C1A34383  20.603  35.397   8.564
 2555POPC   D2A34384  20.613  35.327   8.264
 2555POPC   C3A34385  20.650  35.352   7.964
 2555POPC   C4A34386  20.634  35.329   7.664
 2555POPC   C1B34387  20.519  35.094   8.564
 2555POPC   C2B34388  20.462  35.100   8.264
 2555POPC   C3B34389  20.443  35.173   7.964
 2555POPC   C4B34390  20.503  35.178   7.664
 2556POPC   NC334391  14.419  15.187   9.464
 2556POPC   PO434392  14.370  15.216   9.164
 2556POPC   GL134393  14.435  15.216   8.864
 2556POPC   GL234394  14.415  15.312   8.864
 2556POPC   C1A34395  14.442  15.218   8.564
 2556POPC   D2A34396  14.364  15.220   8.264
 2556POPC   C3A34397  14.358  15.132   7.964
 2556POPC   C4A34398  14.417  15.162   7.664
 2556POPC   C1B34399  14.509  15.359   8.564
 2556POPC   C2B34400  14.537  15.450   8.264
 2556POPC   C3B34401  14.550  15.408   7.964
 2556POPC   C4B34402  14.483  15.431   7.664
 2557POPC   NC334403  28.370   4.326   9.464
 2557POPC   PO434404  28.401   4.339   9.164
 2557POPC   GL134405  28.360   4.356   8.864
 2557POPC   GL234406  28.370   4.239   8.864
 2557POPC   C1A34407  28.370   4.364   8.564
 2557POPC   D2A34408  28.353   4.360   8.264
 2557POPC   C3A34409  28.338   4.269   7.964
 2557POPC   C4A34410  28.369   4.277   7.664
 2557POPC   C1B34411  28.352   4.080   8.564
 2557POPC   C2B34412  28.365   4.027   8.264
 2557POPC   C3B34413  28.406   4.094   7.964
 2557POPC   C4B34414  28.350   4.076   7.664
 2558POPC   NC334415  28.345  28.419   9.464
 2558POPC   PO434416  28.364  28.376   9.164
 2558POPC   GL134417  28.375  28.326   8.864
 2558POPC   GL234418  28.289  28.373   8.864
 2558POPC   C1A34419  28.376  28.386   8.564
 2558POPC   D2A34420  28.350  28.384   8.264
 2558POPC   C3A34421  28.404  28.370   7.964
 2558POPC   C4A34422  28.395  28.365   7.664
 2558POPC   C1B34423  28.132  28.317   8.564
 2558POPC   C2B34424  28.090  28.305   8.264
 2558POPC   C3B34425  28.122  28.244   7.964
 2558POPC   C4B34426  28.119  28.290   7.664
 2559POPC   NC334427   8.959  43.839   9.464
 2559POPC   PO434428   8.983  43.934   9.164
 2559POPC   GL134429   8.936  43.926   8.864
 2559POPC   GL234430   9.089  43.830   8.864
 2559POPC   C1A34431   8.996  43.870   8.564
 2559POPC   D2A34432   8.955  43.878   8.264
 2559POPC   C3A34433   8.986  43.923   7.964
 2559POPC   C4A34434   8.988  43.848   7.664
 2559POPC   C1B34435   9.233  43.752   8.564
 2559POPC   C2B34436   9.187  43.735   8.264
 2559POPC   C3B34437   9.223  43.734   7.964
 2559POPC   C4B34438   9.212  43.735   7.664
 2560POPC   NC334439   8.972  25.223   9.464
 2560POPC   PO434440   8.947  25.250   9.164
 2560POPC   GL134441   8.952  25.286   8.864
 2560POPC   GL234442   9.041  25.398   8.864
 2560POPC   C1A34443   8.947  25.254   8.564
 2560POPC   D2A34444   8.958  25.285   8.264
 2560POPC   C3A34445   8.927  25.262   7.964
 2560POPC   C4A34446   8.993  25.286   7.664
 2560POPC   C1B34447   9.085  25.448   8.564
 2560POPC   C2B34448   9.051  25.464   8.264
 2560POPC   C3B34449   9.063  25.514   7.964
 2560POPC   C4B34450   9.054  25.475   7.664
 2561POPC   NC334451  31.457   2.009   9.464
 2561POPC   PO434452  31.512   2.008   9.164
 2561POPC   GL134453  31.462   1.967   8.864
 2561POPC   GL234454  31.568   2.070   8.864
 2561POPC   C1A34455  31.519   1.947   8.564
 2561POPC   D2A34456  31.446   2.031   8.264
 2561POPC   C3A34457  31.451   2.034   7.964
 2561POPC   C4A34458  31.516   1.988   7.664
 2561POPC   C1B34459  31.668   2.134   8.564
 2561POPC   C2B34460  31.718   2.056   8.264
 2561POPC   C3B34461  31.677   2.124   7.964
 2561POPC   C4B34462  31.690   2.087   7.664
 2562POPC   NC334463   9.719  10.493   9.464
 2562POPC   PO434464   9.764  10.519   9.164
 2562POPC   GL134465   9.741  10.534   8.864
 2562POPC   GL234466   9.874  10.574   8.864
 2562POPC   C1A34467   9.743  10.503   8.564
 2562POPC   D2A34468   9.741  10.556   8.264
 2562POPC   C3A34469   9.798  10.491   7.964
 2562POPC   C4A34470   9.737  10.553   7.664
 2562POPC   C1B34471   9.963  10.633   8.564
 2562POPC   C2B34472   9.959  10.696   8.264
 2562POPC   C3B34473   9.935  10.666   7.964
 2562POPC   C4B34474   9.931  10.693   7.664
 2563POPC   NC334475   1.252  34.599   9.464
 2563POPC   PO434476   1.240  34.570   9.164
 2563POPC   GL134477   1.170  34.618   8.864
 2563POPC   GL234478   1.174  34.499   8.864
 2563POPC   C1A34479   1.223  34.535   8.564
 2563POPC   D2A34480   1.172  34.564   8.264
 2563POPC   C3A34481   1.188  34.595   7.964
 2563POPC   C4A34482   1.246  34.593   7.664
 2563POPC   C1B34483   1.102  34.325   8.564
 2563POPC   C2B34484   1.065  34.378   8.264
 2563POPC   C3B34485   1.086  34.369   7.964
 2563POPC   C4B34486   1.137  34.399   7.664
 2564POPC   NC334487  33.006  28.383   9.464
 2564POPC   PO434488  33.016  28.382   9.164
 2564POPC   GL134489  33.042  28.364   8.864
 2564POPC   GL234490  33.137  28.361   8.864
 2564POPC   C1A34491  32.986  28.330   8.564
 2564POPC   D2A34492  33.031  28.363   8.264
 2564POPC   C3A34493  33.061  28.371   7.964
 2564POPC   C4A34494  33.063  28.395   7.664
 2564POPC   C1B34495  33.267  28.371   8.564
 2564POPC   C2B34496  33.269  28.343   8.264
 2564POPC   C3B34497  33.249  28.308   7.964
 2564POPC   C4B34498  33.243  28.390   7.664
 2565POPC   NC334499  27.636  29.125   9.464
 2565POPC   PO434500  27.630  29.163   9.164
 2565POPC   GL134501  27.605  29.161   8.864
 2565POPC   GL234502  27.694  29.110   8.864
 2565POPC   C1A34503  27.574  29.173   8.564
 2565POPC   D2A34504  27.577  29.107   8.264
 2565POPC   C3A34505  27.600  29.146   7.964
 2565POPC   C4A34506  27.633  29.188   7.664
 2565POPC   C1B34507  27.878  29.111   8.564
 2565POPC   C2B34508  27.874  29.068   8.264
 2565POPC   C3B34509  27.804  29.111   7.964
 2565POPC   C4B34510  27.868  29.076   7.664
 2566POPC   NC334511  43.934   2.000   9.464
 2566POPC   PO434512  43.913   1.958   9.164
 2566POPC   GL134513  43.851   1.994   8.864
 2566POPC   GL234514  43.961   2.146   8.864
 2566POPC   C1A34515  43.858   1.968   8.564
 2566POPC   D2A34516  43.837   1.958   8.264
 2566POPC   C3A34517  43.905   2.024   7.964
 2566POPC   C4A34518  43.909   1.945   7.664
 2566POPC   C1B34519  44.019   2.197   8.564
 2566POPC   C2B34520  44.009   2.195   8.264
 2566POPC   C3B34521  43.961   2.206   7.964
 2566POPC   C4B34522  43.959   2.227   7.664
 2567POPC   NC334523  15.212  22.162   9.464
 2567POPC   PO434524  15.133  22.165   9.164
 2567POPC   GL134525  15.180  22.127   8.864
 2567POPC   GL234526  15.292  22.119   8.864
 2567POPC   C1A34527  15.204  22.188   8.564
 2567POPC   D2A34528  15.154  22.197   8.264
 2567POPC   C3A34529  15.191  22.123   7.964
 2567POPC   C4A34530  15.165  22.205   7.664
 2567POPC   C1B34531  15.379  22.032   8.564
 2567POPC   C2B34532  15.405  22.062   8.264
 2567POPC   C3B34533  15.431  22.006   7.964
 2567POPC   C4B34534  15.381  22.050   7.664
 2568POPC   NC334535  16.734  14.411   9.464
 2568POPC   PO434536  16.682  14.368   9.164
 2568POPC   GL134537  16.695  14.419   8.864
 2568POPC   GL234538  16.782  14.267   8.864
 2568POPC   C1A34539  16.728  14.422   8.564
 2568POPC   D2A34540  16.732  14.417   8.264
 2568POPC   C3A34541  16.776  14.388   7.964
 2568POPC   C4A34542  16.743  14.369   7.664
 2568POPC   C1B34543  16.818  14.177   8.564
 2568POPC   C2B34544  16.814  14.143   8.264
 2568POPC   C3B34545  16.826  14.199   7.964
 2568POPC   C4B34546  16.826  14.196   7.664
 2569POPC   NC334547  22.968  42.322   9.464
 2569POPC   PO434548  22.986  42.384   9.164
 2569POPC   GL134549  22.965  42.355   8.864
 2569POPC   GL234550  23.038  42.261   8.864
 2569POPC   C1A34551  22.932  42.291   8.564
 2569POPC   D2A34552  22.960  42.367   8.264
 2569POPC   C3A34553  22.978  42.373   7.964
 2569POPC   C4A34554  22.973  42.382   7.664
 2569POPC   C1B34555  23.091  42.178   8.564
 2569POPC   C2B34556  23.166  42.193   8.264
 2569POPC   C3B34557  23.136  42.191   7.964
 2569POPC   C4B34558  23.109  42.166   7.664
 2570POPC   NC334559   3.556  36.859   9.464
 2570POPC   PO434560   3.564  36.873   9.164
 2570POPC   GL134561   3.583  36.866   8.864
 2570POPC   GL234562   3.647  36.982   8.864
 2570POPC   C1A34563   3.561  36.939   8.564
 2570POPC   D2A34564   3.586  36.934   8.264
 2570POPC   C3A34565   3.518  36.874   7.964
 2570POPC   C4A34566   3.566  36.930   7.664
 2570POPC   C1B34567   3.768  37.047   8.564
 2570POPC   C2B34568   3.784  37.022   8.264
 2570POPC   C3B34569   3.795  37.042   7.964
 2570POPC   C4B34570   3.716  37.020   7.664
 2571POPC   NC334571   6.631  29.910   9.464
 2571POPC   PO434572   6.644  29.935   9.164
 2571POPC   GL134573   6.682  29.905   8.864
 2571POPC   GL234574   6.761  29.995   8.864
 2571POPC   C1A34575   6.630  29.907   8.564
 2571POPC   D2A34576   6.652  29.910   8.264
 2571POPC   C3A34577   6.609  29.901   7.964
 2571POPC   C4A34578   6.597  29.897   7.664
 2571POPC   C1B34579   6.780  30.145   8.564
 2571POPC   C2B34580   6.854  30.089   8.264
 2571POPC   C3B34581   6.780  30.095   7.964
 2571POPC   C4B34582   6.860  30.065   7.664
 2572POPC   NC334583  33.004   7.437   9.464
 2572POPC   PO434584  33.062   7.410   9.164
 2572POPC   GL134585  33.059   7.457   8.864
 2572POPC   GL234586  32.958   7.300   8.864
 2572POPC   C1A34587  33.066   7.426   8.564
 2572POPC   D2A34588  32.995   7.390   8.264
 2572POPC   C3A34589  32.988   7.396   7.964
 2572POPC   C4A34590  33.066   7.451   7.664
 2572POPC   C1B34591  32.952   7.129   8.564
 2572POPC   C2B34592  32.963   7.132   8.264
 2572POPC   C3B34593  33.007   7.219   7.964
 2572POPC   C4B34594  32.944   7.178   7.664
 2573POPC   NC334595   5.135  29.891   9.464
 2573POPC   PO434596   5.089  29.935   9.164
 2573POPC   GL134597   5.099  29.882   8.864
 2573POPC   GL234598   5.042  29.762   8.864
 2573POPC   C1A34599   5.078  29.943   8.564
 2573POPC   D2A34600   5.056  29.943   8.264
 2573POPC   C3A34601   5.096  29.959   7.964
 2573POPC   C4A34602   5.104  29.914   7.664
 2573POPC   C1B34603   4.996  29.654   8.564
 2573POPC   C2B34604   5.029  29.731   8.264
 2573POPC   C3B34605   4.980  29.693   7.964
 2573POPC   C4B34606   4.954  29.665   7.664
 2574POPC   NC334607  17.474  32.987   9.464
 2574POPC   PO434608  17.481  32.990   9.164
 2574POPC   GL134609  17.514  32.980   8.864
 2574POPC   GL234610  17.655  33.117   8.864
 2574POPC   C1A34611  17.523  32.994   8.564
 2574POPC   D2A34612  17.525  32.996   8.264
 2574POPC   C3A34613  17.547  33.021   7.964
 2574POPC   C4A34614  17.491  33.059   7.664
 2574POPC   C1B34615  17.745  33.162   8.564
 2574POPC   C2B34616  17.753  33.105   8.264
 2574POPC   C3B34617  17.758  33.187   7.964
 2574POPC   C4B34618  17.731  33.167   7.664
 2575POPC   NC334619  44.614  26.010   9.464
 2575POPC   PO434620  44.669  26.086   9.164
 2575POPC   GL134621  44.659  26.079   8.864
 2575POPC   GL234622  44.735  25.881   8.864
 2575POPC   C1A34623  44.631  26.048   8.564
 2575POPC   D2A34624  44.654  26.032   8.264
 2575POPC   C3A34625  44.698  26.088   7.964
 2575POPC   C4A34626  44.684  26.064   7.664
 2575POPC   C1B34627  44.718  25.811   8.564
 2575POPC   C2B34628  44.758  25.818   8.264
 2575POPC   C3B34629  44.695  25.765   7.964
 2575POPC   C4B34630  44.675  25.770   7.664
 2576POPC   NC334631   6.616  18.330   9.464
 2576POPC   PO434632   6.614  18.259   9.164
 2576POPC   GL134633   6.642  18.301   8.864
 2576POPC   GL234634   6.548  18.260   8.864
 2576POPC   C1A34635   6.619  18.279   8.564
 2576POPC   D2A34636   6.680  18.260   8.264
 2576POPC   C3A34637   6.677  18.275   7.964
 2576POPC   C4A34638   6.668  18.300   7.664
 2576POPC   C1B34639   6.365  18.338   8.564
 2576POPC   C2B34640   6.404  18.303   8.264
 2576POPC   C3B34641   6.375  18.277   7.964
 2576POPC   C4B34642   6.369  18.316   7.664
 2577POPC   NC334643  15.208  15.215   9.464
 2577POPC   PO434644  15.153  15.180   9.164
 2577POPC   GL134645  15.211  15.131   8.864
 2577POPC   GL234646  15.316  15.230   8.864
 2577POPC   C1A34647  15.145  15.178   8.564
 2577POPC   D2A34648  15.145  15.223   8.264
 2577POPC   C3A34649  15.149  15.153   7.964
 2577POPC   C4A34650  15.184  15.137   7.664
 2577POPC   C1B34651  15.427  15.347   8.564
 2577POPC   C2B34652  15.393  15.268   8.264
 2577POPC   C3B34653  15.425  15.318   7.964
 2577POPC   C4B34654  15.430  15.324   7.664
 2578POPC   NC334655   1.981  19.098   9.464
 2578POPC   PO434656   1.990  19.060   9.164
 2578POPC   GL134657   1.995  19.098   8.864
 2578POPC   GL234658   1.937  18.984   8.864
 2578POPC   C1A34659   1.994  19.039   8.564
 2578POPC   D2A34660   2.025  19.040   8.264
 2578POPC   C3A34661   1.948  19.038   7.964
 2578POPC   C4A34662   1.959  19.010   7.664
 2578POPC   C1B34663   1.879  18.837   8.564
 2578POPC   C2B34664   1.870  18.870   8.264
 2578POPC   C3B34665   1.837  18.815   7.964
 2578POPC   C4B34666   1.902  18.862   7.664
 2579POPC   NC334667  33.798  18.275   9.464
 2579POPC   PO434668  33.806  18.257   9.164
 2579POPC   GL134669  33.822  18.332   8.864
 2579POPC   GL234670  33.860  18.434   8.864
 2579POPC   C1A34671  33.831  18.261   8.564
 2579POPC   D2A34672  33.784  18.302   8.264
 2579POPC   C3A34673  33.751  18.304   7.964
 2579POPC   C4A34674  33.813  18.235   7.664
 2579POPC   C1B34675  33.868  18.473   8.564
 2579POPC   C2B34676  33.891  18.528   8.264
 2579POPC   C3B34677  33.945  18.546   7.964
 2579POPC   C4B34678  33.884  18.457   7.664
 2580POPC   NC334679  26.063  37.693   9.464
 2580POPC   PO434680  25.994  37.647   9.164
 2580POPC   GL134681  25.998  37.717   8.864
 2580POPC   GL234682  26.171  37.729   8.864
 2580POPC   C1A34683  26.014  37.707   8.564
 2580POPC   D2A34684  26.007  37.635   8.264
 2580POPC   C3A34685  26.084  37.649   7.964
 2580POPC   C4A34686  26.003  37.654   7.664
 2580POPC   C1B34687  26.211  37.781   8.564
 2580POPC   C2B34688  26.260  37.854   8.264
 2580POPC   C3B34689  26.288  37.789   7.964
 2580POPC   C4B34690  26.202  37.790   7.664
 2581POPC   NC334691  11.325   4.320   9.464
 2581POPC   PO434692  11.293   4.334   9.164
 2581POPC   GL134693  11.291   4.331   8.864
 2581POPC   GL234694  11.376   4.247   8.864
 2581POPC   C1A34695  11.315   4.307   8.564
 2581POPC   D2A34696  11.285   4.356   8.264
 2581POPC   C3A34697  11.257   4.290   7.964
 2581POPC   C4A34698  11.321   4.286   7.664
 2581POPC   C1B34699  11.375   4.085   8.564
 2581POPC   C2B34700  11.459   4.057   8.264
 2581POPC   C3B34701  11.430   4.101   7.964
 2581POPC   C4B34702  11.377   4.133   7.664
 2582POPC   NC334703  40.036  23.707   9.464
 2582POPC   PO434704  40.024  23.710   9.164
 2582POPC   GL134705  39.981  23.710   8.864
 2582POPC   GL234706  40.107  23.599   8.864
 2582POPC   C1A34707  40.051  23.751   8.564
 2582POPC   D2A34708  39.959  23.693   8.264
 2582POPC   C3A34709  39.975  23.726   7.964
 2582POPC   C4A34710  39.999  23.753   7.664
 2582POPC   C1B34711  40.061  23.435   8.564
 2582POPC   C2B34712  40.137  23.449   8.264
 2582POPC   C3B34713  40.139  23.493   7.964
 2582POPC   C4B34714  40.083  23.481   7.664
 2583POPC   NC334715  10.487   2.771   9.464
 2583POPC   PO434716  10.518   2.809   9.164
 2583POPC   GL134717  10.476   2.749   8.864
 2583POPC   GL234718  10.643   2.703   8.864
 2583POPC   C1A34719  10.482   2.755   8.564
 2583POPC   D2A34720  10.570   2.793   8.264
 2583POPC   C3A34721  10.479   2.722   7.964
 2583POPC   C4A34722  10.522   2.767   7.664
 2583POPC   C1B34723  10.820   2.721   8.564
 2583POPC   C2B34724  10.783   2.706   8.264
 2583POPC   C3B34725  10.747   2.695   7.964
 2583POPC   C4B34726  10.758   2.751   7.664
 2584POPC   NC334727  23.712  34.617   9.464
 2584POPC   PO434728  23.710  34.598   9.164
 2584POPC   GL134729  23.718  34.533   8.864
 2584POPC   GL234730  23.846  34.519   8.864
 2584POPC   C1A34731  23.716  34.625   8.564
 2584POPC   D2A34732  23.704  34.560   8.264
 2584POPC   C3A34733  23.706  34.557   7.964
 2584POPC   C4A34734  23.667  34.555   7.664
 2584POPC   C1B34735  23.937  34.398   8.564
 2584POPC   C2B34736  23.956  34.386   8.264
 2584POPC   C3B34737  23.938  34.439   7.964
 2584POPC   C4B34738  23.930  34.399   7.664
 2585POPC   NC334739  22.191   9.701   9.464
 2585POPC   PO434740  22.126   9.705   9.164
 2585POPC   GL134741  22.185   9.750   8.864
 2585POPC   GL234742  22.075   9.773   8.864
 2585POPC   C1A34743  22.119   9.793   8.564
 2585POPC   D2A34744  22.177   9.746   8.264
 2585POPC   C3A34745  22.140   9.769   7.964
 2585POPC   C4A34746  22.145   9.753   7.664
 2585POPC   C1B34747  21.926   9.806   8.564
 2585POPC   C2B34748  21.879   9.718   8.264
 2585POPC   C3B34749  21.908   9.711   7.964
 2585POPC   C4B34750  21.947   9.767   7.664
 2586POPC   NC334751  32.221   3.492   9.464
 2586POPC   PO434752  32.226   3.492   9.164
 2586POPC   GL134753  32.223   3.503   8.864
 2586POPC   GL234754  32.372   3.479   8.864
 2586POPC   C1A34755  32.264   3.528   8.564
 2586POPC   D2A34756  32.274   3.512   8.264
 2586POPC   C3A34757  32.243   3.515   7.964
 2586POPC   C4A34758  32.212   3.570   7.664
 2586POPC   C1B34759  32.474   3.534   8.564
 2586POPC   C2B34760  32.522   3.460   8.264
 2586POPC   C3B34761  32.497   3.515   7.964
 2586POPC   C4B34762  32.518   3.500   7.664
 2587POPC   NC334763   3.511   1.253   9.464
 2587POPC   PO434764   3.570   1.184   9.164
 2587POPC   GL134765   3.587   1.241   8.864
 2587POPC   GL234766   3.668   1.292   8.864
 2587POPC   C1A34767   3.537   1.221   8.564
 2587POPC   D2A34768   3.517   1.202   8.264
 2587POPC   C3A34769   3.559   1.188   7.964
 2587POPC   C4A34770   3.538   1.198   7.664
 2587POPC   C1B34771   3.755   1.327   8.564
 2587POPC   C2B34772   3.699   1.320   8.264
 2587POPC   C3B34773   3.759   1.361   7.964
 2587POPC   C4B34774   3.727   1.309   7.664
 2588POPC   NC334775  29.125  28.348   9.464
 2588POPC   PO434776  29.111  28.324   9.164
 2588POPC   GL134777  29.179  28.324   8.864
 2588POPC   GL234778  29.010  28.378   8.864
 2588POPC   C1A34779  29.160  28.332   8.564
 2588POPC   D2A34780  29.144  28.396   8.264
 2588POPC   C3A34781  29.177  28.388   7.964
 2588POPC   C4A34782  29.170  28.388   7.664
 2588POPC   C1B34783  28.936  28.417   8.564
 2588POPC   C2B34784  28.891  28.489   8.264
 2588POPC   C3B34785  28.944  28.410   7.964
 2588POPC   C4B34786  28.897  28.441   7.664
 2589POPC   NC334787  21.347  26.066   9.464
 2589POPC   PO434788  21.423  26.024   9.164
 2589POPC   GL134789  21.425  26.015   8.864
 2589POPC   GL234790  21.254  25.976   8.864
 2589POPC   C1A34791  21.410  26.005   8.564
 2589POPC   D2A34792  21.358  26.019   8.264
 2589POPC   C3A34793  21.420  26.026   7.964
 2589POPC   C4A34794  21.346  26.065   7.664
 2589POPC   C1B34795  21.187  25.950   8.564
 2589POPC   C2B34796  21.182  25.979   8.264
 2589POPC   C3B34797  21.195  25.956   7.964
 2589POPC   C4B34798  21.199  25.914   7.664
 2590POPC   NC334799   6.636   0.407   9.464
 2590POPC   PO434800   6.640   0.409   9.164
 2590POPC   GL134801   6.689   0.429   8.864
 2590POPC   GL234802   6.740   0.393   8.864
 2590POPC   C1A34803   6.616   0.471   8.564
 2590POPC   D2A34804   6.595   0.394   8.264
 2590POPC   C3A34805   6.605   0.403   7.964
 2590POPC   C4A34806   6.616   0.485   7.664
 2590POPC   C1B34807   6.808   0.232   8.564
 2590POPC   C2B34808   6.816   0.295   8.264
 2590POPC   C3B34809   6.843   0.249   7.964
 2590POPC   C4B34810   6.794   0.293   7.664
 2591POPC   NC334811  22.130  25.309   9.464
 2591POPC   PO434812  22.153  25.220   9.164
 2591POPC   GL134813  22.175  25.234   8.864
 2591POPC   GL234814  22.206  25.395   8.864
 2591POPC   C1A34815  22.196  25.312   8.564
 2591POPC   D2A34816  22.124  25.220   8.264
 2591POPC   C3A34817  22.202  25.262   7.964
 2591POPC   C4A34818  22.155  25.219   7.664
 2591POPC   C1B34819  22.327  25.404   8.564
 2591POPC   C2B34820  22.288  25.486   8.264
 2591POPC   C3B34821  22.312  25.472   7.964
 2591POPC   C4B34822  22.324  25.406   7.664
 2592POPC   NC334823  43.936   5.139   9.464
 2592POPC   PO434824  43.895   5.140   9.164
 2592POPC   GL134825  43.866   5.049   8.864
 2592POPC   GL234826  43.818   5.220   8.864
 2592POPC   C1A34827  43.870   5.117   8.564
 2592POPC   D2A34828  43.909   5.088   8.264
 2592POPC   C3A34829  43.856   5.115   7.964
 2592POPC   C4A34830  43.836   5.098   7.664
 2592POPC   C1B34831  43.769   5.321   8.564
 2592POPC   C2B34832  43.803   5.330   8.264
 2592POPC   C3B34833  43.836   5.379   7.964
 2592POPC   C4B34834  43.782   5.312   7.664
 2593POPC   NC334835  26.061  11.345   9.464
 2593POPC   PO434836  26.006  11.345   9.164
 2593POPC   GL134837  26.008  11.344   8.864
 2593POPC   GL234838  26.087  11.440   8.864
 2593POPC   C1A34839  26.077  11.343   8.564
 2593POPC   D2A34840  26.091  11.344   8.264
 2593POPC   C3A34841  26.012  11.316   7.964
 2593POPC   C4A34842  25.996  11.335   7.664
 2593POPC   C1B34843  26.039  11.504   8.564
 2593POPC   C2B34844  26.049  11.514   8.264
 2593POPC   C3B34845  26.112  11.561   7.964
 2593POPC   C4B34846  26.132  11.518   7.664
 2594POPC   NC334847   1.251   4.323   9.464
 2594POPC   PO434848   1.192   4.361   9.164
 2594POPC   GL134849   1.231   4.274   8.864
 2594POPC   GL234850   1.354   4.319   8.864
 2594POPC   C1A34851   1.198   4.365   8.564
 2594POPC   D2A34852   1.194   4.302   8.264
 2594POPC   C3A34853   1.253   4.363   7.964
 2594POPC   C4A34854   1.216   4.332   7.664
 2594POPC   C1B34855   1.448   4.426   8.564
 2594POPC   C2B34856   1.424   4.409   8.264
 2594POPC   C3B34857   1.446   4.397   7.964
 2594POPC   C4B34858   1.453   4.334   7.664
 2595POPC   NC334859  40.030   6.688   9.464
 2595POPC   PO434860  40.013   6.641   9.164
 2595POPC   GL134861  40.055   6.660   8.864
 2595POPC   GL234862  39.930   6.504   8.864
 2595POPC   C1A34863  39.991   6.656   8.564
 2595POPC   D2A34864  40.052   6.636   8.264
 2595POPC   C3A34865  40.040   6.652   7.964
 2595POPC   C4A34866  40.024   6.596   7.664
 2595POPC   C1B34867  39.990   6.378   8.564
 2595POPC   C2B34868  39.993   6.427   8.264
 2595POPC   C3B34869  39.951   6.389   7.964
 2595POPC   C4B34870  39.959   6.407   7.664
 2596POPC   NC334871  10.520  43.142   9.464
 2596POPC   PO434872  10.545  43.119   9.164
 2596POPC   GL134873  10.543  43.110   8.864
 2596POPC   GL234874  10.454  43.061   8.864
 2596POPC   C1A34875  10.501  43.114   8.564
 2596POPC   D2A34876  10.522  43.112   8.264
 2596POPC   C3A34877  10.480  43.116   7.964
 2596POPC   C4A34878  10.505  43.151   7.664
 2596POPC   C1B34879  10.332  42.904   8.564
 2596POPC   C2B34880  10.353  42.989   8.264
 2596POPC   C3B34881  10.363  42.968   7.964
 2596POPC   C4B34882  10.370  42.974   7.664
 2597POPC   NC334883  15.963  37.689   9.464
 2597POPC   PO434884  15.978  37.707   9.164
 2597POPC   GL134885  15.946  37.672   8.864
 2597POPC   GL234886  15.964  37.779   8.864
 2597POPC   C1A34887  15.955  37.708   8.564
 2597POPC   D2A34888  15.984  37.697   8.264
 2597POPC   C3A34889  15.968  37.638   7.964
 2597POPC   C4A34890  15.934  37.675   7.664
 2597POPC   C1B34891  15.966  37.914   8.564
 2597POPC   C2B34892  16.000  37.894   8.264
 2597POPC   C3B34893  15.950  37.895   7.964
 2597POPC   C4B34894  15.989  37.891   7.664
 2598POPC   NC334895  22.161  10.536   9.464
 2598POPC   PO434896  22.146  10.503   9.164
 2598POPC   GL134897  22.182  10.487   8.864
 2598POPC   GL234898  22.157  10.689   8.864
 2598POPC   C1A34899  22.136  10.528   8.564
 2598POPC   D2A34900  22.164  10.487   8.264
 2598POPC   C3A34901  22.194  10.568   7.964
 2598POPC   C4A34902  22.173  10.534   7.664
 2598POPC   C1B34903  22.157  10.812   8.564
 2598POPC   C2B34904  22.149  10.798   8.264
 2598POPC   C3B34905  22.131  10.733   7.964
 2598POPC   C4B34906  22.155  10.798   7.664
 2599POPC   NC334907  16.768   3.552   9.464
 2599POPC   PO434908  16.725   3.498   9.164
 2599POPC   GL134909  16.689   3.511   8.864
 2599POPC   GL234910  16.679   3.636   8.864
 2599POPC   C1A34911  16.702   3.544   8.564
 2599POPC   D2A34912  16.722   3.495   8.264
 2599POPC   C3A34913  16.690   3.584   7.964
 2599POPC   C4A34914  16.747   3.549   7.664
 2599POPC   C1B34915  16.664   3.747   8.564
 2599POPC   C2B34916  16.598   3.813   8.264
 2599POPC   C3B34917  16.604   3.813   7.964
 2599POPC   C4B34918  16.624   3.771   7.664
 2600POPC   NC334919  11.326  23.746   9.464
 2600POPC   PO434920  11.264  23.681   9.164
 2600POPC   GL134921  11.316  23.744   8.864
 2600POPC   GL234922  11.282  23.792   8.864
 2600POPC   C1A34923  11.292  23.724   8.564
 2600POPC   D2A34924  11.300  23.760   8.264
 2600POPC   C3A34925  11.269  23.707   7.964
 2600POPC   C4A34926  11.304  23.761   7.664
 2600POPC   C1B34927  11.322  23.916   8.564
 2600POPC   C2B34928  11.350  23.936   8.264
 2600POPC   C3B34929  11.288  23.947   7.964
 2600POPC   C4B34930  11.297  23.990   7.664
 2601POPC   NC334931  39.229   0.434   9.464
 2601POPC   PO434932  39.225   0.459   9.164
 2601POPC   GL134933  39.227   0.420   8.864
 2601POPC   GL234934  39.220   0.520   8.864
 2601POPC   C1A34935  39.210   0.423   8.564
 2601POPC   D2A34936  39.278   0.447   8.264
 2601POPC   C3A34937  39.217   0.460   7.964
 2601POPC   C4A34938  39.253   0.482   7.664
 2601POPC   C1B34939  39.108   0.673   8.564
 2601POPC   C2B34940  39.125   0.709   8.264
 2601POPC   C3B34941  39.128   0.625   7.964
 2601POPC   C4B34942  39.145   0.654   7.664
 2602POPC   NC334943  43.910  36.860   9.464
 2602POPC   PO434944  43.873  36.923   9.164
 2602POPC   GL134945  43.850  36.886   8.864
 2602POPC   GL234946  43.769  36.818   8.864
 2602POPC   C1A34947  43.920  36.947   8.564
 2602POPC   D2A34948  43.933  36.916   8.264
 2602POPC   C3A34949  43.918  36.927   7.964
 2602POPC   C4A34950  43.875  36.865   7.664
 2602POPC   C1B34951  43.689  36.755   8.564
 2602POPC   C2B34952  43.733  36.692   8.264
 2602POPC   C3B34953  43.687  36.739   7.964
 2602POPC   C4B34954  43.728  36.756   7.664
 2603POPC   NC334955  33.028  10.568   9.464
 2603POPC   PO434956  33.007  10.475   9.164
 2603POPC   GL134957  33.068  10.508   8.864
 2603POPC   GL234958  33.014  10.418   8.864
 2603POPC   C1A34959  33.071  10.525   8.564
 2603POPC   D2A34960  33.007  10.535   8.264
 2603POPC   C3A34961  33.020  10.554   7.964
 2603POPC   C4A34962  33.031  10.505   7.664
 2603POPC   C1B34963  33.025  10.320   8.564
 2603POPC   C2B34964  32.982  10.254   8.264
 2603POPC   C3B34965  33.044  10.295   7.964
 2603POPC   C4B34966  32.980  10.255   7.664
 2604POPC   NC334967   9.700   5.119   9.464
 2604POPC   PO434968   9.701   5.084   9.164
 2604POPC   GL134969   9.774   5.052   8.864
 2604POPC   GL234970   9.578   5.034   8.864
 2604POPC   C1A34971   9.712   5.092   8.564
 2604POPC   D2A34972   9.743   5.047   8.264
 2604POPC   C3A34973   9.717   5.066   7.964
 2604POPC   C4A34974   9.747   5.076   7.664
 2604POPC   C1B34975   9.510   5.068   8.564
 2604POPC   C2B34976   9.537   5.049   8.264
 2604POPC   C3B34977   9.546   5.078   7.964
 2604POPC   C4B34978   9.532   5.033   7.664
 2605POPC   NC334979  29.885  33.840   9.464
 2605POPC   PO434980  29.947  33.795   9.164
 2605POPC   GL134981  29.962  33.762   8.864
 2605POPC   GL234982  30.044  33.808   8.864
 2605POPC   C1A34983  29.871  33.754   8.564
 2605POPC   D2A34984  29.957  33.799   8.264
 2605POPC   C3A34985  29.938  33.783   7.964
 2605POPC   C4A34986  29.877  33.827   7.664
 2605POPC   C1B34987  30.210  33.826   8.564
 2605POPC   C2B34988  30.168  33.778   8.264
 2605POPC   C3B34989  30.145  33.791   7.964
 2605POPC   C4B34990  30.181  33.822   7.664
 2606POPC   NC334991  24.440  23.743   9.464
 2606POPC   PO434992  24.469  23.712   9.164
 2606POPC   GL134993  24.444  23.700   8.864
 2606POPC   GL234994  24.411  23.778   8.864
 2606POPC   C1A34995  24.519  23.676   8.564
 2606POPC   D2A34996  24.472  23.678   8.264
 2606POPC   C3A34997  24.458  23.675   7.964
 2606POPC   C4A34998  24.540  23.700   7.664
 2606POPC   C1B34999  24.254  23.894   8.564
 2606POPC   C2B35000  24.239  23.835   8.264
 2606POPC   C3B35001  24.311  23.871   7.964
 2606POPC   C4B35002  24.293  23.848   7.664
 2607POPC   NC335003   0.477  31.510   9.464
 2607POPC   PO435004   0.475  31.445   9.164
 2607POPC   GL135005   0.460  31.428   8.864
 2607POPC   GL235006   0.449  31.639   8.864
 2607POPC   C1A35007   0.395  31.512   8.564
 2607POPC   D2A35008   0.403  31.493   8.264
 2607POPC   C3A35009   0.410  31.459   7.964
 2607POPC   C4A35010   0.472  31.496   7.664
 2607POPC   C1B35011   0.401  31.697   8.564
 2607POPC   C2B35012   0.427  31.693   8.264
 2607POPC   C3B35013   0.380  31.758   7.964
 2607POPC   C4B35014   0.404  31.670   7.664
 2608POPC   NC335015  30.717  36.903   9.464
 2608POPC   PO435016  30.673  36.915   9.164
 2608POPC   GL135017  30.719  36.878   8.864
 2608POPC   GL235018  30.788  36.952   8.864
 2608POPC   C1A35019  30.742  36.926   8.564
 2608POPC   D2A35020  30.704  36.940   8.264
 2608POPC   C3A35021  30.691  36.894   7.964
 2608POPC   C4A35022  30.675  36.897   7.664
 2608POPC   C1B35023  30.888  37.026   8.564
 2608POPC   C2B35024  30.906  37.045   8.264
 2608POPC   C3B35025  30.927  37.055   7.964
 2608POPC   C4B35026  30.869  37.044   7.664
 2609POPC   NC335027   8.933  33.072   9.464
 2609POPC   PO435028   8.958  32.997   9.164
 2609POPC   GL135029   8.942  33.048   8.864
 2609POPC   GL235030   8.918  33.108   8.864
 2609POPC   C1A35031   8.924  33.043   8.564
 2609POPC   D2A35032   8.972  33.047   8.264
 2609POPC   C3A35033   9.002  32.989   7.964
 2609POPC   C4A35034   9.000  33.006   7.664
 2609POPC   C1B35035   8.974  33.314   8.564
 2609POPC   C2B35036   8.953  33.292   8.264
 2609POPC   C3B35037   8.921  33.260   7.964
 2609POPC   C4B35038   8.985  33.236   7.664
 2610POPC   NC335039  41.558  28.352   9.464
 2610POPC   PO435040  41.596  28.403   9.164
 2610POPC   GL135041  41.520  28.351   8.864
 2610POPC   GL235042  41.487  28.492   8.864
 2610POPC   C1A35043  41.554  28.391   8.564
 2610POPC   D2A35044  41.554  28.372   8.264
 2610POPC   C3A35045  41.522  28.405   7.964
 2610POPC   C4A35046  41.533  28.360   7.664
 2610POPC   C1B35047  41.384  28.506   8.564
 2610POPC   C2B35048  41.367  28.561   8.264
 2610POPC   C3B35049  41.386  28.517   7.964
 2610POPC   C4B35050  41.389  28.542   7.664
 2611POPC   NC335051  27.544   4.360   9.464
 2611POPC   PO435052  27.583   4.302   9.164
 2611POPC   GL135053  27.558   4.318   8.864
 2611POPC   GL235054  27.543   4.386   8.864
 2611POPC   C1A35055  27.552   4.323   8.564
 2611POPC   D2A35056  27.571   4.293   8.264
 2611POPC   C3A35057  27.642   4.277   7.964
 2611POPC   C4A35058  27.611   4.332   7.664
 2611POPC   C1B35059  27.421   4.499   8.564
 2611POPC   C2B35060  27.383   4.487   8.264
 2611POPC   C3B35061  27.382   4.449   7.964
 2611POPC   C4B35062  27.390   4.528   7.664
 2612POPC   NC335063  27.626  43.868   9.464
 2612POPC   PO435064  27.588  43.919   9.164
 2612POPC   GL135065  27.568  43.854   8.864
 2612POPC   GL235066  27.530  43.804   8.864
 2612POPC   C1A35067  27.600  43.936   8.564
 2612POPC   D2A35068  27.635  43.869   8.264
 2612POPC   C3A35069  27.592  43.905   7.964
 2612POPC   C4A35070  27.600  43.933   7.664
 2612POPC   C1B35071  27.340  43.799   8.564
 2612POPC   C2B35072  27.419  43.772   8.264
 2612POPC   C3B35073  27.350  43.734   7.964
 2612POPC   C4B35074  27.347  43.716   7.664
 2613POPC   NC335075  36.130  16.774   9.464
 2613POPC   PO435076  36.125  16.757   9.164
 2613POPC   GL135077  36.093  16.701   8.864
 2613POPC   GL235078  36.091  16.799   8.864
 2613POPC   C1A35079  36.081  16.682   8.564
 2613POPC   D2A35080  36.079  16.686   8.264
 2613POPC   C3A35081  36.177  16.764   7.964
 2613POPC   C4A35082  36.149  16.728   7.664
 2613POPC   C1B35083  36.065  16.923   8.564
 2613POPC   C2B35084  36.049  16.957   8.264
 2613POPC   C3B35085  36.043  17.006   7.964
 2613POPC   C4B35086  35.993  16.939   7.664
 2614POPC   NC335087   7.426   4.306   9.464
 2614POPC   PO435088   7.458   4.306   9.164
 2614POPC   GL135089   7.436   4.333   8.864
 2614POPC   GL235090   7.462   4.468   8.864
 2614POPC   C1A35091   7.397   4.282   8.564
 2614POPC   D2A35092   7.430   4.306   8.264
 2614POPC   C3A35093   7.371   4.282   7.964
 2614POPC   C4A35094   7.419   4.330   7.664
 2614POPC   C1B35095   7.526   4.510   8.564
 2614POPC   C2B35096   7.439   4.580   8.264
 2614POPC   C3B35097   7.503   4.531   7.964
 2614POPC   C4B35098   7.503   4.584   7.664
 2615POPC   NC335099  34.620   5.864   9.464
 2615POPC   PO435100  34.575   5.907   9.164
 2615POPC   GL135101  34.592   5.901   8.864
 2615POPC   GL235102  34.634   5.754   8.864
 2615POPC   C1A35103  34.558   5.852   8.564
 2615POPC   D2A35104  34.613   5.828   8.264
 2615POPC   C3A35105  34.606   5.914   7.964
 2615POPC   C4A35106  34.595   5.882   7.664
 2615POPC   C1B35107  34.665   5.655   8.564
 2615POPC   C2B35108  34.668   5.623   8.264
 2615POPC   C3B35109  34.683   5.658   7.964
 2615POPC   C4B35110  34.719   5.601   7.664
 2616POPC   NC335111  33.812  15.212   9.464
 2616POPC   PO435112  33.794  15.160   9.164
 2616POPC   GL135113  33.841  15.227   8.864
 2616POPC   GL235114  33.794  15.344   8.864
 2616POPC   C1A35115  33.815  15.198   8.564
 2616POPC   D2A35116  33.771  15.199   8.264
 2616POPC   C3A35117  33.815  15.198   7.964
 2616POPC   C4A35118  33.782  15.198   7.664
 2616POPC   C1B35119  33.853  15.422   8.564
 2616POPC   C2B35120  33.875  15.460   8.264
 2616POPC   C3B35121  33.896  15.383   7.964
 2616POPC   C4B35122  33.840  15.444   7.664
 2617POPC   NC335123  15.920  43.103   9.464
 2617POPC   PO435124  15.975  43.105   9.164
 2617POPC   GL135125  15.954  43.110   8.864
 2617POPC   GL235126  16.056  42.986   8.864
 2617POPC   C1A35127  15.905  43.064   8.564
 2617POPC   D2A35128  15.908  43.147   8.264
 2617POPC   C3A35129  15.913  43.125   7.964
 2617POPC   C4A35130  15.989  43.153   7.664
 2617POPC   C1B35131  16.037  42.876   8.564
 2617POPC   C2B35132  16.057  42.850   8.264
 2617POPC   C3B35133  16.073  42.865   7.964
 2617POPC   C4B35134  16.057  42.925   7.664
 2618POPC   NC335135  33.775  36.873   9.464
 2618POPC   PO435136  33.834  36.905   9.164
 2618POPC   GL135137  33.826  36.916   8.864
 2618POPC   GL235138  33.719  36.927   8.864
 2618POPC   C1A35139  33.822  36.941   8.564
 2618POPC   D2A35140  33.800  36.888   8.264
 2618POPC   C3A35141  33.759  36.896   7.964
 2618POPC   C4A35142  33.769  36.913   7.664
 2618POPC   C1B35143  33.562  36.986   8.564
 2618POPC   C2B35144  33.620  37.014   8.264
 2618POPC   C3B35145  33.530  37.038   7.964
 2618POPC   C4B35146  33.601  37.059   7.664
 2619POPC   NC335147   4.269   5.136   9.464
 2619POPC   PO435148   4.314   5.055   9.164
 2619POPC   GL135149   4.340   5.079   8.864
 2619POPC   GL235150   4.395   5.146   8.864
 2619POPC   C1A35151   4.277   5.076   8.564
 2619POPC   D2A35152   4.358   5.072   8.264
 2619POPC   C3A35153   4.347   5.082   7.964
 2619POPC   C4A35154   4.338   5.137   7.664
 2619POPC   C1B35155   4.473   5.280   8.564
 2619POPC   C2B35156   4.519   5.323   8.264
 2619POPC   C3B35157   4.530   5.234   7.964
 2619POPC   C4B35158   4.467   5.281   7.664
 2620POPC   NC335159  43.062  12.825   9.464
 2620POPC   PO435160  43.094  12.827   9.164
 2620POPC   GL135161  43.093  12.841   8.864
 2620POPC   GL235162  43.183  12.979   8.864
 2620POPC   C1A35163  43.126  12.809   8.564
 2620POPC   D2A35164  43.115  12.896   8.264
 2620POPC   C3A35165  43.095  12.811   7.964
 2620POPC   C4A35166  43.133  12.868   7.664
 2620POPC   C1B35167  43.338  13.014   8.564
 2620POPC   C2B35168  43.266  12.973   8.264
 2620POPC   C3B35169  43.319  12.987   7.964
 2620POPC   C4B35170  43.282  13.019   7.664
 2621POPC   NC335171  21.419  38.475   9.464
 2621POPC   PO435172  21.411  38.482   9.164
 2621POPC   GL135173  21.413  38.425   8.864
 2621POPC   GL235174  21.478  38.453   8.864
 2621POPC   C1A35175  21.348  38.433   8.564
 2621POPC   D2A35176  21.397  38.458   8.264
 2621POPC   C3A35177  21.345  38.422   7.964
 2621POPC   C4A35178  21.382  38.473   7.664
 2621POPC   C1B35179  21.642  38.344   8.564
 2621POPC   C2B35180  21.590  38.409   8.264
 2621POPC   C3B35181  21.625  38.404   7.964
 2621POPC   C4B35182  21.629  38.398   7.664
 2622POPC   NC335183  32.236  20.584   9.464
 2622POPC   PO435184  32.244  20.586   9.164
 2622POPC   GL135185  32.222  20.657   8.864
 2622POPC   GL235186  32.206  20.459   8.864
 2622POPC   C1A35187  32.296  20.602   8.564
 2622POPC   D2A35188  32.232  20.641   8.264
 2622POPC   C3A35189  32.213  20.607   7.964
 2622POPC   C4A35190  32.227  20.590   7.664
 2622POPC   C1B35191  32.102  20.444   8.564
 2622POPC   C2B35192  32.074  20.442   8.264
 2622POPC   C3B35193  32.155  20.349   7.964
 2622POPC   C4B35194  32.072  20.375   7.664
 2623POPC   NC335195  10.559  16.760   9.464
 2623POPC   PO435196  10.570  16.710   9.164
 2623POPC   GL135197  10.543  16.712   8.864
 2623POPC   GL235198  10.628  16.800   8.864
 2623POPC   C1A35199  10.538  16.753   8.564
 2623POPC   D2A35200  10.536  16.712   8.264
 2623POPC   C3A35201  10.553  16.719   7.964
 2623POPC   C4A35202  10.566  16.715   7.664
 2623POPC   C1B35203  10.814  16.761   8.564
 2623POPC   C2B35204  10.769  16.777   8.264
 2623POPC   C3B35205  10.800  16.807   7.964
 2623POPC   C4B35206  10.768  16.808   7.664
 2624POPC   NC335207  26.846   6.671   9.464
 2624POPC   PO435208  26.842   6.629   9.164
 2624POPC   GL135209  26.835   6.609   8.864
 2624POPC   GL235210  26.802   6.782   8.864
 2624POPC   C1A35211  26.860   6.636   8.564
 2624POPC   D2A35212  26.798   6.615   8.264
 2624POPC   C3A35213  26.807   6.615   7.964
 2624POPC   C4A35214  26.834   6.651   7.664
 2624POPC   C1B35215  26.869   6.921   8.564
 2624POPC   C2B35216  26.882   6.872   8.264
 2624POPC   C3B35217  26.826   6.922   7.964
 2624POPC   C4B35218  26.851   6.845   7.664
 2625POPC   NC335219  41.564  13.669   9.464
 2625POPC   PO435220  41.529  13.601   9.164
 2625POPC   GL135221  41.533  13.642   8.864
 2625POPC   GL235222  41.673  13.717   8.864
 2625POPC   C1A35223  41.557  13.627   8.564
 2625POPC   D2A35224  41.530  13.672   8.264
 2625POPC   C3A35225  41.519  13.649   7.964
 2625POPC   C4A35226  41.586  13.603   7.664
 2625POPC   C1B35227  41.722  13.817   8.564
 2625POPC   C2B35228  41.750  13.781   8.264
 2625POPC   C3B35229  41.698  13.873   7.964
 2625POPC   C4B35230  41.682  13.865   7.664
 2626POPC   NC335231  19.096   1.965   9.464
 2626POPC   PO435232  19.051   1.998   9.164
 2626POPC   GL135233  19.092   1.996   8.864
 2626POPC   GL235234  19.209   2.095   8.864
 2626POPC   C1A35235  19.009   2.037   8.564
 2626POPC   D2A35236  19.096   1.965   8.264
 2626POPC   C3A35237  19.065   2.034   7.964
 2626POPC   C4A35238  19.051   2.030   7.664
 2626POPC   C1B35239  19.329   2.096   8.564
 2626POPC   C2B35240  19.244   2.066   8.264
 2626POPC   C3B35241  19.326   2.068   7.964
 2626POPC   C4B35242  19.240   2.120   7.664
 2627POPC   NC335243  20.634  33.840   9.464
 2627POPC   PO435244  20.565  33.824   9.164
 2627POPC   GL135245  20.626  33.806   8.864
 2627POPC   GL235246  20.560  33.946   8.864
 2627POPC   C1A35247  20.616  33.781   8.564
 2627POPC   D2A35248  20.610  33.792   8.264
 2627POPC   C3A35249  20.617  33.759   7.964
 2627POPC   C4A35250  20.640  33.823   7.664
 2627POPC   C1B35251  20.648  34.024   8.564
 2627POPC   C2B35252  20.640  34.025   8.264
 2627POPC   C3B35253  20.564  34.087   7.964
 2627POPC   C4B35254  20.646  34.046   7.664
 2628POPC   NC335255  40.815   5.054   9.464
 2628POPC   PO435256  40.831   5.108   9.164
 2628POPC   GL135257  40.782   5.083   8.864
 2628POPC   GL235258  40.752   4.966   8.864
 2628POPC   C1A35259  40.829   5.072   8.564
 2628POPC   D2A35260  40.815   5.093   8.264
 2628POPC   C3A35261  40.809   5.070   7.964
 2628POPC   C4A35262  40.832   5.086   7.664
 2628POPC   C1B35263  40.594   4.910   8.564
 2628POPC   C2B35264  40.659   4.896   8.264
 2628POPC   C3B35265  40.630   4.856   7.964
 2628POPC   C4B35266  40.645   4.884   7.664
 2629POPC   NC335267  24.532  34.539   9.464
 2629POPC   PO435268  24.487  34.624   9.164
 2629POPC   GL135269  24.532  34.622   8.864
 2629POPC   GL235270  24.563  34.675   8.864
 2629POPC   C1A35271  24.494  34.609   8.564
 2629POPC   D2A35272  24.451  34.545   8.264
 2629POPC   C3A35273  24.455  34.558   7.964
 2629POPC   C4A35274  24.476  34.546   7.664
 2629POPC   C1B35275  24.670  34.800   8.564
 2629POPC   C2B35276  24.698  34.762   8.264
 2629POPC   C3B35277  24.663  34.780   7.964
 2629POPC   C4B35278  24.686  34.756   7.664
 2630POPC   NC335279  31.426  40.820   9.464
 2630POPC   PO435280  31.504  40.741   9.164
 2630POPC   GL135281  31.445  40.830   8.864
 2630POPC   GL235282  31.588  40.717   8.864
 2630POPC   C1A35283  31.424  40.759   8.564
 2630POPC   D2A35284  31.515  40.737   8.264
 2630POPC   C3A35285  31.461  40.827   7.964
 2630POPC   C4A35286  31.494  40.785   7.664
 2630POPC   C1B35287  31.689  40.754   8.564
 2630POPC   C2B35288  31.675  40.773   8.264
 2630POPC   C3B35289  31.749  40.746   7.964
 2630POPC   C4B35290  31.699  40.704   7.664
 2631POPC   NC335291   5.135  17.526   9.464
 2631POPC   PO435292   5.127  17.552   9.164
 2631POPC   GL135293   5.084  17.545   8.864
 2631POPC   GL235294   5.056  17.450   8.864
 2631POPC   C1A35295   5.084  17.533   8.564
 2631POPC   D2A35296   5.108  17.460   8.264
 2631POPC   C3A35297   5.056  17.470   7.964
 2631POPC   C4A35298   5.133  17.504   7.664
 2631POPC   C1B35299   4.990  17.311   8.564
 2631POPC   C2B35300   4.985  17.254   8.264
 2631POPC   C3B35301   4.949  17.326   7.964
 2631POPC   C4B35302   4.990  17.317   7.664
 2632POPC   NC335303  43.854  31.471   9.464
 2632POPC   PO435304  43.840  31.522   9.164
 2632POPC   GL135305  43.863  31.488   8.864
 2632POPC   GL235306  43.979  31.626   8.864
 2632POPC   C1A35307  43.871  31.425   8.564
 2632POPC   D2A35308  43.867  31.452   8.264
 2632POPC   C3A35309  43.881  31.443   7.964
 2632POPC   C4A35310  43.840  31.471   7.664
 2632POPC   C1B35311  43.967  31.680   8.564
 2632POPC   C2B35312  43.972  31.663   8.264
 2632POPC   C3B35313  43.974  31.691   7.964
 2632POPC   C4B35314  44.003  31.670   7.664
 2633POPC   NC335315  24.452  26.818   9.464
 2633POPC   PO435316  24.510  26.825   9.164
 2633POPC   GL135317  24.473  26.786   8.864
 2633POPC   GL235318  24.615  26.908   8.864
 2633POPC   C1A35319  24.449  26.823   8.564
 2633POPC   D2A35320  24.499  26.845   8.264
 2633POPC   C3A35321  24.483  26.855   7.964
 2633POPC   C4A35322  24.470  26.839   7.664
 2633POPC   C1B35323  24.685  26.982   8.564
 2633POPC   C2B35324  24.707  27.036   8.264
 2633POPC   C3B35325  24.662  27.021   7.964
 2633POPC   C4B35326  24.642  27.019   7.664
 2634POPC   NC335327  15.996   2.808   9.464
 2634POPC   PO435328  16.001   2.744   9.164
 2634POPC   GL135329  15.946   2.774   8.864
 2634POPC   GL235330  15.978   2.870   8.864
 2634POPC   C1A35331  15.938   2.771   8.564
 2634POPC   D2A35332  15.921   2.801   8.264
 2634POPC   C3A35333  16.003   2.792   7.964
 2634POPC   C4A35334  15.931   2.780   7.664
 2634POPC   C1B35335  16.060   3.023   8.564
 2634POPC   C2B35336  16.104   3.008   8.264
 2634POPC   C3B35337  16.094   3.028   7.964
 2634POPC   C4B35338  16.061   2.952   7.664
 2635POPC   NC335339   2.031  25.268   9.464
 2635POPC   PO435340   1.991  25.291   9.164
 2635POPC   GL135341   1.949  25.231   8.864
 2635POPC   GL235342   1.860  25.276   8.864
 2635POPC   C1A35343   2.031  25.282   8.564
 2635POPC   D2A35344   2.008  25.227   8.264
 2635POPC   C3A35345   1.980  25.249   7.964
 2635POPC   C4A35346   1.976  25.311   7.664
 2635POPC   C1B35347   1.751  25.301   8.564
 2635POPC   C2B35348   1.710  25.262   8.264
 2635POPC   C3B35349   1.761  25.338   7.964
 2635POPC   C4B35350   1.723  25.243   7.664
 2636POPC   NC335351  30.677  15.210   9.464
 2636POPC   PO435352  30.733  15.217   9.164
 2636POPC   GL135353  30.692  15.151   8.864
 2636POPC   GL235354  30.782  15.078   8.864
 2636POPC   C1A35355  30.682  15.154   8.564
 2636POPC   D2A35356  30.721  15.229   8.264
 2636POPC   C3A35357  30.663  15.164   7.964
 2636POPC   C4A35358  30.693  15.216   7.664
 2636POPC   C1B35359  30.824  14.947   8.564
 2636POPC   C2B35360  30.857  15.019   8.264
 2636POPC   C3B35361  30.832  15.015   7.964
 2636POPC   C4B35362  30.841  15.028   7.664
 2637POPC   NC335363  16.715  32.231   9.464
 2637POPC   PO435364  16.755  32.204   9.164
 2637POPC   GL135365  16.771  32.222   8.864
 2637POPC   GL235366  16.677  32.155   8.864
 2637POPC   C1A35367  16.744  32.286   8.564
 2637POPC   D2A35368  16.693  32.213   8.264
 2637POPC   C3A35369  16.691  32.258   7.964
 2637POPC   C4A35370  16.767  32.221   7.664
 2637POPC   C1B35371  16.608  32.075   8.564
 2637POPC   C2B35372  16.595  32.012   8.264
 2637POPC   C3B35373  16.620  32.098   7.964
 2637POPC   C4B35374  16.623  32.032   7.664
 2638POPC   NC335375  41.540  24.461   9.464
 2638POPC   PO435376  41.598  24.458   9.164
 2638POPC   GL135377  41.512  24.514   8.864
 2638POPC   GL235378  41.567  24.334   8.864
 2638POPC   C1A35379  41.552  24.535   8.564
 2638POPC   D2A35380  41.583  24.496   8.264
 2638POPC   C3A35381  41.589  24.501   7.964
 2638POPC   C4A35382  41.602  24.483   7.664
 2638POPC   C1B35383  41.662  24.309   8.564
 2638POPC   C2B35384  41.621  24.286   8.264
 2638POPC   C3B35385  41.613  24.268   7.964
 2638POPC   C4B35386  41.616  24.217   7.664
 2639POPC   NC335387  20.647  19.793   9.464
 2639POPC   PO435388  20.595  19.871   9.164
 2639POPC   GL135389  20.583  19.839   8.864
 2639POPC   GL235390  20.700  19.841   8.864
 2639POPC   C1A35391  20.610  19.818   8.564
 2639POPC   D2A35392  20.565  19.802   8.264
 2639POPC   C3A35393  20.591  19.870   7.964
 2639POPC   C4A35394  20.648  19.836   7.664
 2639POPC   C1B35395  20.807  19.760   8.564
 2639POPC   C2B35396  20.878  19.747   8.264
 2639POPC   C3B35397  20.889  19.733   7.964
 2639POPC   C4B35398  20.844  19.808   7.664
 2640POPC   NC335399  15.196  32.981   9.464
 2640POPC   PO435400  15.169  33.004   9.164
 2640POPC   GL135401  15.180  33.027   8.864
 2640POPC   GL235402  15.257  33.025   8.864
 2640POPC   C1A35403  15.198  33.059   8.564
 2640POPC   D2A35404  15.199  33.034   8.264
 2640POPC   C3A35405  15.178  33.022   7.964
 2640POPC   C4A35406  15.221  33.032   7.664
 2640POPC   C1B35407  15.439  32.957   8.564
 2640POPC   C2B35408  15.421  32.970   8.264
 2640POPC   C3B35409  15.391  32.941   7.964
 2640POPC   C4B35410  15.448  32.960   7.664
 2641POPC   NC335411  31.480  14.390   9.464
 2641POPC   PO435412  31.496  14.402   9.164
 2641POPC   GL135413  31.521  14.449   8.864
 2641POPC   GL235414  31.417  14.540   8.864
 2641POPC   C1A35415  31.431  14.376   8.564
 2641POPC   D2A35416  31.502  14.404   8.264
 2641POPC   C3A35417  31.500  14.430   7.964
 2641POPC   C4A35418  31.502  14.369   7.664
 2641POPC   C1B35419  31.406  14.662   8.564
 2641POPC   C2B35420  31.447  14.676   8.264
 2641POPC   C3B35421  31.420  14.643   7.964
 2641POPC   C4B35422  31.455  14.656   7.664
 2642POPC   NC335423  22.951  43.125   9.464
 2642POPC   PO435424  22.888  43.089   9.164
 2642POPC   GL135425  22.984  43.105   8.864
 2642POPC   GL235426  22.969  43.262   8.864
 2642POPC   C1A35427  22.969  43.152   8.564
 2642POPC   D2A35428  22.956  43.118   8.264
 2642POPC   C3A35429  22.917  43.149   7.964
 2642POPC   C4A35430  22.931  43.123   7.664
 2642POPC   C1B35431  22.941  43.318   8.564
 2642POPC   C2B35432  22.886  43.371   8.264
 2642POPC   C3B35433  22.893  43.333   7.964
 2642POPC   C4B35434  22.924  43.387   7.664
 2643POPC   NC335435  40.792  40.809   9.464
 2643POPC   PO435436  40.777  40.768   9.164
 2643POPC   GL135437  40.824  40.767   8.864
 2643POPC   GL235438  40.694  40.745   8.864
 2643POPC   C1A35439  40.758  40.820   8.564
 2643POPC   D2A35440  40.779  40.781   8.264
 2643POPC   C3A35441  40.749  40.811   7.964
 2643POPC   C4A35442  40.787  40.769   7.664
 2643POPC   C1B35443  40.525  40.749   8.564
 2643POPC   C2B35444  40.554  40.818   8.264
 2643POPC   C3B35445  40.520  40.807   7.964
 2643POPC   C4B35446  40.500  40.734   7.664
 2644POPC   NC335447   9.789  18.294   9.464
 2644POPC   PO435448   9.710  18.290   9.164
 2644POPC   GL135449   9.788  18.298   8.864
 2644POPC   GL235450   9.658  18.224   8.864
 2644POPC   C1A35451   9.757  18.327   8.564
 2644POPC   D2A35452   9.753  18.259   8.264
 2644POPC   C3A35453   9.724  18.298   7.964
 2644POPC   C4A35454   9.796  18.302   7.664
 2644POPC   C1B35455   9.497  18.189   8.564
 2644POPC   C2B35456   9.513  18.224   8.264
 2644POPC   C3B35457   9.544  18.176   7.964
 2644POPC   C4B35458   9.527  18.181   7.664
 2645POPC   NC335459   7.420   5.139   9.464
 2645POPC   PO435460   7.384   5.078   9.164
 2645POPC   GL135461   7.426   5.073   8.864
 2645POPC   GL235462   7.352   5.243   8.864
 2645POPC   C1A35463   7.430   5.139   8.564
 2645POPC   D2A35464   7.403   5.137   8.264
 2645POPC   C3A35465   7.446   5.083   7.964
 2645POPC   C4A35466   7.410   5.123   7.664
 2645POPC   C1B35467   7.267   5.292   8.564
 2645POPC   C2B35468   7.251   5.312   8.264
 2645POPC   C3B35469   7.306   5.305   7.964
 2645POPC   C4B35470   7.268   5.332   7.664
 2646POPC   NC335471  31.459   1.166   9.464
 2646POPC   PO435472  31.465   1.248   9.164
 2646POPC   GL135473  31.498   1.175   8.864
 2646POPC   GL235474  31.383   1.097   8.864
 2646POPC   C1A35475  31.469   1.220   8.564
 2646POPC   D2A35476  31.474   1.261   8.264
 2646POPC   C3A35477  31.519   1.210   7.964
 2646POPC   C4A35478  31.451   1.192   7.664
 2646POPC   C1B35479  31.308   1.041   8.564
 2646POPC   C2B35480  31.264   1.040   8.264
 2646POPC   C3B35481  31.302   1.043   7.964
 2646POPC   C4B35482  31.316   1.108   7.664
 2647POPC   NC335483  26.071  13.666   9.464
 2647POPC   PO435484  26.073  13.659   9.164
 2647POPC   GL135485  26.072  13.670   8.864
 2647POPC   GL235486  26.131  13.602   8.864
 2647POPC   C1A35487  26.015  13.588   8.564
 2647POPC   D2A35488  26.039  13.607   8.264
 2647POPC   C3A35489  26.060  13.585   7.964
 2647POPC   C4A35490  26.021  13.593   7.664
 2647POPC   C1B35491  26.299  13.661   8.564
 2647POPC   C2B35492  26.327  13.589   8.264
 2647POPC   C3B35493  26.249  13.622   7.964
 2647POPC   C4B35494  26.260  13.667   7.664
 2648POPC   NC335495   5.821  36.138   9.464
 2648POPC   PO435496   5.851  36.169   9.164
 2648POPC   GL135497   5.887  36.170   8.864
 2648POPC   GL235498   6.016  36.057   8.864
 2648POPC   C1A35499   5.903  36.160   8.564
 2648POPC   D2A35500   5.835  36.173   8.264
 2648POPC   C3A35501   5.899  36.176   7.964
 2648POPC   C4A35502   5.827  36.080   7.664
 2648POPC   C1B35503   6.129  36.029   8.564
 2648POPC   C2B35504   6.086  36.041   8.264
 2648POPC   C3B35505   6.128  36.027   7.964
 2648POPC   C4B35506   6.041  36.028   7.664
 2649POPC   NC335507  12.055  24.518   9.464
 2649POPC   PO435508  12.116  24.513   9.164
 2649POPC   GL135509  12.106  24.493   8.864
 2649POPC   GL235510  12.003  24.566   8.864
 2649POPC   C1A35511  12.084  24.507   8.564
 2649POPC   D2A35512  12.095  24.532   8.264
 2649POPC   C3A35513  12.112  24.464   7.964
 2649POPC   C4A35514  12.039  24.465   7.664
 2649POPC   C1B35515  11.884  24.540   8.564
 2649POPC   C2B35516  11.862  24.545   8.264
 2649POPC   C3B35517  11.815  24.610   7.964
 2649POPC   C4B35518  11.886  24.580   7.664
 2650POPC   NC335519  39.959  29.945   9.464
 2650POPC   PO435520  40.045  29.905   9.164
 2650POPC   GL135521  39.975  29.937   8.864
 2650POPC   GL235522  40.142  29.864   8.864
 2650POPC   C1A35523  40.054  29.881   8.564
 2650POPC   D2A35524  40.043  29.934   8.264
 2650POPC   C3A35525  39.973  29.906   7.964
 2650POPC   C4A35526  40.022  29.878   7.664
 2650POPC   C1B35527  40.253  29.827   8.564
 2650POPC   C2B35528  40.237  29.850   8.264
 2650POPC   C3B35529  40.274  29.833   7.964
 2650POPC   C4B35530  40.230  29.770   7.664
 2651POPC   NC335531  10.503  32.246   9.464
 2651POPC   PO435532  10.497  32.218   9.164
 2651POPC   GL135533  10.529  32.214   8.864
 2651POPC   GL235534  10.513  32.380   8.864
 2651POPC   C1A35535  10.503  32.280   8.564
 2651POPC   D2A35536  10.483  32.240   8.264
 2651POPC   C3A35537  10.542  32.240   7.964
 2651POPC   C4A35538  10.521  32.217   7.664
 2651POPC   C1B35539  10.589  32.472   8.564
 2651POPC   C2B35540  10.521  32.494   8.264
 2651POPC   C3B35541  10.554  32.461   7.964
 2651POPC   C4B35542  10.532  32.496   7.664
 2652POPC   NC335543  11.254  12.027   9.464
 2652POPC   PO435544  11.262  12.077   9.164
 2652POPC   GL135545  11.289  12.035   8.864
 2652POPC   GL235546  11.341  11.990   8.864
 2652POPC   C1A35547  11.291  12.058   8.564
 2652POPC   D2A35548  11.278  12.083   8.264
 2652POPC   C3A35549  11.269  12.072   7.964
 2652POPC   C4A35550  11.334  12.057   7.664
 2652POPC   C1B35551  11.319  11.839   8.564
 2652POPC   C2B35552  11.289  11.788   8.264
 2652POPC   C3B35553  11.382  11.878   7.964
 2652POPC   C4B35554  11.382  11.810   7.664
 2653POPC   NC335555  32.258  32.285   9.464
 2653POPC   PO435556  32.263  32.293   9.164
 2653POPC   GL135557  32.224  32.274   8.864
 2653POPC   GL235558  32.320  32.154   8.864
 2653POPC   C1A35559  32.221  32.259   8.564
 2653POPC   D2A35560  32.261  32.219   8.264
 2653POPC   C3A35561  32.228  32.216   7.964
 2653POPC   C4A35562  32.253  32.279   7.664
 2653POPC   C1B35563  32.414  32.138   8.564
 2653POPC   C2B35564  32.417  32.103   8.264
 2653POPC   C3B35565  32.403  32.085   7.964
 2653POPC   C4B35566  32.405  32.092   7.664
 2654POPC   NC335567  18.267   2.731   9.464
 2654POPC   PO435568  18.276   2.793   9.164
 2654POPC   GL135569  18.309   2.754   8.864
 2654POPC   GL235570  18.316   2.883   8.864
 2654POPC   C1A35571  18.238   2.774   8.564
 2654POPC   D2A35572  18.316   2.716   8.264
 2654POPC   C3A35573  18.301   2.811   7.964
 2654POPC   C4A35574  18.284   2.765   7.664
 2654POPC   C1B35575  18.349   3.042   8.564
 2654POPC   C2B35576  18.371   2.997   8.264
 2654POPC   C3B35577  18.425   2.955   7.964
 2654POPC   C4B35578  18.426   2.953   7.664
 2655POPC   NC335579   7.460  18.279   9.464
 2655POPC   PO435580   7.467  18.254   9.164
 2655POPC   GL135581   7.462  18.286   8.864
 2655POPC   GL235582   7.529  18.361   8.864
 2655POPC   C1A35583   7.457  18.289   8.564
 2655POPC   D2A35584   7.423  18.278   8.264
 2655POPC   C3A35585   7.464  18.234   7.964
 2655POPC   C4A35586   7.445  18.297   7.664
 2655POPC   C1B35587   7.697  18.402   8.564
 2655POPC   C2B35588   7.617  18.392   8.264
 2655POPC   C3B35589   7.657  18.315   7.964
 2655POPC   C4B35590   7.701  18.379   7.664
 2656POPC   NC335591  27.563   1.980   9.464
 2656POPC   PO435592  27.616   1.948   9.164
 2656POPC   GL135593  27.608   2.004   8.864
 2656POPC   GL235594  27.684   1.902   8.864
 2656POPC   C1A35595  27.549   1.953   8.564
 2656POPC   D2A35596  27.618   1.973   8.264
 2656POPC   C3A35597  27.623   2.010   7.964
 2656POPC   C4A35598  27.599   1.975   7.664
 2656POPC   C1B35599  27.734   1.788   8.564
 2656POPC   C2B35600  27.737   1.812   8.264
 2656POPC   C3B35601  27.753   1.757   7.964
 2656POPC   C4B35602  27.784   1.796   7.664
 2657POPC   NC335603  27.623  30.712   9.464
 2657POPC   PO435604  27.595  30.659   9.164
 2657POPC   GL135605  27.575  30.745   8.864
 2657POPC   GL235606  27.643  30.813   8.864
 2657POPC   C1A35607  27.580  30.735   8.564
 2657POPC   D2A35608  27.621  30.674   8.264
 2657POPC   C3A35609  27.574  30.713   7.964
 2657POPC   C4A35610  27.619  30.697   7.664
 2657POPC   C1B35611  27.692  30.920   8.564
 2657POPC   C2B35612  27.686  30.864   8.264
 2657POPC   C3B35613  27.727  30.855   7.964
 2657POPC   C4B35614  27.731  30.950   7.664
 2658POPC   NC335615  18.310  12.902   9.464
 2658POPC   PO435616  18.252  12.847   9.164
 2658POPC   GL135617  18.261  12.877   8.864
 2658POPC   GL235618  18.363  12.929   8.864
 2658POPC   C1A35619  18.331  12.852   8.564
 2658POPC   D2A35620  18.272  12.849   8.264
 2658POPC   C3A35621  18.267  12.850   7.964
 2658POPC   C4A35622  18.305  12.854   7.664
 2658POPC   C1B35623  18.335  13.062   8.564
 2658POPC   C2B35624  18.360  13.056   8.264
 2658POPC   C3B35625  18.333  13.049   7.964
 2658POPC   C4B35626  18.324  13.080   7.664
 2659POPC   NC335627  13.632  13.633   9.464
 2659POPC   PO435628  13.639  13.586   9.164
 2659POPC   GL135629  13.640  13.641   8.864
 2659POPC   GL235630  13.571  13.568   8.864
 2659POPC   C1A35631  13.619  13.658   8.564
 2659POPC   D2A35632  13.609  13.628   8.264
 2659POPC   C3A35633  13.611  13.674   7.964
 2659POPC   C4A35634  13.633  13.589   7.664
 2659POPC   C1B35635  13.488  13.455   8.564
 2659POPC   C2B35636  13.506  13.466   8.264
 2659POPC   C3B35637  13.527  13.444   7.964
 2659POPC   C4B35638  13.489  13.443   7.664
 2660POPC   NC335639  38.477  22.189   9.464
 2660POPC   PO435640  38.439  22.195   9.164
 2660POPC   GL135641  38.498  22.209   8.864
 2660POPC   GL235642  38.396  22.181   8.864
 2660POPC   C1A35643  38.407  22.197   8.564
 2660POPC   D2A35644  38.470  22.122   8.264
 2660POPC   C3A35645  38.442  22.161   7.964
 2660POPC   C4A35646  38.475  22.123   7.664
 2660POPC   C1B35647  38.238  22.268   8.564
 2660POPC   C2B35648  38.222  22.258   8.264
 2660POPC   C3B35649  38.245  22.247   7.964
 2660POPC   C4B35650  38.275  22.266   7.664
 2661POPC   NC335651  22.161  33.035   9.464
 2661POPC   PO435652  22.133  32.996   9.164
 2661POPC   GL135653  22.201  32.991   8.864
 2661POPC   GL235654  22.144  33.100   8.864
 2661POPC   C1A35655  22.158  33.025   8.564
 2661POPC   D2A35656  22.112  33.018   8.264
 2661POPC   C3A35657  22.179  32.990   7.964
 2661POPC   C4A35658  22.187  33.055   7.664
 2661POPC   C1B35659  22.001  33.276   8.564
 2661POPC   C2B35660  22.036  33.285   8.264
 2661POPC   C3B35661  22.069  33.222   7.964
 2661POPC   C4B35662  22.061  33.286   7.664
 2662POPC   NC335663  33.816  13.641   9.464
 2662POPC   PO435664  33.811  13.600   9.164
 2662POPC   GL135665  33.805  13.580   8.864
 2662POPC   GL235666  33.958  13.670   8.864
 2662POPC   C1A35667  33.796  13.613   8.564
 2662POPC   D2A35668  33.813  13.589   8.264
 2662POPC   C3A35669  33.836  13.598   7.964
 2662POPC   C4A35670  33.818  13.655   7.664
 2662POPC   C1B35671  34.024  13.644   8.564
 2662POPC   C2B35672  34.059  13.711   8.264
 2662POPC   C3B35673  34.074  13.643   7.964
 2662POPC   C4B35674  34.000  13.697   7.664
 2663POPC   NC335675  42.305  30.674   9.464
 2663POPC   PO435676  42.374  30.673   9.164
 2663POPC   GL135677  42.377  30.746   8.864
 2663POPC   GL235678  42.271  30.842   8.864
 2663POPC   C1A35679  42.351  30.698   8.564
 2663POPC   D2A35680  42.366  30.745   8.264
 2663POPC   C3A35681  42.294  30.667   7.964
 2663POPC   C4A35682  42.360  30.691   7.664
 2663POPC   C1B35683  42.308  30.906   8.564
 2663POPC   C2B35684  42.329  30.896   8.264
 2663POPC   C3B35685  42.265  30.906   7.964
 2663POPC   C4B35686  42.333  30.910   7.664
 2664POPC   NC335687  29.122   1.241   9.464
 2664POPC   PO435688  29.163   1.181   9.164
 2664POPC   GL135689  29.101   1.263   8.864
 2664POPC   GL235690  28.992   1.229   8.864
 2664POPC   C1A35691  29.176   1.219   8.564
 2664POPC   D2A35692  29.108   1.170   8.264
 2664POPC   C3A35693  29.187   1.175   7.964
 2664POPC   C4A35694  29.141   1.250   7.664
 2664POPC   C1B35695  28.916   1.219   8.564
 2664POPC   C2B35696  28.892   1.182   8.264
 2664POPC   C3B35697  28.914   1.184   7.964
 2664POPC   C4B35698  28.858   1.241   7.664
 2665POPC   NC335699  29.113  10.484   9.464
 2665POPC   PO435700  29.099  10.519   9.164
 2665POPC   GL135701  29.152  10.553   8.864
 2665POPC   GL235702  29.082  10.399   8.864
 2665POPC   C1A35703  29.142  10.487   8.564
 2665POPC   D2A35704  29.174  10.572   8.264
 2665POPC   C3A35705  29.168  10.496   7.964
 2665POPC   C4A35706  29.168  10.510   7.664
 2665POPC   C1B35707  28.979  10.310   8.564
 2665POPC   C2B35708  28.978  10.364   8.264
 2665POPC   C3B35709  28.932  10.319   7.964
 2665POPC   C4B35710  29.015  10.388   7.664
 2666POPC   NC335711  22.950   8.167   9.464
 2666POPC   PO435712  22.898   8.147   9.164
 2666POPC   GL135713  22.891   8.226   8.864
 2666POPC   GL235714  22.910   8.270   8.864
 2666POPC   C1A35715  22.951   8.228   8.564
 2666POPC   D2A35716  22.942   8.246   8.264
 2666POPC   C3A35717  22.983   8.181   7.964
 2666POPC   C4A35718  22.972   8.153   7.664
 2666POPC   C1B35719  22.739   8.426   8.564
 2666POPC   C2B35720  22.747   8.435   8.264
 2666POPC   C3B35721  22.821   8.418   7.964
 2666POPC   C4B35722  22.792   8.358   7.664
 2667POPC   NC335723  22.184   2.758   9.464
 2667POPC   PO435724  22.113   2.717   9.164
 2667POPC   GL135725  22.169   2.756   8.864
 2667POPC   GL235726  22.026   2.789   8.864
 2667POPC   C1A35727  22.200   2.742   8.564
 2667POPC   D2A35728  22.173   2.727   8.264
 2667POPC   C3A35729  22.158   2.786   7.964
 2667POPC   C4A35730  22.182   2.726   7.664
 2667POPC   C1B35731  21.902   2.833   8.564
 2667POPC   C2B35732  21.916   2.820   8.264
 2667POPC   C3B35733  21.883   2.803   7.964
 2667POPC   C4B35734  21.948   2.801   7.664
 2668POPC   NC335735   6.616  10.475   9.464
 2668POPC   PO435736   6.668  10.533   9.164
 2668POPC   GL135737   6.618  10.566   8.864
 2668POPC   GL235738   6.767  10.582   8.864
 2668POPC   C1A35739   6.605  10.487   8.564
 2668POPC   D2A35740   6.692  10.541   8.264
 2668POPC   C3A35741   6.621  10.475   7.964
 2668POPC   C4A35742   6.609  10.489   7.664
 2668POPC   C1B35743   6.817  10.708   8.564
 2668POPC   C2B35744   6.867  10.752   8.264
 2668POPC   C3B35745   6.818  10.679   7.964
 2668POPC   C4B35746   6.823  10.659   7.664
 2669POPC   NC335747  12.109  41.568   9.464
 2669POPC   PO435748  12.031  41.576   9.164
 2669POPC   GL135749  12.062  41.551   8.864
 2669POPC   GL235750  12.079  41.628   8.864
 2669POPC   C1A35751  12.111  41.555   8.564
 2669POPC   D2A35752  12.035  41.513   8.264
 2669POPC   C3A35753  12.055  41.567   7.964
 2669POPC   C4A35754  12.098  41.537   7.664
 2669POPC   C1B35755  12.151  41.757   8.564
 2669POPC   C2B35756  12.167  41.759   8.264
 2669POPC   C3B35757  12.160  41.765   7.964
 2669POPC   C4B35758  12.126  41.797   7.664
 2670POPC   NC335759  19.846  33.807   9.464
 2670POPC   PO435760  19.854  33.763   9.164
 2670POPC   GL135761  19.825  33.797   8.864
 2670POPC   GL235762  19.830  33.697   8.864
 2670POPC   C1A35763  19.838  33.843   8.564
 2670POPC   D2A35764  19.860  33.797   8.264
 2670POPC   C3A35765  19.843  33.774   7.964
 2670POPC   C4A35766  19.816  33.787   7.664
 2670POPC   C1B35767  19.817  33.522   8.564
 2670POPC   C2B35768  19.856  33.557   8.264
 2670POPC   C3B35769  19.825  33.506   7.964
 2670POPC   C4B35770  19.825  33.523   7.664
 2671POPC   NC335771  20.592  11.251   9.464
 2671POPC   PO435772  20.631  11.311   9.164
 2671POPC   GL135773  20.586  11.279   8.864
 2671POPC   GL235774  20.770  11.303   8.864
 2671POPC   C1A35775  20.580  11.311   8.564
 2671POPC   D2A35776  20.616  11.302   8.264
 2671POPC   C3A35777  20.632  11.341   7.964
 2671POPC   C4A35778  20.586  11.269   7.664
 2671POPC   C1B35779  20.819  11.294   8.564
 2671POPC   C2B35780  20.846  11.261   8.264
 2671POPC   C3B35781  20.888  11.289   7.964
 2671POPC   C4B35782  20.848  11.274   7.664
 2672POPC   NC335783  30.735  30.719   9.464
 2672POPC   PO435784  30.724  30.657   9.164
 2672POPC   GL135785  30.710  30.713   8.864
 2672POPC   GL235786  30.628  30.652   8.864
 2672POPC   C1A35787  30.677  30.682   8.564
 2672POPC   D2A35788  30.665  30.745   8.264
 2672POPC   C3A35789  30.720  30.672   7.964
 2672POPC   C4A35790  30.679  30.698   7.664
 2672POPC   C1B35791  30.517  30.521   8.564
 2672POPC   C2B35792  30.527  30.551   8.264
 2672POPC   C3B35793  30.532  30.502   7.964
 2672POPC   C4B35794  30.542  30.554   7.664
 2673POPC   NC335795  22.198   0.393   9.464
 2673POPC   PO435796  22.156   0.397   9.164
 2673POPC   GL135797  22.123   0.410   8.864
 2673POPC   GL235798  22.019   0.399   8.864
 2673POPC   C1A35799  22.142   0.472   8.564
 2673POPC   D2A35800  22.205   0.396   8.264
 2673POPC   C3A35801  22.209   0.397   7.964
 2673POPC   C4A35802  22.193   0.438   7.664
 2673POPC   C1B35803  21.914   0.467   8.564
 2673POPC   C2B35804  21.863   0.482   8.264
 2673POPC   C3B35805  21.912   0.413   7.964
 2673POPC   C4B35806  21.881   0.470   7.664
 2674POPC   NC335807  34.591   1.957   9.464
 2674POPC   PO435808  34.567   1.959   9.164
 2674POPC   GL135809  34.567   2.018   8.864
 2674POPC   GL235810  34.449   2.040   8.864
 2674POPC   C1A35811  34.574   1.985   8.564
 2674POPC   D2A35812  34.601   1.949   8.264
 2674POPC   C3A35813  34.600   1.969   7.964
 2674POPC   C4A35814  34.555   2.032   7.664
 2674POPC   C1B35815  34.309   2.126   8.564
 2674POPC   C2B35816  34.310   2.089   8.264
 2674POPC   C3B35817  34.344   2.120   7.964
 2674POPC   C4B35818  34.338   2.105   7.664
 2675POPC   NC335819  19.868  32.251   9.464
 2675POPC   PO435820  19.883  32.215   9.164
 2675POPC   GL135821  19.812  32.290   8.864
 2675POPC   GL235822  19.887  32.315   8.864
 2675POPC   C1A35823  19.866  32.223   8.564
 2675POPC   D2A35824  19.822  32.239   8.264
 2675POPC   C3A35825  19.832  32.224   7.964
 2675POPC   C4A35826  19.850  32.247   7.664
 2675POPC   C1B35827  19.975  32.485   8.564
 2675POPC   C2B35828  19.935  32.439   8.264
 2675POPC   C3B35829  19.959  32.440   7.964
 2675POPC   C4B35830  19.989  32.502   7.664
 2676POPC   NC335831  14.431  35.344   9.464
 2676POPC   PO435832  14.386  35.351   9.164
 2676POPC   GL135833  14.389  35.371   8.864
 2676POPC   GL235834  14.379  35.234   8.864
 2676POPC   C1A35835  14.360  35.368   8.564
 2676POPC   D2A35836  14.411  35.313   8.264
 2676POPC   C3A35837  14.404  35.344   7.964
 2676POPC   C4A35838  14.375  35.327   7.664
 2676POPC   C1B35839  14.423  35.071   8.564
 2676POPC   C2B35840  14.483  35.107   8.264
 2676POPC   C3B35841  14.451  35.119   7.964
 2676POPC   C4B35842  14.478  35.079   7.664
 2677POPC   NC335843  42.339  22.174   9.464
 2677POPC   PO435844  42.358  22.166   9.164
 2677POPC   GL135845  42.322  22.178   8.864
 2677POPC   GL235846  42.459  22.161   8.864
 2677POPC   C1A35847  42.382  22.162   8.564
 2677POPC   D2A35848  42.311  22.133   8.264
 2677POPC   C3A35849  42.379  22.202   7.964
 2677POPC   C4A35850  42.348  22.193   7.664
 2677POPC   C1B35851  42.533  22.229   8.564
 2677POPC   C2B35852  42.562  22.208   8.264
 2677POPC   C3B35853  42.539  22.265   7.964
 2677POPC   C4B35854  42.577  22.206   7.664
 2678POPC   NC335855  26.013  10.562   9.464
 2678POPC   PO435856  26.029  10.572   9.164
 2678POPC   GL135857  26.054  10.517   8.864
 2678POPC   GL235858  25.980  10.434   8.864
 2678POPC   C1A35859  26.028  10.479   8.564
 2678POPC   D2A35860  26.040  10.522   8.264
 2678POPC   C3A35861  26.006  10.507   7.964
 2678POPC   C4A35862  26.003  10.566   7.664
 2678POPC   C1B35863  25.994  10.233   8.564
 2678POPC   C2B35864  26.006  10.272   8.264
 2678POPC   C3B35865  26.041  10.265   7.964
 2678POPC   C4B35866  26.033  10.249   7.664
 2679POPC   NC335867   5.844  43.110   9.464
 2679POPC   PO435868   5.882  43.115   9.164
 2679POPC   GL135869   5.831  43.155   8.864
 2679POPC   GL235870   5.885  43.037   8.864
 2679POPC   C1A35871   5.850  43.069   8.564
 2679POPC   D2A35872   5.898  43.120   8.264
 2679POPC   C3A35873   5.858  43.137   7.964
 2679POPC   C4A35874   5.888  43.117   7.664
 2679POPC   C1B35875   5.969  42.861   8.564
 2679POPC   C2B35876   6.007  42.884   8.264
 2679POPC   C3B35877   5.912  42.835   7.964
 2679POPC   C4B35878   5.962  42.922   7.664
 2680POPC   NC335879   9.774  19.074   9.464
 2680POPC   PO435880   9.703  19.065   9.164
 2680POPC   GL135881   9.784  19.028   8.864
 2680POPC   GL235882   9.589  19.107   8.864
 2680POPC   C1A35883   9.700  19.052   8.564
 2680POPC   D2A35884   9.789  19.100   8.264
 2680POPC   C3A35885   9.789  19.103   7.964
 2680POPC   C4A35886   9.712  19.086   7.664
 2680POPC   C1B35887   9.535  19.200   8.564
 2680POPC   C2B35888   9.519  19.165   8.264
 2680POPC   C3B35889   9.503  19.129   7.964
 2680POPC   C4B35890   9.503  19.131   7.664
 2681POPC   NC335891  16.733  13.625   9.464
 2681POPC   PO435892  16.757  13.643   9.164
 2681POPC   GL135893  16.734  13.599   8.864
 2681POPC   GL235894  16.689  13.782   8.864
 2681POPC   C1A35895  16.719  13.602   8.564
 2681POPC   D2A35896  16.713  13.652   8.264
 2681POPC   C3A35897  16.701  13.652   7.964
 2681POPC   C4A35898  16.771  13.605   7.664
 2681POPC   C1B35899  16.637  13.877   8.564
 2681POPC   C2B35900  16.712  13.858   8.264
 2681POPC   C3B35901  16.656  13.909   7.964
 2681POPC   C4B35902  16.641  13.898   7.664
 2682POPC   NC335903   9.714  44.693   9.464
 2682POPC   PO435904   9.723  44.630   9.164
 2682POPC   GL135905   9.756  44.680   8.864
 2682POPC   GL235906   9.894  44.674   8.864
 2682POPC   C1A35907   9.752  44.709   8.564
 2682POPC   D2A35908   9.788  44.625   8.264
 2682POPC   C3A35909   9.725  44.659   7.964
 2682POPC   C4A35910   9.769  44.650   7.664
 2682POPC   C1B35911   9.962  44.708   8.564
 2682POPC   C2B35912  10.042  44.680   8.264
 2682POPC   C3B35913   9.998  44.659   7.964
 2682POPC   C4B35914   9.965  44.703   7.664
 2683POPC   NC335915  26.091  36.129   9.464
 2683POPC   PO435916  26.036  36.089   9.164
 2683POPC   GL135917  26.028  36.155   8.864
 2683POPC   GL235918  26.035  35.985   8.864
 2683POPC   C1A35919  26.055  36.092   8.564
 2683POPC   D2A35920  26.073  36.176   8.264
 2683POPC   C3A35921  26.077  36.104   7.964
 2683POPC   C4A35922  26.036  36.135   7.664
 2683POPC   C1B35923  26.013  35.857   8.564
 2683POPC   C2B35924  25.997  35.864   8.264
 2683POPC   C3B35925  26.023  35.919   7.964
 2683POPC   C4B35926  25.968  35.912   7.664
 2684POPC   NC335927  37.703  41.567   9.464
 2684POPC   PO435928  37.676  41.579   9.164
 2684POPC   GL135929  37.667  41.523   8.864
 2684POPC   GL235930  37.680  41.648   8.864
 2684POPC   C1A35931  37.637  41.557   8.564
 2684POPC   D2A35932  37.726  41.581   8.264
 2684POPC   C3A35933  37.715  41.578   7.964
 2684POPC   C4A35934  37.702  41.557   7.664
 2684POPC   C1B35935  37.609  41.780   8.564
 2684POPC   C2B35936  37.603  41.829   8.264
 2684POPC   C3B35937  37.611  41.841   7.964
 2684POPC   C4B35938  37.640  41.795   7.664
 2685POPC   NC335939  14.407  31.434   9.464
 2685POPC   PO435940  14.425  31.485   9.164
 2685POPC   GL135941  14.373  31.450   8.864
 2685POPC   GL235942  14.539  31.422   8.864
 2685POPC   C1A35943  14.453  31.489   8.564
 2685POPC   D2A35944  14.360  31.441   8.264
 2685POPC   C3A35945  14.367  31.463   7.964
 2685POPC   C4A35946  14.443  31.431   7.664
 2685POPC   C1B35947  14.627  31.443   8.564
 2685POPC   C2B35948  14.601  31.387   8.264
 2685POPC   C3B35949  14.640  31.368   7.964
 2685POPC   C4B35950  14.663  31.369   7.664
 2686POPC   NC335951   5.901  39.959   9.464
 2686POPC   PO435952   5.887  40.045   9.164
 2686POPC   GL135953   5.824  40.030   8.864
 2686POPC   GL235954   5.778  40.072   8.864
 2686POPC   C1A35955   5.823  40.017   8.564
 2686POPC   D2A35956   5.894  40.040   8.264
 2686POPC   C3A35957   5.879  40.049   7.964
 2686POPC   C4A35958   5.882  39.967   7.664
 2686POPC   C1B35959   5.618  40.177   8.564
 2686POPC   C2B35960   5.627  40.093   8.264
 2686POPC   C3B35961   5.652  40.137   7.964
 2686POPC   C4B35962   5.662  40.183   7.664
 2687POPC   NC335963   3.556  32.275   9.464
 2687POPC   PO435964   3.509  32.242   9.164
 2687POPC   GL135965   3.498  32.226   8.864
 2687POPC   GL235966   3.552  32.357   8.864
 2687POPC   C1A35967   3.508  32.284   8.564
 2687POPC   D2A35968   3.559  32.242   8.264
 2687POPC   C3A35969   3.500  32.276   7.964
 2687POPC   C4A35970   3.539  32.224   7.664
 2687POPC   C1B35971   3.612  32.509   8.564
 2687POPC   C2B35972   3.611  32.460   8.264
 2687POPC   C3B35973   3.598  32.461   7.964
 2687POPC   C4B35974   3.602  32.473   7.664
 2688POPC   NC335975  37.643   5.096   9.464
 2688POPC   PO435976  37.699   5.058   9.164
 2688POPC   GL135977  37.728   5.106   8.864
 2688POPC   GL235978  37.651   5.018   8.864
 2688POPC   C1A35979  37.649   5.118   8.564
 2688POPC   D2A35980  37.646   5.099   8.264
 2688POPC   C3A35981  37.723   5.101   7.964
 2688POPC   C4A35982  37.688   5.090   7.664
 2688POPC   C1B35983  37.486   4.878   8.564
 2688POPC   C2B35984  37.556   4.866   8.264
 2688POPC   C3B35985  37.552   4.934   7.964
 2688POPC   C4B35986  37.580   4.863   7.664
 2689POPC   NC335987  22.133  40.030   9.464
 2689POPC   PO435988  22.112  39.961   9.164
 2689POPC   GL135989  22.169  39.979   8.864
 2689POPC   GL235990  22.277  40.084   8.864
 2689POPC   C1A35991  22.198  40.030   8.564
 2689POPC   D2A35992  22.184  40.031   8.264
 2689POPC   C3A35993  22.206  40.043   7.964
 2689POPC   C4A35994  22.203  40.031   7.664
 2689POPC   C1B35995  22.315  40.163   8.564
 2689POPC   C2B35996  22.392  40.133   8.264
 2689POPC   C3B35997  22.405  40.135   7.964
 2689POPC   C4B35998  22.384  40.189   7.664
 2690POPC   NC335999  43.932  27.604   9.464
 2690POPC   PO436000  43.858  27.629   9.164
 2690POPC   GL136001  43.878  27.588   8.864
 2690POPC   GL236002  44.060  27.607   8.864
 2690POPC   C1A36003  43.898  27.632   8.564
 2690POPC   D2A36004  43.921  27.546   8.264
 2690POPC   C3A36005  43.889  27.592   7.964
 2690POPC   C4A36006  43.889  27.610   7.664
 2690POPC   C1B36007  44.163  27.587   8.564
 2690POPC   C2B36008  44.148  27.587   8.264
 2690POPC   C3B36009  44.148  27.604   7.964
 2690POPC   C4B36010  44.121  27.601   7.664
 2691POPC   NC336011   9.779  43.872   9.464
 2691POPC   PO436012   9.759  43.872   9.164
 2691POPC   GL136013   9.753  43.883   8.864
 2691POPC   GL236014   9.610  43.780   8.864
 2691POPC   C1A36015   9.725  43.925   8.564
 2691POPC   D2A36016   9.777  43.932   8.264
 2691POPC   C3A36017   9.745  43.922   7.964
 2691POPC   C4A36018   9.722  43.855   7.664
 2691POPC   C1B36019   9.499  43.784   8.564
 2691POPC   C2B36020   9.522  43.751   8.264
 2691POPC   C3B36021   9.586  43.764   7.964
 2691POPC   C4B36022   9.513  43.758   7.664
 2692POPC   NC336023  18.273   9.765   9.464
 2692POPC   PO436024  18.281   9.724   9.164
 2692POPC   GL136025  18.289   9.746   8.864
 2692POPC   GL236026  18.124   9.728   8.864
 2692POPC   C1A36027  18.284   9.739   8.564
 2692POPC   D2A36028  18.257   9.756   8.264
 2692POPC   C3A36029  18.263   9.769   7.964
 2692POPC   C4A36030  18.319   9.767   7.664
 2692POPC   C1B36031  18.054   9.759   8.564
 2692POPC   C2B36032  18.016   9.761   8.264
 2692POPC   C3B36033  18.011   9.745   7.964
 2692POPC   C4B36034  18.060   9.757   7.664
 2693POPC   NC336035  31.478  39.962   9.464
 2693POPC   PO436036  31.459  39.992   9.164
 2693POPC   GL136037  31.483  39.976   8.864
 2693POPC   GL236038  31.552  40.082   8.864
 2693POPC   C1A36039  31.455  39.964   8.564
 2693POPC   D2A36040  31.491  40.037   8.264
 2693POPC   C3A36041  31.456  40.020   7.964
 2693POPC   C4A36042  31.506  39.968   7.664
 2693POPC   C1B36043  31.525  40.281   8.564
 2693POPC   C2B36044  31.579  40.246   8.264
 2693POPC   C3B36045  31.543  40.221   7.964
 2693POPC   C4B36046  31.586  40.189   7.664
 2694POPC   NC336047   9.787   2.802   9.464
 2694POPC   PO436048   9.745   2.813   9.164
 2694POPC   GL136049   9.762   2.716   8.864
 2694POPC   GL236050   9.652   2.668   8.864
 2694POPC   C1A36051   9.776   2.787   8.564
 2694POPC   D2A36052   9.714   2.759   8.264
 2694POPC   C3A36053   9.777   2.802   7.964
 2694POPC   C4A36054   9.700   2.782   7.664
 2694POPC   C1B36055   9.497   2.668   8.564
 2694POPC   C2B36056   9.497   2.676   8.264
 2694POPC   C3B36057   9.528   2.648   7.964
 2694POPC   C4B36058   9.537   2.701   7.664
 2695POPC   NC336059   9.000   7.415   9.464
 2695POPC   PO436060   8.961   7.437   9.164
 2695POPC   GL136061   8.955   7.443   8.864
 2695POPC   GL236062   9.127   7.345   8.864
 2695POPC   C1A36063   8.945   7.425   8.564
 2695POPC   D2A36064   8.932   7.371   8.264
 2695POPC   C3A36065   8.979   7.398   7.964
 2695POPC   C4A36066   8.962   7.389   7.664
 2695POPC   C1B36067   9.204   7.319   8.564
 2695POPC   C2B36068   9.206   7.352   8.264
 2695POPC   C3B36069   9.179   7.342   7.964
 2695POPC   C4B36070   9.204   7.322   7.664
 2696POPC   NC336071  22.112  12.028   9.464
 2696POPC   PO436072  22.178  12.084   9.164
 2696POPC   GL136073  22.191  12.120   8.864
 2696POPC   GL236074  22.297  12.116   8.864
 2696POPC   C1A36075  22.136  12.054   8.564
 2696POPC   D2A36076  22.205  12.087   8.264
 2696POPC   C3A36077  22.137  12.038   7.964
 2696POPC   C4A36078  22.200  12.076   7.664
 2696POPC   C1B36079  22.412  12.162   8.564
 2696POPC   C2B36080  22.358  12.208   8.264
 2696POPC   C3B36081  22.350  12.186   7.964
 2696POPC   C4B36082  22.367  12.186   7.664
 2697POPC   NC336083  34.558   1.222   9.464
 2697POPC   PO436084  34.599   1.191   9.164
 2697POPC   GL136085  34.536   1.168   8.864
 2697POPC   GL236086  34.527   1.102   8.864
 2697POPC   C1A36087  34.561   1.176   8.564
 2697POPC   D2A36088  34.563   1.177   8.264
 2697POPC   C3A36089  34.565   1.245   7.964
 2697POPC   C4A36090  34.577   1.179   7.664
 2697POPC   C1B36091  34.592   1.014   8.564
 2697POPC   C2B36092  34.506   0.953   8.264
 2697POPC   C3B36093  34.576   0.920   7.964
 2697POPC   C4B36094  34.536   0.939   7.664
 2698POPC   NC336095   6.659  38.411   9.464
 2698POPC   PO436096   6.654  38.430   9.164
 2698POPC   GL136097   6.686  38.505   8.864
 2698POPC   GL236098   6.622  38.563   8.864
 2698POPC   C1A36099   6.664  38.454   8.564
 2698POPC   D2A36100   6.682  38.417   8.264
 2698POPC   C3A36101   6.670  38.432   7.964
 2698POPC   C4A36102   6.664  38.423   7.664
 2698POPC   C1B36103   6.617  38.704   8.564
 2698POPC   C2B36104   6.557  38.671   8.264
 2698POPC   C3B36105   6.581  38.678   7.964
 2698POPC   C4B36106   6.610  38.668   7.664
 2699POPC   NC336107   8.160   5.068   9.464
 2699POPC   PO436108   8.180   5.061   9.164
 2699POPC   GL136109   8.221   5.079   8.864
 2699POPC   GL236110   8.193   5.217   8.864
 2699POPC   C1A36111   8.150   5.097   8.564
 2699POPC   D2A36112   8.168   5.128   8.264
 2699POPC   C3A36113   8.234   5.111   7.964
 2699POPC   C4A36114   8.197   5.077   7.664
 2699POPC   C1B36115   8.105   5.306   8.564
 2699POPC   C2B36116   8.151   5.363   8.264
 2699POPC   C3B36117   8.112   5.355   7.964
 2699POPC   C4B36118   8.094   5.367   7.664
 2700POPC   NC336119  40.784  30.746   9.464
 2700POPC   PO436120  40.770  30.666   9.164
 2700POPC   GL136121  40.781  30.701   8.864
 2700POPC   GL236122  40.891  30.785   8.864
 2700POPC   C1A36123  40.761  30.652   8.564
 2700POPC   D2A36124  40.781  30.675   8.264
 2700POPC   C3A36125  40.799  30.647   7.964
 2700POPC   C4A36126  40.824  30.715   7.664
 2700POPC   C1B36127  41.008  30.824   8.564
 2700POPC   C2B36128  40.933  30.847   8.264
 2700POPC   C3B36129  40.937  30.834   7.964
 2700POPC   C4B36130  41.000  30.839   7.664
 2701POPC   NC336131  26.027   5.114   9.464
 2701POPC   PO436132  26.002   5.122   9.164
 2701POPC   GL136133  26.015   5.092   8.864
 2701POPC   GL236134  26.012   4.960   8.864
 2701POPC   C1A36135  26.055   5.121   8.564
 2701POPC   D2A36136  25.997   5.077   8.264
 2701POPC   C3A36137  26.042   5.099   7.964
 2701POPC   C4A36138  26.005   5.054   7.664
 2701POPC   C1B36139  25.951   4.854   8.564
 2701POPC   C2B36140  25.955   4.822   8.264
 2701POPC   C3B36141  25.965   4.806   7.964
 2701POPC   C4B36142  26.002   4.849   7.664
 2702POPC   NC336143  12.055  22.118   9.464
 2702POPC   PO436144  12.102  22.155   9.164
 2702POPC   GL136145  12.052  22.125   8.864
 2702POPC   GL236146  12.244  22.166   8.864
 2702POPC   C1A36147  12.118  22.151   8.564
 2702POPC   D2A36148  12.073  22.160   8.264
 2702POPC   C3A36149  12.068  22.188   7.964
 2702POPC   C4A36150  12.075  22.118   7.664
 2702POPC   C1B36151  12.282  22.100   8.564
 2702POPC   C2B36152  12.302  22.134   8.264
 2702POPC   C3B36153  12.280  22.102   7.964
 2702POPC   C4B36154  12.357  22.108   7.664
 2703POPC   NC336155  23.736  25.994   9.464
 2703POPC   PO436156  23.734  26.025   9.164
 2703POPC   GL136157  23.761  26.029   8.864
 2703POPC   GL236158  23.583  25.959   8.864
 2703POPC   C1A36159  23.700  26.036   8.564
 2703POPC   D2A36160  23.747  26.001   8.264
 2703POPC   C3A36161  23.728  26.015   7.964
 2703POPC   C4A36162  23.682  26.004   7.664
 2703POPC   C1B36163  23.495  25.813   8.564
 2703POPC   C2B36164  23.583  25.813   8.264
 2703POPC   C3B36165  23.543  25.884   7.964
 2703POPC   C4B36166  23.563  25.878   7.664
 2704POPC   NC336167  29.887  20.597   9.464
 2704POPC   PO436168  29.928  20.650   9.164
 2704POPC   GL136169  29.968  20.644   8.864
 2704POPC   GL236170  29.883  20.768   8.864
 2704POPC   C1A36171  29.954  20.646   8.564
 2704POPC   D2A36172  29.946  20.645   8.264
 2704POPC   C3A36173  29.893  20.578   7.964
 2704POPC   C4A36174  29.911  20.605   7.664
 2704POPC   C1B36175  29.973  20.812   8.564
 2704POPC   C2B36176  29.923  20.891   8.264
 2704POPC   C3B36177  29.892  20.866   7.964
 2704POPC   C4B36178  29.975  20.852   7.664
 2705POPC   NC336179  28.415   7.445   9.464
 2705POPC   PO436180  28.392   7.429   9.164
 2705POPC   GL136181  28.339   7.388   8.864
 2705POPC   GL236182  28.434   7.335   8.864
 2705POPC   C1A36183  28.370   7.455   8.564
 2705POPC   D2A36184  28.389   7.379   8.264
 2705POPC   C3A36185  28.409   7.421   7.964
 2705POPC   C4A36186  28.383   7.451   7.664
 2705POPC   C1B36187  28.578   7.315   8.564
 2705POPC   C2B36188  28.557   7.263   8.264
 2705POPC   C3B36189  28.551   7.288   7.964
 2705POPC   C4B36190  28.586   7.279   7.664
 2706POPC   NC336191  17.527   2.761   9.464
 2706POPC   PO436192  17.501   2.750   9.164
 2706POPC   GL136193  17.529   2.759   8.864
 2706POPC   GL236194  17.381   2.720   8.864
 2706POPC   C1A36195  17.527   2.798   8.564
 2706POPC   D2A36196  17.517   2.732   8.264
 2706POPC   C3A36197  17.556   2.770   7.964
 2706POPC   C4A36198  17.519   2.738   7.664
 2706POPC   C1B36199  17.307   2.757   8.564
 2706POPC   C2B36200  17.262   2.811   8.264
 2706POPC   C3B36201  17.267   2.768   7.964
 2706POPC   C4B36202  17.258   2.770   7.664
 2707POPC   NC336203  12.119  14.370   9.464
 2707POPC   PO436204  12.124  14.436   9.164
 2707POPC   GL136205  12.077  14.360   8.864
 2707POPC   GL236206  12.145  14.450   8.864
 2707POPC   C1A36207  12.062  14.355   8.564
 2707POPC   D2A36208  12.060  14.439   8.264
 2707POPC   C3A36209  12.032  14.397   7.964
 2707POPC   C4A36210  12.054  14.430   7.664
 2707POPC   C1B36211  12.268  14.484   8.564
 2707POPC   C2B36212  12.284  14.540   8.264
 2707POPC   C3B36213  12.269  14.506   7.964
 2707POPC   C4B36214  12.263  14.531   7.664
 2708POPC   NC336215   9.704  32.280   9.464
 2708POPC   PO436216   9.782  32.279   9.164
 2708POPC   GL136217   9.777  32.211   8.864
 2708POPC   GL236218   9.617  32.232   8.864
 2708POPC   C1A36219   9.774  32.264   8.564
 2708POPC   D2A36220   9.737  32.258   8.264
 2708POPC   C3A36221   9.738  32.269   7.964
 2708POPC   C4A36222   9.718  32.199   7.664
 2708POPC   C1B36223   9.465  32.227   8.564
 2708POPC   C2B36224   9.497  32.253   8.264
 2708POPC   C3B36225   9.520  32.247   7.964
 2708POPC   C4B36226   9.502  32.306   7.664
 2709POPC   NC336227  40.761  22.919   9.464
 2709POPC   PO436228  40.742  22.914   9.164
 2709POPC   GL136229  40.755  22.892   8.864
 2709POPC   GL236230  40.866  22.965   8.864
 2709POPC   C1A36231  40.743  22.936   8.564
 2709POPC   D2A36232  40.781  22.945   8.264
 2709POPC   C3A36233  40.806  22.985   7.964
 2709POPC   C4A36234  40.823  22.889   7.664
 2709POPC   C1B36235  41.053  22.849   8.564
 2709POPC   C2B36236  41.059  22.916   8.264
 2709POPC   C3B36237  41.027  22.924   7.964
 2709POPC   C4B36238  41.027  22.875   7.664
 2710POPC   NC336239  15.940  11.288   9.464
 2710POPC   PO436240  15.989  11.261   9.164
 2710POPC   GL136241  15.980  11.293   8.864
 2710POPC   GL236242  16.002  11.458   8.864
 2710POPC   C1A36243  15.924  11.281   8.564
 2710POPC   D2A36244  15.939  11.325   8.264
 2710POPC   C3A36245  15.992  11.314   7.964
 2710POPC   C4A36246  15.950  11.255   7.664
 2710POPC   C1B36247  15.926  11.519   8.564
 2710POPC   C2B36248  15.952  11.513   8.264
 2710POPC   C3B36249  15.956  11.559   7.964
 2710POPC   C4B36250  15.939  11.545   7.664
 2711POPC   NC336251  33.758  29.934   9.464
 2711POPC   PO436252  33.835  29.922   9.164
 2711POPC   GL136253  33.773  29.959   8.864
 2711POPC   GL236254  33.906  30.050   8.864
 2711POPC   C1A36255  33.815  29.872   8.564
 2711POPC   D2A36256  33.764  29.948   8.264
 2711POPC   C3A36257  33.850  29.965   7.964
 2711POPC   C4A36258  33.784  29.923   7.664
 2711POPC   C1B36259  33.987  30.111   8.564
 2711POPC   C2B36260  33.918  30.139   8.264
 2711POPC   C3B36261  33.955  30.081   7.964
 2711POPC   C4B36262  33.994  30.141   7.664
 2712POPC   NC336263   8.930  36.144   9.464
 2712POPC   PO436264   8.956  36.081   9.164
 2712POPC   GL136265   8.987  36.082   8.864
 2712POPC   GL236266   8.837  36.173   8.864
 2712POPC   C1A36267   8.983  36.082   8.564
 2712POPC   D2A36268   9.002  36.128   8.264
 2712POPC   C3A36269   9.020  36.142   7.964
 2712POPC   C4A36270   8.980  36.164   7.664
 2712POPC   C1B36271   8.723  36.224   8.564
 2712POPC   C2B36272   8.698  36.126   8.264
 2712POPC   C3B36273   8.722  36.223   7.964
 2712POPC   C4B36274   8.698  36.209   7.664
 2713POPC   NC336275  22.908   8.961   9.464
 2713POPC   PO436276  22.905   8.988   9.164
 2713POPC   GL136277  22.888   8.953   8.864
 2713POPC   GL236278  22.907   9.078   8.864
 2713POPC   C1A36279  22.909   8.972   8.564
 2713POPC   D2A36280  22.921   8.930   8.264
 2713POPC   C3A36281  22.962   9.001   7.964
 2713POPC   C4A36282  22.911   8.992   7.664
 2713POPC   C1B36283  22.924   9.238   8.564
 2713POPC   C2B36284  22.932   9.246   8.264
 2713POPC   C3B36285  22.923   9.232   7.964
 2713POPC   C4B36286  22.900   9.177   7.664
 2714POPC   NC336287  29.907  40.011   9.464
 2714POPC   PO436288  29.968  40.055   9.164
 2714POPC   GL136289  29.939  39.961   8.864
 2714POPC   GL236290  29.769  40.011   8.864
 2714POPC   C1A36291  29.875  40.053   8.564
 2714POPC   D2A36292  29.965  40.007   8.264
 2714POPC   C3A36293  29.947  40.012   7.964
 2714POPC   C4A36294  29.941  40.036   7.664
 2714POPC   C1B36295  29.679  40.086   8.564
 2714POPC   C2B36296  29.656  40.119   8.264
 2714POPC   C3B36297  29.712  40.035   7.964
 2714POPC   C4B36298  29.718  40.063   7.664
 2715POPC   NC336299  40.803  27.631   9.464
 2715POPC   PO436300  40.788  27.634   9.164
 2715POPC   GL136301  40.816  27.591   8.864
 2715POPC   GL236302  40.728  27.651   8.864
 2715POPC   C1A36303  40.783  27.549   8.564
 2715POPC   D2A36304  40.823  27.628   8.264
 2715POPC   C3A36305  40.763  27.564   7.964
 2715POPC   C4A36306  40.828  27.615   7.664
 2715POPC   C1B36307  40.564  27.696   8.564
 2715POPC   C2B36308  40.579  27.781   8.264
 2715POPC   C3B36309  40.530  27.732   7.964
 2715POPC   C4B36310  40.533  27.731   7.664
 2716POPC   NC336311  33.834  19.811   9.464
 2716POPC   PO436312  33.786  19.823   9.164
 2716POPC   GL136313  33.841  19.856   8.864
 2716POPC   GL236314  33.860  19.741   8.864
 2716POPC   C1A36315  33.819  19.789   8.564
 2716POPC   D2A36316  33.795  19.855   8.264
 2716POPC   C3A36317  33.779  19.858   7.964
 2716POPC   C4A36318  33.761  19.870   7.664
 2716POPC   C1B36319  33.887  19.587   8.564
 2716POPC   C2B36320  33.907  19.654   8.264
 2716POPC   C3B36321  33.892  19.596   7.964
 2716POPC   C4B36322  33.972  19.654   7.664
 2717POPC   NC336323   2.031  15.214   9.464
 2717POPC   PO436324   2.007  15.163   9.164
 2717POPC   GL136325   2.032  15.164   8.864
 2717POPC   GL236326   2.144  15.125   8.864
 2717POPC   C1A36327   2.014  15.143   8.564
 2717POPC   D2A36328   1.966  15.140   8.264
 2717POPC   C3A36329   1.964  15.137   7.964
 2717POPC   C4A36330   1.967  15.136   7.664
 2717POPC   C1B36331   2.247  15.100   8.564
 2717POPC   C2B36332   2.243  15.182   8.264
 2717POPC   C3B36333   2.200  15.120   7.964
 2717POPC   C4B36334   2.226  15.147   7.664
 2718POPC   NC336335  24.533  41.604   9.464
 2718POPC   PO436336  24.515  41.579   9.164
 2718POPC   GL136337  24.457  41.530   8.864
 2718POPC   GL236338  24.444  41.392   8.864
 2718POPC   C1A36339  24.494  41.539   8.564
 2718POPC   D2A36340  24.462  41.515   8.264
 2718POPC   C3A36341  24.467  41.568   7.964
 2718POPC   C4A36342  24.478  41.572   7.664
 2718POPC   C1B36343  24.509  41.323   8.564
 2718POPC   C2B36344  24.430  41.275   8.264
 2718POPC   C3B36345  24.459  41.357   7.964
 2718POPC   C4B36346  24.435  41.332   7.664
 2719POPC   NC336347   2.724  35.308   9.464
 2719POPC   PO436348   2.722  35.358   9.164
 2719POPC   GL136349   2.763  35.392   8.864
 2719POPC   GL236350   2.897  35.329   8.864
 2719POPC   C1A36351   2.800  35.339   8.564
 2719POPC   D2A36352   2.786  35.347   8.264
 2719POPC   C3A36353   2.789  35.396   7.964
 2719POPC   C4A36354   2.768  35.373   7.664
 2719POPC   C1B36355   3.041  35.362   8.564
 2719POPC   C2B36356   2.988  35.313   8.264
 2719POPC   C3B36357   3.048  35.310   7.964
 2719POPC   C4B36358   2.971  35.288   7.664
 2720POPC   NC336359   7.452  13.597   9.464
 2720POPC   PO436360   7.471  13.629   9.164
 2720POPC   GL136361   7.446  13.632   8.864
 2720POPC   GL236362   7.409  13.473   8.864
 2720POPC   C1A36363   7.425  13.594   8.564
 2720POPC   D2A36364   7.399  13.638   8.264
 2720POPC   C3A36365   7.387  13.608   7.964
 2720POPC   C4A36366   7.397  13.634   7.664
 2720POPC   C1B36367   7.348  13.382   8.564
 2720POPC   C2B36368   7.349  13.386   8.264
 2720POPC   C3B36369   7.408  13.414   7.964
 2720POPC   C4B36370   7.396  13.417   7.664
 2721POPC   NC336371  29.107  26.007   9.464
 2721POPC   PO436372  29.109  26.073   9.164
 2721POPC   GL136373  29.180  26.002   8.864
 2721POPC   GL236374  29.239  26.063   8.864
 2721POPC   C1A36375  29.100  26.056   8.564
 2721POPC   D2A36376  29.106  25.996   8.264
 2721POPC   C3A36377  29.097  26.012   7.964
 2721POPC   C4A36378  29.108  25.993   7.664
 2721POPC   C1B36379  29.392  26.167   8.564
 2721POPC   C2B36380  29.408  26.177   8.264
 2721POPC   C3B36381  29.373  26.107   7.964
 2721POPC   C4B36382  29.405  26.117   7.664
 2722POPC   NC336383  30.699   2.729   9.464
 2722POPC   PO436384  30.667   2.776   9.164
 2722POPC   GL136385  30.668   2.727   8.864
 2722POPC   GL236386  30.605   2.670   8.864
 2722POPC   C1A36387  30.687   2.768   8.564
 2722POPC   D2A36388  30.716   2.786   8.264
 2722POPC   C3A36389  30.651   2.758   7.964
 2722POPC   C4A36390  30.713   2.806   7.664
 2722POPC   C1B36391  30.501   2.559   8.564
 2722POPC   C2B36392  30.581   2.609   8.264
 2722POPC   C3B36393  30.580   2.590   7.964
 2722POPC   C4B36394  30.572   2.559   7.664
 2723POPC   NC336395  29.887   8.993   9.464
 2723POPC   PO436396  29.951   8.980   9.164
 2723POPC   GL136397  29.906   8.987   8.864
 2723POPC   GL236398  30.028   8.968   8.864
 2723POPC   C1A36399  29.948   9.005   8.564
 2723POPC   D2A36400  29.935   8.949   8.264
 2723POPC   C3A36401  29.956   8.962   7.964
 2723POPC   C4A36402  29.871   8.984   7.664
 2723POPC   C1B36403  30.210   9.030   8.564
 2723POPC   C2B36404  30.172   9.054   8.264
 2723POPC   C3B36405  30.139   9.073   7.964
 2723POPC   C4B36406  30.168   8.999   7.664
 2724POPC   NC336407  11.341  15.221   9.464
 2724POPC   PO436408  11.290  15.187   9.164
 2724POPC   GL136409  11.297  15.185   8.864
 2724POPC   GL236410  11.327  15.053   8.864
 2724POPC   C1A36411  11.327  15.178   8.564
 2724POPC   D2A36412  11.332  15.218   8.264
 2724POPC   C3A36413  11.349  15.191   7.964
 2724POPC   C4A36414  11.289  15.156   7.664
 2724POPC   C1B36415  11.408  14.911   8.564
 2724POPC   C2B36416  11.434  14.929   8.264
 2724POPC   C3B36417  11.379  14.965   7.964
 2724POPC   C4B36418  11.405  14.999   7.664
 2725POPC   NC336419  27.638   6.623   9.464
 2725POPC   PO436420  27.585   6.619   9.164
 2725POPC   GL136421  27.584   6.616   8.864
 2725POPC   GL236422  27.723   6.593   8.864
 2725POPC   C1A36423  27.586   6.665   8.564
 2725POPC   D2A36424  27.559   6.622   8.264
 2725POPC   C3A36425  27.593   6.670   7.964
 2725POPC   C4A36426  27.626   6.630   7.664
 2725POPC   C1B36427  27.808   6.591   8.564
 2725POPC   C2B36428  27.807   6.564   8.264
 2725POPC   C3B36429  27.779   6.509   7.964
 2725POPC   C4B36430  27.810   6.562   7.664
 2726POPC   NC336431  12.841  27.600   9.464
 2726POPC   PO436432  12.811  27.618   9.164
 2726POPC   GL136433  12.803  27.632   8.864
 2726POPC   GL236434  12.904  27.745   8.864
 2726POPC   C1A36435  12.880  27.568   8.564
 2726POPC   D2A36436  12.883  27.560   8.264
 2726POPC   C3A36437  12.826  27.630   7.964
 2726POPC   C4A36438  12.849  27.582   7.664
 2726POPC   C1B36439  12.977  27.858   8.564
 2726POPC   C2B36440  12.966  27.803   8.264
 2726POPC   C3B36441  12.956  27.771   7.964
 2726POPC   C4B36442  12.972  27.849   7.664
 2727POPC   NC336443  43.132  12.035   9.464
 2727POPC   PO436444  43.145  12.124   9.164
 2727POPC   GL136445  43.141  12.103   8.864
 2727POPC   GL236446  43.058  11.933   8.864
 2727POPC   C1A36447  43.160  12.068   8.564
 2727POPC   D2A36448  43.100  12.037   8.264
 2727POPC   C3A36449  43.111  12.103   7.964
 2727POPC   C4A36450  43.097  12.114   7.664
 2727POPC   C1B36451  43.050  11.879   8.564
 2727POPC   C2B36452  43.046  11.804   8.264
 2727POPC   C3B36453  43.029  11.847   7.964
 2727POPC   C4B36454  43.019  11.850   7.664
 2728POPC   NC336455  12.897   3.496   9.464
 2728POPC   PO436456  12.870   3.558   9.164
 2728POPC   GL136457  12.863   3.583   8.864
 2728POPC   GL236458  12.971   3.469   8.864
 2728POPC   C1A36459  12.877   3.504   8.564
 2728POPC   D2A36460  12.897   3.525   8.264
 2728POPC   C3A36461  12.856   3.562   7.964
 2728POPC   C4A36462  12.866   3.571   7.664
 2728POPC   C1B36463  13.061   3.391   8.564
 2728POPC   C2B36464  13.105   3.461   8.264
 2728POPC   C3B36465  13.091   3.407   7.964
 2728POPC   C4B36466  13.097   3.421   7.664
 2729POPC   NC336467  34.554   5.083   9.464
 2729POPC   PO436468  34.610   5.068   9.164
 2729POPC   GL136469  34.528   5.100   8.864
 2729POPC   GL236470  34.502   5.017   8.864
 2729POPC   C1A36471  34.576   5.117   8.564
 2729POPC   D2A36472  34.533   5.091   8.264
 2729POPC   C3A36473  34.614   5.096   7.964
 2729POPC   C4A36474  34.575   5.102   7.664
 2729POPC   C1B36475  34.492   4.855   8.564
 2729POPC   C2B36476  34.483   4.871   8.264
 2729POPC   C3B36477  34.491   4.885   7.964
 2729POPC   C4B36478  34.429   4.923   7.664
 2730POPC   NC336479  19.789  34.543   9.464
 2730POPC   PO436480  19.807  34.584   9.164
 2730POPC   GL136481  19.802  34.558   8.864
 2730POPC   GL236482  19.849  34.431   8.864
 2730POPC   C1A36483  19.857  34.570   8.564
 2730POPC   D2A36484  19.849  34.595   8.264
 2730POPC   C3A36485  19.853  34.611   7.964
 2730POPC   C4A36486  19.814  34.590   7.664
 2730POPC   C1B36487  19.833  34.329   8.564
 2730POPC   C2B36488  19.829  34.338   8.264
 2730POPC   C3B36489  19.853  34.312   7.964
 2730POPC   C4B36490  19.907  34.343   7.664
 2731POPC   NC336491  29.111  39.234   9.464
 2731POPC   PO436492  29.143  39.235   9.164
 2731POPC   GL136493  29.187  39.279   8.864
 2731POPC   GL236494  29.093  39.366   8.864
 2731POPC   C1A36495  29.123  39.268   8.564
 2731POPC   D2A36496  29.161  39.205   8.264
 2731POPC   C3A36497  29.096  39.231   7.964
 2731POPC   C4A36498  29.111  39.219   7.664
 2731POPC   C1B36499  28.921  39.447   8.564
 2731POPC   C2B36500  28.939  39.385   8.264
 2731POPC   C3B36501  28.945  39.422   7.964
 2731POPC   C4B36502  28.992  39.426   7.664
 2732POPC   NC336503  22.172  37.715   9.464
 2732POPC   PO436504  22.148  37.703   9.164
 2732POPC   GL136505  22.130  37.637   8.864
 2732POPC   GL236506  22.113  37.752   8.864
 2732POPC   C1A36507  22.161  37.669   8.564
 2732POPC   D2A36508  22.181  37.727   8.264
 2732POPC   C3A36509  22.175  37.714   7.964
 2732POPC   C4A36510  22.131  37.658   7.664
 2732POPC   C1B36511  22.013  37.895   8.564
 2732POPC   C2B36512  22.074  37.899   8.264
 2732POPC   C3B36513  22.092  37.877   7.964
 2732POPC   C4B36514  22.084  37.901   7.664
 2733POPC   NC336515   5.054  19.868   9.464
 2733POPC   PO436516   5.127  19.817   9.164
 2733POPC   GL136517   5.063  19.879   8.864
 2733POPC   GL236518   5.186  19.898   8.864
 2733POPC   C1A36519   5.074  19.850   8.564
 2733POPC   D2A36520   5.112  19.797   8.264
 2733POPC   C3A36521   5.140  19.866   7.964
 2733POPC   C4A36522   5.118  19.828   7.664
 2733POPC   C1B36523   5.385  19.893   8.564
 2733POPC   C2B36524   5.346  19.829   8.264
 2733POPC   C3B36525   5.361  19.821   7.964
 2733POPC   C4B36526   5.385  19.915   7.664
 2734POPC   NC336527   9.764   1.949   9.464
 2734POPC   PO436528   9.790   1.958   9.164
 2734POPC   GL136529   9.795   1.995   8.864
 2734POPC   GL236530   9.765   1.852   8.864
 2734POPC   C1A36531   9.797   1.969   8.564
 2734POPC   D2A36532   9.703   2.008   8.264
 2734POPC   C3A36533   9.714   1.996   7.964
 2734POPC   C4A36534   9.706   2.035   7.664
 2734POPC   C1B36535   9.801   1.713   8.564
 2734POPC   C2B36536   9.879   1.791   8.264
 2734POPC   C3B36537   9.808   1.786   7.964
 2734POPC   C4B36538   9.882   1.737   7.664
 2735POPC   NC336539  26.848   2.016   9.464
 2735POPC   PO436540  26.772   2.006   9.164
 2735POPC   GL136541  26.806   2.010   8.864
 2735POPC   GL236542  26.936   1.945   8.864
 2735POPC   C1A36543  26.854   1.970   8.564
 2735POPC   D2A36544  26.847   1.965   8.264
 2735POPC   C3A36545  26.823   2.001   7.964
 2735POPC   C4A36546  26.826   2.037   7.664
 2735POPC   C1B36547  27.066   1.914   8.564
 2735POPC   C2B36548  27.037   1.909   8.264
 2735POPC   C3B36549  27.048   1.911   7.964
 2735POPC   C4B36550  27.051   1.923   7.664
 2736POPC   NC336551  32.259  29.171   9.464
 2736POPC   PO436552  32.259  29.165   9.164
 2736POPC   GL136553  32.221  29.099   8.864
 2736POPC   GL236554  32.083  29.089   8.864
 2736POPC   C1A36555  32.255  29.191   8.564
 2736POPC   D2A36556  32.217  29.112   8.264
 2736POPC   C3A36557  32.252  29.178   7.964
 2736POPC   C4A36558  32.244  29.104   7.664
 2736POPC   C1B36559  31.963  29.068   8.564
 2736POPC   C2B36560  31.978  29.145   8.264
 2736POPC   C3B36561  32.011  29.153   7.964
 2736POPC   C4B36562  32.020  29.067   7.664
 2737POPC   NC336563   4.326  17.538   9.464
 2737POPC   PO436564   4.343  17.495   9.164
 2737POPC   GL136565   4.278  17.466   8.864
 2737POPC   GL236566   4.380  17.593   8.864
 2737POPC   C1A36567   4.274  17.500   8.564
 2737POPC   D2A36568   4.326  17.554   8.264
 2737POPC   C3A36569   4.333  17.504   7.964
 2737POPC   C4A36570   4.278  17.472   7.664
 2737POPC   C1B36571   4.429  17.709   8.564
 2737POPC   C2B36572   4.474  17.750   8.264
 2737POPC   C3B36573   4.390  17.745   7.964
 2737POPC   C4B36574   4.431  17.711   7.664
 2738POPC   NC336575  40.027  13.632   9.464
 2738POPC   PO436576  39.982  13.598   9.164
 2738POPC   GL136577  40.013  13.645   8.864
 2738POPC   GL236578  40.148  13.557   8.864
 2738POPC   C1A36579  40.028  13.603   8.564
 2738POPC   D2A36580  40.039  13.601   8.264
 2738POPC   C3A36581  39.962  13.616   7.964
 2738POPC   C4A36582  40.031  13.663   7.664
 2738POPC   C1B36583  40.188  13.510   8.564
 2738POPC   C2B36584  40.266  13.554   8.264
 2738POPC   C3B36585  40.228  13.547   7.964
 2738POPC   C4B36586  40.252  13.538   7.664
 2739POPC   NC336587  43.112  22.208   9.464
 2739POPC   PO436588  43.109  22.169   9.164
 2739POPC   GL136589  43.131  22.145   8.864
 2739POPC   GL236590  43.208  22.238   8.864
 2739POPC   C1A36591  43.148  22.158   8.564
 2739POPC   D2A36592  43.156  22.180   8.264
 2739POPC   C3A36593  43.155  22.207   7.964
 2739POPC   C4A36594  43.091  22.177   7.664
 2739POPC   C1B36595  43.208  22.386   8.564
 2739POPC   C2B36596  43.198  22.359   8.264
 2739POPC   C3B36597  43.252  22.340   7.964
 2739POPC   C4B36598  43.257  22.385   7.664
 2740POPC   NC336599   2.746   6.622   9.464
 2740POPC   PO436600   2.815   6.662   9.164
 2740POPC   GL136601   2.781   6.664   8.864
 2740POPC   GL236602   2.784   6.813   8.864
 2740POPC   C1A36603   2.726   6.635   8.564
 2740POPC   D2A36604   2.790   6.632   8.264
 2740POPC   C3A36605   2.813   6.609   7.964
 2740POPC   C4A36606   2.803   6.652   7.664
 2740POPC   C1B36607   2.859   6.854   8.564
 2740POPC   C2B36608   2.894   6.860   8.264
 2740POPC   C3B36609   2.796   6.869   7.964
 2740POPC   C4B36610   2.802   6.878   7.664
 2741POPC   NC336611   3.525  44.645   9.464
 2741POPC   PO436612   3.589  44.656   9.164
 2741POPC   GL136613   3.534  44.649   8.864
 2741POPC   GL236614   3.559  44.792   8.864
 2741POPC   C1A36615   3.564  44.688   8.564
 2741POPC   D2A36616   3.510  44.680   8.264
 2741POPC   C3A36617   3.523  44.656   7.964
 2741POPC   C4A36618   3.559  44.662   7.664
 2741POPC   C1B36619   3.496  44.942   8.564
 2741POPC   C2B36620   3.468  44.905   8.264
 2741POPC   C3B36621   3.455  44.864   7.964
 2741POPC   C4B36622   3.461  44.953   7.664
 2742POPC   NC336623  25.281   5.112   9.464
 2742POPC   PO436624  25.314   5.061   9.164
 2742POPC   GL136625  25.243   5.072   8.864
 2742POPC   GL236626  25.238   5.001   8.864
 2742POPC   C1A36627  25.267   5.050   8.564
 2742POPC   D2A36628  25.296   5.123   8.264
 2742POPC   C3A36629  25.270   5.049   7.964
 2742POPC   C4A36630  25.241   5.132   7.664
 2742POPC   C1B36631  25.161   4.856   8.564
 2742POPC   C2B36632  25.156   4.817   8.264
 2742POPC   C3B36633  25.159   4.845   7.964
 2742POPC   C4B36634  25.213   4.899   7.664
 2743POPC   NC336635  40.827  19.848   9.464
 2743POPC   PO436636  40.800  19.838   9.164
 2743POPC   GL136637  40.805  19.880   8.864
 2743POPC   GL236638  40.882  19.960   8.864
 2743POPC   C1A36639  40.790  19.852   8.564
 2743POPC   D2A36640  40.738  19.796   8.264
 2743POPC   C3A36641  40.756  19.881   7.964
 2743POPC   C4A36642  40.783  19.799   7.664
 2743POPC   C1B36643  40.873  20.021   8.564
 2743POPC   C2B36644  40.924  20.052   8.264
 2743POPC   C3B36645  40.883  20.024   7.964
 2743POPC   C4B36646  40.874  20.028   7.664
 2744POPC   NC336647  31.519   8.230   9.464
 2744POPC   PO436648  31.472   8.200   9.164
 2744POPC   GL136649  31.432   8.212   8.864
 2744POPC   GL236650  31.387   8.297   8.864
 2744POPC   C1A36651  31.503   8.175   8.564
 2744POPC   D2A36652  31.519   8.231   8.264
 2744POPC   C3A36653  31.502   8.233   7.964
 2744POPC   C4A36654  31.442   8.226   7.664
 2744POPC   C1B36655  31.292   8.398   8.564
 2744POPC   C2B36656  31.331   8.374   8.264
 2744POPC   C3B36657  31.294   8.330   7.964
 2744POPC   C4B36658  31.270   8.337   7.664
 2745POPC   NC336659  43.115  28.393   9.464
 2745POPC   PO436660  43.097  28.344   9.164
 2745POPC   GL136661  43.061  28.369   8.864
 2745POPC   GL236662  43.044  28.437   8.864
 2745POPC   C1A36663  43.084  28.333   8.564
 2745POPC   D2A36664  43.127  28.324   8.264
 2745POPC   C3A36665  43.100  28.332   7.964
 2745POPC   C4A36666  43.131  28.359   7.664
 2745POPC   C1B36667  42.862  28.448   8.564
 2745POPC   C2B36668  42.836  28.476   8.264
 2745POPC   C3B36669  42.844  28.483   7.964
 2745POPC   C4B36670  42.867  28.527   7.664
 2746POPC   NC336671  13.614   2.802   9.464
 2746POPC   PO436672  13.603   2.766   9.164
 2746POPC   GL136673  13.611   2.790   8.864
 2746POPC   GL236674  13.710   2.749   8.864
 2746POPC   C1A36675  13.660   2.726   8.564
 2746POPC   D2A36676  13.634   2.765   8.264
 2746POPC   C3A36677  13.672   2.778   7.964
 2746POPC   C4A36678  13.615   2.812   7.664
 2746POPC   C1B36679  13.840   2.809   8.564
 2746POPC   C2B36680  13.875   2.777   8.264
 2746POPC   C3B36681  13.894   2.809   7.964
 2746POPC   C4B36682  13.845   2.807   7.664
 2747POPC   NC336683   2.790   1.967   9.464
 2747POPC   PO436684   2.749   2.020   9.164
 2747POPC   GL136685   2.725   1.999   8.864
 2747POPC   GL236686   2.686   2.031   8.864
 2747POPC   C1A36687   2.777   1.965   8.564
 2747POPC   D2A36688   2.717   2.038   8.264
 2747POPC   C3A36689   2.721   1.990   7.964
 2747POPC   C4A36690   2.725   1.955   7.664
 2747POPC   C1B36691   2.482   2.061   8.564
 2747POPC   C2B36692   2.493   2.037   8.264
 2747POPC   C3B36693   2.526   2.060   7.964
 2747POPC   C4B36694   2.572   2.052   7.664
 2748POPC   NC336695  22.940  14.400   9.464
 2748POPC   PO436696  22.976  14.358   9.164
 2748POPC   GL136697  22.950  14.423   8.864
 2748POPC   GL236698  22.878  14.250   8.864
 2748POPC   C1A36699  22.919  14.434   8.564
 2748POPC   D2A36700  22.918  14.411   8.264
 2748POPC   C3A36701  22.946  14.398   7.964
 2748POPC   C4A36702  22.909  14.438   7.664
 2748POPC   C1B36703  22.868  14.169   8.564
 2748POPC   C2B36704  22.881  14.189   8.264
 2748POPC   C3B36705  22.840  14.138   7.964
 2748POPC   C4B36706  22.876  14.197   7.664
 2749POPC   NC336707   1.974  32.281   9.464
 2749POPC   PO436708   1.972  32.252   9.164
 2749POPC   GL136709   1.961  32.226   8.864
 2749POPC   GL236710   2.044  32.321   8.864
 2749POPC   C1A36711   1.988  32.212   8.564
 2749POPC   D2A36712   1.985  32.285   8.264
 2749POPC   C3A36713   2.030  32.223   7.964
 2749POPC   C4A36714   1.958  32.259   7.664
 2749POPC   C1B36715   2.118  32.473   8.564
 2749POPC   C2B36716   2.124  32.484   8.264
 2749POPC   C3B36717   2.093  32.474   7.964
 2749POPC   C4B36718   2.176  32.492   7.664
 2750POPC   NC336719  28.413   2.019   9.464
 2750POPC   PO436720  28.342   1.991   9.164
 2750POPC   GL136721  28.395   2.037   8.864
 2750POPC   GL236722  28.210   2.061   8.864
 2750POPC   C1A36723  28.351   1.970   8.564
 2750POPC   D2A36724  28.333   2.011   8.264
 2750POPC   C3A36725  28.328   1.970   7.964
 2750POPC   C4A36726  28.341   2.012   7.664
 2750POPC   C1B36727  28.111   2.065   8.564
 2750POPC   C2B36728  28.168   2.092   8.264
 2750POPC   C3B36729  28.171   2.082   7.964
 2750POPC   C4B36730  28.157   2.064   7.664
 2751POPC   NC336731  26.072  15.193   9.464
 2751POPC   PO436732  25.997  15.207   9.164
 2751POPC   GL136733  26.004  15.216   8.864
 2751POPC   GL236734  25.988  15.075   8.864
 2751POPC   C1A36735  26.031  15.146   8.564
 2751POPC   D2A36736  26.020  15.184   8.264
 2751POPC   C3A36737  26.055  15.165   7.964
 2751POPC   C4A36738  26.078  15.157   7.664
 2751POPC   C1B36739  25.884  14.919   8.564
 2751POPC   C2B36740  25.881  14.961   8.264
 2751POPC   C3B36741  25.902  14.917   7.964
 2751POPC   C4B36742  25.887  14.934   7.664
 2752POPC   NC336743   9.007  27.585   9.464
 2752POPC   PO436744   9.022  27.579   9.164
 2752POPC   GL136745   9.014  27.609   8.864
 2752POPC   GL236746   9.132  27.599   8.864
 2752POPC   C1A36747   8.963  27.619   8.564
 2752POPC   D2A36748   8.930  27.578   8.264
 2752POPC   C3A36749   8.933  27.562   7.964
 2752POPC   C4A36750   8.944  27.634   7.664
 2752POPC   C1B36751   9.214  27.552   8.564
 2752POPC   C2B36752   9.208  27.596   8.264
 2752POPC   C3B36753   9.216  27.553   7.964
 2752POPC   C4B36754   9.270  27.593   7.664
 2753POPC   NC336755   7.456   2.028   9.464
 2753POPC   PO436756   7.461   2.001   9.164
 2753POPC   GL136757   7.399   2.019   8.864
 2753POPC   GL236758   7.364   2.089   8.864
 2753POPC   C1A36759   7.435   2.038   8.564
 2753POPC   D2A36760   7.390   1.962   8.264
 2753POPC   C3A36761   7.397   1.978   7.964
 2753POPC   C4A36762   7.413   1.968   7.664
 2753POPC   C1B36763   7.369   2.241   8.564
 2753POPC   C2B36764   7.313   2.216   8.264
 2753POPC   C3B36765   7.327   2.265   7.964
 2753POPC   C4B36766   7.334   2.223   7.664
 2754POPC   NC336767  41.598  30.647   9.464
 2754POPC   PO436768  41.572  30.649   9.164
 2754POPC   GL136769  41.535  30.736   8.864
 2754POPC   GL236770  41.674  30.756   8.864
 2754POPC   C1A36771  41.554  30.660   8.564
 2754POPC   D2A36772  41.560  30.699   8.264
 2754POPC   C3A36773  41.584  30.726   7.964
 2754POPC   C4A36774  41.555  30.661   7.664
 2754POPC   C1B36775  41.804  30.818   8.564
 2754POPC   C2B36776  41.752  30.818   8.264
 2754POPC   C3B36777  41.803  30.861   7.964
 2754POPC   C4B36778  41.731  30.833   7.664
 2755POPC   NC336779   9.726  21.414   9.464
 2755POPC   PO436780   9.764  21.375   9.164
 2755POPC   GL136781   9.772  21.428   8.864
 2755POPC   GL236782   9.678  21.273   8.864
 2755POPC   C1A36783   9.770  21.427   8.564
 2755POPC   D2A36784   9.786  21.336   8.264
 2755POPC   C3A36785   9.785  21.435   7.964
 2755POPC   C4A36786   9.707  21.395   7.664
 2755POPC   C1B36787   9.663  21.131   8.564
 2755POPC   C2B36788   9.644  21.189   8.264
 2755POPC   C3B36789   9.636  21.131   7.964
 2755POPC   C4B36790   9.659  21.143   7.664
 2756POPC   NC336791  38.466  38.413   9.464
 2756POPC   PO436792  38.439  38.472   9.164
 2756POPC   GL136793  38.427  38.472   8.864
 2756POPC   GL236794  38.377  38.404   8.864
 2756POPC   C1A36795  38.425  38.499   8.564
 2756POPC   D2A36796  38.451  38.455   8.264
 2756POPC   C3A36797  38.504  38.501   7.964
 2756POPC   C4A36798  38.443  38.451   7.664
 2756POPC   C1B36799  38.205  38.327   8.564
 2756POPC   C2B36800  38.195  38.284   8.264
 2756POPC   C3B36801  38.241  38.328   7.964
 2756POPC   C4B36802  38.255  38.291   7.664
 2757POPC   NC336803   8.943  24.517   9.464
 2757POPC   PO436804   8.960  24.522   9.164
 2757POPC   GL136805   8.977  24.519   8.864
 2757POPC   GL236806   9.101  24.530   8.864
 2757POPC   C1A36807   9.014  24.483   8.564
 2757POPC   D2A36808   9.018  24.461   8.264
 2757POPC   C3A36809   8.979  24.514   7.964
 2757POPC   C4A36810   8.923  24.505   7.664
 2757POPC   C1B36811   9.262  24.496   8.564
 2757POPC   C2B36812   9.256  24.524   8.264
 2757POPC   C3B36813   9.264  24.562   7.964
 2757POPC   C4B36814   9.255  24.514   7.664
 2758POPC   NC336815  43.884  33.824   9.464
 2758POPC   PO436816  43.891  33.810   9.164
 2758POPC   GL136817  43.841  33.751   8.864
 2758POPC   GL236818  43.947  33.682   8.864
 2758POPC   C1A36819  43.845  33.753   8.564
 2758POPC   D2A36820  43.859  33.798   8.264
 2758POPC   C3A36821  43.926  33.849   7.964
 2758POPC   C4A36822  43.898  33.831   7.664
 2758POPC   C1B36823  43.907  33.519   8.564
 2758POPC   C2B36824  43.887  33.524   8.264
 2758POPC   C3B36825  43.909  33.532   7.964
 2758POPC   C4B36826  43.898  33.518   7.664
 2759POPC   NC336827  19.019  41.560   9.464
 2759POPC   PO436828  19.080  41.594   9.164
 2759POPC   GL136829  19.009  41.595   8.864
 2759POPC   GL236830  19.027  41.429   8.864
 2759POPC   C1A36831  19.059  41.572   8.564
 2759POPC   D2A36832  19.078  41.550   8.264
 2759POPC   C3A36833  19.087  41.601   7.964
 2759POPC   C4A36834  19.018  41.590   7.664
 2759POPC   C1B36835  18.959  41.297   8.564
 2759POPC   C2B36836  19.012  41.308   8.264
 2759POPC   C3B36837  19.051  41.288   7.964
 2759POPC   C4B36838  18.963  41.319   7.664
 2760POPC   NC336839  43.853  38.453   9.464
 2760POPC   PO436840  43.895  38.411   9.164
 2760POPC   GL136841  43.927  38.466   8.864
 2760POPC   GL236842  43.851  38.566   8.864
 2760POPC   C1A36843  43.867  38.465   8.564
 2760POPC   D2A36844  43.906  38.424   8.264
 2760POPC   C3A36845  43.857  38.479   7.964
 2760POPC   C4A36846  43.915  38.492   7.664
 2760POPC   C1B36847  43.820  38.715   8.564
 2760POPC   C2B36848  43.867  38.719   8.264
 2760POPC   C3B36849  43.830  38.699   7.964
 2760POPC   C4B36850  43.837  38.689   7.664
 2761POPC   NC336851   1.170  30.652   9.464
 2761POPC   PO436852   1.172  30.706   9.164
 2761POPC   GL136853   1.261  30.679   8.864
 2761POPC   GL236854   1.103  30.807   8.864
 2761POPC   C1A36855   1.180  30.746   8.564
 2761POPC   D2A36856   1.254  30.738   8.264
 2761POPC   C3A36857   1.192  30.677   7.964
 2761POPC   C4A36858   1.173  30.709   7.664
 2761POPC   C1B36859   1.116  30.943   8.564
 2761POPC   C2B36860   1.117  30.867   8.264
 2761POPC   C3B36861   1.102  30.923   7.964
 2761POPC   C4B36862   1.051  30.861   7.664
 2762POPC   NC336863  35.325   4.303   9.464
 2762POPC   PO436864  35.384   4.273   9.164
 2762POPC   GL136865  35.386   4.361   8.864
 2762POPC   GL236866  35.246   4.378   8.864
 2762POPC   C1A36867  35.320   4.343   8.564
 2762POPC   D2A36868  35.361   4.314   8.264
 2762POPC   C3A36869  35.368   4.291   7.964
 2762POPC   C4A36870  35.304   4.285   7.664
 2762POPC   C1B36871  35.134   4.432   8.564
 2762POPC   C2B36872  35.135   4.473   8.264
 2762POPC   C3B36873  35.196   4.456   7.964
 2762POPC   C4B36874  35.138   4.451   7.664
 2763POPC   NC336875  23.668  29.892   9.464
 2763POPC   PO436876  23.712  29.916   9.164
 2763POPC   GL136877  23.716  29.946   8.864
 2763POPC   GL236878  23.723  29.813   8.864
 2763POPC   C1A36879  23.678  29.875   8.564
 2763POPC   D2A36880  23.693  29.884   8.264
 2763POPC   C3A36881  23.711  29.924   7.964
 2763POPC   C4A36882  23.664  29.920   7.664
 2763POPC   C1B36883  23.737  29.645   8.564
 2763POPC   C2B36884  23.718  29.629   8.264
 2763POPC   C3B36885  23.765  29.623   7.964
 2763POPC   C4B36886  23.704  29.670   7.664
 2764POPC   NC336887  12.096  26.063   9.464
 2764POPC   PO436888  12.113  26.049   9.164
 2764POPC   GL136889  12.051  26.073   8.864
 2764POPC   GL236890  12.185  25.995   8.864
 2764POPC   C1A36891  12.107  26.031   8.564
 2764POPC   D2A36892  12.083  26.086   8.264
 2764POPC   C3A36893  12.064  26.039   7.964
 2764POPC   C4A36894  12.095  25.991   7.664
 2764POPC   C1B36895  12.279  25.956   8.564
 2764POPC   C2B36896  12.263  25.932   8.264
 2764POPC   C3B36897  12.263  25.917   7.964
 2764POPC   C4B36898  12.251  25.940   7.664
 2765POPC   NC336899  11.336  22.135   9.464
 2765POPC   PO436900  11.331  22.210   9.164
 2765POPC   GL136901  11.276  22.175   8.864
 2765POPC   GL236902  11.296  22.328   8.864
 2765POPC   C1A36903  11.337  22.172   8.564
 2765POPC   D2A36904  11.293  22.206   8.264
 2765POPC   C3A36905  11.330  22.181   7.964
 2765POPC   C4A36906  11.286  22.128   7.664
 2765POPC   C1B36907  11.254  22.371   8.564
 2765POPC   C2B36908  11.224  22.442   8.264
 2765POPC   C3B36909  11.248  22.355   7.964
 2765POPC   C4B36910  11.233  22.377   7.664
 2766POPC   NC336911  44.664   6.675   9.464
 2766POPC   PO436912  44.659   6.691   9.164
 2766POPC   GL136913  44.677   6.646   8.864
 2766POPC   GL236914  44.804   6.520   8.864
 2766POPC   C1A36915  44.640   6.676   8.564
 2766POPC   D2A36916  44.622   6.603   8.264
 2766POPC   C3A36917  44.660   6.657   7.964
 2766POPC   C4A36918  44.702   6.680   7.664
 2766POPC   C1B36919  44.863   6.467   8.564
 2766POPC   C2B36920  44.902   6.453   8.264
 2766POPC   C3B36921  44.842   6.469   7.964
 2766POPC   C4B36922  44.870   6.526   7.664
 2767POPC   NC336923  29.120  33.000   9.464
 2767POPC   PO436924  29.153  33.014   9.164
 2767POPC   GL136925  29.177  32.991   8.864
 2767POPC   GL236926  29.060  32.983   8.864
 2767POPC   C1A36927  29.134  32.992   8.564
 2767POPC   D2A36928  29.186  32.989   8.264
 2767POPC   C3A36929  29.108  33.026   7.964
 2767POPC   C4A36930  29.174  33.046   7.664
 2767POPC   C1B36931  28.951  32.886   8.564
 2767POPC   C2B36932  28.971  32.923   8.264
 2767POPC   C3B36933  28.954  32.866   7.964
 2767POPC   C4B36934  28.881  32.868   7.664
 2768POPC   NC336935  18.276  22.957   9.464
 2768POPC   PO436936  18.290  22.890   9.164
 2768POPC   GL136937  18.236  22.967   8.864
 2768POPC   GL236938  18.229  23.009   8.864
 2768POPC   C1A36939  18.280  22.893   8.564
 2768POPC   D2A36940  18.289  22.983   8.264
 2768POPC   C3A36941  18.296  22.898   7.964
 2768POPC   C4A36942  18.268  22.964   7.664
 2768POPC   C1B36943  18.229  23.185   8.564
 2768POPC   C2B36944  18.220  23.151   8.264
 2768POPC   C3B36945  18.232  23.169   7.964
 2768POPC   C4B36946  18.196  23.169   7.664
 2769POPC   NC336947  36.140   7.438   9.464
 2769POPC   PO436948  36.080   7.422   9.164
 2769POPC   GL136949  36.108   7.418   8.864
 2769POPC   GL236950  36.244   7.400   8.864
 2769POPC   C1A36951  36.125   7.456   8.564
 2769POPC   D2A36952  36.114   7.439   8.264
 2769POPC   C3A36953  36.087   7.464   7.964
 2769POPC   C4A36954  36.087   7.460   7.664
 2769POPC   C1B36955  36.341   7.415   8.564
 2769POPC   C2B36956  36.398   7.431   8.264
 2769POPC   C3B36957  36.423   7.404   7.964
 2769POPC   C4B36958  36.333   7.365   7.664
 2770POPC   NC336959  25.302   9.002   9.464
 2770POPC   PO436960  25.256   9.000   9.164
 2770POPC   GL136961  25.217   8.933   8.864
 2770POPC   GL236962  25.274   8.811   8.864
 2770POPC   C1A36963  25.231   9.002   8.564
 2770POPC   D2A36964  25.267   8.937   8.264
 2770POPC   C3A36965  25.286   8.977   7.964
 2770POPC   C4A36966  25.266   8.940   7.664
 2770POPC   C1B36967  25.216   8.697   8.564
 2770POPC   C2B36968  25.241   8.736   8.264
 2770POPC   C3B36969  25.261   8.764   7.964
 2770POPC   C4B36970  25.190   8.764   7.664
 2771POPC   NC336971  14.358  27.587   9.464
 2771POPC   PO436972  14.357  27.643   9.164
 2771POPC   GL136973  14.399  27.604   8.864
 2771POPC   GL236974  14.265  27.578   8.864
 2771POPC   C1A36975  14.453  27.639   8.564
 2771POPC   D2A36976  14.398  27.553   8.264
 2771POPC   C3A36977  14.403  27.576   7.964
 2771POPC   C4A36978  14.435  27.627   7.664
 2771POPC   C1B36979  14.202  27.535   8.564
 2771POPC   C2B36980  14.182  27.578   8.264
 2771POPC   C3B36981  14.180  27.543   7.964
 2771POPC   C4B36982  14.193  27.611   7.664
 2772POPC   NC336983  42.324  42.321   9.464
 2772POPC   PO436984  42.340  42.342   9.164
 2772POPC   GL136985  42.289  42.342   8.864
 2772POPC   GL236986  42.446  42.394   8.864
 2772POPC   C1A36987  42.372  42.290   8.564
 2772POPC   D2A36988  42.326  42.344   8.264
 2772POPC   C3A36989  42.370  42.384   7.964
 2772POPC   C4A36990  42.369  42.359   7.664
 2772POPC   C1B36991  42.506  42.507   8.564
 2772POPC   C2B36992  42.500  42.506   8.264
 2772POPC   C3B36993  42.569  42.432   7.964
 2772POPC   C4B36994  42.504  42.443   7.664
 2773POPC   NC336995  10.545  23.763   9.464
 2773POPC   PO436996  10.550  23.673   9.164
 2773POPC   GL136997  10.480  23.673   8.864
 2773POPC   GL236998  10.439  23.667   8.864
 2773POPC   C1A36999  10.574  23.763   8.564
 2773POPC   D2A37000  10.574  23.747   8.264
 2773POPC   C3A37001  10.515  23.693   7.964
 2773POPC   C4A37002  10.516  23.714   7.664
 2773POPC   C1B37003  10.250  23.624   8.564
 2773POPC   C2B37004  10.289  23.636   8.264
 2773POPC   C3B37005  10.275  23.633   7.964
 2773POPC   C4B37006  10.318  23.646   7.664
 2774POPC   NC337007  32.993  20.593   9.464
 2774POPC   PO437008  32.992  20.628   9.164
 2774POPC   GL137009  33.019  20.639   8.864
 2774POPC   GL237010  33.157  20.531   8.864
 2774POPC   C1A37011  33.065  20.613   8.564
 2774POPC   D2A37012  33.049  20.660   8.264
 2774POPC   C3A37013  33.064  20.658   7.964
 2774POPC   C4A37014  33.026  20.590   7.664
 2774POPC   C1B37015  33.304  20.546   8.564
 2774POPC   C2B37016  33.213  20.537   8.264
 2774POPC   C3B37017  33.252  20.567   7.964
 2774POPC   C4B37018  33.249  20.490   7.664
 2775POPC   NC337019  26.856   2.782   9.464
 2775POPC   PO437020  26.860   2.723   9.164
 2775POPC   GL137021  26.819   2.765   8.864
 2775POPC   GL237022  26.896   2.901   8.864
 2775POPC   C1A37023  26.810   2.742   8.564
 2775POPC   D2A37024  26.787   2.731   8.264
 2775POPC   C3A37025  26.799   2.750   7.964
 2775POPC   C4A37026  26.804   2.782   7.664
 2775POPC   C1B37027  26.903   3.018   8.564
 2775POPC   C2B37028  26.883   2.959   8.264
 2775POPC   C3B37029  26.905   2.992   7.964
 2775POPC   C4B37030  26.900   2.979   7.664
 2776POPC   NC337031  27.552   3.522   9.464
 2776POPC   PO437032  27.592   3.501   9.164
 2776POPC   GL137033  27.628   3.562   8.864
 2776POPC   GL237034  27.710   3.669   8.864
 2776POPC   C1A37035  27.614   3.563   8.564
 2776POPC   D2A37036  27.632   3.523   8.264
 2776POPC   C3A37037  27.563   3.513   7.964
 2776POPC   C4A37038  27.556   3.491   7.664
 2776POPC   C1B37039  27.739   3.671   8.564
 2776POPC   C2B37040  27.774   3.699   8.264
 2776POPC   C3B37041  27.796   3.714   7.964
 2776POPC   C4B37042  27.799   3.723   7.664
 2777POPC   NC337043   6.634   5.828   9.464
 2777POPC   PO437044   6.639   5.872   9.164
 2777POPC   GL137045   6.676   5.886   8.864
 2777POPC   GL237046   6.680   5.966   8.864
 2777POPC   C1A37047   6.597   5.908   8.564
 2777POPC   D2A37048   6.655   5.889   8.264
 2777POPC   C3A37049   6.657   5.895   7.964
 2777POPC   C4A37050   6.670   5.902   7.664
 2777POPC   C1B37051   6.640   6.137   8.564
 2777POPC   C2B37052   6.609   6.091   8.264
 2777POPC   C3B37053   6.603   6.115   7.964
 2777POPC   C4B37054   6.652   6.087   7.664
 2778POPC   NC337055   4.282  10.498   9.464
 2778POPC   PO437056   4.320  10.504   9.164
 2778POPC   GL137057   4.310  10.542   8.864
 2778POPC   GL237058   4.176  10.548   8.864
 2778POPC   C1A37059   4.343  10.537   8.564
 2778POPC   D2A37060   4.340  10.485   8.264
 2778POPC   C3A37061   4.341  10.489   7.964
 2778POPC   C4A37062   4.307  10.559   7.664
 2778POPC   C1B37063   4.140  10.646   8.564
 2778POPC   C2B37064   4.123  10.620   8.264
 2778POPC   C3B37065   4.134  10.640   7.964
 2778POPC   C4B37066   4.083  10.697   7.664
 2779POPC   NC337067   6.635  44.650   9.464
 2779POPC   PO437068   6.693  44.697   9.164
 2779POPC   GL137069   6.600  44.657   8.864
 2779POPC   GL237070   6.741  44.708   8.864
 2779POPC   C1A37071   6.694  44.685   8.564
 2779POPC   D2A37072   6.681  44.643   8.264
 2779POPC   C3A37073   6.656  44.629   7.964
 2779POPC   C4A37074   6.669  44.623   7.664
 2779POPC   C1B37075   6.885  44.643   8.564
 2779POPC   C2B37076   6.861  44.710   8.264
 2779POPC   C3B37077   6.943  44.722   7.964
 2779POPC   C4B37078   6.922  44.656   7.664
 2780POPC   NC337079  13.662   0.419   9.464
 2780POPC   PO437080  13.640   0.445   9.164
 2780POPC   GL137081  13.598   0.398   8.864
 2780POPC   GL237082  13.562   0.358   8.864
 2780POPC   C1A37083  13.661   0.443   8.564
 2780POPC   D2A37084  13.625   0.413   8.264
 2780POPC   C3A37085  13.675   0.452   7.964
 2780POPC   C4A37086  13.595   0.449   7.664
 2780POPC   C1B37087  13.355   0.302   8.564
 2780POPC   C2B37088  13.416   0.297   8.264
 2780POPC   C3B37089  13.374   0.342   7.964
 2780POPC   C4B37090  13.399   0.355   7.664
 2781POPC   NC337091  34.594  26.813   9.464
 2781POPC   PO437092  34.598  26.781   9.164
 2781POPC   GL137093  34.565  26.834   8.864
 2781POPC   GL237094  34.451  26.827   8.864
 2781POPC   C1A37095  34.568  26.799   8.564
 2781POPC   D2A37096  34.620  26.784   8.264
 2781POPC   C3A37097  34.582  26.843   7.964
 2781POPC   C4A37098  34.612  26.780   7.664
 2781POPC   C1B37099  34.347  26.734   8.564
 2781POPC   C2B37100  34.370  26.804   8.264
 2781POPC   C3B37101  34.374  26.782   7.964
 2781POPC   C4B37102  34.335  26.767   7.664
 2782POPC   NC337103  40.022  43.849   9.464
 2782POPC   PO437104  40.023  43.894   9.164
 2782POPC   GL137105  40.000  43.914   8.864
 2782POPC   GL237106  40.122  43.778   8.864
 2782POPC   C1A37107  40.027  43.916   8.564
 2782POPC   D2A37108  40.023  43.908   8.264
 2782POPC   C3A37109  39.993  43.877   7.964
 2782POPC   C4A37110  39.964  43.867   7.664
 2782POPC   C1B37111  40.247  43.761   8.564
 2782POPC   C2B37112  40.163  43.704   8.264
 2782POPC   C3B37113  40.257  43.718   7.964
 2782POPC   C4B37114  40.234  43.720   7.664
 2783POPC   NC337115  14.435  44.615   9.464
 2783POPC   PO437116  14.447  44.669   9.164
 2783POPC   GL137117  14.441  44.620   8.864
 2783POPC   GL237118  14.388  44.836   8.864
 2783POPC   C1A37119  14.399  44.692   8.564
 2783POPC   D2A37120  14.396  44.700   8.264
 2783POPC   C3A37121  14.451  44.659   7.964
 2783POPC   C4A37122  14.360  44.693   7.664
 2783POPC   C1B37123  14.347  44.876   8.564
 2783POPC   C2B37124  14.415  44.868   8.264
 2783POPC   C3B37125  14.374  44.891   7.964
 2783POPC   C4B37126  14.349  44.938   7.664
 2784POPC   NC337127  38.426  19.024   9.464
 2784POPC   PO437128  38.427  19.025   9.164
 2784POPC   GL137129  38.459  19.097   8.864
 2784POPC   GL237130  38.574  19.050   8.864
 2784POPC   C1A37131  38.493  19.022   8.564
 2784POPC   D2A37132  38.431  19.093   8.264
 2784POPC   C3A37133  38.473  19.099   7.964
 2784POPC   C4A37134  38.477  19.029   7.664
 2784POPC   C1B37135  38.684  19.131   8.564
 2784POPC   C2B37136  38.737  19.154   8.264
 2784POPC   C3B37137  38.651  19.149   7.964
 2784POPC   C4B37138  38.647  19.145   7.664
 2785POPC   NC337139  36.091   5.844   9.464
 2785POPC   PO437140  36.171   5.866   9.164
 2785POPC   GL137141  36.098   5.877   8.864
 2785POPC   GL237142  36.184   5.807   8.864
 2785POPC   C1A37143  36.178   5.918   8.564
 2785POPC   D2A37144  36.164   5.837   8.264
 2785POPC   C3A37145  36.105   5.917   7.964
 2785POPC   C4A37146  36.157   5.866   7.664
 2785POPC   C1B37147  36.316   5.700   8.564
 2785POPC   C2B37148  36.295   5.707   8.264
 2785POPC   C3B37149  36.265   5.694   7.964
 2785POPC   C4B37150  36.293   5.720   7.664
 2786POPC   NC337151  30.661   9.713   9.464
 2786POPC   PO437152  30.739   9.767   9.164
 2786POPC   GL137153  30.719   9.739   8.864
 2786POPC   GL237154  30.657   9.884   8.864
 2786POPC   C1A37155  30.717   9.773   8.564
 2786POPC   D2A37156  30.674   9.762   8.264
 2786POPC   C3A37157  30.729   9.790   7.964
 2786POPC   C4A37158  30.708   9.739   7.664
 2786POPC   C1B37159  30.598  10.019   8.564
 2786POPC   C2B37160  30.607  10.003   8.264
 2786POPC   C3B37161  30.582   9.974   7.964
 2786POPC   C4B37162  30.612   9.971   7.664
 2787POPC   NC337163  32.989  19.073   9.464
 2787POPC   PO437164  32.978  19.076   9.164
 2787POPC   GL137165  33.000  19.028   8.864
 2787POPC   GL237166  33.109  19.074   8.864
 2787POPC   C1A37167  33.020  19.011   8.564
 2787POPC   D2A37168  33.006  19.081   8.264
 2787POPC   C3A37169  33.072  19.108   7.964
 2787POPC   C4A37170  33.065  19.064   7.664
 2787POPC   C1B37171  33.210  19.209   8.564
 2787POPC   C2B37172  33.272  19.118   8.264
 2787POPC   C3B37173  33.226  19.191   7.964
 2787POPC   C4B37174  33.239  19.142   7.664
 2788POPC   NC337175  43.151  40.055   9.464
 2788POPC   PO437176  43.103  40.009   9.164
 2788POPC   GL137177  43.124  39.965   8.864
 2788POPC   GL237178  43.185  39.880   8.864
 2788POPC   C1A37179  43.079  40.032   8.564
 2788POPC   D2A37180  43.077  40.013   8.264
 2788POPC   C3A37181  43.101  39.958   7.964
 2788POPC   C4A37182  43.082  39.959   7.664
 2788POPC   C1B37183  43.203  39.803   8.564
 2788POPC   C2B37184  43.232  39.757   8.264
 2788POPC   C3B37185  43.260  39.823   7.964
 2788POPC   C4B37186  43.226  39.813   7.664
 2789POPC   NC337187   6.617  43.884   9.464
 2789POPC   PO437188   6.662  43.862   9.164
 2789POPC   GL137189   6.671  43.879   8.864
 2789POPC   GL237190   6.734  43.779   8.864
 2789POPC   C1A37191   6.614  43.923   8.564
 2789POPC   D2A37192   6.691  43.933   8.264
 2789POPC   C3A37193   6.676  43.929   7.964
 2789POPC   C4A37194   6.663  43.863   7.664
 2789POPC   C1B37195   6.806  43.744   8.564
 2789POPC   C2B37196   6.841  43.707   8.264
 2789POPC   C3B37197   6.830  43.675   7.964
 2789POPC   C4B37198   6.839  43.762   7.664
 2790POPC   NC337199  33.761  26.003   9.464
 2790POPC   PO437200  33.801  26.086   9.164
 2790POPC   GL137201  33.803  26.078   8.864
 2790POPC   GL237202  33.830  25.891   8.864
 2790POPC   C1A37203  33.786  25.993   8.564
 2790POPC   D2A37204  33.842  26.086   8.264
 2790POPC   C3A37205  33.837  26.043   7.964
 2790POPC   C4A37206  33.819  26.017   7.664
 2790POPC   C1B37207  33.808  25.828   8.564
 2790POPC   C2B37208  33.788  25.830   8.264
 2790POPC   C3B37209  33.829  25.761   7.964
 2790POPC   C4B37210  33.746  25.823   7.664
 2791POPC   NC337211  21.425  29.896   9.464
 2791POPC   PO437212  21.400  29.958   9.164
 2791POPC   GL137213  21.404  29.962   8.864
 2791POPC   GL237214  21.283  29.847   8.864
 2791POPC   C1A37215  21.425  29.955   8.564
 2791POPC   D2A37216  21.409  29.948   8.264
 2791POPC   C3A37217  21.352  29.883   7.964
 2791POPC   C4A37218  21.395  29.918   7.664
 2791POPC   C1B37219  21.237  29.733   8.564
 2791POPC   C2B37220  21.238  29.702   8.264
 2791POPC   C3B37221  21.247  29.684   7.964
 2791POPC   C4B37222  21.217  29.709   7.664
 2792POPC   NC337223  37.703  36.862   9.464
 2792POPC   PO437224  37.674  36.929   9.164
 2792POPC   GL137225  37.706  36.901   8.864
 2792POPC   GL237226  37.773  36.895   8.864
 2792POPC   C1A37227  37.641  36.934   8.564
 2792POPC   D2A37228  37.652  36.906   8.264
 2792POPC   C3A37229  37.679  36.878   7.964
 2792POPC   C4A37230  37.649  36.913   7.664
 2792POPC   C1B37231  37.963  36.952   8.564
 2792POPC   C2B37232  37.911  36.967   8.264
 2792POPC   C3B37233  37.888  36.991   7.964
 2792POPC   C4B37234  37.963  36.911   7.664
 2793POPC   NC337235  20.613  17.490   9.464
 2793POPC   PO437236  20.583  17.514   9.164
 2793POPC   GL137237  20.577  17.508   8.864
 2793POPC   GL237238  20.727  17.482   8.864
 2793POPC   C1A37239  20.641  17.557   8.564
 2793POPC   D2A37240  20.650  17.550   8.264
 2793POPC   C3A37241  20.625  17.517   7.964
 2793POPC   C4A37242  20.659  17.515   7.664
 2793POPC   C1B37243  20.858  17.481   8.564
 2793POPC   C2B37244  20.901  17.450   8.264
 2793POPC   C3B37245  20.881  17.452   7.964
 2793POPC   C4B37246  20.814  17.420   7.664
 2794POPC   NC337247   2.014  12.867   9.464
 2794POPC   PO437248   1.944  12.836   9.164
 2794POPC   GL137249   1.990  12.817   8.864
 2794POPC   GL237250   1.933  12.798   8.864
 2794POPC   C1A37251   1.962  12.833   8.564
 2794POPC   D2A37252   1.991  12.828   8.264
 2794POPC   C3A37253   1.966  12.833   7.964
 2794POPC   C4A37254   1.992  12.828   7.664
 2794POPC   C1B37255   1.850  12.599   8.564
 2794POPC   C2B37256   1.802  12.626   8.264
 2794POPC   C3B37257   1.829  12.610   7.964
 2794POPC   C4B37258   1.802  12.643   7.664
 2795POPC   NC337259  37.707  19.792   9.464
 2795POPC   PO437260  37.688  19.800   9.164
 2795POPC   GL137261  37.720  19.836   8.864
 2795POPC   GL237262  37.573  19.824   8.864
 2795POPC   C1A37263  37.703  19.828   8.564
 2795POPC   D2A37264  37.728  19.825   8.264
 2795POPC   C3A37265  37.631  19.831   7.964
 2795POPC   C4A37266  37.703  19.792   7.664
 2795POPC   C1B37267  37.445  19.780   8.564
 2795POPC   C2B37268  37.446  19.751   8.264
 2795POPC   C3B37269  37.396  19.706   7.964
 2795POPC   C4B37270  37.400  19.779   7.664
 2796POPC   NC337271   3.512  43.848   9.464
 2796POPC   PO437272   3.575  43.880   9.164
 2796POPC   GL137273   3.540  43.879   8.864
 2796POPC   GL237274   3.548  43.989   8.864
 2796POPC   C1A37275   3.518  43.850   8.564
 2796POPC   D2A37276   3.585  43.839   8.264
 2796POPC   C3A37277   3.520  43.837   7.964
 2796POPC   C4A37278   3.537  43.868   7.664
 2796POPC   C1B37279   3.606  44.137   8.564
 2796POPC   C2B37280   3.643  44.126   8.264
 2796POPC   C3B37281   3.567  44.112   7.964
 2796POPC   C4B37282   3.566  44.166   7.664
 2797POPC   NC337283  32.213   7.431   9.464
 2797POPC   PO437284  32.251   7.440   9.164
 2797POPC   GL137285  32.266   7.459   8.864
 2797POPC   GL237286  32.391   7.483   8.864
 2797POPC   C1A37287  32.222   7.462   8.564
 2797POPC   D2A37288  32.247   7.379   8.264
 2797POPC   C3A37289  32.219   7.400   7.964
 2797POPC   C4A37290  32.292   7.467   7.664
 2797POPC   C1B37291  32.473   7.571   8.564
 2797POPC   C2B37292  32.419   7.548   8.264
 2797POPC   C3B37293  32.396   7.628   7.964
 2797POPC   C4B37294  32.471   7.582   7.664
 2798POPC   NC337295  41.526  40.003   9.464
 2798POPC   PO437296  41.598  40.041   9.164
 2798POPC   GL137297  41.528  40.045   8.864
 2798POPC   GL237298  41.560  40.118   8.864
 2798POPC   C1A37299  41.598  40.027   8.564
 2798POPC   D2A37300  41.604  39.978   8.264
 2798POPC   C3A37301  41.515  40.030   7.964
 2798POPC   C4A37302  41.601  40.015   7.664
 2798POPC   C1B37303  41.643  40.205   8.564
 2798POPC   C2B37304  41.593  40.210   8.264
 2798POPC   C3B37305  41.593  40.214   7.964
 2798POPC   C4B37306  41.616  40.285   7.664
 2799POPC   NC337307   7.393  29.154   9.464
 2799POPC   PO437308   7.450  29.102   9.164
 2799POPC   GL137309   7.405  29.193   8.864
 2799POPC   GL237310   7.307  29.173   8.864
 2799POPC   C1A37311   7.470  29.103   8.564
 2799POPC   D2A37312   7.390  29.170   8.264
 2799POPC   C3A37313   7.425  29.173   7.964
 2799POPC   C4A37314   7.387  29.144   7.664
 2799POPC   C1B37315   7.134  29.172   8.564
 2799POPC   C2B37316   7.198  29.205   8.264
 2799POPC   C3B37317   7.175  29.229   7.964
 2799POPC   C4B37318   7.155  29.217   7.664
 2800POPC   NC337319  30.699  33.029   9.464
 2800POPC   PO437320  30.697  32.984   9.164
 2800POPC   GL137321  30.696  33.056   8.864
 2800POPC   GL237322  30.678  32.878   8.864
 2800POPC   C1A37323  30.685  33.051   8.564
 2800POPC   D2A37324  30.735  33.068   8.264
 2800POPC   C3A37325  30.666  33.023   7.964
 2800POPC   C4A37326  30.713  33.070   7.664
 2800POPC   C1B37327  30.732  32.730   8.564
 2800POPC   C2B37328  30.719  32.727   8.264
 2800POPC   C3B37329  30.679  32.727   7.964
 2800POPC   C4B37330  30.639  32.767   7.664
 2801POPC   NC337331  15.987  14.445   9.464
 2801POPC   PO437332  15.987  14.357   9.164
 2801POPC   GL137333  15.947  14.423   8.864
 2801POPC   GL237334  16.100  14.427   8.864
 2801POPC   C1A37335  15.962  14.403   8.564
 2801POPC   D2A37336  15.989  14.377   8.264
 2801POPC   C3A37337  15.950  14.436   7.964
 2801POPC   C4A37338  15.970  14.442   7.664
 2801POPC   C1B37339  16.178  14.500   8.564
 2801POPC   C2B37340  16.150  14.511   8.264
 2801POPC   C3B37341  16.199  14.558   7.964
 2801POPC   C4B37342  16.157  14.527   7.664
 2802POPC   NC337343  14.388  11.291   9.464
 2802POPC   PO437344  14.399  11.303   9.164
 2802POPC   GL137345  14.404  11.274   8.864
 2802POPC   GL237346  14.350  11.233   8.864
 2802POPC   C1A37347  14.389  11.342   8.564
 2802POPC   D2A37348  14.437  11.265   8.264
 2802POPC   C3A37349  14.401  11.330   7.964
 2802POPC   C4A37350  14.445  11.308   7.664
 2802POPC   C1B37351  14.221  11.065   8.564
 2802POPC   C2B37352  14.212  11.111   8.264
 2802POPC   C3B37353  14.284  11.075   7.964
 2802POPC   C4B37354  14.274  11.080   7.664
 2803POPC   NC337355  15.953  24.518   9.464
 2803POPC   PO437356  15.963  24.496   9.164
 2803POPC   GL137357  15.925  24.480   8.864
 2803POPC   GL237358  15.851  24.455   8.864
 2803POPC   C1A37359  15.994  24.447   8.564
 2803POPC   D2A37360  16.001  24.457   8.264
 2803POPC   C3A37361  15.952  24.517   7.964
 2803POPC   C4A37362  15.915  24.524   7.664
 2803POPC   C1B37363  15.779  24.376   8.564
 2803POPC   C2B37364  15.783  24.280   8.264
 2803POPC   C3B37365  15.805  24.365   7.964
 2803POPC   C4B37366  15.748  24.317   7.664
 2804POPC   NC337367   1.191   9.735   9.464
 2804POPC   PO437368   1.172   9.743   9.164
 2804POPC   GL137369   1.221   9.791   8.864
 2804POPC   GL237370   1.331   9.804   8.864
 2804POPC   C1A37371   1.215   9.727   8.564
 2804POPC   D2A37372   1.178   9.754   8.264
 2804POPC   C3A37373   1.186   9.717   7.964
 2804POPC   C4A37374   1.216   9.768   7.664
 2804POPC   C1B37375   1.474   9.806   8.564
 2804POPC   C2B37376   1.424   9.819   8.264
 2804POPC   C3B37377   1.505   9.764   7.964
 2804POPC   C4B37378   1.499   9.827   7.664
 2805POPC   NC337379  15.213  42.317   9.464
 2805POPC   PO437380  15.151  42.330   9.164
 2805POPC   GL137381  15.144  42.363   8.864
 2805POPC   GL237382  15.018  42.358   8.864
 2805POPC   C1A37383  15.141  42.327   8.564
 2805POPC   D2A37384  15.185  42.294   8.264
 2805POPC   C3A37385  15.205  42.379   7.964
 2805POPC   C4A37386  15.223  42.325   7.664
 2805POPC   C1B37387  14.932  42.372   8.564
 2805POPC   C2B37388  14.916  42.383   8.264
 2805POPC   C3B37389  14.927  42.307   7.964
 2805POPC   C4B37390  14.895  42.323   7.664
 2806POPC   NC337391   9.728  15.935   9.464
 2806POPC   PO437392   9.765  15.990   9.164
 2806POPC   GL137393   9.742  15.981   8.864
 2806POPC   GL237394   9.633  15.909   8.864
 2806POPC   C1A37395   9.735  16.000   8.564
 2806POPC   D2A37396   9.719  15.941   8.264
 2806POPC   C3A37397   9.782  16.000   7.964
 2806POPC   C4A37398   9.797  16.003   7.664
 2806POPC   C1B37399   9.489  15.864   8.564
 2806POPC   C2B37400   9.502  15.812   8.264
 2806POPC   C3B37401   9.535  15.783   7.964
 2806POPC   C4B37402   9.517  15.824   7.664
 2807POPC   NC337403  40.044  29.177   9.464
 2807POPC   PO437404  40.054  29.121   9.164
 2807POPC   GL137405  39.979  29.185   8.864
 2807POPC   GL237406  39.950  29.275   8.864
 2807POPC   C1A37407  40.052  29.194   8.564
 2807POPC   D2A37408  40.047  29.132   8.264
 2807POPC   C3A37409  40.021  29.121   7.964
 2807POPC   C4A37410  39.984  29.169   7.664
 2807POPC   C1B37411  39.831  29.352   8.564
 2807POPC   C2B37412  39.837  29.298   8.264
 2807POPC   C3B37413  39.822  29.304   7.964
 2807POPC   C4B37414  39.794  29.362   7.664
 2808POPC   NC337415   8.992  31.446   9.464
 2808POPC   PO437416   8.982  31.453   9.164
 2808POPC   GL137417   9.002  31.434   8.864
 2808POPC   GL237418   8.913  31.549   8.864
 2808POPC   C1A37419   8.983  31.511   8.564
 2808POPC   D2A37420   9.019  31.468   8.264
 2808POPC   C3A37421   8.985  31.431   7.964
 2808POPC   C4A37422   8.969  31.520   7.664
 2808POPC   C1B37423   8.886  31.720   8.564
 2808POPC   C2B37424   8.888  31.734   8.264
 2808POPC   C3B37425   8.895  31.664   7.964
 2808POPC   C4B37426   8.915  31.749   7.664
 2809POPC   NC337427  22.179  39.221   9.464
 2809POPC   PO437428  22.206  39.257   9.164
 2809POPC   GL137429  22.158  39.194   8.864
 2809POPC   GL237430  22.203  39.145   8.864
 2809POPC   C1A37431  22.186  39.268   8.564
 2809POPC   D2A37432  22.134  39.182   8.264
 2809POPC   C3A37433  22.151  39.205   7.964
 2809POPC   C4A37434  22.193  39.207   7.664
 2809POPC   C1B37435  22.207  38.933   8.564
 2809POPC   C2B37436  22.187  38.982   8.264
 2809POPC   C3B37437  22.184  38.974   7.964
 2809POPC   C4B37438  22.146  39.013   7.664
 2810POPC   NC337439  25.239  21.423   9.464
 2810POPC   PO437440  25.265  21.403   9.164
 2810POPC   GL137441  25.291  21.341   8.864
 2810POPC   GL237442  25.267  21.518   8.864
 2810POPC   C1A37443  25.220  21.369   8.564
 2810POPC   D2A37444  25.252  21.346   8.264
 2810POPC   C3A37445  25.224  21.431   7.964
 2810POPC   C4A37446  25.243  21.417   7.664
 2810POPC   C1B37447  25.238  21.662   8.564
 2810POPC   C2B37448  25.307  21.608   8.264
 2810POPC   C3B37449  25.233  21.631   7.964
 2810POPC   C4B37450  25.225  21.590   7.664
 2811POPC   NC337451  13.661  41.514   9.464
 2811POPC   PO437452  13.591  41.607   9.164
 2811POPC   GL137453  13.599  41.584   8.864
 2811POPC   GL237454  13.550  41.403   8.864
 2811POPC   C1A37455  13.648  41.586   8.564
 2811POPC   D2A37456  13.667  41.520   8.264
 2811POPC   C3A37457  13.658  41.512   7.964
 2811POPC   C4A37458  13.583  41.541   7.664
 2811POPC   C1B37459  13.556  41.285   8.564
 2811POPC   C2B37460  13.512  41.315   8.264
 2811POPC   C3B37461  13.558  41.353   7.964
 2811POPC   C4B37462  13.562  41.364   7.664
 2812POPC   NC337463  18.325  24.537   9.464
 2812POPC   PO437464  18.302  24.443   9.164
 2812POPC   GL137465  18.258  24.519   8.864
 2812POPC   GL237466  18.186  24.458   8.864
 2812POPC   C1A37467  18.300  24.518   8.564
 2812POPC   D2A37468  18.278  24.484   8.264
 2812POPC   C3A37469  18.283  24.446   7.964
 2812POPC   C4A37470  18.267  24.529   7.664
 2812POPC   C1B37471  18.022  24.485   8.564
 2812POPC   C2B37472  18.041  24.530   8.264
 2812POPC   C3B37473  18.051  24.519   7.964
 2812POPC   C4B37474  18.004  24.462   7.664
 2813POPC   NC337475  31.468  25.262   9.464
 2813POPC   PO437476  31.436  25.246   9.164
 2813POPC   GL137477  31.433  25.256   8.864
 2813POPC   GL237478  31.407  25.185   8.864
 2813POPC   C1A37479  31.483  25.282   8.564
 2813POPC   D2A37480  31.519  25.276   8.264
 2813POPC   C3A37481  31.439  25.266   7.964
 2813POPC   C4A37482  31.506  25.247   7.664
 2813POPC   C1B37483  31.419  25.035   8.564
 2813POPC   C2B37484  31.447  25.066   8.264
 2813POPC   C3B37485  31.399  24.976   7.964
 2813POPC   C4B37486  31.462  25.032   7.664
 2814POPC   NC337487  22.963   9.795   9.464
 2814POPC   PO437488  22.927   9.729   9.164
 2814POPC   GL137489  22.934   9.783   8.864
 2814POPC   GL237490  22.951   9.827   8.864
 2814POPC   C1A37491  22.968   9.757   8.564
 2814POPC   D2A37492  22.982   9.790   8.264
 2814POPC   C3A37493  22.898   9.710   7.964
 2814POPC   C4A37494  22.939   9.745   7.664
 2814POPC   C1B37495  23.070   9.993   8.564
 2814POPC   C2B37496  23.012   9.955   8.264
 2814POPC   C3B37497  23.018  10.025   7.964
 2814POPC   C4B37498  22.998   9.998   7.664
 2815POPC   NC337499  44.627  27.603   9.464
 2815POPC   PO437500  44.643  27.642   9.164
 2815POPC   GL137501  44.648  27.551   8.864
 2815POPC   GL237502  44.713  27.442   8.864
 2815POPC   C1A37503  44.695  27.625   8.564
 2815POPC   D2A37504  44.682  27.627   8.264
 2815POPC   C3A37505  44.693  27.548   7.964
 2815POPC   C4A37506  44.676  27.556   7.664
 2815POPC   C1B37507  44.746  27.407   8.564
 2815POPC   C2B37508  44.757  27.390   8.264
 2815POPC   C3B37509  44.788  27.332   7.964
 2815POPC   C4B37510  44.794  27.402   7.664
 2816POPC   NC337511  39.983  32.995   9.464
 2816POPC   PO437512  39.997  32.980   9.164
 2816POPC   GL137513  40.026  32.982   8.864
 2816POPC   GL237514  40.095  32.962   8.864
 2816POPC   C1A37515  39.973  33.040   8.564
 2816POPC   D2A37516  39.994  33.068   8.264
 2816POPC   C3A37517  40.020  33.062   7.964
 2816POPC   C4A37518  40.034  33.014   7.664
 2816POPC   C1B37519  40.091  32.793   8.564
 2816POPC   C2B37520  40.118  32.760   8.264
 2816POPC   C3B37521  40.108  32.755   7.964
 2816POPC   C4B37522  40.105  32.805   7.664
 2817POPC   NC337523  27.601  23.671   9.464
 2817POPC   PO437524  27.545  23.721   9.164
 2817POPC   GL137525  27.587  23.732   8.864
 2817POPC   GL237526  27.715  23.718   8.864
 2817POPC   C1A37527  27.572  23.671   8.564
 2817POPC   D2A37528  27.551  23.753   8.264
 2817POPC   C3A37529  27.565  23.729   7.964
 2817POPC   C4A37530  27.606  23.762   7.664
 2817POPC   C1B37531  27.869  23.787   8.564
 2817POPC   C2B37532  27.837  23.790   8.264
 2817POPC   C3B37533  27.811  23.820   7.964
 2817POPC   C4B37534  27.840  23.803   7.664
 2818POPC   NC337535  42.328  43.907   9.464
 2818POPC   PO437536  42.323  43.902   9.164
 2818POPC   GL137537  42.365  43.916   8.864
 2818POPC   GL237538  42.235  43.904   8.864
 2818POPC   C1A37539  42.293  43.875   8.564
 2818POPC   D2A37540  42.323  43.852   8.264
 2818POPC   C3A37541  42.350  43.900   7.964
 2818POPC   C4A37542  42.338  43.837   7.664
 2818POPC   C1B37543  42.050  43.853   8.564
 2818POPC   C2B37544  42.082  43.848   8.264
 2818POPC   C3B37545  42.102  43.847   7.964
 2818POPC   C4B37546  42.112  43.898   7.664
 2819POPC   NC337547  37.661  44.703   9.464
 2819POPC   PO437548  37.679  44.693   9.164
 2819POPC   GL137549  37.720  44.641   8.864
 2819POPC   GL237550  37.520  44.604   8.864
 2819POPC   C1A37551  37.662  44.696   8.564
 2819POPC   D2A37552  37.714  44.653   8.264
 2819POPC   C3A37553  37.658  44.649   7.964
 2819POPC   C4A37554  37.700  44.620   7.664
 2819POPC   C1B37555  37.395  44.672   8.564
 2819POPC   C2B37556  37.394  44.586   8.264
 2819POPC   C3B37557  37.456  44.641   7.964
 2819POPC   C4B37558  37.470  44.610   7.664
 2820POPC   NC337559  28.350  33.836   9.464
 2820POPC   PO437560  28.356  33.798   9.164
 2820POPC   GL137561  28.349  33.839   8.864
 2820POPC   GL237562  28.311  33.946   8.864
 2820POPC   C1A37563  28.333  33.754   8.564
 2820POPC   D2A37564  28.335  33.761   8.264
 2820POPC   C3A37565  28.328  33.822   7.964
 2820POPC   C4A37566  28.405  33.766   7.664
 2820POPC   C1B37567  28.336  34.000   8.564
 2820POPC   C2B37568  28.247  34.011   8.264
 2820POPC   C3B37569  28.292  33.998   7.964
 2820POPC   C4B37570  28.325  33.990   7.664
 2821POPC   NC337571  34.541  28.351   9.464
 2821POPC   PO437572  34.581  28.346   9.164
 2821POPC   GL137573  34.606  28.362   8.864
 2821POPC   GL237574  34.662  28.397   8.864
 2821POPC   C1A37575  34.567  28.397   8.564
 2821POPC   D2A37576  34.556  28.409   8.264
 2821POPC   C3A37577  34.599  28.362   7.964
 2821POPC   C4A37578  34.545  28.369   7.664
 2821POPC   C1B37579  34.803  28.491   8.564
 2821POPC   C2B37580  34.829  28.504   8.264
 2821POPC   C3B37581  34.811  28.538   7.964
 2821POPC   C4B37582  34.743  28.496   7.664
 2822POPC   NC337583   6.646  23.743   9.464
 2822POPC   PO437584   6.604  23.735   9.164
 2822POPC   GL137585   6.660  23.755   8.864
 2822POPC   GL237586   6.726  23.645   8.864
 2822POPC   C1A37587   6.621  23.690   8.564
 2822POPC   D2A37588   6.694  23.735   8.264
 2822POPC   C3A37589   6.690  23.741   7.964
 2822POPC   C4A37590   6.647  23.694   7.664
 2822POPC   C1B37591   6.822  23.510   8.564
 2822POPC   C2B37592   6.842  23.508   8.264
 2822POPC   C3B37593   6.792  23.489   7.964
 2822POPC   C4B37594   6.853  23.587   7.664
 2823POPC   NC337595  43.124   4.325   9.464
 2823POPC   PO437596  43.067   4.267   9.164
 2823POPC   GL137597  43.110   4.317   8.864
 2823POPC   GL237598  43.001   4.238   8.864
 2823POPC   C1A37599  43.138   4.365   8.564
 2823POPC   D2A37600  43.108   4.279   8.264
 2823POPC   C3A37601  43.097   4.304   7.964
 2823POPC   C4A37602  43.130   4.296   7.664
 2823POPC   C1B37603  42.877   4.191   8.564
 2823POPC   C2B37604  42.879   4.183   8.264
 2823POPC   C3B37605  42.868   4.173   7.964
 2823POPC   C4B37606  42.936   4.195   7.664
 2824POPC   NC337607   8.165   1.233   9.464
 2824POPC   PO437608   8.227   1.251   9.164
 2824POPC   GL137609   8.159   1.197   8.864
 2824POPC   GL237610   8.172   1.323   8.864
 2824POPC   C1A37611   8.193   1.185   8.564
 2824POPC   D2A37612   8.166   1.211   8.264
 2824POPC   C3A37613   8.215   1.258   7.964
 2824POPC   C4A37614   8.159   1.238   7.664
 2824POPC   C1B37615   8.106   1.416   8.564
 2824POPC   C2B37616   8.051   1.401   8.264
 2824POPC   C3B37617   8.093   1.404   7.964
 2824POPC   C4B37618   8.050   1.487   7.664
 2825POPC   NC337619  43.851  37.636   9.464
 2825POPC   PO437620  43.935  37.667   9.164
 2825POPC   GL137621  43.879  37.698   8.864
 2825POPC   GL237622  43.936  37.719   8.864
 2825POPC   C1A37623  43.846  37.713   8.564
 2825POPC   D2A37624  43.856  37.678   8.264
 2825POPC   C3A37625  43.857  37.684   7.964
 2825POPC   C4A37626  43.856  37.671   7.664
 2825POPC   C1B37627  44.096  37.858   8.564
 2825POPC   C2B37628  44.028  37.883   8.264
 2825POPC   C3B37629  44.088  37.856   7.964
 2825POPC   C4B37630  44.102  37.862   7.664
 2826POPC   NC337631  20.639  33.067   9.464
 2826POPC   PO437632  20.627  32.988   9.164
 2826POPC   GL137633  20.561  33.015   8.864
 2826POPC   GL237634  20.706  33.115   8.864
 2826POPC   C1A37635  20.634  33.038   8.564
 2826POPC   D2A37636  20.569  33.043   8.264
 2826POPC   C3A37637  20.640  33.027   7.964
 2826POPC   C4A37638  20.643  33.054   7.664
 2826POPC   C1B37639  20.738  33.278   8.564
 2826POPC   C2B37640  20.736  33.251   8.264
 2826POPC   C3B37641  20.763  33.218   7.964
 2826POPC   C4B37642  20.743  33.264   7.664
 2827POPC   NC337643  42.300  37.644   9.464
 2827POPC   PO437644  42.337  37.631   9.164
 2827POPC   GL137645  42.350  37.676   8.864
 2827POPC   GL237646  42.433  37.607   8.864
 2827POPC   C1A37647  42.294  37.700   8.564
 2827POPC   D2A37648  42.382  37.719   8.264
 2827POPC   C3A37649  42.331  37.689   7.964
 2827POPC   C4A37650  42.317  37.659   7.664
 2827POPC   C1B37651  42.527  37.607   8.564
 2827POPC   C2B37652  42.612  37.615   8.264
 2827POPC   C3B37653  42.590  37.579   7.964
 2827POPC   C4B37654  42.522  37.568   7.664
 2828POPC   NC337655  33.065   8.943   9.464
 2828POPC   PO437656  32.976   8.992   9.164
 2828POPC   GL137657  33.049   9.017   8.864
 2828POPC   GL237658  33.131   9.118   8.864
 2828POPC   C1A37659  33.001   8.930   8.564
 2828POPC   D2A37660  33.015   8.957   8.264
 2828POPC   C3A37661  32.990   8.971   7.964
 2828POPC   C4A37662  33.034   8.985   7.664
 2828POPC   C1B37663  33.222   9.117   8.564
 2828POPC   C2B37664  33.201   9.137   8.264
 2828POPC   C3B37665  33.183   9.133   7.964
 2828POPC   C4B37666  33.147   9.213   7.664
 2829POPC   NC337667  22.949  36.154   9.464
 2829POPC   PO437668  22.963  36.142   9.164
 2829POPC   GL137669  22.959  36.105   8.864
 2829POPC   GL237670  22.780  36.154   8.864
 2829POPC   C1A37671  22.970  36.138   8.564
 2829POPC   D2A37672  22.928  36.080   8.264
 2829POPC   C3A37673  22.898  36.092   7.964
 2829POPC   C4A37674  22.984  36.087   7.664
 2829POPC   C1B37675  22.677  36.150   8.564
 2829POPC   C2B37676  22.725  36.081   8.264
 2829POPC   C3B37677  22.657  36.150   7.964
 2829POPC   C4B37678  22.720  36.070   7.664
 2830POPC   NC337679  27.612  13.674   9.464
 2830POPC   PO437680  27.630  13.671   9.164
 2830POPC   GL137681  27.608  13.603   8.864
 2830POPC   GL237682  27.708  13.586   8.864
 2830POPC   C1A37683  27.573  13.615   8.564
 2830POPC   D2A37684  27.580  13.622   8.264
 2830POPC   C3A37685  27.557  13.593   7.964
 2830POPC   C4A37686  27.578  13.606   7.664
 2830POPC   C1B37687  27.784  13.500   8.564
 2830POPC   C2B37688  27.790  13.571   8.264
 2830POPC   C3B37689  27.817  13.538   7.964
 2830POPC   C4B37690  27.801  13.488   7.664
 2831POPC   NC337691  13.615  35.316   9.464
 2831POPC   PO437692  13.597  35.397   9.164
 2831POPC   GL137693  13.662  35.352   8.864
 2831POPC   GL237694  13.493  35.430   8.864
 2831POPC   C1A37695  13.668  35.339   8.564
 2831POPC   D2A37696  13.676  35.325   8.264
 2831POPC   C3A37697  13.598  35.304   7.964
 2831POPC   C4A37698  13.621  35.392   7.664
 2831POPC   C1B37699  13.363  35.498   8.564
 2831POPC   C2B37700  13.395  35.500   8.264
 2831POPC   C3B37701  13.446  35.458   7.964
 2831POPC   C4B37702  13.434  35.432   7.664
 2832POPC   NC337703  26.794  17.475   9.464
 2832POPC   PO437704  26.829  17.498   9.164
 2832POPC   GL137705  26.840  17.496   8.864
 2832POPC   GL237706  26.976  17.575   8.864
 2832POPC   C1A37707  26.842  17.535   8.564
 2832POPC   D2A37708  26.852  17.540   8.264
 2832POPC   C3A37709  26.775  17.541   7.964
 2832POPC   C4A37710  26.785  17.536   7.664
 2832POPC   C1B37711  27.089  17.562   8.564
 2832POPC   C2B37712  27.046  17.551   8.264
 2832POPC   C3B37713  27.033  17.571   7.964
 2832POPC   C4B37714  27.101  17.586   7.664
 2833POPC   NC337715  12.858  15.926   9.464
 2833POPC   PO437716  12.860  15.982   9.164
 2833POPC   GL137717  12.892  15.933   8.864
 2833POPC   GL237718  12.706  15.999   8.864
 2833POPC   C1A37719  12.804  15.917   8.564
 2833POPC   D2A37720  12.900  15.979   8.264
 2833POPC   C3A37721  12.886  15.971   7.964
 2833POPC   C4A37722  12.834  15.908   7.664
 2833POPC   C1B37723  12.630  16.044   8.564
 2833POPC   C2B37724  12.589  16.078   8.264
 2833POPC   C3B37725  12.615  16.062   7.964
 2833POPC   C4B37726  12.639  16.077   7.664
 2834POPC   NC337727  25.283   9.765   9.464
 2834POPC   PO437728  25.267   9.773   9.164
 2834POPC   GL137729  25.278   9.708   8.864
 2834POPC   GL237730  25.202   9.587   8.864
 2834POPC   C1A37731  25.282   9.788   8.564
 2834POPC   D2A37732  25.259   9.732   8.264
 2834POPC   C3A37733  25.264   9.773   7.964
 2834POPC   C4A37734  25.228   9.738   7.664
 2834POPC   C1B37735  25.191   9.516   8.564
 2834POPC   C2B37736  25.177   9.492   8.264
 2834POPC   C3B37737  25.184   9.528   7.964
 2834POPC   C4B37738  25.165   9.497   7.664
 2835POPC   NC337739  25.304   4.300   9.464
 2835POPC   PO437740  25.302   4.317   9.164
 2835POPC   GL137741  25.256   4.285   8.864
 2835POPC   GL237742  25.417   4.297   8.864
 2835POPC   C1A37743  25.247   4.299   8.564
 2835POPC   D2A37744  25.283   4.322   8.264
 2835POPC   C3A37745  25.310   4.278   7.964
 2835POPC   C4A37746  25.291   4.366   7.664
 2835POPC   C1B37747  25.489   4.392   8.564
 2835POPC   C2B37748  25.465   4.390   8.264
 2835POPC   C3B37749  25.529   4.345   7.964
 2835POPC   C4B37750  25.543   4.412   7.664
 2836POPC   NC337751  32.218   5.091   9.464
 2836POPC   PO437752  32.284   5.140   9.164
 2836POPC   GL137753  32.237   5.081   8.864
 2836POPC   GL237754  32.323   5.051   8.864
 2836POPC   C1A37755  32.274   5.091   8.564
 2836POPC   D2A37756  32.241   5.105   8.264
 2836POPC   C3A37757  32.281   5.047   7.964
 2836POPC   C4A37758  32.279   5.091   7.664
 2836POPC   C1B37759  32.547   5.046   8.564
 2836POPC   C2B37760  32.487   5.067   8.264
 2836POPC   C3B37761  32.478   5.042   7.964
 2836POPC   C4B37762  32.512   5.121   7.664
 2837POPC   NC337763  40.799   3.529   9.464
 2837POPC   PO437764  40.747   3.587   9.164
 2837POPC   GL137765  40.819   3.584   8.864
 2837POPC   GL237766  40.807   3.451   8.864
 2837POPC   C1A37767  40.785   3.582   8.564
 2837POPC   D2A37768  40.788   3.544   8.264
 2837POPC   C3A37769  40.748   3.571   7.964
 2837POPC   C4A37770  40.819   3.581   7.664
 2837POPC   C1B37771  40.883   3.355   8.564
 2837POPC   C2B37772  40.885   3.365   8.264
 2837POPC   C3B37773  40.873   3.322   7.964
 2837POPC   C4B37774  40.869   3.346   7.664
 2838POPC   NC337775  43.142  39.227   9.464
 2838POPC   PO437776  43.089  39.216   9.164
 2838POPC   GL137777  43.078  39.209   8.864
 2838POPC   GL237778  43.046  39.142   8.864
 2838POPC   C1A37779  43.129  39.189   8.564
 2838POPC   D2A37780  43.107  39.271   8.264
 2838POPC   C3A37781  43.138  39.240   7.964
 2838POPC   C4A37782  43.089  39.187   7.664
 2838POPC   C1B37783  42.948  39.067   8.564
 2838POPC   C2B37784  42.912  39.049   8.264
 2838POPC   C3B37785  42.913  39.107   7.964
 2838POPC   C4B37786  42.907  39.083   7.664
 2839POPC   NC337787  38.420  28.322   9.464
 2839POPC   PO437788  38.442  28.392   9.164
 2839POPC   GL137789  38.413  28.329   8.864
 2839POPC   GL237790  38.426  28.426   8.864
 2839POPC   C1A37791  38.408  28.345   8.564
 2839POPC   D2A37792  38.427  28.414   8.264
 2839POPC   C3A37793  38.452  28.417   7.964
 2839POPC   C4A37794  38.473  28.326   7.664
 2839POPC   C1B37795  38.287  28.595   8.564
 2839POPC   C2B37796  38.282  28.582   8.264
 2839POPC   C3B37797  38.257  28.555   7.964
 2839POPC   C4B37798  38.285  28.600   7.664
 2840POPC   NC337799  26.788  36.171   9.464
 2840POPC   PO437800  26.853  36.089   9.164
 2840POPC   GL137801  26.860  36.154   8.864
 2840POPC   GL237802  26.699  36.184   8.864
 2840POPC   C1A37803  26.809  36.123   8.564
 2840POPC   D2A37804  26.866  36.123   8.264
 2840POPC   C3A37805  26.800  36.177   7.964
 2840POPC   C4A37806  26.823  36.129   7.664
 2840POPC   C1B37807  26.696  36.335   8.564
 2840POPC   C2B37808  26.689  36.277   8.264
 2840POPC   C3B37809  26.685  36.309   7.964
 2840POPC   C4B37810  26.630  36.286   7.664
 2841POPC   NC337811  35.313   1.187   9.464
 2841POPC   PO437812  35.321   1.214   9.164
 2841POPC   GL137813  35.358   1.260   8.864
 2841POPC   GL237814  35.283   1.064   8.864
 2841POPC   C1A37815  35.345   1.204   8.564
 2841POPC   D2A37816  35.344   1.205   8.264
 2841POPC   C3A37817  35.321   1.216   7.964
 2841POPC   C4A37818  35.337   1.221   7.664
 2841POPC   C1B37819  35.307   0.962   8.564
 2841POPC   C2B37820  35.296   0.933   8.264
 2841POPC   C3B37821  35.256   0.983   7.964
 2841POPC   C4B37822  35.263   0.942   7.664
 2842POPC   NC337823  39.214   8.158   9.464
 2842POPC   PO437824  39.229   8.178   9.164
 2842POPC   GL137825  39.195   8.231   8.864
 2842POPC   GL237826  39.154   8.090   8.864
 2842POPC   C1A37827  39.205   8.235   8.564
 2842POPC   D2A37828  39.207   8.151   8.264
 2842POPC   C3A37829  39.211   8.157   7.964
 2842POPC   C4A37830  39.247   8.212   7.664
 2842POPC   C1B37831  39.119   8.017   8.564
 2842POPC   C2B37832  39.045   7.973   8.264
 2842POPC   C3B37833  39.089   7.970   7.964
 2842POPC   C4B37834  39.027   7.997   7.664
 2843POPC   NC337835   1.182  38.484   9.464
 2843POPC   PO437836   1.176  38.464   9.164
 2843POPC   GL137837   1.189  38.430   8.864
 2843POPC   GL237838   1.197  38.320   8.864
 2843POPC   C1A37839   1.231  38.504   8.564
 2843POPC   D2A37840   1.216  38.504   8.264
 2843POPC   C3A37841   1.215  38.483   7.964
 2843POPC   C4A37842   1.223  38.414   7.664
 2843POPC   C1B37843   1.077  38.216   8.564
 2843POPC   C2B37844   1.108  38.189   8.264
 2843POPC   C3B37845   1.151  38.190   7.964
 2843POPC   C4B37846   1.085  38.252   7.664
 2844POPC   NC337847  17.552  19.016   9.464
 2844POPC   PO437848  17.482  19.014   9.164
 2844POPC   GL137849  17.538  19.019   8.864
 2844POPC   GL237850  17.605  19.205   8.864
 2844POPC   C1A37851  17.475  19.014   8.564
 2844POPC   D2A37852  17.519  19.012   8.264
 2844POPC   C3A37853  17.551  19.101   7.964
 2844POPC   C4A37854  17.522  19.037   7.664
 2844POPC   C1B37855  17.646  19.310   8.564
 2844POPC   C2B37856  17.598  19.229   8.264
 2844POPC   C3B37857  17.650  19.279   7.964
 2844POPC   C4B37858  17.657  19.280   7.664
 2845POPC   NC337859  13.628  31.484   9.464
 2845POPC   PO437860  13.622  31.459   9.164
 2845POPC   GL137861  13.588  31.466   8.864
 2845POPC   GL237862  13.712  31.517   8.864
 2845POPC   C1A37863  13.600  31.442   8.564
 2845POPC   D2A37864  13.615  31.469   8.264
 2845POPC   C3A37865  13.672  31.456   7.964
 2845POPC   C4A37866  13.589  31.455   7.664
 2845POPC   C1B37867  13.866  31.474   8.564
 2845POPC   C2B37868  13.910  31.507   8.264
 2845POPC   C3B37869  13.876  31.434   7.964
 2845POPC   C4B37870  13.844  31.505   7.664
 2846POPC   NC337871   5.085  24.524   9.464
 2846POPC   PO437872   5.061  24.457   9.164
 2846POPC   GL137873   5.043  24.494   8.864
 2846POPC   GL237874   5.247  24.522   8.864
 2846POPC   C1A37875   5.089  24.469   8.564
 2846POPC   D2A37876   5.100  24.480   8.264
 2846POPC   C3A37877   5.079  24.480   7.964
 2846POPC   C4A37878   5.139  24.493   7.664
 2846POPC   C1B37879   5.387  24.434   8.564
 2846POPC   C2B37880   5.329  24.426   8.264
 2846POPC   C3B37881   5.368  24.464   7.964
 2846POPC   C4B37882   5.351  24.427   7.664
 2847POPC   NC337883  34.553  33.781   9.464
 2847POPC   PO437884  34.578  33.813   9.164
 2847POPC   GL137885  34.607  33.843   8.864
 2847POPC   GL237886  34.429  33.869   8.864
 2847POPC   C1A37887  34.626  33.764   8.564
 2847POPC   D2A37888  34.545  33.777   8.264
 2847POPC   C3A37889  34.612  33.849   7.964
 2847POPC   C4A37890  34.530  33.779   7.664
 2847POPC   C1B37891  34.323  33.914   8.564
 2847POPC   C2B37892  34.300  33.880   8.264
 2847POPC   C3B37893  34.307  33.927   7.964
 2847POPC   C4B37894  34.391  33.929   7.664
 2848POPC   NC337895  36.917  22.194   9.464
 2848POPC   PO437896  36.873  22.190   9.164
 2848POPC   GL137897  36.880  22.143   8.864
 2848POPC   GL237898  36.950  22.031   8.864
 2848POPC   C1A37899  36.867  22.172   8.564
 2848POPC   D2A37900  36.868  22.166   8.264
 2848POPC   C3A37901  36.874  22.117   7.964
 2848POPC   C4A37902  36.857  22.204   7.664
 2848POPC   C1B37903  37.105  22.019   8.564
 2848POPC   C2B37904  37.085  21.983   8.264
 2848POPC   C3B37905  37.095  21.952   7.964
 2848POPC   C4B37906  37.057  21.972   7.664
 2849POPC   NC337907  15.203  39.997   9.464
 2849POPC   PO437908  15.212  39.996   9.164
 2849POPC   GL137909  15.131  39.973   8.864
 2849POPC   GL237910  15.067  39.954   8.864
 2849POPC   C1A37911  15.152  40.039   8.564
 2849POPC   D2A37912  15.151  39.967   8.264
 2849POPC   C3A37913  15.146  40.013   7.964
 2849POPC   C4A37914  15.215  39.959   7.664
 2849POPC   C1B37915  14.965  39.971   8.564
 2849POPC   C2B37916  14.907  40.014   8.264
 2849POPC   C3B37917  14.933  39.987   7.964
 2849POPC   C4B37918  14.973  39.996   7.664
 2850POPC   NC337919   5.062   3.500   9.464
 2850POPC   PO437920   5.082   3.584   9.164
 2850POPC   GL137921   5.098   3.555   8.864
 2850POPC   GL237922   5.022   3.447   8.864
 2850POPC   C1A37923   5.060   3.579   8.564
 2850POPC   D2A37924   5.087   3.527   8.264
 2850POPC   C3A37925   5.054   3.493   7.964
 2850POPC   C4A37926   5.130   3.575   7.664
 2850POPC   C1B37927   5.034   3.315   8.564
 2850POPC   C2B37928   5.053   3.265   8.264
 2850POPC   C3B37929   5.059   3.303   7.964
 2850POPC   C4B37930   5.014   3.295   7.664
 2851POPC   NC337931  31.502  10.514   9.464
 2851POPC   PO437932  31.492  10.518   9.164
 2851POPC   GL137933  31.424  10.498   8.864
 2851POPC   GL237934  31.544  10.412   8.864
 2851POPC   C1A37935  31.461  10.492   8.564
 2851POPC   D2A37936  31.490  10.507   8.264
 2851POPC   C3A37937  31.471  10.480   7.964
 2851POPC   C4A37938  31.446  10.561   7.664
 2851POPC   C1B37939  31.578  10.356   8.564
 2851POPC   C2B37940  31.589  10.357   8.264
 2851POPC   C3B37941  31.630  10.277   7.964
 2851POPC   C4B37942  31.641  10.285   7.664
 2852POPC   NC337943  30.658   4.317   9.464
 2852POPC   PO437944  30.664   4.367   9.164
 2852POPC   GL137945  30.692   4.360   8.864
 2852POPC   GL237946  30.618   4.385   8.864
 2852POPC   C1A37947  30.708   4.279   8.564
 2852POPC   D2A37948  30.656   4.305   8.264
 2852POPC   C3A37949  30.680   4.289   7.964
 2852POPC   C4A37950  30.732   4.362   7.664
 2852POPC   C1B37951  30.450   4.398   8.564
 2852POPC   C2B37952  30.428   4.403   8.264
 2852POPC   C3B37953  30.449   4.368   7.964
 2852POPC   C4B37954  30.504   4.364   7.664
 2853POPC   NC337955   5.132  38.427   9.464
 2853POPC   PO437956   5.092  38.485   9.164
 2853POPC   GL137957   5.133  38.457   8.864
 2853POPC   GL237958   5.208  38.467   8.864
 2853POPC   C1A37959   5.137  38.456   8.564
 2853POPC   D2A37960   5.081  38.465   8.264
 2853POPC   C3A37961   5.060  38.430   7.964
 2853POPC   C4A37962   5.090  38.501   7.664
 2853POPC   C1B37963   5.321  38.485   8.564
 2853POPC   C2B37964   5.296  38.557   8.264
 2853POPC   C3B37965   5.292  38.504   7.964
 2853POPC   C4B37966   5.312  38.558   7.664
 2854POPC   NC337967   1.963  31.490   9.464
 2854POPC   PO437968   1.998  31.484   9.164
 2854POPC   GL137969   1.955  31.476   8.864
 2854POPC   GL237970   1.951  31.573   8.864
 2854POPC   C1A37971   1.977  31.447   8.564
 2854POPC   D2A37972   1.978  31.430   8.264
 2854POPC   C3A37973   1.982  31.466   7.964
 2854POPC   C4A37974   2.006  31.456   7.664
 2854POPC   C1B37975   1.851  31.658   8.564
 2854POPC   C2B37976   1.925  31.714   8.264
 2854POPC   C3B37977   1.867  31.706   7.964
 2854POPC   C4B37978   1.904  31.697   7.664
 2855POPC   NC337979  29.170  41.512   9.464
 2855POPC   PO437980  29.189  41.596   9.164
 2855POPC   GL137981  29.152  41.570   8.864
 2855POPC   GL237982  29.164  41.469   8.864
 2855POPC   C1A37983  29.192  41.535   8.564
 2855POPC   D2A37984  29.176  41.597   8.264
 2855POPC   C3A37985  29.183  41.539   7.964
 2855POPC   C4A37986  29.173  41.596   7.664
 2855POPC   C1B37987  29.261  41.365   8.564
 2855POPC   C2B37988  29.272  41.325   8.264
 2855POPC   C3B37989  29.257  41.326   7.964
 2855POPC   C4B37990  29.271  41.302   7.664
 2856POPC   NC337991  40.765  12.028   9.464
 2856POPC   PO437992  40.821  12.091   9.164
 2856POPC   GL137993  40.815  12.074   8.864
 2856POPC   GL237994  40.782  12.167   8.864
 2856POPC   C1A37995  40.796  12.095   8.564
 2856POPC   D2A37996  40.769  12.070   8.264
 2856POPC   C3A37997  40.787  12.068   7.964
 2856POPC   C4A37998  40.785  12.054   7.664
 2856POPC   C1B37999  40.910  12.312   8.564
 2856POPC   C2B38000  40.880  12.330   8.264
 2856POPC   C3B38001  40.911  12.273   7.964
 2856POPC   C4B38002  40.864  12.349   7.664
 2857POPC   NC338003  30.714  26.045   9.464
 2857POPC   PO438004  30.746  26.012   9.164
 2857POPC   GL138005  30.698  26.053   8.864
 2857POPC   GL238006  30.811  26.016   8.864
 2857POPC   C1A38007  30.665  26.078   8.564
 2857POPC   D2A38008  30.673  26.070   8.264
 2857POPC   C3A38009  30.719  26.055   7.964
 2857POPC   C4A38010  30.654  26.014   7.664
 2857POPC   C1B38011  30.862  25.939   8.564
 2857POPC   C2B38012  30.896  25.899   8.264
 2857POPC   C3B38013  30.877  25.888   7.964
 2857POPC   C4B38014  30.900  25.908   7.664
 2858POPC   NC338015   5.855  19.067   9.464
 2858POPC   PO438016   5.880  19.042   9.164
 2858POPC   GL138017   5.864  19.062   8.864
 2858POPC   GL238018   5.912  19.146   8.864
 2858POPC   C1A38019   5.912  19.026   8.564
 2858POPC   D2A38020   5.888  19.092   8.264
 2858POPC   C3A38021   5.916  19.058   7.964
 2858POPC   C4A38022   5.895  19.023   7.664
 2858POPC   C1B38023   6.007  19.226   8.564
 2858POPC   C2B38024   6.050  19.288   8.264
 2858POPC   C3B38025   6.011  19.314   7.964
 2858POPC   C4B38026   6.038  19.268   7.664
 2859POPC   NC338027   9.789  17.498   9.464
 2859POPC   PO438028   9.759  17.544   9.164
 2859POPC   GL138029   9.699  17.473   8.864
 2859POPC   GL238030   9.610  17.518   8.864
 2859POPC   C1A38031   9.725  17.538   8.564
 2859POPC   D2A38032   9.736  17.513   8.264
 2859POPC   C3A38033   9.766  17.485   7.964
 2859POPC   C4A38034   9.728  17.500   7.664
 2859POPC   C1B38035   9.534  17.478   8.564
 2859POPC   C2B38036   9.461  17.461   8.264
 2859POPC   C3B38037   9.547  17.432   7.964
 2859POPC   C4B38038   9.497  17.503   7.664
 2860POPC   NC338039  33.799  15.935   9.464
 2860POPC   PO438040  33.771  15.999   9.164
 2860POPC   GL138041  33.804  15.951   8.864
 2860POPC   GL238042  33.886  15.942   8.864
 2860POPC   C1A38043  33.812  15.976   8.564
 2860POPC   D2A38044  33.803  15.985   8.264
 2860POPC   C3A38045  33.807  15.964   7.964
 2860POPC   C4A38046  33.805  15.985   7.664
 2860POPC   C1B38047  34.007  15.900   8.564
 2860POPC   C2B38048  34.080  15.906   8.264
 2860POPC   C3B38049  34.048  15.922   7.964
 2860POPC   C4B38050  34.053  15.951   7.664
 2861POPC   NC338051  34.587  36.126   9.464
 2861POPC   PO438052  34.576  36.161   9.164
 2861POPC   GL138053  34.589  36.156   8.864
 2861POPC   GL238054  34.720  36.189   8.864
 2861POPC   C1A38055  34.568  36.109   8.564
 2861POPC   D2A38056  34.580  36.081   8.264
 2861POPC   C3A38057  34.605  36.112   7.964
 2861POPC   C4A38058  34.616  36.160   7.664
 2861POPC   C1B38059  34.773  36.171   8.564
 2861POPC   C2B38060  34.845  36.159   8.264
 2861POPC   C3B38061  34.783  36.203   7.964
 2861POPC   C4B38062  34.807  36.240   7.664
 2862POPC   NC338063  24.530  31.449   9.464
 2862POPC   PO438064  24.538  31.467   9.164
 2862POPC   GL138065  24.511  31.466   8.864
 2862POPC   GL238066  24.369  31.439   8.864
 2862POPC   C1A38067  24.539  31.444   8.564
 2862POPC   D2A38068  24.467  31.433   8.264
 2862POPC   C3A38069  24.529  31.514   7.964
 2862POPC   C4A38070  24.498  31.426   7.664
 2862POPC   C1B38071  24.233  31.412   8.564
 2862POPC   C2B38072  24.207  31.445   8.264
 2862POPC   C3B38073  24.263  31.390   7.964
 2862POPC   C4B38074  24.269  31.413   7.664
 2863POPC   NC338075  16.759  41.532   9.464
 2863POPC   PO438076  16.688  41.590   9.164
 2863POPC   GL138077  16.734  41.567   8.864
 2863POPC   GL238078  16.812  41.678   8.864
 2863POPC   C1A38079  16.714  41.604   8.564
 2863POPC   D2A38080  16.774  41.540   8.264
 2863POPC   C3A38081  16.764  41.526   7.964
 2863POPC   C4A38082  16.701  41.558   7.664
 2863POPC   C1B38083  16.866  41.788   8.564
 2863POPC   C2B38084  16.860  41.798   8.264
 2863POPC   C3B38085  16.872  41.773   7.964
 2863POPC   C4B38086  16.872  41.777   7.664
 2864POPC   NC338087  19.028  20.641   9.464
 2864POPC   PO438088  19.105  20.599   9.164
 2864POPC   GL138089  19.020  20.611   8.864
 2864POPC   GL238090  18.954  20.576   8.864
 2864POPC   C1A38091  19.080  20.622   8.564
 2864POPC   D2A38092  19.062  20.581   8.264
 2864POPC   C3A38093  19.038  20.621   7.964
 2864POPC   C4A38094  19.036  20.648   7.664
 2864POPC   C1B38095  18.777  20.557   8.564
 2864POPC   C2B38096  18.830  20.609   8.264
 2864POPC   C3B38097  18.827  20.552   7.964
 2864POPC   C4B38098  18.851  20.634   7.664
 2865POPC   NC338099  40.046  19.857   9.464
 2865POPC   PO438100  40.014  19.832   9.164
 2865POPC   GL138101  40.039  19.841   8.864
 2865POPC   GL238102  40.068  19.757   8.864
 2865POPC   C1A38103  40.008  19.875   8.564
 2865POPC   D2A38104  39.990  19.851   8.264
 2865POPC   C3A38105  40.044  19.830   7.964
 2865POPC   C4A38106  40.006  19.855   7.664
 2865POPC   C1B38107  40.258  19.696   8.564
 2865POPC   C2B38108  40.220  19.664   8.264
 2865POPC   C3B38109  40.185  19.737   7.964
 2865POPC   C4B38110  40.262  19.660   7.664
 2866POPC   NC338111   6.645  16.729   9.464
 2866POPC   PO438112   6.647  16.775   9.164
 2866POPC   GL138113   6.682  16.708   8.864
 2866POPC   GL238114   6.668  16.813   8.864
 2866POPC   C1A38115   6.665  16.757   8.564
 2866POPC   D2A38116   6.630  16.732   8.264
 2866POPC   C3A38117   6.638  16.681   7.964
 2866POPC   C4A38118   6.664  16.695   7.664
 2866POPC   C1B38119   6.647  16.949   8.564
 2866POPC   C2B38120   6.652  17.009   8.264
 2866POPC   C3B38121   6.642  16.932   7.964
 2866POPC   C4B38122   6.689  16.934   7.664
 2867POPC   NC338123  22.941  33.045   9.464
 2867POPC   PO438124  22.933  33.072   9.164
 2867POPC   GL138125  22.970  33.074   8.864
 2867POPC   GL238126  22.930  32.896   8.864
 2867POPC   C1A38127  22.933  33.073   8.564
 2867POPC   D2A38128  22.954  33.055   8.264
 2867POPC   C3A38129  22.902  32.992   7.964
 2867POPC   C4A38130  22.928  32.995   7.664
 2867POPC   C1B38131  22.873  32.796   8.564
 2867POPC   C2B38132  22.928  32.784   8.264
 2867POPC   C3B38133  22.895  32.777   7.964
 2867POPC   C4B38134  22.949  32.775   7.664
 2868POPC   NC338135  37.716   9.720   9.464
 2868POPC   PO438136  37.660   9.717   9.164
 2868POPC   GL138137  37.672   9.721   8.864
 2868POPC   GL238138  37.735   9.616   8.864
 2868POPC   C1A38139  37.669   9.773   8.564
 2868POPC   D2A38140  37.672   9.773   8.264
 2868POPC   C3A38141  37.632   9.776   7.964
 2868POPC   C4A38142  37.683   9.751   7.664
 2868POPC   C1B38143  37.830   9.582   8.564
 2868POPC   C2B38144  37.834   9.514   8.264
 2868POPC   C3B38145  37.798   9.570   7.964
 2868POPC   C4B38146  37.828   9.584   7.664
 2869POPC   NC338147  27.626  32.214   9.464
 2869POPC   PO438148  27.583  32.235   9.164
 2869POPC   GL138149  27.615  32.199   8.864
 2869POPC   GL238150  27.522  32.157   8.864
 2869POPC   C1A38151  27.554  32.210   8.564
 2869POPC   D2A38152  27.574  32.293   8.264
 2869POPC   C3A38153  27.586  32.236   7.964
 2869POPC   C4A38154  27.624  32.266   7.664
 2869POPC   C1B38155  27.522  32.021   8.564
 2869POPC   C2B38156  27.490  32.009   8.264
 2869POPC   C3B38157  27.554  32.030   7.964
 2869POPC   C4B38158  27.512  31.967   7.664
 2870POPC   NC338159   1.224  33.069   9.464
 2870POPC   PO438160   1.217  33.051   9.164
 2870POPC   GL138161   1.236  33.001   8.864
 2870POPC   GL238162   1.238  32.903   8.864
 2870POPC   C1A38163   1.240  33.017   8.564
 2870POPC   D2A38164   1.179  33.002   8.264
 2870POPC   C3A38165   1.222  33.049   7.964
 2870POPC   C4A38166   1.229  33.035   7.664
 2870POPC   C1B38167   1.324  32.773   8.564
 2870POPC   C2B38168   1.321  32.819   8.264
 2870POPC   C3B38169   1.341  32.760   7.964
 2870POPC   C4B38170   1.333  32.845   7.664
 2871POPC   NC338171  29.189   5.831   9.464
 2871POPC   PO438172  29.098   5.912   9.164
 2871POPC   GL138173  29.166   5.861   8.864
 2871POPC   GL238174  29.093   5.953   8.864
 2871POPC   C1A38175  29.095   5.881   8.564
 2871POPC   D2A38176  29.147   5.868   8.264
 2871POPC   C3A38177  29.115   5.848   7.964
 2871POPC   C4A38178  29.135   5.823   7.664
 2871POPC   C1B38179  29.159   6.157   8.564
 2871POPC   C2B38180  29.116   6.129   8.264
 2871POPC   C3B38181  29.130   6.154   7.964
 2871POPC   C4B38182  29.114   6.097   7.664
 2872POPC   NC338183  21.369  15.190   9.464
 2872POPC   PO438184  21.400  15.144   9.164
 2872POPC   GL138185  21.430  15.170   8.864
 2872POPC   GL238186  21.282  15.087   8.864
 2872POPC   C1A38187  21.435  15.222   8.564
 2872POPC   D2A38188  21.406  15.180   8.264
 2872POPC   C3A38189  21.351  15.137   7.964
 2872POPC   C4A38190  21.415  15.144   7.664
 2872POPC   C1B38191  21.169  15.100   8.564
 2872POPC   C2B38192  21.103  15.069   8.264
 2872POPC   C3B38193  21.119  15.102   7.964
 2872POPC   C4B38194  21.121  15.057   7.664
 2873POPC   NC338195   6.655  15.905   9.464
 2873POPC   PO438196   6.596  15.918   9.164
 2873POPC   GL138197   6.677  15.936   8.864
 2873POPC   GL238198   6.763  15.833   8.864
 2873POPC   C1A38199   6.611  15.924   8.564
 2873POPC   D2A38200   6.685  15.944   8.264
 2873POPC   C3A38201   6.615  15.942   7.964
 2873POPC   C4A38202   6.678  16.004   7.664
 2873POPC   C1B38203   6.775  15.750   8.564
 2873POPC   C2B38204   6.792  15.738   8.264
 2873POPC   C3B38205   6.837  15.750   7.964
 2873POPC   C4B38206   6.873  15.810   7.664
 2874POPC   NC338207  22.127  11.265   9.464
 2874POPC   PO438208  22.145  11.292   9.164
 2874POPC   GL138209  22.129  11.287   8.864
 2874POPC   GL238210  22.255  11.188   8.864
 2874POPC   C1A38211  22.151  11.252   8.564
 2874POPC   D2A38212  22.170  11.268   8.264
 2874POPC   C3A38213  22.185  11.319   7.964
 2874POPC   C4A38214  22.144  11.269   7.664
 2874POPC   C1B38215  22.302  11.117   8.564
 2874POPC   C2B38216  22.353  11.173   8.264
 2874POPC   C3B38217  22.306  11.117   7.964
 2874POPC   C4B38218  22.372  11.114   7.664
 2875POPC   NC338219  37.639  20.659   9.464
 2875POPC   PO438220  37.704  20.616   9.164
 2875POPC   GL138221  37.634  20.612   8.864
 2875POPC   GL238222  37.585  20.501   8.864
 2875POPC   C1A38223  37.638  20.565   8.564
 2875POPC   D2A38224  37.663  20.630   8.264
 2875POPC   C3A38225  37.699  20.562   7.964
 2875POPC   C4A38226  37.673  20.633   7.664
 2875POPC   C1B38227  37.517  20.419   8.564
 2875POPC   C2B38228  37.487  20.481   8.264
 2875POPC   C3B38229  37.494  20.402   7.964
 2875POPC   C4B38230  37.511  20.430   7.664
 2876POPC   NC338231  34.560   7.390   9.464
 2876POPC   PO438232  34.535   7.376   9.164
 2876POPC   GL138233  34.592   7.402   8.864
 2876POPC   GL238234  34.568   7.345   8.864
 2876POPC   C1A38235  34.527   7.430   8.564
 2876POPC   D2A38236  34.613   7.406   8.264
 2876POPC   C3A38237  34.605   7.371   7.964
 2876POPC   C4A38238  34.617   7.456   7.664
 2876POPC   C1B38239  34.645   7.204   8.564
 2876POPC   C2B38240  34.691   7.222   8.264
 2876POPC   C3B38241  34.670   7.227   7.964
 2876POPC   C4B38242  34.610   7.200   7.664
 2877POPC   NC338243   8.171  34.568   9.464
 2877POPC   PO438244   8.191  34.543   9.164
 2877POPC   GL138245   8.228  34.576   8.864
 2877POPC   GL238246   8.084  34.490   8.864
 2877POPC   C1A38247   8.194  34.577   8.564
 2877POPC   D2A38248   8.149  34.619   8.264
 2877POPC   C3A38249   8.193  34.556   7.964
 2877POPC   C4A38250   8.185  34.598   7.664
 2877POPC   C1B38251   7.993  34.356   8.564
 2877POPC   C2B38252   8.044  34.355   8.264
 2877POPC   C3B38253   8.074  34.357   7.964
 2877POPC   C4B38254   8.023  34.427   7.664
 2878POPC   NC338255  20.566  36.935   9.464
 2878POPC   PO438256  20.602  36.856   9.164
 2878POPC   GL138257  20.605  36.929   8.864
 2878POPC   GL238258  20.598  36.817   8.864
 2878POPC   C1A38259  20.653  36.930   8.564
 2878POPC   D2A38260  20.610  36.855   8.264
 2878POPC   C3A38261  20.645  36.945   7.964
 2878POPC   C4A38262  20.583  36.939   7.664
 2878POPC   C1B38263  20.633  36.632   8.564
 2878POPC   C2B38264  20.635  36.661   8.264
 2878POPC   C3B38265  20.605  36.617   7.964
 2878POPC   C4B38266  20.618  36.665   7.664
 2879POPC   NC338267  22.190   1.233   9.464
 2879POPC   PO438268  22.176   1.181   9.164
 2879POPC   GL138269  22.155   1.181   8.864
 2879POPC   GL238270  22.060   1.289   8.864
 2879POPC   C1A38271  22.205   1.243   8.564
 2879POPC   D2A38272  22.180   1.217   8.264
 2879POPC   C3A38273  22.152   1.166   7.964
 2879POPC   C4A38274  22.171   1.223   7.664
 2879POPC   C1B38275  21.990   1.424   8.564
 2879POPC   C2B38276  21.998   1.465   8.264
 2879POPC   C3B38277  22.067   1.463   7.964
 2879POPC   C4B38278  22.053   1.431   7.664
 2880POPC   NC338279  26.036  26.072   9.464
 2880POPC   PO438280  26.063  26.085   9.164
 2880POPC   GL138281  26.034  26.004   8.864
 2880POPC   GL238282  26.143  26.109   8.864
 2880POPC   C1A38283  26.019  26.009   8.564
 2880POPC   D2A38284  26.008  26.088   8.264
 2880POPC   C3A38285  26.043  26.027   7.964
 2880POPC   C4A38286  26.061  26.005   7.664
 2880POPC   C1B38287  26.307  26.113   8.564
 2880POPC   C2B38288  26.284  26.119   8.264
 2880POPC   C3B38289  26.274  26.164   7.964
 2880POPC   C4B38290  26.238  26.110   7.664
 2881POPC   NC338291   4.353   0.442   9.464
 2881POPC   PO438292   4.344   0.416   9.164
 2881POPC   GL138293   4.284   0.409   8.864
 2881POPC   GL238294   4.170   0.435   8.864
 2881POPC   C1A38295   4.269   0.420   8.564
 2881POPC   D2A38296   4.313   0.448   8.264
 2881POPC   C3A38297   4.358   0.389   7.964
 2881POPC   C4A38298   4.364   0.447   7.664
 2881POPC   C1B38299   4.034   0.569   8.564
 2881POPC   C2B38300   4.057   0.533   8.264
 2881POPC   C3B38301   4.068   0.536   7.964
 2881POPC   C4B38302   4.078   0.474   7.664
 2882POPC   NC338303   0.401  20.573   9.464
 2882POPC   PO438304   0.467  20.652   9.164
 2882POPC   GL138305   0.395  20.595   8.864
 2882POPC   GL238306   0.312  20.521   8.864
 2882POPC   C1A38307   0.430  20.645   8.564
 2882POPC   D2A38308   0.414  20.613   8.264
 2882POPC   C3A38309   0.431  20.616   7.964
 2882POPC   C4A38310   0.478  20.641   7.664
 2882POPC   C1B38311   0.223  20.491   8.564
 2882POPC   C2B38312   0.164  20.476   8.264
 2882POPC   C3B38313   0.214  20.489   7.964
 2882POPC   C4B38314   0.178  20.504   7.664
 2883POPC   NC338315  21.348   8.990   9.464
 2883POPC   PO438316  21.411   8.927   9.164
 2883POPC   GL138317  21.357   8.963   8.864
 2883POPC   GL238318  21.360   8.801   8.864
 2883POPC   C1A38319  21.416   8.986   8.564
 2883POPC   D2A38320  21.373   8.971   8.264
 2883POPC   C3A38321  21.367   9.002   7.964
 2883POPC   C4A38322  21.361   8.946   7.664
 2883POPC   C1B38323  21.364   8.730   8.564
 2883POPC   C2B38324  21.405   8.698   8.264
 2883POPC   C3B38325  21.370   8.700   7.964
 2883POPC   C4B38326  21.390   8.720   7.664
 2884POPC   NC338327  33.796   8.194   9.464
 2884POPC   PO438328  33.815   8.173   9.164
 2884POPC   GL138329  33.758   8.194   8.864
 2884POPC   GL238330  33.658   8.199   8.864
 2884POPC   C1A38331  33.841   8.187   8.564
 2884POPC   D2A38332  33.825   8.170   8.264
 2884POPC   C3A38333  33.808   8.238   7.964
 2884POPC   C4A38334  33.800   8.154   7.664
 2884POPC   C1B38335  33.577   8.156   8.564
 2884POPC   C2B38336  33.570   8.227   8.264
 2884POPC   C3B38337  33.528   8.154   7.964
 2884POPC   C4B38338  33.514   8.175   7.664
 2885POPC   NC338339  35.398   5.918   9.464
 2885POPC   PO438340  35.391   5.838   9.164
 2885POPC   GL138341  35.396   5.836   8.864
 2885POPC   GL238342  35.473   5.875   8.864
 2885POPC   C1A38343  35.321   5.837   8.564
 2885POPC   D2A38344  35.303   5.872   8.264
 2885POPC   C3A38345  35.305   5.848   7.964
 2885POPC   C4A38346  35.334   5.887   7.664
 2885POPC   C1B38347  35.646   5.887   8.564
 2885POPC   C2B38348  35.648   5.882   8.264
 2885POPC   C3B38349  35.636   5.830   7.964
 2885POPC   C4B38350  35.636   5.856   7.664
 2886POPC   NC338351  36.084  19.825   9.464
 2886POPC   PO438352  36.080  19.835   9.164
 2886POPC   GL138353  36.167  19.822   8.864
 2886POPC   GL238354  36.278  19.799   8.864
 2886POPC   C1A38355  36.125  19.873   8.564
 2886POPC   D2A38356  36.167  19.844   8.264
 2886POPC   C3A38357  36.124  19.819   7.964
 2886POPC   C4A38358  36.142  19.838   7.664
 2886POPC   C1B38359  36.314  19.704   8.564
 2886POPC   C2B38360  36.388  19.760   8.264
 2886POPC   C3B38361  36.361  19.776   7.964
 2886POPC   C4B38362  36.388  19.768   7.664
 2887POPC   NC338363  41.537  15.980   9.464
 2887POPC   PO438364  41.538  15.951   9.164
 2887POPC   GL138365  41.584  15.908   8.864
 2887POPC   GL238366  41.574  16.036   8.864
 2887POPC   C1A38367  41.536  15.954   8.564
 2887POPC   D2A38368  41.537  15.923   8.264
 2887POPC   C3A38369  41.548  15.974   7.964
 2887POPC   C4A38370  41.515  15.976   7.664
 2887POPC   C1B38371  41.652  16.206   8.564
 2887POPC   C2B38372  41.694  16.173   8.264
 2887POPC   C3B38373  41.609  16.186   7.964
 2887POPC   C4B38374  41.658  16.150   7.664
 2888POPC   NC338375  27.622  41.599   9.464
 2888POPC   PO438376  27.601  41.511   9.164
 2888POPC   GL138377  27.592  41.554   8.864
 2888POPC   GL238378  27.448  41.639   8.864
 2888POPC   C1A38379  27.585  41.597   8.564
 2888POPC   D2A38380  27.614  41.594   8.264
 2888POPC   C3A38381  27.627  41.529   7.964
 2888POPC   C4A38382  27.547  41.547   7.664
 2888POPC   C1B38383  27.431  41.745   8.564
 2888POPC   C2B38384  27.341  41.687   8.264
 2888POPC   C3B38385  27.381  41.664   7.964
 2888POPC   C4B38386  27.392  41.686   7.664
 2889POPC   NC338387  40.774  21.370   9.464
 2889POPC   PO438388  40.773  21.376   9.164
 2889POPC   GL138389  40.779  21.418   8.864
 2889POPC   GL238390  40.641  21.305   8.864
 2889POPC   C1A38391  40.823  21.350   8.564
 2889POPC   D2A38392  40.803  21.385   8.264
 2889POPC   C3A38393  40.757  21.399   7.964
 2889POPC   C4A38394  40.793  21.353   7.664
 2889POPC   C1B38395  40.525  21.274   8.564
 2889POPC   C2B38396  40.567  21.273   8.264
 2889POPC   C3B38397  40.535  21.355   7.964
 2889POPC   C4B38398  40.588  21.345   7.664
 2890POPC   NC338399  10.488  11.300   9.464
 2890POPC   PO438400  10.564  11.333   9.164
 2890POPC   GL138401  10.546  11.329   8.864
 2890POPC   GL238402  10.632  11.416   8.864
 2890POPC   C1A38403  10.555  11.324   8.564
 2890POPC   D2A38404  10.520  11.267   8.264
 2890POPC   C3A38405  10.511  11.263   7.964
 2890POPC   C4A38406  10.491  11.301   7.664
 2890POPC   C1B38407  10.780  11.429   8.564
 2890POPC   C2B38408  10.772  11.402   8.264
 2890POPC   C3B38409  10.741  11.421   7.964
 2890POPC   C4B38410  10.756  11.438   7.664
 2891POPC   NC338411  17.520  36.130   9.464
 2891POPC   PO438412  17.515  36.173   9.164
 2891POPC   GL138413  17.528  36.145   8.864
 2891POPC   GL238414  17.590  36.069   8.864
 2891POPC   C1A38415  17.546  36.150   8.564
 2891POPC   D2A38416  17.489  36.123   8.264
 2891POPC   C3A38417  17.461  36.136   7.964
 2891POPC   C4A38418  17.527  36.107   7.664
 2891POPC   C1B38419  17.664  35.936   8.564
 2891POPC   C2B38420  17.679  35.891   8.264
 2891POPC   C3B38421  17.661  35.968   7.964
 2891POPC   C4B38422  17.643  35.955   7.664
 2892POPC   NC338423  40.767   1.955   9.464
 2892POPC   PO438424  40.815   1.943   9.164
 2892POPC   GL138425  40.817   2.019   8.864
 2892POPC   GL238426  40.729   1.849   8.864
 2892POPC   C1A38427  40.771   2.031   8.564
 2892POPC   D2A38428  40.738   1.976   8.264
 2892POPC   C3A38429  40.744   1.966   7.964
 2892POPC   C4A38430  40.737   2.033   7.664
 2892POPC   C1B38431  40.696   1.788   8.564
 2892POPC   C2B38432  40.756   1.708   8.264
 2892POPC   C3B38433  40.714   1.781   7.964
 2892POPC   C4B38434  40.704   1.775   7.664
 2893POPC   NC338435   7.407   7.401   9.464
 2893POPC   PO438436   7.422   7.411   9.164
 2893POPC   GL138437   7.443   7.412   8.864
 2893POPC   GL238438   7.429   7.495   8.864
 2893POPC   C1A38439   7.451   7.403   8.564
 2893POPC   D2A38440   7.394   7.446   8.264
 2893POPC   C3A38441   7.423   7.381   7.964
 2893POPC   C4A38442   7.451   7.464   7.664
 2893POPC   C1B38443   7.343   7.691   8.564
 2893POPC   C2B38444   7.310   7.633   8.264
 2893POPC   C3B38445   7.364   7.688   7.964
 2893POPC   C4B38446   7.354   7.676   7.664
 2894POPC   NC338447  30.684  19.063   9.464
 2894POPC   PO438448  30.675  19.024   9.164
 2894POPC   GL138449  30.688  19.022   8.864
 2894POPC   GL238450  30.776  18.999   8.864
 2894POPC   C1A38451  30.709  19.012   8.564
 2894POPC   D2A38452  30.709  19.072   8.264
 2894POPC   C3A38453  30.654  19.049   7.964
 2894POPC   C4A38454  30.685  19.042   7.664
 2894POPC   C1B38455  30.978  19.036   8.564
 2894POPC   C2B38456  30.906  19.034   8.264
 2894POPC   C3B38457  30.992  18.985   7.964
 2894POPC   C4B38458  30.983  19.023   7.664
 2895POPC   NC338459   1.252   7.448   9.464
 2895POPC   PO438460   1.187   7.397   9.164
 2895POPC   GL138461   1.188   7.371   8.864
 2895POPC   GL238462   1.336   7.328   8.864
 2895POPC   C1A38463   1.216   7.468   8.564
 2895POPC   D2A38464   1.188   7.442   8.264
 2895POPC   C3A38465   1.199   7.380   7.964
 2895POPC   C4A38466   1.188   7.398   7.664
 2895POPC   C1B38467   1.379   7.302   8.564
 2895POPC   C2B38468   1.432   7.252   8.264
 2895POPC   C3B38469   1.446   7.307   7.964
 2895POPC   C4B38470   1.424   7.313   7.664
 2896POPC   NC338471   8.985  39.274   9.464
 2896POPC   PO438472   8.967  39.213   9.164
 2896POPC   GL138473   8.982  39.245   8.864
 2896POPC   GL238474   9.109  39.198   8.864
 2896POPC   C1A38475   9.021  39.276   8.564
 2896POPC   D2A38476   8.998  39.209   8.264
 2896POPC   C3A38477   8.962  39.260   7.964
 2896POPC   C4A38478   8.998  39.268   7.664
 2896POPC   C1B38479   9.214  39.146   8.564
 2896POPC   C2B38480   9.249  39.194   8.264
 2896POPC   C3B38481   9.252  39.223   7.964
 2896POPC   C4B38482   9.176  39.215   7.664
 2897POPC   NC338483  12.030  17.461   9.464
 2897POPC   PO438484  12.051  17.514   9.164
 2897POPC   GL138485  12.095  17.466   8.864
 2897POPC   GL238486  12.194  17.551   8.864
 2897POPC   C1A38487  12.033  17.515   8.564
 2897POPC   D2A38488  12.068  17.514   8.264
 2897POPC   C3A38489  12.102  17.496   7.964
 2897POPC   C4A38490  12.040  17.479   7.664
 2897POPC   C1B38491  12.300  17.624   8.564
 2897POPC   C2B38492  12.268  17.713   8.264
 2897POPC   C3B38493  12.267  17.716   7.964
 2897POPC   C4B38494  12.303  17.715   7.664
 2898POPC   NC338495  37.643   2.019   9.464
 2898POPC   PO438496  37.686   2.033   9.164
 2898POPC   GL138497  37.676   1.972   8.864
 2898POPC   GL238498  37.603   2.063   8.864
 2898POPC   C1A38499  37.726   1.952   8.564
 2898POPC   D2A38500  37.689   1.942   8.264
 2898POPC   C3A38501  37.674   2.012   7.964
 2898POPC   C4A38502  37.657   1.993   7.664
 2898POPC   C1B38503  37.539   2.246   8.564
 2898POPC   C2B38504  37.607   2.176   8.264
 2898POPC   C3B38505  37.551   2.193   7.964
 2898POPC   C4B38506  37.529   2.211   7.664
 2899POPC   NC338507  29.911  34.560   9.464
 2899POPC   PO438508  29.939  34.539   9.164
 2899POPC   GL138509  29.937  34.574   8.864
 2899POPC   GL238510  29.921  34.451   8.864
 2899POPC   C1A38511  29.894  34.622   8.564
 2899POPC   D2A38512  29.963  34.573   8.264
 2899POPC   C3A38513  29.957  34.562   7.964
 2899POPC   C4A38514  29.882  34.548   7.664
 2899POPC   C1B38515  29.924  34.352   8.564
 2899POPC   C2B38516  29.862  34.357   8.264
 2899POPC   C3B38517  29.909  34.309   7.964
 2899POPC   C4B38518  29.874  34.280   7.664
 2900POPC   NC338519  41.598  37.664   9.464
 2900POPC   PO438520  41.575  37.682   9.164
 2900POPC   GL138521  41.595  37.697   8.864
 2900POPC   GL238522  41.480  37.562   8.864
 2900POPC   C1A38523  41.519  37.672   8.564
 2900POPC   D2A38524  41.537  37.679   8.264
 2900POPC   C3A38525  41.560  37.717   7.964
 2900POPC   C4A38526  41.557  37.630   7.664
 2900POPC   C1B38527  41.319  37.558   8.564
 2900POPC   C2B38528  41.402  37.491   8.264
 2900POPC   C3B38529  41.355  37.506   7.964
 2900POPC   C4B38530  41.319  37.543   7.664
 2901POPC   NC338531  28.383  37.642   9.464
 2901POPC   PO438532  28.372  37.685   9.164
 2901POPC   GL138533  28.393  37.667   8.864
 2901POPC   GL238534  28.451  37.564   8.864
 2901POPC   C1A38535  28.373  37.723   8.564
 2901POPC   D2A38536  28.383  37.688   8.264
 2901POPC   C3A38537  28.410  37.632   7.964
 2901POPC   C4A38538  28.360  37.722   7.664
 2901POPC   C1B38539  28.568  37.480   8.564
 2901POPC   C2B38540  28.587  37.534   8.264
 2901POPC   C3B38541  28.523  37.468   7.964
 2901POPC   C4B38542  28.592  37.548   7.664
 2902POPC   NC338543   1.968   5.896   9.464
 2902POPC   PO438544   2.014   5.834   9.164
 2902POPC   GL138545   2.021   5.889   8.864
 2902POPC   GL238546   2.072   5.776   8.864
 2902POPC   C1A38547   2.006   5.834   8.564
 2902POPC   D2A38548   1.976   5.824   8.264
 2902POPC   C3A38549   1.966   5.872   7.964
 2902POPC   C4A38550   1.969   5.914   7.664
 2902POPC   C1B38551   2.234   5.764   8.564
 2902POPC   C2B38552   2.224   5.758   8.264
 2902POPC   C3B38553   2.232   5.739   7.964
 2902POPC   C4B38554   2.195   5.734   7.664
 2903POPC   NC338555  10.555   9.773   9.464
 2903POPC   PO438556  10.544   9.713   9.164
 2903POPC   GL138557  10.546   9.795   8.864
 2903POPC   GL238558  10.579   9.866   8.864
 2903POPC   C1A38559  10.555   9.699   8.564
 2903POPC   D2A38560  10.506   9.713   8.264
 2903POPC   C3A38561  10.542   9.756   7.964
 2903POPC   C4A38562  10.502   9.796   7.664
 2903POPC   C1B38563  10.548  10.036   8.564
 2903POPC   C2B38564  10.558  10.024   8.264
 2903POPC   C3B38565  10.553  10.029   7.964
 2903POPC   C4B38566  10.607   9.979   7.664
 2904POPC   NC338567  25.251  25.272   9.464
 2904POPC   PO438568  25.221  25.239   9.164
 2904POPC   GL138569  25.224  25.235   8.864
 2904POPC   GL238570  25.400  25.243   8.864
 2904POPC   C1A38571  25.236  25.277   8.564
 2904POPC   D2A38572  25.225  25.234   8.264
 2904POPC   C3A38573  25.235  25.269   7.964
 2904POPC   C4A38574  25.300  25.257   7.664
 2904POPC   C1B38575  25.540  25.353   8.564
 2904POPC   C2B38576  25.517  25.317   8.264
 2904POPC   C3B38577  25.482  25.333   7.964
 2904POPC   C4B38578  25.494  25.310   7.664
 2905POPC   NC338579   7.459  33.782   9.464
 2905POPC   PO438580   7.462  33.849   9.164
 2905POPC   GL138581   7.459  33.799   8.864
 2905POPC   GL238582   7.322  33.806   8.864
 2905POPC   C1A38583   7.449  33.848   8.564
 2905POPC   D2A38584   7.404  33.807   8.264
 2905POPC   C3A38585   7.462  33.811   7.964
 2905POPC   C4A38586   7.393  33.824   7.664
 2905POPC   C1B38587   7.148  33.772   8.564
 2905POPC   C2B38588   7.215  33.802   8.264
 2905POPC   C3B38589   7.178  33.750   7.964
 2905POPC   C4B38590   7.140  33.760   7.664
 2906POPC   NC338591  12.108  15.145   9.464
 2906POPC   PO438592  12.119  15.218   9.164
 2906POPC   GL138593  12.084  15.202   8.864
 2906POPC   GL238594  11.942  15.191   8.864
 2906POPC   C1A38595  12.039  15.146   8.564
 2906POPC   D2A38596  12.106  15.142   8.264
 2906POPC   C3A38597  12.065  15.134   7.964
 2906POPC   C4A38598  12.120  15.217   7.664
 2906POPC   C1B38599  11.858  15.258   8.564
 2906POPC   C2B38600  11.814  15.171   8.264
 2906POPC   C3B38601  11.837  15.248   7.964
 2906POPC   C4B38602  11.795  15.231   7.664
 2907POPC   NC338603   8.970  18.313   9.464
 2907POPC   PO438604   8.964  18.307   9.164
 2907POPC   GL138605   8.991  18.296   8.864
 2907POPC   GL238606   9.095  18.395   8.864
 2907POPC   C1A38607   8.998  18.253   8.564
 2907POPC   D2A38608   8.977  18.236   8.264
 2907POPC   C3A38609   8.923  18.331   7.964
 2907POPC   C4A38610   8.998  18.301   7.664
 2907POPC   C1B38611   9.138  18.464   8.564
 2907POPC   C2B38612   9.082  18.528   8.264
 2907POPC   C3B38613   9.123  18.439   7.964
 2907POPC   C4B38614   9.167  18.460   7.664
 2908POPC   NC338615  26.860  39.220   9.464
 2908POPC   PO438616  26.843  39.206   9.164
 2908POPC   GL138617  26.789  39.217   8.864
 2908POPC   GL238618  26.924  39.218   8.864
 2908POPC   C1A38619  26.777  39.201   8.564
 2908POPC   D2A38620  26.846  39.279   8.264
 2908POPC   C3A38621  26.793  39.259   7.964
 2908POPC   C4A38622  26.813  39.221   7.664
 2908POPC   C1B38623  27.103  39.215   8.564
 2908POPC   C2B38624  27.057  39.174   8.264
 2908POPC   C3B38625  27.043  39.230   7.964
 2908POPC   C4B38626  27.056  39.248   7.664
 2909POPC   NC338627   8.214  43.915   9.464
 2909POPC   PO438628   8.219  43.934   9.164
 2909POPC   GL138629   8.151  43.931   8.864
 2909POPC   GL238630   8.260  44.002   8.864
 2909POPC   C1A38631   8.244  43.866   8.564
 2909POPC   D2A38632   8.242  43.872   8.264
 2909POPC   C3A38633   8.211  43.836   7.964
 2909POPC   C4A38634   8.223  43.837   7.664
 2909POPC   C1B38635   8.389  44.124   8.564
 2909POPC   C2B38636   8.328  44.100   8.264
 2909POPC   C3B38637   8.390  44.093   7.964
 2909POPC   C4B38638   8.374  44.048   7.664
 2910POPC   NC338639  18.303  32.977   9.464
 2910POPC   PO438640  18.291  33.041   9.164
 2910POPC   GL138641  18.248  33.035   8.864
 2910POPC   GL238642  18.178  32.957   8.864
 2910POPC   C1A38643  18.269  33.046   8.564
 2910POPC   D2A38644  18.237  33.017   8.264
 2910POPC   C3A38645  18.264  33.030   7.964
 2910POPC   C4A38646  18.244  33.031   7.664
 2910POPC   C1B38647  18.091  32.907   8.564
 2910POPC   C2B38648  18.077  32.995   8.264
 2910POPC   C3B38649  18.070  32.949   7.964
 2910POPC   C4B38650  18.002  32.976   7.664
 2911POPC   NC338651  10.523  29.882   9.464
 2911POPC   PO438652  10.490  29.938   9.164
 2911POPC   GL138653  10.533  29.872   8.864
 2911POPC   GL238654  10.631  29.966   8.864
 2911POPC   C1A38655  10.539  29.952   8.564
 2911POPC   D2A38656  10.481  29.945   8.264
 2911POPC   C3A38657  10.568  29.880   7.964
 2911POPC   C4A38658  10.546  29.925   7.664
 2911POPC   C1B38659  10.774  30.005   8.564
 2911POPC   C2B38660  10.700  29.998   8.264
 2911POPC   C3B38661  10.760  29.995   7.964
 2911POPC   C4B38662  10.706  30.012   7.664
 2912POPC   NC338663  28.401  26.835   9.464
 2912POPC   PO438664  28.375  26.785   9.164
 2912POPC   GL138665  28.399  26.854   8.864
 2912POPC   GL238666  28.422  26.928   8.864
 2912POPC   C1A38667  28.353  26.806   8.564
 2912POPC   D2A38668  28.385  26.799   8.264
 2912POPC   C3A38669  28.384  26.798   7.964
 2912POPC   C4A38670  28.354  26.820   7.664
 2912POPC   C1B38671  28.525  26.962   8.564
 2912POPC   C2B38672  28.593  26.982   8.264
 2912POPC   C3B38673  28.574  26.983   7.964
 2912POPC   C4B38674  28.590  26.971   7.664
 2913POPC   NC338675  43.877  12.846   9.464
 2913POPC   PO438676  43.837  12.822   9.164
 2913POPC   GL138677  43.935  12.872   8.864
 2913POPC   GL238678  44.034  12.813   8.864
 2913POPC   C1A38679  43.893  12.838   8.564
 2913POPC   D2A38680  43.875  12.854   8.264
 2913POPC   C3A38681  43.881  12.825   7.964
 2913POPC   C4A38682  43.870  12.829   7.664
 2913POPC   C1B38683  44.092  12.678   8.564
 2913POPC   C2B38684  44.051  12.739   8.264
 2913POPC   C3B38685  44.137  12.663   7.964
 2913POPC   C4B38686  44.048  12.701   7.664
 2914POPC   NC338687  32.298   9.764   9.464
 2914POPC   PO438688  32.296   9.760   9.164
 2914POPC   GL138689  32.229   9.710   8.864
 2914POPC   GL238690  32.182   9.649   8.864
 2914POPC   C1A38691  32.278   9.712   8.564
 2914POPC   D2A38692  32.225   9.751   8.264
 2914POPC   C3A38693  32.290   9.775   7.964
 2914POPC   C4A38694  32.228   9.736   7.664
 2914POPC   C1B38695  32.124   9.531   8.564
 2914POPC   C2B38696  32.096   9.520   8.264
 2914POPC   C3B38697  32.126   9.558   7.964
 2914POPC   C4B38698  32.129   9.558   7.664
 2915POPC   NC338699   5.066   2.791   9.464
 2915POPC   PO438700   5.090   2.758   9.164
 2915POPC   GL138701   5.124   2.773   8.864
 2915POPC   GL238702   5.161   2.879   8.864
 2915POPC   C1A38703   5.128   2.792   8.564
 2915POPC   D2A38704   5.068   2.740   8.264
 2915POPC   C3A38705   5.069   2.743   7.964
 2915POPC   C4A38706   5.128   2.748   7.664
 2915POPC   C1B38707   5.266   2.886   8.564
 2915POPC   C2B38708   5.291   2.931   8.264
 2915POPC   C3B38709   5.300   2.927   7.964
 2915POPC   C4B38710   5.282   2.847   7.664
 2916POPC   NC338711  43.107  38.442   9.464
 2916POPC   PO438712  43.151  38.479   9.164
 2916POPC   GL138713  43.108  38.489   8.864
 2916POPC   GL238714  43.016  38.561   8.864
 2916POPC   C1A38715  43.160  38.500   8.564
 2916POPC   D2A38716  43.078  38.469   8.264
 2916POPC   C3A38717  43.123  38.413   7.964
 2916POPC   C4A38718  43.125  38.409   7.664
 2916POPC   C1B38719  43.008  38.652   8.564
 2916POPC   C2B38720  42.998  38.689   8.264
 2916POPC   C3B38721  43.011  38.689   7.964
 2916POPC   C4B38722  43.018  38.668   7.664
 2917POPC   NC338723   6.671   8.951   9.464
 2917POPC   PO438724   6.667   8.991   9.164
 2917POPC   GL138725   6.602   8.997   8.864
 2917POPC   GL238726   6.683   9.116   8.864
 2917POPC   C1A38727   6.625   8.933   8.564
 2917POPC   D2A38728   6.643   9.016   8.264
 2917POPC   C3A38729   6.595   8.974   7.964
 2917POPC   C4A38730   6.615   8.956   7.664
 2917POPC   C1B38731   6.716   9.172   8.564
 2917POPC   C2B38732   6.764   9.222   8.264
 2917POPC   C3B38733   6.752   9.223   7.964
 2917POPC   C4B38734   6.768   9.184   7.664
 2918POPC   NC338735  12.869  43.159   9.464
 2918POPC   PO438736  12.807  43.155   9.164
 2918POPC   GL138737  12.901  43.073   8.864
 2918POPC   GL238738  12.924  43.253   8.864
 2918POPC   C1A38739  12.856  43.137   8.564
 2918POPC   D2A38740  12.836  43.079   8.264
 2918POPC   C3A38741  12.889  43.127   7.964
 2918POPC   C4A38742  12.896  43.133   7.664
 2918POPC   C1B38743  13.001  43.327   8.564
 2918POPC   C2B38744  12.999  43.344   8.264
 2918POPC   C3B38745  12.911  43.316   7.964
 2918POPC   C4B38746  12.994  43.377   7.664
 2919POPC   NC338747  11.334  11.295   9.464
 2919POPC   PO438748  11.274  11.251   9.164
 2919POPC   GL138749  11.282  11.315   8.864
 2919POPC   GL238750  11.148  11.299   8.864
 2919POPC   C1A38751  11.274  11.337   8.564
 2919POPC   D2A38752  11.265  11.269   8.264
 2919POPC   C3A38753  11.271  11.327   7.964
 2919POPC   C4A38754  11.329  11.267   7.664
 2919POPC   C1B38755  11.020  11.385   8.564
 2919POPC   C2B38756  11.053  11.398   8.264
 2919POPC   C3B38757  11.014  11.407   7.964
 2919POPC   C4B38758  11.052  11.409   7.664
 2920POPC   NC338759  16.735  30.670   9.464
 2920POPC   PO438760  16.763  30.679   9.164
 2920POPC   GL138761  16.727  30.673   8.864
 2920POPC   GL238762  16.876  30.711   8.864
 2920POPC   C1A38763  16.711  30.735   8.564
 2920POPC   D2A38764  16.684  30.717   8.264
 2920POPC   C3A38765  16.729  30.704   7.964
 2920POPC   C4A38766  16.726  30.672   7.664
 2920POPC   C1B38767  16.934  30.759   8.564
 2920POPC   C2B38768  16.950  30.690   8.264
 2920POPC   C3B38769  17.005  30.775   7.964
 2920POPC   C4B38770  16.984  30.726   7.664
 2921POPC   NC338771  32.976   4.353   9.464
 2921POPC   PO438772  33.034   4.317   9.164
 2921POPC   GL138773  32.991   4.291   8.864
 2921POPC   GL238774  33.067   4.167   8.864
 2921POPC   C1A38775  33.028   4.354   8.564
 2921POPC   D2A38776  33.039   4.313   8.264
 2921POPC   C3A38777  33.041   4.294   7.964
 2921POPC   C4A38778  33.024   4.298   7.664
 2921POPC   C1B38779  33.024   4.074   8.564
 2921POPC   C2B38780  33.083   4.019   8.264
 2921POPC   C3B38781  33.072   4.109   7.964
 2921POPC   C4B38782  33.026   4.077   7.664
 2922POPC   NC338783  32.224   6.649   9.464
 2922POPC   PO438784  32.251   6.674   9.164
 2922POPC   GL138785  32.212   6.615   8.864
 2922POPC   GL238786  32.291   6.537   8.864
 2922POPC   C1A38787  32.295   6.653   8.564
 2922POPC   D2A38788  32.214   6.662   8.264
 2922POPC   C3A38789  32.260   6.679   7.964
 2922POPC   C4A38790  32.270   6.640   7.664
 2922POPC   C1B38791  32.393   6.417   8.564
 2922POPC   C2B38792  32.452   6.434   8.264
 2922POPC   C3B38793  32.452   6.481   7.964
 2922POPC   C4B38794  32.439   6.463   7.664
 2923POPC   NC338795   9.735  16.715   9.464
 2923POPC   PO438796   9.734  16.735   9.164
 2923POPC   GL138797   9.712  16.727   8.864
 2923POPC   GL238798   9.812  16.826   8.864
 2923POPC   C1A38799   9.759  16.767   8.564
 2923POPC   D2A38800   9.736  16.766   8.264
 2923POPC   C3A38801   9.744  16.699   7.964
 2923POPC   C4A38802   9.769  16.777   7.664
 2923POPC   C1B38803   9.956  16.907   8.564
 2923POPC   C2B38804   9.928  16.838   8.264
 2923POPC   C3B38805   9.998  16.853   7.964
 2923POPC   C4B38806   9.937  16.903   7.664
 2924POPC   NC338807  31.503  29.166   9.464
 2924POPC   PO438808  31.503  29.190   9.164
 2924POPC   GL138809  31.452  29.183   8.864
 2924POPC   GL238810  31.542  29.030   8.864
 2924POPC   C1A38811  31.499  29.177   8.564
 2924POPC   D2A38812  31.504  29.171   8.264
 2924POPC   C3A38813  31.423  29.152   7.964
 2924POPC   C4A38814  31.443  29.128   7.664
 2924POPC   C1B38815  31.568  28.884   8.564
 2924POPC   C2B38816  31.546  28.899   8.264
 2924POPC   C3B38817  31.640  28.944   7.964
 2924POPC   C4B38818  31.547  28.935   7.664
 2925POPC   NC338819   1.230  41.595   9.464
 2925POPC   PO438820   1.249  41.531   9.164
 2925POPC   GL138821   1.209  41.606   8.864
 2925POPC   GL238822   1.276  41.471   8.864
 2925POPC   C1A38823   1.224  41.551   8.564
 2925POPC   D2A38824   1.246  41.543   8.264
 2925POPC   C3A38825   1.230  41.606   7.964
 2925POPC   C4A38826   1.169  41.588   7.664
 2925POPC   C1B38827   1.226  41.358   8.564
 2925POPC   C2B38828   1.306  41.323   8.264
 2925POPC   C3B38829   1.234  41.313   7.964
 2925POPC   C4B38830   1.286  41.315   7.664
 2926POPC   NC338831  34.538  16.771   9.464
 2926POPC   PO438832  34.612  16.738   9.164
 2926POPC   GL138833  34.612  16.727   8.864
 2926POPC   GL238834  34.484  16.728   8.864
 2926POPC   C1A38835  34.589  16.776   8.564
 2926POPC   D2A38836  34.553  16.733   8.264
 2926POPC   C3A38837  34.566  16.727   7.964
 2926POPC   C4A38838  34.560  16.769   7.664
 2926POPC   C1B38839  34.340  16.690   8.564
 2926POPC   C2B38840  34.368  16.722   8.264
 2926POPC   C3B38841  34.279  16.749   7.964
 2926POPC   C4B38842  34.301  16.723   7.664
 2927POPC   NC338843  20.644  29.133   9.464
 2927POPC   PO438844  20.582  29.106   9.164
 2927POPC   GL138845  20.564  29.107   8.864
 2927POPC   GL238846  20.660  29.069   8.864
 2927POPC   C1A38847  20.638  29.141   8.564
 2927POPC   D2A38848  20.603  29.126   8.264
 2927POPC   C3A38849  20.566  29.177   7.964
 2927POPC   C4A38850  20.591  29.127   7.664
 2927POPC   C1B38851  20.747  28.909   8.564
 2927POPC   C2B38852  20.792  28.997   8.264
 2927POPC   C3B38853  20.739  28.959   7.964
 2927POPC   C4B38854  20.791  29.001   7.664
 2928POPC   NC338855  25.266  33.044   9.464
 2928POPC   PO438856  25.247  33.001   9.164
 2928POPC   GL138857  25.287  33.027   8.864
 2928POPC   GL238858  25.331  33.126   8.864
 2928POPC   C1A38859  25.235  32.990   8.564
 2928POPC   D2A38860  25.243  33.041   8.264
 2928POPC   C3A38861  25.242  33.052   7.964
 2928POPC   C4A38862  25.274  32.976   7.664
 2928POPC   C1B38863  25.260  33.318   8.564
 2928POPC   C2B38864  25.343  33.303   8.264
 2928POPC   C3B38865  25.310  33.235   7.964
 2928POPC   C4B38866  25.307  33.241   7.664
 2929POPC   NC338867  35.308  15.179   9.464
 2929POPC   PO438868  35.363  15.149   9.164
 2929POPC   GL138869  35.303  15.140   8.864
 2929POPC   GL238870  35.334  15.091   8.864
 2929POPC   C1A38871  35.355  15.179   8.564
 2929POPC   D2A38872  35.312  15.166   8.264
 2929POPC   C3A38873  35.323  15.167   7.964
 2929POPC   C4A38874  35.392  15.217   7.664
 2929POPC   C1B38875  35.237  14.926   8.564
 2929POPC   C2B38876  35.236  14.933   8.264
 2929POPC   C3B38877  35.247  15.005   7.964
 2929POPC   C4B38878  35.215  14.966   7.664
 2930POPC   NC338879   1.984  18.254   9.464
 2930POPC   PO438880   2.010  18.303   9.164
 2930POPC   GL138881   1.966  18.305   8.864
 2930POPC   GL238882   1.852  18.349   8.864
 2930POPC   C1A38883   1.997  18.249   8.564
 2930POPC   D2A38884   2.015  18.315   8.264
 2930POPC   C3A38885   1.958  18.292   7.964
 2930POPC   C4A38886   1.954  18.252   7.664
 2930POPC   C1B38887   1.786  18.341   8.564
 2930POPC   C2B38888   1.745  18.365   8.264
 2930POPC   C3B38889   1.715  18.345   7.964
 2930POPC   C4B38890   1.764  18.309   7.664
 2931POPC   NC338891  12.116   7.444   9.464
 2931POPC   PO438892  12.083   7.436   9.164
 2931POPC   GL138893  12.048   7.405   8.864
 2931POPC   GL238894  11.978   7.527   8.864
 2931POPC   C1A38895  12.029   7.404   8.564
 2931POPC   D2A38896  12.096   7.467   8.264
 2931POPC   C3A38897  12.111   7.453   7.964
 2931POPC   C4A38898  12.107   7.431   7.664
 2931POPC   C1B38899  11.945   7.676   8.564
 2931POPC   C2B38900  11.934   7.690   8.264
 2931POPC   C3B38901  12.013   7.634   7.964
 2931POPC   C4B38902  11.974   7.695   7.664
 2932POPC   NC338903  42.341   3.512   9.464
 2932POPC   PO438904  42.339   3.521   9.164
 2932POPC   GL138905  42.384   3.567   8.864
 2932POPC   GL238906  42.462   3.462   8.864
 2932POPC   C1A38907  42.317   3.511   8.564
 2932POPC   D2A38908  42.379   3.540   8.264
 2932POPC   C3A38909  42.340   3.529   7.964
 2932POPC   C4A38910  42.315   3.569   7.664
 2932POPC   C1B38911  42.561   3.502   8.564
 2932POPC   C2B38912  42.549   3.457   8.264
 2932POPC   C3B38913  42.618   3.473   7.964
 2932POPC   C4B38914  42.612   3.459   7.664
 2933POPC   NC338915  35.329   8.151   9.464
 2933POPC   PO438916  35.334   8.195   9.164
 2933POPC   GL138917  35.399   8.243   8.864
 2933POPC   GL238918  35.196   8.146   8.864
 2933POPC   C1A38919  35.360   8.186   8.564
 2933POPC   D2A38920  35.376   8.227   8.264
 2933POPC   C3A38921  35.310   8.205   7.964
 2933POPC   C4A38922  35.345   8.215   7.664
 2933POPC   C1B38923  35.141   8.095   8.564
 2933POPC   C2B38924  35.132   8.157   8.264
 2933POPC   C3B38925  35.085   8.083   7.964
 2933POPC   C4B38926  35.093   8.094   7.664
 2934POPC   NC338927  11.308  26.817   9.464
 2934POPC   PO438928  11.272  26.793   9.164
 2934POPC   GL138929  11.266  26.783   8.864
 2934POPC   GL238930  11.278  26.674   8.864
 2934POPC   C1A38931  11.284  26.809   8.564
 2934POPC   D2A38932  11.276  26.811   8.264
 2934POPC   C3A38933  11.270  26.770   7.964
 2934POPC   C4A38934  11.260  26.792   7.664
 2934POPC   C1B38935  11.268  26.563   8.564
 2934POPC   C2B38936  11.235  26.614   8.264
 2934POPC   C3B38937  11.268  26.562   7.964
 2934POPC   C4B38938  11.296  26.611   7.664
 2935POPC   NC338939  28.388  42.342   9.464
 2935POPC   PO438940  28.345  42.288   9.164
 2935POPC   GL138941  28.391  42.303   8.864
 2935POPC   GL238942  28.331  42.260   8.864
 2935POPC   C1A38943  28.391  42.327   8.564
 2935POPC   D2A38944  28.412  42.367   8.264
 2935POPC   C3A38945  28.415  42.352   7.964
 2935POPC   C4A38946  28.394  42.368   7.664
 2935POPC   C1B38947  28.332  42.091   8.564
 2935POPC   C2B38948  28.295  42.075   8.264
 2935POPC   C3B38949  28.303  42.085   7.964
 2935POPC   C4B38950  28.307  42.058   7.664
 2936POPC   NC338951  15.155  44.627   9.464
 2936POPC   PO438952  15.148  44.646   9.164
 2936POPC   GL138953  15.152  44.653   8.864
 2936POPC   GL238954  15.049  44.775   8.864
 2936POPC   C1A38955  15.172  44.657   8.564
 2936POPC   D2A38956  15.199  44.702   8.264
 2936POPC   C3A38957  15.149  44.696   7.964
 2936POPC   C4A38958  15.143  44.634   7.664
 2936POPC   C1B38959  14.990  44.816   8.564
 2936POPC   C2B38960  15.028  44.859   8.264
 2936POPC   C3B38961  15.051  44.836   7.964
 2936POPC   C4B38962  15.047  44.859   7.664
 2937POPC   NC338963  43.129  41.566   9.464
 2937POPC   PO438964  43.075  41.550   9.164
 2937POPC   GL138965  43.156  41.601   8.864
 2937POPC   GL238966  42.976  41.546   8.864
 2937POPC   C1A38967  43.074  41.529   8.564
 2937POPC   D2A38968  43.086  41.546   8.264
 2937POPC   C3A38969  43.070  41.543   7.964
 2937POPC   C4A38970  43.103  41.598   7.664
 2937POPC   C1B38971  42.863  41.469   8.564
 2937POPC   C2B38972  42.909  41.439   8.264
 2937POPC   C3B38973  42.875  41.412   7.964
 2937POPC   C4B38974  42.850  41.422   7.664
 2938POPC   NC338975  31.475  22.167   9.464
 2938POPC   PO438976  31.425  22.157   9.164
 2938POPC   GL138977  31.465  22.126   8.864
 2938POPC   GL238978  31.348  22.205   8.864
 2938POPC   C1A38979  31.488  22.183   8.564
 2938POPC   D2A38980  31.443  22.158   8.264
 2938POPC   C3A38981  31.446  22.185   7.964
 2938POPC   C4A38982  31.475  22.192   7.664
 2938POPC   C1B38983  31.258  22.235   8.564
 2938POPC   C2B38984  31.182  22.203   8.264
 2938POPC   C3B38985  31.275  22.159   7.964
 2938POPC   C4B38986  31.256  22.217   7.664
 2939POPC   NC338987  15.996  40.002   9.464
 2939POPC   PO438988  15.979  40.017   9.164
 2939POPC   GL138989  16.000  40.049   8.864
 2939POPC   GL238990  15.965  40.097   8.864
 2939POPC   C1A38991  15.989  40.010   8.564
 2939POPC   D2A38992  15.984  39.995   8.264
 2939POPC   C3A38993  15.974  39.985   7.964
 2939POPC   C4A38994  15.921  40.011   7.664
 2939POPC   C1B38995  15.998  40.280   8.564
 2939POPC   C2B38996  15.960  40.211   8.264
 2939POPC   C3B38997  15.998  40.305   7.964
 2939POPC   C4B38998  15.938  40.281   7.664
 2940POPC   NC338999  33.036  29.890   9.464
 2940POPC   PO439000  33.061  29.885   9.164
 2940POPC   GL139001  33.055  29.878   8.864
 2940POPC   GL239002  32.971  30.038   8.864
 2940POPC   C1A39003  32.990  29.921   8.564
 2940POPC   D2A39004  32.997  29.895   8.264
 2940POPC   C3A39005  33.037  29.876   7.964
 2940POPC   C4A39006  33.064  29.897   7.664
 2940POPC   C1B39007  32.916  30.131   8.564
 2940POPC   C2B39008  32.908  30.154   8.264
 2940POPC   C3B39009  32.896  30.203   7.964
 2940POPC   C4B39010  32.892  30.139   7.664
 2941POPC   NC339011  30.669  43.130   9.464
 2941POPC   PO439012  30.695  43.090   9.164
 2941POPC   GL139013  30.656  43.122   8.864
 2941POPC   GL239014  30.711  43.257   8.864
 2941POPC   C1A39015  30.660  43.149   8.564
 2941POPC   D2A39016  30.723  43.158   8.264
 2941POPC   C3A39017  30.702  43.085   7.964
 2941POPC   C4A39018  30.694  43.114   7.664
 2941POPC   C1B39019  30.666  43.408   8.564
 2941POPC   C2B39020  30.683  43.399   8.264
 2941POPC   C3B39021  30.742  43.325   7.964
 2941POPC   C4B39022  30.732  43.367   7.664
 2942POPC   NC339023  17.544   6.674   9.464
 2942POPC   PO439024  17.473   6.681   9.164
 2942POPC   GL139025  17.457   6.685   8.864
 2942POPC   GL239026  17.580   6.571   8.864
 2942POPC   C1A39027  17.476   6.659   8.564
 2942POPC   D2A39028  17.534   6.654   8.264
 2942POPC   C3A39029  17.505   6.682   7.964
 2942POPC   C4A39030  17.530   6.653   7.664
 2942POPC   C1B39031  17.647   6.426   8.564
 2942POPC   C2B39032  17.652   6.516   8.264
 2942POPC   C3B39033  17.692   6.502   7.964
 2942POPC   C4B39034  17.736   6.490   7.664
 2943POPC   NC339035  17.496  16.696   9.464
 2943POPC   PO439036  17.541  16.774   9.164
 2943POPC   GL139037  17.526  16.694   8.864
 2943POPC   GL239038  17.530  16.641   8.864
 2943POPC   C1A39039  17.524  16.763   8.564
 2943POPC   D2A39040  17.538  16.704   8.264
 2943POPC   C3A39041  17.463  16.713   7.964
 2943POPC   C4A39042  17.481  16.764   7.664
 2943POPC   C1B39043  17.584  16.532   8.564
 2943POPC   C2B39044  17.652  16.484   8.264
 2943POPC   C3B39045  17.578  16.551   7.964
 2943POPC   C4B39046  17.599  16.479   7.664
 2944POPC   NC339047   3.525  17.497   9.464
 2944POPC   PO439048   3.570  17.550   9.164
 2944POPC   GL139049   3.586  17.534   8.864
 2944POPC   GL239050   3.478  17.384   8.864
 2944POPC   C1A39051   3.582  17.491   8.564
 2944POPC   D2A39052   3.533  17.552   8.264
 2944POPC   C3A39053   3.539  17.507   7.964
 2944POPC   C4A39054   3.582  17.477   7.664
 2944POPC   C1B39055   3.487  17.245   8.564
 2944POPC   C2B39056   3.440  17.218   8.264
 2944POPC   C3B39057   3.450  17.293   7.964
 2944POPC   C4B39058   3.451  17.300   7.664
 2945POPC   NC339059  15.151   0.465   9.464
 2945POPC   PO439060  15.189   0.457   9.164
 2945POPC   GL139061  15.174   0.432   8.864
 2945POPC   GL239062  15.092   0.545   8.864
 2945POPC   C1A39063  15.205   0.433   8.564
 2945POPC   D2A39064  15.187   0.405   8.264
 2945POPC   C3A39065  15.148   0.460   7.964
 2945POPC   C4A39066  15.165   0.447   7.664
 2945POPC   C1B39067  15.084   0.671   8.564
 2945POPC   C2B39068  15.083   0.642   8.264
 2945POPC   C3B39069  15.076   0.676   7.964
 2945POPC   C4B39070  15.074   0.660   7.664
 2946POPC   NC339071  39.994  37.686   9.464
 2946POPC   PO439072  39.976  37.634   9.164
 2946POPC   GL139073  40.023  37.729   8.864
 2946POPC   GL239074  40.100  37.586   8.864
 2946POPC   C1A39075  39.972  37.639   8.564
 2946POPC   D2A39076  40.044  37.698   8.264
 2946POPC   C3A39077  40.019  37.671   7.964
 2946POPC   C4A39078  40.033  37.652   7.664
 2946POPC   C1B39079  40.190  37.591   8.564
 2946POPC   C2B39080  40.181  37.574   8.264
 2946POPC   C3B39081  40.205  37.532   7.964
 2946POPC   C4B39082  40.268  37.518   7.664
 2947POPC   NC339083  20.612  32.291   9.464
 2947POPC   PO439084  20.573  32.203   9.164
 2947POPC   GL139085  20.595  32.200   8.864
 2947POPC   GL239086  20.643  32.330   8.864
 2947POPC   C1A39087  20.654  32.217   8.564
 2947POPC   D2A39088  20.626  32.272   8.264
 2947POPC   C3A39089  20.584  32.296   7.964
 2947POPC   C4A39090  20.571  32.262   7.664
 2947POPC   C1B39091  20.766  32.448   8.564
 2947POPC   C2B39092  20.746  32.439   8.264
 2947POPC   C3B39093  20.720  32.468   7.964
 2947POPC   C4B39094  20.709  32.457   7.664
 2948POPC   NC339095  13.609  29.137   9.464
 2948POPC   PO439096  13.674  29.172   9.164
 2948POPC   GL139097  13.598  29.100   8.864
 2948POPC   GL239098  13.576  29.044   8.864
 2948POPC   C1A39099  13.629  29.118   8.564
 2948POPC   D2A39100  13.627  29.162   8.264
 2948POPC   C3A39101  13.579  29.141   7.964
 2948POPC   C4A39102  13.674  29.166   7.664
 2948POPC   C1B39103  13.420  28.931   8.564
 2948POPC   C2B39104  13.479  28.978   8.264
 2948POPC   C3B39105  13.446  29.021   7.964
 2948POPC   C4B39106  13.459  28.927   7.664
 2949POPC   NC339107  22.975   3.503   9.464
 2949POPC   PO439108  22.985   3.570   9.164
 2949POPC   GL139109  22.972   3.570   8.864
 2949POPC   GL239110  22.803   3.659   8.864
 2949POPC   C1A39111  22.907   3.556   8.564
 2949POPC   D2A39112  22.982   3.539   8.264
 2949POPC   C3A39113  22.979   3.551   7.964
 2949POPC   C4A39114  22.978   3.498   7.664
 2949POPC   C1B39115  22.782   3.760   8.564
 2949POPC   C2B39116  22.800   3.757   8.264
 2949POPC   C3B39117  22.755   3.683   7.964
 2949POPC   C4B39118  22.714   3.675   7.664
 2950POPC   NC339119  33.039  12.836   9.464
 2950POPC   PO439120  33.054  12.863   9.164
 2950POPC   GL139121  32.994  12.885   8.864
 2950POPC   GL239122  33.180  12.799   8.864
 2950POPC   C1A39123  33.043  12.812   8.564
 2950POPC   D2A39124  33.022  12.863   8.264
 2950POPC   C3A39125  33.013  12.850   7.964
 2950POPC   C4A39126  33.055  12.825   7.664
 2950POPC   C1B39127  33.309  12.824   8.564
 2950POPC   C2B39128  33.259  12.817   8.264
 2950POPC   C3B39129  33.301  12.803   7.964
 2950POPC   C4B39130  33.239  12.747   7.664
 2951POPC   NC339131  15.195  23.744   9.464
 2951POPC   PO439132  15.221  23.716   9.164
 2951POPC   GL139133  15.153  23.694   8.864
 2951POPC   GL239134  15.167  23.882   8.864
 2951POPC   C1A39135  15.193  23.760   8.564
 2951POPC   D2A39136  15.165  23.674   8.264
 2951POPC   C3A39137  15.186  23.730   7.964
 2951POPC   C4A39138  15.157  23.671   7.664
 2951POPC   C1B39139  15.151  23.962   8.564
 2951POPC   C2B39140  15.115  23.979   8.264
 2951POPC   C3B39141  15.086  23.991   7.964
 2951POPC   C4B39142  15.138  23.993   7.664
 2952POPC   NC339143   8.147   9.745   9.464
 2952POPC   PO439144   8.246   9.781   9.164
 2952POPC   GL139145   8.147   9.710   8.864
 2952POPC   GL239146   8.329   9.755   8.864
 2952POPC   C1A39147   8.189   9.721   8.564
 2952POPC   D2A39148   8.165   9.756   8.264
 2952POPC   C3A39149   8.151   9.756   7.964
 2952POPC   C4A39150   8.234   9.798   7.664
 2952POPC   C1B39151   8.453   9.769   8.564
 2952POPC   C2B39152   8.492   9.744   8.264
 2952POPC   C3B39153   8.484   9.734   7.964
 2952POPC   C4B39154   8.405   9.748   7.664
 2953POPC   NC339155  14.407  12.084   9.464
 2953POPC   PO439156  14.393  12.074   9.164
 2953POPC   GL139157  14.396  12.112   8.864
 2953POPC   GL239158  14.477  12.075   8.864
 2953POPC   C1A39159  14.357  12.044   8.564
 2953POPC   D2A39160  14.385  12.032   8.264
 2953POPC   C3A39161  14.357  12.123   7.964
 2953POPC   C4A39162  14.375  12.103   7.664
 2953POPC   C1B39163  14.679  11.992   8.564
 2953POPC   C2B39164  14.693  12.014   8.264
 2953POPC   C3B39165  14.614  12.008   7.964
 2953POPC   C4B39166  14.673  11.971   7.664
 2954POPC   NC339167  39.250  23.730   9.464
 2954POPC   PO439168  39.246  23.754   9.164
 2954POPC   GL139169  39.189  23.761   8.864
 2954POPC   GL239170  39.111  23.762   8.864
 2954POPC   C1A39171  39.194  23.679   8.564
 2954POPC   D2A39172  39.262  23.679   8.264
 2954POPC   C3A39173  39.186  23.669   7.964
 2954POPC   C4A39174  39.188  23.733   7.664
 2954POPC   C1B39175  38.995  23.875   8.564
 2954POPC   C2B39176  39.038  23.797   8.264
 2954POPC   C3B39177  39.009  23.814   7.964
 2954POPC   C4B39178  38.986  23.831   7.664
 2955POPC   NC339179  26.080  29.968   9.464
 2955POPC   PO439180  25.997  29.966   9.164
 2955POPC   GL139181  26.063  29.947   8.864
 2955POPC   GL239182  25.912  30.045   8.864
 2955POPC   C1A39183  26.000  29.889   8.564
 2955POPC   D2A39184  25.995  29.872   8.264
 2955POPC   C3A39185  26.019  29.880   7.964
 2955POPC   C4A39186  25.994  29.889   7.664
 2955POPC   C1B39187  25.891  30.065   8.564
 2955POPC   C2B39188  25.860  30.101   8.264
 2955POPC   C3B39189  25.813  30.113   7.964
 2955POPC   C4B39190  25.865  30.120   7.664
 2956POPC   NC339191  13.618  25.271   9.464
 2956POPC   PO439192  13.649  25.226   9.164
 2956POPC   GL139193  13.635  25.217   8.864
 2956POPC   GL239194  13.701  25.281   8.864
 2956POPC   C1A39195  13.650  25.247   8.564
 2956POPC   D2A39196  13.599  25.260   8.264
 2956POPC   C3A39197  13.641  25.313   7.964
 2956POPC   C4A39198  13.633  25.272   7.664
 2956POPC   C1B39199  13.855  25.377   8.564
 2956POPC   C2B39200  13.849  25.325   8.264
 2956POPC   C3B39201  13.838  25.320   7.964
 2956POPC   C4B39202  13.842  25.319   7.664
 2957POPC   NC339203   8.950  26.034   9.464
 2957POPC   PO439204   8.985  26.010   9.164
 2957POPC   GL139205   8.972  26.041   8.864
 2957POPC   GL239206   8.907  26.153   8.864
 2957POPC   C1A39207   8.957  26.084   8.564
 2957POPC   D2A39208   9.007  26.079   8.264
 2957POPC   C3A39209   8.962  26.068   7.964
 2957POPC   C4A39210   9.015  26.060   7.664
 2957POPC   C1B39211   8.940  26.258   8.564
 2957POPC   C2B39212   8.936  26.237   8.264
 2957POPC   C3B39213   8.959  26.261   7.964
 2957POPC   C4B39214   8.918  26.291   7.664
 2958POPC   NC339215  32.231  15.979   9.464
 2958POPC   PO439216  32.257  15.930   9.164
 2958POPC   GL139217  32.265  15.953   8.864
 2958POPC   GL239218  32.224  15.829   8.864
 2958POPC   C1A39219  32.285  15.990   8.564
 2958POPC   D2A39220  32.205  15.948   8.264
 2958POPC   C3A39221  32.237  15.999   7.964
 2958POPC   C4A39222  32.204  15.973   7.664
 2958POPC   C1B39223  32.242  15.668   8.564
 2958POPC   C2B39224  32.268  15.705   8.264
 2958POPC   C3B39225  32.259  15.750   7.964
 2958POPC   C4B39226  32.319  15.749   7.664
 2959POPC   NC339227  43.867  28.378   9.464
 2959POPC   PO439228  43.868  28.407   9.164
 2959POPC   GL139229  43.898  28.393   8.864
 2959POPC   GL239230  44.023  28.465   8.864
 2959POPC   C1A39231  43.859  28.363   8.564
 2959POPC   D2A39232  43.922  28.325   8.264
 2959POPC   C3A39233  43.902  28.395   7.964
 2959POPC   C4A39234  43.872  28.358   7.664
 2959POPC   C1B39235  44.094  28.495   8.564
 2959POPC   C2B39236  44.054  28.488   8.264
 2959POPC   C3B39237  44.096  28.504   7.964
 2959POPC   C4B39238  44.117  28.537   7.664
 2960POPC   NC339239   2.797  23.730   9.464
 2960POPC   PO439240   2.764  23.711   9.164
 2960POPC   GL139241   2.788  23.758   8.864
 2960POPC   GL239242   2.809  23.655   8.864
 2960POPC   C1A39243   2.760  23.688   8.564
 2960POPC   D2A39244   2.732  23.714   8.264
 2960POPC   C3A39245   2.760  23.728   7.964
 2960POPC   C4A39246   2.731  23.704   7.664
 2960POPC   C1B39247   2.947  23.463   8.564
 2960POPC   C2B39248   2.867  23.523   8.264
 2960POPC   C3B39249   2.902  23.504   7.964
 2960POPC   C4B39250   2.888  23.553   7.664
 2961POPC   NC339251  10.491  14.382   9.464
 2961POPC   PO439252  10.567  14.429   9.164
 2961POPC   GL139253  10.482  14.402   8.864
 2961POPC   GL239254  10.553  14.568   8.864
 2961POPC   C1A39255  10.493  14.381   8.564
 2961POPC   D2A39256  10.522  14.439   8.264
 2961POPC   C3A39257  10.554  14.402   7.964
 2961POPC   C4A39258  10.555  14.357   7.664
 2961POPC   C1B39259  10.560  14.661   8.564
 2961POPC   C2B39260  10.514  14.700   8.264
 2961POPC   C3B39261  10.558  14.629   7.964
 2961POPC   C4B39262  10.597  14.700   7.664
 2962POPC   NC339263  42.381   5.915   9.464
 2962POPC   PO439264  42.285   5.855   9.164
 2962POPC   GL139265  42.290   5.919   8.864
 2962POPC   GL239266  42.251   5.737   8.864
 2962POPC   C1A39267  42.348   5.872   8.564
 2962POPC   D2A39268  42.357   5.907   8.264
 2962POPC   C3A39269  42.356   5.876   7.964
 2962POPC   C4A39270  42.366   5.863   7.664
 2962POPC   C1B39271  42.272   5.675   8.564
 2962POPC   C2B39272  42.255   5.581   8.264
 2962POPC   C3B39273  42.299   5.610   7.964
 2962POPC   C4B39274  42.241   5.580   7.664
 2963POPC   NC339275  31.462  20.601   9.464
 2963POPC   PO439276  31.429  20.609   9.164
 2963POPC   GL139277  31.480  20.572   8.864
 2963POPC   GL239278  31.519  20.534   8.864
 2963POPC   C1A39279  31.517  20.638   8.564
 2963POPC   D2A39280  31.448  20.631   8.264
 2963POPC   C3A39281  31.424  20.561   7.964
 2963POPC   C4A39282  31.500  20.603   7.664
 2963POPC   C1B39283  31.456  20.390   8.564
 2963POPC   C2B39284  31.514  20.326   8.264
 2963POPC   C3B39285  31.467  20.408   7.964
 2963POPC   C4B39286  31.492  20.398   7.664
 2964POPC   NC339287  32.261  39.222   9.464
 2964POPC   PO439288  32.223  39.202   9.164
 2964POPC   GL139289  32.225  39.203   8.864
 2964POPC   GL239290  32.353  39.315   8.864
 2964POPC   C1A39291  32.256  39.212   8.564
 2964POPC   D2A39292  32.205  39.252   8.264
 2964POPC   C3A39293  32.220  39.205   7.964
 2964POPC   C4A39294  32.252  39.276   7.664
 2964POPC   C1B39295  32.476  39.370   8.564
 2964POPC   C2B39296  32.490  39.397   8.264
 2964POPC   C3B39297  32.413  39.366   7.964
 2964POPC   C4B39298  32.430  39.359   7.664
 2965POPC   NC339299  27.617  15.932   9.464
 2965POPC   PO439300  27.580  15.994   9.164
 2965POPC   GL139301  27.596  15.921   8.864
 2965POPC   GL239302  27.499  15.988   8.864
 2965POPC   C1A39303  27.618  15.914   8.564
 2965POPC   D2A39304  27.556  15.929   8.264
 2965POPC   C3A39305  27.552  15.979   7.964
 2965POPC   C4A39306  27.631  15.995   7.664
 2965POPC   C1B39307  27.357  16.083   8.564
 2965POPC   C2B39308  27.348  16.087   8.264
 2965POPC   C3B39309  27.402  16.090   7.964
 2965POPC   C4B39310  27.410  16.143   7.664
 2966POPC   NC339311  39.267  16.693   9.464
 2966POPC   PO439312  39.220  16.731   9.164
 2966POPC   GL139313  39.186  16.717   8.864
 2966POPC   GL239314  39.165  16.820   8.864
 2966POPC   C1A39315  39.281  16.734   8.564
 2966POPC   D2A39316  39.223  16.685   8.264
 2966POPC   C3A39317  39.186  16.749   7.964
 2966POPC   C4A39318  39.202  16.729   7.664
 2966POPC   C1B39319  39.147  17.002   8.564
 2966POPC   C2B39320  39.133  16.930   8.264
 2966POPC   C3B39321  39.094  16.938   7.964
 2966POPC   C4B39322  39.116  16.923   7.664
 2967POPC   NC339323  27.633  37.660   9.464
 2967POPC   PO439324  27.550  37.710   9.164
 2967POPC   GL139325  27.620  37.650   8.864
 2967POPC   GL239326  27.703  37.562   8.864
 2967POPC   C1A39327  27.640  37.652   8.564
 2967POPC   D2A39328  27.585  37.636   8.264
 2967POPC   C3A39329  27.624  37.659   7.964
 2967POPC   C4A39330  27.558  37.726   7.664
 2967POPC   C1B39331  27.761  37.550   8.564
 2967POPC   C2B39332  27.736  37.527   8.264
 2967POPC   C3B39333  27.756  37.478   7.964
 2967POPC   C4B39334  27.730  37.526   7.664
 2968POPC   NC339335  12.864  36.135   9.464
 2968POPC   PO439336  12.889  36.153   9.164
 2968POPC   GL139337  12.821  36.115   8.864
 2968POPC   GL239338  12.969  36.222   8.864
 2968POPC   C1A39339  12.858  36.134   8.564
 2968POPC   D2A39340  12.822  36.102   8.264
 2968POPC   C3A39341  12.808  36.114   7.964
 2968POPC   C4A39342  12.808  36.097   7.664
 2968POPC   C1B39343  13.044  36.244   8.564
 2968POPC   C2B39344  13.122  36.244   8.264
 2968POPC   C3B39345  13.109  36.228   7.964
 2968POPC   C4B39346  13.119  36.200   7.664
 2969POPC   NC339347  30.700  42.334   9.464
 2969POPC   PO439348  30.666  42.369   9.164
 2969POPC   GL139349  30.733  42.359   8.864
 2969POPC   GL239350  30.616  42.491   8.864
 2969POPC   C1A39351  30.726  42.333   8.564
 2969POPC   D2A39352  30.648  42.369   8.264
 2969POPC   C3A39353  30.727  42.356   7.964
 2969POPC   C4A39354  30.735  42.285   7.664
 2969POPC   C1B39355  30.548  42.612   8.564
 2969POPC   C2B39356  30.562  42.532   8.264
 2969POPC   C3B39357  30.639  42.538   7.964
 2969POPC   C4B39358  30.580  42.534   7.664
 2970POPC   NC339359  20.570  12.028   9.464
 2970POPC   PO439360  20.611  12.114   9.164
 2970POPC   GL139361  20.651  12.118   8.864
 2970POPC   GL239362  20.694  12.168   8.864
 2970POPC   C1A39363  20.624  12.082   8.564
 2970POPC   D2A39364  20.585  12.087   8.264
 2970POPC   C3A39365  20.659  12.098   7.964
 2970POPC   C4A39366  20.652  12.026   7.664
 2970POPC   C1B39367  20.747  12.283   8.564
 2970POPC   C2B39368  20.741  12.300   8.264
 2970POPC   C3B39369  20.752  12.255   7.964
 2970POPC   C4B39370  20.779  12.327   7.664
 2971POPC   NC339371  22.981   2.756   9.464
 2971POPC   PO439372  22.929   2.784   9.164
 2971POPC   GL139373  22.901   2.783   8.864
 2971POPC   GL239374  22.872   2.935   8.864
 2971POPC   C1A39375  22.904   2.761   8.564
 2971POPC   D2A39376  22.919   2.800   8.264
 2971POPC   C3A39377  22.930   2.788   7.964
 2971POPC   C4A39378  22.903   2.760   7.664
 2971POPC   C1B39379  22.936   2.993   8.564
 2971POPC   C2B39380  22.884   2.960   8.264
 2971POPC   C3B39381  22.935   2.990   7.964
 2971POPC   C4B39382  22.879   3.012   7.664
 2972POPC   NC339383  43.848  23.719   9.464
 2972POPC   PO439384  43.879  23.747   9.164
 2972POPC   GL139385  43.861  23.671   8.864
 2972POPC   GL239386  43.939  23.674   8.864
 2972POPC   C1A39387  43.883  23.679   8.564
 2972POPC   D2A39388  43.866  23.723   8.264
 2972POPC   C3A39389  43.897  23.698   7.964
 2972POPC   C4A39390  43.851  23.737   7.664
 2972POPC   C1B39391  44.109  23.573   8.564
 2972POPC   C2B39392  44.022  23.497   8.264
 2972POPC   C3B39393  44.045  23.493   7.964
 2972POPC   C4B39394  44.023  23.578   7.664
 2973POPC   NC339395  44.650  32.225   9.464
 2973POPC   PO439396  44.712  32.293   9.164
 2973POPC   GL139397  44.684  32.218   8.864
 2973POPC   GL239398  44.571  32.157   8.864
 2973POPC   C1A39399  44.640  32.260   8.564
 2973POPC   D2A39400  44.709  32.199   8.264
 2973POPC   C3A39401  44.675  32.225   7.964
 2973POPC   C4A39402  44.703  32.277   7.664
 2973POPC   C1B39403  44.518  32.066   8.564
 2973POPC   C2B39404  44.472  32.121   8.264
 2973POPC   C3B39405  44.426  32.065   7.964
 2973POPC   C4B39406  44.465  32.039   7.664
 2974POPC   NC339407  19.107  19.011   9.464
 2974POPC   PO439408  19.009  19.044   9.164
 2974POPC   GL139409  19.052  19.082   8.864
 2974POPC   GL239410  19.023  19.187   8.864
 2974POPC   C1A39411  19.070  19.020   8.564
 2974POPC   D2A39412  19.073  19.022   8.264
 2974POPC   C3A39413  19.096  19.014   7.964
 2974POPC   C4A39414  19.072  19.015   7.664
 2974POPC   C1B39415  19.024  19.320   8.564
 2974POPC   C2B39416  19.001  19.336   8.264
 2974POPC   C3B39417  18.979  19.324   7.964
 2974POPC   C4B39418  18.998  19.296   7.664
 2975POPC   NC339419   5.085  11.322   9.464
 2975POPC   PO439420   5.091  11.318   9.164
 2975POPC   GL139421   5.111  11.342   8.864
 2975POPC   GL239422   5.007  11.154   8.864
 2975POPC   C1A39423   5.140  11.314   8.564
 2975POPC   D2A39424   5.074  11.331   8.264
 2975POPC   C3A39425   5.112  11.313   7.964
 2975POPC   C4A39426   5.049  11.330   7.664
 2975POPC   C1B39427   4.998  11.052   8.564
 2975POPC   C2B39428   4.968  11.103   8.264
 2975POPC   C3B39429   5.045  11.044   7.964
 2975POPC   C4B39430   5.040  11.093   7.664
 2976POPC   NC339431   9.776   6.624   9.464
 2976POPC   PO439432   9.785   6.641   9.164
 2976POPC   GL139433   9.797   6.649   8.864
 2976POPC   GL239434   9.775   6.739   8.864
 2976POPC   C1A39435   9.728   6.639   8.564
 2976POPC   D2A39436   9.709   6.639   8.264
 2976POPC   C3A39437   9.782   6.669   7.964
 2976POPC   C4A39438   9.771   6.642   7.664
 2976POPC   C1B39439   9.831   6.907   8.564
 2976POPC   C2B39440   9.790   6.900   8.264
 2976POPC   C3B39441   9.833   6.920   7.964
 2976POPC   C4B39442   9.840   6.915   7.664
 2977POPC   NC339443   5.076  25.279   9.464
 2977POPC   PO439444   5.086  25.315   9.164
 2977POPC   GL139445   5.066  25.289   8.864
 2977POPC   GL239446   5.209  25.394   8.864
 2977POPC   C1A39447   5.096  25.264   8.564
 2977POPC   D2A39448   5.059  25.281   8.264
 2977POPC   C3A39449   5.098  25.221   7.964
 2977POPC   C4A39450   5.090  25.299   7.664
 2977POPC   C1B39451   5.224  25.416   8.564
 2977POPC   C2B39452   5.248  25.440   8.264
 2977POPC   C3B39453   5.232  25.477   7.964
 2977POPC   C4B39454   5.235  25.468   7.664
 2978POPC   NC339455  16.703   0.409   9.464
 2978POPC   PO439456  16.744   0.419   9.164
 2978POPC   GL139457  16.780   0.417   8.864
 2978POPC   GL239458  16.717   0.580   8.864
 2978POPC   C1A39459  16.753   0.458   8.564
 2978POPC   D2A39460  16.750   0.443   8.264
 2978POPC   C3A39461  16.773   0.422   7.964
 2978POPC   C4A39462  16.747   0.391   7.664
 2978POPC   C1B39463  16.724   0.693   8.564
 2978POPC   C2B39464  16.735   0.707   8.264
 2978POPC   C3B39465  16.665   0.703   7.964
 2978POPC   C4B39466  16.664   0.684   7.664
 2979POPC   NC339467  19.808  35.378   9.464
 2979POPC   PO439468  19.851  35.339   9.164
 2979POPC   GL139469  19.786  35.320   8.864
 2979POPC   GL239470  19.984  35.397   8.864
 2979POPC   C1A39471  19.875  35.342   8.564
 2979POPC   D2A39472  19.833  35.378   8.264
 2979POPC   C3A39473  19.840  35.362   7.964
 2979POPC   C4A39474  19.823  35.357   7.664
 2979POPC   C1B39475  20.050  35.388   8.564
 2979POPC   C2B39476  20.056  35.372   8.264
 2979POPC   C3B39477  20.076  35.410   7.964
 2979POPC   C4B39478  20.132  35.376   7.664
 2980POPC   NC339479  29.136  26.844   9.464
 2980POPC   PO439480  29.156  26.770   9.164
 2980POPC   GL139481  29.174  26.845   8.864
 2980POPC   GL239482  29.033  26.735   8.864
 2980POPC   C1A39483  29.140  26.780   8.564
 2980POPC   D2A39484  29.176  26.861   8.264
 2980POPC   C3A39485  29.118  26.814   7.964
 2980POPC   C4A39486  29.129  26.851   7.664
 2980POPC   C1B39487  28.934  26.695   8.564
 2980POPC   C2B39488  28.888  26.693   8.264
 2980POPC   C3B39489  28.891  26.670   7.964
 2980POPC   C4B39490  28.932  26.703   7.664
 2981POPC   NC339491  40.749  12.848   9.464
 2981POPC   PO439492  40.807  12.832   9.164
 2981POPC   GL139493  40.737  12.841   8.864
 2981POPC   GL239494  40.694  12.704   8.864
 2981POPC   C1A39495  40.801  12.842   8.564
 2981POPC   D2A39496  40.805  12.806   8.264
 2981POPC   C3A39497  40.779  12.840   7.964
 2981POPC   C4A39498  40.786  12.814   7.664
 2981POPC   C1B39499  40.744  12.591   8.564
 2981POPC   C2B39500  40.696  12.589   8.264
 2981POPC   C3B39501  40.732  12.647   7.964
 2981POPC   C4B39502  40.700  12.641   7.664
 2982POPC   NC339503  11.276  33.068   9.464
 2982POPC   PO439504  11.280  33.022   9.164
 2982POPC   GL139505  11.267  33.032   8.864
 2982POPC   GL239506  11.393  33.029   8.864
 2982POPC   C1A39507  11.254  33.020   8.564
 2982POPC   D2A39508  11.306  33.037   8.264
 2982POPC   C3A39509  11.283  33.009   7.964
 2982POPC   C4A39510  11.339  33.026   7.664
 2982POPC   C1B39511  11.504  32.974   8.564
 2982POPC   C2B39512  11.547  32.959   8.264
 2982POPC   C3B39513  11.563  32.953   7.964
 2982POPC   C4B39514  11.574  32.967   7.664
 2983POPC   NC339515   4.312  24.442   9.464
 2983POPC   PO439516   4.282  24.498   9.164
 2983POPC   GL139517   4.303  24.489   8.864
 2983POPC   GL239518   4.215  24.468   8.864
 2983POPC   C1A39519   4.364  24.499   8.564
 2983POPC   D2A39520   4.283  24.501   8.264
 2983POPC   C3A39521   4.277  24.458   7.964
 2983POPC   C4A39522   4.336  24.483   7.664
 2983POPC   C1B39523   4.083  24.409   8.564
 2983POPC   C2B39524   4.108  24.422   8.264
 2983POPC   C3B39525   4.047  24.425   7.964
 2983POPC   C4B39526   4.046  24.487   7.664
 2984POPC   NC339527   8.152  19.014   9.464
 2984POPC   PO439528   8.190  19.070   9.164
 2984POPC   GL139529   8.153  19.054   8.864
 2984POPC   GL239530   8.342  19.088   8.864
 2984POPC   C1A39531   8.167  19.061   8.564
 2984POPC   D2A39532   8.227  19.052   8.264
 2984POPC   C3A39533   8.208  19.016   7.964
 2984POPC   C4A39534   8.169  19.073   7.664
 2984POPC   C1B39535   8.406  19.184   8.564
 2984POPC   C2B39536   8.420  19.182   8.264
 2984POPC   C3B39537   8.426  19.217   7.964
 2984POPC   C4B39538   8.366  19.205   7.664
 2985POPC   NC339539   5.820   5.120   9.464
 2985POPC   PO439540   5.870   5.118   9.164
 2985POPC   GL139541   5.877   5.079   8.864
 2985POPC   GL239542   6.034   5.032   8.864
 2985POPC   C1A39543   5.839   5.079   8.564
 2985POPC   D2A39544   5.837   5.071   8.264
 2985POPC   C3A39545   5.858   5.100   7.964
 2985POPC   C4A39546   5.888   5.075   7.664
 2985POPC   C1B39547   6.133   5.048   8.564
 2985POPC   C2B39548   6.090   5.010   8.264
 2985POPC   C3B39549   6.143   4.999   7.964
 2985POPC   C4B39550   6.091   5.031   7.664
 2986POPC   NC339551   3.518   5.896   9.464
 2986POPC   PO439552   3.578   5.869   9.164
 2986POPC   GL139553   3.515   5.873   8.864
 2986POPC   GL239554   3.676   5.850   8.864
 2986POPC   C1A39555   3.532   5.905   8.564
 2986POPC   D2A39556   3.569   5.844   8.264
 2986POPC   C3A39557   3.554   5.871   7.964
 2986POPC   C4A39558   3.532   5.845   7.664
 2986POPC   C1B39559   3.781   5.879   8.564
 2986POPC   C2B39560   3.818   5.905   8.264
 2986POPC   C3B39561   3.751   5.881   7.964
 2986POPC   C4B39562   3.834   5.863   7.664
 2987POPC   NC339563  11.307  26.059   9.464
 2987POPC   PO439564  11.317  25.992   9.164
 2987POPC   GL139565  11.303  26.018   8.864
 2987POPC   GL239566  11.166  26.121   8.864
 2987POPC   C1A39567  11.306  26.051   8.564
 2987POPC   D2A39568  11.300  26.036   8.264
 2987POPC   C3A39569  11.343  26.078   7.964
 2987POPC   C4A39570  11.349  26.002   7.664
 2987POPC   C1B39571  11.033  26.090   8.564
 2987POPC   C2B39572  11.107  26.063   8.264
 2987POPC   C3B39573  11.078  26.134   7.964
 2987POPC   C4B39574  11.020  26.143   7.664
 2988POPC   NC339575   3.522  21.418   9.464
 2988POPC   PO439576   3.550  21.350   9.164
 2988POPC   GL139577   3.528  21.409   8.864
 2988POPC   GL239578   3.553  21.522   8.864
 2988POPC   C1A39579   3.568  21.365   8.564
 2988POPC   D2A39580   3.589  21.431   8.264
 2988POPC   C3A39581   3.507  21.353   7.964
 2988POPC   C4A39582   3.510  21.432   7.664
 2988POPC   C1B39583   3.604  21.628   8.564
 2988POPC   C2B39584   3.680  21.623   8.264
 2988POPC   C3B39585   3.647  21.568   7.964
 2988POPC   C4B39586   3.675  21.653   7.664
 2989POPC   NC339587  43.861  40.794   9.464
 2989POPC   PO439588  43.872  40.808   9.164
 2989POPC   GL139589  43.856  40.793   8.864
 2989POPC   GL239590  43.825  40.701   8.864
 2989POPC   C1A39591  43.844  40.802   8.564
 2989POPC   D2A39592  43.891  40.735   8.264
 2989POPC   C3A39593  43.885  40.800   7.964
 2989POPC   C4A39594  43.885  40.734   7.664
 2989POPC   C1B39595  43.695  40.592   8.564
 2989POPC   C2B39596  43.762  40.646   8.264
 2989POPC   C3B39597  43.737  40.592   7.964
 2989POPC   C4B39598  43.688  40.618   7.664
 2990POPC   NC339599   8.984  35.309   9.464
 2990POPC   PO439600   8.934  35.375   9.164
 2990POPC   GL139601   8.960  35.314   8.864
 2990POPC   GL239602   8.972  35.505   8.864
 2990POPC   C1A39603   8.958  35.318   8.564
 2990POPC   D2A39604   9.018  35.304   8.264
 2990POPC   C3A39605   9.003  35.339   7.964
 2990POPC   C4A39606   8.946  35.373   7.664
 2990POPC   C1B39607   8.922  35.547   8.564
 2990POPC   C2B39608   8.922  35.587   8.264
 2990POPC   C3B39609   8.920  35.574   7.964
 2990POPC   C4B39610   8.905  35.612   7.664
 2991POPC   NC339611   8.999   9.000   9.464
 2991POPC   PO439612   8.984   9.003   9.164
 2991POPC   GL139613   9.020   8.984   8.864
 2991POPC   GL239614   8.891   9.110   8.864
 2991POPC   C1A39615   8.982   8.991   8.564
 2991POPC   D2A39616   8.977   8.932   8.264
 2991POPC   C3A39617   8.954   8.951   7.964
 2991POPC   C4A39618   9.022   8.947   7.664
 2991POPC   C1B39619   8.835   9.142   8.564
 2991POPC   C2B39620   8.867   9.166   8.264
 2991POPC   C3B39621   8.808   9.147   7.964
 2991POPC   C4B39622   8.846   9.143   7.664
 2992POPC   NC339623  25.231  36.942   9.464
 2992POPC   PO439624  25.277  36.872   9.164
 2992POPC   GL139625  25.264  36.953   8.864
 2992POPC   GL239626  25.133  36.999   8.864
 2992POPC   C1A39627  25.292  36.927   8.564
 2992POPC   D2A39628  25.288  36.912   8.264
 2992POPC   C3A39629  25.231  36.879   7.964
 2992POPC   C4A39630  25.315  36.871   7.664
 2992POPC   C1B39631  25.010  36.958   8.564
 2992POPC   C2B39632  24.995  37.014   8.264
 2992POPC   C3B39633  25.056  36.948   7.964
 2992POPC   C4B39634  25.052  36.955   7.664
 2993POPC   NC339635  15.212  11.281   9.464
 2993POPC   PO439636  15.223  11.345   9.164
 2993POPC   GL139637  15.219  11.273   8.864
 2993POPC   GL239638  15.317  11.387   8.864
 2993POPC   C1A39639  15.189  11.323   8.564
 2993POPC   D2A39640  15.188  11.348   8.264
 2993POPC   C3A39641  15.194  11.326   7.964
 2993POPC   C4A39642  15.212  11.284   7.664
 2993POPC   C1B39643  15.423  11.457   8.564
 2993POPC   C2B39644  15.352  11.451   8.264
 2993POPC   C3B39645  15.395  11.459   7.964
 2993POPC   C4B39646  15.395  11.494   7.664
 2994POPC   NC339647  22.128   5.135   9.464
 2994POPC   PO439648  22.129   5.072   9.164
 2994POPC   GL139649  22.208   5.067   8.864
 2994POPC   GL239650  22.020   5.153   8.864
 2994POPC   C1A39651  22.122   5.105   8.564
 2994POPC   D2A39652  22.163   5.061   8.264
 2994POPC   C3A39653  22.180   5.064   7.964
 2994POPC   C4A39654  22.118   5.065   7.664
 2994POPC   C1B39655  21.943   5.198   8.564
 2994POPC   C2B39656  21.947   5.193   8.264
 2994POPC   C3B39657  21.947   5.177   7.964
 2994POPC   C4B39658  21.907   5.226   7.664
 2995POPC   NC339659  22.984  30.677   9.464
 2995POPC   PO439660  22.921  30.653   9.164
 2995POPC   GL139661  22.935  30.657   8.864
 2995POPC   GL239662  22.840  30.779   8.864
 2995POPC   C1A39663  22.932  30.649   8.564
 2995POPC   D2A39664  22.916  30.679   8.264
 2995POPC   C3A39665  22.914  30.650   7.964
 2995POPC   C4A39666  22.939  30.692   7.664
 2995POPC   C1B39667  22.711  30.768   8.564
 2995POPC   C2B39668  22.759  30.847   8.264
 2995POPC   C3B39669  22.732  30.799   7.964
 2995POPC   C4B39670  22.731  30.832   7.664
 2996POPC   NC339671  32.979  26.091   9.464
 2996POPC   PO439672  33.052  26.038   9.164
 2996POPC   GL139673  32.997  26.034   8.864
 2996POPC   GL239674  32.874  26.106   8.864
 2996POPC   C1A39675  33.073  26.005   8.564
 2996POPC   D2A39676  33.007  26.007   8.264
 2996POPC   C3A39677  33.067  26.055   7.964
 2996POPC   C4A39678  33.070  26.021   7.664
 2996POPC   C1B39679  32.780  26.234   8.564
 2996POPC   C2B39680  32.833  26.191   8.264
 2996POPC   C3B39681  32.777  26.167   7.964
 2996POPC   C4B39682  32.773  26.203   7.664
 2997POPC   NC339683  26.800  10.523   9.464
 2997POPC   PO439684  26.833  10.537   9.164
 2997POPC   GL139685  26.861  10.553   8.864
 2997POPC   GL239686  26.689  10.625   8.864
 2997POPC   C1A39687  26.813  10.561   8.564
 2997POPC   D2A39688  26.776  10.536   8.264
 2997POPC   C3A39689  26.811  10.555   7.964
 2997POPC   C4A39690  26.791  10.563   7.664
 2997POPC   C1B39691  26.586  10.691   8.564
 2997POPC   C2B39692  26.613  10.709   8.264
 2997POPC   C3B39693  26.620  10.645   7.964
 2997POPC   C4B39694  26.643  10.667   7.664
 2998POPC   NC339695  20.609   1.222   9.464
 2998POPC   PO439696  20.622   1.223   9.164
 2998POPC   GL139697  20.573   1.204   8.864
 2998POPC   GL239698  20.552   1.297   8.864
 2998POPC   C1A39699  20.649   1.187   8.564
 2998POPC   D2A39700  20.634   1.198   8.264
 2998POPC   C3A39701  20.608   1.249   7.964
 2998POPC   C4A39702  20.589   1.192   7.664
 2998POPC   C1B39703  20.442   1.454   8.564
 2998POPC   C2B39704  20.431   1.383   8.264
 2998POPC   C3B39705  20.457   1.384   7.964
 2998POPC   C4B39706  20.454   1.415   7.664
 2999POPC   NC339707  35.321   6.654   9.464
 2999POPC   PO439708  35.309   6.622   9.164
 2999POPC   GL139709  35.303   6.649   8.864
 2999POPC   GL239710  35.421   6.503   8.864
 2999POPC   C1A39711  35.368   6.645   8.564
 2999POPC   D2A39712  35.387   6.605   8.264
 2999POPC   C3A39713  35.399   6.622   7.964
 2999POPC   C4A39714  35.341   6.599   7.664
 2999POPC   C1B39715  35.524   6.448   8.564
 2999POPC   C2B39716  35.526   6.413   8.264
 2999POPC   C3B39717  35.535   6.458   7.964
 2999POPC   C4B39718  35.535   6.445   7.664
 3000POPC   NC339719   1.969  15.970   9.464
 3000POPC   PO439720   1.975  15.941   9.164
 3000POPC   GL139721   1.977  15.912   8.864
 3000POPC   GL239722   2.083  15.873   8.864
 3000POPC   C1A39723   1.957  15.970   8.564
 3000POPC   D2A39724   1.985  15.938   8.264
 3000POPC   C3A39725   2.011  15.911   7.964
 3000POPC   C4A39726   2.000  15.975   7.664
 3000POPC   C1B39727   2.248  15.889   8.564
 3000POPC   C2B39728   2.189  15.884   8.264
 3000POPC   C3B39729   2.235  15.921   7.964
 3000POPC   C4B39730   2.231  15.922   7.664
 3001POPC   NC339731  18.236  40.054   9.464
 3001POPC   PO439732  18.266  40.006   9.164
 3001POPC   GL139733  18.280  39.984   8.864
 3001POPC   GL239734  18.184  39.928   8.864
 3001POPC   C1A39735  18.247  40.041   8.564
 3001POPC   D2A39736  18.270  39.979   8.264
 3001POPC   C3A39737  18.258  40.045   7.964
 3001POPC   C4A39738  18.270  40.003   7.664
 3001POPC   C1B39739  18.035  39.906   8.564
 3001POPC   C2B39740  18.046  39.823   8.264
 3001POPC   C3B39741  18.065  39.817   7.964
 3001POPC   C4B39742  18.041  39.851   7.664
 3002POPC   NC339743  29.925  31.423   9.464
 3002POPC   PO439744  29.891  31.456   9.164
 3002POPC   GL139745  29.888  31.424   8.864
 3002POPC   GL239746  29.871  31.564   8.864
 3002POPC   C1A39747  29.942  31.504   8.564
 3002POPC   D2A39748  29.916  31.477   8.264
 3002POPC   C3A39749  29.922  31.510   7.964
 3002POPC   C4A39750  29.895  31.430   7.664
 3002POPC   C1B39751  29.918  31.691   8.564
 3002POPC   C2B39752  29.896  31.676   8.264
 3002POPC   C3B39753  29.944  31.717   7.964
 3002POPC   C4B39754  29.881  31.675   7.664
 3003POPC   NC339755   8.187  25.267   9.464
 3003POPC   PO439756   8.231  25.232   9.164
 3003POPC   GL139757   8.153  25.269   8.864
 3003POPC   GL239758   8.121  25.261   8.864
 3003POPC   C1A39759   8.182  25.306   8.564
 3003POPC   D2A39760   8.150  25.314   8.264
 3003POPC   C3A39761   8.226  25.273   7.964
 3003POPC   C4A39762   8.150  25.226   7.664
 3003POPC   C1B39763   7.962  25.199   8.564
 3003POPC   C2B39764   7.986  25.196   8.264
 3003POPC   C3B39765   7.969  25.234   7.964
 3003POPC   C4B39766   7.916  25.182   7.664
 3004POPC   NC339767  20.623  37.653   9.464
 3004POPC   PO439768  20.596  37.688   9.164
 3004POPC   GL139769  20.645  37.727   8.864
 3004POPC   GL239770  20.619  37.569   8.864
 3004POPC   C1A39771  20.653  37.714   8.564
 3004POPC   D2A39772  20.567  37.701   8.264
 3004POPC   C3A39773  20.640  37.723   7.964
 3004POPC   C4A39774  20.568  37.687   7.664
 3004POPC   C1B39775  20.766  37.454   8.564
 3004POPC   C2B39776  20.704  37.442   8.264
 3004POPC   C3B39777  20.768  37.415   7.964
 3004POPC   C4B39778  20.701  37.471   7.664
 3005POPC   NC339779   7.371  39.996   9.464
 3005POPC   PO439780   7.407  39.991   9.164
 3005POPC   GL139781   7.448  40.016   8.864
 3005POPC   GL239782   7.356  40.124   8.864
 3005POPC   C1A39783   7.392  40.044   8.564
 3005POPC   D2A39784   7.399  39.957   8.264
 3005POPC   C3A39785   7.419  40.006   7.964
 3005POPC   C4A39786   7.373  40.018   7.664
 3005POPC   C1B39787   7.388  40.203   8.564
 3005POPC   C2B39788   7.328  40.218   8.264
 3005POPC   C3B39789   7.385  40.234   7.964
 3005POPC   C4B39790   7.391  40.237   7.664
 3006POPC   NC339791   5.071  22.206   9.464
 3006POPC   PO439792   5.139  22.202   9.164
 3006POPC   GL139793   5.079  22.185   8.864
 3006POPC   GL239794   5.018  22.019   8.864
 3006POPC   C1A39795   5.108  22.181   8.564
 3006POPC   D2A39796   5.107  22.150   8.264
 3006POPC   C3A39797   5.111  22.125   7.964
 3006POPC   C4A39798   5.128  22.190   7.664
 3006POPC   C1B39799   4.920  21.993   8.564
 3006POPC   C2B39800   4.961  21.979   8.264
 3006POPC   C3B39801   4.993  21.988   7.964
 3006POPC   C4B39802   4.991  21.991   7.664
 3007POPC   NC339803  35.373  11.272   9.464
 3007POPC   PO439804  35.337  11.299   9.164
 3007POPC   GL139805  35.398  11.296   8.864
 3007POPC   GL239806  35.199  11.391   8.864
 3007POPC   C1A39807  35.372  11.304   8.564
 3007POPC   D2A39808  35.304  11.266   8.264
 3007POPC   C3A39809  35.322  11.341   7.964
 3007POPC   C4A39810  35.334  11.343   7.664
 3007POPC   C1B39811  35.105  11.358   8.564
 3007POPC   C2B39812  35.113  11.416   8.264
 3007POPC   C3B39813  35.151  11.366   7.964
 3007POPC   C4B39814  35.104  11.420   7.664
 3008POPC   NC339815  27.590  35.350   9.464
 3008POPC   PO439816  27.637  35.328   9.164
 3008POPC   GL139817  27.563  35.358   8.864
 3008POPC   GL239818  27.694  35.443   8.864
 3008POPC   C1A39819  27.569  35.308   8.564
 3008POPC   D2A39820  27.599  35.343   8.264
 3008POPC   C3A39821  27.546  35.354   7.964
 3008POPC   C4A39822  27.607  35.323   7.664
 3008POPC   C1B39823  27.787  35.515   8.564
 3008POPC   C2B39824  27.775  35.489   8.264
 3008POPC   C3B39825  27.853  35.490   7.964
 3008POPC   C4B39826  27.810  35.458   7.664
 3009POPC   NC339827  20.593  18.286   9.464
 3009POPC   PO439828  20.604  18.275   9.164
 3009POPC   GL139829  20.594  18.283   8.864
 3009POPC   GL239830  20.514  18.138   8.864
 3009POPC   C1A39831  20.600  18.271   8.564
 3009POPC   D2A39832  20.615  18.272   8.264
 3009POPC   C3A39833  20.599  18.279   7.964
 3009POPC   C4A39834  20.569  18.331   7.664
 3009POPC   C1B39835  20.449  18.056   8.564
 3009POPC   C2B39836  20.505  18.049   8.264
 3009POPC   C3B39837  20.456  18.045   7.964
 3009POPC   C4B39838  20.501  18.079   7.664
 3010POPC   NC339839  22.169  27.612   9.464
 3010POPC   PO439840  22.148  27.616   9.164
 3010POPC   GL139841  22.156  27.555   8.864
 3010POPC   GL239842  22.259  27.587   8.864
 3010POPC   C1A39843  22.173  27.554   8.564
 3010POPC   D2A39844  22.116  27.640   8.264
 3010POPC   C3A39845  22.188  27.609   7.964
 3010POPC   C4A39846  22.147  27.598   7.664
 3010POPC   C1B39847  22.380  27.549   8.564
 3010POPC   C2B39848  22.392  27.542   8.264
 3010POPC   C3B39849  22.371  27.590   7.964
 3010POPC   C4B39850  22.452  27.541   7.664
 3011POPC   NC339851  13.677  10.565   9.464
 3011POPC   PO439852  13.664  10.572   9.164
 3011POPC   GL139853  13.664  10.501   8.864
 3011POPC   GL239854  13.498  10.520   8.864
 3011POPC   C1A39855  13.675  10.544   8.564
 3011POPC   D2A39856  13.598  10.548   8.264
 3011POPC   C3A39857  13.594  10.558   7.964
 3011POPC   C4A39858  13.612  10.513   7.664
 3011POPC   C1B39859  13.342  10.500   8.564
 3011POPC   C2B39860  13.408  10.455   8.264
 3011POPC   C3B39861  13.335  10.453   7.964
 3011POPC   C4B39862  13.421  10.464   7.664
 3012POPC   NC339863  34.539  44.712   9.464
 3012POPC   PO439864  34.581  44.653   9.164
 3012POPC   GL139865  34.566  44.639   8.864
 3012POPC   GL239866  34.730  44.650   8.864
 3012POPC   C1A39867  34.533  44.640   8.564
 3012POPC   D2A39868  34.558  44.649   8.264
 3012POPC   C3A39869  34.622  44.659   7.964
 3012POPC   C4A39870  34.583  44.648   7.664
 3012POPC   C1B39871  34.785  44.555   8.564
 3012POPC   C2B39872  34.812  44.614   8.264
 3012POPC   C3B39873  34.817  44.592   7.964
 3012POPC   C4B39874  34.765  44.540   7.664
 3013POPC   NC339875  29.961   2.789   9.464
 3013POPC   PO439876  29.956   2.722   9.164
 3013POPC   GL139877  29.907   2.777   8.864
 3013POPC   GL239878  30.058   2.820   8.864
 3013POPC   C1A39879  29.943   2.776   8.564
 3013POPC   D2A39880  29.969   2.758   8.264
 3013POPC   C3A39881  29.875   2.730   7.964
 3013POPC   C4A39882  29.902   2.738   7.664
 3013POPC   C1B39883  30.120   2.755   8.564
 3013POPC   C2B39884  30.175   2.795   8.264
 3013POPC   C3B39885  30.216   2.785   7.964
 3013POPC   C4B39886  30.187   2.760   7.664
 3014POPC   NC339887  22.908  20.605   9.464
 3014POPC   PO439888  22.971  20.574   9.164
 3014POPC   GL139889  22.902  20.637   8.864
 3014POPC   GL239890  22.968  20.692   8.864
 3014POPC   C1A39891  22.963  20.601   8.564
 3014POPC   D2A39892  22.944  20.592   8.264
 3014POPC   C3A39893  22.899  20.640   7.964
 3014POPC   C4A39894  22.952  20.561   7.664
 3014POPC   C1B39895  23.060  20.824   8.564
 3014POPC   C2B39896  23.094  20.856   8.264
 3014POPC   C3B39897  23.064  20.831   7.964
 3014POPC   C4B39898  23.064  20.841   7.664
 3015POPC   NC339899  21.372  36.104   9.464
 3015POPC   PO439900  21.345  36.169   9.164
 3015POPC   GL139901  21.422  36.111   8.864
 3015POPC   GL239902  21.380  36.257   8.864
 3015POPC   C1A39903  21.416  36.104   8.564
 3015POPC   D2A39904  21.380  36.134   8.264
 3015POPC   C3A39905  21.364  36.166   7.964
 3015POPC   C4A39906  21.434  36.139   7.664
 3015POPC   C1B39907  21.352  36.405   8.564
 3015POPC   C2B39908  21.349  36.372   8.264
 3015POPC   C3B39909  21.303  36.366   7.964
 3015POPC   C4B39910  21.356  36.389   7.664
 3016POPC   NC339911  37.689   8.236   9.464
 3016POPC   PO439912  37.638   8.204   9.164
 3016POPC   GL139913  37.656   8.150   8.864
 3016POPC   GL239914  37.838   8.158   8.864
 3016POPC   C1A39915  37.678   8.218   8.564
 3016POPC   D2A39916  37.657   8.233   8.264
 3016POPC   C3A39917  37.726   8.185   7.964
 3016POPC   C4A39918  37.631   8.176   7.664
 3016POPC   C1B39919  37.945   8.115   8.564
 3016POPC   C2B39920  37.944   8.092   8.264
 3016POPC   C3B39921  37.914   8.125   7.964
 3016POPC   C4B39922  37.918   8.052   7.664
 3017POPC   NC339923  38.417   2.016   9.464
 3017POPC   PO439924  38.459   1.955   9.164
 3017POPC   GL139925  38.442   1.987   8.864
 3017POPC   GL239926  38.376   1.930   8.864
 3017POPC   C1A39927  38.481   2.035   8.564
 3017POPC   D2A39928  38.441   1.998   8.264
 3017POPC   C3A39929  38.410   2.016   7.964
 3017POPC   C4A39930  38.415   1.981   7.664
 3017POPC   C1B39931  38.217   1.915   8.564
 3017POPC   C2B39932  38.174   1.971   8.264
 3017POPC   C3B39933  38.227   1.962   7.964
 3017POPC   C4B39934  38.176   1.943   7.664
 3018POPC   NC339935  30.670  35.375   9.464
 3018POPC   PO439936  30.678  35.328   9.164
 3018POPC   GL139937  30.675  35.355   8.864
 3018POPC   GL239938  30.640  35.486   8.864
 3018POPC   C1A39939  30.689  35.353   8.564
 3018POPC   D2A39940  30.702  35.340   8.264
 3018POPC   C3A39941  30.707  35.322   7.964
 3018POPC   C4A39942  30.650  35.374   7.664
 3018POPC   C1B39943  30.559  35.563   8.564
 3018POPC   C2B39944  30.600  35.575   8.264
 3018POPC   C3B39945  30.592  35.543   7.964
 3018POPC   C4B39946  30.563  35.514   7.664
 3019POPC   NC339947   5.842   0.477   9.464
 3019POPC   PO439948   5.846   0.393   9.164
 3019POPC   GL139949   5.882   0.449   8.864
 3019POPC   GL239950   5.753   0.544   8.864
 3019POPC   C1A39951   5.888   0.469   8.564
 3019POPC   D2A39952   5.907   0.439   8.264
 3019POPC   C3A39953   5.833   0.447   7.964
 3019POPC   C4A39954   5.896   0.408   7.664
 3019POPC   C1B39955   5.739   0.623   8.564
 3019POPC   C2B39956   5.717   0.613   8.264
 3019POPC   C3B39957   5.691   0.600   7.964
 3019POPC   C4B39958   5.729   0.603   7.664
 3020POPC   NC339959  19.804  23.730   9.464
 3020POPC   PO439960  19.827  23.729   9.164
 3020POPC   GL139961  19.813  23.714   8.864
 3020POPC   GL239962  19.928  23.629   8.864
 3020POPC   C1A39963  19.878  23.707   8.564
 3020POPC   D2A39964  19.835  23.716   8.264
 3020POPC   C3A39965  19.807  23.756   7.964
 3020POPC   C4A39966  19.876  23.670   7.664
 3020POPC   C1B39967  20.019  23.528   8.564
 3020POPC   C2B39968  20.020  23.513   8.264
 3020POPC   C3B39969  19.977  23.477   7.964
 3020POPC   C4B39970  20.023  23.516   7.664
 3021POPC   NC339971  26.021   5.888   9.464
 3021POPC   PO439972  26.008   5.837   9.164
 3021POPC   GL139973  26.027   5.918   8.864
 3021POPC   GL239974  26.212   5.916   8.864
 3021POPC   C1A39975  26.076   5.905   8.564
 3021POPC   D2A39976  26.024   5.882   8.264
 3021POPC   C3A39977  26.074   5.831   7.964
 3021POPC   C4A39978  26.074   5.854   7.664
 3021POPC   C1B39979  26.315   5.878   8.564
 3021POPC   C2B39980  26.318   5.921   8.264
 3021POPC   C3B39981  26.313   5.881   7.964
 3021POPC   C4B39982  26.262   5.891   7.664
 3022POPC   NC339983  16.769  25.273   9.464
 3022POPC   PO439984  16.776  25.221   9.164
 3022POPC   GL139985  16.767  25.302   8.864
 3022POPC   GL239986  16.850  25.255   8.864
 3022POPC   C1A39987  16.728  25.281   8.564
 3022POPC   D2A39988  16.714  25.302   8.264
 3022POPC   C3A39989  16.749  25.294   7.964
 3022POPC   C4A39990  16.711  25.260   7.664
 3022POPC   C1B39991  17.018  25.338   8.564
 3022POPC   C2B39992  16.980  25.265   8.264
 3022POPC   C3B39993  16.961  25.334   7.964
 3022POPC   C4B39994  16.983  25.307   7.664
 3023POPC   NC339995  40.772   8.959   9.464
 3023POPC   PO439996  40.783   8.990   9.164
 3023POPC   GL139997  40.758   8.935   8.864
 3023POPC   GL239998  40.736   8.813   8.864
 3023POPC   C1A39999  40.781   8.953   8.564
 3023POPC   D2A40000  40.760   8.951   8.264
 3023POPC   C3A40001  40.812   8.995   7.964
 3023POPC   C4A40002  40.764   8.932   7.664
 3023POPC   C1B40003  40.688   8.782   8.564
 3023POPC   C2B40004  40.691   8.744   8.264
 3023POPC   C3B40005  40.692   8.749   7.964
 3023POPC   C4B40006  40.668   8.752   7.664
 3024POPC   NC340007  32.979  14.435   9.464
 3024POPC   PO440008  33.024  14.424   9.164
 3024POPC   GL140009  33.039  14.396   8.864
 3024POPC   GL240010  32.936  14.438   8.864
 3024POPC   C1A40011  33.034  14.433   8.564
 3024POPC   D2A40012  33.015  14.437   8.264
 3024POPC   C3A40013  33.023  14.430   7.964
 3024POPC   C4A40014  33.021  14.419   7.664
 3024POPC   C1B40015  32.803  14.583   8.564
 3024POPC   C2B40016  32.877  14.601   8.264
 3024POPC   C3B40017  32.849  14.544   7.964
 3024POPC   C4B40018  32.823  14.522   7.664
 3025POPC   NC340019   7.371  20.630   9.464
 3025POPC   PO440020   7.450  20.607   9.164
 3025POPC   GL140021   7.455  20.615   8.864
 3025POPC   GL240022   7.489  20.686   8.864
 3025POPC   C1A40023   7.385  20.594   8.564
 3025POPC   D2A40024   7.427  20.592   8.264
 3025POPC   C3A40025   7.395  20.579   7.964
 3025POPC   C4A40026   7.413  20.600   7.664
 3025POPC   C1B40027   7.653  20.751   8.564
 3025POPC   C2B40028   7.602  20.683   8.264
 3025POPC   C3B40029   7.664  20.760   7.964
 3025POPC   C4B40030   7.686  20.753   7.664
 3026POPC   NC340031   2.771   5.907   9.464
 3026POPC   PO440032   2.763   5.868   9.164
 3026POPC   GL140033   2.797   5.867   8.864
 3026POPC   GL240034   2.660   5.849   8.864
 3026POPC   C1A40035   2.813   5.875   8.564
 3026POPC   D2A40036   2.717   5.840   8.264
 3026POPC   C3A40037   2.740   5.821   7.964
 3026POPC   C4A40038   2.770   5.831   7.664
 3026POPC   C1B40039   2.534   5.837   8.564
 3026POPC   C2B40040   2.497   5.874   8.264
 3026POPC   C3B40041   2.553   5.865   7.964
 3026POPC   C4B40042   2.472   5.822   7.664
 3027POPC   NC340043  38.420  20.589   9.464
 3027POPC   PO440044  38.472  20.581   9.164
 3027POPC   GL140045  38.490  20.579   8.864
 3027POPC   GL240046  38.545  20.658   8.864
 3027POPC   C1A40047  38.414  20.637   8.564
 3027POPC   D2A40048  38.453  20.639   8.264
 3027POPC   C3A40049  38.437  20.603   7.964
 3027POPC   C4A40050  38.481  20.590   7.664
 3027POPC   C1B40051  38.746  20.620   8.564
 3027POPC   C2B40052  38.698  20.624   8.264
 3027POPC   C3B40053  38.707  20.664   7.964
 3027POPC   C4B40054  38.676  20.632   7.664
 3028POPC   NC340055  29.131  27.569   9.464
 3028POPC   PO440056  29.141  27.600   9.164
 3028POPC   GL140057  29.143  27.578   8.864
 3028POPC   GL240058  29.156  27.506   8.864
 3028POPC   C1A40059  29.125  27.587   8.564
 3028POPC   D2A40060  29.103  27.603   8.264
 3028POPC   C3A40061  29.164  27.640   7.964
 3028POPC   C4A40062  29.137  27.609   7.664
 3028POPC   C1B40063  29.124  27.304   8.564
 3028POPC   C2B40064  29.158  27.362   8.264
 3028POPC   C3B40065  29.122  27.368   7.964
 3028POPC   C4B40066  29.208  27.313   7.664
 3029POPC   NC340067  22.892  27.563   9.464
 3029POPC   PO440068  22.954  27.571   9.164
 3029POPC   GL140069  22.986  27.574   8.864
 3029POPC   GL240070  22.862  27.536   8.864
 3029POPC   C1A40071  22.895  27.640   8.564
 3029POPC   D2A40072  22.952  27.620   8.264
 3029POPC   C3A40073  22.918  27.567   7.964
 3029POPC   C4A40074  22.978  27.567   7.664
 3029POPC   C1B40075  22.803  27.412   8.564
 3029POPC   C2B40076  22.819  27.409   8.264
 3029POPC   C3B40077  22.814  27.397   7.964
 3029POPC   C4B40078  22.828  27.391   7.664
 3030POPC   NC340079   0.403  18.279   9.464
 3030POPC   PO440080   0.404  18.320   9.164
 3030POPC   GL140081   0.478  18.322   8.864
 3030POPC   GL240082   0.364  18.252   8.864
 3030POPC   C1A40083   0.446  18.281   8.564
 3030POPC   D2A40084   0.417  18.278   8.264
 3030POPC   C3A40085   0.442  18.302   7.964
 3030POPC   C4A40086   0.426  18.318   7.664
 3030POPC   C1B40087   0.267  18.193   8.564
 3030POPC   C2B40088   0.278  18.152   8.264
 3030POPC   C3B40089   0.235  18.194   7.964
 3030POPC   C4B40090   0.202  18.104   7.664
 3031POPC   NC340091  26.049  20.610   9.464
 3031POPC   PO440092  26.081  20.611   9.164
 3031POPC   GL140093  25.993  20.632   8.864
 3031POPC   GL240094  25.926  20.547   8.864
 3031POPC   C1A40095  26.009  20.622   8.564
 3031POPC   D2A40096  26.040  20.644   8.264
 3031POPC   C3A40097  26.091  20.601   7.964
 3031POPC   C4A40098  26.035  20.652   7.664
 3031POPC   C1B40099  25.840  20.514   8.564
 3031POPC   C2B40100  25.776  20.574   8.264
 3031POPC   C3B40101  25.801  20.558   7.964
 3031POPC   C4B40102  25.776  20.572   7.664
 3032POPC   NC340103  17.493  39.260   9.464
 3032POPC   PO440104  17.535  39.213   9.164
 3032POPC   GL140105  17.465  39.244   8.864
 3032POPC   GL240106  17.412  39.284   8.864
 3032POPC   C1A40107  17.497  39.211   8.564
 3032POPC   D2A40108  17.469  39.260   8.264
 3032POPC   C3A40109  17.537  39.224   7.964
 3032POPC   C4A40110  17.498  39.189   7.664
 3032POPC   C1B40111  17.248  39.315   8.564
 3032POPC   C2B40112  17.293  39.318   8.264
 3032POPC   C3B40113  17.324  39.358   7.964
 3032POPC   C4B40114  17.321  39.367   7.664
 3033POPC   NC340115  17.468   5.877   9.464
 3033POPC   PO440116  17.486   5.823   9.164
 3033POPC   GL140117  17.502   5.881   8.864
 3033POPC   GL240118  17.560   5.969   8.864
 3033POPC   C1A40119  17.537   5.900   8.564
 3033POPC   D2A40120  17.504   5.879   8.264
 3033POPC   C3A40121  17.546   5.842   7.964
 3033POPC   C4A40122  17.526   5.893   7.664
 3033POPC   C1B40123  17.707   6.087   8.564
 3033POPC   C2B40124  17.656   6.044   8.264
 3033POPC   C3B40125  17.609   6.052   7.964
 3033POPC   C4B40126  17.673   6.051   7.664
 3034POPC   NC340127  20.625   8.970   9.464
 3034POPC   PO440128  20.635   8.924   9.164
 3034POPC   GL140129  20.561   9.008   8.864
 3034POPC   GL240130  20.696   8.823   8.864
 3034POPC   C1A40131  20.619   8.999   8.564
 3034POPC   D2A40132  20.598   8.992   8.264
 3034POPC   C3A40133  20.652   8.937   7.964
 3034POPC   C4A40134  20.587   8.987   7.664
 3034POPC   C1B40135  20.699   8.733   8.564
 3034POPC   C2B40136  20.686   8.781   8.264
 3034POPC   C3B40137  20.707   8.742   7.964
 3034POPC   C4B40138  20.725   8.764   7.664
 3035POPC   NC340139   1.165  14.376   9.464
 3035POPC   PO440140   1.236  14.451   9.164
 3035POPC   GL140141   1.181  14.368   8.864
 3035POPC   GL240142   1.272  14.441   8.864
 3035POPC   C1A40143   1.217  14.410   8.564
 3035POPC   D2A40144   1.258  14.405   8.264
 3035POPC   C3A40145   1.231  14.371   7.964
 3035POPC   C4A40146   1.219  14.397   7.664
 3035POPC   C1B40147   1.435  14.582   8.564
 3035POPC   C2B40148   1.353  14.590   8.264
 3035POPC   C3B40149   1.429  14.538   7.964
 3035POPC   C4B40150   1.352  14.556   7.664
 3036POPC   NC340151  19.823  15.166   9.464
 3036POPC   PO440152  19.788  15.186   9.164
 3036POPC   GL140153  19.863  15.200   8.864
 3036POPC   GL240154  19.816  15.035   8.864
 3036POPC   C1A40155  19.849  15.147   8.564
 3036POPC   D2A40156  19.830  15.216   8.264
 3036POPC   C3A40157  19.873  15.182   7.964
 3036POPC   C4A40158  19.803  15.132   7.664
 3036POPC   C1B40159  19.675  14.936   8.564
 3036POPC   C2B40160  19.689  14.918   8.264
 3036POPC   C3B40161  19.741  14.960   7.964
 3036POPC   C4B40162  19.729  14.947   7.664
 3037POPC   NC340163   7.438  29.903   9.464
 3037POPC   PO440164   7.414  29.877   9.164
 3037POPC   GL140165   7.389  29.903   8.864
 3037POPC   GL240166   7.573  29.834   8.864
 3037POPC   C1A40167   7.422  29.934   8.564
 3037POPC   D2A40168   7.422  29.909   8.264
 3037POPC   C3A40169   7.384  29.902   7.964
 3037POPC   C4A40170   7.453  29.924   7.664
 3037POPC   C1B40171   7.622  29.847   8.564
 3037POPC   C2B40172   7.681  29.843   8.264
 3037POPC   C3B40173   7.639  29.765   7.964
 3037POPC   C4B40174   7.663  29.817   7.664
 3038POPC   NC340175  20.615  15.955   9.464
 3038POPC   PO440176  20.606  15.944   9.164
 3038POPC   GL140177  20.640  15.939   8.864
 3038POPC   GL240178  20.738  16.005   8.864
 3038POPC   C1A40179  20.616  15.936   8.564
 3038POPC   D2A40180  20.581  15.915   8.264
 3038POPC   C3A40181  20.655  15.927   7.964
 3038POPC   C4A40182  20.629  15.938   7.664
 3038POPC   C1B40183  20.848  15.985   8.564
 3038POPC   C2B40184  20.817  16.007   8.264
 3038POPC   C3B40185  20.890  16.058   7.964
 3038POPC   C4B40186  20.862  15.989   7.664
 3039POPC   NC340187   1.213  28.402   9.464
 3039POPC   PO440188   1.216  28.340   9.164
 3039POPC   GL140189   1.241  28.393   8.864
 3039POPC   GL240190   1.158  28.313   8.864
 3039POPC   C1A40191   1.251  28.362   8.564
 3039POPC   D2A40192   1.195  28.386   8.264
 3039POPC   C3A40193   1.176  28.385   7.964
 3039POPC   C4A40194   1.231  28.345   7.664
 3039POPC   C1B40195   1.061  28.160   8.564
 3039POPC   C2B40196   1.034  28.150   8.264
 3039POPC   C3B40197   1.087  28.224   7.964
 3039POPC   C4B40198   1.029  28.165   7.664
 3040POPC   NC340199  21.380  25.273   9.464
 3040POPC   PO440200  21.384  25.307   9.164
 3040POPC   GL140201  21.373  25.307   8.864
 3040POPC   GL240202  21.257  25.324   8.864
 3040POPC   C1A40203  21.398  25.262   8.564
 3040POPC   D2A40204  21.355  25.315   8.264
 3040POPC   C3A40205  21.382  25.266   7.964
 3040POPC   C4A40206  21.430  25.314   7.664
 3040POPC   C1B40207  21.204  25.365   8.564
 3040POPC   C2B40208  21.234  25.380   8.264
 3040POPC   C3B40209  21.215  25.421   7.964
 3040POPC   C4B40210  21.139  25.459   7.664
 3041POPC   NC340211  29.128  29.890   9.464
 3041POPC   PO440212  29.163  29.938   9.164
 3041POPC   GL140213  29.117  29.873   8.864
 3041POPC   GL240214  29.138  30.033   8.864
 3041POPC   C1A40215  29.179  29.927   8.564
 3041POPC   D2A40216  29.167  29.929   8.264
 3041POPC   C3A40217  29.167  29.931   7.964
 3041POPC   C4A40218  29.144  29.967   7.664
 3041POPC   C1B40219  29.070  30.122   8.564
 3041POPC   C2B40220  29.154  30.192   8.264
 3041POPC   C3B40221  29.082  30.122   7.964
 3041POPC   C4B40222  29.123  30.132   7.664
 3042POPC   NC340223  10.503  44.683   9.464
 3042POPC   PO440224  10.497  44.710   9.164
 3042POPC   GL140225  10.536  44.672   8.864
 3042POPC   GL240226  10.612  44.755   8.864
 3042POPC   C1A40227  10.560  44.620   8.564
 3042POPC   D2A40228  10.550  44.620   8.264
 3042POPC   C3A40229  10.502  44.657   7.964
 3042POPC   C4A40230  10.521  44.643   7.664
 3042POPC   C1B40231  10.766  44.737   8.564
 3042POPC   C2B40232  10.754  44.720   8.264
 3042POPC   C3B40233  10.796  44.761   7.964
 3042POPC   C4B40234  10.744  44.796   7.664
 3043POPC   NC340235  32.993   5.836   9.464
 3043POPC   PO440236  32.985   5.896   9.164
 3043POPC   GL140237  33.005   5.861   8.864
 3043POPC   GL240238  32.926   5.887   8.864
 3043POPC   C1A40239  33.001   5.847   8.564
 3043POPC   D2A40240  32.994   5.893   8.264
 3043POPC   C3A40241  33.041   5.906   7.964
 3043POPC   C4A40242  33.033   5.914   7.664
 3043POPC   C1B40243  32.772   5.804   8.564
 3043POPC   C2B40244  32.758   5.845   8.264
 3043POPC   C3B40245  32.762   5.828   7.964
 3043POPC   C4B40246  32.776   5.811   7.664
 3044POPC   NC340247   4.355  34.545   9.464
 3044POPC   PO440248   4.276  34.623   9.164
 3044POPC   GL140249   4.291  34.586   8.864
 3044POPC   GL240250   4.258  34.723   8.864
 3044POPC   C1A40251   4.291  34.610   8.564
 3044POPC   D2A40252   4.345  34.572   8.264
 3044POPC   C3A40253   4.366  34.583   7.964
 3044POPC   C4A40254   4.346  34.547   7.664
 3044POPC   C1B40255   4.265  34.841   8.564
 3044POPC   C2B40256   4.295  34.793   8.264
 3044POPC   C3B40257   4.276  34.791   7.964
 3044POPC   C4B40258   4.249  34.842   7.664
 3045POPC   NC340259  36.118  12.101   9.464
 3045POPC   PO440260  36.171  12.106   9.164
 3045POPC   GL140261  36.078  12.100   8.864
 3045POPC   GL240262  36.175  12.180   8.864
 3045POPC   C1A40263  36.095  12.039   8.564
 3045POPC   D2A40264  36.174  12.081   8.264
 3045POPC   C3A40265  36.091  12.032   7.964
 3045POPC   C4A40266  36.126  12.065   7.664
 3045POPC   C1B40267  36.295  12.263   8.564
 3045POPC   C2B40268  36.248  12.260   8.264
 3045POPC   C3B40269  36.262  12.287   7.964
 3045POPC   C4B40270  36.299  12.324   7.664
 3046POPC   NC340271  37.679  37.721   9.464
 3046POPC   PO440272  37.682  37.700   9.164
 3046POPC   GL140273  37.679  37.675   8.864
 3046POPC   GL240274  37.634  37.755   8.864
 3046POPC   C1A40275  37.725  37.645   8.564
 3046POPC   D2A40276  37.655  37.702   8.264
 3046POPC   C3A40277  37.711  37.692   7.964
 3046POPC   C4A40278  37.651  37.650   7.664
 3046POPC   C1B40279  37.536  37.872   8.564
 3046POPC   C2B40280  37.555  37.897   8.264
 3046POPC   C3B40281  37.618  37.935   7.964
 3046POPC   C4B40282  37.591  37.946   7.664
 3047POPC   NC340283  25.227  30.671   9.464
 3047POPC   PO440284  25.216  30.734   9.164
 3047POPC   GL140285  25.266  30.692   8.864
 3047POPC   GL240286  25.170  30.675   8.864
 3047POPC   C1A40287  25.237  30.737   8.564
 3047POPC   D2A40288  25.241  30.730   8.264
 3047POPC   C3A40289  25.263  30.671   7.964
 3047POPC   C4A40290  25.282  30.743   7.664
 3047POPC   C1B40291  25.023  30.637   8.564
 3047POPC   C2B40292  25.007  30.677   8.264
 3047POPC   C3B40293  25.067  30.608   7.964
 3047POPC   C4B40294  25.066  30.680   7.664
 3048POPC   NC340295   3.529  33.815   9.464
 3048POPC   PO440296   3.589  33.841   9.164
 3048POPC   GL140297   3.516  33.756   8.864
 3048POPC   GL240298   3.661  33.722   8.864
 3048POPC   C1A40299   3.541  33.823   8.564
 3048POPC   D2A40300   3.564  33.812   8.264
 3048POPC   C3A40301   3.576  33.809   7.964
 3048POPC   C4A40302   3.542  33.782   7.664
 3048POPC   C1B40303   3.717  33.672   8.564
 3048POPC   C2B40304   3.703  33.710   8.264
 3048POPC   C3B40305   3.777  33.672   7.964
 3048POPC   C4B40306   3.766  33.657   7.664
 3049POPC   NC340307   8.959  12.870   9.464
 3049POPC   PO440308   8.935  12.883   9.164
 3049POPC   GL140309   9.003  12.865   8.864
 3049POPC   GL240310   9.043  12.953   8.864
 3049POPC   C1A40311   8.935  12.820   8.564
 3049POPC   D2A40312   8.960  12.889   8.264
 3049POPC   C3A40313   8.973  12.805   7.964
 3049POPC   C4A40314   8.991  12.832   7.664
 3049POPC   C1B40315   9.185  13.019   8.564
 3049POPC   C2B40316   9.141  12.966   8.264
 3049POPC   C3B40317   9.205  13.047   7.964
 3049POPC   C4B40318   9.136  12.994   7.664
 3050POPC   NC340319  11.339  14.417   9.464
 3050POPC   PO440320  11.309  14.421   9.164
 3050POPC   GL140321  11.259  14.423   8.864
 3050POPC   GL240322  11.173  14.380   8.864
 3050POPC   C1A40323  11.294  14.428   8.564
 3050POPC   D2A40324  11.257  14.452   8.264
 3050POPC   C3A40325  11.258  14.439   7.964
 3050POPC   C4A40326  11.345  14.452   7.664
 3050POPC   C1B40327  11.061  14.311   8.564
 3050POPC   C2B40328  11.023  14.309   8.264
 3050POPC   C3B40329  11.051  14.350   7.964
 3050POPC   C4B40330  11.095  14.284   7.664
 3051POPC   NC340331  25.231  31.518   9.464
 3051POPC   PO440332  25.272  31.452   9.164
 3051POPC   GL140333  25.287  31.498   8.864
 3051POPC   GL240334  25.324  31.386   8.864
 3051POPC   C1A40335  25.234  31.504   8.564
 3051POPC   D2A40336  25.284  31.448   8.264
 3051POPC   C3A40337  25.240  31.471   7.964
 3051POPC   C4A40338  25.282  31.484   7.664
 3051POPC   C1B40339  25.435  31.252   8.564
 3051POPC   C2B40340  25.416  31.291   8.264
 3051POPC   C3B40341  25.412  31.315   7.964
 3051POPC   C4B40342  25.477  31.293   7.664
 3052POPC   NC340343   8.928  32.241   9.464
 3052POPC   PO440344   8.996  32.267   9.164
 3052POPC   GL140345   8.985  32.268   8.864
 3052POPC   GL240346   9.064  32.275   8.864
 3052POPC   C1A40347   8.968  32.220   8.564
 3052POPC   D2A40348   9.005  32.272   8.264
 3052POPC   C3A40349   8.981  32.228   7.964
 3052POPC   C4A40350   9.008  32.257   7.664
 3052POPC   C1B40351   9.129  32.403   8.564
 3052POPC   C2B40352   9.138  32.369   8.264
 3052POPC   C3B40353   9.155  32.358   7.964
 3052POPC   C4B40354   9.135  32.352   7.664
 3053POPC   NC340355  30.689  12.089   9.464
 3053POPC   PO440356  30.744  12.048   9.164
 3053POPC   GL140357  30.677  12.088   8.864
 3053POPC   GL240358  30.725  11.991   8.864
 3053POPC   C1A40359  30.702  12.066   8.564
 3053POPC   D2A40360  30.739  12.105   8.264
 3053POPC   C3A40361  30.691  12.054   7.964
 3053POPC   C4A40362  30.651  12.083   7.664
 3053POPC   C1B40363  30.641  11.827   8.564
 3053POPC   C2B40364  30.663  11.805   8.264
 3053POPC   C3B40365  30.686  11.824   7.964
 3053POPC   C4B40366  30.680  11.807   7.664
 3054POPC   NC340367  36.089  31.462   9.464
 3054POPC   PO440368  36.108  31.472   9.164
 3054POPC   GL140369  36.163  31.500   8.864
 3054POPC   GL240370  36.054  31.609   8.864
 3054POPC   C1A40371  36.104  31.459   8.564
 3054POPC   D2A40372  36.102  31.508   8.264
 3054POPC   C3A40373  36.104  31.484   7.964
 3054POPC   C4A40374  36.145  31.448   7.664
 3054POPC   C1B40375  35.999  31.676   8.564
 3054POPC   C2B40376  36.012  31.712   8.264
 3054POPC   C3B40377  35.992  31.661   7.964
 3054POPC   C4B40378  36.091  31.669   7.664
 3055POPC   NC340379  44.663  35.332   9.464
 3055POPC   PO440380  44.655  35.314   9.164
 3055POPC   GL140381  44.667  35.323   8.864
 3055POPC   GL240382  44.550  35.438   8.864
 3055POPC   C1A40383  44.619  35.313   8.564
 3055POPC   D2A40384  44.663  35.342   8.264
 3055POPC   C3A40385  44.621  35.375   7.964
 3055POPC   C4A40386  44.625  35.349   7.664
 3055POPC   C1B40387  44.416  35.448   8.564
 3055POPC   C2B40388  44.442  35.484   8.264
 3055POPC   C3B40389  44.488  35.424   7.964
 3055POPC   C4B40390  44.475  35.457   7.664
 3056POPC   NC340391  35.324  36.112   9.464
 3056POPC   PO440392  35.391  36.081   9.164
 3056POPC   GL140393  35.388  36.164   8.864
 3056POPC   GL240394  35.341  36.257   8.864
 3056POPC   C1A40395  35.388  36.140   8.564
 3056POPC   D2A40396  35.327  36.136   8.264
 3056POPC   C3A40397  35.330  36.145   7.964
 3056POPC   C4A40398  35.305  36.148   7.664
 3056POPC   C1B40399  35.298  36.399   8.564
 3056POPC   C2B40400  35.307  36.398   8.264
 3056POPC   C3B40401  35.342  36.389   7.964
 3056POPC   C4B40402  35.276  36.332   7.664
 3057POPC   NC340403  36.950  24.504   9.464
 3057POPC   PO440404  36.924  24.539   9.164
 3057POPC   GL140405  36.928  24.540   8.864
 3057POPC   GL240406  36.836  24.415   8.864
 3057POPC   C1A40407  36.890  24.470   8.564
 3057POPC   D2A40408  36.875  24.476   8.264
 3057POPC   C3A40409  36.937  24.532   7.964
 3057POPC   C4A40410  36.946  24.485   7.664
 3057POPC   C1B40411  36.665  24.390   8.564
 3057POPC   C2B40412  36.674  24.353   8.264
 3057POPC   C3B40413  36.700  24.378   7.964
 3057POPC   C4B40414  36.643  24.358   7.664
 3058POPC   NC340415  11.319  20.632   9.464
 3058POPC   PO440416  11.265  20.643   9.164
 3058POPC   GL140417  11.312  20.652   8.864
 3058POPC   GL240418  11.319  20.680   8.864
 3058POPC   C1A40419  11.296  20.588   8.564
 3058POPC   D2A40420  11.334  20.657   8.264
 3058POPC   C3A40421  11.266  20.602   7.964
 3058POPC   C4A40422  11.321  20.617   7.664
 3058POPC   C1B40423  11.460  20.818   8.564
 3058POPC   C2B40424  11.363  20.882   8.264
 3058POPC   C3B40425  11.429  20.873   7.964
 3058POPC   C4B40426  11.370  20.878   7.664
 3059POPC   NC340427   0.473   2.029   9.464
 3059POPC   PO440428   0.437   1.983   9.164
 3059POPC   GL140429   0.482   2.011   8.864
 3059POPC   GL240430   0.408   1.840   8.864
 3059POPC   C1A40431   0.406   2.000   8.564
 3059POPC   D2A40432   0.473   1.975   8.264
 3059POPC   C3A40433   0.429   2.019   7.964
 3059POPC   C4A40434   0.437   1.988   7.664
 3059POPC   C1B40435   0.494   1.789   8.564
 3059POPC   C2B40436   0.508   1.774   8.264
 3059POPC   C3B40437   0.427   1.780   7.964
 3059POPC   C4B40438   0.450   1.717   7.664
 3060POPC   NC340439  39.246  22.182   9.464
 3060POPC   PO440440  39.218  22.115   9.164
 3060POPC   GL140441  39.258  22.120   8.864
 3060POPC   GL240442  39.272  22.213   8.864
 3060POPC   C1A40443  39.266  22.203   8.564
 3060POPC   D2A40444  39.258  22.153   8.264
 3060POPC   C3A40445  39.235  22.157   7.964
 3060POPC   C4A40446  39.224  22.130   7.664
 3060POPC   C1B40447  39.435  22.325   8.564
 3060POPC   C2B40448  39.412  22.334   8.264
 3060POPC   C3B40449  39.429  22.342   7.964
 3060POPC   C4B40450  39.395  22.372   7.664
 3061POPC   NC340451  23.722  12.047   9.464
 3061POPC   PO440452  23.751  12.047   9.164
 3061POPC   GL140453  23.717  12.056   8.864
 3061POPC   GL240454  23.608  11.973   8.864
 3061POPC   C1A40455  23.760  12.046   8.564
 3061POPC   D2A40456  23.757  12.044   8.264
 3061POPC   C3A40457  23.753  12.045   7.964
 3061POPC   C4A40458  23.716  12.068   7.664
 3061POPC   C1B40459  23.499  11.917   8.564
 3061POPC   C2B40460  23.581  11.900   8.264
 3061POPC   C3B40461  23.535  11.927   7.964
 3061POPC   C4B40462  23.583  11.887   7.664
 3062POPC   NC340463  41.512   5.833   9.464
 3062POPC   PO440464  41.533   5.849   9.164
 3062POPC   GL140465  41.541   5.858   8.864
 3062POPC   GL240466  41.675   5.912   8.864
 3062POPC   C1A40467  41.601   5.832   8.564
 3062POPC   D2A40468  41.548   5.863   8.264
 3062POPC   C3A40469  41.536   5.907   7.964
 3062POPC   C4A40470  41.547   5.854   7.664
 3062POPC   C1B40471  41.748   6.066   8.564
 3062POPC   C2B40472  41.792   6.086   8.264
 3062POPC   C3B40473  41.733   5.992   7.964
 3062POPC   C4B40474  41.768   6.042   7.664
 3063POPC   NC340475  17.549   5.057   9.464
 3063POPC   PO440476  17.549   5.101   9.164
 3063POPC   GL140477  17.480   5.074   8.864
 3063POPC   GL240478  17.404   5.073   8.864
 3063POPC   C1A40479  17.528   5.130   8.564
 3063POPC   D2A40480  17.495   5.123   8.264
 3063POPC   C3A40481  17.468   5.054   7.964
 3063POPC   C4A40482  17.467   5.113   7.664
 3063POPC   C1B40483  17.212   5.159   8.564
 3063POPC   C2B40484  17.231   5.167   8.264
 3063POPC   C3B40485  17.227   5.152   7.964
 3063POPC   C4B40486  17.256   5.135   7.664
 3064POPC   NC340487  36.858  39.965   9.464
 3064POPC   PO440488  36.916  40.008   9.164
 3064POPC   GL140489  36.928  40.052   8.864
 3064POPC   GL240490  37.016  39.976   8.864
 3064POPC   C1A40491  36.858  39.965   8.564
 3064POPC   D2A40492  36.865  39.995   8.264
 3064POPC   C3A40493  36.952  40.022   7.964
 3064POPC   C4A40494  36.937  40.033   7.664
 3064POPC   C1B40495  37.151  40.056   8.564
 3064POPC   C2B40496  37.154  40.016   8.264
 3064POPC   C3B40497  37.168  39.987   7.964
 3064POPC   C4B40498  37.162  40.035   7.664
 3065POPC   NC340499  34.588  41.580   9.464
 3065POPC   PO440500  34.615  41.549   9.164
 3065POPC   GL140501  34.625  41.571   8.864
 3065POPC   GL240502  34.479  41.521   8.864
 3065POPC   C1A40503  34.574  41.592   8.564
 3065POPC   D2A40504  34.588  41.547   8.264
 3065POPC   C3A40505  34.530  41.540   7.964
 3065POPC   C4A40506  34.595  41.603   7.664
 3065POPC   C1B40507  34.342  41.384   8.564
 3065POPC   C2B40508  34.385  41.463   8.264
 3065POPC   C3B40509  34.384  41.378   7.964
 3065POPC   C4B40510  34.399  41.470   7.664
 3066POPC   NC340511  35.334  36.940   9.464
 3066POPC   PO440512  35.307  36.897   9.164
 3066POPC   GL140513  35.367  36.917   8.864
 3066POPC   GL240514  35.273  36.857   8.864
 3066POPC   C1A40515  35.346  36.892   8.564
 3066POPC   D2A40516  35.307  36.935   8.264
 3066POPC   C3A40517  35.368  36.919   7.964
 3066POPC   C4A40518  35.377  36.943   7.664
 3066POPC   C1B40519  35.084  36.818   8.564
 3066POPC   C2B40520  35.083  36.845   8.264
 3066POPC   C3B40521  35.111  36.822   7.964
 3066POPC   C4B40522  35.112  36.815   7.664
 3067POPC   NC340523  19.881  27.631   9.464
 3067POPC   PO440524  19.835  27.594   9.164
 3067POPC   GL140525  19.846  27.601   8.864
 3067POPC   GL240526  19.900  27.522   8.864
 3067POPC   C1A40527  19.811  27.571   8.564
 3067POPC   D2A40528  19.821  27.615   8.264
 3067POPC   C3A40529  19.794  27.619   7.964
 3067POPC   C4A40530  19.872  27.563   7.664
 3067POPC   C1B40531  19.956  27.391   8.564
 3067POPC   C2B40532  20.013  27.429   8.264
 3067POPC   C3B40533  19.989  27.386   7.964
 3067POPC   C4B40534  20.029  27.352   7.664
 3068POPC   NC340535   2.812  21.404   9.464
 3068POPC   PO440536   2.783  21.396   9.164
 3068POPC   GL140537   2.796  21.346   8.864
 3068POPC   GL240538   2.856  21.462   8.864
 3068POPC   C1A40539   2.783  21.410   8.564
 3068POPC   D2A40540   2.716  21.375   8.264
 3068POPC   C3A40541   2.728  21.413   7.964
 3068POPC   C4A40542   2.809  21.420   7.664
 3068POPC   C1B40543   2.943  21.594   8.564
 3068POPC   C2B40544   2.856  21.629   8.264
 3068POPC   C3B40545   2.920  21.595   7.964
 3068POPC   C4B40546   2.879  21.570   7.664
 3069POPC   NC340547  16.764   5.881   9.464
 3069POPC   PO440548  16.774   5.847   9.164
 3069POPC   GL140549  16.711   5.885   8.864
 3069POPC   GL240550  16.890   5.852   8.864
 3069POPC   C1A40551  16.683   5.894   8.564
 3069POPC   D2A40552  16.770   5.863   8.264
 3069POPC   C3A40553  16.743   5.906   7.964
 3069POPC   C4A40554  16.756   5.914   7.664
 3069POPC   C1B40555  16.954   5.837   8.564
 3069POPC   C2B40556  16.981   5.834   8.264
 3069POPC   C3B40557  16.996   5.919   7.964
 3069POPC   C4B40558  16.956   5.869   7.664
 3070POPC   NC340559   8.227  26.009   9.464
 3070POPC   PO440560   8.242  25.997   9.164
 3070POPC   GL140561   8.232  26.022   8.864
 3070POPC   GL240562   8.053  26.079   8.864
 3070POPC   C1A40563   8.189  26.000   8.564
 3070POPC   D2A40564   8.201  26.091   8.264
 3070POPC   C3A40565   8.216  26.071   7.964
 3070POPC   C4A40566   8.149  26.082   7.664
 3070POPC   C1B40567   7.939  26.086   8.564
 3070POPC   C2B40568   7.947  26.075   8.264
 3070POPC   C3B40569   7.922  26.074   7.964
 3070POPC   C4B40570   7.912  26.068   7.664
 3071POPC   NC340571   2.798   5.090   9.464
 3071POPC   PO440572   2.727   5.124   9.164
 3071POPC   GL140573   2.811   5.063   8.864
 3071POPC   GL240574   2.850   4.951   8.864
 3071POPC   C1A40575   2.772   5.093   8.564
 3071POPC   D2A40576   2.759   5.099   8.264
 3071POPC   C3A40577   2.727   5.103   7.964
 3071POPC   C4A40578   2.722   5.105   7.664
 3071POPC   C1B40579   2.922   4.912   8.564
 3071POPC   C2B40580   2.897   4.914   8.264
 3071POPC   C3B40581   2.922   4.870   7.964
 3071POPC   C4B40582   2.912   4.882   7.664
 3072POPC   NC340583  33.797  40.034   9.464
 3072POPC   PO440584  33.808  40.050   9.164
 3072POPC   GL140585  33.806  39.984   8.864
 3072POPC   GL240586  33.961  40.044   8.864
 3072POPC   C1A40587  33.786  40.037   8.564
 3072POPC   D2A40588  33.837  39.985   8.264
 3072POPC   C3A40589  33.832  40.017   7.964
 3072POPC   C4A40590  33.828  39.975   7.664
 3072POPC   C1B40591  34.058  39.996   8.564
 3072POPC   C2B40592  34.013  39.958   8.264
 3072POPC   C3B40593  34.086  39.956   7.964
 3072POPC   C4B40594  34.017  39.990   7.664
 3073POPC   NC340595  22.125  36.142   9.464
 3073POPC   PO440596  22.128  36.143   9.164
 3073POPC   GL140597  22.202  36.102   8.864
 3073POPC   GL240598  22.311  36.172   8.864
 3073POPC   C1A40599  22.195  36.126   8.564
 3073POPC   D2A40600  22.178  36.162   8.264
 3073POPC   C3A40601  22.207  36.155   7.964
 3073POPC   C4A40602  22.174  36.128   7.664
 3073POPC   C1B40603  22.452  36.181   8.564
 3073POPC   C2B40604  22.404  36.161   8.264
 3073POPC   C3B40605  22.412  36.174   7.964
 3073POPC   C4B40606  22.380  36.183   7.664
 3074POPC   NC340607  10.476  12.859   9.464
 3074POPC   PO440608  10.522  12.844   9.164
 3074POPC   GL140609  10.506  12.861   8.864
 3074POPC   GL240610  10.567  13.014   8.864
 3074POPC   C1A40611  10.494  12.830   8.564
 3074POPC   D2A40612  10.542  12.836   8.264
 3074POPC   C3A40613  10.483  12.839   7.964
 3074POPC   C4A40614  10.532  12.875   7.664
 3074POPC   C1B40615  10.499  13.141   8.564
 3074POPC   C2B40616  10.506  13.106   8.264
 3074POPC   C3B40617  10.550  13.077   7.964
 3074POPC   C4B40618  10.512  13.132   7.664
 3075POPC   NC340619  23.677   6.692   9.464
 3075POPC   PO440620  23.706   6.676   9.164
 3075POPC   GL140621  23.757   6.627   8.864
 3075POPC   GL240622  23.862   6.674   8.864
 3075POPC   C1A40623  23.753   6.637   8.564
 3075POPC   D2A40624  23.759   6.694   8.264
 3075POPC   C3A40625  23.666   6.684   7.964
 3075POPC   C4A40626  23.704   6.626   7.664
 3075POPC   C1B40627  23.965   6.693   8.564
 3075POPC   C2B40628  23.975   6.702   8.264
 3075POPC   C3B40629  23.988   6.661   7.964
 3075POPC   C4B40630  24.009   6.691   7.664
 3076POPC   NC340631  33.800   4.365   9.464
 3076POPC   PO440632  33.770   4.277   9.164
 3076POPC   GL140633  33.824   4.363   8.864
 3076POPC   GL240634  33.882   4.401   8.864
 3076POPC   C1A40635  33.797   4.292   8.564
 3076POPC   D2A40636  33.762   4.349   8.264
 3076POPC   C3A40637  33.789   4.366   7.964
 3076POPC   C4A40638  33.770   4.287   7.664
 3076POPC   C1B40639  33.945   4.466   8.564
 3076POPC   C2B40640  33.970   4.443   8.264
 3076POPC   C3B40641  33.980   4.496   7.964
 3076POPC   C4B40642  34.009   4.449   7.664
 3077POPC   NC340643  31.444  18.275   9.464
 3077POPC   PO440644  31.498  18.286   9.164
 3077POPC   GL140645  31.499  18.282   8.864
 3077POPC   GL240646  31.397  18.374   8.864
 3077POPC   C1A40647  31.436  18.240   8.564
 3077POPC   D2A40648  31.503  18.249   8.264
 3077POPC   C3A40649  31.445  18.297   7.964
 3077POPC   C4A40650  31.469  18.239   7.664
 3077POPC   C1B40651  31.285  18.432   8.564
 3077POPC   C2B40652  31.324  18.442   8.264
 3077POPC   C3B40653  31.291  18.486   7.964
 3077POPC   C4B40654  31.319  18.451   7.664
 3078POPC   NC340655  44.646  19.827   9.464
 3078POPC   PO440656  44.680  19.809   9.164
 3078POPC   GL140657  44.631  19.851   8.864
 3078POPC   GL240658  44.740  19.879   8.864
 3078POPC   C1A40659  44.620  19.848   8.564
 3078POPC   D2A40660  44.626  19.882   8.264
 3078POPC   C3A40661  44.666  19.800   7.964
 3078POPC   C4A40662  44.651  19.787   7.664
 3078POPC   C1B40663  44.925  19.918   8.564
 3078POPC   C2B40664  44.868  19.917   8.264
 3078POPC   C3B40665  44.903  19.964   7.964
 3078POPC   C4B40666  44.890  19.932   7.664
 3079POPC   NC340667  44.648   9.007   9.464
 3079POPC   PO440668  44.704   9.013   9.164
 3079POPC   GL140669  44.657   8.945   8.864
 3079POPC   GL240670  44.547   9.098   8.864
 3079POPC   C1A40671  44.664   8.963   8.564
 3079POPC   D2A40672  44.619   8.929   8.264
 3079POPC   C3A40673  44.674   8.955   7.964
 3079POPC   C4A40674  44.680   8.997   7.664
 3079POPC   C1B40675  44.555   9.230   8.564
 3079POPC   C2B40676  44.524   9.203   8.264
 3079POPC   C3B40677  44.530   9.187   7.964
 3079POPC   C4B40678  44.540   9.147   7.664
 3080POPC   NC340679  36.935  27.626   9.464
 3080POPC   PO440680  36.953  27.582   9.164
 3080POPC   GL140681  36.859  27.600   8.864
 3080POPC   GL240682  36.815  27.513   8.864
 3080POPC   C1A40683  36.920  27.595   8.564
 3080POPC   D2A40684  36.880  27.618   8.264
 3080POPC   C3A40685  36.878  27.598   7.964
 3080POPC   C4A40686  36.906  27.568   7.664
 3080POPC   C1B40687  36.809  27.383   8.564
 3080POPC   C2B40688  36.845  27.390   8.264
 3080POPC   C3B40689  36.841  27.390   7.964
 3080POPC   C4B40690  36.836  27.351   7.664
 3081POPC   NC340691  33.828   2.745   9.464
 3081POPC   PO440692  33.832   2.739   9.164
 3081POPC   GL140693  33.789   2.732   8.864
 3081POPC   GL240694  33.793   2.861   8.864
 3081POPC   C1A40695  33.799   2.761   8.564
 3081POPC   D2A40696  33.766   2.813   8.264
 3081POPC   C3A40697  33.807   2.758   7.964
 3081POPC   C4A40698  33.775   2.795   7.664
 3081POPC   C1B40699  33.805   3.017   8.564
 3081POPC   C2B40700  33.836   3.009   8.264
 3081POPC   C3B40701  33.749   3.029   7.964
 3081POPC   C4B40702  33.807   2.994   7.664
 3082POPC   NC340703  40.733  19.058   9.464
 3082POPC   PO440704  40.775  19.056   9.164
 3082POPC   GL140705  40.828  19.068   8.864
 3082POPC   GL240706  40.824  18.964   8.864
 3082POPC   C1A40707  40.756  19.009   8.564
 3082POPC   D2A40708  40.805  19.046   8.264
 3082POPC   C3A40709  40.808  19.045   7.964
 3082POPC   C4A40710  40.766  19.074   7.664
 3082POPC   C1B40711  40.946  18.894   8.564
 3082POPC   C2B40712  40.904  18.883   8.264
 3082POPC   C3B40713  40.950  18.905   7.964
 3082POPC   C4B40714  40.978  18.822   7.664
 3083POPC   NC340715  26.820  30.682   9.464
 3083POPC   PO440716  26.769  30.704   9.164
 3083POPC   GL140717  26.774  30.737   8.864
 3083POPC   GL240718  26.819  30.844   8.864
 3083POPC   C1A40719  26.845  30.695   8.564
 3083POPC   D2A40720  26.810  30.659   8.264
 3083POPC   C3A40721  26.786  30.647   7.964
 3083POPC   C4A40722  26.866  30.733   7.664
 3083POPC   C1B40723  26.832  30.910   8.564
 3083POPC   C2B40724  26.872  30.921   8.264
 3083POPC   C3B40725  26.869  30.981   7.964
 3083POPC   C4B40726  26.815  30.961   7.664
 3084POPC   NC340727  44.648  40.824   9.464
 3084POPC   PO440728  44.628  40.743   9.164
 3084POPC   GL140729  44.624  40.784   8.864
 3084POPC   GL240730  44.627  40.640   8.864
 3084POPC   C1A40731  44.694  40.820   8.564
 3084POPC   D2A40732  44.711  40.817   8.264
 3084POPC   C3A40733  44.668  40.763   7.964
 3084POPC   C4A40734  44.612  40.814   7.664
 3084POPC   C1B40735  44.539  40.579   8.564
 3084POPC   C2B40736  44.556  40.537   8.264
 3084POPC   C3B40737  44.584  40.576   7.964
 3084POPC   C4B40738  44.591  40.598   7.664
 3085POPC   NC340739  43.895   0.449   9.464
 3085POPC   PO440740  43.879   0.474   9.164
 3085POPC   GL140741  43.933   0.427   8.864
 3085POPC   GL240742  43.921   0.598   8.864
 3085POPC   C1A40743  43.902   0.409   8.564
 3085POPC   D2A40744  43.874   0.484   8.264
 3085POPC   C3A40745  43.877   0.485   7.964
 3085POPC   C4A40746  43.845   0.465   7.664
 3085POPC   C1B40747  44.016   0.697   8.564
 3085POPC   C2B40748  43.969   0.634   8.264
 3085POPC   C3B40749  43.971   0.687   7.964
 3085POPC   C4B40750  43.998   0.710   7.664
 3086POPC   NC340751  26.816   9.781   9.464
 3086POPC   PO440752  26.793   9.790   9.164
 3086POPC   GL140753  26.834   9.722   8.864
 3086POPC   GL240754  26.701   9.663   8.864
 3086POPC   C1A40755  26.821   9.749   8.564
 3086POPC   D2A40756  26.813   9.785   8.264
 3086POPC   C3A40757  26.769   9.785   7.964
 3086POPC   C4A40758  26.775   9.710   7.664
 3086POPC   C1B40759  26.654   9.545   8.564
 3086POPC   C2B40760  26.681   9.536   8.264
 3086POPC   C3B40761  26.672   9.571   7.964
 3086POPC   C4B40762  26.652   9.544   7.664
 3087POPC   NC340763  32.213  10.527   9.464
 3087POPC   PO440764  32.272  10.505   9.164
 3087POPC   GL140765  32.203  10.547   8.864
 3087POPC   GL240766  32.307  10.662   8.864
 3087POPC   C1A40767  32.258  10.540   8.564
 3087POPC   D2A40768  32.240  10.563   8.264
 3087POPC   C3A40769  32.222  10.501   7.964
 3087POPC   C4A40770  32.211  10.547   7.664
 3087POPC   C1B40771  32.444  10.688   8.564
 3087POPC   C2B40772  32.455  10.743   8.264
 3087POPC   C3B40773  32.452  10.765   7.964
 3087POPC   C4B40774  32.387  10.762   7.664
 3088POPC   NC340775  35.348  16.731   9.464
 3088POPC   PO440776  35.394  16.697   9.164
 3088POPC   GL140777  35.344  16.737   8.864
 3088POPC   GL240778  35.500  16.731   8.864
 3088POPC   C1A40779  35.375  16.681   8.564
 3088POPC   D2A40780  35.390  16.754   8.264
 3088POPC   C3A40781  35.361  16.712   7.964
 3088POPC   C4A40782  35.343  16.715   7.664
 3088POPC   C1B40783  35.575  16.844   8.564
 3088POPC   C2B40784  35.584  16.836   8.264
 3088POPC   C3B40785  35.567  16.811   7.964
 3088POPC   C4B40786  35.623  16.866   7.664
 3089POPC   NC340787   0.454   5.073   9.464
 3089POPC   PO440788   0.467   5.081   9.164
 3089POPC   GL140789   0.406   5.103   8.864
 3089POPC   GL240790   0.346   5.108   8.864
 3089POPC   C1A40791   0.420   5.103   8.564
 3089POPC   D2A40792   0.447   5.090   8.264
 3089POPC   C3A40793   0.435   5.112   7.964
 3089POPC   C4A40794   0.415   5.053   7.664
 3089POPC   C1B40795   0.230   5.040   8.564
 3089POPC   C2B40796   0.208   5.097   8.264
 3089POPC   C3B40797   0.189   5.070   7.964
 3089POPC   C4B40798   0.144   5.031   7.664
 3090POPC   NC340799  18.247  22.167   9.464
 3090POPC   PO440800  18.268  22.115   9.164
 3090POPC   GL140801  18.255  22.186   8.864
 3090POPC   GL240802  18.125  22.199   8.864
 3090POPC   C1A40803  18.262  22.159   8.564
 3090POPC   D2A40804  18.306  22.180   8.264
 3090POPC   C3A40805  18.333  22.163   7.964
 3090POPC   C4A40806  18.236  22.141   7.664
 3090POPC   C1B40807  18.052  22.248   8.564
 3090POPC   C2B40808  18.036  22.298   8.264
 3090POPC   C3B40809  18.052  22.238   7.964
 3090POPC   C4B40810  18.010  22.220   7.664
 3091POPC   NC340811  16.727  22.911   9.464
 3091POPC   PO440812  16.754  22.979   9.164
 3091POPC   GL140813  16.776  22.941   8.864
 3091POPC   GL240814  16.745  22.857   8.864
 3091POPC   C1A40815  16.759  22.940   8.564
 3091POPC   D2A40816  16.756  22.918   8.264
 3091POPC   C3A40817  16.741  22.922   7.964
 3091POPC   C4A40818  16.742  22.975   7.664
 3091POPC   C1B40819  16.756  22.680   8.564
 3091POPC   C2B40820  16.761  22.651   8.264
 3091POPC   C3B40821  16.746  22.707   7.964
 3091POPC   C4B40822  16.721  22.686   7.664
 3092POPC   NC340823  25.282   8.242   9.464
 3092POPC   PO440824  25.226   8.234   9.164
 3092POPC   GL140825  25.280   8.191   8.864
 3092POPC   GL240826  25.241   8.107   8.864
 3092POPC   C1A40827  25.283   8.152   8.564
 3092POPC   D2A40828  25.267   8.159   8.264
 3092POPC   C3A40829  25.272   8.150   7.964
 3092POPC   C4A40830  25.222   8.160   7.664
 3092POPC   C1B40831  25.327   7.914   8.564
 3092POPC   C2B40832  25.352   7.982   8.264
 3092POPC   C3B40833  25.264   7.911   7.964
 3092POPC   C4B40834  25.333   7.992   7.664
 3093POPC   NC340835  21.353  14.449   9.464
 3093POPC   PO440836  21.403  14.356   9.164
 3093POPC   GL140837  21.377  14.412   8.864
 3093POPC   GL240838  21.342  14.496   8.864
 3093POPC   C1A40839  21.354  14.370   8.564
 3093POPC   D2A40840  21.371  14.417   8.264
 3093POPC   C3A40841  21.416  14.390   7.964
 3093POPC   C4A40842  21.382  14.401   7.664
 3093POPC   C1B40843  21.339  14.605   8.564
 3093POPC   C2B40844  21.296  14.636   8.264
 3093POPC   C3B40845  21.329  14.637   7.964
 3093POPC   C4B40846  21.299  14.635   7.664
 3094POPC   NC340847  18.255  38.409   9.464
 3094POPC   PO440848  18.243  38.475   9.164
 3094POPC   GL140849  18.269  38.411   8.864
 3094POPC   GL240850  18.159  38.424   8.864
 3094POPC   C1A40851  18.290  38.451   8.564
 3094POPC   D2A40852  18.267  38.490   8.264
 3094POPC   C3A40853  18.289  38.410   7.964
 3094POPC   C4A40854  18.240  38.433   7.664
 3094POPC   C1B40855  18.108  38.299   8.564
 3094POPC   C2B40856  18.108  38.331   8.264
 3094POPC   C3B40857  18.097  38.310   7.964
 3094POPC   C4B40858  18.126  38.325   7.664
 3095POPC   NC340859  43.891  13.652   9.464
 3095POPC   PO440860  43.918  13.615   9.164
 3095POPC   GL140861  43.872  13.672   8.864
 3095POPC   GL240862  44.051  13.701   8.864
 3095POPC   C1A40863  43.896  13.603   8.564
 3095POPC   D2A40864  43.894  13.609   8.264
 3095POPC   C3A40865  43.935  13.595   7.964
 3095POPC   C4A40866  43.918  13.637   7.664
 3095POPC   C1B40867  44.097  13.669   8.564
 3095POPC   C2B40868  44.129  13.702   8.264
 3095POPC   C3B40869  44.106  13.642   7.964
 3095POPC   C4B40870  44.178  13.648   7.664
 3096POPC   NC340871  19.028  34.592   9.464
 3096POPC   PO440872  19.063  34.587   9.164
 3096POPC   GL140873  19.013  34.601   8.864
 3096POPC   GL240874  18.949  34.440   8.864
 3096POPC   C1A40875  19.062  34.571   8.564
 3096POPC   D2A40876  19.098  34.598   8.264
 3096POPC   C3A40877  19.104  34.529   7.964
 3096POPC   C4A40878  19.072  34.596   7.664
 3096POPC   C1B40879  18.932  34.335   8.564
 3096POPC   C2B40880  18.893  34.318   8.264
 3096POPC   C3B40881  18.925  34.337   7.964
 3096POPC   C4B40882  18.924  34.389   7.664
 3097POPC   NC340883  29.135  14.363   9.464
 3097POPC   PO440884  29.170  14.411   9.164
 3097POPC   GL140885  29.175  14.367   8.864
 3097POPC   GL240886  29.186  14.496   8.864
 3097POPC   C1A40887  29.187  14.387   8.564
 3097POPC   D2A40888  29.122  14.404   8.264
 3097POPC   C3A40889  29.146  14.376   7.964
 3097POPC   C4A40890  29.158  14.410   7.664
 3097POPC   C1B40891  29.231  14.628   8.564
 3097POPC   C2B40892  29.303  14.577   8.264
 3097POPC   C3B40893  29.319  14.664   7.964
 3097POPC   C4B40894  29.233  14.616   7.664
 3098POPC   NC340895   3.529   7.425   9.464
 3098POPC   PO440896   3.563   7.382   9.164
 3098POPC   GL140897   3.497   7.449   8.864
 3098POPC   GL240898   3.715   7.452   8.864
 3098POPC   C1A40899   3.491   7.422   8.564
 3098POPC   D2A40900   3.527   7.418   8.264
 3098POPC   C3A40901   3.517   7.428   7.964
 3098POPC   C4A40902   3.555   7.421   7.664
 3098POPC   C1B40903   3.742   7.493   8.564
 3098POPC   C2B40904   3.760   7.478   8.264
 3098POPC   C3B40905   3.746   7.422   7.964
 3098POPC   C4B40906   3.801   7.437   7.664
 3099POPC   NC340907   2.763   3.520   9.464
 3099POPC   PO440908   2.800   3.550   9.164
 3099POPC   GL140909   2.798   3.542   8.864
 3099POPC   GL240910   2.853   3.379   8.864
 3099POPC   C1A40911   2.742   3.585   8.564
 3099POPC   D2A40912   2.786   3.555   8.264
 3099POPC   C3A40913   2.757   3.585   7.964
 3099POPC   C4A40914   2.772   3.587   7.664
 3099POPC   C1B40915   2.832   3.342   8.564
 3099POPC   C2B40916   2.805   3.269   8.264
 3099POPC   C3B40917   2.867   3.263   7.964
 3099POPC   C4B40918   2.852   3.276   7.664
 3100POPC   NC340919  12.088  36.133   9.464
 3100POPC   PO440920  12.037  36.091   9.164
 3100POPC   GL140921  12.071  36.139   8.864
 3100POPC   GL240922  12.019  36.260   8.864
 3100POPC   C1A40923  12.107  36.137   8.564
 3100POPC   D2A40924  12.051  36.080   8.264
 3100POPC   C3A40925  12.125  36.166   7.964
 3100POPC   C4A40926  12.070  36.092   7.664
 3100POPC   C1B40927  11.986  36.360   8.564
 3100POPC   C2B40928  12.010  36.383   8.264
 3100POPC   C3B40929  12.016  36.331   7.964
 3100POPC   C4B40930  11.943  36.369   7.664
 3101POPC   NC340931  23.729  27.623   9.464
 3101POPC   PO440932  23.730  27.559   9.164
 3101POPC   GL140933  23.754  27.606   8.864
 3101POPC   GL240934  23.638  27.670   8.864
 3101POPC   C1A40935  23.701  27.549   8.564
 3101POPC   D2A40936  23.726  27.633   8.264
 3101POPC   C3A40937  23.678  27.637   7.964
 3101POPC   C4A40938  23.685  27.635   7.664
 3101POPC   C1B40939  23.496  27.802   8.564
 3101POPC   C2B40940  23.578  27.762   8.264
 3101POPC   C3B40941  23.511  27.730   7.964
 3101POPC   C4B40942  23.536  27.777   7.664
 3102POPC   NC340943  29.175  43.109   9.464
 3102POPC   PO440944  29.152  43.101   9.164
 3102POPC   GL140945  29.150  43.074   8.864
 3102POPC   GL240946  29.031  43.200   8.864
 3102POPC   C1A40947  29.135  43.111   8.564
 3102POPC   D2A40948  29.192  43.131   8.264
 3102POPC   C3A40949  29.171  43.141   7.964
 3102POPC   C4A40950  29.173  43.143   7.664
 3102POPC   C1B40951  29.003  43.313   8.564
 3102POPC   C2B40952  29.019  43.275   8.264
 3102POPC   C3B40953  28.948  43.354   7.964
 3102POPC   C4B40954  28.978  43.345   7.664
 3103POPC   NC340955  19.081  12.822   9.464
 3103POPC   PO440956  19.055  12.828   9.164
 3103POPC   GL140957  19.017  12.857   8.864
 3103POPC   GL240958  18.981  12.919   8.864
 3103POPC   C1A40959  19.054  12.863   8.564
 3103POPC   D2A40960  19.014  12.810   8.264
 3103POPC   C3A40961  19.051  12.856   7.964
 3103POPC   C4A40962  19.052  12.859   7.664
 3103POPC   C1B40963  18.787  12.989   8.564
 3103POPC   C2B40964  18.848  12.966   8.264
 3103POPC   C3B40965  18.815  12.910   7.964
 3103POPC   C4B40966  18.825  13.002   7.664
 3104POPC   NC340967  22.892   5.915   9.464
 3104POPC   PO440968  22.915   5.872   9.164
 3104POPC   GL140969  22.944   5.819   8.864
 3104POPC   GL240970  22.964   5.775   8.864
 3104POPC   C1A40971  22.951   5.895   8.564
 3104POPC   D2A40972  22.978   5.828   8.264
 3104POPC   C3A40973  22.963   5.864   7.964
 3104POPC   C4A40974  22.946   5.875   7.664
 3104POPC   C1B40975  22.976   5.661   8.564
 3104POPC   C2B40976  23.071   5.665   8.264
 3104POPC   C3B40977  23.019   5.680   7.964
 3104POPC   C4B40978  23.032   5.667   7.664
 3105POPC   NC340979  10.509  10.571   9.464
 3105POPC   PO440980  10.481  10.548   9.164
 3105POPC   GL140981  10.532  10.567   8.864
 3105POPC   GL240982  10.643  10.518   8.864
 3105POPC   C1A40983  10.481  10.488   8.564
 3105POPC   D2A40984  10.545  10.519   8.264
 3105POPC   C3A40985  10.542  10.538   7.964
 3105POPC   C4A40986  10.549  10.483   7.664
 3105POPC   C1B40987  10.755  10.511   8.564
 3105POPC   C2B40988  10.810  10.508   8.264
 3105POPC   C3B40989  10.779  10.542   7.964
 3105POPC   C4B40990  10.772  10.578   7.664
 3106POPC   NC340991   1.989  37.639   9.464
 3106POPC   PO440992   1.961  37.670   9.164
 3106POPC   GL140993   2.015  37.691   8.864
 3106POPC   GL240994   1.881  37.662   8.864
 3106POPC   C1A40995   2.011  37.647   8.564
 3106POPC   D2A40996   2.028  37.719   8.264
 3106POPC   C3A40997   1.968  37.669   7.964
 3106POPC   C4A40998   1.950  37.695   7.664
 3106POPC   C1B40999   1.772  37.749   8.564
 3106POPC   C2B41000   1.723  37.709   8.264
 3106POPC   C3B41001   1.691  37.727   7.964
 3106POPC   C4B41002   1.766  37.741   7.664
 3107POPC   NC341003  15.921  43.863   9.464
 3107POPC   PO441004  15.998  43.897   9.164
 3107POPC   GL141005  15.972  43.905   8.864
 3107POPC   GL241006  15.810  43.789   8.864
 3107POPC   C1A41007  15.919  43.870   8.564
 3107POPC   D2A41008  15.927  43.902   8.264
 3107POPC   C3A41009  16.004  43.904   7.964
 3107POPC   C4A41010  15.916  43.853   7.664
 3107POPC   C1B41011  15.761  43.776   8.564
 3107POPC   C2B41012  15.707  43.712   8.264
 3107POPC   C3B41013  15.773  43.736   7.964
 3107POPC   C4B41014  15.790  43.723   7.664
 3108POPC   NC341015  43.119  21.345   9.464
 3108POPC   PO441016  43.081  21.435   9.164
 3108POPC   GL141017  43.146  21.406   8.864
 3108POPC   GL241018  42.961  21.464   8.864
 3108POPC   C1A41019  43.064  21.425   8.564
 3108POPC   D2A41020  43.108  21.355   8.264
 3108POPC   C3A41021  43.072  21.358   7.964
 3108POPC   C4A41022  43.124  21.398   7.664
 3108POPC   C1B41023  42.829  21.450   8.564
 3108POPC   C2B41024  42.817  21.397   8.264
 3108POPC   C3B41025  42.845  21.483   7.964
 3108POPC   C4B41026  42.903  21.442   7.664
 3109POPC   NC341027   1.167  15.971   9.464
 3109POPC   PO441028   1.238  15.937   9.164
 3109POPC   GL141029   1.234  15.915   8.864
 3109POPC   GL241030   1.348  15.992   8.864
 3109POPC   C1A41031   1.193  15.964   8.564
 3109POPC   D2A41032   1.241  15.955   8.264
 3109POPC   C3A41033   1.241  15.945   7.964
 3109POPC   C4A41034   1.169  15.973   7.664
 3109POPC   C1B41035   1.457  16.050   8.564
 3109POPC   C2B41036   1.456  16.076   8.264
 3109POPC   C3B41037   1.460  16.056   7.964
 3109POPC   C4B41038   1.465  16.075   7.664
 3110POPC   NC341039  30.741  40.005   9.464
 3110POPC   PO441040  30.711  40.026   9.164
 3110POPC   GL141041  30.732  40.034   8.864
 3110POPC   GL241042  30.667  40.166   8.864
 3110POPC   C1A41043  30.656  39.960   8.564
 3110POPC   D2A41044  30.649  40.048   8.264
 3110POPC   C3A41045  30.727  40.032   7.964
 3110POPC   C4A41046  30.710  40.022   7.664
 3110POPC   C1B41047  30.736  40.228   8.564
 3110POPC   C2B41048  30.746  40.282   8.264
 3110POPC   C3B41049  30.652  40.294   7.964
 3110POPC   C4B41050  30.706  40.224   7.664
 3111POPC   NC341051  16.780   5.083   9.464
 3111POPC   PO441052  16.706   5.123   9.164
 3111POPC   GL141053  16.752   5.069   8.864
 3111POPC   GL241054  16.872   4.996   8.864
 3111POPC   C1A41055  16.707   5.072   8.564
 3111POPC   D2A41056  16.752   5.120   8.264
 3111POPC   C3A41057  16.774   5.117   7.964
 3111POPC   C4A41058  16.695   5.081   7.664
 3111POPC   C1B41059  16.965   4.973   8.564
 3111POPC   C2B41060  16.890   4.915   8.264
 3111POPC   C3B41061  16.908   4.945   7.964
 3111POPC   C4B41062  16.982   4.949   7.664
 3112POPC   NC341063  17.478   4.328   9.464
 3112POPC   PO441064  17.485   4.316   9.164
 3112POPC   GL141065  17.484   4.300   8.864
 3112POPC   GL241066  17.644   4.331   8.864
 3112POPC   C1A41067  17.479   4.272   8.564
 3112POPC   D2A41068  17.505   4.274   8.264
 3112POPC   C3A41069  17.525   4.341   7.964
 3112POPC   C4A41070  17.473   4.294   7.664
 3112POPC   C1B41071  17.715   4.256   8.564
 3112POPC   C2B41072  17.726   4.291   8.264
 3112POPC   C3B41073  17.756   4.257   7.964
 3112POPC   C4B41074  17.721   4.311   7.664
 3113POPC   NC341075  36.175  44.657   9.464
 3113POPC   PO441076  36.092  44.695   9.164
 3113POPC   GL141077  36.165  44.648   8.864
 3113POPC   GL241078  36.205  44.786   8.864
 3113POPC   C1A41079  36.092  44.655   8.564
 3113POPC   D2A41080  36.122  44.634   8.264
 3113POPC   C3A41081  36.159  44.673   7.964
 3113POPC   C4A41082  36.157  44.703   7.664
 3113POPC   C1B41083  36.319  44.865   8.564
 3113POPC   C2B41084  36.325  44.873   8.264
 3113POPC   C3B41085  36.260  44.834   7.964
 3113POPC   C4B41086  36.240  44.870   7.664
 3114POPC   NC341087   1.262  35.367   9.464
 3114POPC   PO441088   1.248  35.326   9.164
 3114POPC   GL141089   1.228  35.325   8.864
 3114POPC   GL241090   1.190  35.437   8.864
 3114POPC   C1A41091   1.208  35.351   8.564
 3114POPC   D2A41092   1.167  35.382   8.264
 3114POPC   C3A41093   1.192  35.373   7.964
 3114POPC   C4A41094   1.174  35.361   7.664
 3114POPC   C1B41095   1.212  35.598   8.564
 3114POPC   C2B41096   1.180  35.560   8.264
 3114POPC   C3B41097   1.205  35.594   7.964
 3114POPC   C4B41098   1.223  35.591   7.664
 3115POPC   NC341099  25.277  14.377   9.464
 3115POPC   PO441100  25.219  14.424   9.164
 3115POPC   GL141101  25.225  14.414   8.864
 3115POPC   GL241102  25.419  14.456   8.864
 3115POPC   C1A41103  25.300  14.394   8.564
 3115POPC   D2A41104  25.234  14.364   8.264
 3115POPC   C3A41105  25.234  14.397   7.964
 3115POPC   C4A41106  25.230  14.426   7.664
 3115POPC   C1B41107  25.516  14.372   8.564
 3115POPC   C2B41108  25.507  14.465   8.264
 3115POPC   C3B41109  25.523  14.428   7.964
 3115POPC   C4B41110  25.534  14.397   7.664
 3116POPC   NC341111  29.919  32.283   9.464
 3116POPC   PO441112  29.882  32.296   9.164
 3116POPC   GL141113  29.968  32.223   8.864
 3116POPC   GL241114  29.942  32.338   8.864
 3116POPC   C1A41115  29.955  32.284   8.564
 3116POPC   D2A41116  29.939  32.236   8.264
 3116POPC   C3A41117  29.910  32.247   7.964
 3116POPC   C4A41118  29.950  32.241   7.664
 3116POPC   C1B41119  29.962  32.536   8.564
 3116POPC   C2B41120  30.021  32.475   8.264
 3116POPC   C3B41121  30.000  32.525   7.964
 3116POPC   C4B41122  29.977  32.451   7.664
 3117POPC   NC341123  40.760  37.648   9.464
 3117POPC   PO441124  40.813  37.729   9.164
 3117POPC   GL141125  40.815  37.684   8.864
 3117POPC   GL241126  40.802  37.545   8.864
 3117POPC   C1A41127  40.776  37.654   8.564
 3117POPC   D2A41128  40.812  37.695   8.264
 3117POPC   C3A41129  40.738  37.633   7.964
 3117POPC   C4A41130  40.756  37.641   7.664
 3117POPC   C1B41131  40.855  37.453   8.564
 3117POPC   C2B41132  40.841  37.479   8.264
 3117POPC   C3B41133  40.827  37.422   7.964
 3117POPC   C4B41134  40.857  37.436   7.664
 3118POPC   NC341135  12.061  28.350   9.464
 3118POPC   PO441136  12.089  28.330   9.164
 3118POPC   GL141137  12.034  28.331   8.864
 3118POPC   GL241138  12.190  28.214   8.864
 3118POPC   C1A41139  12.091  28.383   8.564
 3118POPC   D2A41140  12.054  28.349   8.264
 3118POPC   C3A41141  12.092  28.337   7.964
 3118POPC   C4A41142  12.028  28.329   7.664
 3118POPC   C1B41143  12.162  28.118   8.564
 3118POPC   C2B41144  12.213  28.188   8.264
 3118POPC   C3B41145  12.188  28.179   7.964
 3118POPC   C4B41146  12.240  28.108   7.664
 3119POPC   NC341147  39.230  35.360   9.464
 3119POPC   PO441148  39.244  35.374   9.164
 3119POPC   GL141149  39.207  35.366   8.864
 3119POPC   GL241150  39.281  35.491   8.864
 3119POPC   C1A41151  39.228  35.391   8.564
 3119POPC   D2A41152  39.259  35.396   8.264
 3119POPC   C3A41153  39.197  35.330   7.964
 3119POPC   C4A41154  39.203  35.352   7.664
 3119POPC   C1B41155  39.283  35.644   8.564
 3119POPC   C2B41156  39.247  35.629   8.264
 3119POPC   C3B41157  39.194  35.554   7.964
 3119POPC   C4B41158  39.237  35.614   7.664
 3120POPC   NC341159  26.082  25.291   9.464
 3120POPC   PO441160  26.090  25.279   9.164
 3120POPC   GL141161  26.002  25.300   8.864
 3120POPC   GL241162  25.976  25.381   8.864
 3120POPC   C1A41163  26.026  25.300   8.564
 3120POPC   D2A41164  26.054  25.231   8.264
 3120POPC   C3A41165  25.998  25.274   7.964
 3120POPC   C4A41166  26.028  25.224   7.664
 3120POPC   C1B41167  25.966  25.469   8.564
 3120POPC   C2B41168  25.977  25.491   8.264
 3120POPC   C3B41169  25.920  25.462   7.964
 3120POPC   C4B41170  25.974  25.518   7.664
 3121POPC   NC341171  43.098  31.451   9.464
 3121POPC   PO441172  43.139  31.497   9.164
 3121POPC   GL141173  43.090  31.457   8.864
 3121POPC   GL241174  43.149  31.405   8.864
 3121POPC   C1A41175  43.081  31.449   8.564
 3121POPC   D2A41176  43.113  31.426   8.264
 3121POPC   C3A41177  43.127  31.468   7.964
 3121POPC   C4A41178  43.130  31.441   7.664
 3121POPC   C1B41179  43.261  31.240   8.564
 3121POPC   C2B41180  43.311  31.317   8.264
 3121POPC   C3B41181  43.280  31.316   7.964
 3121POPC   C4B41182  43.258  31.261   7.664
 3122POPC   NC341183   1.214  25.277   9.464
 3122POPC   PO441184   1.164  25.298   9.164
 3122POPC   GL141185   1.188  25.285   8.864
 3122POPC   GL241186   1.176  25.129   8.864
 3122POPC   C1A41187   1.251  25.233   8.564
 3122POPC   D2A41188   1.222  25.235   8.264
 3122POPC   C3A41189   1.189  25.303   7.964
 3122POPC   C4A41190   1.257  25.228   7.664
 3122POPC   C1B41191   1.186  25.008   8.564
 3122POPC   C2B41192   1.234  24.985   8.264
 3122POPC   C3B41193   1.190  25.008   7.964
 3122POPC   C4B41194   1.245  25.061   7.664
 3123POPC   NC341195  19.805  17.546   9.464
 3123POPC   PO441196  19.869  17.543   9.164
 3123POPC   GL141197  19.853  17.527   8.864
 3123POPC   GL241198  19.711  17.436   8.864
 3123POPC   C1A41199  19.846  17.557   8.564
 3123POPC   D2A41200  19.787  17.481   8.264
 3123POPC   C3A41201  19.873  17.465   7.964
 3123POPC   C4A41202  19.844  17.482   7.664
 3123POPC   C1B41203  19.607  17.335   8.564
 3123POPC   C2B41204  19.616  17.342   8.264
 3123POPC   C3B41205  19.635  17.358   7.964
 3123POPC   C4B41206  19.620  17.313   7.664
 3124POPC   NC341207  18.266   3.553   9.464
 3124POPC   PO441208  18.276   3.549   9.164
 3124POPC   GL141209  18.311   3.523   8.864
 3124POPC   GL241210  18.291   3.429   8.864
 3124POPC   C1A41211  18.279   3.495   8.564
 3124POPC   D2A41212  18.286   3.591   8.264
 3124POPC   C3A41213  18.276   3.552   7.964
 3124POPC   C4A41214  18.240   3.581   7.664
 3124POPC   C1B41215  18.255   3.323   8.564
 3124POPC   C2B41216  18.298   3.311   8.264
 3124POPC   C3B41217  18.311   3.298   7.964
 3124POPC   C4B41218  18.280   3.264   7.664
 3125POPC   NC341219   2.030  25.283   5.564
 3125POPC   PO441220   1.956  25.273   5.864
 3125POPC   GL141221   1.988  25.243   6.164
 3125POPC   GL241222   1.972  25.342   6.164
 3125POPC   C1A41223   1.975  25.287   6.464
 3125POPC   D2A41224   1.941  25.234   6.764
 3125POPC   C3A41225   1.984  25.313   7.064
 3125POPC   C4A41226   1.972  25.234   7.364
 3125POPC   C1B41227   2.021  25.541   6.464
 3125POPC   C2B41228   1.970  25.527   6.764
 3125POPC   C3B41229   1.997  25.470   7.064
 3125POPC   C4B41230   1.983  25.553   7.364
 3126POPC   NC341231  36.953  37.662   5.564
 3126POPC   PO441232  36.941  37.683   5.864
 3126POPC   GL141233  36.869  37.666   6.164
 3126POPC   GL241234  36.862  37.782   6.164
 3126POPC   C1A41235  36.882  37.698   6.464
 3126POPC   D2A41236  36.929  37.664   6.764
 3126POPC   C3A41237  36.858  37.716   7.064
 3126POPC   C4A41238  36.925  37.686   7.364
 3126POPC   C1B41239  36.790  37.901   6.464
 3126POPC   C2B41240  36.763  37.854   6.764
 3126POPC   C3B41241  36.788  37.828   7.064
 3126POPC   C4B41242  36.788  37.850   7.364
 3127POPC   NC341243  42.347   2.769   5.564
 3127POPC   PO441244  42.292   2.787   5.864
 3127POPC   GL141245  42.339   2.737   6.164
 3127POPC   GL241246  42.290   2.670   6.164
 3127POPC   C1A41247  42.286   2.770   6.464
 3127POPC   D2A41248  42.297   2.733   6.764
 3127POPC   C3A41249  42.287   2.783   7.064
 3127POPC   C4A41250  42.299   2.719   7.364
 3127POPC   C1B41251  42.148   2.551   6.464
 3127POPC   C2B41252  42.129   2.561   6.764
 3127POPC   C3B41253  42.116   2.590   7.064
 3127POPC   C4B41254  42.176   2.580   7.364
 3128POPC   NC341255  40.045  27.619   5.564
 3128POPC   PO441256  40.002  27.562   5.864
 3128POPC   GL141257  40.040  27.586   6.164
 3128POPC   GL241258  39.895  27.600   6.164
 3128POPC   C1A41259  39.995  27.635   6.464
 3128POPC   D2A41260  39.958  27.554   6.764
 3128POPC   C3A41261  39.989  27.574   7.064
 3128POPC   C4A41262  40.004  27.598   7.364
 3128POPC   C1B41263  39.728  27.660   6.464
 3128POPC   C2B41264  39.739  27.715   6.764
 3128POPC   C3B41265  39.804  27.649   7.064
 3128POPC   C4B41266  39.806  27.697   7.364
 3129POPC   NC341267   1.232  19.019   5.564
 3129POPC   PO441268   1.238  19.037   5.864
 3129POPC   GL141269   1.175  19.085   6.164
 3129POPC   GL241270   1.175  18.963   6.164
 3129POPC   C1A41271   1.217  19.089   6.464
 3129POPC   D2A41272   1.239  19.064   6.764
 3129POPC   C3A41273   1.234  19.090   7.064
 3129POPC   C4A41274   1.240  19.095   7.364
 3129POPC   C1B41275   1.131  18.845   6.464
 3129POPC   C2B41276   1.128  18.790   6.764
 3129POPC   C3B41277   1.120  18.803   7.064
 3129POPC   C4B41278   1.078  18.820   7.364
 3130POPC   NC341279  11.299  40.744   5.564
 3130POPC   PO441280  11.254  40.832   5.864
 3130POPC   GL141281  11.280  40.818   6.164
 3130POPC   GL241282  11.324  40.650   6.164
 3130POPC   C1A41283  11.272  40.762   6.464
 3130POPC   D2A41284  11.260  40.758   6.764
 3130POPC   C3A41285  11.322  40.762   7.064
 3130POPC   C4A41286  11.275  40.769   7.364
 3130POPC   C1B41287  11.358  40.512   6.464
 3130POPC   C2B41288  11.350  40.540   6.764
 3130POPC   C3B41289  11.345  40.494   7.064
 3130POPC   C4B41290  11.306  40.524   7.364
 3131POPC   NC341291  44.641  12.081   5.564
 3131POPC   PO441292  44.625  12.048   5.864
 3131POPC   GL141293  44.701  12.085   6.164
 3131POPC   GL241294  44.528  12.126   6.164
 3131POPC   C1A41295  44.647  12.065   6.464
 3131POPC   D2A41296  44.641  12.082   6.764
 3131POPC   C3A41297  44.656  12.048   7.064
 3131POPC   C4A41298  44.699  12.072   7.364
 3131POPC   C1B41299  44.454  12.214   6.464
 3131POPC   C2B41300  44.482  12.187   6.764
 3131POPC   C3B41301  44.458  12.245   7.064
 3131POPC   C4B41302  44.463  12.232   7.364
 3132POPC   NC341303  38.436   4.327   5.564
 3132POPC   PO441304  38.439   4.273   5.864
 3132POPC   GL141305  38.489   4.290   6.164
 3132POPC   GL241306  38.580   4.316   6.164
 3132POPC   C1A41307  38.486   4.312   6.464
 3132POPC   D2A41308  38.435   4.329   6.764
 3132POPC   C3A41309  38.414   4.299   7.064
 3132POPC   C4A41310  38.489   4.290   7.364
 3132POPC   C1B41311  38.662   4.286   6.464
 3132POPC   C2B41312  38.703   4.292   6.764
 3132POPC   C3B41313  38.687   4.300   7.064
 3132POPC   C4B41314  38.674   4.324   7.364
 3133POPC   NC341315  19.817  21.359   5.564
 3133POPC   PO441316  19.795  21.425   5.864
 3133POPC   GL141317  19.843  21.374   6.164
 3133POPC   GL241318  19.976  21.422   6.164
 3133POPC   C1A41319  19.811  21.412   6.464
 3133POPC   D2A41320  19.840  21.398   6.764
 3133POPC   C3A41321  19.855  21.353   7.064
 3133POPC   C4A41322  19.839  21.431   7.364
 3133POPC   C1B41323  20.128  21.320   6.464
 3133POPC   C2B41324  20.087  21.404   6.764
 3133POPC   C3B41325  20.050  21.377   7.064
 3133POPC   C4B41326  20.091  21.332   7.364
 3134POPC   NC341327  29.146  43.883   5.564
 3134POPC   PO441328  29.109  43.901   5.864
 3134POPC   GL141329  29.132  43.883   6.164
 3134POPC   GL241330  29.002  43.812   6.164
 3134POPC   C1A41331  29.124  43.839   6.464
 3134POPC   D2A41332  29.098  43.936   6.764
 3134POPC   C3A41333  29.171  43.892   7.064
 3134POPC   C4A41334  29.104  43.893   7.364
 3134POPC   C1B41335  28.896  43.768   6.464
 3134POPC   C2B41336  28.878  43.720   6.764
 3134POPC   C3B41337  28.974  43.754   7.064
 3134POPC   C4B41338  28.884  43.734   7.364
 3135POPC   NC341339  26.050  35.379   5.564
 3135POPC   PO441340  25.995  35.364   5.864
 3135POPC   GL141341  26.009  35.320   6.164
 3135POPC   GL241342  25.954  35.395   6.164
 3135POPC   C1A41343  26.060  35.377   6.464
 3135POPC   D2A41344  26.013  35.359   6.764
 3135POPC   C3A41345  26.008  35.302   7.064
 3135POPC   C4A41346  26.022  35.390   7.364
 3135POPC   C1B41347  25.824  35.438   6.464
 3135POPC   C2B41348  25.788  35.405   6.764
 3135POPC   C3B41349  25.813  35.375   7.064
 3135POPC   C4B41350  25.832  35.457   7.364
 3136POPC   NC341351  33.048  28.365   5.564
 3136POPC   PO441352  33.073  28.336   5.864
 3136POPC   GL141353  33.071  28.367   6.164
 3136POPC   GL241354  33.011  28.480   6.164
 3136POPC   C1A41355  32.999  28.320   6.464
 3136POPC   D2A41356  33.025  28.347   6.764
 3136POPC   C3A41357  33.071  28.417   7.064
 3136POPC   C4A41358  33.026  28.344   7.364
 3136POPC   C1B41359  33.039  28.652   6.464
 3136POPC   C2B41360  33.110  28.575   6.764
 3136POPC   C3B41361  33.065  28.625   7.064
 3136POPC   C4B41362  33.099  28.646   7.364
 3137POPC   NC341363  38.495  26.057   5.564
 3137POPC   PO441364  38.499  26.005   5.864
 3137POPC   GL141365  38.409  26.073   6.164
 3137POPC   GL241366  38.349  26.162   6.164
 3137POPC   C1A41367  38.504  26.049   6.464
 3137POPC   D2A41368  38.482  26.039   6.764
 3137POPC   C3A41369  38.465  26.031   7.064
 3137POPC   C4A41370  38.464  26.046   7.364
 3137POPC   C1B41371  38.313  26.224   6.464
 3137POPC   C2B41372  38.299  26.215   6.764
 3137POPC   C3B41373  38.295  26.220   7.064
 3137POPC   C4B41374  38.272  26.252   7.364
 3138POPC   NC341375  40.761  35.346   5.564
 3138POPC   PO441376  40.804  35.316   5.864
 3138POPC   GL141377  40.762  35.334   6.164
 3138POPC   GL241378  40.884  35.401   6.164
 3138POPC   C1A41379  40.797  35.306   6.464
 3138POPC   D2A41380  40.814  35.316   6.764
 3138POPC   C3A41381  40.815  35.358   7.064
 3138POPC   C4A41382  40.806  35.400   7.364
 3138POPC   C1B41383  40.949  35.493   6.464
 3138POPC   C2B41384  40.901  35.547   6.764
 3138POPC   C3B41385  40.939  35.566   7.064
 3138POPC   C4B41386  40.986  35.520   7.364
 3139POPC   NC341387   1.193  35.308   5.564
 3139POPC   PO441388   1.252  35.383   5.864
 3139POPC   GL141389   1.196  35.344   6.164
 3139POPC   GL241390   1.140  35.295   6.164
 3139POPC   C1A41391   1.185  35.387   6.464
 3139POPC   D2A41392   1.200  35.398   6.764
 3139POPC   C3A41393   1.220  35.391   7.064
 3139POPC   C4A41394   1.220  35.352   7.364
 3139POPC   C1B41395   1.005  35.303   6.464
 3139POPC   C2B41396   1.003  35.278   6.764
 3139POPC   C3B41397   0.946  35.283   7.064
 3139POPC   C4B41398   0.989  35.355   7.364
 3140POPC   NC341399  40.736   8.965   5.564
 3140POPC   PO441400  40.754   8.966   5.864
 3140POPC   GL141401  40.774   8.990   6.164
 3140POPC   GL241402  40.907   9.046   6.164
 3140POPC   C1A41403  40.746   8.928   6.464
 3140POPC   D2A41404  40.764   8.998   6.764
 3140POPC   C3A41405  40.825   9.017   7.064
 3140POPC   C4A41406  40.734   8.970   7.364
 3140POPC   C1B41407  41.013   9.044   6.464
 3140POPC   C2B41408  40.993   9.042   6.764
 3140POPC   C3B41409  41.046   9.091   7.064
 3140POPC   C4B41410  41.071   9.022   7.364
 3141POPC   NC341411  28.348  15.142   5.564
 3141POPC   PO441412  28.320  15.181   5.864
 3141POPC   GL141413  28.354  15.207   6.164
 3141POPC   GL241414  28.471  15.139   6.164
 3141POPC   C1A41415  28.384  15.228   6.464
 3141POPC   D2A41416  28.374  15.225   6.764
 3141POPC   C3A41417  28.412  15.209   7.064
 3141POPC   C4A41418  28.409  15.202   7.364
 3141POPC   C1B41419  28.584  15.094   6.464
 3141POPC   C2B41420  28.618  15.085   6.764
 3141POPC   C3B41421  28.626  15.098   7.064
 3141POPC   C4B41422  28.626  15.094   7.364
 3142POPC   NC341423   7.418  21.352   5.564
 3142POPC   PO441424   7.374  21.395   5.864
 3142POPC   GL141425   7.462  21.391   6.164
 3142POPC   GL241426   7.489  21.484   6.164
 3142POPC   C1A41427   7.405  21.341   6.464
 3142POPC   D2A41428   7.428  21.384   6.764
 3142POPC   C3A41429   7.403  21.404   7.064
 3142POPC   C4A41430   7.453  21.361   7.364
 3142POPC   C1B41431   7.667  21.520   6.464
 3142POPC   C2B41432   7.675  21.531   6.764
 3142POPC   C3B41433   7.593  21.536   7.064
 3142POPC   C4B41434   7.623  21.528   7.364
 3143POPC   NC341435  32.202  17.484   5.564
 3143POPC   PO441436  32.199  17.530   5.864
 3143POPC   GL141437  32.247  17.480   6.164
 3143POPC   GL241438  32.379  17.486   6.164
 3143POPC   C1A41439  32.251  17.539   6.464
 3143POPC   D2A41440  32.202  17.484   6.764
 3143POPC   C3A41441  32.264  17.490   7.064
 3143POPC   C4A41442  32.229  17.554   7.364
 3143POPC   C1B41443  32.520  17.525   6.464
 3143POPC   C2B41444  32.545  17.510   6.764
 3143POPC   C3B41445  32.512  17.468   7.064
 3143POPC   C4B41446  32.486  17.472   7.364
 3144POPC   NC341447  26.077  32.228   5.564
 3144POPC   PO441448  26.068  32.263   5.864
 3144POPC   GL141449  26.079  32.240   6.164
 3144POPC   GL241450  26.022  32.150   6.164
 3144POPC   C1A41451  26.012  32.226   6.464
 3144POPC   D2A41452  26.081  32.274   6.764
 3144POPC   C3A41453  26.051  32.227   7.064
 3144POPC   C4A41454  25.994  32.267   7.364
 3144POPC   C1B41455  26.045  32.016   6.464
 3144POPC   C2B41456  26.082  32.028   6.764
 3144POPC   C3B41457  26.132  31.992   7.064
 3144POPC   C4B41458  26.052  32.026   7.364
 3145POPC   NC341459  36.154   2.758   5.564
 3145POPC   PO441460  36.150   2.778   5.864
 3145POPC   GL141461  36.116   2.756   6.164
 3145POPC   GL241462  36.225   2.704   6.164
 3145POPC   C1A41463  36.148   2.788   6.464
 3145POPC   D2A41464  36.136   2.724   6.764
 3145POPC   C3A41465  36.098   2.729   7.064
 3145POPC   C4A41466  36.082   2.719   7.364
 3145POPC   C1B41467  36.310   2.575   6.464
 3145POPC   C2B41468  36.288   2.640   6.764
 3145POPC   C3B41469  36.372   2.653   7.064
 3145POPC   C4B41470  36.364   2.626   7.364
 3146POPC   NC341471  17.538   2.783   5.564
 3146POPC   PO441472  17.516   2.731   5.864
 3146POPC   GL141473  17.502   2.799   6.164
 3146POPC   GL241474  17.383   2.805   6.164
 3146POPC   C1A41475  17.537   2.731   6.464
 3146POPC   D2A41476  17.509   2.725   6.764
 3146POPC   C3A41477  17.552   2.776   7.064
 3146POPC   C4A41478  17.478   2.775   7.364
 3146POPC   C1B41479  17.256   2.748   6.464
 3146POPC   C2B41480  17.273   2.746   6.764
 3146POPC   C3B41481  17.295   2.814   7.064
 3146POPC   C4B41482  17.261   2.807   7.364
 3147POPC   NC341483   5.868  12.029   5.564
 3147POPC   PO441484   5.915  12.075   5.864
 3147POPC   GL141485   5.878  12.046   6.164
 3147POPC   GL241486   5.792  12.070   6.164
 3147POPC   C1A41487   5.829  12.068   6.464
 3147POPC   D2A41488   5.904  12.047   6.764
 3147POPC   C3A41489   5.897  12.038   7.064
 3147POPC   C4A41490   5.850  12.066   7.364
 3147POPC   C1B41491   5.632  12.089   6.464
 3147POPC   C2B41492   5.658  12.107   6.764
 3147POPC   C3B41493   5.617  12.170   7.064
 3147POPC   C4B41494   5.623  12.096   7.364
 3148POPC   NC341495  26.037  24.527   5.564
 3148POPC   PO441496  26.006  24.486   5.864
 3148POPC   GL141497  26.025  24.475   6.164
 3148POPC   GL241498  26.061  24.367   6.164
 3148POPC   C1A41499  26.073  24.483   6.464
 3148POPC   D2A41500  26.059  24.444   6.764
 3148POPC   C3A41501  26.023  24.468   7.064
 3148POPC   C4A41502  26.078  24.532   7.364
 3148POPC   C1B41503  26.024  24.212   6.464
 3148POPC   C2B41504  26.004  24.200   6.764
 3148POPC   C3B41505  25.985  24.246   7.064
 3148POPC   C4B41506  25.968  24.253   7.364
 3149POPC   NC341507  21.350  23.705   5.564
 3149POPC   PO441508  21.428  23.749   5.864
 3149POPC   GL141509  21.338  23.730   6.164
 3149POPC   GL241510  21.327  23.580   6.164
 3149POPC   C1A41511  21.397  23.740   6.464
 3149POPC   D2A41512  21.420  23.735   6.764
 3149POPC   C3A41513  21.342  23.740   7.064
 3149POPC   C4A41514  21.337  23.740   7.364
 3149POPC   C1B41515  21.320  23.451   6.464
 3149POPC   C2B41516  21.264  23.503   6.764
 3149POPC   C3B41517  21.256  23.440   7.064
 3149POPC   C4B41518  21.277  23.481   7.364
 3150POPC   NC341519   2.727  22.950   5.564
 3150POPC   PO441520   2.755  22.891   5.864
 3150POPC   GL141521   2.743  22.909   6.164
 3150POPC   GL241522   2.932  23.023   6.164
 3150POPC   C1A41523   2.781  22.974   6.464
 3150POPC   D2A41524   2.784  22.905   6.764
 3150POPC   C3A41525   2.779  22.962   7.064
 3150POPC   C4A41526   2.764  22.931   7.364
 3150POPC   C1B41527   2.962  23.049   6.464
 3150POPC   C2B41528   3.037  23.031   6.764
 3150POPC   C3B41529   3.017  23.033   7.064
 3150POPC   C4B41530   3.032  23.054   7.364
 3151POPC   NC341531  16.706  16.760   5.564
 3151POPC   PO441532  16.750  16.700   5.864
 3151POPC   GL141533  16.693  16.704   6.164
 3151POPC   GL241534  16.843  16.648   6.164
 3151POPC   C1A41535  16.719  16.747   6.464
 3151POPC   D2A41536  16.746  16.735   6.764
 3151POPC   C3A41537  16.729  16.712   7.064
 3151POPC   C4A41538  16.779  16.721   7.364
 3151POPC   C1B41539  16.917  16.509   6.464
 3151POPC   C2B41540  16.850  16.516   6.764
 3151POPC   C3B41541  16.932  16.568   7.064
 3151POPC   C4B41542  16.916  16.504   7.364
 3152POPC   NC341543  15.228  35.308   5.564
 3152POPC   PO441544  15.145  35.382   5.864
 3152POPC   GL141545  15.137  35.327   6.164
 3152POPC   GL241546  15.265  35.432   6.164
 3152POPC   C1A41547  15.151  35.340   6.464
 3152POPC   D2A41548  15.169  35.361   6.764
 3152POPC   C3A41549  15.145  35.339   7.064
 3152POPC   C4A41550  15.227  35.396   7.364
 3152POPC   C1B41551  15.367  35.507   6.464
 3152POPC   C2B41552  15.340  35.531   6.764
 3152POPC   C3B41553  15.332  35.531   7.064
 3152POPC   C4B41554  15.346  35.565   7.364
 3153POPC   NC341555  17.544   1.249   5.564
 3153POPC   PO441556  17.514   1.250   5.864
 3153POPC   GL141557  17.543   1.179   6.164
 3153POPC   GL241558  17.627   1.219   6.164
 3153POPC   C1A41559  17.472   1.165   6.464
 3153POPC   D2A41560  17.526   1.236   6.764
 3153POPC   C3A41561  17.537   1.171   7.064
 3153POPC   C4A41562  17.539   1.230   7.364
 3153POPC   C1B41563  17.740   1.183   6.464
 3153POPC   C2B41564  17.768   1.194   6.764
 3153POPC   C3B41565  17.802   1.253   7.064
 3153POPC   C4B41566  17.774   1.262   7.364
 3154POPC   NC341567  33.817  18.264   5.564
 3154POPC   PO441568  33.822  18.258   5.864
 3154POPC   GL141569  33.782  18.289   6.164
 3154POPC   GL241570  33.972  18.241   6.164
 3154POPC   C1A41571  33.832  18.269   6.464
 3154POPC   D2A41572  33.833  18.323   6.764
 3154POPC   C3A41573  33.821  18.258   7.064
 3154POPC   C4A41574  33.771  18.299   7.364
 3154POPC   C1B41575  34.086  18.235   6.464
 3154POPC   C2B41576  34.050  18.272   6.764
 3154POPC   C3B41577  34.089  18.274   7.064
 3154POPC   C4B41578  34.015  18.264   7.364
 3155POPC   NC341579  29.103   2.022   5.564
 3155POPC   PO441580  29.162   1.945   5.864
 3155POPC   GL141581  29.119   1.995   6.164
 3155POPC   GL241582  29.060   2.108   6.164
 3155POPC   C1A41583  29.100   1.940   6.464
 3155POPC   D2A41584  29.170   1.971   6.764
 3155POPC   C3A41585  29.113   1.985   7.064
 3155POPC   C4A41586  29.111   1.987   7.364
 3155POPC   C1B41587  28.986   2.186   6.464
 3155POPC   C2B41588  29.012   2.189   6.764
 3155POPC   C3B41589  28.991   2.175   7.064
 3155POPC   C4B41590  28.956   2.128   7.364
 3156POPC   NC341591  40.778  22.920   5.564
 3156POPC   PO441592  40.764  22.917   5.864
 3156POPC   GL141593  40.748  22.920   6.164
 3156POPC   GL241594  40.827  23.029   6.164
 3156POPC   C1A41595  40.776  22.894   6.464
 3156POPC   D2A41596  40.787  22.979   6.764
 3156POPC   C3A41597  40.758  22.909   7.064
 3156POPC   C4A41598  40.760  22.911   7.364
 3156POPC   C1B41599  40.892  23.167   6.464
 3156POPC   C2B41600  40.830  23.185   6.764
 3156POPC   C3B41601  40.822  23.205   7.064
 3156POPC   C4B41602  40.826  23.204   7.364
 3157POPC   NC341603  43.096  42.301   5.564
 3157POPC   PO441604  43.093  42.362   5.864
 3157POPC   GL141605  43.098  42.327   6.164
 3157POPC   GL241606  43.270  42.318   6.164
 3157POPC   C1A41607  43.158  42.331   6.464
 3157POPC   D2A41608  43.116  42.336   6.764
 3157POPC   C3A41609  43.149  42.376   7.064
 3157POPC   C4A41610  43.143  42.333   7.364
 3157POPC   C1B41611  43.337  42.267   6.464
 3157POPC   C2B41612  43.372  42.257   6.764
 3157POPC   C3B41613  43.368  42.202   7.064
 3157POPC   C4B41614  43.333  42.173   7.364
 3158POPC   NC341615  44.636  18.327   5.564
 3158POPC   PO441616  44.693  18.287   5.864
 3158POPC   GL141617  44.637  18.316   6.164
 3158POPC   GL241618  44.720  18.112   6.164
 3158POPC   C1A41619  44.669  18.242   6.464
 3158POPC   D2A41620  44.638  18.251   6.764
 3158POPC   C3A41621  44.684  18.303   7.064
 3158POPC   C4A41622  44.641  18.297   7.364
 3158POPC   C1B41623  44.681  18.072   6.464
 3158POPC   C2B41624  44.723  18.062   6.764
 3158POPC   C3B41625  44.663  18.027   7.064
 3158POPC   C4B41626  44.726  18.065   7.364
 3159POPC   NC341627   3.497  36.855   5.564
 3159POPC   PO441628   3.494  36.893   5.864
 3159POPC   GL141629   3.495  36.909   6.164
 3159POPC   GL241630   3.489  37.039   6.164
 3159POPC   C1A41631   3.589  36.949   6.464
 3159POPC   D2A41632   3.560  36.937   6.764
 3159POPC   C3A41633   3.527  36.939   7.064
 3159POPC   C4A41634   3.505  36.858   7.364
 3159POPC   C1B41635   3.404  37.153   6.464
 3159POPC   C2B41636   3.425  37.165   6.764
 3159POPC   C3B41637   3.412  37.155   7.064
 3159POPC   C4B41638   3.435  37.177   7.364
 3160POPC   NC341639  18.273  20.621   5.564
 3160POPC   PO441640  18.312  20.588   5.864
 3160POPC   GL141641  18.272  20.635   6.164
 3160POPC   GL241642  18.371  20.687   6.164
 3160POPC   C1A41643  18.241  20.585   6.464
 3160POPC   D2A41644  18.238  20.580   6.764
 3160POPC   C3A41645  18.294  20.634   7.064
 3160POPC   C4A41646  18.269  20.569   7.364
 3160POPC   C1B41647  18.466  20.755   6.464
 3160POPC   C2B41648  18.469  20.725   6.764
 3160POPC   C3B41649  18.447  20.781   7.064
 3160POPC   C4B41650  18.446  20.747   7.364
 3161POPC   NC341651  42.348  12.834   5.564
 3161POPC   PO441652  42.316  12.838   5.864
 3161POPC   GL141653  42.316  12.834   6.164
 3161POPC   GL241654  42.381  12.938   6.164
 3161POPC   C1A41655  42.344  12.867   6.464
 3161POPC   D2A41656  42.291  12.896   6.764
 3161POPC   C3A41657  42.373  12.845   7.064
 3161POPC   C4A41658  42.312  12.892   7.364
 3161POPC   C1B41659  42.383  13.064   6.464
 3161POPC   C2B41660  42.378  13.119   6.764
 3161POPC   C3B41661  42.348  13.087   7.064
 3161POPC   C4B41662  42.334  13.098   7.364
 3162POPC   NC341663  25.218  36.119   5.564
 3162POPC   PO441664  25.271  36.100   5.864
 3162POPC   GL141665  25.232  36.125   6.164
 3162POPC   GL241666  25.370  36.275   6.164
 3162POPC   C1A41667  25.288  36.173   6.464
 3162POPC   D2A41668  25.250  36.170   6.764
 3162POPC   C3A41669  25.259  36.163   7.064
 3162POPC   C4A41670  25.297  36.129   7.364
 3162POPC   C1B41671  25.403  36.379   6.464
 3162POPC   C2B41672  25.359  36.298   6.764
 3162POPC   C3B41673  25.409  36.314   7.064
 3162POPC   C4B41674  25.409  36.376   7.364
 3163POPC   NC341675  44.691  29.875   5.564
 3163POPC   PO441676  44.661  29.904   5.864
 3163POPC   GL141677  44.690  29.881   6.164
 3163POPC   GL241678  44.558  29.922   6.164
 3163POPC   C1A41679  44.651  29.879   6.464
 3163POPC   D2A41680  44.666  29.960   6.764
 3163POPC   C3A41681  44.636  29.969   7.064
 3163POPC   C4A41682  44.623  29.897   7.364
 3163POPC   C1B41683  44.411  29.794   6.464
 3163POPC   C2B41684  44.419  29.843   6.764
 3163POPC   C3B41685  44.454  29.872   7.064
 3163POPC   C4B41686  44.399  29.795   7.364
 3164POPC   NC341687   5.110   9.739   5.564
 3164POPC   PO441688   5.116   9.764   5.864
 3164POPC   GL141689   5.095   9.711   6.164
 3164POPC   GL241690   4.989   9.753   6.164
 3164POPC   C1A41691   5.136   9.710   6.464
 3164POPC   D2A41692   5.093   9.772   6.764
 3164POPC   C3A41693   5.111   9.792   7.064
 3164POPC   C4A41694   5.063   9.761   7.364
 3164POPC   C1B41695   4.799   9.764   6.464
 3164POPC   C2B41696   4.838   9.769   6.764
 3164POPC   C3B41697   4.810   9.776   7.064
 3164POPC   C4B41698   4.797   9.738   7.364
 3165POPC   NC341699  21.410  36.127   5.564
 3165POPC   PO441700  21.374  36.150   5.864
 3165POPC   GL141701  21.354  36.166   6.164
 3165POPC   GL241702  21.484  35.986   6.164
 3165POPC   C1A41703  21.399  36.142   6.464
 3165POPC   D2A41704  21.358  36.098   6.764
 3165POPC   C3A41705  21.410  36.104   7.064
 3165POPC   C4A41706  21.368  36.079   7.364
 3165POPC   C1B41707  21.585  35.930   6.464
 3165POPC   C2B41708  21.575  35.929   6.764
 3165POPC   C3B41709  21.561  35.894   7.064
 3165POPC   C4B41710  21.587  35.889   7.364
 3166POPC   NC341711  19.824  13.673   5.564
 3166POPC   PO441712  19.804  13.628   5.864
 3166POPC   GL141713  19.878  13.663   6.164
 3166POPC   GL241714  19.780  13.745   6.164
 3166POPC   C1A41715  19.864  13.640   6.464
 3166POPC   D2A41716  19.803  13.578   6.764
 3166POPC   C3A41717  19.790  13.612   7.064
 3166POPC   C4A41718  19.844  13.615   7.364
 3166POPC   C1B41719  19.696  13.874   6.464
 3166POPC   C2B41720  19.691  13.814   6.764
 3166POPC   C3B41721  19.683  13.797   7.064
 3166POPC   C4B41722  19.741  13.874   7.364
 3167POPC   NC341723   5.065   5.879   5.564
 3167POPC   PO441724   5.090   5.856   5.864
 3167POPC   GL141725   5.126   5.828   6.164
 3167POPC   GL241726   4.938   5.901   6.164
 3167POPC   C1A41727   5.136   5.835   6.464
 3167POPC   D2A41728   5.105   5.863   6.764
 3167POPC   C3A41729   5.069   5.849   7.064
 3167POPC   C4A41730   5.061   5.916   7.364
 3167POPC   C1B41731   4.892   5.868   6.464
 3167POPC   C2B41732   4.823   5.871   6.764
 3167POPC   C3B41733   4.815   5.863   7.064
 3167POPC   C4B41734   4.851   5.795   7.364
 3168POPC   NC341735   5.823  19.790   5.564
 3168POPC   PO441736   5.896  19.817   5.864
 3168POPC   GL141737   5.899  19.863   6.164
 3168POPC   GL241738   5.755  19.731   6.164
 3168POPC   C1A41739   5.872  19.880   6.464
 3168POPC   D2A41740   5.886  19.794   6.764
 3168POPC   C3A41741   5.866  19.788   7.064
 3168POPC   C4A41742   5.910  19.802   7.364
 3168POPC   C1B41743   5.691  19.650   6.464
 3168POPC   C2B41744   5.725  19.678   6.764
 3168POPC   C3B41745   5.660  19.694   7.064
 3168POPC   C4B41746   5.652  19.610   7.364
 3169POPC   NC341747  35.315  40.820   5.564
 3169POPC   PO441748  35.339  40.808   5.864
 3169POPC   GL141749  35.311  40.733   6.164
 3169POPC   GL241750  35.410  40.880   6.164
 3169POPC   C1A41751  35.321  40.804   6.464
 3169POPC   D2A41752  35.304  40.824   6.764
 3169POPC   C3A41753  35.362  40.743   7.064
 3169POPC   C4A41754  35.382  40.747   7.364
 3169POPC   C1B41755  35.388  40.994   6.464
 3169POPC   C2B41756  35.418  41.054   6.764
 3169POPC   C3B41757  35.389  41.019   7.064
 3169POPC   C4B41758  35.353  40.989   7.364
 3170POPC   NC341759  17.492  40.024   5.564
 3170POPC   PO441760  17.538  39.959   5.864
 3170POPC   GL141761  17.493  39.992   6.164
 3170POPC   GL241762  17.599  39.947   6.164
 3170POPC   C1A41763  17.528  39.971   6.464
 3170POPC   D2A41764  17.481  39.989   6.764
 3170POPC   C3A41765  17.528  40.029   7.064
 3170POPC   C4A41766  17.490  40.021   7.364
 3170POPC   C1B41767  17.750  39.822   6.464
 3170POPC   C2B41768  17.674  39.878   6.764
 3170POPC   C3B41769  17.699  39.878   7.064
 3170POPC   C4B41770  17.666  39.852   7.364
 3171POPC   NC341771  36.097  29.950   5.564
 3171POPC   PO441772  36.119  29.959   5.864
 3171POPC   GL141773  36.158  29.899   6.164
 3171POPC   GL241774  35.972  29.830   6.164
 3171POPC   C1A41775  36.084  29.888   6.464
 3171POPC   D2A41776  36.130  29.898   6.764
 3171POPC   C3A41777  36.124  29.893   7.064
 3171POPC   C4A41778  36.097  29.902   7.364
 3171POPC   C1B41779  35.910  29.836   6.464
 3171POPC   C2B41780  35.942  29.804   6.764
 3171POPC   C3B41781  35.894  29.768   7.064
 3171POPC   C4B41782  35.904  29.766   7.364
 3172POPC   NC341783  21.342  16.770   5.564
 3172POPC   PO441784  21.425  16.703   5.864
 3172POPC   GL141785  21.366  16.708   6.164
 3172POPC   GL241786  21.437  16.814   6.164
 3172POPC   C1A41787  21.382  16.692   6.464
 3172POPC   D2A41788  21.398  16.694   6.764
 3172POPC   C3A41789  21.393  16.684   7.064
 3172POPC   C4A41790  21.382  16.739   7.364
 3172POPC   C1B41791  21.511  16.910   6.464
 3172POPC   C2B41792  21.511  16.953   6.764
 3172POPC   C3B41793  21.534  16.872   7.064
 3172POPC   C4B41794  21.527  16.908   7.364
 3173POPC   NC341795  42.379   8.943   5.564
 3173POPC   PO441796  42.309   9.019   5.864
 3173POPC   GL141797  42.285   8.936   6.164
 3173POPC   GL241798  42.417   8.878   6.164
 3173POPC   C1A41799  42.308   8.927   6.464
 3173POPC   D2A41800  42.316   8.936   6.764
 3173POPC   C3A41801  42.289   8.924   7.064
 3173POPC   C4A41802  42.374   9.016   7.364
 3173POPC   C1B41803  42.459   8.779   6.464
 3173POPC   C2B41804  42.402   8.769   6.764
 3173POPC   C3B41805  42.477   8.770   7.064
 3173POPC   C4B41806  42.495   8.778   7.364
 3174POPC   NC341807   8.206   0.459   5.564
 3174POPC   PO441808   8.204   0.437   5.864
 3174POPC   GL141809   8.176   0.448   6.164
 3174POPC   GL241810   8.293   0.383   6.164
 3174POPC   C1A41811   8.152   0.400   6.464
 3174POPC   D2A41812   8.221   0.476   6.764
 3174POPC   C3A41813   8.238   0.426   7.064
 3174POPC   C4A41814   8.221   0.468   7.364
 3174POPC   C1B41815   8.461   0.402   6.464
 3174POPC   C2B41816   8.475   0.417   6.764
 3174POPC   C3B41817   8.439   0.401   7.064
 3174POPC   C4B41818   8.435   0.413   7.364
 3175POPC   NC341819  43.885   4.298   5.564
 3175POPC   PO441820  43.879   4.272   5.864
 3175POPC   GL141821  43.889   4.286   6.164
 3175POPC   GL241822  43.888   4.414   6.164
 3175POPC   C1A41823  43.887   4.309   6.464
 3175POPC   D2A41824  43.888   4.322   6.764
 3175POPC   C3A41825  43.907   4.362   7.064
 3175POPC   C4A41826  43.936   4.281   7.364
 3175POPC   C1B41827  43.951   4.603   6.464
 3175POPC   C2B41828  43.933   4.559   6.764
 3175POPC   C3B41829  43.900   4.544   7.064
 3175POPC   C4B41830  43.948   4.542   7.364
 3176POPC   NC341831  26.080   4.337   5.564
 3176POPC   PO441832  26.087   4.272   5.864
 3176POPC   GL141833  26.086   4.270   6.164
 3176POPC   GL241834  26.174   4.199   6.164
 3176POPC   C1A41835  26.021   4.281   6.464
 3176POPC   D2A41836  26.003   4.353   6.764
 3176POPC   C3A41837  26.007   4.299   7.064
 3176POPC   C4A41838  26.062   4.346   7.364
 3176POPC   C1B41839  26.214   4.162   6.464
 3176POPC   C2B41840  26.193   4.201   6.764
 3176POPC   C3B41841  26.246   4.115   7.064
 3176POPC   C4B41842  26.273   4.127   7.364
 3177POPC   NC341843  40.016  35.323   5.564
 3177POPC   PO441844  39.982  35.385   5.864
 3177POPC   GL141845  40.045  35.376   6.164
 3177POPC   GL241846  40.098  35.301   6.164
 3177POPC   C1A41847  40.054  35.364   6.464
 3177POPC   D2A41848  40.050  35.338   6.764
 3177POPC   C3A41849  40.045  35.397   7.064
 3177POPC   C4A41850  40.027  35.351   7.364
 3177POPC   C1B41851  40.260  35.223   6.464
 3177POPC   C2B41852  40.227  35.239   6.764
 3177POPC   C3B41853  40.251  35.234   7.064
 3177POPC   C4B41854  40.201  35.199   7.364
 3178POPC   NC341855   5.071  19.844   5.564
 3178POPC   PO441856   5.097  19.847   5.864
 3178POPC   GL141857   5.050  19.842   6.164
 3178POPC   GL241858   5.258  19.917   6.164
 3178POPC   C1A41859   5.107  19.829   6.464
 3178POPC   D2A41860   5.046  19.841   6.764
 3178POPC   C3A41861   5.103  19.837   7.064
 3178POPC   C4A41862   5.122  19.841   7.364
 3178POPC   C1B41863   5.322  19.873   6.464
 3178POPC   C2B41864   5.347  19.937   6.764
 3178POPC   C3B41865   5.360  19.907   7.064
 3178POPC   C4B41866   5.375  19.923   7.364
 3179POPC   NC341867   4.343  34.613   5.564
 3179POPC   PO441868   4.296  34.610   5.864
 3179POPC   GL141869   4.325  34.539   6.164
 3179POPC   GL241870   4.325  34.667   6.164
 3179POPC   C1A41871   4.333  34.570   6.464
 3179POPC   D2A41872   4.354  34.543   6.764
 3179POPC   C3A41873   4.324  34.555   7.064
 3179POPC   C4A41874   4.277  34.613   7.364
 3179POPC   C1B41875   4.327  34.777   6.464
 3179POPC   C2B41876   4.402  34.776   6.764
 3179POPC   C3B41877   4.331  34.788   7.064
 3179POPC   C4B41878   4.347  34.850   7.364
 3180POPC   NC341879  44.684  13.618   5.564
 3180POPC   PO441880  44.685  13.586   5.864
 3180POPC   GL141881  44.699  13.609   6.164
 3180POPC   GL241882  44.515  13.598   6.164
 3180POPC   C1A41883  44.666  13.589   6.464
 3180POPC   D2A41884  44.686  13.586   6.764
 3180POPC   C3A41885  44.694  13.610   7.064
 3180POPC   C4A41886  44.686  13.658   7.364
 3180POPC   C1B41887  44.457  13.626   6.464
 3180POPC   C2B41888  44.365  13.678   6.764
 3180POPC   C3B41889  44.365  13.671   7.064
 3180POPC   C4B41890  44.365  13.688   7.364
 3181POPC   NC341891  40.794   3.492   5.564
 3181POPC   PO441892  40.749   3.500   5.864
 3181POPC   GL141893  40.765   3.579   6.164
 3181POPC   GL241894  40.857   3.681   6.164
 3181POPC   C1A41895  40.767   3.514   6.464
 3181POPC   D2A41896  40.742   3.526   6.764
 3181POPC   C3A41897  40.831   3.526   7.064
 3181POPC   C4A41898  40.757   3.554   7.364
 3181POPC   C1B41899  40.940   3.753   6.464
 3181POPC   C2B41900  40.958   3.705   6.764
 3181POPC   C3B41901  40.983   3.687   7.064
 3181POPC   C4B41902  40.917   3.774   7.364
 3182POPC   NC341903   2.789  36.947   5.564
 3182POPC   PO441904   2.740  36.897   5.864
 3182POPC   GL141905   2.782  36.859   6.164
 3182POPC   GL241906   2.812  37.053   6.164
 3182POPC   C1A41907   2.741  36.952   6.464
 3182POPC   D2A41908   2.765  36.945   6.764
 3182POPC   C3A41909   2.796  36.938   7.064
 3182POPC   C4A41910   2.803  36.872   7.364
 3182POPC   C1B41911   2.793  37.156   6.464
 3182POPC   C2B41912   2.758  37.146   6.764
 3182POPC   C3B41913   2.827  37.112   7.064
 3182POPC   C4B41914   2.761  37.123   7.364
 3183POPC   NC341915   6.650  20.634   5.564
 3183POPC   PO441916   6.675  20.566   5.864
 3183POPC   GL141917   6.667  20.579   6.164
 3183POPC   GL241918   6.646  20.739   6.164
 3183POPC   C1A41919   6.637  20.620   6.464
 3183POPC   D2A41920   6.691  20.596   6.764
 3183POPC   C3A41921   6.627  20.622   7.064
 3183POPC   C4A41922   6.642  20.657   7.364
 3183POPC   C1B41923   6.656  20.885   6.464
 3183POPC   C2B41924   6.657  20.828   6.764
 3183POPC   C3B41925   6.677  20.888   7.064
 3183POPC   C4B41926   6.698  20.837   7.364
 3184POPC   NC341927  33.836   1.189   5.564
 3184POPC   PO441928  33.791   1.261   5.864
 3184POPC   GL141929  33.807   1.223   6.164
 3184POPC   GL241930  33.704   1.271   6.164
 3184POPC   C1A41931  33.814   1.216   6.464
 3184POPC   D2A41932  33.805   1.210   6.764
 3184POPC   C3A41933  33.778   1.204   7.064
 3184POPC   C4A41934  33.757   1.226   7.364
 3184POPC   C1B41935  33.519   1.248   6.464
 3184POPC   C2B41936  33.557   1.297   6.764
 3184POPC   C3B41937  33.558   1.230   7.064
 3184POPC   C4B41938  33.518   1.316   7.364
 3185POPC   NC341939  44.640  28.376   5.564
 3185POPC   PO441940  44.708  28.378   5.864
 3185POPC   GL141941  44.644  28.400   6.164
 3185POPC   GL241942  44.557  28.429   6.164
 3185POPC   C1A41943  44.636  28.408   6.464
 3185POPC   D2A41944  44.689  28.411   6.764
 3185POPC   C3A41945  44.639  28.345   7.064
 3185POPC   C4A41946  44.679  28.415   7.364
 3185POPC   C1B41947  44.477  28.523   6.464
 3185POPC   C2B41948  44.500  28.463   6.764
 3185POPC   C3B41949  44.473  28.496   7.064
 3185POPC   C4B41950  44.444  28.454   7.364
 3186POPC   NC341951  31.467  18.242   5.564
 3186POPC   PO441952  31.505  18.247   5.864
 3186POPC   GL141953  31.510  18.290   6.164
 3186POPC   GL241954  31.509  18.219   6.164
 3186POPC   C1A41955  31.435  18.284   6.464
 3186POPC   D2A41956  31.448  18.293   6.764
 3186POPC   C3A41957  31.435  18.308   7.064
 3186POPC   C4A41958  31.507  18.325   7.364
 3186POPC   C1B41959  31.604  18.139   6.464
 3186POPC   C2B41960  31.676  18.136   6.764
 3186POPC   C3B41961  31.689  18.064   7.064
 3186POPC   C4B41962  31.685  18.058   7.364
 3187POPC   NC341963   6.624  33.833   5.564
 3187POPC   PO441964   6.602  33.838   5.864
 3187POPC   GL141965   6.634  33.780   6.164
 3187POPC   GL241966   6.635  33.638   6.164
 3187POPC   C1A41967   6.688  33.815   6.464
 3187POPC   D2A41968   6.675  33.824   6.764
 3187POPC   C3A41969   6.692  33.786   7.064
 3187POPC   C4A41970   6.677  33.832   7.364
 3187POPC   C1B41971   6.596  33.538   6.464
 3187POPC   C2B41972   6.637  33.515   6.764
 3187POPC   C3B41973   6.649  33.564   7.064
 3187POPC   C4B41974   6.613  33.593   7.364
 3188POPC   NC341975  36.103  15.937   5.564
 3188POPC   PO441976  36.135  15.945   5.864
 3188POPC   GL141977  36.111  15.942   6.164
 3188POPC   GL241978  36.072  16.090   6.164
 3188POPC   C1A41979  36.139  15.963   6.464
 3188POPC   D2A41980  36.105  15.907   6.764
 3188POPC   C3A41981  36.107  15.932   7.064
 3188POPC   C4A41982  36.099  15.927   7.364
 3188POPC   C1B41983  35.921  16.086   6.464
 3188POPC   C2B41984  35.932  16.089   6.764
 3188POPC   C3B41985  35.971  16.113   7.064
 3188POPC   C4B41986  35.948  16.174   7.364
 3189POPC   NC341987   8.223   6.632   5.564
 3189POPC   PO441988   8.230   6.674   5.864
 3189POPC   GL141989   8.194   6.631   6.164
 3189POPC   GL241990   8.212   6.561   6.164
 3189POPC   C1A41991   8.166   6.624   6.464
 3189POPC   D2A41992   8.235   6.687   6.764
 3189POPC   C3A41993   8.170   6.665   7.064
 3189POPC   C4A41994   8.228   6.642   7.364
 3189POPC   C1B41995   8.261   6.421   6.464
 3189POPC   C2B41996   8.317   6.411   6.764
 3189POPC   C3B41997   8.256   6.442   7.064
 3189POPC   C4B41998   8.252   6.395   7.364
 3190POPC   NC341999   2.010  35.385   5.564
 3190POPC   PO442000   2.028  35.395   5.864
 3190POPC   GL142001   1.940  35.382   6.164
 3190POPC   GL242002   2.092  35.336   6.164
 3190POPC   C1A42003   1.956  35.325   6.464
 3190POPC   D2A42004   2.019  35.305   6.764
 3190POPC   C3A42005   1.999  35.318   7.064
 3190POPC   C4A42006   1.972  35.359   7.364
 3190POPC   C1B42007   2.231  35.444   6.464
 3190POPC   C2B42008   2.278  35.409   6.764
 3190POPC   C3B42009   2.198  35.425   7.064
 3190POPC   C4B42010   2.217  35.367   7.364
 3191POPC   NC342011   9.742   2.781   5.564
 3191POPC   PO442012   9.759   2.731   5.864
 3191POPC   GL142013   9.732   2.799   6.164
 3191POPC   GL242014   9.667   2.615   6.164
 3191POPC   C1A42015   9.714   2.764   6.464
 3191POPC   D2A42016   9.735   2.733   6.764
 3191POPC   C3A42017   9.760   2.729   7.064
 3191POPC   C4A42018   9.797   2.774   7.364
 3191POPC   C1B42019   9.612   2.586   6.464
 3191POPC   C2B42020   9.644   2.561   6.764
 3191POPC   C3B42021   9.614   2.500   7.064
 3191POPC   C4B42022   9.640   2.596   7.364
 3192POPC   NC342023  34.552  18.330   5.564
 3192POPC   PO442024  34.603  18.311   5.864
 3192POPC   GL142025  34.587  18.329   6.164
 3192POPC   GL242026  34.431  18.285   6.164
 3192POPC   C1A42027  34.562  18.331   6.464
 3192POPC   D2A42028  34.609  18.239   6.764
 3192POPC   C3A42029  34.591  18.234   7.064
 3192POPC   C4A42030  34.609  18.250   7.364
 3192POPC   C1B42031  34.339  18.305   6.464
 3192POPC   C2B42032  34.314  18.344   6.764
 3192POPC   C3B42033  34.327  18.312   7.064
 3192POPC   C4B42034  34.316  18.400   7.364
 3193POPC   NC342035   8.169  40.046   5.564
 3193POPC   PO442036   8.232  40.041   5.864
 3193POPC   GL142037   8.214  40.036   6.164
 3193POPC   GL242038   8.202  40.100   6.164
 3193POPC   C1A42039   8.188  39.966   6.464
 3193POPC   D2A42040   8.169  39.973   6.764
 3193POPC   C3A42041   8.217  39.997   7.064
 3193POPC   C4A42042   8.174  39.988   7.364
 3193POPC   C1B42043   8.098  40.224   6.464
 3193POPC   C2B42044   8.189  40.246   6.764
 3193POPC   C3B42045   8.181  40.247   7.064
 3193POPC   C4B42046   8.146  40.285   7.364
 3194POPC   NC342047  38.453   7.451   5.564
 3194POPC   PO442048  38.485   7.386   5.864
 3194POPC   GL142049  38.460   7.417   6.164
 3194POPC   GL242050  38.362   7.361   6.164
 3194POPC   C1A42051  38.473   7.386   6.464
 3194POPC   D2A42052  38.472   7.372   6.764
 3194POPC   C3A42053  38.432   7.382   7.064
 3194POPC   C4A42054  38.431   7.458   7.364
 3194POPC   C1B42055  38.162   7.417   6.464
 3194POPC   C2B42056  38.203   7.439   6.764
 3194POPC   C3B42057  38.242   7.415   7.064
 3194POPC   C4B42058  38.208   7.381   7.364
 3195POPC   NC342059  33.057   1.198   5.564
 3195POPC   PO442060  32.998   1.200   5.864
 3195POPC   GL142061  33.052   1.189   6.164
 3195POPC   GL242062  32.927   1.208   6.164
 3195POPC   C1A42063  33.021   1.199   6.464
 3195POPC   D2A42064  32.991   1.230   6.764
 3195POPC   C3A42065  32.999   1.252   7.064
 3195POPC   C4A42066  32.987   1.246   7.364
 3195POPC   C1B42067  32.768   1.265   6.464
 3195POPC   C2B42068  32.804   1.184   6.764
 3195POPC   C3B42069  32.770   1.192   7.064
 3195POPC   C4B42070  32.778   1.194   7.364
 3196POPC   NC342071  14.426  13.652   5.564
 3196POPC   PO442072  14.362  13.605   5.864
 3196POPC   GL142073  14.419  13.595   6.164
 3196POPC   GL242074  14.538  13.688   6.164
 3196POPC   C1A42075  14.426  13.659   6.464
 3196POPC   D2A42076  14.418  13.607   6.764
 3196POPC   C3A42077  14.387  13.672   7.064
 3196POPC   C4A42078  14.407  13.623   7.364
 3196POPC   C1B42079  14.547  13.776   6.464
 3196POPC   C2B42080  14.579  13.772   6.764
 3196POPC   C3B42081  14.544  13.834   7.064
 3196POPC   C4B42082  14.570  13.832   7.364
 3197POPC   NC342083   0.448  31.476   5.564
 3197POPC   PO442084   0.409  31.514   5.864
 3197POPC   GL142085   0.430  31.496   6.164
 3197POPC   GL242086   0.513  31.559   6.164
 3197POPC   C1A42087   0.440  31.429   6.464
 3197POPC   D2A42088   0.483  31.444   6.764
 3197POPC   C3A42089   0.438  31.489   7.064
 3197POPC   C4A42090   0.412  31.486   7.364
 3197POPC   C1B42091   0.538  31.669   6.464
 3197POPC   C2B42092   0.573  31.682   6.764
 3197POPC   C3B42093   0.560  31.692   7.064
 3197POPC   C4B42094   0.540  31.732   7.364
 3198POPC   NC342095  22.211   8.971   5.564
 3198POPC   PO442096  22.184   8.998   5.864
 3198POPC   GL142097  22.125   8.985   6.164
 3198POPC   GL242098  22.287   8.926   6.164
 3198POPC   C1A42099  22.156   8.931   6.464
 3198POPC   D2A42100  22.204   8.964   6.764
 3198POPC   C3A42101  22.124   8.948   7.064
 3198POPC   C4A42102  22.178   9.008   7.364
 3198POPC   C1B42103  22.361   8.843   6.464
 3198POPC   C2B42104  22.354   8.900   6.764
 3198POPC   C3B42105  22.436   8.901   7.064
 3198POPC   C4B42106  22.390   8.842   7.364
 3199POPC   NC342107  19.803  40.821   5.564
 3199POPC   PO442108  19.802  40.796   5.864
 3199POPC   GL142109  19.827  40.749   6.164
 3199POPC   GL242110  19.720  40.832   6.164
 3199POPC   C1A42111  19.879  40.800   6.464
 3199POPC   D2A42112  19.840  40.805   6.764
 3199POPC   C3A42113  19.822  40.736   7.064
 3199POPC   C4A42114  19.875  40.808   7.364
 3199POPC   C1B42115  19.631  41.010   6.464
 3199POPC   C2B42116  19.667  41.013   6.764
 3199POPC   C3B42117  19.667  40.985   7.064
 3199POPC   C4B42118  19.706  40.921   7.364
 3200POPC   NC342119  14.380  40.796   5.564
 3200POPC   PO442120  14.425  40.785   5.864
 3200POPC   GL142121  14.400  40.771   6.164
 3200POPC   GL242122  14.337  40.899   6.164
 3200POPC   C1A42123  14.396  40.775   6.464
 3200POPC   D2A42124  14.385  40.819   6.764
 3200POPC   C3A42125  14.412  40.733   7.064
 3200POPC   C4A42126  14.418  40.744   7.364
 3200POPC   C1B42127  14.403  41.076   6.464
 3200POPC   C2B42128  14.398  40.994   6.764
 3200POPC   C3B42129  14.366  41.016   7.064
 3200POPC   C4B42130  14.410  41.025   7.364
 3201POPC   NC342131  33.015  12.885   5.564
 3201POPC   PO442132  33.003  12.811   5.864
 3201POPC   GL142133  32.981  12.811   6.164
 3201POPC   GL242134  32.923  12.722   6.164
 3201POPC   C1A42135  33.002  12.834   6.464
 3201POPC   D2A42136  32.980  12.877   6.764
 3201POPC   C3A42137  32.996  12.877   7.064
 3201POPC   C4A42138  33.026  12.880   7.364
 3201POPC   C1B42139  32.880  12.626   6.464
 3201POPC   C2B42140  32.871  12.600   6.764
 3201POPC   C3B42141  32.907  12.646   7.064
 3201POPC   C4B42142  32.921  12.659   7.364
 3202POPC   NC342143  43.858  27.579   5.564
 3202POPC   PO442144  43.836  27.628   5.864
 3202POPC   GL142145  43.901  27.559   6.164
 3202POPC   GL242146  43.809  27.610   6.164
 3202POPC   C1A42147  43.924  27.633   6.464
 3202POPC   D2A42148  43.896  27.602   6.764
 3202POPC   C3A42149  43.916  27.631   7.064
 3202POPC   C4A42150  43.877  27.627   7.364
 3202POPC   C1B42151  43.676  27.676   6.464
 3202POPC   C2B42152  43.690  27.680   6.764
 3202POPC   C3B42153  43.657  27.726   7.064
 3202POPC   C4B42154  43.699  27.658   7.364
 3203POPC   NC342155  35.342  15.145   5.564
 3203POPC   PO442156  35.359  15.217   5.864
 3203POPC   GL142157  35.342  15.220   6.164
 3203POPC   GL242158  35.279  15.280   6.164
 3203POPC   C1A42159  35.312  15.197   6.464
 3203POPC   D2A42160  35.325  15.137   6.764
 3203POPC   C3A42161  35.343  15.201   7.064
 3203POPC   C4A42162  35.398  15.165   7.364
 3203POPC   C1B42163  35.280  15.426   6.464
 3203POPC   C2B42164  35.285  15.441   6.764
 3203POPC   C3B42165  35.228  15.457   7.064
 3203POPC   C4B42166  35.257  15.422   7.364
 3204POPC   NC342167  26.012  33.002   5.564
 3204POPC   PO442168  26.014  33.026   5.864
 3204POPC   GL142169  26.015  33.058   6.164
 3204POPC   GL242170  26.098  32.922   6.164
 3204POPC   C1A42171  26.048  33.006   6.464
 3204POPC   D2A42172  26.068  33.003   6.764
 3204POPC   C3A42173  26.016  33.005   7.064
 3204POPC   C4A42174  26.074  32.977   7.364
 3204POPC   C1B42175  26.178  32.779   6.464
 3204POPC   C2B42176  26.117  32.848   6.764
 3204POPC   C3B42177  26.196  32.774   7.064
 3204POPC   C4B42178  26.114  32.836   7.364
 3205POPC   NC342179  32.267  24.525   5.564
 3205POPC   PO442180  32.279  24.488   5.864
 3205POPC   GL142181  32.265  24.443   6.164
 3205POPC   GL242182  32.156  24.562   6.164
 3205POPC   C1A42183  32.210  24.506   6.464
 3205POPC   D2A42184  32.244  24.466   6.764
 3205POPC   C3A42185  32.216  24.442   7.064
 3205POPC   C4A42186  32.237  24.474   7.364
 3205POPC   C1B42187  32.157  24.750   6.464
 3205POPC   C2B42188  32.130  24.681   6.764
 3205POPC   C3B42189  32.102  24.740   7.064
 3205POPC   C4B42190  32.149  24.749   7.364
 3206POPC   NC342191   9.781  33.035   5.564
 3206POPC   PO442192   9.716  33.017   5.864
 3206POPC   GL142193   9.773  33.025   6.164
 3206POPC   GL242194   9.821  33.094   6.164
 3206POPC   C1A42195   9.703  33.024   6.464
 3206POPC   D2A42196   9.792  32.974   6.764
 3206POPC   C3A42197   9.755  33.005   7.064
 3206POPC   C4A42198   9.777  33.042   7.364
 3206POPC   C1B42199   9.917  33.212   6.464
 3206POPC   C2B42200   9.912  33.155   6.764
 3206POPC   C3B42201   9.944  33.139   7.064
 3206POPC   C4B42202   9.993  33.155   7.364
 3207POPC   NC342203  22.911  26.078   5.564
 3207POPC   PO442204  22.937  26.045   5.864
 3207POPC   GL142205  22.888  26.074   6.164
 3207POPC   GL242206  22.864  26.105   6.164
 3207POPC   C1A42207  22.939  26.081   6.464
 3207POPC   D2A42208  22.934  26.036   6.764
 3207POPC   C3A42209  22.941  26.041   7.064
 3207POPC   C4A42210  22.949  26.044   7.364
 3207POPC   C1B42211  22.740  26.157   6.464
 3207POPC   C2B42212  22.713  26.128   6.764
 3207POPC   C3B42213  22.731  26.115   7.064
 3207POPC   C4B42214  22.722  26.111   7.364
 3208POPC   NC342215  25.286  14.376   5.564
 3208POPC   PO442216  25.250  14.373   5.864
 3208POPC   GL142217  25.313  14.365   6.164
 3208POPC   GL242218  25.379  14.497   6.164
 3208POPC   C1A42219  25.309  14.421   6.464
 3208POPC   D2A42220  25.293  14.397   6.764
 3208POPC   C3A42221  25.283  14.436   7.064
 3208POPC   C4A42222  25.241  14.415   7.364
 3208POPC   C1B42223  25.393  14.602   6.464
 3208POPC   C2B42224  25.439  14.597   6.764
 3208POPC   C3B42225  25.440  14.632   7.064
 3208POPC   C4B42226  25.457  14.556   7.364
 3209POPC   NC342227  43.159  18.276   5.564
 3209POPC   PO442228  43.131  18.306   5.864
 3209POPC   GL142229  43.131  18.310   6.164
 3209POPC   GL242230  43.073  18.210   6.164
 3209POPC   C1A42231  43.132  18.275   6.464
 3209POPC   D2A42232  43.132  18.254   6.764
 3209POPC   C3A42233  43.147  18.309   7.064
 3209POPC   C4A42234  43.107  18.237   7.364
 3209POPC   C1B42235  42.931  18.058   6.464
 3209POPC   C2B42236  42.955  18.100   6.764
 3209POPC   C3B42237  42.919  18.136   7.064
 3209POPC   C4B42238  42.934  18.118   7.364
 3210POPC   NC342239  30.722   1.964   5.564
 3210POPC   PO442240  30.709   2.003   5.864
 3210POPC   GL142241  30.694   1.945   6.164
 3210POPC   GL242242  30.582   1.873   6.164
 3210POPC   C1A42243  30.729   1.963   6.464
 3210POPC   D2A42244  30.660   2.022   6.764
 3210POPC   C3A42245  30.686   1.983   7.064
 3210POPC   C4A42246  30.685   2.032   7.364
 3210POPC   C1B42247  30.474   1.813   6.464
 3210POPC   C2B42248  30.485   1.812   6.764
 3210POPC   C3B42249  30.450   1.804   7.064
 3210POPC   C4B42250  30.516   1.806   7.364
 3211POPC   NC342251  27.600  20.568   5.564
 3211POPC   PO442252  27.587  20.590   5.864
 3211POPC   GL142253  27.630  20.566   6.164
 3211POPC   GL242254  27.471  20.494   6.164
 3211POPC   C1A42255  27.590  20.616   6.464
 3211POPC   D2A42256  27.630  20.617   6.764
 3211POPC   C3A42257  27.544  20.634   7.064
 3211POPC   C4A42258  27.637  20.566   7.364
 3211POPC   C1B42259  27.377  20.480   6.464
 3211POPC   C2B42260  27.418  20.425   6.764
 3211POPC   C3B42261  27.465  20.389   7.064
 3211POPC   C4B42262  27.423  20.454   7.364
 3212POPC   NC342263  15.908  37.727   5.564
 3212POPC   PO442264  15.930  37.721   5.864
 3212POPC   GL142265  15.998  37.715   6.164
 3212POPC   GL242266  15.855  37.665   6.164
 3212POPC   C1A42267  15.917  37.671   6.464
 3212POPC   D2A42268  15.953  37.703   6.764
 3212POPC   C3A42269  15.936  37.681   7.064
 3212POPC   C4A42270  15.983  37.720   7.364
 3212POPC   C1B42271  15.725  37.624   6.464
 3212POPC   C2B42272  15.724  37.628   6.764
 3212POPC   C3B42273  15.675  37.675   7.064
 3212POPC   C4B42274  15.757  37.624   7.364
 3213POPC   NC342275  27.576  22.209   5.564
 3213POPC   PO442276  27.546  22.152   5.864
 3213POPC   GL142277  27.619  22.122   6.164
 3213POPC   GL242278  27.649  22.269   6.164
 3213POPC   C1A42279  27.547  22.116   6.464
 3213POPC   D2A42280  27.610  22.182   6.764
 3213POPC   C3A42281  27.638  22.170   7.064
 3213POPC   C4A42282  27.625  22.127   7.364
 3213POPC   C1B42283  27.631  22.394   6.464
 3213POPC   C2B42284  27.658  22.372   6.764
 3213POPC   C3B42285  27.636  22.418   7.064
 3213POPC   C4B42286  27.636  22.381   7.364
 3214POPC   NC342287  34.595   1.243   5.564
 3214POPC   PO442288  34.596   1.248   5.864
 3214POPC   GL142289  34.572   1.168   6.164
 3214POPC   GL242290  34.692   1.181   6.164
 3214POPC   C1A42291  34.624   1.200   6.464
 3214POPC   D2A42292  34.607   1.248   6.764
 3214POPC   C3A42293  34.572   1.221   7.064
 3214POPC   C4A42294  34.539   1.175   7.364
 3214POPC   C1B42295  34.855   1.160   6.464
 3214POPC   C2B42296  34.808   1.136   6.764
 3214POPC   C3B42297  34.844   1.188   7.064
 3214POPC   C4B42298  34.780   1.106   7.364
 3215POPC   NC342299   3.570  22.162   5.564
 3215POPC   PO442300   3.519  22.113   5.864
 3215POPC   GL142301   3.570  22.135   6.164
 3215POPC   GL242302   3.614  22.084   6.164
 3215POPC   C1A42303   3.504  22.169   6.464
 3215POPC   D2A42304   3.537  22.119   6.764
 3215POPC   C3A42305   3.590  22.196   7.064
 3215POPC   C4A42306   3.499  22.162   7.364
 3215POPC   C1B42307   3.601  21.967   6.464
 3215POPC   C2B42308   3.614  21.955   6.764
 3215POPC   C3B42309   3.657  21.913   7.064
 3215POPC   C4B42310   3.624  21.921   7.364
 3216POPC   NC342311  22.944  25.268   5.564
 3216POPC   PO442312  22.984  25.259   5.864
 3216POPC   GL142313  22.984  25.248   6.164
 3216POPC   GL242314  22.823  25.238   6.164
 3216POPC   C1A42315  22.982  25.264   6.464
 3216POPC   D2A42316  22.944  25.254   6.764
 3216POPC   C3A42317  22.981  25.233   7.064
 3216POPC   C4A42318  22.889  25.253   7.364
 3216POPC   C1B42319  22.692  25.103   6.464
 3216POPC   C2B42320  22.736  25.169   6.764
 3216POPC   C3B42321  22.736  25.161   7.064
 3216POPC   C4B42322  22.716  25.169   7.364
 3217POPC   NC342323  21.345   6.609   5.564
 3217POPC   PO442324  21.351   6.690   5.864
 3217POPC   GL142325  21.345   6.626   6.164
 3217POPC   GL242326  21.397   6.792   6.164
 3217POPC   C1A42327  21.354   6.607   6.464
 3217POPC   D2A42328  21.383   6.603   6.764
 3217POPC   C3A42329  21.351   6.673   7.064
 3217POPC   C4A42330  21.365   6.614   7.364
 3217POPC   C1B42331  21.519   6.871   6.464
 3217POPC   C2B42332  21.475   6.900   6.764
 3217POPC   C3B42333  21.479   6.906   7.064
 3217POPC   C4B42334  21.514   6.921   7.364
 3218POPC   NC342335  10.503  18.317   5.564
 3218POPC   PO442336  10.495  18.277   5.864
 3218POPC   GL142337  10.477  18.303   6.164
 3218POPC   GL242338  10.383  18.203   6.164
 3218POPC   C1A42339  10.508  18.290   6.464
 3218POPC   D2A42340  10.474  18.256   6.764
 3218POPC   C3A42341  10.490  18.317   7.064
 3218POPC   C4A42342  10.510  18.281   7.364
 3218POPC   C1B42343  10.292  18.166   6.464
 3218POPC   C2B42344  10.284  18.093   6.764
 3218POPC   C3B42345  10.337  18.176   7.064
 3218POPC   C4B42346  10.344  18.091   7.364
 3219POPC   NC342347  19.076  12.813   5.564
 3219POPC   PO442348  19.086  12.835   5.864
 3219POPC   GL142349  19.028  12.814   6.164
 3219POPC   GL242350  19.063  12.930   6.164
 3219POPC   C1A42351  19.016  12.822   6.464
 3219POPC   D2A42352  19.029  12.820   6.764
 3219POPC   C3A42353  19.064  12.809   7.064
 3219POPC   C4A42354  19.014  12.878   7.364
 3219POPC   C1B42355  19.130  13.067   6.464
 3219POPC   C2B42356  19.065  13.075   6.764
 3219POPC   C3B42357  19.042  13.065   7.064
 3219POPC   C4B42358  19.062  13.073   7.364
 3220POPC   NC342359  36.882  30.735   5.564
 3220POPC   PO442360  36.884  30.684   5.864
 3220POPC   GL142361  36.938  30.718   6.164
 3220POPC   GL242362  36.779  30.653   6.164
 3220POPC   C1A42363  36.907  30.700   6.464
 3220POPC   D2A42364  36.855  30.656   6.764
 3220POPC   C3A42365  36.863  30.693   7.064
 3220POPC   C4A42366  36.948  30.727   7.364
 3220POPC   C1B42367  36.607  30.734   6.464
 3220POPC   C2B42368  36.615  30.654   6.764
 3220POPC   C3B42369  36.618  30.652   7.064
 3220POPC   C4B42370  36.686  30.713   7.364
 3221POPC   NC342371   8.206  39.198   5.564
 3221POPC   PO442372   8.210  39.261   5.864
 3221POPC   GL142373   8.238  39.277   6.164
 3221POPC   GL242374   8.359  39.190   6.164
 3221POPC   C1A42375   8.217  39.186   6.464
 3221POPC   D2A42376   8.207  39.276   6.764
 3221POPC   C3A42377   8.214  39.214   7.064
 3221POPC   C4A42378   8.183  39.182   7.364
 3221POPC   C1B42379   8.396  39.197   6.464
 3221POPC   C2B42380   8.400  39.187   6.764
 3221POPC   C3B42381   8.406  39.204   7.064
 3221POPC   C4B42382   8.438  39.166   7.364
 3222POPC   NC342383  18.302   1.220   5.564
 3222POPC   PO442384  18.315   1.211   5.864
 3222POPC   GL142385  18.267   1.181   6.164
 3222POPC   GL242386  18.229   1.292   6.164
 3222POPC   C1A42387  18.278   1.210   6.464
 3222POPC   D2A42388  18.274   1.201   6.764
 3222POPC   C3A42389  18.304   1.176   7.064
 3222POPC   C4A42390  18.311   1.252   7.364
 3222POPC   C1B42391  18.057   1.351   6.464
 3222POPC   C2B42392  18.056   1.374   6.764
 3222POPC   C3B42393  18.065   1.368   7.064
 3222POPC   C4B42394  18.111   1.367   7.364
 3223POPC   NC342395  39.236  27.585   5.564
 3223POPC   PO442396  39.264  27.579   5.864
 3223POPC   GL142397  39.251  27.639   6.164
 3223POPC   GL242398  39.266  27.504   6.164
 3223POPC   C1A42399  39.241  27.590   6.464
 3223POPC   D2A42400  39.263  27.615   6.764
 3223POPC   C3A42401  39.190  27.580   7.064
 3223POPC   C4A42402  39.259  27.598   7.364
 3223POPC   C1B42403  39.350  27.328   6.464
 3223POPC   C2B42404  39.331  27.361   6.764
 3223POPC   C3B42405  39.335  27.367   7.064
 3223POPC   C4B42406  39.365  27.346   7.364
 3224POPC   NC342407  13.587  24.533   5.564
 3224POPC   PO442408  13.643  24.473   5.864
 3224POPC   GL142409  13.629  24.479   6.164
 3224POPC   GL242410  13.773  24.385   6.164
 3224POPC   C1A42411  13.592  24.512   6.464
 3224POPC   D2A42412  13.638  24.485   6.764
 3224POPC   C3A42413  13.594  24.442   7.064
 3224POPC   C4A42414  13.588  24.496   7.364
 3224POPC   C1B42415  13.839  24.293   6.464
 3224POPC   C2B42416  13.785  24.305   6.764
 3224POPC   C3B42417  13.822  24.301   7.064
 3224POPC   C4B42418  13.854  24.317   7.364
 3225POPC   NC342419  35.351   4.267   5.564
 3225POPC   PO442420  35.344   4.290   5.864
 3225POPC   GL142421  35.307   4.308   6.164
 3225POPC   GL242422  35.247   4.384   6.164
 3225POPC   C1A42423  35.343   4.317   6.464
 3225POPC   D2A42424  35.371   4.364   6.764
 3225POPC   C3A42425  35.346   4.296   7.064
 3225POPC   C4A42426  35.389   4.315   7.364
 3225POPC   C1B42427  35.127   4.430   6.464
 3225POPC   C2B42428  35.167   4.464   6.764
 3225POPC   C3B42429  35.158   4.469   7.064
 3225POPC   C4B42430  35.113   4.481   7.364
 3226POPC   NC342431  28.398  32.232   5.564
 3226POPC   PO442432  28.397  32.240   5.864
 3226POPC   GL142433  28.376  32.216   6.164
 3226POPC   GL242434  28.270  32.185   6.164
 3226POPC   C1A42435  28.416  32.212   6.464
 3226POPC   D2A42436  28.324  32.239   6.764
 3226POPC   C3A42437  28.336  32.260   7.064
 3226POPC   C4A42438  28.360  32.273   7.364
 3226POPC   C1B42439  28.146  32.172   6.464
 3226POPC   C2B42440  28.141  32.250   6.764
 3226POPC   C3B42441  28.111  32.181   7.064
 3226POPC   C4B42442  28.129  32.261   7.364
 3227POPC   NC342443  12.874   9.715   5.564
 3227POPC   PO442444  12.802   9.700   5.864
 3227POPC   GL142445  12.840   9.732   6.164
 3227POPC   GL242446  12.796   9.607   6.164
 3227POPC   C1A42447  12.831   9.769   6.464
 3227POPC   D2A42448  12.884   9.710   6.764
 3227POPC   C3A42449  12.899   9.736   7.064
 3227POPC   C4A42450  12.882   9.797   7.364
 3227POPC   C1B42451  12.718   9.516   6.464
 3227POPC   C2B42452  12.770   9.497   6.764
 3227POPC   C3B42453  12.701   9.549   7.064
 3227POPC   C4B42454  12.762   9.476   7.364
 3228POPC   NC342455  43.876  22.139   5.564
 3228POPC   PO442456  43.890  22.204   5.864
 3228POPC   GL142457  43.889  22.129   6.164
 3228POPC   GL242458  43.855  22.044   6.164
 3228POPC   C1A42459  43.922  22.179   6.464
 3228POPC   D2A42460  43.935  22.152   6.764
 3228POPC   C3A42461  43.853  22.137   7.064
 3228POPC   C4A42462  43.922  22.195   7.364
 3228POPC   C1B42463  43.742  21.989   6.464
 3228POPC   C2B42464  43.769  21.962   6.764
 3228POPC   C3B42465  43.787  21.907   7.064
 3228POPC   C4B42466  43.787  21.913   7.364
 3229POPC   NC342467  22.133  44.627   5.564
 3229POPC   PO442468  22.193  44.678   5.864
 3229POPC   GL142469  22.160  44.665   6.164
 3229POPC   GL242470  22.313  44.612   6.164
 3229POPC   C1A42471  22.138  44.703   6.464
 3229POPC   D2A42472  22.115  44.615   6.764
 3229POPC   C3A42473  22.199  44.708   7.064
 3229POPC   C4A42474  22.165  44.620   7.364
 3229POPC   C1B42475  22.432  44.602   6.464
 3229POPC   C2B42476  22.384  44.643   6.764
 3229POPC   C3B42477  22.425  44.617   7.064
 3229POPC   C4B42478  22.403  44.690   7.364
 3230POPC   NC342479   1.263  41.597   5.564
 3230POPC   PO442480   1.204  41.559   5.864
 3230POPC   GL142481   1.172  41.604   6.164
 3230POPC   GL242482   1.134  41.666   6.164
 3230POPC   C1A42483   1.251  41.542   6.464
 3230POPC   D2A42484   1.251  41.519   6.764
 3230POPC   C3A42485   1.184  41.518   7.064
 3230POPC   C4A42486   1.168  41.533   7.364
 3230POPC   C1B42487   1.111  41.798   6.464
 3230POPC   C2B42488   1.097  41.806   6.764
 3230POPC   C3B42489   1.146  41.746   7.064
 3230POPC   C4B42490   1.084  41.814   7.364
 3231POPC   NC342491  17.477  12.844   5.564
 3231POPC   PO442492  17.493  12.804   5.864
 3231POPC   GL142493  17.470  12.854   6.164
 3231POPC   GL242494  17.388  12.900   6.164
 3231POPC   C1A42495  17.508  12.891   6.464
 3231POPC   D2A42496  17.464  12.837   6.764
 3231POPC   C3A42497  17.524  12.825   7.064
 3231POPC   C4A42498  17.503  12.849   7.364
 3231POPC   C1B42499  17.262  12.891   6.464
 3231POPC   C2B42500  17.237  12.926   6.764
 3231POPC   C3B42501  17.287  12.944   7.064
 3231POPC   C4B42502  17.322  12.949   7.364
 3232POPC   NC342503  36.952   9.755   5.564
 3232POPC   PO442504  36.884   9.768   5.864
 3232POPC   GL142505  36.936   9.785   6.164
 3232POPC   GL242506  37.017   9.692   6.164
 3232POPC   C1A42507  36.890   9.759   6.464
 3232POPC   D2A42508  36.947   9.760   6.764
 3232POPC   C3A42509  36.947   9.794   7.064
 3232POPC   C4A42510  36.909   9.710   7.364
 3232POPC   C1B42511  37.132   9.567   6.464
 3232POPC   C2B42512  37.081   9.605   6.764
 3232POPC   C3B42513  37.110   9.626   7.064
 3232POPC   C4B42514  37.070   9.645   7.364
 3233POPC   NC342515  13.609  10.567   5.564
 3233POPC   PO442516  13.614  10.492   5.864
 3233POPC   GL142517  13.653  10.513   6.164
 3233POPC   GL242518  13.706  10.648   6.164
 3233POPC   C1A42519  13.612  10.502   6.464
 3233POPC   D2A42520  13.637  10.548   6.764
 3233POPC   C3A42521  13.636  10.478   7.064
 3233POPC   C4A42522  13.639  10.536   7.364
 3233POPC   C1B42523  13.730  10.742   6.464
 3233POPC   C2B42524  13.775  10.708   6.764
 3233POPC   C3B42525  13.785  10.704   7.064
 3233POPC   C4B42526  13.699  10.714   7.364
 3234POPC   NC342527  22.139  23.723   5.564
 3234POPC   PO442528  22.208  23.753   5.864
 3234POPC   GL142529  22.155  23.764   6.164
 3234POPC   GL242530  22.170  23.885   6.164
 3234POPC   C1A42531  22.209  23.686   6.464
 3234POPC   D2A42532  22.146  23.753   6.764
 3234POPC   C3A42533  22.175  23.681   7.064
 3234POPC   C4A42534  22.139  23.693   7.364
 3234POPC   C1B42535  22.135  24.000   6.464
 3234POPC   C2B42536  22.145  23.970   6.764
 3234POPC   C3B42537  22.147  23.972   7.064
 3234POPC   C4B42538  22.130  23.931   7.364
 3235POPC   NC342539  26.811  28.393   5.564
 3235POPC   PO442540  26.774  28.334   5.864
 3235POPC   GL142541  26.838  28.368   6.164
 3235POPC   GL242542  26.929  28.431   6.164
 3235POPC   C1A42543  26.820  28.387   6.464
 3235POPC   D2A42544  26.860  28.388   6.764
 3235POPC   C3A42545  26.836  28.394   7.064
 3235POPC   C4A42546  26.856  28.381   7.364
 3235POPC   C1B42547  27.107  28.444   6.464
 3235POPC   C2B42548  27.061  28.444   6.764
 3235POPC   C3B42549  27.067  28.419   7.064
 3235POPC   C4B42550  27.066  28.386   7.364
 3236POPC   NC342551  31.437  22.961   5.564
 3236POPC   PO442552  31.436  22.936   5.864
 3236POPC   GL142553  31.463  22.974   6.164
 3236POPC   GL242554  31.497  22.876   6.164
 3236POPC   C1A42555  31.516  22.985   6.464
 3236POPC   D2A42556  31.427  22.963   6.764
 3236POPC   C3A42557  31.465  22.949   7.064
 3236POPC   C4A42558  31.441  22.946   7.364
 3236POPC   C1B42559  31.564  22.704   6.464
 3236POPC   C2B42560  31.576  22.673   6.764
 3236POPC   C3B42561  31.570  22.675   7.064
 3236POPC   C4B42562  31.620  22.756   7.364
 3237POPC   NC342563   6.652  31.484   5.564
 3237POPC   PO442564   6.657  31.491   5.864
 3237POPC   GL142565   6.687  31.465   6.164
 3237POPC   GL242566   6.779  31.447   6.164
 3237POPC   C1A42567   6.600  31.435   6.464
 3237POPC   D2A42568   6.615  31.503   6.764
 3237POPC   C3A42569   6.673  31.429   7.064
 3237POPC   C4A42570   6.689  31.471   7.364
 3237POPC   C1B42571   6.829  31.361   6.464
 3237POPC   C2B42572   6.861  31.352   6.764
 3237POPC   C3B42573   6.913  31.379   7.064
 3237POPC   C4B42574   6.830  31.378   7.364
 3238POPC   NC342575  13.621  12.078   5.564
 3238POPC   PO442576  13.645  12.074   5.864
 3238POPC   GL142577  13.601  12.121   6.164
 3238POPC   GL242578  13.467  12.077   6.164
 3238POPC   C1A42579  13.619  12.051   6.464
 3238POPC   D2A42580  13.601  12.105   6.764
 3238POPC   C3A42581  13.675  12.034   7.064
 3238POPC   C4A42582  13.667  12.123   7.364
 3238POPC   C1B42583  13.383  12.148   6.464
 3238POPC   C2B42584  13.375  12.092   6.764
 3238POPC   C3B42585  13.428  12.114   7.064
 3238POPC   C4B42586  13.357  12.143   7.364
 3239POPC   NC342587   5.863   8.174   5.564
 3239POPC   PO442588   5.909   8.235   5.864
 3239POPC   GL142589   5.848   8.167   6.164
 3239POPC   GL242590   5.813   8.277   6.164
 3239POPC   C1A42591   5.840   8.211   6.464
 3239POPC   D2A42592   5.899   8.191   6.764
 3239POPC   C3A42593   5.832   8.234   7.064
 3239POPC   C4A42594   5.832   8.153   7.364
 3239POPC   C1B42595   5.699   8.404   6.464
 3239POPC   C2B42596   5.700   8.347   6.764
 3239POPC   C3B42597   5.719   8.394   7.064
 3239POPC   C4B42598   5.701   8.378   7.364
 3240POPC   NC342599  35.388   3.497   5.564
 3240POPC   PO442600  35.321   3.521   5.864
 3240POPC   GL142601  35.376   3.497   6.164
 3240POPC   GL242602  35.421   3.523   6.164
 3240POPC   C1A42603  35.377   3.548   6.464
 3240POPC   D2A42604  35.400   3.497   6.764
 3240POPC   C3A42605  35.334   3.513   7.064
 3240POPC   C4A42606  35.392   3.534   7.364
 3240POPC   C1B42607  35.548   3.482   6.464
 3240POPC   C2B42608  35.566   3.433   6.764
 3240POPC   C3B42609  35.581   3.477   7.064
 3240POPC   C4B42610  35.616   3.451   7.364
 3241POPC   NC342611  26.774  12.809   5.564
 3241POPC   PO442612  26.794  12.863   5.864
 3241POPC   GL142613  26.841  12.824   6.164
 3241POPC   GL242614  26.693  12.968   6.164
 3241POPC   C1A42615  26.828  12.871   6.464
 3241POPC   D2A42616  26.792  12.848   6.764
 3241POPC   C3A42617  26.781  12.848   7.064
 3241POPC   C4A42618  26.800  12.832   7.364
 3241POPC   C1B42619  26.579  13.047   6.464
 3241POPC   C2B42620  26.589  13.016   6.764
 3241POPC   C3B42621  26.660  13.020   7.064
 3241POPC   C4B42622  26.637  13.033   7.364
 3242POPC   NC342623  43.931   8.995   5.564
 3242POPC   PO442624  43.925   9.022   5.864
 3242POPC   GL142625  43.895   8.937   6.164
 3242POPC   GL242626  43.962   9.000   6.164
 3242POPC   C1A42627  43.889   9.001   6.464
 3242POPC   D2A42628  43.870   8.977   6.764
 3242POPC   C3A42629  43.895   8.933   7.064
 3242POPC   C4A42630  43.894   8.979   7.364
 3242POPC   C1B42631  44.069   9.046   6.464
 3242POPC   C2B42632  44.103   9.119   6.764
 3242POPC   C3B42633  44.137   9.118   7.064
 3242POPC   C4B42634  44.107   9.058   7.364
 3243POPC   NC342635   9.794  40.786   5.564
 3243POPC   PO442636   9.748  40.813   5.864
 3243POPC   GL142637   9.708  40.758   6.164
 3243POPC   GL242638   9.834  40.669   6.164
 3243POPC   C1A42639   9.765  40.814   6.464
 3243POPC   D2A42640   9.740  40.736   6.764
 3243POPC   C3A42641   9.738  40.832   7.064
 3243POPC   C4A42642   9.758  40.743   7.364
 3243POPC   C1B42643   9.858  40.592   6.464
 3243POPC   C2B42644   9.852  40.541   6.764
 3243POPC   C3B42645   9.814  40.550   7.064
 3243POPC   C4B42646   9.815  40.506   7.364
 3244POPC   NC342647   5.889  28.329   5.564
 3244POPC   PO442648   5.907  28.404   5.864
 3244POPC   GL142649   5.828  28.388   6.164
 3244POPC   GL242650   6.010  28.391   6.164
 3244POPC   C1A42651   5.848  28.371   6.464
 3244POPC   D2A42652   5.854  28.396   6.764
 3244POPC   C3A42653   5.845  28.415   7.064
 3244POPC   C4A42654   5.840  28.376   7.364
 3244POPC   C1B42655   6.143  28.332   6.464
 3244POPC   C2B42656   6.112  28.355   6.764
 3244POPC   C3B42657   6.094  28.335   7.064
 3244POPC   C4B42658   6.154  28.366   7.364
 3245POPC   NC342659   8.185  25.997   5.564
 3245POPC   PO442660   8.170  26.048   5.864
 3245POPC   GL142661   8.207  26.051   6.164
 3245POPC   GL242662   8.296  25.985   6.164
 3245POPC   C1A42663   8.161  26.005   6.464
 3245POPC   D2A42664   8.231  26.001   6.764
 3245POPC   C3A42665   8.168  26.013   7.064
 3245POPC   C4A42666   8.161  26.049   7.364
 3245POPC   C1B42667   8.389  25.959   6.464
 3245POPC   C2B42668   8.394  25.864   6.764
 3245POPC   C3B42669   8.418  25.945   7.064
 3245POPC   C4B42670   8.404  25.947   7.364
 3246POPC   NC342671  25.216  41.608   5.564
 3246POPC   PO442672  25.245  41.598   5.864
 3246POPC   GL142673  25.294  41.599   6.164
 3246POPC   GL242674  25.360  41.451   6.164
 3246POPC   C1A42675  25.235  41.549   6.464
 3246POPC   D2A42676  25.260  41.607   6.764
 3246POPC   C3A42677  25.236  41.582   7.064
 3246POPC   C4A42678  25.286  41.527   7.364
 3246POPC   C1B42679  25.427  41.400   6.464
 3246POPC   C2B42680  25.451  41.412   6.764
 3246POPC   C3B42681  25.487  41.455   7.064
 3246POPC   C4B42682  25.456  41.421   7.364
 3247POPC   NC342683   1.207   0.466   5.564
 3247POPC   PO442684   1.247   0.478   5.864
 3247POPC   GL142685   1.166   0.468   6.164
 3247POPC   GL242686   1.335   0.438   6.164
 3247POPC   C1A42687   1.214   0.399   6.464
 3247POPC   D2A42688   1.247   0.470   6.764
 3247POPC   C3A42689   1.244   0.487   7.064
 3247POPC   C4A42690   1.174   0.480   7.364
 3247POPC   C1B42691   1.462   0.498   6.464
 3247POPC   C2B42692   1.458   0.509   6.764
 3247POPC   C3B42693   1.468   0.518   7.064
 3247POPC   C4B42694   1.498   0.538   7.364
 3248POPC   NC342695  36.156   3.519   5.564
 3248POPC   PO442696  36.110   3.582   5.864
 3248POPC   GL142697  36.149   3.562   6.164
 3248POPC   GL242698  36.201   3.419   6.164
 3248POPC   C1A42699  36.136   3.563   6.464
 3248POPC   D2A42700  36.078   3.515   6.764
 3248POPC   C3A42701  36.114   3.508   7.064
 3248POPC   C4A42702  36.100   3.577   7.364
 3248POPC   C1B42703  36.171   3.332   6.464
 3248POPC   C2B42704  36.160   3.254   6.764
 3248POPC   C3B42705  36.200   3.294   7.064
 3248POPC   C4B42706  36.150   3.317   7.364
 3249POPC   NC342707   8.165  34.607   5.564
 3249POPC   PO442708   8.179  34.611   5.864
 3249POPC   GL142709   8.208  34.599   6.164
 3249POPC   GL242710   8.304  34.494   6.164
 3249POPC   C1A42711   8.148  34.556   6.464
 3249POPC   D2A42712   8.178  34.559   6.764
 3249POPC   C3A42713   8.165  34.582   7.064
 3249POPC   C4A42714   8.184  34.613   7.364
 3249POPC   C1B42715   8.429  34.535   6.464
 3249POPC   C2B42716   8.396  34.517   6.764
 3249POPC   C3B42717   8.413  34.510   7.064
 3249POPC   C4B42718   8.448  34.540   7.364
 3250POPC   NC342719  41.579  19.834   5.564
 3250POPC   PO442720  41.526  19.830   5.864
 3250POPC   GL142721  41.538  19.867   6.164
 3250POPC   GL242722  41.648  19.760   6.164
 3250POPC   C1A42723  41.586  19.849   6.464
 3250POPC   D2A42724  41.517  19.793   6.764
 3250POPC   C3A42725  41.522  19.792   7.064
 3250POPC   C4A42726  41.584  19.841   7.364
 3250POPC   C1B42727  41.763  19.655   6.464
 3250POPC   C2B42728  41.766  19.713   6.764
 3250POPC   C3B42729  41.800  19.734   7.064
 3250POPC   C4B42730  41.819  19.731   7.364
 3251POPC   NC342731  18.259  43.157   5.564
 3251POPC   PO442732  18.275  43.086   5.864
 3251POPC   GL142733  18.260  43.085   6.164
 3251POPC   GL242734  18.151  43.204   6.164
 3251POPC   C1A42735  18.266  43.140   6.464
 3251POPC   D2A42736  18.305  43.086   6.764
 3251POPC   C3A42737  18.248  43.140   7.064
 3251POPC   C4A42738  18.265  43.109   7.364
 3251POPC   C1B42739  18.135  43.299   6.464
 3251POPC   C2B42740  18.116  43.300   6.764
 3251POPC   C3B42741  18.134  43.290   7.064
 3251POPC   C4B42742  18.055  43.241   7.364
 3252POPC   NC342743  11.281   5.869   5.564
 3252POPC   PO442744  11.270   5.845   5.864
 3252POPC   GL142745  11.309   5.914   6.164
 3252POPC   GL242746  11.368   5.799   6.164
 3252POPC   C1A42747  11.273   5.865   6.464
 3252POPC   D2A42748  11.254   5.830   6.764
 3252POPC   C3A42749  11.283   5.868   7.064
 3252POPC   C4A42750  11.254   5.885   7.364
 3252POPC   C1B42751  11.404   5.628   6.464
 3252POPC   C2B42752  11.393   5.611   6.764
 3252POPC   C3B42753  11.330   5.582   7.064
 3252POPC   C4B42754  11.355   5.625   7.364
 3253POPC   NC342755  16.745  38.470   5.564
 3253POPC   PO442756  16.718  38.457   5.864
 3253POPC   GL142757  16.683  38.421   6.164
 3253POPC   GL242758  16.888  38.499   6.164
 3253POPC   C1A42759  16.732  38.499   6.464
 3253POPC   D2A42760  16.710  38.491   6.764
 3253POPC   C3A42761  16.733  38.440   7.064
 3253POPC   C4A42762  16.713  38.439   7.364
 3253POPC   C1B42763  16.932  38.600   6.464
 3253POPC   C2B42764  16.966  38.564   6.764
 3253POPC   C3B42765  16.933  38.608   7.064
 3253POPC   C4B42766  16.905  38.581   7.364
 3254POPC   NC342767  26.840   5.097   5.564
 3254POPC   PO442768  26.799   5.122   5.864
 3254POPC   GL142769  26.770   5.110   6.164
 3254POPC   GL242770  26.790   5.246   6.164
 3254POPC   C1A42771  26.830   5.133   6.464
 3254POPC   D2A42772  26.861   5.061   6.764
 3254POPC   C3A42773  26.849   5.057   7.064
 3254POPC   C4A42774  26.796   5.140   7.364
 3254POPC   C1B42775  26.785   5.376   6.464
 3254POPC   C2B42776  26.833   5.343   6.764
 3254POPC   C3B42777  26.769   5.314   7.064
 3254POPC   C4B42778  26.767   5.370   7.364
 3255POPC   NC342779  34.625  40.016   5.564
 3255POPC   PO442780  34.595  40.047   5.864
 3255POPC   GL142781  34.539  40.042   6.164
 3255POPC   GL242782  34.569  39.929   6.164
 3255POPC   C1A42783  34.528  39.980   6.464
 3255POPC   D2A42784  34.533  39.988   6.764
 3255POPC   C3A42785  34.611  40.004   7.064
 3255POPC   C4A42786  34.600  40.011   7.364
 3255POPC   C1B42787  34.621  39.786   6.464
 3255POPC   C2B42788  34.635  39.803   6.764
 3255POPC   C3B42789  34.618  39.801   7.064
 3255POPC   C4B42790  34.564  39.767   7.364
 3256POPC   NC342791   9.008  27.557   5.564
 3256POPC   PO442792   8.965  27.608   5.864
 3256POPC   GL142793   8.941  27.618   6.164
 3256POPC   GL242794   8.985  27.518   6.164
 3256POPC   C1A42795   8.971  27.581   6.464
 3256POPC   D2A42796   9.010  27.622   6.764
 3256POPC   C3A42797   8.974  27.612   7.064
 3256POPC   C4A42798   8.953  27.627   7.364
 3256POPC   C1B42799   9.012  27.301   6.464
 3256POPC   C2B42800   8.982  27.380   6.764
 3256POPC   C3B42801   9.038  27.361   7.064
 3256POPC   C4B42802   8.985  27.318   7.364
 3257POPC   NC342803   4.282  30.692   5.564
 3257POPC   PO442804   4.300  30.657   5.864
 3257POPC   GL142805   4.361  30.743   6.164
 3257POPC   GL242806   4.453  30.741   6.164
 3257POPC   C1A42807   4.276  30.700   6.464
 3257POPC   D2A42808   4.292  30.709   6.764
 3257POPC   C3A42809   4.282  30.741   7.064
 3257POPC   C4A42810   4.343  30.745   7.364
 3257POPC   C1B42811   4.460  30.891   6.464
 3257POPC   C2B42812   4.470  30.908   6.764
 3257POPC   C3B42813   4.498  30.839   7.064
 3257POPC   C4B42814   4.462  30.841   7.364
 3258POPC   NC342815  39.265   5.052   5.564
 3258POPC   PO442816  39.277   5.054   5.864
 3258POPC   GL142817  39.236   5.048   6.164
 3258POPC   GL242818  39.402   5.144   6.164
 3258POPC   C1A42819  39.259   5.103   6.464
 3258POPC   D2A42820  39.214   5.099   6.764
 3258POPC   C3A42821  39.253   5.103   7.064
 3258POPC   C4A42822  39.232   5.126   7.364
 3258POPC   C1B42823  39.460   5.079   6.464
 3258POPC   C2B42824  39.514   5.151   6.764
 3258POPC   C3B42825  39.522   5.120   7.064
 3258POPC   C4B42826  39.507   5.138   7.364
 3259POPC   NC342827   9.723  42.317   5.564
 3259POPC   PO442828   9.744  42.378   5.864
 3259POPC   GL142829   9.722  42.374   6.164
 3259POPC   GL242830   9.774  42.451   6.164
 3259POPC   C1A42831   9.787  42.307   6.464
 3259POPC   D2A42832   9.763  42.370   6.764
 3259POPC   C3A42833   9.784  42.336   7.064
 3259POPC   C4A42834   9.792  42.319   7.364
 3259POPC   C1B42835   9.714  42.584   6.464
 3259POPC   C2B42836   9.661  42.586   6.764
 3259POPC   C3B42837   9.705  42.630   7.064
 3259POPC   C4B42838   9.702  42.553   7.364
 3260POPC   NC342839  33.071  10.487   5.564
 3260POPC   PO442840  32.996  10.573   5.864
 3260POPC   GL142841  33.048  10.555   6.164
 3260POPC   GL242842  32.890  10.594   6.164
 3260POPC   C1A42843  33.044  10.574   6.464
 3260POPC   D2A42844  33.003  10.502   6.764
 3260POPC   C3A42845  32.983  10.541   7.064
 3260POPC   C4A42846  33.059  10.487   7.364
 3260POPC   C1B42847  32.740  10.536   6.464
 3260POPC   C2B42848  32.737  10.603   6.764
 3260POPC   C3B42849  32.766  10.533   7.064
 3260POPC   C4B42850  32.825  10.578   7.364
 3261POPC   NC342851   5.112  36.177   5.564
 3261POPC   PO442852   5.072  36.079   5.864
 3261POPC   GL142853   5.082  36.171   6.164
 3261POPC   GL242854   5.015  36.150   6.164
 3261POPC   C1A42855   5.044  36.176   6.464
 3261POPC   D2A42856   5.136  36.170   6.764
 3261POPC   C3A42857   5.089  36.176   7.064
 3261POPC   C4A42858   5.126  36.177   7.364
 3261POPC   C1B42859   4.910  36.234   6.464
 3261POPC   C2B42860   4.909  36.225   6.764
 3261POPC   C3B42861   4.842  36.296   7.064
 3261POPC   C4B42862   4.825  36.264   7.364
 3262POPC   NC342863  21.356  15.174   5.564
 3262POPC   PO442864  21.433  15.150   5.864
 3262POPC   GL142865  21.431  15.214   6.164
 3262POPC   GL242866  21.296  15.203   6.164
 3262POPC   C1A42867  21.349  15.152   6.464
 3262POPC   D2A42868  21.402  15.200   6.764
 3262POPC   C3A42869  21.337  15.202   7.064
 3262POPC   C4A42870  21.343  15.218   7.364
 3262POPC   C1B42871  21.124  15.269   6.464
 3262POPC   C2B42872  21.162  15.240   6.764
 3262POPC   C3B42873  21.179  15.261   7.064
 3262POPC   C4B42874  21.187  15.190   7.364
 3263POPC   NC342875   4.326  32.240   5.564
 3263POPC   PO442876   4.334  32.230   5.864
 3263POPC   GL142877   4.349  32.212   6.164
 3263POPC   GL242878   4.215  32.217   6.164
 3263POPC   C1A42879   4.356  32.289   6.464
 3263POPC   D2A42880   4.308  32.284   6.764
 3263POPC   C3A42881   4.280  32.235   7.064
 3263POPC   C4A42882   4.296  32.214   7.364
 3263POPC   C1B42883   4.058  32.170   6.464
 3263POPC   C2B42884   4.135  32.071   6.764
 3263POPC   C3B42885   4.152  32.077   7.064
 3263POPC   C4B42886   4.059  32.116   7.364
 3264POPC   NC342887   2.030  14.372   5.564
 3264POPC   PO442888   1.997  14.377   5.864
 3264POPC   GL142889   2.030  14.406   6.164
 3264POPC   GL242890   2.130  14.454   6.164
 3264POPC   C1A42891   1.988  14.367   6.464
 3264POPC   D2A42892   1.990  14.422   6.764
 3264POPC   C3A42893   2.016  14.365   7.064
 3264POPC   C4A42894   1.952  14.430   7.364
 3264POPC   C1B42895   2.188  14.528   6.464
 3264POPC   C2B42896   2.216  14.513   6.764
 3264POPC   C3B42897   2.180  14.479   7.064
 3264POPC   C4B42898   2.182  14.527   7.364
 3265POPC   NC342899  16.729  20.575   5.564
 3265POPC   PO442900  16.697  20.582   5.864
 3265POPC   GL142901  16.716  20.609   6.164
 3265POPC   GL242902  16.699  20.447   6.164
 3265POPC   C1A42903  16.730  20.645   6.464
 3265POPC   D2A42904  16.716  20.658   6.764
 3265POPC   C3A42905  16.723  20.610   7.064
 3265POPC   C4A42906  16.714  20.601   7.364
 3265POPC   C1B42907  16.677  20.352   6.464
 3265POPC   C2B42908  16.713  20.346   6.764
 3265POPC   C3B42909  16.667  20.326   7.064
 3265POPC   C4B42910  16.715  20.349   7.364
 3266POPC   NC342911  29.171  15.962   5.564
 3266POPC   PO442912  29.118  15.935   5.864
 3266POPC   GL142913  29.121  15.991   6.164
 3266POPC   GL242914  29.077  16.043   6.164
 3266POPC   C1A42915  29.154  15.998   6.464
 3266POPC   D2A42916  29.143  15.925   6.764
 3266POPC   C3A42917  29.175  15.912   7.064
 3266POPC   C4A42918  29.171  15.984   7.364
 3266POPC   C1B42919  29.059  16.148   6.464
 3266POPC   C2B42920  29.064  16.196   6.764
 3266POPC   C3B42921  29.064  16.175   7.064
 3266POPC   C4B42922  29.085  16.210   7.364
 3267POPC   NC342923   7.374  43.127   5.564
 3267POPC   PO442924   7.423  43.145   5.864
 3267POPC   GL142925   7.398  43.135   6.164
 3267POPC   GL242926   7.489  43.060   6.164
 3267POPC   C1A42927   7.382  43.061   6.464
 3267POPC   D2A42928   7.434  43.133   6.764
 3267POPC   C3A42929   7.405  43.145   7.064
 3267POPC   C4A42930   7.442  43.139   7.364
 3267POPC   C1B42931   7.632  42.971   6.464
 3267POPC   C2B42932   7.602  43.037   6.764
 3267POPC   C3B42933   7.608  43.043   7.064
 3267POPC   C4B42934   7.657  43.041   7.364
 3268POPC   NC342935  13.654   5.884   5.564
 3268POPC   PO442936  13.592   5.904   5.864
 3268POPC   GL142937  13.667   5.870   6.164
 3268POPC   GL242938  13.559   5.930   6.164
 3268POPC   C1A42939  13.669   5.862   6.464
 3268POPC   D2A42940  13.673   5.828   6.764
 3268POPC   C3A42941  13.663   5.850   7.064
 3268POPC   C4A42942  13.614   5.839   7.364
 3268POPC   C1B42943  13.415   6.018   6.464
 3268POPC   C2B42944  13.494   6.069   6.764
 3268POPC   C3B42945  13.470   6.015   7.064
 3268POPC   C4B42946  13.482   6.054   7.364
 3269POPC   NC342947   9.714  40.029   5.564
 3269POPC   PO442948   9.747  40.038   5.864
 3269POPC   GL142949   9.734  40.009   6.164
 3269POPC   GL242950   9.870  39.896   6.164
 3269POPC   C1A42951   9.734  39.975   6.464
 3269POPC   D2A42952   9.796  39.966   6.764
 3269POPC   C3A42953   9.777  39.963   7.064
 3269POPC   C4A42954   9.758  39.960   7.364
 3269POPC   C1B42955   9.917  39.810   6.464
 3269POPC   C2B42956   9.934  39.844   6.764
 3269POPC   C3B42957   9.944  39.789   7.064
 3269POPC   C4B42958   9.889  39.880   7.364
 3270POPC   NC342959  19.106  32.219   5.564
 3270POPC   PO442960  19.064  32.260   5.864
 3270POPC   GL142961  19.043  32.234   6.164
 3270POPC   GL242962  19.232  32.217   6.164
 3270POPC   C1A42963  19.014  32.296   6.464
 3270POPC   D2A42964  19.033  32.270   6.764
 3270POPC   C3A42965  19.010  32.258   7.064
 3270POPC   C4A42966  19.107  32.222   7.364
 3270POPC   C1B42967  19.339  32.190   6.464
 3270POPC   C2B42968  19.344  32.192   6.764
 3270POPC   C3B42969  19.310  32.209   7.064
 3270POPC   C4B42970  19.313  32.236   7.364
 3271POPC   NC342971  23.762  13.645   5.564
 3271POPC   PO442972  23.709  13.580   5.864
 3271POPC   GL142973  23.735  13.608   6.164
 3271POPC   GL242974  23.751  13.524   6.164
 3271POPC   C1A42975  23.717  13.610   6.464
 3271POPC   D2A42976  23.759  13.589   6.764
 3271POPC   C3A42977  23.699  13.613   7.064
 3271POPC   C4A42978  23.744  13.677   7.364
 3271POPC   C1B42979  23.823  13.366   6.464
 3271POPC   C2B42980  23.777  13.427   6.764
 3271POPC   C3B42981  23.856  13.432   7.064
 3271POPC   C4B42982  23.865  13.421   7.364
 3272POPC   NC342983  38.504  31.487   5.564
 3272POPC   PO442984  38.422  31.494   5.864
 3272POPC   GL142985  38.496  31.519   6.164
 3272POPC   GL242986  38.360  31.487   6.164
 3272POPC   C1A42987  38.431  31.518   6.464
 3272POPC   D2A42988  38.444  31.471   6.764
 3272POPC   C3A42989  38.483  31.427   7.064
 3272POPC   C4A42990  38.478  31.474   7.364
 3272POPC   C1B42991  38.240  31.443   6.464
 3272POPC   C2B42992  38.212  31.442   6.764
 3272POPC   C3B42993  38.192  31.406   7.064
 3272POPC   C4B42994  38.224  31.431   7.364
 3273POPC   NC342995   4.288  33.765   5.564
 3273POPC   PO442996   4.296  33.833   5.864
 3273POPC   GL142997   4.343  33.828   6.164
 3273POPC   GL242998   4.378  33.859   6.164
 3273POPC   C1A42999   4.306  33.786   6.464
 3273POPC   D2A43000   4.317  33.807   6.764
 3273POPC   C3A43001   4.360  33.792   7.064
 3273POPC   C4A43002   4.366  33.762   7.364
 3273POPC   C1B43003   4.498  33.959   6.464
 3273POPC   C2B43004   4.497  33.954   6.764
 3273POPC   C3B43005   4.514  33.959   7.064
 3273POPC   C4B43006   4.466  34.028   7.364
 3274POPC   NC343007  16.750  39.226   5.564
 3274POPC   PO443008  16.713  39.237   5.864
 3274POPC   GL143009  16.760  39.265   6.164
 3274POPC   GL243010  16.624  39.215   6.164
 3274POPC   C1A43011  16.711  39.183   6.464
 3274POPC   D2A43012  16.756  39.240   6.764
 3274POPC   C3A43013  16.709  39.248   7.064
 3274POPC   C4A43014  16.755  39.234   7.364
 3274POPC   C1B43015  16.528  39.185   6.464
 3274POPC   C2B43016  16.459  39.195   6.764
 3274POPC   C3B43017  16.500  39.189   7.064
 3274POPC   C4B43018  16.479  39.188   7.364
 3275POPC   NC343019   3.531  29.968   5.564
 3275POPC   PO443020   3.576  29.911   5.864
 3275POPC   GL143021   3.493  29.946   6.164
 3275POPC   GL243022   3.681  30.007   6.164
 3275POPC   C1A43023   3.574  29.917   6.464
 3275POPC   D2A43024   3.560  29.917   6.764
 3275POPC   C3A43025   3.511  29.893   7.064
 3275POPC   C4A43026   3.571  29.969   7.364
 3275POPC   C1B43027   3.705  30.016   6.464
 3275POPC   C2B43028   3.737  30.103   6.764
 3275POPC   C3B43029   3.739  30.014   7.064
 3275POPC   C4B43030   3.788  30.036   7.364
 3276POPC   NC343031  33.847   2.029   5.564
 3276POPC   PO443032  33.754   2.033   5.864
 3276POPC   GL143033  33.793   2.033   6.164
 3276POPC   GL243034  33.729   2.007   6.164
 3276POPC   C1A43035  33.795   1.962   6.464
 3276POPC   D2A43036  33.816   1.990   6.764
 3276POPC   C3A43037  33.781   1.973   7.064
 3276POPC   C4A43038  33.824   1.997   7.364
 3276POPC   C1B43039  33.575   2.018   6.464
 3276POPC   C2B43040  33.542   2.110   6.764
 3276POPC   C3B43041  33.548   2.055   7.064
 3276POPC   C4B43042  33.581   2.068   7.364
 3277POPC   NC343043  10.481  11.267   5.564
 3277POPC   PO443044  10.496  11.317   5.864
 3277POPC   GL143045  10.544  11.256   6.164
 3277POPC   GL243046  10.496  11.178   6.164
 3277POPC   C1A43047  10.499  11.250   6.464
 3277POPC   D2A43048  10.550  11.252   6.764
 3277POPC   C3A43049  10.537  11.322   7.064
 3277POPC   C4A43050  10.557  11.320   7.364
 3277POPC   C1B43051  10.390  11.134   6.464
 3277POPC   C2B43052  10.402  11.057   6.764
 3277POPC   C3B43053  10.332  11.115   7.064
 3277POPC   C4B43054  10.335  11.056   7.364
 3278POPC   NC343055  29.111  30.662   5.564
 3278POPC   PO443056  29.117  30.684   5.864
 3278POPC   GL143057  29.159  30.713   6.164
 3278POPC   GL243058  29.216  30.842   6.164
 3278POPC   C1A43059  29.166  30.728   6.464
 3278POPC   D2A43060  29.139  30.673   6.764
 3278POPC   C3A43061  29.147  30.675   7.064
 3278POPC   C4A43062  29.107  30.705   7.364
 3278POPC   C1B43063  29.240  30.879   6.464
 3278POPC   C2B43064  29.291  30.917   6.764
 3278POPC   C3B43065  29.207  30.962   7.064
 3278POPC   C4B43066  29.291  30.973   7.364
 3279POPC   NC343067  34.620  40.817   5.564
 3279POPC   PO443068  34.575  40.821   5.864
 3279POPC   GL143069  34.553  40.786   6.164
 3279POPC   GL243070  34.669  40.735   6.164
 3279POPC   C1A43071  34.616  40.755   6.464
 3279POPC   D2A43072  34.539  40.810   6.764
 3279POPC   C3A43073  34.618  40.747   7.064
 3279POPC   C4A43074  34.597  40.793   7.364
 3279POPC   C1B43075  34.796  40.613   6.464
 3279POPC   C2B43076  34.712  40.592   6.764
 3279POPC   C3B43077  34.744  40.610   7.064
 3279POPC   C4B43078  34.733  40.642   7.364
 3280POPC   NC343079  29.949  16.734   5.564
 3280POPC   PO443080  29.871  16.742   5.864
 3280POPC   GL143081  29.956  16.751   6.164
 3280POPC   GL243082  29.772  16.748   6.164
 3280POPC   C1A43083  29.950  16.733   6.464
 3280POPC   D2A43084  29.939  16.742   6.764
 3280POPC   C3A43085  29.894  16.725   7.064
 3280POPC   C4A43086  29.891  16.761   7.364
 3280POPC   C1B43087  29.715  16.714   6.464
 3280POPC   C2B43088  29.697  16.691   6.764
 3280POPC   C3B43089  29.650  16.691   7.064
 3280POPC   C4B43090  29.642  16.689   7.364
 3281POPC   NC343091  36.123  24.441   5.564
 3281POPC   PO443092  36.125  24.514   5.864
 3281POPC   GL143093  36.133  24.449   6.164
 3281POPC   GL243094  36.246  24.504   6.164
 3281POPC   C1A43095  36.172  24.440   6.464
 3281POPC   D2A43096  36.165  24.530   6.764
 3281POPC   C3A43097  36.107  24.503   7.064
 3281POPC   C4A43098  36.122  24.534   7.364
 3281POPC   C1B43099  36.333  24.585   6.464
 3281POPC   C2B43100  36.324  24.515   6.764
 3281POPC   C3B43101  36.323  24.577   7.064
 3281POPC   C4B43102  36.394  24.574   7.364
 3282POPC   NC343103  23.667  25.235   5.564
 3282POPC   PO443104  23.735  25.272   5.864
 3282POPC   GL143105  23.763  25.305   6.164
 3282POPC   GL243106  23.563  25.308   6.164
 3282POPC   C1A43107  23.664  25.245   6.464
 3282POPC   D2A43108  23.746  25.255   6.764
 3282POPC   C3A43109  23.687  25.247   7.064
 3282POPC   C4A43110  23.698  25.298   7.364
 3282POPC   C1B43111  23.461  25.397   6.464
 3282POPC   C2B43112  23.494  25.391   6.764
 3282POPC   C3B43113  23.453  25.345   7.064
 3282POPC   C4B43114  23.472  25.404   7.364
 3283POPC   NC343115  43.107   6.636   5.564
 3283POPC   PO443116  43.135   6.657   5.864
 3283POPC   GL143117  43.070   6.679   6.164
 3283POPC   GL243118  43.151   6.808   6.164
 3283POPC   C1A43119  43.154   6.619   6.464
 3283POPC   D2A43120  43.088   6.605   6.764
 3283POPC   C3A43121  43.139   6.632   7.064
 3283POPC   C4A43122  43.091   6.687   7.364
 3283POPC   C1B43123  43.078   6.917   6.464
 3283POPC   C2B43124  43.166   6.916   6.764
 3283POPC   C3B43125  43.157   6.912   7.064
 3283POPC   C4B43126  43.175   6.904   7.364
 3284POPC   NC343127  35.358  32.230   5.564
 3284POPC   PO443128  35.387  32.294   5.864
 3284POPC   GL143129  35.325  32.267   6.164
 3284POPC   GL243130  35.491  32.294   6.164
 3284POPC   C1A43131  35.325  32.202   6.464
 3284POPC   D2A43132  35.381  32.258   6.764
 3284POPC   C3A43133  35.399  32.220   7.064
 3284POPC   C4A43134  35.326  32.230   7.364
 3284POPC   C1B43135  35.638  32.223   6.464
 3284POPC   C2B43136  35.564  32.206   6.764
 3284POPC   C3B43137  35.571  32.275   7.064
 3284POPC   C4B43138  35.585  32.254   7.364
 3285POPC   NC343139   9.014   2.785   5.564
 3285POPC   PO443140   8.951   2.716   5.864
 3285POPC   GL143141   8.990   2.716   6.164
 3285POPC   GL243142   9.101   2.730   6.164
 3285POPC   C1A43143   8.978   2.800   6.464
 3285POPC   D2A43144   8.974   2.763   6.764
 3285POPC   C3A43145   9.000   2.765   7.064
 3285POPC   C4A43146   8.949   2.772   7.364
 3285POPC   C1B43147   9.186   2.618   6.464
 3285POPC   C2B43148   9.189   2.648   6.764
 3285POPC   C3B43149   9.146   2.586   7.064
 3285POPC   C4B43150   9.161   2.640   7.364
 3286POPC   NC343151  42.321  39.238   5.564
 3286POPC   PO443152  42.297  39.223   5.864
 3286POPC   GL143153  42.332  39.188   6.164
 3286POPC   GL243154  42.277  39.177   6.164
 3286POPC   C1A43155  42.290  39.233   6.464
 3286POPC   D2A43156  42.329  39.251   6.764
 3286POPC   C3A43157  42.316  39.228   7.064
 3286POPC   C4A43158  42.379  39.255   7.364
 3286POPC   C1B43159  42.115  39.111   6.464
 3286POPC   C2B43160  42.089  39.106   6.764
 3286POPC   C3B43161  42.167  39.093   7.064
 3286POPC   C4B43162  42.173  39.101   7.364
 3287POPC   NC343163  44.654  39.961   5.564
 3287POPC   PO443164  44.663  40.018   5.864
 3287POPC   GL143165  44.705  39.989   6.164
 3287POPC   GL243166  44.601  39.914   6.164
 3287POPC   C1A43167  44.689  40.013   6.464
 3287POPC   D2A43168  44.633  39.990   6.764
 3287POPC   C3A43169  44.657  39.964   7.064
 3287POPC   C4A43170  44.704  40.051   7.364
 3287POPC   C1B43171  44.535  39.784   6.464
 3287POPC   C2B43172  44.538  39.794   6.764
 3287POPC   C3B43173  44.492  39.811   7.064
 3287POPC   C4B43174  44.492  39.863   7.364
 3288POPC   NC343175  30.666   5.901   5.564
 3288POPC   PO443176  30.733   5.819   5.864
 3288POPC   GL143177  30.673   5.892   6.164
 3288POPC   GL243178  30.659   5.721   6.164
 3288POPC   C1A43179  30.719   5.916   6.464
 3288POPC   D2A43180  30.681   5.840   6.764
 3288POPC   C3A43181  30.660   5.900   7.064
 3288POPC   C4A43182  30.729   5.912   7.364
 3288POPC   C1B43183  30.640   5.657   6.464
 3288POPC   C2B43184  30.660   5.628   6.764
 3288POPC   C3B43185  30.646   5.653   7.064
 3288POPC   C4B43186  30.655   5.643   7.364
 3289POPC   NC343187  32.261   8.209   5.564
 3289POPC   PO443188  32.224   8.241   5.864
 3289POPC   GL143189  32.288   8.181   6.164
 3289POPC   GL243190  32.373   8.104   6.164
 3289POPC   C1A43191  32.207   8.234   6.464
 3289POPC   D2A43192  32.227   8.198   6.764
 3289POPC   C3A43193  32.248   8.169   7.064
 3289POPC   C4A43194  32.269   8.179   7.364
 3289POPC   C1B43195  32.513   8.110   6.464
 3289POPC   C2B43196  32.447   8.046   6.764
 3289POPC   C3B43197  32.463   8.120   7.064
 3289POPC   C4B43198  32.429   8.070   7.364
 3290POPC   NC343199   5.850  17.542   5.564
 3290POPC   PO443200   5.841  17.468   5.864
 3290POPC   GL143201   5.860  17.481   6.164
 3290POPC   GL243202   5.759  17.563   6.164
 3290POPC   C1A43203   5.863  17.505   6.464
 3290POPC   D2A43204   5.835  17.476   6.764
 3290POPC   C3A43205   5.832  17.526   7.064
 3290POPC   C4A43206   5.871  17.468   7.364
 3290POPC   C1B43207   5.711  17.694   6.464
 3290POPC   C2B43208   5.667  17.650   6.764
 3290POPC   C3B43209   5.647  17.617   7.064
 3290POPC   C4B43210   5.623  17.646   7.364
 3291POPC   NC343211  19.080  23.680   5.564
 3291POPC   PO443212  19.090  23.716   5.864
 3291POPC   GL143213  19.075  23.719   6.164
 3291POPC   GL243214  19.203  23.673   6.164
 3291POPC   C1A43215  19.084  23.667   6.464
 3291POPC   D2A43216  19.064  23.738   6.764
 3291POPC   C3A43217  19.059  23.705   7.064
 3291POPC   C4A43218  19.095  23.727   7.364
 3291POPC   C1B43219  19.311  23.702   6.464
 3291POPC   C2B43220  19.350  23.664   6.764
 3291POPC   C3B43221  19.339  23.624   7.064
 3291POPC   C4B43222  19.257  23.670   7.364
 3292POPC   NC343223   8.973  28.345   5.564
 3292POPC   PO443224   8.981  28.361   5.864
 3292POPC   GL143225   8.993  28.416   6.164
 3292POPC   GL243226   9.077  28.361   6.164
 3292POPC   C1A43227   8.998  28.326   6.464
 3292POPC   D2A43228   8.927  28.327   6.764
 3292POPC   C3A43229   9.008  28.336   7.064
 3292POPC   C4A43230   8.936  28.355   7.364
 3292POPC   C1B43231   9.229  28.353   6.464
 3292POPC   C2B43232   9.217  28.366   6.764
 3292POPC   C3B43233   9.233  28.334   7.064
 3292POPC   C4B43234   9.207  28.402   7.364
 3293POPC   NC343235  33.827  40.833   5.564
 3293POPC   PO443236  33.827  40.820   5.864
 3293POPC   GL143237  33.832  40.803   6.164
 3293POPC   GL243238  33.932  40.881   6.164
 3293POPC   C1A43239  33.798  40.768   6.464
 3293POPC   D2A43240  33.755  40.829   6.764
 3293POPC   C3A43241  33.825  40.763   7.064
 3293POPC   C4A43242  33.765  40.737   7.364
 3293POPC   C1B43243  34.028  40.870   6.464
 3293POPC   C2B43244  33.968  40.875   6.764
 3293POPC   C3B43245  34.016  40.877   7.064
 3293POPC   C4B43246  34.034  40.877   7.364
 3294POPC   NC343247  24.460  40.029   5.564
 3294POPC   PO443248  24.446  40.050   5.864
 3294POPC   GL143249  24.509  40.045   6.164
 3294POPC   GL243250  24.462  39.872   6.164
 3294POPC   C1A43251  24.472  40.031   6.464
 3294POPC   D2A43252  24.446  40.003   6.764
 3294POPC   C3A43253  24.526  39.970   7.064
 3294POPC   C4A43254  24.499  39.963   7.364
 3294POPC   C1B43255  24.502  39.750   6.464
 3294POPC   C2B43256  24.502  39.783   6.764
 3294POPC   C3B43257  24.492  39.791   7.064
 3294POPC   C4B43258  24.522  39.718   7.364
 3295POPC   NC343259  17.494  14.409   5.564
 3295POPC   PO443260  17.498  14.354   5.864
 3295POPC   GL143261  17.487  14.367   6.164
 3295POPC   GL243262  17.604  14.533   6.164
 3295POPC   C1A43263  17.471  14.391   6.464
 3295POPC   D2A43264  17.466  14.435   6.764
 3295POPC   C3A43265  17.487  14.401   7.064
 3295POPC   C4A43266  17.516  14.427   7.364
 3295POPC   C1B43267  17.615  14.615   6.464
 3295POPC   C2B43268  17.657  14.627   6.764
 3295POPC   C3B43269  17.650  14.604   7.064
 3295POPC   C4B43270  17.647  14.649   7.364
 3296POPC   NC343271  15.174  24.443   5.564
 3296POPC   PO443272  15.185  24.477   5.864
 3296POPC   GL143273  15.174  24.517   6.164
 3296POPC   GL243274  15.271  24.400   6.164
 3296POPC   C1A43275  15.212  24.540   6.464
 3296POPC   D2A43276  15.167  24.449   6.764
 3296POPC   C3A43277  15.212  24.513   7.064
 3296POPC   C4A43278  15.157  24.486   7.364
 3296POPC   C1B43279  15.337  24.274   6.464
 3296POPC   C2B43280  15.363  24.349   6.764
 3296POPC   C3B43281  15.376  24.360   7.064
 3296POPC   C4B43282  15.356  24.301   7.364
 3297POPC   NC343283  41.558   5.088   5.564
 3297POPC   PO443284  41.595   5.105   5.864
 3297POPC   GL143285  41.597   5.045   6.164
 3297POPC   GL243286  41.560   4.922   6.164
 3297POPC   C1A43287  41.567   5.058   6.464
 3297POPC   D2A43288  41.537   5.103   6.764
 3297POPC   C3A43289  41.547   5.056   7.064
 3297POPC   C4A43290  41.539   5.049   7.364
 3297POPC   C1B43291  41.501   4.877   6.464
 3297POPC   C2B43292  41.560   4.895   6.764
 3297POPC   C3B43293  41.528   4.805   7.064
 3297POPC   C4B43294  41.539   4.879   7.364
 3298POPC   NC343295  33.781  32.204   5.564
 3298POPC   PO443296  33.845  32.233   5.864
 3298POPC   GL143297  33.790  32.293   6.164
 3298POPC   GL243298  33.930  32.168   6.164
 3298POPC   C1A43299  33.778  32.253   6.464
 3298POPC   D2A43300  33.761  32.258   6.764
 3298POPC   C3A43301  33.840  32.228   7.064
 3298POPC   C4A43302  33.762  32.205   7.364
 3298POPC   C1B43303  33.965  32.073   6.464
 3298POPC   C2B43304  34.041  32.132   6.764
 3298POPC   C3B43305  33.975  32.088   7.064
 3298POPC   C4B43306  34.017  32.095   7.364
 3299POPC   NC343307  29.188  41.602   5.564
 3299POPC   PO443308  29.121  41.546   5.864
 3299POPC   GL143309  29.138  41.526   6.164
 3299POPC   GL243310  29.099  41.726   6.164
 3299POPC   C1A43311  29.185  41.541   6.464
 3299POPC   D2A43312  29.112  41.528   6.764
 3299POPC   C3A43313  29.117  41.553   7.064
 3299POPC   C4A43314  29.099  41.581   7.364
 3299POPC   C1B43315  29.048  41.790   6.464
 3299POPC   C2B43316  29.122  41.836   6.764
 3299POPC   C3B43317  29.129  41.819   7.064
 3299POPC   C4B43318  29.043  41.782   7.364
 3300POPC   NC343319  22.938  41.514   5.564
 3300POPC   PO443320  22.924  41.568   5.864
 3300POPC   GL143321  22.971  41.516   6.164
 3300POPC   GL243322  22.983  41.471   6.164
 3300POPC   C1A43323  22.890  41.542   6.464
 3300POPC   D2A43324  22.921  41.534   6.764
 3300POPC   C3A43325  22.966  41.524   7.064
 3300POPC   C4A43326  22.897  41.564   7.364
 3300POPC   C1B43327  23.005  41.368   6.464
 3300POPC   C2B43328  22.985  41.328   6.764
 3300POPC   C3B43329  23.057  41.313   7.064
 3300POPC   C4B43330  23.056  41.344   7.364
 3301POPC   NC343331   3.504   0.436   5.564
 3301POPC   PO443332   3.510   0.417   5.864
 3301POPC   GL143333   3.535   0.482   6.164
 3301POPC   GL243334   3.559   0.570   6.164
 3301POPC   C1A43335   3.536   0.418   6.464
 3301POPC   D2A43336   3.505   0.475   6.764
 3301POPC   C3A43337   3.550   0.390   7.064
 3301POPC   C4A43338   3.569   0.405   7.364
 3301POPC   C1B43339   3.618   0.647   6.464
 3301POPC   C2B43340   3.534   0.690   6.764
 3301POPC   C3B43341   3.561   0.683   7.064
 3301POPC   C4B43342   3.581   0.717   7.364
 3302POPC   NC343343  13.666  15.174   5.564
 3302POPC   PO443344  13.668  15.179   5.864
 3302POPC   GL143345  13.675  15.134   6.164
 3302POPC   GL243346  13.663  15.077   6.164
 3302POPC   C1A43347  13.598  15.188   6.464
 3302POPC   D2A43348  13.597  15.205   6.764
 3302POPC   C3A43349  13.595  15.194   7.064
 3302POPC   C4A43350  13.670  15.220   7.364
 3302POPC   C1B43351  13.690  14.962   6.464
 3302POPC   C2B43352  13.728  14.938   6.764
 3302POPC   C3B43353  13.706  14.951   7.064
 3302POPC   C4B43354  13.663  14.948   7.364
 3303POPC   NC343355   7.448  38.477   5.564
 3303POPC   PO443356   7.373  38.426   5.864
 3303POPC   GL143357   7.441  38.444   6.164
 3303POPC   GL243358   7.502  38.380   6.164
 3303POPC   C1A43359   7.419  38.407   6.464
 3303POPC   D2A43360   7.453  38.499   6.764
 3303POPC   C3A43361   7.414  38.502   7.064
 3303POPC   C4A43362   7.460  38.473   7.364
 3303POPC   C1B43363   7.517  38.220   6.464
 3303POPC   C2B43364   7.501  38.260   6.764
 3303POPC   C3B43365   7.495  38.166   7.064
 3303POPC   C4B43366   7.467  38.252   7.364
 3304POPC   NC343367  26.013  22.189   5.564
 3304POPC   PO443368  26.079  22.126   5.864
 3304POPC   GL143369  26.029  22.152   6.164
 3304POPC   GL243370  25.867  22.205   6.164
 3304POPC   C1A43371  26.056  22.129   6.464
 3304POPC   D2A43372  26.084  22.198   6.764
 3304POPC   C3A43373  26.054  22.171   7.064
 3304POPC   C4A43374  26.063  22.135   7.364
 3304POPC   C1B43375  25.764  22.185   6.464
 3304POPC   C2B43376  25.841  22.181   6.764
 3304POPC   C3B43377  25.788  22.130   7.064
 3304POPC   C4B43378  25.744  22.133   7.364
 3305POPC   NC343379  15.151   1.965   5.564
 3305POPC   PO443380  15.200   1.954   5.864
 3305POPC   GL143381  15.218   1.969   6.164
 3305POPC   GL243382  15.061   2.009   6.164
 3305POPC   C1A43383  15.137   2.002   6.464
 3305POPC   D2A43384  15.193   1.969   6.764
 3305POPC   C3A43385  15.155   2.021   7.064
 3305POPC   C4A43386  15.154   2.009   7.364
 3305POPC   C1B43387  14.978   1.996   6.464
 3305POPC   C2B43388  14.885   2.064   6.764
 3305POPC   C3B43389  14.896   2.076   7.064
 3305POPC   C4B43390  14.890   1.996   7.364
 3306POPC   NC343391  20.563  23.753   5.564
 3306POPC   PO443392  20.630  23.751   5.864
 3306POPC   GL143393  20.622  23.744   6.164
 3306POPC   GL243394  20.487  23.580   6.164
 3306POPC   C1A43395  20.595  23.712   6.464
 3306POPC   D2A43396  20.615  23.732   6.764
 3306POPC   C3A43397  20.633  23.689   7.064
 3306POPC   C4A43398  20.625  23.685   7.364
 3306POPC   C1B43399  20.414  23.510   6.464
 3306POPC   C2B43400  20.461  23.482   6.764
 3306POPC   C3B43401  20.443  23.553   7.064
 3306POPC   C4B43402  20.468  23.509   7.364
 3307POPC   NC343403  14.426  40.018   5.564
 3307POPC   PO443404  14.369  39.982   5.864
 3307POPC   GL143405  14.397  40.042   6.164
 3307POPC   GL243406  14.468  40.088   6.164
 3307POPC   C1A43407  14.425  40.050   6.464
 3307POPC   D2A43408  14.395  40.008   6.764
 3307POPC   C3A43409  14.432  39.961   7.064
 3307POPC   C4A43410  14.356  39.961   7.364
 3307POPC   C1B43411  14.605  40.200   6.464
 3307POPC   C2B43412  14.598  40.207   6.764
 3307POPC   C3B43413  14.631  40.121   7.064
 3307POPC   C4B43414  14.649  40.178   7.364
 3308POPC   NC343415   8.213  11.261   5.564
 3308POPC   PO443416   8.207  11.268   5.864
 3308POPC   GL143417   8.243  11.280   6.164
 3308POPC   GL243418   8.039  11.285   6.164
 3308POPC   C1A43419   8.189  11.261   6.464
 3308POPC   D2A43420   8.230  11.321   6.764
 3308POPC   C3A43421   8.188  11.287   7.064
 3308POPC   C4A43422   8.183  11.316   7.364
 3308POPC   C1B43423   7.933  11.348   6.464
 3308POPC   C2B43424   7.928  11.371   6.764
 3308POPC   C3B43425   7.972  11.336   7.064
 3308POPC   C4B43426   7.910  11.326   7.364
 3309POPC   NC343427   5.917  18.311   5.564
 3309POPC   PO443428   5.910  18.249   5.864
 3309POPC   GL143429   5.873  18.305   6.164
 3309POPC   GL243430   6.015  18.382   6.164
 3309POPC   C1A43431   5.866  18.281   6.464
 3309POPC   D2A43432   5.838  18.278   6.764
 3309POPC   C3A43433   5.869  18.288   7.064
 3309POPC   C4A43434   5.846  18.301   7.364
 3309POPC   C1B43435   6.077  18.460   6.464
 3309POPC   C2B43436   6.099  18.462   6.764
 3309POPC   C3B43437   6.084  18.419   7.064
 3309POPC   C4B43438   6.082  18.383   7.364
 3310POPC   NC343439   1.176  12.089   5.564
 3310POPC   PO443440   1.225  12.055   5.864
 3310POPC   GL143441   1.225  12.027   6.164
 3310POPC   GL243442   1.152  11.976   6.164
 3310POPC   C1A43443   1.218  12.110   6.464
 3310POPC   D2A43444   1.190  12.125   6.764
 3310POPC   C3A43445   1.250  12.041   7.064
 3310POPC   C4A43446   1.262  12.103   7.364
 3310POPC   C1B43447   1.091  11.890   6.464
 3310POPC   C2B43448   1.078  11.915   6.764
 3310POPC   C3B43449   1.077  11.933   7.064
 3310POPC   C4B43450   1.019  11.845   7.364
 3311POPC   NC343451   9.721  43.895   5.564
 3311POPC   PO443452   9.726  43.892   5.864
 3311POPC   GL143453   9.783  43.840   6.164
 3311POPC   GL243454   9.730  43.752   6.164
 3311POPC   C1A43455   9.751  43.843   6.464
 3311POPC   D2A43456   9.746  43.885   6.764
 3311POPC   C3A43457   9.776  43.883   7.064
 3311POPC   C4A43458   9.763  43.889   7.364
 3311POPC   C1B43459   9.666  43.696   6.464
 3311POPC   C2B43460   9.626  43.666   6.764
 3311POPC   C3B43461   9.602  43.656   7.064
 3311POPC   C4B43462   9.669  43.706   7.364
 3312POPC   NC343463  33.795  29.149   5.564
 3312POPC   PO443464  33.779  29.183   5.864
 3312POPC   GL143465  33.753  29.112   6.164
 3312POPC   GL243466  33.756  29.071   6.164
 3312POPC   C1A43467  33.847  29.148   6.464
 3312POPC   D2A43468  33.757  29.170   6.764
 3312POPC   C3A43469  33.795  29.166   7.064
 3312POPC   C4A43470  33.778  29.139   7.364
 3312POPC   C1B43471  33.678  28.905   6.464
 3312POPC   C2B43472  33.692  28.905   6.764
 3312POPC   C3B43473  33.618  28.993   7.064
 3312POPC   C4B43474  33.693  28.922   7.364
 3313POPC   NC343475  44.671   0.390   5.564
 3313POPC   PO443476  44.705   0.418   5.864
 3313POPC   GL143477  44.630   0.446   6.164
 3313POPC   GL243478  44.760   0.495   6.164
 3313POPC   C1A43479  44.677   0.440   6.464
 3313POPC   D2A43480  44.641   0.476   6.764
 3313POPC   C3A43481  44.617   0.439   7.064
 3313POPC   C4A43482  44.693   0.394   7.364
 3313POPC   C1B43483  44.823   0.633   6.464
 3313POPC   C2B43484  44.861   0.551   6.764
 3313POPC   C3B43485  44.819   0.626   7.064
 3313POPC   C4B43486  44.883   0.648   7.364
 3314POPC   NC343487  22.160  12.871   5.564
 3314POPC   PO443488  22.165  12.808   5.864
 3314POPC   GL143489  22.207  12.802   6.164
 3314POPC   GL243490  22.046  12.930   6.164
 3314POPC   C1A43491  22.147  12.853   6.464
 3314POPC   D2A43492  22.123  12.821   6.764
 3314POPC   C3A43493  22.178  12.864   7.064
 3314POPC   C4A43494  22.183  12.841   7.364
 3314POPC   C1B43495  21.885  12.892   6.464
 3314POPC   C2B43496  21.963  12.907   6.764
 3314POPC   C3B43497  21.915  12.933   7.064
 3314POPC   C4B43498  21.952  12.887   7.364
 3315POPC   NC343499  36.951  39.183   5.564
 3315POPC   PO443500  36.925  39.199   5.864
 3315POPC   GL143501  36.880  39.186   6.164
 3315POPC   GL243502  36.858  39.303   6.164
 3315POPC   C1A43503  36.870  39.231   6.464
 3315POPC   D2A43504  36.935  39.196   6.764
 3315POPC   C3A43505  36.882  39.186   7.064
 3315POPC   C4A43506  36.893  39.204   7.364
 3315POPC   C1B43507  36.751  39.447   6.464
 3315POPC   C2B43508  36.798  39.466   6.764
 3315POPC   C3B43509  36.785  39.468   7.064
 3315POPC   C4B43510  36.731  39.440   7.364
 3316POPC   NC343511  15.950   0.445   5.564
 3316POPC   PO443512  15.960   0.412   5.864
 3316POPC   GL143513  15.921   0.427   6.164
 3316POPC   GL243514  15.940   0.294   6.164
 3316POPC   C1A43515  15.985   0.453   6.464
 3316POPC   D2A43516  15.989   0.442   6.764
 3316POPC   C3A43517  15.932   0.487   7.064
 3316POPC   C4A43518  16.004   0.470   7.364
 3316POPC   C1B43519  15.966   0.153   6.464
 3316POPC   C2B43520  15.954   0.143   6.764
 3316POPC   C3B43521  15.922   0.145   7.064
 3316POPC   C4B43522  15.955   0.154   7.364
 3317POPC   NC343523  37.727   2.811   5.564
 3317POPC   PO443524  37.681   2.800   5.864
 3317POPC   GL143525  37.699   2.744   6.164
 3317POPC   GL243526  37.581   2.648   6.164
 3317POPC   C1A43527  37.718   2.744   6.464
 3317POPC   D2A43528  37.683   2.742   6.764
 3317POPC   C3A43529  37.724   2.751   7.064
 3317POPC   C4A43530  37.674   2.730   7.364
 3317POPC   C1B43531  37.519   2.575   6.464
 3317POPC   C2B43532  37.503   2.584   6.764
 3317POPC   C3B43533  37.488   2.566   7.064
 3317POPC   C4B43534  37.549   2.552   7.364
 3318POPC   NC343535  40.818  32.263   5.564
 3318POPC   PO443536  40.771  32.225   5.864
 3318POPC   GL143537  40.812  32.285   6.164
 3318POPC   GL243538  40.841  32.384   6.164
 3318POPC   C1A43539  40.811  32.240   6.464
 3318POPC   D2A43540  40.753  32.236   6.764
 3318POPC   C3A43541  40.827  32.214   7.064
 3318POPC   C4A43542  40.738  32.220   7.364
 3318POPC   C1B43543  40.848  32.449   6.464
 3318POPC   C2B43544  40.934  32.488   6.764
 3318POPC   C3B43545  40.894  32.462   7.064
 3318POPC   C4B43546  40.916  32.436   7.364
 3319POPC   NC343547  41.568  25.315   5.564
 3319POPC   PO443548  41.563  25.302   5.864
 3319POPC   GL143549  41.540  25.289   6.164
 3319POPC   GL243550  41.605  25.120   6.164
 3319POPC   C1A43551  41.594  25.302   6.464
 3319POPC   D2A43552  41.559  25.233   6.764
 3319POPC   C3A43553  41.536  25.267   7.064
 3319POPC   C4A43554  41.608  25.255   7.364
 3319POPC   C1B43555  41.641  24.992   6.464
 3319POPC   C2B43556  41.649  24.970   6.764
 3319POPC   C3B43557  41.619  25.069   7.064
 3319POPC   C4B43558  41.651  24.994   7.364
 3320POPC   NC343559  10.477  29.884   5.564
 3320POPC   PO443560  10.528  29.959   5.864
 3320POPC   GL143561  10.566  29.954   6.164
 3320POPC   GL243562  10.603  29.842   6.164
 3320POPC   C1A43563  10.567  29.931   6.464
 3320POPC   D2A43564  10.544  29.929   6.764
 3320POPC   C3A43565  10.482  29.948   7.064
 3320POPC   C4A43566  10.495  29.892   7.364
 3320POPC   C1B43567  10.576  29.690   6.464
 3320POPC   C2B43568  10.540  29.679   6.764
 3320POPC   C3B43569  10.604  29.715   7.064
 3320POPC   C4B43570  10.624  29.688   7.364
 3321POPC   NC343571  17.533  15.908   5.564
 3321POPC   PO443572  17.512  15.931   5.864
 3321POPC   GL143573  17.486  15.925   6.164
 3321POPC   GL243574  17.399  15.820   6.164
 3321POPC   C1A43575  17.468  15.982   6.464
 3321POPC   D2A43576  17.486  15.939   6.764
 3321POPC   C3A43577  17.520  15.910   7.064
 3321POPC   C4A43578  17.480  15.912   7.364
 3321POPC   C1B43579  17.395  15.747   6.464
 3321POPC   C2B43580  17.363  15.789   6.764
 3321POPC   C3B43581  17.359  15.720   7.064
 3321POPC   C4B43582  17.393  15.756   7.364
 3322POPC   NC343583  32.215  43.150   5.564
 3322POPC   PO443584  32.247  43.157   5.864
 3322POPC   GL143585  32.264  43.130   6.164
 3322POPC   GL243586  32.202  43.226   6.164
 3322POPC   C1A43587  32.213  43.117   6.464
 3322POPC   D2A43588  32.221  43.133   6.764
 3322POPC   C3A43589  32.283  43.156   7.064
 3322POPC   C4A43590  32.227  43.076   7.364
 3322POPC   C1B43591  32.140  43.285   6.464
 3322POPC   C2B43592  32.097  43.285   6.764
 3322POPC   C3B43593  32.108  43.305   7.064
 3322POPC   C4B43594  32.081  43.322   7.364
 3323POPC   NC343595  21.377   5.096   5.564
 3323POPC   PO443596  21.385   5.094   5.864
 3323POPC   GL143597  21.369   5.124   6.164
 3323POPC   GL243598  21.550   5.046   6.164
 3323POPC   C1A43599  21.355   5.124   6.464
 3323POPC   D2A43600  21.341   5.100   6.764
 3323POPC   C3A43601  21.338   5.127   7.064
 3323POPC   C4A43602  21.364   5.069   7.364
 3323POPC   C1B43603  21.617   5.051   6.464
 3323POPC   C2B43604  21.578   4.987   6.764
 3323POPC   C3B43605  21.580   5.025   7.064
 3323POPC   C4B43606  21.590   5.061   7.364
 3324POPC   NC343607   9.016  33.759   5.564
 3324POPC   PO443608   9.006  33.799   5.864
 3324POPC   GL143609   8.931  33.757   6.164
 3324POPC   GL243610   9.036  33.658   6.164
 3324POPC   C1A43611   8.959  33.761   6.464
 3324POPC   D2A43612   8.928  33.809   6.764
 3324POPC   C3A43613   8.982  33.757   7.064
 3324POPC   C4A43614   8.932  33.820   7.364
 3324POPC   C1B43615   9.052  33.516   6.464
 3324POPC   C2B43616   9.041  33.575   6.764
 3324POPC   C3B43617   9.057  33.541   7.064
 3324POPC   C4B43618   9.019  33.579   7.364
 3325POPC   NC343619   4.313   6.632   5.564
 3325POPC   PO443620   4.302   6.608   5.864
 3325POPC   GL143621   4.353   6.645   6.164
 3325POPC   GL243622   4.359   6.594   6.164
 3325POPC   C1A43623   4.326   6.639   6.464
 3325POPC   D2A43624   4.325   6.645   6.764
 3325POPC   C3A43625   4.288   6.613   7.064
 3325POPC   C4A43626   4.367   6.636   7.364
 3325POPC   C1B43627   4.469   6.428   6.464
 3325POPC   C2B43628   4.490   6.499   6.764
 3325POPC   C3B43629   4.457   6.461   7.064
 3325POPC   C4B43630   4.450   6.472   7.364
 3326POPC   NC343631  13.580  21.407   5.564
 3326POPC   PO443632  13.622  21.360   5.864
 3326POPC   GL143633  13.646  21.426   6.164
 3326POPC   GL243634  13.666  21.452   6.164
 3326POPC   C1A43635  13.602  21.431   6.464
 3326POPC   D2A43636  13.619  21.389   6.764
 3326POPC   C3A43637  13.617  21.362   7.064
 3326POPC   C4A43638  13.668  21.424   7.364
 3326POPC   C1B43639  13.801  21.573   6.464
 3326POPC   C2B43640  13.764  21.577   6.764
 3326POPC   C3B43641  13.818  21.617   7.064
 3326POPC   C4B43642  13.829  21.535   7.364
 3327POPC   NC343643  38.430  43.853   5.564
 3327POPC   PO443644  38.429  43.876   5.864
 3327POPC   GL143645  38.462  43.923   6.164
 3327POPC   GL243646  38.577  43.999   6.164
 3327POPC   C1A43647  38.472  43.851   6.464
 3327POPC   D2A43648  38.492  43.862   6.764
 3327POPC   C3A43649  38.465  43.840   7.064
 3327POPC   C4A43650  38.438  43.873   7.364
 3327POPC   C1B43651  38.665  44.082   6.464
 3327POPC   C2B43652  38.644  44.043   6.764
 3327POPC   C3B43653  38.615  44.032   7.064
 3327POPC   C4B43654  38.701  44.016   7.364
 3328POPC   NC343655  22.988  40.041   5.564
 3328POPC   PO443656  22.951  40.040   5.864
 3328POPC   GL143657  22.899  39.974   6.164
 3328POPC   GL243658  23.027  40.095   6.164
 3328POPC   C1A43659  22.908  40.036   6.464
 3328POPC   D2A43660  22.899  40.018   6.764
 3328POPC   C3A43661  22.965  40.015   7.064
 3328POPC   C4A43662  22.931  40.013   7.364
 3328POPC   C1B43663  23.073  40.182   6.464
 3328POPC   C2B43664  23.091  40.251   6.764
 3328POPC   C3B43665  23.093  40.168   7.064
 3328POPC   C4B43666  23.093  40.240   7.364
 3329POPC   NC343667  44.668  14.366   5.564
 3329POPC   PO443668  44.670  14.433   5.864
 3329POPC   GL143669  44.627  14.398   6.164
 3329POPC   GL243670  44.621  14.333   6.164
 3329POPC   C1A43671  44.672  14.378   6.464
 3329POPC   D2A43672  44.633  14.448   6.764
 3329POPC   C3A43673  44.692  14.357   7.064
 3329POPC   C4A43674  44.644  14.365   7.364
 3329POPC   C1B43675  44.534  14.189   6.464
 3329POPC   C2B43676  44.556  14.185   6.764
 3329POPC   C3B43677  44.564  14.150   7.064
 3329POPC   C4B43678  44.510  14.224   7.364
 3330POPC   NC343679  39.977  42.361   5.564
 3330POPC   PO443680  39.974  42.372   5.864
 3330POPC   GL143681  40.005  42.360   6.164
 3330POPC   GL243682  40.002  42.436   6.164
 3330POPC   C1A43683  40.020  42.293   6.464
 3330POPC   D2A43684  40.046  42.373   6.764
 3330POPC   C3A43685  40.048  42.365   7.064
 3330POPC   C4A43686  40.045  42.290   7.364
 3330POPC   C1B43687  40.123  42.556   6.464
 3330POPC   C2B43688  40.068  42.603   6.764
 3330POPC   C3B43689  40.095  42.565   7.064
 3330POPC   C4B43690  40.137  42.539   7.364
 3331POPC   NC343691   5.867  36.177   5.564
 3331POPC   PO443692   5.881  36.164   5.864
 3331POPC   GL143693   5.859  36.122   6.164
 3331POPC   GL243694   5.741  36.077   6.164
 3331POPC   C1A43695   5.893  36.170   6.464
 3331POPC   D2A43696   5.885  36.128   6.764
 3331POPC   C3A43697   5.890  36.168   7.064
 3331POPC   C4A43698   5.830  36.140   7.364
 3331POPC   C1B43699   5.668  36.038   6.464
 3331POPC   C2B43700   5.667  35.968   6.764
 3331POPC   C3B43701   5.683  36.046   7.064
 3331POPC   C4B43702   5.664  35.975   7.364
 3332POPC   NC343703  41.550  15.969   5.564
 3332POPC   PO443704  41.510  15.947   5.864
 3332POPC   GL143705  41.593  15.968   6.164
 3332POPC   GL243706  41.584  15.868   6.164
 3332POPC   C1A43707  41.551  15.921   6.464
 3332POPC   D2A43708  41.547  15.947   6.764
 3332POPC   C3A43709  41.517  15.985   7.064
 3332POPC   C4A43710  41.579  15.960   7.364
 3332POPC   C1B43711  41.636  15.720   6.464
 3332POPC   C2B43712  41.714  15.783   6.764
 3332POPC   C3B43713  41.665  15.773   7.064
 3332POPC   C4B43714  41.714  15.738   7.364
 3333POPC   NC343715  21.362  33.764   5.564
 3333POPC   PO443716  21.386  33.811   5.864
 3333POPC   GL143717  21.415  33.847   6.164
 3333POPC   GL243718  21.519  33.783   6.164
 3333POPC   C1A43719  21.392  33.846   6.464
 3333POPC   D2A43720  21.353  33.790   6.764
 3333POPC   C3A43721  21.339  33.800   7.064
 3333POPC   C4A43722  21.364  33.815   7.364
 3333POPC   C1B43723  21.625  33.728   6.464
 3333POPC   C2B43724  21.667  33.722   6.764
 3333POPC   C3B43725  21.676  33.738   7.064
 3333POPC   C4B43726  21.655  33.811   7.364
 3334POPC   NC343727  29.906   9.010   5.564
 3334POPC   PO443728  29.872   8.951   5.864
 3334POPC   GL143729  29.931   8.982   6.164
 3334POPC   GL243730  29.955   8.830   6.164
 3334POPC   C1A43731  29.962   8.954   6.464
 3334POPC   D2A43732  29.923   8.964   6.764
 3334POPC   C3A43733  29.892   9.009   7.064
 3334POPC   C4A43734  29.909   8.938   7.364
 3334POPC   C1B43735  29.979   8.722   6.464
 3334POPC   C2B43736  29.947   8.735   6.764
 3334POPC   C3B43737  29.930   8.773   7.064
 3334POPC   C4B43738  29.922   8.704   7.364
 3335POPC   NC343739  23.679  22.191   5.564
 3335POPC   PO443740  23.730  22.140   5.864
 3335POPC   GL143741  23.741  22.164   6.164
 3335POPC   GL243742  23.826  22.219   6.164
 3335POPC   C1A43743  23.724  22.159   6.464
 3335POPC   D2A43744  23.709  22.179   6.764
 3335POPC   C3A43745  23.699  22.146   7.064
 3335POPC   C4A43746  23.716  22.172   7.364
 3335POPC   C1B43747  23.913  22.342   6.464
 3335POPC   C2B43748  23.882  22.351   6.764
 3335POPC   C3B43749  23.923  22.292   7.064
 3335POPC   C4B43750  23.901  22.288   7.364
 3336POPC   NC343751  12.119   4.294   5.564
 3336POPC   PO443752  12.119   4.307   5.864
 3336POPC   GL143753  12.098   4.326   6.164
 3336POPC   GL243754  12.222   4.387   6.164
 3336POPC   C1A43755  12.114   4.305   6.464
 3336POPC   D2A43756  12.118   4.295   6.764
 3336POPC   C3A43757  12.055   4.316   7.064
 3336POPC   C4A43758  12.120   4.332   7.364
 3336POPC   C1B43759  12.311   4.408   6.464
 3336POPC   C2B43760  12.256   4.441   6.764
 3336POPC   C3B43761  12.292   4.456   7.064
 3336POPC   C4B43762  12.264   4.452   7.364
 3337POPC   NC343763  15.960  12.076   5.564
 3337POPC   PO443764  15.971  12.097   5.864
 3337POPC   GL143765  15.922  12.092   6.164
 3337POPC   GL243766  16.114  12.007   6.164
 3337POPC   C1A43767  15.950  12.080   6.464
 3337POPC   D2A43768  15.938  12.075   6.764
 3337POPC   C3A43769  15.956  12.080   7.064
 3337POPC   C4A43770  15.942  12.087   7.364
 3337POPC   C1B43771  16.145  11.971   6.464
 3337POPC   C2B43772  16.216  12.011   6.764
 3337POPC   C3B43773  16.221  12.030   7.064
 3337POPC   C4B43774  16.156  11.974   7.364
 3338POPC   NC343775  22.891   1.226   5.564
 3338POPC   PO443776  22.959   1.170   5.864
 3338POPC   GL143777  22.896   1.222   6.164
 3338POPC   GL243778  22.926   1.373   6.164
 3338POPC   C1A43779  22.964   1.213   6.464
 3338POPC   D2A43780  22.943   1.230   6.764
 3338POPC   C3A43781  22.922   1.200   7.064
 3338POPC   C4A43782  22.915   1.174   7.364
 3338POPC   C1B43783  22.883   1.479   6.464
 3338POPC   C2B43784  22.835   1.462   6.764
 3338POPC   C3B43785  22.890   1.457   7.064
 3338POPC   C4B43786  22.831   1.488   7.364
 3339POPC   NC343787   5.872  40.049   5.564
 3339POPC   PO443788   5.870  39.979   5.864
 3339POPC   GL143789   5.887  39.968   6.164
 3339POPC   GL243790   5.747  40.029   6.164
 3339POPC   C1A43791   5.825  40.037   6.464
 3339POPC   D2A43792   5.819  39.974   6.764
 3339POPC   C3A43793   5.875  39.971   7.064
 3339POPC   C4A43794   5.916  39.991   7.364
 3339POPC   C1B43795   5.629  40.118   6.464
 3339POPC   C2B43796   5.604  40.067   6.764
 3339POPC   C3B43797   5.681  40.094   7.064
 3339POPC   C4B43798   5.670  40.054   7.364
 3340POPC   NC343799  15.178   4.333   5.564
 3340POPC   PO443800  15.197   4.337   5.864
 3340POPC   GL143801  15.210   4.302   6.164
 3340POPC   GL243802  15.103   4.175   6.164
 3340POPC   C1A43803  15.142   4.316   6.464
 3340POPC   D2A43804  15.198   4.366   6.764
 3340POPC   C3A43805  15.149   4.335   7.064
 3340POPC   C4A43806  15.162   4.269   7.364
 3340POPC   C1B43807  15.125   4.037   6.464
 3340POPC   C2B43808  15.121   4.125   6.764
 3340POPC   C3B43809  15.096   4.074   7.064
 3340POPC   C4B43810  15.069   4.123   7.364
 3341POPC   NC343811  23.752  12.124   5.564
 3341POPC   PO443812  23.721  12.086   5.864
 3341POPC   GL143813  23.702  12.065   6.164
 3341POPC   GL243814  23.662  12.128   6.164
 3341POPC   C1A43815  23.666  12.033   6.464
 3341POPC   D2A43816  23.681  12.097   6.764
 3341POPC   C3A43817  23.675  12.099   7.064
 3341POPC   C4A43818  23.683  12.033   7.364
 3341POPC   C1B43819  23.495  12.284   6.464
 3341POPC   C2B43820  23.540  12.281   6.764
 3341POPC   C3B43821  23.560  12.236   7.064
 3341POPC   C4B43822  23.563  12.211   7.364
 3342POPC   NC343823  41.552  31.447   5.564
 3342POPC   PO443824  41.550  31.438   5.864
 3342POPC   GL143825  41.551  31.483   6.164
 3342POPC   GL243826  41.424  31.485   6.164
 3342POPC   C1A43827  41.517  31.443   6.464
 3342POPC   D2A43828  41.579  31.440   6.764
 3342POPC   C3A43829  41.577  31.494   7.064
 3342POPC   C4A43830  41.516  31.522   7.364
 3342POPC   C1B43831  41.283  31.451   6.464
 3342POPC   C2B43832  41.340  31.489   6.764
 3342POPC   C3B43833  41.321  31.501   7.064
 3342POPC   C4B43834  41.324  31.470   7.364
 3343POPC   NC343835  13.624  38.501   5.564
 3343POPC   PO443836  13.594  38.426   5.864
 3343POPC   GL143837  13.657  38.470   6.164
 3343POPC   GL243838  13.765  38.394   6.164
 3343POPC   C1A43839  13.676  38.447   6.464
 3343POPC   D2A43840  13.658  38.494   6.764
 3343POPC   C3A43841  13.656  38.442   7.064
 3343POPC   C4A43842  13.676  38.505   7.364
 3343POPC   C1B43843  13.851  38.426   6.464
 3343POPC   C2B43844  13.839  38.453   6.764
 3343POPC   C3B43845  13.904  38.385   7.064
 3343POPC   C4B43846  13.839  38.410   7.364
 3344POPC   NC343847  36.162  19.821   5.564
 3344POPC   PO443848  36.132  19.812   5.864
 3344POPC   GL143849  36.151  19.817   6.164
 3344POPC   GL243850  36.148  19.753   6.164
 3344POPC   C1A43851  36.088  19.835   6.464
 3344POPC   D2A43852  36.107  19.795   6.764
 3344POPC   C3A43853  36.103  19.833   7.064
 3344POPC   C4A43854  36.150  19.818   7.364
 3344POPC   C1B43855  36.275  19.625   6.464
 3344POPC   C2B43856  36.228  19.642   6.764
 3344POPC   C3B43857  36.182  19.645   7.064
 3344POPC   C4B43858  36.253  19.637   7.364
 3345POPC   NC343859   2.797  22.130   5.564
 3345POPC   PO443860   2.748  22.187   5.864
 3345POPC   GL143861   2.727  22.131   6.164
 3345POPC   GL243862   2.899  22.200   6.164
 3345POPC   C1A43863   2.800  22.133   6.464
 3345POPC   D2A43864   2.725  22.172   6.764
 3345POPC   C3A43865   2.742  22.117   7.064
 3345POPC   C4A43866   2.773  22.132   7.364
 3345POPC   C1B43867   2.962  22.246   6.464
 3345POPC   C2B43868   3.054  22.235   6.764
 3345POPC   C3B43869   3.059  22.197   7.064
 3345POPC   C4B43870   2.969  22.173   7.364
 3346POPC   NC343871  32.296  36.107   5.564
 3346POPC   PO443872  32.295  36.108   5.864
 3346POPC   GL143873  32.217  36.089   6.164
 3346POPC   GL243874  32.102  36.183   6.164
 3346POPC   C1A43875  32.252  36.142   6.464
 3346POPC   D2A43876  32.281  36.081   6.764
 3346POPC   C3A43877  32.279  36.080   7.064
 3346POPC   C4A43878  32.276  36.080   7.364
 3346POPC   C1B43879  32.013  36.179   6.464
 3346POPC   C2B43880  32.039  36.189   6.764
 3346POPC   C3B43881  32.022  36.170   7.064
 3346POPC   C4B43882  32.004  36.140   7.364
 3347POPC   NC343883  33.848  42.374   5.564
 3347POPC   PO443884  33.832  42.381   5.864
 3347POPC   GL143885  33.810  42.316   6.164
 3347POPC   GL243886  33.729  42.333   6.164
 3347POPC   C1A43887  33.756  42.286   6.464
 3347POPC   D2A43888  33.825  42.347   6.764
 3347POPC   C3A43889  33.776  42.332   7.064
 3347POPC   C4A43890  33.818  42.301   7.364
 3347POPC   C1B43891  33.520  42.226   6.464
 3347POPC   C2B43892  33.520  42.259   6.764
 3347POPC   C3B43893  33.560  42.234   7.064
 3347POPC   C4B43894  33.568  42.210   7.364
 3348POPC   NC343895  13.674  25.306   5.564
 3348POPC   PO443896  13.606  25.226   5.864
 3348POPC   GL143897  13.667  25.313   6.164
 3348POPC   GL243898  13.731  25.373   6.164
 3348POPC   C1A43899  13.663  25.242   6.464
 3348POPC   D2A43900  13.626  25.312   6.764
 3348POPC   C3A43901  13.664  25.232   7.064
 3348POPC   C4A43902  13.608  25.291   7.364
 3348POPC   C1B43903  13.825  25.383   6.464
 3348POPC   C2B43904  13.831  25.472   6.764
 3348POPC   C3B43905  13.809  25.401   7.064
 3348POPC   C4B43906  13.848  25.396   7.364
 3349POPC   NC343907  35.306  29.890   5.564
 3349POPC   PO443908  35.349  29.911   5.864
 3349POPC   GL143909  35.309  29.962   6.164
 3349POPC   GL243910  35.251  29.940   6.164
 3349POPC   C1A43911  35.308  29.892   6.464
 3349POPC   D2A43912  35.349  29.948   6.764
 3349POPC   C3A43913  35.393  29.927   7.064
 3349POPC   C4A43914  35.315  29.946   7.364
 3349POPC   C1B43915  35.085  30.024   6.464
 3349POPC   C2B43916  35.111  29.981   6.764
 3349POPC   C3B43917  35.152  30.058   7.064
 3349POPC   C4B43918  35.079  30.047   7.364
 3350POPC   NC343919  40.814  11.350   5.564
 3350POPC   PO443920  40.769  11.260   5.864
 3350POPC   GL143921  40.775  11.304   6.164
 3350POPC   GL243922  40.691  11.256   6.164
 3350POPC   C1A43923  40.736  11.268   6.464
 3350POPC   D2A43924  40.803  11.313   6.764
 3350POPC   C3A43925  40.809  11.301   7.064
 3350POPC   C4A43926  40.744  11.288   7.364
 3350POPC   C1B43927  40.490  11.204   6.464
 3350POPC   C2B43928  40.571  11.211   6.764
 3350POPC   C3B43929  40.548  11.216   7.064
 3350POPC   C4B43930  40.552  11.240   7.364
 3351POPC   NC343931   1.187  25.249   5.564
 3351POPC   PO443932   1.216  25.218   5.864
 3351POPC   GL143933   1.239  25.275   6.164
 3351POPC   GL243934   1.189  25.145   6.164
 3351POPC   C1A43935   1.202  25.269   6.464
 3351POPC   D2A43936   1.219  25.255   6.764
 3351POPC   C3A43937   1.246  25.291   7.064
 3351POPC   C4A43938   1.264  25.281   7.364
 3351POPC   C1B43939   1.127  25.068   6.464
 3351POPC   C2B43940   1.112  25.045   6.764
 3351POPC   C3B43941   1.120  24.996   7.064
 3351POPC   C4B43942   1.126  25.062   7.364
 3352POPC   NC343943   9.706  10.563   5.564
 3352POPC   PO443944   9.706  10.476   5.864
 3352POPC   GL143945   9.733  10.478   6.164
 3352POPC   GL243946   9.715  10.619   6.164
 3352POPC   C1A43947   9.712  10.569   6.464
 3352POPC   D2A43948   9.783  10.515   6.764
 3352POPC   C3A43949   9.759  10.481   7.064
 3352POPC   C4A43950   9.783  10.485   7.364
 3352POPC   C1B43951   9.645  10.811   6.464
 3352POPC   C2B43952   9.706  10.810   6.764
 3352POPC   C3B43953   9.671  10.792   7.064
 3352POPC   C4B43954   9.700  10.783   7.364
 3353POPC   NC343955  26.858  21.347   5.564
 3353POPC   PO443956  26.851  21.428   5.864
 3353POPC   GL143957  26.787  21.350   6.164
 3353POPC   GL243958  26.978  21.385   6.164
 3353POPC   C1A43959  26.865  21.346   6.464
 3353POPC   D2A43960  26.837  21.380   6.764
 3353POPC   C3A43961  26.810  21.367   7.064
 3353POPC   C4A43962  26.771  21.374   7.364
 3353POPC   C1B43963  27.031  21.450   6.464
 3353POPC   C2B43964  27.017  21.449   6.764
 3353POPC   C3B43965  27.080  21.428   7.064
 3353POPC   C4B43966  27.105  21.429   7.364
 3354POPC   NC343967  39.271  10.498   5.564
 3354POPC   PO443968  39.237  10.488   5.864
 3354POPC   GL143969  39.187  10.484   6.164
 3354POPC   GL243970  39.195  10.440   6.164
 3354POPC   C1A43971  39.192  10.555   6.464
 3354POPC   D2A43972  39.248  10.512   6.764
 3354POPC   C3A43973  39.237  10.521   7.064
 3354POPC   C4A43974  39.204  10.481   7.364
 3354POPC   C1B43975  39.074  10.371   6.464
 3354POPC   C2B43976  39.079  10.332   6.764
 3354POPC   C3B43977  39.083  10.280   7.064
 3354POPC   C4B43978  39.081  10.368   7.364
 3355POPC   NC343979  24.512  24.488   5.564
 3355POPC   PO443980  24.446  24.450   5.864
 3355POPC   GL143981  24.471  24.466   6.164
 3355POPC   GL243982  24.635  24.496   6.164
 3355POPC   C1A43983  24.501  24.493   6.464
 3355POPC   D2A43984  24.512  24.480   6.764
 3355POPC   C3A43985  24.440  24.488   7.064
 3355POPC   C4A43986  24.511  24.456   7.364
 3355POPC   C1B43987  24.686  24.606   6.464
 3355POPC   C2B43988  24.673  24.627   6.764
 3355POPC   C3B43989  24.754  24.640   7.064
 3355POPC   C4B43990  24.732  24.604   7.364
 3356POPC   NC343991  33.028   8.212   5.564
 3356POPC   PO443992  33.046   8.215   5.864
 3356POPC   GL143993  33.037   8.167   6.164
 3356POPC   GL243994  33.117   8.153   6.164
 3356POPC   C1A43995  33.032   8.195   6.464
 3356POPC   D2A43996  33.032   8.157   6.764
 3356POPC   C3A43997  33.022   8.170   7.064
 3356POPC   C4A43998  33.049   8.199   7.364
 3356POPC   C1B43999  33.287   8.167   6.464
 3356POPC   C2B44000  33.301   8.193   6.764
 3356POPC   C3B44001  33.320   8.128   7.064
 3356POPC   C4B44002  33.281   8.182   7.364
 3357POPC   NC344003  36.163   5.079   5.564
 3357POPC   PO444004  36.156   5.086   5.864
 3357POPC   GL144005  36.146   5.129   6.164
 3357POPC   GL244006  36.200   4.963   6.164
 3357POPC   C1A44007  36.116   5.140   6.464
 3357POPC   D2A44008  36.138   5.063   6.764
 3357POPC   C3A44009  36.125   5.089   7.064
 3357POPC   C4A44010  36.171   5.070   7.364
 3357POPC   C1B44011  36.240   4.900   6.464
 3357POPC   C2B44012  36.214   4.894   6.764
 3357POPC   C3B44013  36.243   4.907   7.064
 3357POPC   C4B44014  36.283   4.869   7.364
 3358POPC   NC344015  28.375  30.720   5.564
 3358POPC   PO444016  28.335  30.652   5.864
 3358POPC   GL144017  28.417  30.716   6.164
 3358POPC   GL244018  28.414  30.799   6.164
 3358POPC   C1A44019  28.401  30.686   6.464
 3358POPC   D2A44020  28.322  30.647   6.764
 3358POPC   C3A44021  28.400  30.727   7.064
 3358POPC   C4A44022  28.400  30.734   7.364
 3358POPC   C1B44023  28.491  30.928   6.464
 3358POPC   C2B44024  28.433  30.879   6.764
 3358POPC   C3B44025  28.459  30.898   7.064
 3358POPC   C4B44026  28.490  30.947   7.364
 3359POPC   NC344027   9.721   3.524   5.564
 3359POPC   PO444028   9.723   3.502   5.864
 3359POPC   GL144029   9.760   3.587   6.164
 3359POPC   GL244030   9.672   3.553   6.164
 3359POPC   C1A44031   9.704   3.538   6.464
 3359POPC   D2A44032   9.787   3.560   6.764
 3359POPC   C3A44033   9.788   3.578   7.064
 3359POPC   C4A44034   9.748   3.565   7.364
 3359POPC   C1B44035   9.490   3.439   6.464
 3359POPC   C2B44036   9.492   3.484   6.764
 3359POPC   C3B44037   9.488   3.531   7.064
 3359POPC   C4B44038   9.524   3.445   7.364
 3360POPC   NC344039  36.947  28.380   5.564
 3360POPC   PO444040  36.879  28.399   5.864
 3360POPC   GL144041  36.897  28.393   6.164
 3360POPC   GL244042  36.845  28.481   6.164
 3360POPC   C1A44043  36.887  28.347   6.464
 3360POPC   D2A44044  36.898  28.353   6.764
 3360POPC   C3A44045  36.947  28.333   7.064
 3360POPC   C4A44046  36.945  28.408   7.364
 3360POPC   C1B44047  36.773  28.563   6.464
 3360POPC   C2B44048  36.795  28.618   6.764
 3360POPC   C3B44049  36.783  28.584   7.064
 3360POPC   C4B44050  36.772  28.632   7.364
 3361POPC   NC344051   4.354  37.657   5.564
 3361POPC   PO444052   4.294  37.673   5.864
 3361POPC   GL144053   4.275  37.685   6.164
 3361POPC   GL244054   4.197  37.594   6.164
 3361POPC   C1A44055   4.324  37.646   6.464
 3361POPC   D2A44056   4.342  37.694   6.764
 3361POPC   C3A44057   4.345  37.704   7.064
 3361POPC   C4A44058   4.356  37.720   7.364
 3361POPC   C1B44059   4.167  37.535   6.464
 3361POPC   C2B44060   4.173  37.545   6.764
 3361POPC   C3B44061   4.125  37.461   7.064
 3361POPC   C4B44062   4.087  37.531   7.364
 3362POPC   NC344063  42.311  38.452   5.564
 3362POPC   PO444064  42.331  38.446   5.864
 3362POPC   GL144065  42.360  38.493   6.164
 3362POPC   GL244066  42.498  38.420   6.164
 3362POPC   C1A44067  42.341  38.425   6.464
 3362POPC   D2A44068  42.375  38.473   6.764
 3362POPC   C3A44069  42.379  38.474   7.064
 3362POPC   C4A44070  42.319  38.468   7.364
 3362POPC   C1B44071  42.530  38.385   6.464
 3362POPC   C2B44072  42.557  38.310   6.764
 3362POPC   C3B44073  42.590  38.351   7.064
 3362POPC   C4B44074  42.529  38.350   7.364
 3363POPC   NC344075  20.626  16.770   5.564
 3363POPC   PO444076  20.574  16.696   5.864
 3363POPC   GL144077  20.625  16.712   6.164
 3363POPC   GL244078  20.513  16.684   6.164
 3363POPC   C1A44079  20.591  16.759   6.464
 3363POPC   D2A44080  20.575  16.681   6.764
 3363POPC   C3A44081  20.647  16.727   7.064
 3363POPC   C4A44082  20.608  16.735   7.364
 3363POPC   C1B44083  20.386  16.718   6.464
 3363POPC   C2B44084  20.356  16.722   6.764
 3363POPC   C3B44085  20.404  16.708   7.064
 3363POPC   C4B44086  20.320  16.671   7.364
 3364POPC   NC344087  40.749   5.836   5.564
 3364POPC   PO444088  40.772   5.846   5.864
 3364POPC   GL144089  40.758   5.821   6.164
 3364POPC   GL244090  40.906   5.757   6.164
 3364POPC   C1A44091  40.772   5.867   6.464
 3364POPC   D2A44092  40.777   5.836   6.764
 3364POPC   C3A44093  40.770   5.819   7.064
 3364POPC   C4A44094  40.743   5.828   7.364
 3364POPC   C1B44095  40.979   5.644   6.464
 3364POPC   C2B44096  40.969   5.715   6.764
 3364POPC   C3B44097  40.977   5.654   7.064
 3364POPC   C4B44098  40.897   5.656   7.364
 3365POPC   NC344099  26.836  23.704   5.564
 3365POPC   PO444100  26.815  23.713   5.864
 3365POPC   GL144101  26.827  23.701   6.164
 3365POPC   GL244102  26.846  23.824   6.164
 3365POPC   C1A44103  26.770  23.718   6.464
 3365POPC   D2A44104  26.798  23.755   6.764
 3365POPC   C3A44105  26.783  23.668   7.064
 3365POPC   C4A44106  26.859  23.757   7.364
 3365POPC   C1B44107  26.866  23.967   6.464
 3365POPC   C2B44108  26.907  23.953   6.764
 3365POPC   C3B44109  26.921  23.920   7.064
 3365POPC   C4B44110  26.842  23.984   7.364
 3366POPC   NC344111  15.147   2.787   5.564
 3366POPC   PO444112  15.171   2.737   5.864
 3366POPC   GL144113  15.216   2.790   6.164
 3366POPC   GL244114  15.104   2.849   6.164
 3366POPC   C1A44115  15.158   2.815   6.464
 3366POPC   D2A44116  15.134   2.716   6.764
 3366POPC   C3A44117  15.132   2.720   7.064
 3366POPC   C4A44118  15.178   2.720   7.364
 3366POPC   C1B44119  14.975   2.895   6.464
 3366POPC   C2B44120  14.939   2.916   6.764
 3366POPC   C3B44121  14.958   2.933   7.064
 3366POPC   C4B44122  15.005   2.925   7.364
 3367POPC   NC344123   9.730   2.038   5.564
 3367POPC   PO444124   9.724   2.024   5.864
 3367POPC   GL144125   9.776   2.020   6.164
 3367POPC   GL244126   9.657   2.108   6.164
 3367POPC   C1A44127   9.774   1.957   6.464
 3367POPC   D2A44128   9.739   1.997   6.764
 3367POPC   C3A44129   9.728   2.012   7.064
 3367POPC   C4A44130   9.751   2.012   7.364
 3367POPC   C1B44131   9.624   2.142   6.464
 3367POPC   C2B44132   9.584   2.184   6.764
 3367POPC   C3B44133   9.642   2.191   7.064
 3367POPC   C4B44134   9.574   2.186   7.364
 3368POPC   NC344135  22.192  33.812   5.564
 3368POPC   PO444136  22.153  33.787   5.864
 3368POPC   GL144137  22.146  33.818   6.164
 3368POPC   GL244138  22.052  33.756   6.164
 3368POPC   C1A44139  22.127  33.836   6.464
 3368POPC   D2A44140  22.171  33.791   6.764
 3368POPC   C3A44141  22.155  33.805   7.064
 3368POPC   C4A44142  22.133  33.829   7.364
 3368POPC   C1B44143  22.026  33.675   6.464
 3368POPC   C2B44144  21.930  33.615   6.764
 3368POPC   C3B44145  21.969  33.587   7.064
 3368POPC   C4B44146  21.970  33.645   7.364
 3369POPC   NC344147  12.864  22.967   5.564
 3369POPC   PO444148  12.852  22.979   5.864
 3369POPC   GL144149  12.866  22.939   6.164
 3369POPC   GL244150  12.907  22.979   6.164
 3369POPC   C1A44151  12.886  22.971   6.464
 3369POPC   D2A44152  12.820  22.906   6.764
 3369POPC   C3A44153  12.876  22.961   7.064
 3369POPC   C4A44154  12.868  22.933   7.364
 3369POPC   C1B44155  13.000  23.136   6.464
 3369POPC   C2B44156  13.014  23.141   6.764
 3369POPC   C3B44157  13.053  23.097   7.064
 3369POPC   C4B44158  13.089  23.053   7.364
 3370POPC   NC344159  19.824  33.048   5.564
 3370POPC   PO444160  19.846  33.049   5.864
 3370POPC   GL144161  19.870  33.073   6.164
 3370POPC   GL244162  19.884  33.116   6.164
 3370POPC   C1A44163  19.869  32.976   6.464
 3370POPC   D2A44164  19.835  32.999   6.764
 3370POPC   C3A44165  19.797  33.059   7.064
 3370POPC   C4A44166  19.847  32.993   7.364
 3370POPC   C1B44167  19.897  33.250   6.464
 3370POPC   C2B44168  19.817  33.295   6.764
 3370POPC   C3B44169  19.876  33.233   7.064
 3370POPC   C4B44170  19.878  33.263   7.364
 3371POPC   NC344171  26.810  33.787   5.564
 3371POPC   PO444172  26.830  33.833   5.864
 3371POPC   GL144173  26.800  33.777   6.164
 3371POPC   GL244174  26.686  33.805   6.164
 3371POPC   C1A44175  26.793  33.801   6.464
 3371POPC   D2A44176  26.804  33.769   6.764
 3371POPC   C3A44177  26.846  33.824   7.064
 3371POPC   C4A44178  26.829  33.830   7.364
 3371POPC   C1B44179  26.629  33.860   6.464
 3371POPC   C2B44180  26.580  33.925   6.764
 3371POPC   C3B44181  26.581  33.943   7.064
 3371POPC   C4B44182  26.547  33.917   7.364
 3372POPC   NC344183  29.887  36.879   5.564
 3372POPC   PO444184  29.917  36.904   5.864
 3372POPC   GL144185  29.908  36.880   6.164
 3372POPC   GL244186  30.040  36.994   6.164
 3372POPC   C1A44187  29.880  36.925   6.464
 3372POPC   D2A44188  29.913  36.908   6.764
 3372POPC   C3A44189  29.934  36.922   7.064
 3372POPC   C4A44190  29.939  36.904   7.364
 3372POPC   C1B44191  30.167  37.017   6.464
 3372POPC   C2B44192  30.174  36.992   6.764
 3372POPC   C3B44193  30.168  36.974   7.064
 3372POPC   C4B44194  30.200  37.018   7.364
 3373POPC   NC344195   9.742  13.624   5.564
 3373POPC   PO444196   9.711  13.643   5.864
 3373POPC   GL144197   9.790  13.669   6.164
 3373POPC   GL244198   9.834  13.527   6.164
 3373POPC   C1A44199   9.709  13.643   6.464
 3373POPC   D2A44200   9.739  13.593   6.764
 3373POPC   C3A44201   9.791  13.661   7.064
 3373POPC   C4A44202   9.744  13.638   7.364
 3373POPC   C1B44203   9.875  13.424   6.464
 3373POPC   C2B44204   9.892  13.422   6.764
 3373POPC   C3B44205   9.903  13.420   7.064
 3373POPC   C4B44206   9.883  13.427   7.364
 3374POPC   NC344207  16.764  18.292   5.564
 3374POPC   PO444208  16.752  18.320   5.864
 3374POPC   GL144209  16.728  18.271   6.164
 3374POPC   GL244210  16.650  18.409   6.164
 3374POPC   C1A44211  16.696  18.323   6.464
 3374POPC   D2A44212  16.717  18.313   6.764
 3374POPC   C3A44213  16.727  18.283   7.064
 3374POPC   C4A44214  16.700  18.284   7.364
 3374POPC   C1B44215  16.627  18.466   6.464
 3374POPC   C2B44216  16.617  18.498   6.764
 3374POPC   C3B44217  16.650  18.529   7.064
 3374POPC   C4B44218  16.626  18.497   7.364
 3375POPC   NC344219  24.470   5.125   5.564
 3375POPC   PO444220  24.477   5.116   5.864
 3375POPC   GL144221  24.461   5.082   6.164
 3375POPC   GL244222  24.335   5.131   6.164
 3375POPC   C1A44223  24.489   5.053   6.464
 3375POPC   D2A44224  24.510   5.141   6.764
 3375POPC   C3A44225  24.479   5.135   7.064
 3375POPC   C4A44226  24.440   5.107   7.364
 3375POPC   C1B44227  24.229   5.122   6.464
 3375POPC   C2B44228  24.262   5.108   6.764
 3375POPC   C3B44229  24.262   5.086   7.064
 3375POPC   C4B44230  24.288   5.113   7.364
 3376POPC   NC344231  27.588  34.553   5.564
 3376POPC   PO444232  27.583  34.537   5.864
 3376POPC   GL144233  27.563  34.568   6.164
 3376POPC   GL244234  27.601  34.664   6.164
 3376POPC   C1A44235  27.561  34.586   6.464
 3376POPC   D2A44236  27.612  34.536   6.764
 3376POPC   C3A44237  27.576  34.614   7.064
 3376POPC   C4A44238  27.581  34.605   7.364
 3376POPC   C1B44239  27.685  34.819   6.464
 3376POPC   C2B44240  27.713  34.764   6.764
 3376POPC   C3B44241  27.678  34.841   7.064
 3376POPC   C4B44242  27.724  34.797   7.364
 3377POPC   NC344243  20.658   6.688   5.564
 3377POPC   PO444244  20.614   6.607   5.864
 3377POPC   GL144245  20.591   6.645   6.164
 3377POPC   GL244246  20.603   6.554   6.164
 3377POPC   C1A44247  20.642   6.652   6.464
 3377POPC   D2A44248  20.608   6.618   6.764
 3377POPC   C3A44249  20.658   6.658   7.064
 3377POPC   C4A44250  20.641   6.643   7.364
 3377POPC   C1B44251  20.516   6.361   6.464
 3377POPC   C2B44252  20.503   6.377   6.764
 3377POPC   C3B44253  20.547   6.396   7.064
 3377POPC   C4B44254  20.522   6.378   7.364
 3378POPC   NC344255  19.038  34.614   5.564
 3378POPC   PO444256  19.040  34.539   5.864
 3378POPC   GL144257  19.062  34.540   6.164
 3378POPC   GL244258  19.141  34.500   6.164
 3378POPC   C1A44259  19.035  34.620   6.464
 3378POPC   D2A44260  19.098  34.551   6.764
 3378POPC   C3A44261  19.101  34.543   7.064
 3378POPC   C4A44262  19.038  34.530   7.364
 3378POPC   C1B44263  19.171  34.396   6.464
 3378POPC   C2B44264  19.143  34.315   6.764
 3378POPC   C3B44265  19.192  34.345   7.064
 3378POPC   C4B44266  19.194  34.346   7.364
 3379POPC   NC344267  29.144  22.202   5.564
 3379POPC   PO444268  29.127  22.124   5.864
 3379POPC   GL144269  29.108  22.164   6.164
 3379POPC   GL244270  29.058  22.035   6.164
 3379POPC   C1A44271  29.100  22.193   6.464
 3379POPC   D2A44272  29.119  22.133   6.764
 3379POPC   C3A44273  29.102  22.161   7.064
 3379POPC   C4A44274  29.158  22.175   7.364
 3379POPC   C1B44275  29.006  21.912   6.464
 3379POPC   C2B44276  29.012  21.904   6.764
 3379POPC   C3B44277  29.082  21.950   7.064
 3379POPC   C4B44278  29.038  21.958   7.364
 3380POPC   NC344279  28.382  32.994   5.564
 3380POPC   PO444280  28.327  33.056   5.864
 3380POPC   GL144281  28.339  32.981   6.164
 3380POPC   GL244282  28.502  33.023   6.164
 3380POPC   C1A44283  28.392  33.065   6.464
 3380POPC   D2A44284  28.388  33.029   6.764
 3380POPC   C3A44285  28.352  33.006   7.064
 3380POPC   C4A44286  28.342  32.990   7.364
 3380POPC   C1B44287  28.589  33.011   6.464
 3380POPC   C2B44288  28.647  33.021   6.764
 3380POPC   C3B44289  28.652  32.994   7.064
 3380POPC   C4B44290  28.664  33.006   7.364
 3381POPC   NC344291  25.294   5.904   5.564
 3381POPC   PO444292  25.251   5.848   5.864
 3381POPC   GL144293  25.235   5.845   6.164
 3381POPC   GL244294  25.397   5.947   6.164
 3381POPC   C1A44295  25.250   5.823   6.464
 3381POPC   D2A44296  25.233   5.915   6.764
 3381POPC   C3A44297  25.304   5.856   7.064
 3381POPC   C4A44298  25.281   5.906   7.364
 3381POPC   C1B44299  25.464   5.951   6.464
 3381POPC   C2B44300  25.513   6.002   6.764
 3381POPC   C3B44301  25.482   6.020   7.064
 3381POPC   C4B44302  25.492   5.979   7.364
 3382POPC   NC344303  40.821  25.999   5.564
 3382POPC   PO444304  40.825  26.005   5.864
 3382POPC   GL144305  40.807  26.005   6.164
 3382POPC   GL244306  40.862  26.085   6.164
 3382POPC   C1A44307  40.815  25.995   6.464
 3382POPC   D2A44308  40.769  26.048   6.764
 3382POPC   C3A44309  40.764  26.054   7.064
 3382POPC   C4A44310  40.828  25.999   7.364
 3382POPC   C1B44311  41.003  26.079   6.464
 3382POPC   C2B44312  41.069  25.997   6.764
 3382POPC   C3B44313  41.078  26.068   7.064
 3382POPC   C4B44314  41.015  26.066   7.364
 3383POPC   NC344315   5.869  26.823   5.564
 3383POPC   PO444316   5.896  26.774   5.864
 3383POPC   GL144317   5.838  26.860   6.164
 3383POPC   GL244318   5.969  26.770   6.164
 3383POPC   C1A44319   5.845  26.812   6.464
 3383POPC   D2A44320   5.824  26.808   6.764
 3383POPC   C3A44321   5.889  26.782   7.064
 3383POPC   C4A44322   5.831  26.815   7.364
 3383POPC   C1B44323   6.046  26.631   6.464
 3383POPC   C2B44324   6.041  26.690   6.764
 3383POPC   C3B44325   6.071  26.675   7.064
 3383POPC   C4B44326   6.063  26.639   7.364
 3384POPC   NC344327   7.445  40.030   5.564
 3384POPC   PO444328   7.391  39.981   5.864
 3384POPC   GL144329   7.451  40.037   6.164
 3384POPC   GL244330   7.519  40.044   6.164
 3384POPC   C1A44331   7.427  39.974   6.464
 3384POPC   D2A44332   7.420  40.038   6.764
 3384POPC   C3A44333   7.459  39.987   7.064
 3384POPC   C4A44334   7.444  40.002   7.364
 3384POPC   C1B44335   7.630  40.162   6.464
 3384POPC   C2B44336   7.635  40.158   6.764
 3384POPC   C3B44337   7.647  40.152   7.064
 3384POPC   C4B44338   7.678  40.114   7.364
 3385POPC   NC344339  32.286   1.958   5.564
 3385POPC   PO444340  32.255   2.016   5.864
 3385POPC   GL144341  32.253   1.949   6.164
 3385POPC   GL244342  32.341   1.915   6.164
 3385POPC   C1A44343  32.221   1.978   6.464
 3385POPC   D2A44344  32.228   1.975   6.764
 3385POPC   C3A44345  32.201   1.980   7.064
 3385POPC   C4A44346  32.229   2.019   7.364
 3385POPC   C1B44347  32.457   1.811   6.464
 3385POPC   C2B44348  32.377   1.788   6.764
 3385POPC   C3B44349  32.454   1.796   7.064
 3385POPC   C4B44350  32.457   1.858   7.364
 3386POPC   NC344351   0.477  44.623   5.564
 3386POPC   PO444352   0.418  44.687   5.864
 3386POPC   GL144353   0.441  44.689   6.164
 3386POPC   GL244354   0.524  44.598   6.164
 3386POPC   C1A44355   0.392  44.694   6.464
 3386POPC   D2A44356   0.412  44.646   6.764
 3386POPC   C3A44357   0.394  44.660   7.064
 3386POPC   C4A44358   0.402  44.669   7.364
 3386POPC   C1B44359   0.598  44.466   6.464
 3386POPC   C2B44360   0.587  44.438   6.764
 3386POPC   C3B44361   0.552  44.436   7.064
 3386POPC   C4B44362   0.612  44.493   7.364
 3387POPC   NC344363   9.731   6.631   5.564
 3387POPC   PO444364   9.729   6.619   5.864
 3387POPC   GL144365   9.718   6.630   6.164
 3387POPC   GL244366   9.890   6.662   6.164
 3387POPC   C1A44367   9.742   6.639   6.464
 3387POPC   D2A44368   9.707   6.667   6.764
 3387POPC   C3A44369   9.756   6.597   7.064
 3387POPC   C4A44370   9.759   6.680   7.364
 3387POPC   C1B44371   9.975   6.752   6.464
 3387POPC   C2B44372  10.031   6.717   6.764
 3387POPC   C3B44373   9.944   6.723   7.064
 3387POPC   C4B44374   9.987   6.748   7.364
 3388POPC   NC344375   5.101  34.589   5.564
 3388POPC   PO444376   5.135  34.604   5.864
 3388POPC   GL144377   5.139  34.540   6.164
 3388POPC   GL244378   5.194  34.575   6.164
 3388POPC   C1A44379   5.127  34.611   6.464
 3388POPC   D2A44380   5.122  34.620   6.764
 3388POPC   C3A44381   5.049  34.572   7.064
 3388POPC   C4A44382   5.105  34.559   7.364
 3388POPC   C1B44383   5.366  34.517   6.464
 3388POPC   C2B44384   5.344  34.452   6.764
 3388POPC   C3B44385   5.333  34.536   7.064
 3388POPC   C4B44386   5.332  34.536   7.364
 3389POPC   NC344387  20.566  42.379   5.564
 3389POPC   PO444388  20.621  42.357   5.864
 3389POPC   GL144389  20.630  42.297   6.164
 3389POPC   GL244390  20.640  42.202   6.164
 3389POPC   C1A44391  20.609  42.307   6.464
 3389POPC   D2A44392  20.561  42.369   6.764
 3389POPC   C3A44393  20.633  42.292   7.064
 3389POPC   C4A44394  20.606  42.336   7.364
 3389POPC   C1B44395  20.619  42.059   6.464
 3389POPC   C2B44396  20.589  42.111   6.764
 3389POPC   C3B44397  20.593  42.088   7.064
 3389POPC   C4B44398  20.574  42.124   7.364
 3390POPC   NC344399  22.980  29.969   5.564
 3390POPC   PO444400  22.889  29.927   5.864
 3390POPC   GL144401  22.986  29.902   6.164
 3390POPC   GL244402  23.020  29.897   6.164
 3390POPC   C1A44403  22.978  29.881   6.464
 3390POPC   D2A44404  22.896  29.913   6.764
 3390POPC   C3A44405  22.959  29.914   7.064
 3390POPC   C4A44406  22.967  29.902   7.364
 3390POPC   C1B44407  23.148  29.979   6.464
 3390POPC   C2B44408  23.195  29.977   6.764
 3390POPC   C3B44409  23.191  29.919   7.064
 3390POPC   C4B44410  23.180  29.909   7.364
 3391POPC   NC344411  22.981   7.409   5.564
 3391POPC   PO444412  22.945   7.376   5.864
 3391POPC   GL144413  22.953   7.382   6.164
 3391POPC   GL244414  22.926   7.345   6.164
 3391POPC   C1A44415  22.978   7.458   6.464
 3391POPC   D2A44416  22.946   7.392   6.764
 3391POPC   C3A44417  22.963   7.437   7.064
 3391POPC   C4A44418  22.979   7.420   7.364
 3391POPC   C1B44419  22.825   7.144   6.464
 3391POPC   C2B44420  22.885   7.181   6.764
 3391POPC   C3B44421  22.876   7.205   7.064
 3391POPC   C4B44422  22.853   7.212   7.364
 3392POPC   NC344423  19.819  39.221   5.564
 3392POPC   PO444424  19.824  39.233   5.864
 3392POPC   GL144425  19.834  39.278   6.164
 3392POPC   GL244426  19.934  39.352   6.164
 3392POPC   C1A44427  19.844  39.195   6.464
 3392POPC   D2A44428  19.809  39.223   6.764
 3392POPC   C3A44429  19.853  39.218   7.064
 3392POPC   C4A44430  19.837  39.192   7.364
 3392POPC   C1B44431  19.983  39.489   6.464
 3392POPC   C2B44432  19.958  39.391   6.764
 3392POPC   C3B44433  19.970  39.425   7.064
 3392POPC   C4B44434  19.934  39.451   7.364
 3393POPC   NC344435  36.860   4.361   5.564
 3393POPC   PO444436  36.898   4.325   5.864
 3393POPC   GL144437  36.910   4.350   6.164
 3393POPC   GL244438  36.750   4.296   6.164
 3393POPC   C1A44439  36.942   4.351   6.464
 3393POPC   D2A44440  36.952   4.337   6.764
 3393POPC   C3A44441  36.904   4.306   7.064
 3393POPC   C4A44442  36.941   4.301   7.364
 3393POPC   C1B44443  36.668   4.357   6.464
 3393POPC   C2B44444  36.669   4.379   6.764
 3393POPC   C3B44445  36.609   4.338   7.064
 3393POPC   C4B44446  36.652   4.366   7.364
 3394POPC   NC344447  22.932  29.154   5.564
 3394POPC   PO444448  22.958  29.136   5.864
 3394POPC   GL144449  22.956  29.112   6.164
 3394POPC   GL244450  22.916  29.218   6.164
 3394POPC   C1A44451  22.940  29.098   6.464
 3394POPC   D2A44452  22.933  29.167   6.764
 3394POPC   C3A44453  22.974  29.102   7.064
 3394POPC   C4A44454  22.894  29.124   7.364
 3394POPC   C1B44455  22.875  29.343   6.464
 3394POPC   C2B44456  22.823  29.388   6.764
 3394POPC   C3B44457  22.891  29.363   7.064
 3394POPC   C4B44458  22.909  29.338   7.364
 3395POPC   NC344459  22.155  24.504   5.564
 3395POPC   PO444460  22.153  24.458   5.864
 3395POPC   GL144461  22.120  24.524   6.164
 3395POPC   GL244462  22.083  24.368   6.164
 3395POPC   C1A44463  22.116  24.490   6.464
 3395POPC   D2A44464  22.203  24.519   6.764
 3395POPC   C3A44465  22.179  24.521   7.064
 3395POPC   C4A44466  22.122  24.469   7.364
 3395POPC   C1B44467  22.085  24.229   6.464
 3395POPC   C2B44468  22.017  24.317   6.764
 3395POPC   C3B44469  22.018  24.265   7.064
 3395POPC   C4B44470  21.991  24.279   7.364
 3396POPC   NC344471   1.228  12.813   5.564
 3396POPC   PO444472   1.181  12.814   5.864
 3396POPC   GL144473   1.247  12.889   6.164
 3396POPC   GL244474   1.242  12.718   6.164
 3396POPC   C1A44475   1.237  12.855   6.464
 3396POPC   D2A44476   1.198  12.816   6.764
 3396POPC   C3A44477   1.200  12.831   7.064
 3396POPC   C4A44478   1.174  12.814   7.364
 3396POPC   C1B44479   1.271  12.598   6.464
 3396POPC   C2B44480   1.297  12.617   6.764
 3396POPC   C3B44481   1.292  12.591   7.064
 3396POPC   C4B44482   1.283  12.627   7.364
 3397POPC   NC344483  32.206  21.338   5.564
 3397POPC   PO444484  32.265  21.363   5.864
 3397POPC   GL144485  32.289  21.375   6.164
 3397POPC   GL244486  32.373  21.427   6.164
 3397POPC   C1A44487  32.206  21.415   6.464
 3397POPC   D2A44488  32.203  21.344   6.764
 3397POPC   C3A44489  32.235  21.390   7.064
 3397POPC   C4A44490  32.250  21.402   7.364
 3397POPC   C1B44491  32.450  21.508   6.464
 3397POPC   C2B44492  32.451  21.502   6.764
 3397POPC   C3B44493  32.439  21.532   7.064
 3397POPC   C4B44494  32.484  21.444   7.364
 3398POPC   NC344495   5.903  44.670   5.564
 3398POPC   PO444496   5.833  44.694   5.864
 3398POPC   GL144497   5.880  44.685   6.164
 3398POPC   GL244498   5.889  44.546   6.164
 3398POPC   C1A44499   5.875  44.667   6.464
 3398POPC   D2A44500   5.858  44.692   6.764
 3398POPC   C3A44501   5.833  44.620   7.064
 3398POPC   C4A44502   5.893  44.705   7.364
 3398POPC   C1B44503   5.983  44.381   6.464
 3398POPC   C2B44504   5.975  44.399   6.764
 3398POPC   C3B44505   6.001  44.463   7.064
 3398POPC   C4B44506   5.947  44.388   7.364
 3399POPC   NC344507  36.157  15.207   5.564
 3399POPC   PO444508  36.145  15.224   5.864
 3399POPC   GL144509  36.146  15.131   6.164
 3399POPC   GL244510  36.117  15.026   6.164
 3399POPC   C1A44511  36.093  15.219   6.464
 3399POPC   D2A44512  36.085  15.208   6.764
 3399POPC   C3A44513  36.114  15.217   7.064
 3399POPC   C4A44514  36.118  15.181   7.364
 3399POPC   C1B44515  36.090  14.967   6.464
 3399POPC   C2B44516  36.101  14.953   6.764
 3399POPC   C3B44517  36.063  14.908   7.064
 3399POPC   C4B44518  36.017  14.940   7.364
 3400POPC   NC344519  43.089  40.017   5.564
 3400POPC   PO444520  43.125  40.008   5.864
 3400POPC   GL144521  43.130  40.008   6.164
 3400POPC   GL244522  43.184  40.137   6.164
 3400POPC   C1A44523  43.102  39.997   6.464
 3400POPC   D2A44524  43.107  39.989   6.764
 3400POPC   C3A44525  43.074  40.043   7.064
 3400POPC   C4A44526  43.094  40.001   7.364
 3400POPC   C1B44527  43.305  40.231   6.464
 3400POPC   C2B44528  43.240  40.226   6.764
 3400POPC   C3B44529  43.223  40.157   7.064
 3400POPC   C4B44530  43.248  40.237   7.364
 3401POPC   NC344531  22.924  27.625   5.564
 3401POPC   PO444532  22.894  27.576   5.864
 3401POPC   GL144533  22.978  27.606   6.164
 3401POPC   GL244534  22.934  27.441   6.164
 3401POPC   C1A44535  22.892  27.574   6.464
 3401POPC   D2A44536  22.968  27.562   6.764
 3401POPC   C3A44537  22.954  27.615   7.064
 3401POPC   C4A44538  22.973  27.554   7.364
 3401POPC   C1B44539  22.969  27.372   6.464
 3401POPC   C2B44540  22.980  27.388   6.764
 3401POPC   C3B44541  22.966  27.320   7.064
 3401POPC   C4B44542  22.944  27.341   7.364
 3402POPC   NC344543   9.739   4.349   5.564
 3402POPC   PO444544   9.785   4.272   5.864
 3402POPC   GL144545   9.749   4.316   6.164
 3402POPC   GL244546   9.868   4.226   6.164
 3402POPC   C1A44547   9.752   4.351   6.464
 3402POPC   D2A44548   9.751   4.346   6.764
 3402POPC   C3A44549   9.758   4.366   7.064
 3402POPC   C4A44550   9.737   4.348   7.364
 3402POPC   C1B44551   9.995   4.235   6.464
 3402POPC   C2B44552   9.963   4.229   6.764
 3402POPC   C3B44553   9.921   4.203   7.064
 3402POPC   C4B44554   9.925   4.161   7.364
 3403POPC   NC344555  35.394   5.131   5.564
 3403POPC   PO444556  35.386   5.078   5.864
 3403POPC   GL144557  35.312   5.061   6.164
 3403POPC   GL244558  35.218   5.128   6.164
 3403POPC   C1A44559  35.389   5.067   6.464
 3403POPC   D2A44560  35.314   5.099   6.764
 3403POPC   C3A44561  35.329   5.077   7.064
 3403POPC   C4A44562  35.326   5.072   7.364
 3403POPC   C1B44563  35.121   5.101   6.464
 3403POPC   C2B44564  35.128   5.077   6.764
 3403POPC   C3B44565  35.132   5.086   7.064
 3403POPC   C4B44566  35.095   5.061   7.364
 3404POPC   NC344567  17.490  36.130   5.564
 3404POPC   PO444568  17.474  36.125   5.864
 3404POPC   GL144569  17.532  36.135   6.164
 3404POPC   GL244570  17.564  36.213   6.164
 3404POPC   C1A44571  17.481  36.103   6.464
 3404POPC   D2A44572  17.524  36.079   6.764
 3404POPC   C3A44573  17.553  36.163   7.064
 3404POPC   C4A44574  17.506  36.095   7.364
 3404POPC   C1B44575  17.714  36.256   6.464
 3404POPC   C2B44576  17.651  36.244   6.764
 3404POPC   C3B44577  17.663  36.342   7.064
 3404POPC   C4B44578  17.695  36.268   7.364
 3405POPC   NC344579   8.926  15.228   5.564
 3405POPC   PO444580   9.004  15.145   5.864
 3405POPC   GL144581   8.941  15.140   6.164
 3405POPC   GL244582   9.049  15.049   6.164
 3405POPC   C1A44583   8.935  15.149   6.464
 3405POPC   D2A44584   9.007  15.158   6.764
 3405POPC   C3A44585   8.939  15.202   7.064
 3405POPC   C4A44586   8.969  15.150   7.364
 3405POPC   C1B44587   9.064  14.941   6.464
 3405POPC   C2B44588   9.112  15.008   6.764
 3405POPC   C3B44589   9.147  14.963   7.064
 3405POPC   C4B44590   9.124  14.969   7.364
 3406POPC   NC344591  36.952  27.559   5.564
 3406POPC   PO444592  36.917  27.596   5.864
 3406POPC   GL144593  36.904  27.604   6.164
 3406POPC   GL244594  37.043  27.493   6.164
 3406POPC   C1A44595  36.924  27.557   6.464
 3406POPC   D2A44596  36.910  27.572   6.764
 3406POPC   C3A44597  36.929  27.640   7.064
 3406POPC   C4A44598  36.953  27.591   7.364
 3406POPC   C1B44599  37.144  27.451   6.464
 3406POPC   C2B44600  37.154  27.408   6.764
 3406POPC   C3B44601  37.099  27.433   7.064
 3406POPC   C4B44602  37.123  27.492   7.364
 3407POPC   NC344603  44.625   5.104   5.564
 3407POPC   PO444604  44.666   5.114   5.864
 3407POPC   GL144605  44.621   5.084   6.164
 3407POPC   GL244606  44.532   5.007   6.164
 3407POPC   C1A44607  44.697   5.045   6.464
 3407POPC   D2A44608  44.653   5.139   6.764
 3407POPC   C3A44609  44.675   5.077   7.064
 3407POPC   C4A44610  44.682   5.090   7.364
 3407POPC   C1B44611  44.461   4.945   6.464
 3407POPC   C2B44612  44.431   4.937   6.764
 3407POPC   C3B44613  44.481   4.985   7.064
 3407POPC   C4B44614  44.446   4.927   7.364
 3408POPC   NC344615  25.259  31.451   5.564
 3408POPC   PO444616  25.313  31.492   5.864
 3408POPC   GL144617  25.238  31.454   6.164
 3408POPC   GL244618  25.132  31.538   6.164
 3408POPC   C1A44619  25.231  31.455   6.464
 3408POPC   D2A44620  25.228  31.467   6.764
 3408POPC   C3A44621  25.310  31.468   7.064
 3408POPC   C4A44622  25.224  31.515   7.364
 3408POPC   C1B44623  25.068  31.575   6.464
 3408POPC   C2B44624  25.076  31.597   6.764
 3408POPC   C3B44625  25.035  31.546   7.064
 3408POPC   C4B44626  25.078  31.523   7.364
 3409POPC   NC344627  43.842  28.371   5.564
 3409POPC   PO444628  43.931  28.383   5.864
 3409POPC   GL144629  43.908  28.403   6.164
 3409POPC   GL244630  43.926  28.212   6.164
 3409POPC   C1A44631  43.883  28.391   6.464
 3409POPC   D2A44632  43.897  28.415   6.764
 3409POPC   C3A44633  43.871  28.368   7.064
 3409POPC   C4A44634  43.847  28.368   7.364
 3409POPC   C1B44635  43.942  28.144   6.464
 3409POPC   C2B44636  43.959  28.149   6.764
 3409POPC   C3B44637  43.924  28.153   7.064
 3409POPC   C4B44638  43.932  28.104   7.364
 3410POPC   NC344639   5.835  24.464   5.564
 3410POPC   PO444640   5.856  24.452   5.864
 3410POPC   GL144641   5.827  24.479   6.164
 3410POPC   GL244642   5.850  24.364   6.164
 3410POPC   C1A44643   5.844  24.452   6.464
 3410POPC   D2A44644   5.833  24.527   6.764
 3410POPC   C3A44645   5.825  24.482   7.064
 3410POPC   C4A44646   5.828  24.449   7.364
 3410POPC   C1B44647   5.848  24.287   6.464
 3410POPC   C2B44648   5.811  24.247   6.764
 3410POPC   C3B44649   5.840  24.208   7.064
 3410POPC   C4B44650   5.771  24.274   7.364
 3411POPC   NC344651  25.271  20.621   5.564
 3411POPC   PO444652  25.264  20.643   5.864
 3411POPC   GL144653  25.239  20.562   6.164
 3411POPC   GL244654  25.139  20.494   6.164
 3411POPC   C1A44655  25.217  20.633   6.464
 3411POPC   D2A44656  25.264  20.633   6.764
 3411POPC   C3A44657  25.225  20.622   7.064
 3411POPC   C4A44658  25.248  20.563   7.364
 3411POPC   C1B44659  25.079  20.391   6.464
 3411POPC   C2B44660  25.144  20.420   6.764
 3411POPC   C3B44661  25.092  20.423   7.064
 3411POPC   C4B44662  25.136  20.453   7.364
 3412POPC   NC344663  33.019   9.017   5.564
 3412POPC   PO444664  32.975   9.002   5.864
 3412POPC   GL144665  33.063   8.962   6.164
 3412POPC   GL244666  33.058   9.063   6.164
 3412POPC   C1A44667  33.034   8.962   6.464
 3412POPC   D2A44668  33.042   8.986   6.764
 3412POPC   C3A44669  32.978   8.950   7.064
 3412POPC   C4A44670  33.061   8.990   7.364
 3412POPC   C1B44671  33.061   9.221   6.464
 3412POPC   C2B44672  32.995   9.239   6.764
 3412POPC   C3B44673  33.031   9.248   7.064
 3412POPC   C4B44674  33.027   9.178   7.364
 3413POPC   NC344675  15.986  39.194   5.564
 3413POPC   PO444676  15.962  39.237   5.864
 3413POPC   GL144677  15.965  39.222   6.164
 3413POPC   GL244678  16.063  39.154   6.164
 3413POPC   C1A44679  15.959  39.207   6.464
 3413POPC   D2A44680  15.971  39.182   6.764
 3413POPC   C3A44681  15.919  39.260   7.064
 3413POPC   C4A44682  15.982  39.195   7.364
 3413POPC   C1B44683  16.228  39.111   6.464
 3413POPC   C2B44684  16.185  39.151   6.764
 3413POPC   C3B44685  16.229  39.083   7.064
 3413POPC   C4B44686  16.197  39.110   7.364
 3414POPC   NC344687   8.938  38.432   5.564
 3414POPC   PO444688   8.953  38.416   5.864
 3414POPC   GL144689   8.963  38.435   6.164
 3414POPC   GL244690   8.881  38.465   6.164
 3414POPC   C1A44691   8.965  38.484   6.464
 3414POPC   D2A44692   9.008  38.406   6.764
 3414POPC   C3A44693   8.970  38.470   7.064
 3414POPC   C4A44694   8.990  38.430   7.364
 3414POPC   C1B44695   8.712  38.534   6.464
 3414POPC   C2B44696   8.759  38.573   6.764
 3414POPC   C3B44697   8.768  38.543   7.064
 3414POPC   C4B44698   8.736  38.543   7.364
 3415POPC   NC344699  13.594   5.047   5.564
 3415POPC   PO444700  13.675   5.077   5.864
 3415POPC   GL144701  13.648   5.140   6.164
 3415POPC   GL244702  13.469   5.023   6.164
 3415POPC   C1A44703  13.619   5.139   6.464
 3415POPC   D2A44704  13.601   5.068   6.764
 3415POPC   C3A44705  13.619   5.142   7.064
 3415POPC   C4A44706  13.655   5.128   7.364
 3415POPC   C1B44707  13.356   4.978   6.464
 3415POPC   C2B44708  13.410   5.011   6.764
 3415POPC   C3B44709  13.359   4.997   7.064
 3415POPC   C4B44710  13.442   4.966   7.364
 3416POPC   NC344711  42.319  28.391   5.564
 3416POPC   PO444712  42.367  28.336   5.864
 3416POPC   GL144713  42.369  28.379   6.164
 3416POPC   GL244714  42.429  28.359   6.164
 3416POPC   C1A44715  42.327  28.409   6.464
 3416POPC   D2A44716  42.311  28.408   6.764
 3416POPC   C3A44717  42.295  28.398   7.064
 3416POPC   C4A44718  42.322  28.390   7.364
 3416POPC   C1B44719  42.567  28.386   6.464
 3416POPC   C2B44720  42.621  28.358   6.764
 3416POPC   C3B44721  42.572  28.350   7.064
 3416POPC   C4B44722  42.562  28.352   7.364
 3417POPC   NC344723   1.165   1.199   5.564
 3417POPC   PO444724   1.254   1.225   5.864
 3417POPC   GL144725   1.221   1.212   6.164
 3417POPC   GL244726   1.310   1.328   6.164
 3417POPC   C1A44727   1.237   1.209   6.464
 3417POPC   D2A44728   1.197   1.168   6.764
 3417POPC   C3A44729   1.240   1.222   7.064
 3417POPC   C4A44730   1.202   1.236   7.364
 3417POPC   C1B44731   1.438   1.386   6.464
 3417POPC   C2B44732   1.420   1.389   6.764
 3417POPC   C3B44733   1.385   1.393   7.064
 3417POPC   C4B44734   1.407   1.387   7.364
 3418POPC   NC344735  40.006  20.647   5.564
 3418POPC   PO444736  40.015  20.646   5.864
 3418POPC   GL144737  40.013  20.656   6.164
 3418POPC   GL244738  39.870  20.628   6.164
 3418POPC   C1A44739  40.028  20.633   6.464
 3418POPC   D2A44740  40.050  20.637   6.764
 3418POPC   C3A44741  39.971  20.569   7.064
 3418POPC   C4A44742  39.983  20.637   7.364
 3418POPC   C1B44743  39.762  20.626   6.464
 3418POPC   C2B44744  39.735  20.629   6.764
 3418POPC   C3B44745  39.746  20.556   7.064
 3418POPC   C4B44746  39.782  20.557   7.364
 3419POPC   NC344747  37.723   3.499   5.564
 3419POPC   PO444748  37.715   3.527   5.864
 3419POPC   GL144749  37.709   3.514   6.164
 3419POPC   GL244750  37.735   3.427   6.164
 3419POPC   C1A44751  37.704   3.519   6.464
 3419POPC   D2A44752  37.675   3.573   6.764
 3419POPC   C3A44753  37.698   3.558   7.064
 3419POPC   C4A44754  37.636   3.534   7.364
 3419POPC   C1B44755  37.683   3.261   6.464
 3419POPC   C2B44756  37.727   3.277   6.764
 3419POPC   C3B44757  37.700   3.246   7.064
 3419POPC   C4B44758  37.649   3.257   7.364
 3420POPC   NC344759  39.233  15.195   5.564
 3420POPC   PO444760  39.250  15.137   5.864
 3420POPC   GL144761  39.188  15.138   6.164
 3420POPC   GL244762  39.294  15.123   6.164
 3420POPC   C1A44763  39.244  15.153   6.464
 3420POPC   D2A44764  39.191  15.155   6.764
 3420POPC   C3A44765  39.279  15.202   7.064
 3420POPC   C4A44766  39.195  15.211   7.364
 3420POPC   C1B44767  39.428  15.042   6.464
 3420POPC   C2B44768  39.433  15.009   6.764
 3420POPC   C3B44769  39.410  15.024   7.064
 3420POPC   C4B44770  39.402  15.037   7.364
 3421POPC   NC344771  20.589   8.999   5.564
 3421POPC   PO444772  20.650   9.021   5.864
 3421POPC   GL144773  20.645   8.940   6.164
 3421POPC   GL244774  20.519   9.001   6.164
 3421POPC   C1A44775  20.571   9.018   6.464
 3421POPC   D2A44776  20.599   8.977   6.764
 3421POPC   C3A44777  20.631   8.933   7.064
 3421POPC   C4A44778  20.607   8.990   7.364
 3421POPC   C1B44779  20.438   9.111   6.464
 3421POPC   C2B44780  20.402   9.090   6.764
 3421POPC   C3B44781  20.367   9.148   7.064
 3421POPC   C4B44782  20.346   9.112   7.364
 3422POPC   NC344783  33.050  41.577   5.564
 3422POPC   PO444784  33.011  41.536   5.864
 3422POPC   GL144785  32.998  41.578   6.164
 3422POPC   GL244786  33.079  41.647   6.164
 3422POPC   C1A44787  33.021  41.555   6.464
 3422POPC   D2A44788  33.011  41.576   6.764
 3422POPC   C3A44789  32.985  41.565   7.064
 3422POPC   C4A44790  33.071  41.556   7.364
 3422POPC   C1B44791  33.177  41.790   6.464
 3422POPC   C2B44792  33.127  41.790   6.764
 3422POPC   C3B44793  33.161  41.766   7.064
 3422POPC   C4B44794  33.149  41.803   7.364
 3423POPC   NC344795  11.292  27.570   5.564
 3423POPC   PO444796  11.341  27.637   5.864
 3423POPC   GL144797  11.266  27.578   6.164
 3423POPC   GL244798  11.309  27.446   6.164
 3423POPC   C1A44799  11.270  27.625   6.464
 3423POPC   D2A44800  11.297  27.591   6.764
 3423POPC   C3A44801  11.338  27.623   7.064
 3423POPC   C4A44802  11.285  27.588   7.364
 3423POPC   C1B44803  11.354  27.378   6.464
 3423POPC   C2B44804  11.321  27.344   6.764
 3423POPC   C3B44805  11.413  27.376   7.064
 3423POPC   C4B44806  11.380  27.364   7.364
 3424POPC   NC344807  16.683  15.975   5.564
 3424POPC   PO444808  16.701  15.929   5.864
 3424POPC   GL144809  16.690  15.999   6.164
 3424POPC   GL244810  16.834  16.071   6.164
 3424POPC   C1A44811  16.692  16.003   6.464
 3424POPC   D2A44812  16.695  15.981   6.764
 3424POPC   C3A44813  16.711  16.000   7.064
 3424POPC   C4A44814  16.711  15.966   7.364
 3424POPC   C1B44815  16.952  16.161   6.464
 3424POPC   C2B44816  16.856  16.154   6.764
 3424POPC   C3B44817  16.939  16.136   7.064
 3424POPC   C4B44818  16.943  16.120   7.364
 3425POPC   NC344819  35.368  40.007   5.564
 3425POPC   PO444820  35.370  39.984   5.864
 3425POPC   GL144821  35.340  40.049   6.164
 3425POPC   GL244822  35.357  40.168   6.164
 3425POPC   C1A44823  35.393  39.967   6.464
 3425POPC   D2A44824  35.392  40.028   6.764
 3425POPC   C3A44825  35.304  40.012   7.064
 3425POPC   C4A44826  35.309  40.039   7.364
 3425POPC   C1B44827  35.461  40.291   6.464
 3425POPC   C2B44828  35.401  40.267   6.764
 3425POPC   C3B44829  35.473  40.220   7.064
 3425POPC   C4B44830  35.473  40.244   7.364
 3426POPC   NC344831  12.875  25.267   5.564
 3426POPC   PO444832  12.842  25.218   5.864
 3426POPC   GL144833  12.861  25.232   6.164
 3426POPC   GL244834  12.768  25.271   6.164
 3426POPC   C1A44835  12.825  25.238   6.464
 3426POPC   D2A44836  12.823  25.235   6.764
 3426POPC   C3A44837  12.825  25.313   7.064
 3426POPC   C4A44838  12.817  25.306   7.364
 3426POPC   C1B44839  12.572  25.247   6.464
 3426POPC   C2B44840  12.602  25.242   6.764
 3426POPC   C3B44841  12.604  25.173   7.064
 3426POPC   C4B44842  12.593  25.255   7.364
 3427POPC   NC344843   8.985  37.724   5.564
 3427POPC   PO444844   9.000  37.645   5.864
 3427POPC   GL144845   8.973  37.727   6.164
 3427POPC   GL244846   8.916  37.579   6.164
 3427POPC   C1A44847   8.935  37.644   6.464
 3427POPC   D2A44848   8.992  37.663   6.764
 3427POPC   C3A44849   9.006  37.724   7.064
 3427POPC   C4A44850   8.943  37.717   7.364
 3427POPC   C1B44851   8.808  37.507   6.464
 3427POPC   C2B44852   8.765  37.529   6.764
 3427POPC   C3B44853   8.799  37.506   7.064
 3427POPC   C4B44854   8.805  37.439   7.364
 3428POPC   NC344855  43.154   3.567   5.564
 3428POPC   PO444856  43.160   3.554   5.864
 3428POPC   GL144857  43.068   3.574   6.164
 3428POPC   GL244858  43.224   3.634   6.164
 3428POPC   C1A44859  43.105   3.539   6.464
 3428POPC   D2A44860  43.126   3.575   6.764
 3428POPC   C3A44861  43.093   3.586   7.064
 3428POPC   C4A44862  43.110   3.496   7.364
 3428POPC   C1B44863  43.327   3.641   6.464
 3428POPC   C2B44864  43.387   3.658   6.764
 3428POPC   C3B44865  43.318   3.634   7.064
 3428POPC   C4B44866  43.386   3.600   7.364
 3429POPC   NC344867  22.166  18.269   5.564
 3429POPC   PO444868  22.174  18.285   5.864
 3429POPC   GL144869  22.145  18.273   6.164
 3429POPC   GL244870  22.017  18.187   6.164
 3429POPC   C1A44871  22.180  18.251   6.464
 3429POPC   D2A44872  22.191  18.272   6.764
 3429POPC   C3A44873  22.124  18.269   7.064
 3429POPC   C4A44874  22.200  18.272   7.364
 3429POPC   C1B44875  21.882  18.177   6.464
 3429POPC   C2B44876  21.897  18.149   6.764
 3429POPC   C3B44877  21.972  18.184   7.064
 3429POPC   C4B44878  21.924  18.216   7.364
 3430POPC   NC344879  43.936  11.295   5.564
 3430POPC   PO444880  43.925  11.295   5.864
 3430POPC   GL144881  43.840  11.283   6.164
 3430POPC   GL244882  43.901  11.143   6.164
 3430POPC   C1A44883  43.914  11.284   6.464
 3430POPC   D2A44884  43.930  11.349   6.764
 3430POPC   C3A44885  43.921  11.323   7.064
 3430POPC   C4A44886  43.864  11.316   7.364
 3430POPC   C1B44887  43.817  11.037   6.464
 3430POPC   C2B44888  43.831  11.083   6.764
 3430POPC   C3B44889  43.811  11.090   7.064
 3430POPC   C4B44890  43.849  11.013   7.364
 3431POPC   NC344891  29.893  37.700   5.564
 3431POPC   PO444892  29.934  37.694   5.864
 3431POPC   GL144893  29.886  37.688   6.164
 3431POPC   GL244894  29.872  37.580   6.164
 3431POPC   C1A44895  29.892  37.661   6.464
 3431POPC   D2A44896  29.968  37.669   6.764
 3431POPC   C3A44897  29.924  37.728   7.064
 3431POPC   C4A44898  29.917  37.663   7.364
 3431POPC   C1B44899  29.763  37.490   6.464
 3431POPC   C2B44900  29.718  37.484   6.764
 3431POPC   C3B44901  29.750  37.546   7.064
 3431POPC   C4B44902  29.756  37.521   7.364
 3432POPC   NC344903  39.983  28.391   5.564
 3432POPC   PO444904  39.959  28.402   5.864
 3432POPC   GL144905  39.964  28.373   6.164
 3432POPC   GL244906  40.173  28.406   6.164
 3432POPC   C1A44907  39.982  28.398   6.464
 3432POPC   D2A44908  39.962  28.375   6.764
 3432POPC   C3A44909  40.010  28.415   7.064
 3432POPC   C4A44910  40.052  28.373   7.364
 3432POPC   C1B44911  40.305  28.389   6.464
 3432POPC   C2B44912  40.292  28.373   6.764
 3432POPC   C3B44913  40.221  28.391   7.064
 3432POPC   C4B44914  40.259  28.364   7.364
 3433POPC   NC344915  28.373  34.573   5.564
 3433POPC   PO444916  28.345  34.618   5.864
 3433POPC   GL144917  28.394  34.533   6.164
 3433POPC   GL244918  28.440  34.585   6.164
 3433POPC   C1A44919  28.327  34.533   6.464
 3433POPC   D2A44920  28.361  34.552   6.764
 3433POPC   C3A44921  28.331  34.587   7.064
 3433POPC   C4A44922  28.381  34.613   7.364
 3433POPC   C1B44923  28.546  34.704   6.464
 3433POPC   C2B44924  28.610  34.650   6.764
 3433POPC   C3B44925  28.584  34.723   7.064
 3433POPC   C4B44926  28.628  34.686   7.364
 3434POPC   NC344927   8.951   8.950   5.564
 3434POPC   PO444928   8.973   8.972   5.864
 3434POPC   GL144929   8.980   9.006   6.164
 3434POPC   GL244930   8.823   9.029   6.164
 3434POPC   C1A44931   8.989   8.934   6.464
 3434POPC   D2A44932   9.014   8.933   6.764
 3434POPC   C3A44933   8.995   8.980   7.064
 3434POPC   C4A44934   8.966   8.942   7.364
 3434POPC   C1B44935   8.706   9.084   6.464
 3434POPC   C2B44936   8.693   9.085   6.764
 3434POPC   C3B44937   8.744   9.005   7.064
 3434POPC   C4B44938   8.780   9.012   7.364
 3435POPC   NC344939  43.878  43.844   5.564
 3435POPC   PO444940  43.916  43.855   5.864
 3435POPC   GL144941  43.909  43.859   6.164
 3435POPC   GL244942  43.777  43.860   6.164
 3435POPC   C1A44943  43.877  43.897   6.464
 3435POPC   D2A44944  43.930  43.934   6.764
 3435POPC   C3A44945  43.904  43.907   7.064
 3435POPC   C4A44946  43.889  43.928   7.364
 3435POPC   C1B44947  43.599  43.855   6.464
 3435POPC   C2B44948  43.673  43.774   6.764
 3435POPC   C3B44949  43.697  43.843   7.064
 3435POPC   C4B44950  43.599  43.852   7.364
 3436POPC   NC344951  20.651  12.871   5.564
 3436POPC   PO444952  20.562  12.832   5.864
 3436POPC   GL144953  20.573  12.818   6.164
 3436POPC   GL244954  20.448  12.806   6.164
 3436POPC   C1A44955  20.601  12.895   6.464
 3436POPC   D2A44956  20.596  12.810   6.764
 3436POPC   C3A44957  20.616  12.857   7.064
 3436POPC   C4A44958  20.563  12.868   7.364
 3436POPC   C1B44959  20.395  12.794   6.464
 3436POPC   C2B44960  20.348  12.737   6.764
 3436POPC   C3B44961  20.379  12.719   7.064
 3436POPC   C4B44962  20.424  12.748   7.364
 3437POPC   NC344963   1.257   1.947   5.564
 3437POPC   PO444964   1.199   2.014   5.864
 3437POPC   GL144965   1.172   1.969   6.164
 3437POPC   GL244966   1.349   2.017   6.164
 3437POPC   C1A44967   1.248   2.021   6.464
 3437POPC   D2A44968   1.226   2.009   6.764
 3437POPC   C3A44969   1.192   2.004   7.064
 3437POPC   C4A44970   1.261   2.017   7.364
 3437POPC   C1B44971   1.473   1.940   6.464
 3437POPC   C2B44972   1.431   1.951   6.764
 3437POPC   C3B44973   1.502   1.944   7.064
 3437POPC   C4B44974   1.422   1.970   7.364
 3438POPC   NC344975  12.029  21.344   5.564
 3438POPC   PO444976  12.031  21.356   5.864
 3438POPC   GL144977  12.106  21.407   6.164
 3438POPC   GL244978  12.151  21.470   6.164
 3438POPC   C1A44979  12.110  21.361   6.464
 3438POPC   D2A44980  12.109  21.371   6.764
 3438POPC   C3A44981  12.035  21.433   7.064
 3438POPC   C4A44982  12.044  21.364   7.364
 3438POPC   C1B44983  12.167  21.640   6.464
 3438POPC   C2B44984  12.133  21.670   6.764
 3438POPC   C3B44985  12.114  21.665   7.064
 3438POPC   C4B44986  12.163  21.622   7.364
 3439POPC   NC344987  42.381  15.964   5.564
 3439POPC   PO444988  42.291  15.935   5.864
 3439POPC   GL144989  42.374  15.941   6.164
 3439POPC   GL244990  42.467  15.984   6.164
 3439POPC   C1A44991  42.359  15.977   6.464
 3439POPC   D2A44992  42.366  15.965   6.764
 3439POPC   C3A44993  42.371  15.916   7.064
 3439POPC   C4A44994  42.363  15.983   7.364
 3439POPC   C1B44995  42.540  15.983   6.464
 3439POPC   C2B44996  42.562  15.960   6.764
 3439POPC   C3B44997  42.563  15.970   7.064
 3439POPC   C4B44998  42.575  16.040   7.364
 3440POPC   NC344999  12.870   3.543   5.564
 3440POPC   PO445000  12.824   3.531   5.864
 3440POPC   GL145001  12.881   3.531   6.164
 3440POPC   GL245002  12.975   3.544   6.164
 3440POPC   C1A45003  12.823   3.494   6.464
 3440POPC   D2A45004  12.866   3.566   6.764
 3440POPC   C3A45005  12.846   3.503   7.064
 3440POPC   C4A45006  12.845   3.549   7.364
 3440POPC   C1B45007  13.045   3.644   6.464
 3440POPC   C2B45008  13.069   3.653   6.764
 3440POPC   C3B45009  13.052   3.611   7.064
 3440POPC   C4B45010  13.128   3.674   7.364
 3441POPC   NC345011  29.931  11.292   5.564
 3441POPC   PO445012  29.884  11.302   5.864
 3441POPC   GL145013  29.892  11.274   6.164
 3441POPC   GL245014  29.792  11.266   6.164
 3441POPC   C1A45015  29.898  11.307   6.464
 3441POPC   D2A45016  29.964  11.260   6.764
 3441POPC   C3A45017  29.907  11.252   7.064
 3441POPC   C4A45018  29.937  11.294   7.364
 3441POPC   C1B45019  29.729  11.208   6.464
 3441POPC   C2B45020  29.711  11.142   6.764
 3441POPC   C3B45021  29.744  11.134   7.064
 3441POPC   C4B45022  29.673  11.202   7.364
 3442POPC   NC345023  31.516  41.576   5.564
 3442POPC   PO445024  31.464  41.567   5.864
 3442POPC   GL145025  31.509  41.606   6.164
 3442POPC   GL245026  31.338  41.539   6.164
 3442POPC   C1A45027  31.446  41.560   6.464
 3442POPC   D2A45028  31.521  41.557   6.764
 3442POPC   C3A45029  31.491  41.526   7.064
 3442POPC   C4A45030  31.492  41.521   7.364
 3442POPC   C1B45031  31.287  41.471   6.464
 3442POPC   C2B45032  31.230  41.416   6.764
 3442POPC   C3B45033  31.272  41.471   7.064
 3442POPC   C4B45034  31.255  41.445   7.364
 3443POPC   NC345035  19.863   4.267   5.564
 3443POPC   PO445036  19.787   4.356   5.864
 3443POPC   GL145037  19.865   4.326   6.164
 3443POPC   GL245038  19.675   4.404   6.164
 3443POPC   C1A45039  19.830   4.332   6.464
 3443POPC   D2A45040  19.814   4.291   6.764
 3443POPC   C3A45041  19.808   4.298   7.064
 3443POPC   C4A45042  19.805   4.320   7.364
 3443POPC   C1B45043  19.570   4.411   6.464
 3443POPC   C2B45044  19.654   4.432   6.764
 3443POPC   C3B45045  19.565   4.479   7.064
 3443POPC   C4B45046  19.653   4.388   7.364
 3444POPC   NC345047   7.460  28.326   5.564
 3444POPC   PO445048   7.384  28.376   5.864
 3444POPC   GL145049   7.401  28.402   6.164
 3444POPC   GL245050   7.532  28.387   6.164
 3444POPC   C1A45051   7.463  28.415   6.464
 3444POPC   D2A45052   7.385  28.386   6.764
 3444POPC   C3A45053   7.372  28.398   7.064
 3444POPC   C4A45054   7.399  28.392   7.364
 3444POPC   C1B45055   7.706  28.353   6.464
 3444POPC   C2B45056   7.666  28.309   6.764
 3444POPC   C3B45057   7.615  28.286   7.064
 3444POPC   C4B45058   7.625  28.298   7.364
 3445POPC   NC345059  15.996  23.697   5.564
 3445POPC   PO445060  15.984  23.708   5.864
 3445POPC   GL145061  15.910  23.751   6.164
 3445POPC   GL245062  16.054  23.784   6.164
 3445POPC   C1A45063  15.914  23.674   6.464
 3445POPC   D2A45064  15.995  23.730   6.764
 3445POPC   C3A45065  15.967  23.674   7.064
 3445POPC   C4A45066  15.922  23.670   7.364
 3445POPC   C1B45067  16.181  23.873   6.464
 3445POPC   C2B45068  16.218  23.790   6.764
 3445POPC   C3B45069  16.200  23.855   7.064
 3445POPC   C4B45070  16.145  23.792   7.364
 3446POPC   NC345071  28.378  19.793   5.564
 3446POPC   PO445072  28.394  19.807   5.864
 3446POPC   GL145073  28.410  19.807   6.164
 3446POPC   GL245074  28.468  19.915   6.164
 3446POPC   C1A45075  28.371  19.820   6.464
 3446POPC   D2A45076  28.361  19.852   6.764
 3446POPC   C3A45077  28.398  19.835   7.064
 3446POPC   C4A45078  28.399  19.866   7.364
 3446POPC   C1B45079  28.472  20.034   6.464
 3446POPC   C2B45080  28.507  20.085   6.764
 3446POPC   C3B45081  28.437  20.066   7.064
 3446POPC   C4B45082  28.459  20.106   7.364
 3447POPC   NC345083  43.908   7.376   5.564
 3447POPC   PO445084  43.910   7.457   5.864
 3447POPC   GL145085  43.869   7.428   6.164
 3447POPC   GL245086  44.043   7.453   6.164
 3447POPC   C1A45087  43.855   7.398   6.464
 3447POPC   D2A45088  43.840   7.380   6.764
 3447POPC   C3A45089  43.845   7.469   7.064
 3447POPC   C4A45090  43.837   7.427   7.364
 3447POPC   C1B45091  44.076   7.510   6.464
 3447POPC   C2B45092  44.125   7.496   6.764
 3447POPC   C3B45093  44.150   7.529   7.064
 3447POPC   C4B45094  44.108   7.507   7.364
 3448POPC   NC345095  32.976   5.845   5.564
 3448POPC   PO445096  33.062   5.830   5.864
 3448POPC   GL145097  33.073   5.859   6.164
 3448POPC   GL245098  33.112   6.019   6.164
 3448POPC   C1A45099  32.979   5.849   6.464
 3448POPC   D2A45100  32.981   5.878   6.764
 3448POPC   C3A45101  32.994   5.878   7.064
 3448POPC   C4A45102  33.025   5.848   7.364
 3448POPC   C1B45103  33.183   6.118   6.464
 3448POPC   C2B45104  33.171   6.035   6.764
 3448POPC   C3B45105  33.182   6.025   7.064
 3448POPC   C4B45106  33.190   6.103   7.364
 3449POPC   NC345107   0.414  22.948   5.564
 3449POPC   PO445108   0.391  22.923   5.864
 3449POPC   GL145109   0.482  22.904   6.164
 3449POPC   GL245110   0.377  22.785   6.164
 3449POPC   C1A45111   0.476  22.937   6.464
 3449POPC   D2A45112   0.460  22.953   6.764
 3449POPC   C3A45113   0.402  22.975   7.064
 3449POPC   C4A45114   0.452  22.921   7.364
 3449POPC   C1B45115   0.345  22.699   6.464
 3449POPC   C2B45116   0.286  22.739   6.764
 3449POPC   C3B45117   0.302  22.733   7.064
 3449POPC   C4B45118   0.362  22.750   7.364
 3450POPC   NC345119   1.263  27.603   5.564
 3450POPC   PO445120   1.263  27.566   5.864
 3450POPC   GL145121   1.212  27.582   6.164
 3450POPC   GL245122   1.253  27.520   6.164
 3450POPC   C1A45123   1.169  27.625   6.464
 3450POPC   D2A45124   1.252  27.586   6.764
 3450POPC   C3A45125   1.264  27.577   7.064
 3450POPC   C4A45126   1.192  27.568   7.364
 3450POPC   C1B45127   1.317  27.368   6.464
 3450POPC   C2B45128   1.355  27.414   6.764
 3450POPC   C3B45129   1.348  27.372   7.064
 3450POPC   C4B45130   1.317  27.396   7.364
 3451POPC   NC345131  18.300  40.034   5.564
 3451POPC   PO445132  18.246  40.012   5.864
 3451POPC   GL145133  18.247  39.994   6.164
 3451POPC   GL245134  18.282  39.849   6.164
 3451POPC   C1A45135  18.274  39.998   6.464
 3451POPC   D2A45136  18.289  40.053   6.764
 3451POPC   C3A45137  18.315  39.966   7.064
 3451POPC   C4A45138  18.297  40.019   7.364
 3451POPC   C1B45139  18.270  39.733   6.464
 3451POPC   C2B45140  18.208  39.796   6.764
 3451POPC   C3B45141  18.216  39.726   7.064
 3451POPC   C4B45142  18.203  39.736   7.364
 3452POPC   NC345143  21.346  28.320   5.564
 3452POPC   PO445144  21.428  28.369   5.864
 3452POPC   GL145145  21.379  28.344   6.164
 3452POPC   GL245146  21.337  28.298   6.164
 3452POPC   C1A45147  21.342  28.328   6.464
 3452POPC   D2A45148  21.352  28.401   6.764
 3452POPC   C3A45149  21.391  28.392   7.064
 3452POPC   C4A45150  21.379  28.340   7.364
 3452POPC   C1B45151  21.339  28.136   6.464
 3452POPC   C2B45152  21.313  28.094   6.764
 3452POPC   C3B45153  21.339  28.100   7.064
 3452POPC   C4B45154  21.327  28.147   7.364
 3453POPC   NC345155   3.575  18.322   5.564
 3453POPC   PO445156   3.554  18.248   5.864
 3453POPC   GL145157   3.534  18.275   6.164
 3453POPC   GL245158   3.437  18.167   6.164
 3453POPC   C1A45159   3.511  18.276   6.464
 3453POPC   D2A45160   3.574  18.325   6.764
 3453POPC   C3A45161   3.503  18.267   7.064
 3453POPC   C4A45162   3.580  18.291   7.364
 3453POPC   C1B45163   3.374  18.083   6.464
 3453POPC   C2B45164   3.383  18.101   6.764
 3453POPC   C3B45165   3.349  18.125   7.064
 3453POPC   C4B45166   3.368  18.133   7.364
 3454POPC   NC345167  28.370  17.499   5.564
 3454POPC   PO445168  28.359  17.462   5.864
 3454POPC   GL145169  28.365  17.497   6.164
 3454POPC   GL245170  28.354  17.386   6.164
 3454POPC   C1A45171  28.334  17.524   6.464
 3454POPC   D2A45172  28.373  17.506   6.764
 3454POPC   C3A45173  28.415  17.531   7.064
 3454POPC   C4A45174  28.362  17.500   7.364
 3454POPC   C1B45175  28.335  17.212   6.464
 3454POPC   C2B45176  28.360  17.224   6.764
 3454POPC   C3B45177  28.308  17.208   7.064
 3454POPC   C4B45178  28.376  17.218   7.364
 3455POPC   NC345179  44.660  32.289   5.564
 3455POPC   PO445180  44.630  32.282   5.864
 3455POPC   GL145181  44.675  32.221   6.164
 3455POPC   GL245182  44.641  32.364   6.164
 3455POPC   C1A45183  44.645  32.222   6.464
 3455POPC   D2A45184  44.681  32.239   6.764
 3455POPC   C3A45185  44.639  32.290   7.064
 3455POPC   C4A45186  44.711  32.280   7.364
 3455POPC   C1B45187  44.562  32.493   6.464
 3455POPC   C2B45188  44.542  32.467   6.764
 3455POPC   C3B45189  44.574  32.479   7.064
 3455POPC   C4B45190  44.579  32.500   7.364
 3456POPC   NC345191  44.660   9.706   5.564
 3456POPC   PO445192  44.710   9.725   5.864
 3456POPC   GL145193  44.650   9.765   6.164
 3456POPC   GL245194  44.544   9.738   6.164
 3456POPC   C1A45195  44.647   9.790   6.464
 3456POPC   D2A45196  44.656   9.775   6.764
 3456POPC   C3A45197  44.711   9.712   7.064
 3456POPC   C4A45198  44.665   9.723   7.364
 3456POPC   C1B45199  44.458   9.643   6.464
 3456POPC   C2B45200  44.435   9.606   6.764
 3456POPC   C3B45201  44.392   9.670   7.064
 3456POPC   C4B45202  44.428   9.593   7.364
 3457POPC   NC345203   3.560  16.683   5.564
 3457POPC   PO445204   3.535  16.745   5.864
 3457POPC   GL145205   3.578  16.682   6.164
 3457POPC   GL245206   3.506  16.674   6.164
 3457POPC   C1A45207   3.530  16.682   6.464
 3457POPC   D2A45208   3.571  16.702   6.764
 3457POPC   C3A45209   3.591  16.750   7.064
 3457POPC   C4A45210   3.575  16.777   7.364
 3457POPC   C1B45211   3.438  16.575   6.464
 3457POPC   C2B45212   3.399  16.515   6.764
 3457POPC   C3B45213   3.368  16.580   7.064
 3457POPC   C4B45214   3.400  16.574   7.364
 3458POPC   NC345215  42.369   1.968   5.564
 3458POPC   PO445216  42.320   1.942   5.864
 3458POPC   GL145217  42.339   2.014   6.164
 3458POPC   GL245218  42.362   1.897   6.164
 3458POPC   C1A45219  42.289   2.007   6.464
 3458POPC   D2A45220  42.360   2.022   6.764
 3458POPC   C3A45221  42.371   1.952   7.064
 3458POPC   C4A45222  42.289   1.997   7.364
 3458POPC   C1B45223  42.380   1.764   6.464
 3458POPC   C2B45224  42.384   1.779   6.764
 3458POPC   C3B45225  42.381   1.709   7.064
 3458POPC   C4B45226  42.318   1.765   7.364
 3459POPC   NC345227  12.073  29.942   5.564
 3459POPC   PO445228  12.121  29.876   5.864
 3459POPC   GL145229  12.037  29.926   6.164
 3459POPC   GL245230  12.065  30.073   6.164
 3459POPC   C1A45231  12.033  29.951   6.464
 3459POPC   D2A45232  12.039  29.874   6.764
 3459POPC   C3A45233  12.118  29.887   7.064
 3459POPC   C4A45234  12.095  29.922   7.364
 3459POPC   C1B45235  12.065  30.216   6.464
 3459POPC   C2B45236  12.074  30.131   6.764
 3459POPC   C3B45237  12.111  30.213   7.064
 3459POPC   C4B45238  12.049  30.160   7.364
 3460POPC   NC345239  17.517   3.526   5.564
 3460POPC   PO445240  17.498   3.577   5.864
 3460POPC   GL145241  17.510   3.589   6.164
 3460POPC   GL245242  17.640   3.524   6.164
 3460POPC   C1A45243  17.523   3.571   6.464
 3460POPC   D2A45244  17.484   3.510   6.764
 3460POPC   C3A45245  17.550   3.535   7.064
 3460POPC   C4A45246  17.543   3.560   7.364
 3460POPC   C1B45247  17.753   3.400   6.464
 3460POPC   C2B45248  17.718   3.397   6.764
 3460POPC   C3B45249  17.743   3.462   7.064
 3460POPC   C4B45250  17.737   3.405   7.364
 3461POPC   NC345251  27.567   2.749   5.564
 3461POPC   PO445252  27.610   2.774   5.864
 3461POPC   GL145253  27.611   2.727   6.164
 3461POPC   GL245254  27.711   2.791   6.164
 3461POPC   C1A45255  27.593   2.755   6.464
 3461POPC   D2A45256  27.636   2.774   6.764
 3461POPC   C3A45257  27.566   2.716   7.064
 3461POPC   C4A45258  27.564   2.811   7.364
 3461POPC   C1B45259  27.801   2.760   6.464
 3461POPC   C2B45260  27.840   2.831   6.764
 3461POPC   C3B45261  27.887   2.817   7.064
 3461POPC   C4B45262  27.804   2.748   7.364
 3462POPC   NC345263  24.483  29.106   5.564
 3462POPC   PO445264  24.477  29.100   5.864
 3462POPC   GL145265  24.504  29.121   6.164
 3462POPC   GL245266  24.413  29.087   6.164
 3462POPC   C1A45267  24.506  29.116   6.464
 3462POPC   D2A45268  24.474  29.143   6.764
 3462POPC   C3A45269  24.531  29.170   7.064
 3462POPC   C4A45270  24.504  29.099   7.364
 3462POPC   C1B45271  24.319  28.942   6.464
 3462POPC   C2B45272  24.292  28.975   6.764
 3462POPC   C3B45273  24.298  29.010   7.064
 3462POPC   C4B45274  24.279  28.941   7.364
 3463POPC   NC345275  12.078  25.260   5.564
 3463POPC   PO445276  12.052  25.279   5.864
 3463POPC   GL145277  12.060  25.311   6.164
 3463POPC   GL245278  11.931  25.264   6.164
 3463POPC   C1A45279  12.094  25.226   6.464
 3463POPC   D2A45280  12.114  25.262   6.764
 3463POPC   C3A45281  12.087  25.256   7.064
 3463POPC   C4A45282  12.083  25.302   7.364
 3463POPC   C1B45283  11.809  25.314   6.464
 3463POPC   C2B45284  11.882  25.276   6.764
 3463POPC   C3B45285  11.851  25.361   7.064
 3463POPC   C4B45286  11.881  25.276   7.364
 3464POPC   NC345287  42.299  26.081   5.564
 3464POPC   PO445288  42.340  26.077   5.864
 3464POPC   GL145289  42.354  26.074   6.164
 3464POPC   GL245290  42.319  25.943   6.164
 3464POPC   C1A45291  42.306  26.066   6.464
 3464POPC   D2A45292  42.365  25.992   6.764
 3464POPC   C3A45293  42.340  26.042   7.064
 3464POPC   C4A45294  42.340  26.031   7.364
 3464POPC   C1B45295  42.321  25.780   6.464
 3464POPC   C2B45296  42.330  25.776   6.764
 3464POPC   C3B45297  42.282  25.788   7.064
 3464POPC   C4B45298  42.269  25.809   7.364
 3465POPC   NC345299   4.352  36.883   5.564
 3465POPC   PO445300   4.294  36.921   5.864
 3465POPC   GL145301   4.302  36.875   6.164
 3465POPC   GL245302   4.290  36.796   6.164
 3465POPC   C1A45303   4.334  36.860   6.464
 3465POPC   D2A45304   4.278  36.910   6.764
 3465POPC   C3A45305   4.328  36.855   7.064
 3465POPC   C4A45306   4.295  36.899   7.364
 3465POPC   C1B45307   4.235  36.731   6.464
 3465POPC   C2B45308   4.156  36.655   6.764
 3465POPC   C3B45309   4.173  36.647   7.064
 3465POPC   C4B45310   4.206  36.657   7.364
 3466POPC   NC345311  29.182  37.671   5.564
 3466POPC   PO445312  29.195  37.655   5.864
 3466POPC   GL145313  29.189  37.645   6.164
 3466POPC   GL245314  29.018  37.609   6.164
 3466POPC   C1A45315  29.102  37.729   6.464
 3466POPC   D2A45316  29.190  37.699   6.764
 3466POPC   C3A45317  29.163  37.721   7.064
 3466POPC   C4A45318  29.104  37.696   7.364
 3466POPC   C1B45319  28.905  37.573   6.464
 3466POPC   C2B45320  28.898  37.618   6.764
 3466POPC   C3B45321  28.940  37.627   7.064
 3466POPC   C4B45322  28.927  37.619   7.364
 3467POPC   NC345323  17.530  31.520   5.564
 3467POPC   PO445324  17.491  31.508   5.864
 3467POPC   GL145325  17.473  31.506   6.164
 3467POPC   GL245326  17.436  31.614   6.164
 3467POPC   C1A45327  17.461  31.507   6.464
 3467POPC   D2A45328  17.540  31.437   6.764
 3467POPC   C3A45329  17.512  31.450   7.064
 3467POPC   C4A45330  17.470  31.458   7.364
 3467POPC   C1B45331  17.429  31.652   6.464
 3467POPC   C2B45332  17.367  31.712   6.764
 3467POPC   C3B45333  17.369  31.683   7.064
 3467POPC   C4B45334  17.332  31.684   7.364
 3468POPC   NC345335  29.126  29.122   5.564
 3468POPC   PO445336  29.120  29.145   5.864
 3468POPC   GL145337  29.179  29.180   6.164
 3468POPC   GL245338  29.218  29.042   6.164
 3468POPC   C1A45339  29.160  29.170   6.464
 3468POPC   D2A45340  29.151  29.100   6.764
 3468POPC   C3A45341  29.124  29.140   7.064
 3468POPC   C4A45342  29.159  29.183   7.364
 3468POPC   C1B45343  29.341  29.035   6.464
 3468POPC   C2B45344  29.353  28.963   6.764
 3468POPC   C3B45345  29.305  29.020   7.064
 3468POPC   C4B45346  29.310  29.020   7.364
 3469POPC   NC345347  23.683  23.749   5.564
 3469POPC   PO445348  23.690  23.709   5.864
 3469POPC   GL145349  23.761  23.742   6.164
 3469POPC   GL245350  23.684  23.852   6.164
 3469POPC   C1A45351  23.679  23.754   6.464
 3469POPC   D2A45352  23.673  23.682   6.764
 3469POPC   C3A45353  23.674  23.677   7.064
 3469POPC   C4A45354  23.678  23.719   7.364
 3469POPC   C1B45355  23.637  24.001   6.464
 3469POPC   C2B45356  23.623  23.907   6.764
 3469POPC   C3B45357  23.627  23.919   7.064
 3469POPC   C4B45358  23.640  23.906   7.364
 3470POPC   NC345359   2.790  17.532   5.564
 3470POPC   PO445360   2.814  17.513   5.864
 3470POPC   GL145361   2.772  17.533   6.164
 3470POPC   GL245362   2.776  17.580   6.164
 3470POPC   C1A45363   2.760  17.459   6.464
 3470POPC   D2A45364   2.806  17.489   6.764
 3470POPC   C3A45365   2.811  17.544   7.064
 3470POPC   C4A45366   2.777  17.490   7.364
 3470POPC   C1B45367   2.815  17.711   6.464
 3470POPC   C2B45368   2.850  17.699   6.764
 3470POPC   C3B45369   2.873  17.765   7.064
 3470POPC   C4B45370   2.879  17.739   7.364
 3471POPC   NC345371  28.369   0.482   5.564
 3471POPC   PO445372  28.401   0.424   5.864
 3471POPC   GL145373  28.320   0.484   6.164
 3471POPC   GL245374  28.475   0.404   6.164
 3471POPC   C1A45375  28.372   0.456   6.464
 3471POPC   D2A45376  28.363   0.485   6.764
 3471POPC   C3A45377  28.388   0.394   7.064
 3471POPC   C4A45378  28.379   0.442   7.364
 3471POPC   C1B45379  28.600   0.459   6.464
 3471POPC   C2B45380  28.591   0.399   6.764
 3471POPC   C3B45381  28.607   0.466   7.064
 3471POPC   C4B45382  28.622   0.458   7.364
 3472POPC   NC345383  26.071  40.025   5.564
 3472POPC   PO445384  26.000  40.036   5.864
 3472POPC   GL145385  26.082  39.983   6.164
 3472POPC   GL245386  25.949  40.168   6.164
 3472POPC   C1A45387  26.089  40.030   6.464
 3472POPC   D2A45388  26.010  40.045   6.764
 3472POPC   C3A45389  26.002  39.963   7.064
 3472POPC   C4A45390  26.039  40.028   7.364
 3472POPC   C1B45391  25.917  40.236   6.464
 3472POPC   C2B45392  25.881  40.259   6.764
 3472POPC   C3B45393  25.967  40.258   7.064
 3472POPC   C4B45394  25.934  40.274   7.364
 3473POPC   NC345395  36.855  29.938   5.564
 3473POPC   PO445396  36.857  29.934   5.864
 3473POPC   GL145397  36.894  29.930   6.164
 3473POPC   GL245398  36.948  29.997   6.164
 3473POPC   C1A45399  36.870  29.910   6.464
 3473POPC   D2A45400  36.895  29.894   6.764
 3473POPC   C3A45401  36.892  29.948   7.064
 3473POPC   C4A45402  36.922  29.878   7.364
 3473POPC   C1B45403  36.902  30.165   6.464
 3473POPC   C2B45404  36.892  30.175   6.764
 3473POPC   C3B45405  36.944  30.208   7.064
 3473POPC   C4B45406  36.919  30.207   7.364
 3474POPC   NC345407  23.720  29.943   5.564
 3474POPC   PO445408  23.744  29.880   5.864
 3474POPC   GL145409  23.758  29.897   6.164
 3474POPC   GL245410  23.860  29.964   6.164
 3474POPC   C1A45411  23.746  29.961   6.464
 3474POPC   D2A45412  23.683  29.893   6.764
 3474POPC   C3A45413  23.758  29.922   7.064
 3474POPC   C4A45414  23.749  29.902   7.364
 3474POPC   C1B45415  23.935  30.044   6.464
 3474POPC   C2B45416  23.947  29.994   6.764
 3474POPC   C3B45417  23.989  30.042   7.064
 3474POPC   C4B45418  23.999  30.042   7.364
 3475POPC   NC345419  17.470  36.894   5.564
 3475POPC   PO445420  17.531  36.921   5.864
 3475POPC   GL145421  17.508  36.948   6.164
 3475POPC   GL245422  17.611  37.028   6.164
 3475POPC   C1A45423  17.551  36.875   6.464
 3475POPC   D2A45424  17.511  36.923   6.764
 3475POPC   C3A45425  17.505  36.913   7.064
 3475POPC   C4A45426  17.508  36.897   7.364
 3475POPC   C1B45427  17.646  37.117   6.464
 3475POPC   C2B45428  17.635  37.099   6.764
 3475POPC   C3B45429  17.646  37.072   7.064
 3475POPC   C4B45430  17.693  37.068   7.364
 3476POPC   NC345431  44.652  44.626   5.564
 3476POPC   PO445432  44.638  44.699   5.864
 3476POPC   GL145433  44.677  44.659   6.164
 3476POPC   GL245434  44.514  44.675   6.164
 3476POPC   C1A45435  44.682  44.660   6.464
 3476POPC   D2A45436  44.655  44.644   6.764
 3476POPC   C3A45437  44.619  44.684   7.064
 3476POPC   C4A45438  44.704  44.701   7.364
 3476POPC   C1B45439  44.400  44.768   6.464
 3476POPC   C2B45440  44.414  44.762   6.764
 3476POPC   C3B45441  44.391  44.724   7.064
 3476POPC   C4B45442  44.429  44.786   7.364
 3477POPC   NC345443  27.614  39.233   5.564
 3477POPC   PO445444  27.579  39.248   5.864
 3477POPC   GL145445  27.629  39.188   6.164
 3477POPC   GL245446  27.605  39.312   6.164
 3477POPC   C1A45447  27.619  39.257   6.464
 3477POPC   D2A45448  27.587  39.268   6.764
 3477POPC   C3A45449  27.565  39.254   7.064
 3477POPC   C4A45450  27.634  39.212   7.364
 3477POPC   C1B45451  27.630  39.524   6.464
 3477POPC   C2B45452  27.634  39.432   6.764
 3477POPC   C3B45453  27.613  39.457   7.064
 3477POPC   C4B45454  27.585  39.485   7.364
 3478POPC   NC345455  27.563  36.125   5.564
 3478POPC   PO445456  27.568  36.083   5.864
 3478POPC   GL145457  27.558  36.097   6.164
 3478POPC   GL245458  27.480  36.067   6.164
 3478POPC   C1A45459  27.583  36.177   6.464
 3478POPC   D2A45460  27.617  36.156   6.764
 3478POPC   C3A45461  27.548  36.078   7.064
 3478POPC   C4A45462  27.589  36.104   7.364
 3478POPC   C1B45463  27.380  36.007   6.464
 3478POPC   C2B45464  27.382  35.925   6.764
 3478POPC   C3B45465  27.381  35.982   7.064
 3478POPC   C4B45466  27.360  35.921   7.364
 3479POPC   NC345467  11.291   4.328   5.564
 3479POPC   PO445468  11.269   4.334   5.864
 3479POPC   GL145469  11.268   4.286   6.164
 3479POPC   GL245470  11.200   4.343   6.164
 3479POPC   C1A45471  11.280   4.322   6.464
 3479POPC   D2A45472  11.342   4.346   6.764
 3479POPC   C3A45473  11.253   4.366   7.064
 3479POPC   C4A45474  11.296   4.352   7.364
 3479POPC   C1B45475  11.091   4.339   6.464
 3479POPC   C2B45476  11.100   4.321   6.764
 3479POPC   C3B45477  11.082   4.316   7.064
 3479POPC   C4B45478  11.099   4.330   7.364
 3480POPC   NC345479   2.756   5.830   5.564
 3480POPC   PO445480   2.799   5.867   5.864
 3480POPC   GL145481   2.751   5.907   6.164
 3480POPC   GL245482   2.764   5.953   6.164
 3480POPC   C1A45483   2.723   5.890   6.464
 3480POPC   D2A45484   2.800   5.821   6.764
 3480POPC   C3A45485   2.746   5.855   7.064
 3480POPC   C4A45486   2.761   5.892   7.364
 3480POPC   C1B45487   2.807   6.057   6.464
 3480POPC   C2B45488   2.832   6.096   6.764
 3480POPC   C3B45489   2.879   6.147   7.064
 3480POPC   C4B45490   2.855   6.065   7.364
 3481POPC   NC345491  35.334  35.332   5.564
 3481POPC   PO445492  35.358  35.382   5.864
 3481POPC   GL145493  35.388  35.371   6.164
 3481POPC   GL245494  35.256  35.374   6.164
 3481POPC   C1A45495  35.378  35.309   6.464
 3481POPC   D2A45496  35.340  35.341   6.764
 3481POPC   C3A45497  35.366  35.374   7.064
 3481POPC   C4A45498  35.336  35.359   7.364
 3481POPC   C1B45499  35.097  35.454   6.464
 3481POPC   C2B45500  35.099  35.408   6.764
 3481POPC   C3B45501  35.146  35.494   7.064
 3481POPC   C4B45502  35.078  35.452   7.364
 3482POPC   NC345503  35.346  18.318   5.564
 3482POPC   PO445504  35.342  18.260   5.864
 3482POPC   GL145505  35.347  18.262   6.164
 3482POPC   GL245506  35.346  18.367   6.164
 3482POPC   C1A45507  35.398  18.308   6.464
 3482POPC   D2A45508  35.392  18.289   6.764
 3482POPC   C3A45509  35.378  18.237   7.064
 3482POPC   C4A45510  35.307  18.247   7.364
 3482POPC   C1B45511  35.319  18.572   6.464
 3482POPC   C2B45512  35.317  18.571   6.764
 3482POPC   C3B45513  35.251  18.519   7.064
 3482POPC   C4B45514  35.316  18.567   7.364
 3483POPC   NC345515  26.863  29.110   5.564
 3483POPC   PO445516  26.784  29.121   5.864
 3483POPC   GL145517  26.769  29.195   6.164
 3483POPC   GL245518  26.892  29.011   6.164
 3483POPC   C1A45519  26.796  29.109   6.464
 3483POPC   D2A45520  26.813  29.135   6.764
 3483POPC   C3A45521  26.822  29.126   7.064
 3483POPC   C4A45522  26.807  29.185   7.364
 3483POPC   C1B45523  26.960  29.009   6.464
 3483POPC   C2B45524  26.970  28.959   6.764
 3483POPC   C3B45525  27.004  29.007   7.064
 3483POPC   C4B45526  27.032  28.958   7.364
 3484POPC   NC345527  32.243   5.916   5.564
 3484POPC   PO445528  32.291   5.858   5.864
 3484POPC   GL145529  32.207   5.819   6.164
 3484POPC   GL245530  32.326   5.858   6.164
 3484POPC   C1A45531  32.256   5.848   6.464
 3484POPC   D2A45532  32.279   5.896   6.764
 3484POPC   C3A45533  32.295   5.849   7.064
 3484POPC   C4A45534  32.291   5.873   7.364
 3484POPC   C1B45535  32.538   5.963   6.464
 3484POPC   C2B45536  32.536   5.960   6.764
 3484POPC   C3B45537  32.522   5.935   7.064
 3484POPC   C4B45538  32.501   5.882   7.364
 3485POPC   NC345539  29.099   9.708   5.564
 3485POPC   PO445540  29.161   9.737   5.864
 3485POPC   GL145541  29.118   9.705   6.164
 3485POPC   GL245542  29.147   9.917   6.164
 3485POPC   C1A45543  29.182   9.780   6.464
 3485POPC   D2A45544  29.136   9.725   6.764
 3485POPC   C3A45545  29.113   9.761   7.064
 3485POPC   C4A45546  29.149   9.742   7.364
 3485POPC   C1B45547  29.086  10.029   6.464
 3485POPC   C2B45548  29.050   9.971   6.764
 3485POPC   C3B45549  29.117  10.019   7.064
 3485POPC   C4B45550  29.077  10.005   7.364
 3486POPC   NC345551  41.585  26.015   5.564
 3486POPC   PO445552  41.581  26.090   5.864
 3486POPC   GL145553  41.575  26.045   6.164
 3486POPC   GL245554  41.447  25.961   6.164
 3486POPC   C1A45555  41.565  26.043   6.464
 3486POPC   D2A45556  41.512  26.031   6.764
 3486POPC   C3A45557  41.552  26.007   7.064
 3486POPC   C4A45558  41.529  26.033   7.364
 3486POPC   C1B45559  41.408  25.784   6.464
 3486POPC   C2B45560  41.464  25.808   6.764
 3486POPC   C3B45561  41.459  25.827   7.064
 3486POPC   C4B45562  41.418  25.775   7.364
 3487POPC   NC345563  28.365  21.337   5.564
 3487POPC   PO445564  28.356  21.343   5.864
 3487POPC   GL145565  28.386  21.435   6.164
 3487POPC   GL245566  28.520  21.392   6.164
 3487POPC   C1A45567  28.370  21.406   6.464
 3487POPC   D2A45568  28.405  21.370   6.764
 3487POPC   C3A45569  28.331  21.386   7.064
 3487POPC   C4A45570  28.333  21.389   7.364
 3487POPC   C1B45571  28.594  21.475   6.464
 3487POPC   C2B45572  28.605  21.527   6.764
 3487POPC   C3B45573  28.604  21.469   7.064
 3487POPC   C4B45574  28.585  21.468   7.364
 3488POPC   NC345575  35.380  12.848   5.564
 3488POPC   PO445576  35.311  12.875   5.864
 3488POPC   GL145577  35.328  12.872   6.164
 3488POPC   GL245578  35.388  12.953   6.164
 3488POPC   C1A45579  35.355  12.846   6.464
 3488POPC   D2A45580  35.340  12.888   6.764
 3488POPC   C3A45581  35.398  12.832   7.064
 3488POPC   C4A45582  35.349  12.864   7.364
 3488POPC   C1B45583  35.418  13.096   6.464
 3488POPC   C2B45584  35.417  13.114   6.764
 3488POPC   C3B45585  35.438  13.131   7.064
 3488POPC   C4B45586  35.376  13.085   7.364
 3489POPC   NC345587  18.289  18.275   5.564
 3489POPC   PO445588  18.265  18.275   5.864
 3489POPC   GL145589  18.233  18.260   6.164
 3489POPC   GL245590  18.374  18.310   6.164
 3489POPC   C1A45591  18.236  18.286   6.464
 3489POPC   D2A45592  18.282  18.329   6.764
 3489POPC   C3A45593  18.243  18.293   7.064
 3489POPC   C4A45594  18.285  18.328   7.364
 3489POPC   C1B45595  18.444  18.434   6.464
 3489POPC   C2B45596  18.479  18.449   6.764
 3489POPC   C3B45597  18.518  18.390   7.064
 3489POPC   C4B45598  18.468  18.465   7.364
 3490POPC   NC345599  23.704  14.367   5.564
 3490POPC   PO445600  23.726  14.416   5.864
 3490POPC   GL145601  23.747  14.439   6.164
 3490POPC   GL245602  23.651  14.500   6.164
 3490POPC   C1A45603  23.681  14.428   6.464
 3490POPC   D2A45604  23.721  14.373   6.764
 3490POPC   C3A45605  23.682  14.375   7.064
 3490POPC   C4A45606  23.759  14.368   7.364
 3490POPC   C1B45607  23.587  14.626   6.464
 3490POPC   C2B45608  23.619  14.594   6.764
 3490POPC   C3B45609  23.558  14.650   7.064
 3490POPC   C4B45610  23.571  14.649   7.364
 3491POPC   NC345611  17.521  27.597   5.564
 3491POPC   PO445612  17.530  27.638   5.864
 3491POPC   GL145613  17.514  27.618   6.164
 3491POPC   GL245614  17.544  27.467   6.164
 3491POPC   C1A45615  17.523  27.615   6.464
 3491POPC   D2A45616  17.552  27.557   6.764
 3491POPC   C3A45617  17.459  27.593   7.064
 3491POPC   C4A45618  17.522  27.584   7.364
 3491POPC   C1B45619  17.588  27.353   6.464
 3491POPC   C2B45620  17.650  27.342   6.764
 3491POPC   C3B45621  17.624  27.330   7.064
 3491POPC   C4B45622  17.626  27.330   7.364
 3492POPC   NC345623  15.220  11.327   5.564
 3492POPC   PO445624  15.198  11.336   5.864
 3492POPC   GL145625  15.195  11.304   6.164
 3492POPC   GL245626  15.264  11.372   6.164
 3492POPC   C1A45627  15.172  11.285   6.464
 3492POPC   D2A45628  15.148  11.269   6.764
 3492POPC   C3A45629  15.174  11.291   7.064
 3492POPC   C4A45630  15.160  11.343   7.364
 3492POPC   C1B45631  15.404  11.416   6.464
 3492POPC   C2B45632  15.393  11.432   6.764
 3492POPC   C3B45633  15.357  11.486   7.064
 3492POPC   C4B45634  15.353  11.495   7.364
 3493POPC   NC345635  22.138  19.833   5.564
 3493POPC   PO445636  22.154  19.834   5.864
 3493POPC   GL145637  22.175  19.869   6.164
 3493POPC   GL245638  22.022  19.784   6.164
 3493POPC   C1A45639  22.142  19.867   6.464
 3493POPC   D2A45640  22.194  19.791   6.764
 3493POPC   C3A45641  22.201  19.870   7.064
 3493POPC   C4A45642  22.194  19.826   7.364
 3493POPC   C1B45643  21.956  19.649   6.464
 3493POPC   C2B45644  21.968  19.687   6.764
 3493POPC   C3B45645  22.014  19.714   7.064
 3493POPC   C4B45646  21.961  19.655   7.364
 3494POPC   NC345647   8.196  42.323   5.564
 3494POPC   PO445648   8.174  42.350   5.864
 3494POPC   GL145649   8.212  42.354   6.164
 3494POPC   GL245650   8.263  42.233   6.164
 3494POPC   C1A45651   8.167  42.321   6.464
 3494POPC   D2A45652   8.189  42.323   6.764
 3494POPC   C3A45653   8.209  42.362   7.064
 3494POPC   C4A45654   8.239  42.364   7.364
 3494POPC   C1B45655   8.370  42.155   6.464
 3494POPC   C2B45656   8.303  42.117   6.764
 3494POPC   C3B45657   8.380  42.159   7.064
 3494POPC   C4B45658   8.398  42.144   7.364
 3495POPC   NC345659  11.337  44.667   5.564
 3495POPC   PO445660  11.319  44.657   5.864
 3495POPC   GL145661  11.280  44.654   6.164
 3495POPC   GL245662  11.392  44.771   6.164
 3495POPC   C1A45663  11.274  44.664   6.464
 3495POPC   D2A45664  11.279  44.640   6.764
 3495POPC   C3A45665  11.254  44.641   7.064
 3495POPC   C4A45666  11.259  44.614   7.364
 3495POPC   C1B45667  11.452  44.896   6.464
 3495POPC   C2B45668  11.509  44.859   6.764
 3495POPC   C3B45669  11.438  44.875   7.064
 3495POPC   C4B45670  11.509  44.828   7.364
 3496POPC   NC345671  43.070  30.654   5.564
 3496POPC   PO445672  43.076  30.669   5.864
 3496POPC   GL145673  43.111  30.730   6.164
 3496POPC   GL245674  43.022  30.748   6.164
 3496POPC   C1A45675  43.084  30.649   6.464
 3496POPC   D2A45676  43.156  30.727   6.764
 3496POPC   C3A45677  43.141  30.738   7.064
 3496POPC   C4A45678  43.071  30.707   7.364
 3496POPC   C1B45679  42.846  30.858   6.464
 3496POPC   C2B45680  42.865  30.845   6.764
 3496POPC   C3B45681  42.869  30.838   7.064
 3496POPC   C4B45682  42.846  30.776   7.364
 3497POPC   NC345683  19.099  12.043   5.564
 3497POPC   PO445684  19.037  12.122   5.864
 3497POPC   GL145685  19.020  12.124   6.164
 3497POPC   GL245686  19.136  11.983   6.164
 3497POPC   C1A45687  19.080  12.090   6.464
 3497POPC   D2A45688  19.019  12.106   6.764
 3497POPC   C3A45689  19.076  12.027   7.064
 3497POPC   C4A45690  19.060  12.032   7.364
 3497POPC   C1B45691  19.226  11.941   6.464
 3497POPC   C2B45692  19.195  11.858   6.764
 3497POPC   C3B45693  19.254  11.865   7.064
 3497POPC   C4B45694  19.280  11.924   7.364
 3498POPC   NC345695  16.686   3.558   5.564
 3498POPC   PO445696  16.690   3.590   5.864
 3498POPC   GL145697  16.723   3.532   6.164
 3498POPC   GL245698  16.823   3.421   6.164
 3498POPC   C1A45699  16.696   3.502   6.464
 3498POPC   D2A45700  16.735   3.529   6.764
 3498POPC   C3A45701  16.749   3.557   7.064
 3498POPC   C4A45702  16.748   3.560   7.364
 3498POPC   C1B45703  16.939   3.387   6.464
 3498POPC   C2B45704  16.906   3.375   6.764
 3498POPC   C3B45705  16.895   3.376   7.064
 3498POPC   C4B45706  16.865   3.377   7.364
 3499POPC   NC345707  16.728  26.768   5.564
 3499POPC   PO445708  16.693  26.790   5.864
 3499POPC   GL145709  16.706  26.820   6.164
 3499POPC   GL245710  16.650  26.923   6.164
 3499POPC   C1A45711  16.758  26.806   6.464
 3499POPC   D2A45712  16.711  26.830   6.764
 3499POPC   C3A45713  16.747  26.823   7.064
 3499POPC   C4A45714  16.749  26.845   7.364
 3499POPC   C1B45715  16.524  27.009   6.464
 3499POPC   C2B45716  16.522  26.918   6.764
 3499POPC   C3B45717  16.512  26.994   7.064
 3499POPC   C4B45718  16.560  26.961   7.364
 3500POPC   NC345719  22.154  35.305   5.564
 3500POPC   PO445720  22.150  35.325   5.864
 3500POPC   GL145721  22.145  35.341   6.164
 3500POPC   GL245722  22.199  35.272   6.164
 3500POPC   C1A45723  22.204  35.392   6.464
 3500POPC   D2A45724  22.119  35.387   6.764
 3500POPC   C3A45725  22.170  35.359   7.064
 3500POPC   C4A45726  22.172  35.377   7.364
 3500POPC   C1B45727  22.090  35.127   6.464
 3500POPC   C2B45728  22.173  35.150   6.764
 3500POPC   C3B45729  22.143  35.112   7.064
 3500POPC   C4B45730  22.184  35.056   7.364
 3501POPC   NC345731  20.645  38.479   5.564
 3501POPC   PO445732  20.575  38.448   5.864
 3501POPC   GL145733  20.617  38.413   6.164
 3501POPC   GL245734  20.501  38.520   6.164
 3501POPC   C1A45735  20.630  38.427   6.464
 3501POPC   D2A45736  20.568  38.492   6.764
 3501POPC   C3A45737  20.617  38.465   7.064
 3501POPC   C4A45738  20.629  38.408   7.364
 3501POPC   C1B45739  20.400  38.603   6.464
 3501POPC   C2B45740  20.385  38.571   6.764
 3501POPC   C3B45741  20.386  38.646   7.064
 3501POPC   C4B45742  20.429  38.635   7.364
 3502POPC   NC345743   2.796   1.961   5.564
 3502POPC   PO445744   2.753   1.943   5.864
 3502POPC   GL145745   2.785   1.946   6.164
 3502POPC   GL245746   2.862   2.042   6.164
 3502POPC   C1A45747   2.746   2.028   6.464
 3502POPC   D2A45748   2.739   1.955   6.764
 3502POPC   C3A45749   2.734   2.002   7.064
 3502POPC   C4A45750   2.782   1.988   7.364
 3502POPC   C1B45751   2.990   2.062   6.464
 3502POPC   C2B45752   2.959   2.016   6.764
 3502POPC   C3B45753   3.036   2.089   7.064
 3502POPC   C4B45754   3.019   2.066   7.364
 3503POPC   NC345755  42.337   0.405   5.564
 3503POPC   PO445756  42.351   0.421   5.864
 3503POPC   GL145757  42.319   0.456   6.164
 3503POPC   GL245758  42.251   0.506   6.164
 3503POPC   C1A45759  42.331   0.469   6.464
 3503POPC   D2A45760  42.334   0.390   6.764
 3503POPC   C3A45761  42.295   0.453   7.064
 3503POPC   C4A45762  42.366   0.443   7.364
 3503POPC   C1B45763  42.089   0.467   6.464
 3503POPC   C2B45764  42.088   0.507   6.764
 3503POPC   C3B45765  42.109   0.505   7.064
 3503POPC   C4B45766  42.105   0.484   7.364
 3504POPC   NC345767  43.133  11.326   5.564
 3504POPC   PO445768  43.138  11.313   5.864
 3504POPC   GL145769  43.088  11.321   6.164
 3504POPC   GL245770  43.233  11.305   6.164
 3504POPC   C1A45771  43.097  11.341   6.464
 3504POPC   D2A45772  43.110  11.262   6.764
 3504POPC   C3A45773  43.157  11.310   7.064
 3504POPC   C4A45774  43.143  11.339   7.364
 3504POPC   C1B45775  43.339  11.351   6.464
 3504POPC   C2B45776  43.351  11.278   6.764
 3504POPC   C3B45777  43.374  11.280   7.064
 3504POPC   C4B45778  43.377  11.298   7.364
 3505POPC   NC345779  20.641  33.820   5.564
 3505POPC   PO445780  20.618  33.847   5.864
 3505POPC   GL145781  20.574  33.754   6.164
 3505POPC   GL245782  20.535  33.697   6.164
 3505POPC   C1A45783  20.561  33.837   6.464
 3505POPC   D2A45784  20.583  33.804   6.764
 3505POPC   C3A45785  20.620  33.782   7.064
 3505POPC   C4A45786  20.574  33.819   7.364
 3505POPC   C1B45787  20.523  33.570   6.464
 3505POPC   C2B45788  20.494  33.579   6.764
 3505POPC   C3B45789  20.501  33.563   7.064
 3505POPC   C4B45790  20.514  33.592   7.364
 3506POPC   NC345791  25.242  21.356   5.564
 3506POPC   PO445792  25.226  21.385   5.864
 3506POPC   GL145793  25.262  21.340   6.164
 3506POPC   GL245794  25.382  21.324   6.164
 3506POPC   C1A45795  25.232  21.343   6.464
 3506POPC   D2A45796  25.303  21.339   6.764
 3506POPC   C3A45797  25.265  21.373   7.064
 3506POPC   C4A45798  25.261  21.374   7.364
 3506POPC   C1B45799  25.382  21.223   6.464
 3506POPC   C2B45800  25.400  21.217   6.764
 3506POPC   C3B45801  25.444  21.195   7.064
 3506POPC   C4B45802  25.450  21.235   7.364
 3507POPC   NC345803  41.594  12.836   5.564
 3507POPC   PO445804  41.577  12.832   5.864
 3507POPC   GL145805  41.600  12.849   6.164
 3507POPC   GL245806  41.429  12.899   6.164
 3507POPC   C1A45807  41.538  12.880   6.464
 3507POPC   D2A45808  41.554  12.884   6.764
 3507POPC   C3A45809  41.521  12.804   7.064
 3507POPC   C4A45810  41.511  12.824   7.364
 3507POPC   C1B45811  41.264  12.825   6.464
 3507POPC   C2B45812  41.303  12.865   6.764
 3507POPC   C3B45813  41.339  12.910   7.064
 3507POPC   C4B45814  41.322  12.834   7.364
 3508POPC   NC345815  24.484  39.230   5.564
 3508POPC   PO445816  24.535  39.212   5.864
 3508POPC   GL145817  24.518  39.238   6.164
 3508POPC   GL245818  24.422  39.371   6.164
 3508POPC   C1A45819  24.462  39.197   6.464
 3508POPC   D2A45820  24.441  39.281   6.764
 3508POPC   C3A45821  24.459  39.211   7.064
 3508POPC   C4A45822  24.480  39.236   7.364
 3508POPC   C1B45823  24.467  39.441   6.464
 3508POPC   C2B45824  24.419  39.473   6.764
 3508POPC   C3B45825  24.375  39.493   7.064
 3508POPC   C4B45826  24.441  39.423   7.364
 3509POPC   NC345827  28.410  13.668   5.564
 3509POPC   PO445828  28.342  13.602   5.864
 3509POPC   GL145829  28.351  13.620   6.164
 3509POPC   GL245830  28.288  13.737   6.164
 3509POPC   C1A45831  28.377  13.618   6.464
 3509POPC   D2A45832  28.383  13.604   6.764
 3509POPC   C3A45833  28.339  13.583   7.064
 3509POPC   C4A45834  28.343  13.628   7.364
 3509POPC   C1B45835  28.151  13.780   6.464
 3509POPC   C2B45836  28.193  13.853   6.764
 3509POPC   C3B45837  28.249  13.827   7.064
 3509POPC   C4B45838  28.197  13.818   7.364
 3510POPC   NC345839   4.316  36.161   5.564
 3510POPC   PO445840   4.325  36.142   5.864
 3510POPC   GL145841   4.352  36.145   6.164
 3510POPC   GL245842   4.377  36.047   6.164
 3510POPC   C1A45843   4.347  36.114   6.464
 3510POPC   D2A45844   4.357  36.170   6.764
 3510POPC   C3A45845   4.331  36.106   7.064
 3510POPC   C4A45846   4.302  36.151   7.364
 3510POPC   C1B45847   4.351  35.932   6.464
 3510POPC   C2B45848   4.352  35.870   6.764
 3510POPC   C3B45849   4.380  35.891   7.064
 3510POPC   C4B45850   4.446  35.843   7.364
 3511POPC   NC345851  16.751   7.392   5.564
 3511POPC   PO445852  16.704   7.442   5.864
 3511POPC   GL145853  16.724   7.383   6.164
 3511POPC   GL245854  16.838   7.272   6.164
 3511POPC   C1A45855  16.697   7.466   6.464
 3511POPC   D2A45856  16.778   7.380   6.764
 3511POPC   C3A45857  16.719   7.450   7.064
 3511POPC   C4A45858  16.773   7.440   7.364
 3511POPC   C1B45859  16.893   7.228   6.464
 3511POPC   C2B45860  16.802   7.207   6.764
 3511POPC   C3B45861  16.834   7.246   7.064
 3511POPC   C4B45862  16.823   7.213   7.364
 3512POPC   NC345863  38.468  15.188   5.564
 3512POPC   PO445864  38.419  15.225   5.864
 3512POPC   GL145865  38.407  15.158   6.164
 3512POPC   GL245866  38.552  15.202   6.164
 3512POPC   C1A45867  38.413  15.158   6.464
 3512POPC   D2A45868  38.468  15.199   6.764
 3512POPC   C3A45869  38.451  15.186   7.064
 3512POPC   C4A45870  38.442  15.163   7.364
 3512POPC   C1B45871  38.747  15.194   6.464
 3512POPC   C2B45872  38.686  15.167   6.764
 3512POPC   C3B45873  38.664  15.166   7.064
 3512POPC   C4B45874  38.698  15.235   7.364
 3513POPC   NC345875  34.537  31.463   5.564
 3513POPC   PO445876  34.550  31.497   5.864
 3513POPC   GL145877  34.560  31.478   6.164
 3513POPC   GL245878  34.570  31.536   6.164
 3513POPC   C1A45879  34.534  31.459   6.464
 3513POPC   D2A45880  34.588  31.460   6.764
 3513POPC   C3A45881  34.543  31.512   7.064
 3513POPC   C4A45882  34.526  31.495   7.364
 3513POPC   C1B45883  34.445  31.676   6.464
 3513POPC   C2B45884  34.419  31.651   6.764
 3513POPC   C3B45885  34.423  31.647   7.064
 3513POPC   C4B45886  34.478  31.723   7.364
 3514POPC   NC345887  31.483  28.375   5.564
 3514POPC   PO445888  31.511  28.362   5.864
 3514POPC   GL145889  31.485  28.385   6.164
 3514POPC   GL245890  31.480  28.297   6.164
 3514POPC   C1A45891  31.494  28.404   6.464
 3514POPC   D2A45892  31.463  28.365   6.764
 3514POPC   C3A45893  31.436  28.396   7.064
 3514POPC   C4A45894  31.514  28.322   7.364
 3514POPC   C1B45895  31.617  28.117   6.464
 3514POPC   C2B45896  31.551  28.101   6.764
 3514POPC   C3B45897  31.551  28.091   7.064
 3514POPC   C4B45898  31.595  28.176   7.364
 3515POPC   NC345899  17.551  10.474   5.564
 3515POPC   PO445900  17.481  10.540   5.864
 3515POPC   GL145901  17.468  10.519   6.164
 3515POPC   GL245902  17.433  10.625   6.164
 3515POPC   C1A45903  17.530  10.570   6.464
 3515POPC   D2A45904  17.501  10.514   6.764
 3515POPC   C3A45905  17.506  10.534   7.064
 3515POPC   C4A45906  17.530  10.481   7.364
 3515POPC   C1B45907  17.494  10.732   6.464
 3515POPC   C2B45908  17.506  10.806   6.764
 3515POPC   C3B45909  17.464  10.767   7.064
 3515POPC   C4B45910  17.419  10.787   7.364
 3516POPC   NC345911  22.965  34.565   5.564
 3516POPC   PO445912  22.905  34.608   5.864
 3516POPC   GL145913  22.891  34.554   6.164
 3516POPC   GL245914  23.026  34.529   6.164
 3516POPC   C1A45915  22.893  34.547   6.464
 3516POPC   D2A45916  22.975  34.537   6.764
 3516POPC   C3A45917  22.973  34.538   7.064
 3516POPC   C4A45918  22.893  34.568   7.364
 3516POPC   C1B45919  23.221  34.479   6.464
 3516POPC   C2B45920  23.141  34.529   6.764
 3516POPC   C3B45921  23.161  34.466   7.064
 3516POPC   C4B45922  23.189  34.514   7.364
 3517POPC   NC345923  22.947  19.800   5.564
 3517POPC   PO445924  22.934  19.839   5.864
 3517POPC   GL145925  22.953  19.808   6.164
 3517POPC   GL245926  22.780  19.875   6.164
 3517POPC   C1A45927  22.930  19.811   6.464
 3517POPC   D2A45928  22.953  19.847   6.764
 3517POPC   C3A45929  22.914  19.859   7.064
 3517POPC   C4A45930  22.978  19.807   7.364
 3517POPC   C1B45931  22.753  19.891   6.464
 3517POPC   C2B45932  22.689  19.920   6.764
 3517POPC   C3B45933  22.741  19.922   7.064
 3517POPC   C4B45934  22.728  19.884   7.364
 3518POPC   NC345935   8.984  22.188   5.564
 3518POPC   PO445936   8.923  22.148   5.864
 3518POPC   GL145937   8.971  22.203   6.164
 3518POPC   GL245938   8.973  22.282   6.164
 3518POPC   C1A45939   8.960  22.185   6.464
 3518POPC   D2A45940   8.936  22.160   6.764
 3518POPC   C3A45941   8.955  22.113   7.064
 3518POPC   C4A45942   9.012  22.123   7.364
 3518POPC   C1B45943   9.001  22.421   6.464
 3518POPC   C2B45944   8.968  22.436   6.764
 3518POPC   C3B45945   8.942  22.425   7.064
 3518POPC   C4B45946   8.982  22.410   7.364
 3519POPC   NC345947  15.195  26.808   5.564
 3519POPC   PO445948  15.221  26.841   5.864
 3519POPC   GL145949  15.211  26.808   6.164
 3519POPC   GL245950  15.115  26.771   6.164
 3519POPC   C1A45951  15.214  26.838   6.464
 3519POPC   D2A45952  15.219  26.842   6.764
 3519POPC   C3A45953  15.210  26.847   7.064
 3519POPC   C4A45954  15.144  26.818   7.364
 3519POPC   C1B45955  14.942  26.630   6.464
 3519POPC   C2B45956  14.994  26.695   6.764
 3519POPC   C3B45957  14.945  26.659   7.064
 3519POPC   C4B45958  15.019  26.671   7.364
 3520POPC   NC345959  23.684  40.735   5.564
 3520POPC   PO445960  23.682  40.808   5.864
 3520POPC   GL145961  23.700  40.769   6.164
 3520POPC   GL245962  23.786  40.937   6.164
 3520POPC   C1A45963  23.748  40.759   6.464
 3520POPC   D2A45964  23.688  40.766   6.764
 3520POPC   C3A45965  23.753  40.753   7.064
 3520POPC   C4A45966  23.711  40.791   7.364
 3520POPC   C1B45967  23.781  40.965   6.464
 3520POPC   C2B45968  23.826  40.960   6.764
 3520POPC   C3B45969  23.822  41.049   7.064
 3520POPC   C4B45970  23.845  40.980   7.364
 3521POPC   NC345971  29.960  14.359   5.564
 3521POPC   PO445972  29.968  14.403   5.864
 3521POPC   GL145973  29.913  14.400   6.164
 3521POPC   GL245974  29.808  14.476   6.164
 3521POPC   C1A45975  29.967  14.442   6.464
 3521POPC   D2A45976  29.952  14.409   6.764
 3521POPC   C3A45977  29.885  14.386   7.064
 3521POPC   C4A45978  29.942  14.367   7.364
 3521POPC   C1B45979  29.755  14.589   6.464
 3521POPC   C2B45980  29.794  14.638   6.764
 3521POPC   C3B45981  29.765  14.630   7.064
 3521POPC   C4B45982  29.790  14.658   7.364
 3522POPC   NC345983   8.980  16.711   5.564
 3522POPC   PO445984   8.997  16.709   5.864
 3522POPC   GL145985   8.988  16.692   6.164
 3522POPC   GL245986   8.923  16.842   6.164
 3522POPC   C1A45987   9.005  16.714   6.464
 3522POPC   D2A45988   8.960  16.727   6.764
 3522POPC   C3A45989   8.923  16.742   7.064
 3522POPC   C4A45990   9.010  16.699   7.364
 3522POPC   C1B45991   9.015  16.980   6.464
 3522POPC   C2B45992   8.960  17.024   6.764
 3522POPC   C3B45993   8.954  16.980   7.064
 3522POPC   C4B45994   8.930  16.963   7.364
 3523POPC   NC345995   0.449  43.145   5.564
 3523POPC   PO445996   0.432  43.099   5.864
 3523POPC   GL145997   0.475  43.086   6.164
 3523POPC   GL245998   0.501  43.118   6.164
 3523POPC   C1A45999   0.431  43.138   6.464
 3523POPC   D2A46000   0.425  43.081   6.764
 3523POPC   C3A46001   0.451  43.093   7.064
 3523POPC   C4A46002   0.448  43.063   7.364
 3523POPC   C1B46003   0.679  43.189   6.464
 3523POPC   C2B46004   0.707  43.201   6.764
 3523POPC   C3B46005   0.671  43.264   7.064
 3523POPC   C4B46006   0.668  43.248   7.364
 3524POPC   NC346007  19.102  15.908   5.564
 3524POPC   PO446008  19.070  15.959   5.864
 3524POPC   GL146009  19.017  15.972   6.164
 3524POPC   GL246010  19.160  16.005   6.164
 3524POPC   C1A46011  19.044  15.927   6.464
 3524POPC   D2A46012  19.028  15.975   6.764
 3524POPC   C3A46013  19.033  15.943   7.064
 3524POPC   C4A46014  19.041  15.934   7.364
 3524POPC   C1B46015  19.278  15.981   6.464
 3524POPC   C2B46016  19.308  15.973   6.764
 3524POPC   C3B46017  19.265  16.064   7.064
 3524POPC   C4B46018  19.337  16.039   7.364
 3525POPC   NC346019  13.588  40.740   5.564
 3525POPC   PO446020  13.602  40.831   5.864
 3525POPC   GL146021  13.615  40.783   6.164
 3525POPC   GL246022  13.487  40.744   6.164
 3525POPC   C1A46023  13.648  40.800   6.464
 3525POPC   D2A46024  13.631  40.760   6.764
 3525POPC   C3A46025  13.591  40.761   7.064
 3525POPC   C4A46026  13.611  40.772   7.364
 3525POPC   C1B46027  13.361  40.744   6.464
 3525POPC   C2B46028  13.425  40.752   6.764
 3525POPC   C3B46029  13.437  40.700   7.064
 3525POPC   C4B46030  13.399  40.749   7.364
 3526POPC   NC346031  39.250   2.763   5.564
 3526POPC   PO446032  39.215   2.787   5.864
 3526POPC   GL146033  39.228   2.724   6.164
 3526POPC   GL246034  39.350   2.671   6.164
 3526POPC   C1A46035  39.196   2.766   6.464
 3526POPC   D2A46036  39.261   2.718   6.764
 3526POPC   C3A46037  39.266   2.796   7.064
 3526POPC   C4A46038  39.279   2.777   7.364
 3526POPC   C1B46039  39.343   2.623   6.464
 3526POPC   C2B46040  39.357   2.604   6.764
 3526POPC   C3B46041  39.350   2.560   7.064
 3526POPC   C4B46042  39.404   2.572   7.364
 3527POPC   NC346043  44.635   1.251   5.564
 3527POPC   PO446044  44.686   1.262   5.864
 3527POPC   GL146045  44.679   1.200   6.164
 3527POPC   GL246046  44.618   1.081   6.164
 3527POPC   C1A46047  44.683   1.211   6.464
 3527POPC   D2A46048  44.676   1.209   6.764
 3527POPC   C3A46049  44.649   1.252   7.064
 3527POPC   C4A46050  44.666   1.166   7.364
 3527POPC   C1B46051  44.459   1.043   6.464
 3527POPC   C2B46052  44.480   0.998   6.764
 3527POPC   C3B46053  44.536   1.001   7.064
 3527POPC   C4B46054  44.447   1.045   7.364
 3528POPC   NC346055   0.395  38.461   5.564
 3528POPC   PO446056   0.440  38.422   5.864
 3528POPC   GL146057   0.406  38.412   6.164
 3528POPC   GL246058   0.405  38.348   6.164
 3528POPC   C1A46059   0.431  38.482   6.464
 3528POPC   D2A46060   0.410  38.475   6.764
 3528POPC   C3A46061   0.487  38.471   7.064
 3528POPC   C4A46062   0.457  38.494   7.364
 3528POPC   C1B46063   0.352  38.266   6.464
 3528POPC   C2B46064   0.334  38.227   6.764
 3528POPC   C3B46065   0.276  38.211   7.064
 3528POPC   C4B46066   0.298  38.245   7.364
 3529POPC   NC346067   5.867  21.403   5.564
 3529POPC   PO446068   5.852  21.379   5.864
 3529POPC   GL146069   5.884  21.355   6.164
 3529POPC   GL246070   5.879  21.223   6.164
 3529POPC   C1A46071   5.883  21.349   6.464
 3529POPC   D2A46072   5.859  21.367   6.764
 3529POPC   C3A46073   5.913  21.394   7.064
 3529POPC   C4A46074   5.882  21.421   7.364
 3529POPC   C1B46075   5.987  21.164   6.464
 3529POPC   C2B46076   5.964  21.170   6.764
 3529POPC   C3B46077   5.936  21.125   7.064
 3529POPC   C4B46078   5.933  21.138   7.364
 3530POPC   NC346079   5.900  33.774   5.564
 3530POPC   PO446080   5.826  33.765   5.864
 3530POPC   GL146081   5.846  33.818   6.164
 3530POPC   GL246082   5.815  33.927   6.164
 3530POPC   C1A46083   5.860  33.835   6.464
 3530POPC   D2A46084   5.848  33.766   6.764
 3530POPC   C3A46085   5.869  33.768   7.064
 3530POPC   C4A46086   5.881  33.753   7.364
 3530POPC   C1B46087   5.880  34.031   6.464
 3530POPC   C2B46088   5.810  34.035   6.764
 3530POPC   C3B46089   5.850  34.081   7.064
 3530POPC   C4B46090   5.858  34.063   7.364
 3531POPC   NC346091  18.308  22.958   5.564
 3531POPC   PO446092  18.254  22.950   5.864
 3531POPC   GL146093  18.263  22.949   6.164
 3531POPC   GL246094  18.328  22.784   6.164
 3531POPC   C1A46095  18.296  22.966   6.464
 3531POPC   D2A46096  18.275  22.978   6.764
 3531POPC   C3A46097  18.311  22.932   7.064
 3531POPC   C4A46098  18.271  22.975   7.364
 3531POPC   C1B46099  18.322  22.743   6.464
 3531POPC   C2B46100  18.316  22.656   6.764
 3531POPC   C3B46101  18.289  22.676   7.064
 3531POPC   C4B46102  18.318  22.663   7.364
 3532POPC   NC346103  36.898  18.257   5.564
 3532POPC   PO446104  36.934  18.290   5.864
 3532POPC   GL146105  36.943  18.241   6.164
 3532POPC   GL246106  36.833  18.229   6.164
 3532POPC   C1A46107  36.900  18.283   6.464
 3532POPC   D2A46108  36.897  18.306   6.764
 3532POPC   C3A46109  36.914  18.254   7.064
 3532POPC   C4A46110  36.912  18.285   7.364
 3532POPC   C1B46111  36.765  18.130   6.464
 3532POPC   C2B46112  36.731  18.076   6.764
 3532POPC   C3B46113  36.778  18.108   7.064
 3532POPC   C4B46114  36.762  18.133   7.364
 3533POPC   NC346115  11.258  20.579   5.564
 3533POPC   PO446116  11.293  20.629   5.864
 3533POPC   GL146117  11.294  20.629   6.164
 3533POPC   GL246118  11.263  20.713   6.164
 3533POPC   C1A46119  11.286  20.583   6.464
 3533POPC   D2A46120  11.335  20.572   6.764
 3533POPC   C3A46121  11.285  20.594   7.064
 3533POPC   C4A46122  11.312  20.645   7.364
 3533POPC   C1B46123  11.175  20.822   6.464
 3533POPC   C2B46124  11.128  20.787   6.764
 3533POPC   C3B46125  11.167  20.806   7.064
 3533POPC   C4B46126  11.176  20.861   7.364
 3534POPC   NC346127  29.153   8.957   5.564
 3534POPC   PO446128  29.139   8.934   5.864
 3534POPC   GL146129  29.188   9.009   6.164
 3534POPC   GL246130  29.233   9.010   6.164
 3534POPC   C1A46131  29.106   8.971   6.464
 3534POPC   D2A46132  29.114   9.000   6.764
 3534POPC   C3A46133  29.109   8.933   7.064
 3534POPC   C4A46134  29.190   8.978   7.364
 3534POPC   C1B46135  29.420   9.052   6.464
 3534POPC   C2B46136  29.384   9.043   6.764
 3534POPC   C3B46137  29.339   9.008   7.064
 3534POPC   C4B46138  29.365   9.067   7.364
 3535POPC   NC346139  24.440  30.718   5.564
 3535POPC   PO446140  24.460  30.709   5.864
 3535POPC   GL146141  24.462  30.678   6.164
 3535POPC   GL246142  24.559  30.791   6.164
 3535POPC   C1A46143  24.460  30.684   6.464
 3535POPC   D2A46144  24.509  30.675   6.764
 3535POPC   C3A46145  24.455  30.666   7.064
 3535POPC   C4A46146  24.491  30.741   7.364
 3535POPC   C1B46147  24.698  30.847   6.464
 3535POPC   C2B46148  24.647  30.861   6.764
 3535POPC   C3B46149  24.626  30.843   7.064
 3535POPC   C4B46150  24.701  30.845   7.364
 3536POPC   NC346151  43.884  31.464   5.564
 3536POPC   PO446152  43.882  31.453   5.864
 3536POPC   GL146153  43.903  31.508   6.164
 3536POPC   GL246154  43.714  31.478   6.164
 3536POPC   C1A46155  43.931  31.478   6.464
 3536POPC   D2A46156  43.887  31.470   6.764
 3536POPC   C3A46157  43.883  31.497   7.064
 3536POPC   C4A46158  43.868  31.491   7.364
 3536POPC   C1B46159  43.684  31.465   6.464
 3536POPC   C2B46160  43.636  31.406   6.764
 3536POPC   C3B46161  43.646  31.426   7.064
 3536POPC   C4B46162  43.637  31.467   7.364
 3537POPC   NC346163  22.168  29.960   5.564
 3537POPC   PO446164  22.167  29.968   5.864
 3537POPC   GL146165  22.176  29.906   6.164
 3537POPC   GL246166  22.128  30.047   6.164
 3537POPC   C1A46167  22.115  29.923   6.464
 3537POPC   D2A46168  22.210  29.883   6.764
 3537POPC   C3A46169  22.185  29.893   7.064
 3537POPC   C4A46170  22.119  29.897   7.364
 3537POPC   C1B46171  22.050  30.140   6.464
 3537POPC   C2B46172  22.020  30.124   6.764
 3537POPC   C3B46173  21.998  30.110   7.064
 3537POPC   C4B46174  22.034  30.093   7.364
 3538POPC   NC346175  36.145   1.995   5.564
 3538POPC   PO446176  36.168   2.011   5.864
 3538POPC   GL146177  36.116   1.978   6.164
 3538POPC   GL246178  36.169   2.070   6.164
 3538POPC   C1A46179  36.166   2.028   6.464
 3538POPC   D2A46180  36.148   1.966   6.764
 3538POPC   C3A46181  36.093   1.975   7.064
 3538POPC   C4A46182  36.130   1.943   7.364
 3538POPC   C1B46183  36.159   2.224   6.464
 3538POPC   C2B46184  36.211   2.204   6.764
 3538POPC   C3B46185  36.167   2.239   7.064
 3538POPC   C4B46186  36.146   2.238   7.364
 3539POPC   NC346187   7.389  35.354   5.564
 3539POPC   PO446188   7.388  35.321   5.864
 3539POPC   GL146189   7.378  35.397   6.164
 3539POPC   GL246190   7.506  35.445   6.164
 3539POPC   C1A46191   7.458  35.375   6.464
 3539POPC   D2A46192   7.429  35.304   6.764
 3539POPC   C3A46193   7.373  35.356   7.064
 3539POPC   C4A46194   7.404  35.397   7.364
 3539POPC   C1B46195   7.466  35.606   6.464
 3539POPC   C2B46196   7.558  35.598   6.764
 3539POPC   C3B46197   7.515  35.553   7.064
 3539POPC   C4B46198   7.517  35.629   7.364
 3540POPC   NC346199  11.320  37.690   5.564
 3540POPC   PO446200  11.270  37.727   5.864
 3540POPC   GL146201  11.278  37.668   6.164
 3540POPC   GL246202  11.164  37.706   6.164
 3540POPC   C1A46203  11.312  37.677   6.464
 3540POPC   D2A46204  11.261  37.678   6.764
 3540POPC   C3A46205  11.350  37.695   7.064
 3540POPC   C4A46206  11.275  37.725   7.364
 3540POPC   C1B46207  11.050  37.777   6.464
 3540POPC   C2B46208  11.074  37.826   6.764
 3540POPC   C3B46209  11.037  37.768   7.064
 3540POPC   C4B46210  11.096  37.780   7.364
 3541POPC   NC346211  14.376  36.113   5.564
 3541POPC   PO446212  14.388  36.149   5.864
 3541POPC   GL146213  14.396  36.125   6.164
 3541POPC   GL246214  14.503  36.244   6.164
 3541POPC   C1A46215  14.386  36.119   6.464
 3541POPC   D2A46216  14.382  36.131   6.764
 3541POPC   C3A46217  14.394  36.133   7.064
 3541POPC   C4A46218  14.376  36.163   7.364
 3541POPC   C1B46219  14.566  36.243   6.464
 3541POPC   C2B46220  14.565  36.251   6.764
 3541POPC   C3B46221  14.586  36.235   7.064
 3541POPC   C4B46222  14.588  36.280   7.364
 3542POPC   NC346223   8.179  27.569   5.564
 3542POPC   PO446224   8.195  27.639   5.864
 3542POPC   GL146225   8.190  27.642   6.164
 3542POPC   GL246226   8.305  27.684   6.164
 3542POPC   C1A46227   8.190  27.635   6.464
 3542POPC   D2A46228   8.215  27.596   6.764
 3542POPC   C3A46229   8.162  27.581   7.064
 3542POPC   C4A46230   8.236  27.608   7.364
 3542POPC   C1B46231   8.375  27.735   6.464
 3542POPC   C2B46232   8.376  27.748   6.764
 3542POPC   C3B46233   8.415  27.724   7.064
 3542POPC   C4B46234   8.360  27.730   7.364
 3543POPC   NC346235  22.909  26.849   5.564
 3543POPC   PO446236  22.959  26.837   5.864
 3543POPC   GL146237  22.950  26.849   6.164
 3543POPC   GL246238  23.015  26.820   6.164
 3543POPC   C1A46239  22.965  26.786   6.464
 3543POPC   D2A46240  22.928  26.825   6.764
 3543POPC   C3A46241  22.935  26.859   7.064
 3543POPC   C4A46242  22.982  26.806   7.364
 3543POPC   C1B46243  23.179  26.730   6.464
 3543POPC   C2B46244  23.154  26.771   6.764
 3543POPC   C3B46245  23.177  26.802   7.064
 3543POPC   C4B46246  23.232  26.740   7.364
 3544POPC   NC346247   4.307  20.564   5.564
 3544POPC   PO446248   4.358  20.631   5.864
 3544POPC   GL146249   4.281  20.598   6.164
 3544POPC   GL246250   4.408  20.750   6.164
 3544POPC   C1A46251   4.342  20.576   6.464
 3544POPC   D2A46252   4.349  20.567   6.764
 3544POPC   C3A46253   4.348  20.629   7.064
 3544POPC   C4A46254   4.350  20.654   7.364
 3544POPC   C1B46255   4.458  20.835   6.464
 3544POPC   C2B46256   4.487  20.823   6.764
 3544POPC   C3B46257   4.406  20.854   7.064
 3544POPC   C4B46258   4.400  20.804   7.364
 3545POPC   NC346259  26.786   5.914   5.564
 3545POPC   PO446260  26.787   5.853   5.864
 3545POPC   GL146261  26.827   5.841   6.164
 3545POPC   GL246262  26.685   5.873   6.164
 3545POPC   C1A46263  26.849   5.910   6.464
 3545POPC   D2A46264  26.831   5.906   6.764
 3545POPC   C3A46265  26.843   5.820   7.064
 3545POPC   C4A46266  26.775   5.882   7.364
 3545POPC   C1B46267  26.578   5.938   6.464
 3545POPC   C2B46268  26.581   5.949   6.764
 3545POPC   C3B46269  26.632   6.012   7.064
 3545POPC   C4B46270  26.542   5.928   7.364
 3546POPC   NC346271   6.599  15.917   5.564
 3546POPC   PO446272   6.631  15.954   5.864
 3546POPC   GL146273   6.625  15.947   6.164
 3546POPC   GL246274   6.693  15.811   6.164
 3546POPC   C1A46275   6.675  16.002   6.464
 3546POPC   D2A46276   6.651  15.940   6.764
 3546POPC   C3A46277   6.636  15.924   7.064
 3546POPC   C4A46278   6.638  15.924   7.364
 3546POPC   C1B46279   6.739  15.697   6.464
 3546POPC   C2B46280   6.671  15.745   6.764
 3546POPC   C3B46281   6.692  15.730   7.064
 3546POPC   C4B46282   6.696  15.742   7.364
 3547POPC   NC346283   6.665  11.265   5.564
 3547POPC   PO446284   6.617  11.317   5.864
 3547POPC   GL146285   6.661  11.283   6.164
 3547POPC   GL246286   6.693  11.213   6.164
 3547POPC   C1A46287   6.683  11.327   6.464
 3547POPC   D2A46288   6.660  11.337   6.764
 3547POPC   C3A46289   6.613  11.307   7.064
 3547POPC   C4A46290   6.687  11.316   7.364
 3547POPC   C1B46291   6.832  11.140   6.464
 3547POPC   C2B46292   6.816  11.169   6.764
 3547POPC   C3B46293   6.809  11.131   7.064
 3547POPC   C4B46294   6.815  11.135   7.364
 3548POPC   NC346295  20.602  15.985   5.564
 3548POPC   PO446296  20.593  15.927   5.864
 3548POPC   GL146297  20.648  15.997   6.164
 3548POPC   GL246298  20.595  15.812   6.164
 3548POPC   C1A46299  20.635  16.005   6.464
 3548POPC   D2A46300  20.603  15.930   6.764
 3548POPC   C3A46301  20.629  15.951   7.064
 3548POPC   C4A46302  20.566  15.935   7.364
 3548POPC   C1B46303  20.604  15.726   6.464
 3548POPC   C2B46304  20.600  15.689   6.764
 3548POPC   C3B46305  20.568  15.746   7.064
 3548POPC   C4B46306  20.590  15.669   7.364
 3549POPC   NC346307  24.444  32.981   5.564
 3549POPC   PO446308  24.492  33.044   5.864
 3549POPC   GL146309  24.468  33.007   6.164
 3549POPC   GL246310  24.398  32.970   6.164
 3549POPC   C1A46311  24.490  33.009   6.464
 3549POPC   D2A46312  24.474  33.043   6.764
 3549POPC   C3A46313  24.517  33.033   7.064
 3549POPC   C4A46314  24.459  33.030   7.364
 3549POPC   C1B46315  24.233  32.961   6.464
 3549POPC   C2B46316  24.222  32.970   6.764
 3549POPC   C3B46317  24.264  32.949   7.064
 3549POPC   C4B46318  24.246  32.974   7.364
 3550POPC   NC346319   3.555  34.601   5.564
 3550POPC   PO446320   3.508  34.606   5.864
 3550POPC   GL146321   3.527  34.569   6.164
 3550POPC   GL246322   3.480  34.486   6.164
 3550POPC   C1A46323   3.512  34.564   6.464
 3550POPC   D2A46324   3.538  34.624   6.764
 3550POPC   C3A46325   3.573  34.563   7.064
 3550POPC   C4A46326   3.584  34.534   7.364
 3550POPC   C1B46327   3.500  34.343   6.464
 3550POPC   C2B46328   3.511  34.303   6.764
 3550POPC   C3B46329   3.490  34.376   7.064
 3550POPC   C4B46330   3.498  34.284   7.364
 3551POPC   NC346331   2.784  39.247   5.564
 3551POPC   PO446332   2.748  39.209   5.864
 3551POPC   GL146333   2.777  39.208   6.164
 3551POPC   GL246334   2.806  39.105   6.164
 3551POPC   C1A46335   2.749  39.213   6.464
 3551POPC   D2A46336   2.733  39.261   6.764
 3551POPC   C3A46337   2.725  39.254   7.064
 3551POPC   C4A46338   2.731  39.277   7.364
 3551POPC   C1B46339   2.926  39.016   6.464
 3551POPC   C2B46340   2.870  38.975   6.764
 3551POPC   C3B46341   2.866  39.049   7.064
 3551POPC   C4B46342   2.922  39.005   7.364
 3552POPC   NC346343  13.650  43.855   5.564
 3552POPC   PO446344  13.646  43.866   5.864
 3552POPC   GL146345  13.594  43.898   6.164
 3552POPC   GL246346  13.714  43.853   6.164
 3552POPC   C1A46347  13.585  43.918   6.464
 3552POPC   D2A46348  13.676  43.849   6.764
 3552POPC   C3A46349  13.578  43.852   7.064
 3552POPC   C4A46350  13.666  43.855   7.364
 3552POPC   C1B46351  13.843  43.844   6.464
 3552POPC   C2B46352  13.828  43.894   6.764
 3552POPC   C3B46353  13.901  43.875   7.064
 3552POPC   C4B46354  13.904  43.903   7.364
 3553POPC   NC346355   4.338  32.995   5.564
 3553POPC   PO446356   4.298  33.034   5.864
 3553POPC   GL146357   4.279  33.012   6.164
 3553POPC   GL246358   4.459  33.085   6.164
 3553POPC   C1A46359   4.340  33.055   6.464
 3553POPC   D2A46360   4.358  32.984   6.764
 3553POPC   C3A46361   4.293  33.055   7.064
 3553POPC   C4A46362   4.295  32.995   7.364
 3553POPC   C1B46363   4.566  33.124   6.464
 3553POPC   C2B46364   4.577  33.142   6.764
 3553POPC   C3B46365   4.572  33.094   7.064
 3553POPC   C4B46366   4.573  33.136   7.364
 3554POPC   NC346367  30.660  22.124   5.564
 3554POPC   PO446368  30.743  22.151   5.864
 3554POPC   GL146369  30.660  22.203   6.164
 3554POPC   GL246370  30.755  22.263   6.164
 3554POPC   C1A46371  30.697  22.199   6.464
 3554POPC   D2A46372  30.668  22.140   6.764
 3554POPC   C3A46373  30.654  22.119   7.064
 3554POPC   C4A46374  30.687  22.181   7.364
 3554POPC   C1B46375  30.832  22.378   6.464
 3554POPC   C2B46376  30.854  22.421   6.764
 3554POPC   C3B46377  30.856  22.402   7.064
 3554POPC   C4B46378  30.870  22.421   7.364
 3555POPC   NC346379  21.377  17.552   5.564
 3555POPC   PO446380  21.429  17.502   5.864
 3555POPC   GL146381  21.373  17.505   6.164
 3555POPC   GL246382  21.329  17.390   6.164
 3555POPC   C1A46383  21.392  17.506   6.464
 3555POPC   D2A46384  21.383  17.479   6.764
 3555POPC   C3A46385  21.373  17.498   7.064
 3555POPC   C4A46386  21.365  17.510   7.364
 3555POPC   C1B46387  21.278  17.317   6.464
 3555POPC   C2B46388  21.244  17.291   6.764
 3555POPC   C3B46389  21.241  17.273   7.064
 3555POPC   C4B46390  21.218  17.246   7.364
 3556POPC   NC346391  38.485  22.905   5.564
 3556POPC   PO446392  38.420  22.910   5.864
 3556POPC   GL146393  38.501  22.896   6.164
 3556POPC   GL246394  38.344  23.036   6.164
 3556POPC   C1A46395  38.448  22.900   6.464
 3556POPC   D2A46396  38.443  22.932   6.764
 3556POPC   C3A46397  38.475  22.921   7.064
 3556POPC   C4A46398  38.470  22.979   7.364
 3556POPC   C1B46399  38.368  23.204   6.464
 3556POPC   C2B46400  38.378  23.131   6.764
 3556POPC   C3B46401  38.354  23.119   7.064
 3556POPC   C4B46402  38.293  23.130   7.364
 3557POPC   NC346403  33.037  24.492   5.564
 3557POPC   PO446404  32.995  24.495   5.864
 3557POPC   GL146405  33.030  24.450   6.164
 3557POPC   GL246406  33.109  24.382   6.164
 3557POPC   C1A46407  33.035  24.511   6.464
 3557POPC   D2A46408  33.061  24.485   6.764
 3557POPC   C3A46409  33.016  24.476   7.064
 3557POPC   C4A46410  32.979  24.478   7.364
 3557POPC   C1B46411  33.255  24.329   6.464
 3557POPC   C2B46412  33.189  24.340   6.764
 3557POPC   C3B46413  33.273  24.305   7.064
 3557POPC   C4B46414  33.253  24.366   7.364
 3558POPC   NC346415  36.881   0.405   5.564
 3558POPC   PO446416  36.927   0.442   5.864
 3558POPC   GL146417  36.898   0.470   6.164
 3558POPC   GL246418  36.865   0.329   6.164
 3558POPC   C1A46419  36.899   0.463   6.464
 3558POPC   D2A46420  36.889   0.464   6.764
 3558POPC   C3A46421  36.870   0.486   7.064
 3558POPC   C4A46422  36.878   0.396   7.364
 3558POPC   C1B46423  36.781   0.258   6.464
 3558POPC   C2B46424  36.764   0.270   6.764
 3558POPC   C3B46425  36.751   0.229   7.064
 3558POPC   C4B46426  36.812   0.216   7.364
 3559POPC   NC346427   3.502  20.652   5.564
 3559POPC   PO446428   3.496  20.583   5.864
 3559POPC   GL146429   3.580  20.654   6.164
 3559POPC   GL246430   3.624  20.548   6.164
 3559POPC   C1A46431   3.567  20.660   6.464
 3559POPC   D2A46432   3.492  20.619   6.764
 3559POPC   C3A46433   3.514  20.652   7.064
 3559POPC   C4A46434   3.586  20.584   7.364
 3559POPC   C1B46435   3.764  20.424   6.464
 3559POPC   C2B46436   3.736  20.470   6.764
 3559POPC   C3B46437   3.765  20.460   7.064
 3559POPC   C4B46438   3.733  20.426   7.364
 3560POPC   NC346439  39.194  38.499   5.564
 3560POPC   PO446440  39.210  38.502   5.864
 3560POPC   GL146441  39.236  38.453   6.164
 3560POPC   GL246442  39.086  38.380   6.164
 3560POPC   C1A46443  39.261  38.423   6.464
 3560POPC   D2A46444  39.274  38.410   6.764
 3560POPC   C3A46445  39.277  38.438   7.064
 3560POPC   C4A46446  39.208  38.457   7.364
 3560POPC   C1B46447  38.975  38.306   6.464
 3560POPC   C2B46448  39.025  38.353   6.764
 3560POPC   C3B46449  39.042  38.300   7.064
 3560POPC   C4B46450  39.053  38.298   7.364
 3561POPC   NC346451  23.736  39.219   5.564
 3561POPC   PO446452  23.698  39.276   5.864
 3561POPC   GL146453  23.674  39.191   6.164
 3561POPC   GL246454  23.579  39.351   6.164
 3561POPC   C1A46455  23.712  39.257   6.464
 3561POPC   D2A46456  23.691  39.253   6.764
 3561POPC   C3A46457  23.715  39.272   7.064
 3561POPC   C4A46458  23.757  39.236   7.364
 3561POPC   C1B46459  23.513  39.353   6.464
 3561POPC   C2B46460  23.536  39.424   6.764
 3561POPC   C3B46461  23.492  39.335   7.064
 3561POPC   C4B46462  23.546  39.413   7.364
 3562POPC   NC346463   6.675  18.323   5.564
 3562POPC   PO446464   6.692  18.318   5.864
 3562POPC   GL146465   6.626  18.329   6.164
 3562POPC   GL246466   6.530  18.389   6.164
 3562POPC   C1A46467   6.650  18.310   6.464
 3562POPC   D2A46468   6.678  18.282   6.764
 3562POPC   C3A46469   6.603  18.255   7.064
 3562POPC   C4A46470   6.653  18.248   7.364
 3562POPC   C1B46471   6.457  18.439   6.464
 3562POPC   C2B46472   6.446  18.380   6.764
 3562POPC   C3B46473   6.407  18.369   7.064
 3562POPC   C4B46474   6.413  18.403   7.364
 3563POPC   NC346475  41.537  15.207   5.564
 3563POPC   PO446476  41.566  15.170   5.864
 3563POPC   GL146477  41.580  15.178   6.164
 3563POPC   GL246478  41.465  15.246   6.164
 3563POPC   C1A46479  41.599  15.226   6.464
 3563POPC   D2A46480  41.559  15.188   6.764
 3563POPC   C3A46481  41.536  15.156   7.064
 3563POPC   C4A46482  41.551  15.188   7.364
 3563POPC   C1B46483  41.505  15.451   6.464
 3563POPC   C2B46484  41.434  15.443   6.764
 3563POPC   C3B46485  41.500  15.414   7.064
 3563POPC   C4B46486  41.425  15.412   7.364
 3564POPC   NC346487   8.971  18.243   5.564
 3564POPC   PO446488   8.961  18.297   5.864
 3564POPC   GL146489   8.934  18.319   6.164
 3564POPC   GL246490   8.804  18.295   6.164
 3564POPC   C1A46491   8.952  18.272   6.464
 3564POPC   D2A46492   9.009  18.320   6.764
 3564POPC   C3A46493   9.003  18.325   7.064
 3564POPC   C4A46494   9.001  18.290   7.364
 3564POPC   C1B46495   8.752  18.284   6.464
 3564POPC   C2B46496   8.679  18.310   6.764
 3564POPC   C3B46497   8.702  18.325   7.064
 3564POPC   C4B46498   8.755  18.319   7.364
 3565POPC   NC346499  11.252  23.726   5.564
 3565POPC   PO446500  11.312  23.751   5.864
 3565POPC   GL146501  11.346  23.668   6.164
 3565POPC   GL246502  11.333  23.560   6.164
 3565POPC   C1A46503  11.342  23.739   6.464
 3565POPC   D2A46504  11.259  23.681   6.764
 3565POPC   C3A46505  11.315  23.747   7.064
 3565POPC   C4A46506  11.311  23.669   7.364
 3565POPC   C1B46507  11.356  23.435   6.464
 3565POPC   C2B46508  11.390  23.523   6.764
 3565POPC   C3B46509  11.401  23.467   7.064
 3565POPC   C4B46510  11.346  23.488   7.364
 3566POPC   NC346511  17.488  22.974   5.564
 3566POPC   PO446512  17.492  22.906   5.864
 3566POPC   GL146513  17.473  22.937   6.164
 3566POPC   GL246514  17.659  22.947   6.164
 3566POPC   C1A46515  17.543  22.915   6.464
 3566POPC   D2A46516  17.518  22.930   6.764
 3566POPC   C3A46517  17.463  22.955   7.064
 3566POPC   C4A46518  17.530  22.925   7.364
 3566POPC   C1B46519  17.730  23.057   6.464
 3566POPC   C2B46520  17.764  23.053   6.764
 3566POPC   C3B46521  17.755  23.043   7.064
 3566POPC   C4B46522  17.708  23.095   7.364
 3567POPC   NC346523  12.048  15.211   5.564
 3567POPC   PO446524  12.083  15.208   5.864
 3567POPC   GL146525  12.078  15.182   6.164
 3567POPC   GL246526  12.216  15.171   6.164
 3567POPC   C1A46527  12.027  15.148   6.464
 3567POPC   D2A46528  12.075  15.192   6.764
 3567POPC   C3A46529  12.103  15.147   7.064
 3567POPC   C4A46530  12.108  15.220   7.364
 3567POPC   C1B46531  12.313  15.218   6.464
 3567POPC   C2B46532  12.359  15.221   6.764
 3567POPC   C3B46533  12.289  15.232   7.064
 3567POPC   C4B46534  12.329  15.248   7.364
 3568POPC   NC346535  32.982  15.970   5.564
 3568POPC   PO446536  33.010  15.955   5.864
 3568POPC   GL146537  33.069  15.935   6.164
 3568POPC   GL246538  33.142  15.892   6.164
 3568POPC   C1A46539  33.065  15.955   6.464
 3568POPC   D2A46540  33.019  15.923   6.764
 3568POPC   C3A46541  33.062  15.924   7.064
 3568POPC   C4A46542  33.026  15.987   7.364
 3568POPC   C1B46543  33.232  15.879   6.464
 3568POPC   C2B46544  33.238  15.968   6.764
 3568POPC   C3B46545  33.287  15.942   7.064
 3568POPC   C4B46546  33.223  15.937   7.364
 3569POPC   NC346547  18.289  11.304   5.564
 3569POPC   PO446548  18.274  11.306   5.864
 3569POPC   GL146549  18.324  11.303   6.164
 3569POPC   GL246550  18.384  11.307   6.164
 3569POPC   C1A46551  18.308  11.287   6.464
 3569POPC   D2A46552  18.255  11.251   6.764
 3569POPC   C3A46553  18.280  11.290   7.064
 3569POPC   C4A46554  18.296  11.263   7.364
 3569POPC   C1B46555  18.508  11.372   6.464
 3569POPC   C2B46556  18.571  11.308   6.764
 3569POPC   C3B46557  18.569  11.385   7.064
 3569POPC   C4B46558  18.503  11.402   7.364
 3570POPC   NC346559  33.030  18.259   5.564
 3570POPC   PO446560  33.041  18.299   5.864
 3570POPC   GL146561  33.035  18.244   6.164
 3570POPC   GL246562  33.135  18.197   6.164
 3570POPC   C1A46563  33.021  18.321   6.464
 3570POPC   D2A46564  32.982  18.305   6.764
 3570POPC   C3A46565  32.988  18.237   7.064
 3570POPC   C4A46566  32.990  18.240   7.364
 3570POPC   C1B46567  33.098  18.063   6.464
 3570POPC   C2B46568  33.165  18.020   6.764
 3570POPC   C3B46569  33.123  18.113   7.064
 3570POPC   C4B46570  33.127  18.029   7.364
 3571POPC   NC346571   2.003  34.589   5.564
 3571POPC   PO446572   1.965  34.542   5.864
 3571POPC   GL146573   1.954  34.603   6.164
 3571POPC   GL246574   1.864  34.634   6.164
 3571POPC   C1A46575   1.992  34.577   6.464
 3571POPC   D2A46576   1.968  34.551   6.764
 3571POPC   C3A46577   2.035  34.585   7.064
 3571POPC   C4A46578   1.967  34.527   7.364
 3571POPC   C1B46579   1.704  34.645   6.464
 3571POPC   C2B46580   1.705  34.608   6.764
 3571POPC   C3B46581   1.713  34.671   7.064
 3571POPC   C4B46582   1.764  34.602   7.364
 3572POPC   NC346583  23.762  20.618   5.564
 3572POPC   PO446584  23.730  20.579   5.864
 3572POPC   GL146585  23.676  20.635   6.164
 3572POPC   GL246586  23.640  20.651   6.164
 3572POPC   C1A46587  23.714  20.629   6.464
 3572POPC   D2A46588  23.668  20.623   6.764
 3572POPC   C3A46589  23.711  20.564   7.064
 3572POPC   C4A46590  23.676  20.652   7.364
 3572POPC   C1B46591  23.487  20.690   6.464
 3572POPC   C2B46592  23.455  20.689   6.764
 3572POPC   C3B46593  23.476  20.699   7.064
 3572POPC   C4B46594  23.519  20.703   7.364
 3573POPC   NC346595  39.962   9.006   5.564
 3573POPC   PO446596  40.046   8.954   5.864
 3573POPC   GL146597  39.975   9.017   6.164
 3573POPC   GL246598  39.987   8.840   6.164
 3573POPC   C1A46599  40.004   9.020   6.464
 3573POPC   D2A46600  40.041   9.005   6.764
 3573POPC   C3A46601  40.029   8.998   7.064
 3573POPC   C4A46602  39.961   9.014   7.364
 3573POPC   C1B46603  40.001   8.744   6.464
 3573POPC   C2B46604  40.032   8.696   6.764
 3573POPC   C3B46605  39.951   8.685   7.064
 3573POPC   C4B46606  40.024   8.768   7.364
 3574POPC   NC346607  43.865  36.918   5.564
 3574POPC   PO446608  43.887  36.943   5.864
 3574POPC   GL146609  43.879  36.884   6.164
 3574POPC   GL246610  43.736  36.932   6.164
 3574POPC   C1A46611  43.928  36.859   6.464
 3574POPC   D2A46612  43.885  36.885   6.764
 3574POPC   C3A46613  43.874  36.901   7.064
 3574POPC   C4A46614  43.901  36.934   7.364
 3574POPC   C1B46615  43.640  36.971   6.464
 3574POPC   C2B46616  43.647  37.061   6.764
 3574POPC   C3B46617  43.709  37.068   7.064
 3574POPC   C4B46618  43.657  36.992   7.364
 3575POPC   NC346619  12.845  36.108   5.564
 3575POPC   PO446620  12.883  36.101   5.864
 3575POPC   GL146621  12.872  36.128   6.164
 3575POPC   GL246622  12.693  36.033   6.164
 3575POPC   C1A46623  12.818  36.094   6.464
 3575POPC   D2A46624  12.813  36.154   6.764
 3575POPC   C3A46625  12.802  36.165   7.064
 3575POPC   C4A46626  12.862  36.166   7.364
 3575POPC   C1B46627  12.582  36.016   6.464
 3575POPC   C2B46628  12.625  35.978   6.764
 3575POPC   C3B46629  12.648  36.019   7.064
 3575POPC   C4B46630  12.666  36.019   7.364
 3576POPC   NC346631  21.402  38.487   5.564
 3576POPC   PO446632  21.417  38.504   5.864
 3576POPC   GL146633  21.365  38.408   6.164
 3576POPC   GL246634  21.321  38.519   6.164
 3576POPC   C1A46635  21.394  38.437   6.464
 3576POPC   D2A46636  21.375  38.494   6.764
 3576POPC   C3A46637  21.380  38.480   7.064
 3576POPC   C4A46638  21.379  38.454   7.364
 3576POPC   C1B46639  21.203  38.598   6.464
 3576POPC   C2B46640  21.175  38.569   6.764
 3576POPC   C3B46641  21.144  38.552   7.064
 3576POPC   C4B46642  21.212  38.597   7.364
 3577POPC   NC346643  39.219  26.018   5.564
 3577POPC   PO446644  39.215  26.029   5.864
 3577POPC   GL146645  39.225  26.061   6.164
 3577POPC   GL246646  39.116  26.126   6.164
 3577POPC   C1A46647  39.193  25.993   6.464
 3577POPC   D2A46648  39.228  26.070   6.764
 3577POPC   C3A46649  39.215  26.006   7.064
 3577POPC   C4A46650  39.189  26.059   7.364
 3577POPC   C1B46651  39.003  26.143   6.464
 3577POPC   C2B46652  38.992  26.099   6.764
 3577POPC   C3B46653  39.004  26.128   7.064
 3577POPC   C4B46654  38.997  26.123   7.364
 3578POPC   NC346655  22.117  40.828   5.564
 3578POPC   PO446656  22.169  40.825   5.864
 3578POPC   GL146657  22.188  40.802   6.164
 3578POPC   GL246658  22.034  40.777   6.164
 3578POPC   C1A46659  22.159  40.777   6.464
 3578POPC   D2A46660  22.158  40.799   6.764
 3578POPC   C3A46661  22.154  40.764   7.064
 3578POPC   C4A46662  22.207  40.832   7.364
 3578POPC   C1B46663  21.943  40.799   6.464
 3578POPC   C2B46664  21.946  40.799   6.764
 3578POPC   C3B46665  21.896  40.848   7.064
 3578POPC   C4B46666  21.864  40.768   7.364
 3579POPC   NC346667  30.737  43.149   5.564
 3579POPC   PO446668  30.697  43.125   5.864
 3579POPC   GL146669  30.698  43.156   6.164
 3579POPC   GL246670  30.594  43.145   6.164
 3579POPC   C1A46671  30.745  43.141   6.464
 3579POPC   D2A46672  30.695  43.067   6.764
 3579POPC   C3A46673  30.713  43.071   7.064
 3579POPC   C4A46674  30.707  43.133   7.364
 3579POPC   C1B46675  30.467  43.069   6.464
 3579POPC   C2B46676  30.464  43.093   6.764
 3579POPC   C3B46677  30.398  43.051   7.064
 3579POPC   C4B46678  30.488  43.054   7.364
 3580POPC   NC346679   8.190  41.594   5.564
 3580POPC   PO446680   8.233  41.516   5.864
 3580POPC   GL146681   8.204  41.595   6.164
 3580POPC   GL246682   8.353  41.508   6.164
 3580POPC   C1A46683   8.201  41.556   6.464
 3580POPC   D2A46684   8.179  41.567   6.764
 3580POPC   C3A46685   8.171  41.540   7.064
 3580POPC   C4A46686   8.166  41.596   7.364
 3580POPC   C1B46687   8.424  41.484   6.464
 3580POPC   C2B46688   8.413  41.439   6.764
 3580POPC   C3B46689   8.387  41.424   7.064
 3580POPC   C4B46690   8.398  41.449   7.364
 3581POPC   NC346691   5.096  29.098   5.564
 3581POPC   PO446692   5.110  29.138   5.864
 3581POPC   GL146693   5.127  29.158   6.164
 3581POPC   GL246694   5.088  29.059   6.164
 3581POPC   C1A46695   5.079  29.173   6.464
 3581POPC   D2A46696   5.059  29.099   6.764
 3581POPC   C3A46697   5.081  29.117   7.064
 3581POPC   C4A46698   5.120  29.191   7.364
 3581POPC   C1B46699   5.099  28.900   6.464
 3581POPC   C2B46700   5.126  28.884   6.764
 3581POPC   C3B46701   5.158  28.862   7.064
 3581POPC   C4B46702   5.159  28.856   7.364
 3582POPC   NC346703  21.373  30.746   5.564
 3582POPC   PO446704  21.406  30.724   5.864
 3582POPC   GL146705  21.408  30.732   6.164
 3582POPC   GL246706  21.509  30.661   6.164
 3582POPC   C1A46707  21.420  30.658   6.464
 3582POPC   D2A46708  21.372  30.647   6.764
 3582POPC   C3A46709  21.405  30.745   7.064
 3582POPC   C4A46710  21.419  30.670   7.364
 3582POPC   C1B46711  21.580  30.681   6.464
 3582POPC   C2B46712  21.582  30.688   6.764
 3582POPC   C3B46713  21.585  30.596   7.064
 3582POPC   C4B46714  21.677  30.640   7.364
 3583POPC   NC346715  28.406  29.133   5.564
 3583POPC   PO446716  28.387  29.145   5.864
 3583POPC   GL146717  28.375  29.170   6.164
 3583POPC   GL246718  28.466  29.093   6.164
 3583POPC   C1A46719  28.328  29.136   6.464
 3583POPC   D2A46720  28.369  29.109   6.764
 3583POPC   C3A46721  28.362  29.095   7.064
 3583POPC   C4A46722  28.341  29.192   7.364
 3583POPC   C1B46723  28.651  29.066   6.464
 3583POPC   C2B46724  28.634  29.094   6.764
 3583POPC   C3B46725  28.637  29.070   7.064
 3583POPC   C4B46726  28.600  29.085   7.364
 3584POPC   NC346727  10.525  26.781   5.564
 3584POPC   PO446728  10.497  26.781   5.864
 3584POPC   GL146729  10.566  26.858   6.164
 3584POPC   GL246730  10.609  26.838   6.164
 3584POPC   C1A46731  10.557  26.856   6.464
 3584POPC   D2A46732  10.534  26.776   6.764
 3584POPC   C3A46733  10.476  26.773   7.064
 3584POPC   C4A46734  10.572  26.839   7.364
 3584POPC   C1B46735  10.803  26.870   6.464
 3584POPC   C2B46736  10.785  26.886   6.764
 3584POPC   C3B46737  10.751  26.885   7.064
 3584POPC   C4B46738  10.777  26.865   7.364
 3585POPC   NC346739  23.668  26.084   5.564
 3585POPC   PO446740  23.720  26.029   5.864
 3585POPC   GL146741  23.757  26.008   6.164
 3585POPC   GL246742  23.878  26.057   6.164
 3585POPC   C1A46743  23.713  26.041   6.464
 3585POPC   D2A46744  23.745  26.084   6.764
 3585POPC   C3A46745  23.705  26.023   7.064
 3585POPC   C4A46746  23.709  26.050   7.364
 3585POPC   C1B46747  24.013  26.016   6.464
 3585POPC   C2B46748  23.929  26.051   6.764
 3585POPC   C3B46749  23.914  25.986   7.064
 3585POPC   C4B46750  23.927  26.066   7.364
 3586POPC   NC346751  14.426  24.505   5.564
 3586POPC   PO446752  14.453  24.462   5.864
 3586POPC   GL146753  14.374  24.473   6.164
 3586POPC   GL246754  14.566  24.511   6.164
 3586POPC   C1A46755  14.379  24.469   6.464
 3586POPC   D2A46756  14.424  24.459   6.764
 3586POPC   C3A46757  14.388  24.460   7.064
 3586POPC   C4A46758  14.442  24.470   7.364
 3586POPC   C1B46759  14.660  24.425   6.464
 3586POPC   C2B46760  14.671  24.464   6.764
 3586POPC   C3B46761  14.629  24.433   7.064
 3586POPC   C4B46762  14.663  24.434   7.364
 3587POPC   NC346763  28.374  40.750   5.564
 3587POPC   PO446764  28.402  40.821   5.864
 3587POPC   GL146765  28.319  40.812   6.164
 3587POPC   GL246766  28.400  40.639   6.164
 3587POPC   C1A46767  28.402  40.787   6.464
 3587POPC   D2A46768  28.404  40.821   6.764
 3587POPC   C3A46769  28.360  40.814   7.064
 3587POPC   C4A46770  28.357  40.807   7.364
 3587POPC   C1B46771  28.378  40.538   6.464
 3587POPC   C2B46772  28.356  40.545   6.764
 3587POPC   C3B46773  28.406  40.489   7.064
 3587POPC   C4B46774  28.354  40.506   7.364
 3588POPC   NC346775  29.188  31.477   5.564
 3588POPC   PO446776  29.184  31.428   5.864
 3588POPC   GL146777  29.144  31.461   6.164
 3588POPC   GL246778  29.004  31.376   6.164
 3588POPC   C1A46779  29.132  31.484   6.464
 3588POPC   D2A46780  29.140  31.493   6.764
 3588POPC   C3A46781  29.114  31.444   7.064
 3588POPC   C4A46782  29.118  31.462   7.364
 3588POPC   C1B46783  28.946  31.299   6.464
 3588POPC   C2B46784  28.924  31.320   6.764
 3588POPC   C3B46785  28.944  31.329   7.064
 3588POPC   C4B46786  28.978  31.368   7.364
 3589POPC   NC346787  40.736  43.904   5.564
 3589POPC   PO446788  40.791  43.910   5.864
 3589POPC   GL146789  40.760  43.908   6.164
 3589POPC   GL246790  40.866  43.968   6.164
 3589POPC   C1A46791  40.821  43.911   6.464
 3589POPC   D2A46792  40.783  43.846   6.764
 3589POPC   C3A46793  40.761  43.901   7.064
 3589POPC   C4A46794  40.817  43.847   7.364
 3589POPC   C1B46795  40.830  44.149   6.464
 3589POPC   C2B46796  40.843  44.106   6.764
 3589POPC   C3B46797  40.917  44.115   7.064
 3589POPC   C4B46798  40.838  44.137   7.364
 3590POPC   NC346799  29.145  26.052   5.564
 3590POPC   PO446800  29.193  26.035   5.864
 3590POPC   GL146801  29.174  26.053   6.164
 3590POPC   GL246802  29.291  26.054   6.164
 3590POPC   C1A46803  29.147  26.025   6.464
 3590POPC   D2A46804  29.145  26.068   6.764
 3590POPC   C3A46805  29.194  26.010   7.064
 3590POPC   C4A46806  29.109  26.034   7.364
 3590POPC   C1B46807  29.435  26.124   6.464
 3590POPC   C2B46808  29.352  26.062   6.764
 3590POPC   C3B46809  29.391  26.115   7.064
 3590POPC   C4B46810  29.400  26.070   7.364
 3591POPC   NC346811  43.875   9.772   5.564
 3591POPC   PO446812  43.871   9.741   5.864
 3591POPC   GL146813  43.849   9.746   6.164
 3591POPC   GL246814  43.985   9.764   6.164
 3591POPC   C1A46815  43.889   9.733   6.464
 3591POPC   D2A46816  43.868   9.719   6.764
 3591POPC   C3A46817  43.876   9.770   7.064
 3591POPC   C4A46818  43.866   9.740   7.364
 3591POPC   C1B46819  44.120   9.827   6.464
 3591POPC   C2B46820  44.128   9.833   6.764
 3591POPC   C3B46821  44.161   9.773   7.064
 3591POPC   C4B46822  44.122   9.754   7.364
 3592POPC   NC346823   0.408  20.646   5.564
 3592POPC   PO446824   0.404  20.652   5.864
 3592POPC   GL146825   0.440  20.574   6.164
 3592POPC   GL246826   0.332  20.513   6.164
 3592POPC   C1A46827   0.471  20.562   6.464
 3592POPC   D2A46828   0.481  20.632   6.764
 3592POPC   C3A46829   0.466  20.569   7.064
 3592POPC   C4A46830   0.469  20.606   7.364
 3592POPC   C1B46831   0.277  20.375   6.464
 3592POPC   C2B46832   0.254  20.396   6.764
 3592POPC   C3B46833   0.349  20.401   7.064
 3592POPC   C4B46834   0.326  20.439   7.364
 3593POPC   NC346835   7.445   1.209   5.564
 3593POPC   PO446836   7.442   1.259   5.864
 3593POPC   GL146837   7.462   1.235   6.164
 3593POPC   GL246838   7.373   1.052   6.164
 3593POPC   C1A46839   7.453   1.183   6.464
 3593POPC   D2A46840   7.470   1.203   6.764
 3593POPC   C3A46841   7.389   1.253   7.064
 3593POPC   C4A46842   7.434   1.213   7.364
 3593POPC   C1B46843   7.351   0.940   6.464
 3593POPC   C2B46844   7.380   1.003   6.764
 3593POPC   C3B46845   7.360   1.020   7.064
 3593POPC   C4B46846   7.320   1.002   7.364
 3594POPC   NC346847  20.636  33.013   5.564
 3594POPC   PO446848  20.653  33.027   5.864
 3594POPC   GL146849  20.602  32.996   6.164
 3594POPC   GL246850  20.610  33.142   6.164
 3594POPC   C1A46851  20.652  33.047   6.464
 3594POPC   D2A46852  20.660  33.066   6.764
 3594POPC   C3A46853  20.634  33.041   7.064
 3594POPC   C4A46854  20.638  32.989   7.364
 3594POPC   C1B46855  20.490  33.304   6.464
 3594POPC   C2B46856  20.510  33.275   6.764
 3594POPC   C3B46857  20.499  33.220   7.064
 3594POPC   C4B46858  20.563  33.292   7.364
 3595POPC   NC346859  40.025  43.886   5.564
 3595POPC   PO446860  40.001  43.853   5.864
 3595POPC   GL146861  40.053  43.866   6.164
 3595POPC   GL246862  40.066  43.958   6.164
 3595POPC   C1A46863  39.981  43.856   6.464
 3595POPC   D2A46864  40.017  43.917   6.764
 3595POPC   C3A46865  40.021  43.850   7.064
 3595POPC   C4A46866  39.958  43.934   7.364
 3595POPC   C1B46867  40.248  44.055   6.464
 3595POPC   C2B46868  40.214  44.016   6.764
 3595POPC   C3B46869  40.207  44.004   7.064
 3595POPC   C4B46870  40.214  44.026   7.364
 3596POPC   NC346871   1.973   3.564   5.564
 3596POPC   PO446872   2.039   3.519   5.864
 3596POPC   GL146873   1.955   3.500   6.164
 3596POPC   GL246874   1.919   3.635   6.164
 3596POPC   C1A46875   2.027   3.570   6.464
 3596POPC   D2A46876   1.978   3.498   6.764
 3596POPC   C3A46877   2.025   3.553   7.064
 3596POPC   C4A46878   1.973   3.587   7.364
 3596POPC   C1B46879   1.843   3.760   6.464
 3596POPC   C2B46880   1.845   3.767   6.764
 3596POPC   C3B46881   1.833   3.794   7.064
 3596POPC   C4B46882   1.817   3.724   7.364
 3597POPC   NC346883   5.822   9.712   5.564
 3597POPC   PO446884   5.855   9.749   5.864
 3597POPC   GL146885   5.916   9.710   6.164
 3597POPC   GL246886   5.972   9.862   6.164
 3597POPC   C1A46887   5.908   9.719   6.464
 3597POPC   D2A46888   5.847   9.710   6.764
 3597POPC   C3A46889   5.841   9.705   7.064
 3597POPC   C4A46890   5.904   9.751   7.364
 3597POPC   C1B46891   6.007   9.968   6.464
 3597POPC   C2B46892   6.015   9.913   6.764
 3597POPC   C3B46893   6.059   9.970   7.064
 3597POPC   C4B46894   6.021   9.946   7.364
 3598POPC   NC346895  32.250  10.567   5.564
 3598POPC   PO446896  32.243  10.548   5.864
 3598POPC   GL146897  32.201  10.478   6.164
 3598POPC   GL246898  32.157  10.367   6.164
 3598POPC   C1A46899  32.199  10.515   6.464
 3598POPC   D2A46900  32.287  10.481   6.764
 3598POPC   C3A46901  32.256  10.536   7.064
 3598POPC   C4A46902  32.228  10.572   7.364
 3598POPC   C1B46903  32.119  10.305   6.464
 3598POPC   C2B46904  32.161  10.316   6.764
 3598POPC   C3B46905  32.159  10.300   7.064
 3598POPC   C4B46906  32.134  10.279   7.364
 3599POPC   NC346907   2.018  22.176   5.564
 3599POPC   PO446908   1.984  22.115   5.864
 3599POPC   GL146909   2.007  22.158   6.164
 3599POPC   GL246910   1.928  22.243   6.164
 3599POPC   C1A46911   1.983  22.181   6.464
 3599POPC   D2A46912   1.962  22.181   6.764
 3599POPC   C3A46913   1.968  22.189   7.064
 3599POPC   C4A46914   2.024  22.211   7.364
 3599POPC   C1B46915   1.789  22.282   6.464
 3599POPC   C2B46916   1.751  22.253   6.764
 3599POPC   C3B46917   1.803  22.273   7.064
 3599POPC   C4B46918   1.746  22.311   7.364
 3600POPC   NC346919  25.264  32.257   5.564
 3600POPC   PO446920  25.240  32.272   5.864
 3600POPC   GL146921  25.265  32.215   6.164
 3600POPC   GL246922  25.370  32.216   6.164
 3600POPC   C1A46923  25.264  32.296   6.464
 3600POPC   D2A46924  25.295  32.248   6.764
 3600POPC   C3A46925  25.267  32.261   7.064
 3600POPC   C4A46926  25.254  32.293   7.364
 3600POPC   C1B46927  25.483  32.206   6.464
 3600POPC   C2B46928  25.533  32.186   6.764
 3600POPC   C3B46929  25.492  32.220   7.064
 3600POPC   C4B46930  25.494  32.221   7.364
 3601POPC   NC346931   7.451   3.551   5.564
 3601POPC   PO446932   7.462   3.550   5.864
 3601POPC   GL146933   7.451   3.496   6.164
 3601POPC   GL246934   7.533   3.501   6.164
 3601POPC   C1A46935   7.448   3.542   6.464
 3601POPC   D2A46936   7.469   3.533   6.764
 3601POPC   C3A46937   7.372   3.516   7.064
 3601POPC   C4A46938   7.411   3.590   7.364
 3601POPC   C1B46939   7.677   3.549   6.464
 3601POPC   C2B46940   7.659   3.487   6.764
 3601POPC   C3B46941   7.634   3.554   7.064
 3601POPC   C4B46942   7.641   3.533   7.364
 3602POPC   NC346943  26.859  33.054   5.564
 3602POPC   PO446944  26.775  33.004   5.864
 3602POPC   GL146945  26.772  33.010   6.164
 3602POPC   GL246946  26.884  33.129   6.164
 3602POPC   C1A46947  26.825  33.056   6.464
 3602POPC   D2A46948  26.787  33.055   6.764
 3602POPC   C3A46949  26.805  33.032   7.064
 3602POPC   C4A46950  26.849  32.986   7.364
 3602POPC   C1B46951  26.845  33.292   6.464
 3602POPC   C2B46952  26.878  33.227   6.764
 3602POPC   C3B46953  26.858  33.294   7.064
 3602POPC   C4B46954  26.870  33.245   7.364
 3603POPC   NC346955  22.140   6.660   5.564
 3603POPC   PO446956  22.115   6.661   5.864
 3603POPC   GL146957  22.168   6.635   6.164
 3603POPC   GL246958  22.032   6.635   6.164
 3603POPC   C1A46959  22.183   6.661   6.464
 3603POPC   D2A46960  22.190   6.648   6.764
 3603POPC   C3A46961  22.184   6.605   7.064
 3603POPC   C4A46962  22.168   6.651   7.364
 3603POPC   C1B46963  21.885   6.610   6.464
 3603POPC   C2B46964  21.935   6.633   6.764
 3603POPC   C3B46965  21.921   6.661   7.064
 3603POPC   C4B46966  21.923   6.622   7.364
 3604POPC   NC346967  37.641  22.935   5.564
 3604POPC   PO446968  37.694  22.984   5.864
 3604POPC   GL146969  37.687  22.927   6.164
 3604POPC   GL246970  37.543  22.963   6.164
 3604POPC   C1A46971  37.665  22.947   6.464
 3604POPC   D2A46972  37.649  22.932   6.764
 3604POPC   C3A46973  37.638  22.981   7.064
 3604POPC   C4A46974  37.656  22.987   7.364
 3604POPC   C1B46975  37.394  22.967   6.464
 3604POPC   C2B46976  37.430  22.956   6.764
 3604POPC   C3B46977  37.470  22.914   7.064
 3604POPC   C4B46978  37.442  22.911   7.364
 3605POPC   NC346979  40.741   8.235   5.564
 3605POPC   PO446980  40.749   8.225   5.864
 3605POPC   GL146981  40.769   8.163   6.164
 3605POPC   GL246982  40.679   8.221   6.164
 3605POPC   C1A46983  40.826   8.160   6.464
 3605POPC   D2A46984  40.825   8.195   6.764
 3605POPC   C3A46985  40.832   8.201   7.064
 3605POPC   C4A46986  40.781   8.194   7.364
 3605POPC   C1B46987  40.593   8.256   6.464
 3605POPC   C2B46988  40.510   8.318   6.764
 3605POPC   C3B46989  40.529   8.286   7.064
 3605POPC   C4B46990  40.599   8.353   7.364
 3606POPC   NC346991  33.836  15.219   5.564
 3606POPC   PO446992  33.837  15.204   5.864
 3606POPC   GL146993  33.832  15.140   6.164
 3606POPC   GL246994  33.899  15.153   6.164
 3606POPC   C1A46995  33.815  15.169   6.464
 3606POPC   D2A46996  33.823  15.137   6.764
 3606POPC   C3A46997  33.797  15.183   7.064
 3606POPC   C4A46998  33.797  15.222   7.364
 3606POPC   C1B46999  34.083  15.213   6.464
 3606POPC   C2B47000  34.028  15.167   6.764
 3606POPC   C3B47001  34.002  15.207   7.064
 3606POPC   C4B47002  34.079  15.215   7.364
 3607POPC   NC347003  19.011  41.545   5.564
 3607POPC   PO447004  19.072  41.591   5.864
 3607POPC   GL147005  19.084  41.581   6.164
 3607POPC   GL247006  19.013  41.451   6.164
 3607POPC   C1A47007  19.087  41.555   6.464
 3607POPC   D2A47008  19.040  41.594   6.764
 3607POPC   C3A47009  19.100  41.531   7.064
 3607POPC   C4A47010  19.108  41.571   7.364
 3607POPC   C1B47011  19.060  41.340   6.464
 3607POPC   C2B47012  19.059  41.273   6.764
 3607POPC   C3B47013  19.011  41.349   7.064
 3607POPC   C4B47014  19.085  41.301   7.364
 3608POPC   NC347015  33.753   4.268   5.564
 3608POPC   PO447016  33.850   4.295   5.864
 3608POPC   GL147017  33.808   4.324   6.164
 3608POPC   GL247018  33.752   4.435   6.164
 3608POPC   C1A47019  33.841   4.356   6.464
 3608POPC   D2A47020  33.793   4.278   6.764
 3608POPC   C3A47021  33.766   4.299   7.064
 3608POPC   C4A47022  33.769   4.326   7.364
 3608POPC   C1B47023  33.808   4.567   6.464
 3608POPC   C2B47024  33.835   4.549   6.764
 3608POPC   C3B47025  33.803   4.582   7.064
 3608POPC   C4B47026  33.826   4.581   7.364
 3609POPC   NC347027  25.996  41.532   5.564
 3609POPC   PO447028  26.060  41.536   5.864
 3609POPC   GL147029  26.030  41.552   6.164
 3609POPC   GL247030  26.157  41.596   6.164
 3609POPC   C1A47031  26.090  41.550   6.464
 3609POPC   D2A47032  26.050  41.543   6.764
 3609POPC   C3A47033  25.993  41.510   7.064
 3609POPC   C4A47034  26.068  41.607   7.364
 3609POPC   C1B47035  26.263  41.530   6.464
 3609POPC   C2B47036  26.309  41.555   6.764
 3609POPC   C3B47037  26.322  41.580   7.064
 3609POPC   C4B47038  26.265  41.558   7.364
 3610POPC   NC347039  29.104  24.463   5.564
 3610POPC   PO447040  29.102  24.477   5.864
 3610POPC   GL147041  29.145  24.457   6.164
 3610POPC   GL247042  29.024  24.540   6.164
 3610POPC   C1A47043  29.166  24.493   6.464
 3610POPC   D2A47044  29.099  24.529   6.764
 3610POPC   C3A47045  29.134  24.504   7.064
 3610POPC   C4A47046  29.158  24.489   7.364
 3610POPC   C1B47047  28.957  24.709   6.464
 3610POPC   C2B47048  28.993  24.634   6.764
 3610POPC   C3B47049  28.976  24.653   7.064
 3610POPC   C4B47050  28.939  24.703   7.364
 3611POPC   NC347051  26.840  40.808   5.564
 3611POPC   PO447052  26.833  40.810   5.864
 3611POPC   GL147053  26.838  40.829   6.164
 3611POPC   GL247054  26.755  40.706   6.164
 3611POPC   C1A47055  26.801  40.743   6.464
 3611POPC   D2A47056  26.839  40.745   6.764
 3611POPC   C3A47057  26.775  40.738   7.064
 3611POPC   C4A47058  26.840  40.758   7.364
 3611POPC   C1B47059  26.679  40.549   6.464
 3611POPC   C2B47060  26.753  40.544   6.764
 3611POPC   C3B47061  26.724  40.536   7.064
 3611POPC   C4B47062  26.763  40.517   7.364
 3612POPC   NC347063  42.334  21.382   5.564
 3612POPC   PO447064  42.294  21.412   5.864
 3612POPC   GL147065  42.340  21.341   6.164
 3612POPC   GL247066  42.240  21.459   6.164
 3612POPC   C1A47067  42.302  21.362   6.464
 3612POPC   D2A47068  42.306  21.356   6.764
 3612POPC   C3A47069  42.328  21.427   7.064
 3612POPC   C4A47070  42.346  21.369   7.364
 3612POPC   C1B47071  42.162  21.472   6.464
 3612POPC   C2B47072  42.154  21.471   6.764
 3612POPC   C3B47073  42.071  21.562   7.064
 3612POPC   C4B47074  42.086  21.563   7.364
 3613POPC   NC347075  39.253   3.518   5.564
 3613POPC   PO447076  39.197   3.543   5.864
 3613POPC   GL147077  39.211   3.567   6.164
 3613POPC   GL247078  39.157   3.641   6.164
 3613POPC   C1A47079  39.221   3.581   6.464
 3613POPC   D2A47080  39.268   3.528   6.764
 3613POPC   C3A47081  39.261   3.540   7.064
 3613POPC   C4A47082  39.280   3.582   7.364
 3613POPC   C1B47083  39.123   3.700   6.464
 3613POPC   C2B47084  39.033   3.726   6.764
 3613POPC   C3B47085  39.095   3.753   7.064
 3613POPC   C4B47086  39.095   3.725   7.364
 3614POPC   NC347087  37.677  15.168   5.564
 3614POPC   PO447088  37.643  15.139   5.864
 3614POPC   GL147089  37.727  15.226   6.164
 3614POPC   GL247090  37.656  15.325   6.164
 3614POPC   C1A47091  37.712  15.178   6.464
 3614POPC   D2A47092  37.719  15.131   6.764
 3614POPC   C3A47093  37.694  15.146   7.064
 3614POPC   C4A47094  37.647  15.192   7.364
 3614POPC   C1B47095  37.634  15.457   6.464
 3614POPC   C2B47096  37.564  15.465   6.764
 3614POPC   C3B47097  37.600  15.377   7.064
 3614POPC   C4B47098  37.604  15.448   7.364
 3615POPC   NC347099  15.997  39.986   5.564
 3615POPC   PO447100  15.990  39.990   5.864
 3615POPC   GL147101  15.925  40.049   6.164
 3615POPC   GL247102  15.924  39.923   6.164
 3615POPC   C1A47103  15.927  40.036   6.464
 3615POPC   D2A47104  15.966  40.002   6.764
 3615POPC   C3A47105  15.996  40.014   7.064
 3615POPC   C4A47106  15.960  40.014   7.364
 3615POPC   C1B47107  15.842  39.788   6.464
 3615POPC   C2B47108  15.826  39.827   6.764
 3615POPC   C3B47109  15.847  39.777   7.064
 3615POPC   C4B47110  15.843  39.790   7.364
 3616POPC   NC347111  38.446  39.218   5.564
 3616POPC   PO447112  38.468  39.205   5.864
 3616POPC   GL147113  38.410  39.202   6.164
 3616POPC   GL247114  38.390  39.129   6.164
 3616POPC   C1A47115  38.498  39.253   6.464
 3616POPC   D2A47116  38.438  39.224   6.764
 3616POPC   C3A47117  38.412  39.209   7.064
 3616POPC   C4A47118  38.425  39.241   7.364
 3616POPC   C1B47119  38.271  39.085   6.464
 3616POPC   C2B47120  38.241  39.106   6.764
 3616POPC   C3B47121  38.229  39.042   7.064
 3616POPC   C4B47122  38.261  39.036   7.364
 3617POPC   NC347123  40.052  22.934   5.564
 3617POPC   PO447124  39.979  22.936   5.864
 3617POPC   GL147125  39.968  22.987   6.164
 3617POPC   GL247126  40.108  22.883   6.164
 3617POPC   C1A47127  40.056  22.983   6.464
 3617POPC   D2A47128  40.001  22.972   6.764
 3617POPC   C3A47129  40.013  22.917   7.064
 3617POPC   C4A47130  40.041  22.907   7.364
 3617POPC   C1B47131  40.249  22.858   6.464
 3617POPC   C2B47132  40.229  22.872   6.764
 3617POPC   C3B47133  40.243  22.829   7.064
 3617POPC   C4B47134  40.274  22.827   7.364
 3618POPC   NC347135  41.526  42.296   5.564
 3618POPC   PO447136  41.511  42.341   5.864
 3618POPC   GL147137  41.585  42.360   6.164
 3618POPC   GL247138  41.515  42.207   6.164
 3618POPC   C1A47139  41.545  42.352   6.464
 3618POPC   D2A47140  41.532  42.381   6.764
 3618POPC   C3A47141  41.513  42.359   7.064
 3618POPC   C4A47142  41.517  42.306   7.364
 3618POPC   C1B47143  41.541  42.103   6.464
 3618POPC   C2B47144  41.495  42.084   6.764
 3618POPC   C3B47145  41.529  42.083   7.064
 3618POPC   C4B47146  41.506  42.095   7.364
 3619POPC   NC347147  43.092  37.692   5.564
 3619POPC   PO447148  43.133  37.717   5.864
 3619POPC   GL147149  43.102  37.673   6.164
 3619POPC   GL247150  43.173  37.618   6.164
 3619POPC   C1A47151  43.110  37.706   6.464
 3619POPC   D2A47152  43.109  37.637   6.764
 3619POPC   C3A47153  43.106  37.668   7.064
 3619POPC   C4A47154  43.135  37.692   7.364
 3619POPC   C1B47155  43.275  37.458   6.464
 3619POPC   C2B47156  43.224  37.500   6.764
 3619POPC   C3B47157  43.224  37.510   7.064
 3619POPC   C4B47158  43.267  37.437   7.364
 3620POPC   NC347159  15.188  10.571   5.564
 3620POPC   PO447160  15.135  10.515   5.864
 3620POPC   GL147161  15.183  10.569   6.164
 3620POPC   GL247162  15.087  10.650   6.164
 3620POPC   C1A47163  15.212  10.536   6.464
 3620POPC   D2A47164  15.185  10.502   6.764
 3620POPC   C3A47165  15.164  10.556   7.064
 3620POPC   C4A47166  15.173  10.564   7.364
 3620POPC   C1B47167  14.965  10.731   6.464
 3620POPC   C2B47168  14.971  10.736   6.764
 3620POPC   C3B47169  15.005  10.740   7.064
 3620POPC   C4B47170  15.015  10.707   7.364
 3621POPC   NC347171  26.049  28.403   5.564
 3621POPC   PO447172  26.064  28.414   5.864
 3621POPC   GL147173  26.028  28.375   6.164
 3621POPC   GL247174  25.993  28.202   6.164
 3621POPC   C1A47175  26.041  28.366   6.464
 3621POPC   D2A47176  26.017  28.392   6.764
 3621POPC   C3A47177  26.074  28.348   7.064
 3621POPC   C4A47178  26.011  28.354   7.364
 3621POPC   C1B47179  26.008  28.108   6.464
 3621POPC   C2B47180  25.996  28.115   6.764
 3621POPC   C3B47181  25.973  28.158   7.064
 3621POPC   C4B47182  26.050  28.151   7.364
 3622POPC   NC347183  19.009  14.379   5.564
 3622POPC   PO447184  19.042  14.386   5.864
 3622POPC   GL147185  19.046  14.361   6.164
 3622POPC   GL247186  19.102  14.534   6.164
 3622POPC   C1A47187  19.036  14.440   6.464
 3622POPC   D2A47188  19.014  14.392   6.764
 3622POPC   C3A47189  19.076  14.373   7.064
 3622POPC   C4A47190  19.061  14.369   7.364
 3622POPC   C1B47191  19.267  14.591   6.464
 3622POPC   C2B47192  19.187  14.555   6.764
 3622POPC   C3B47193  19.238  14.549   7.064
 3622POPC   C4B47194  19.284  14.610   7.364
 3623POPC   NC347195  17.484  21.358   5.564
 3623POPC   PO447196  17.485  21.387   5.864
 3623POPC   GL147197  17.484  21.358   6.164
 3623POPC   GL247198  17.610  21.361   6.164
 3623POPC   C1A47199  17.547  21.417   6.464
 3623POPC   D2A47200  17.537  21.383   6.764
 3623POPC   C3A47201  17.528  21.433   7.064
 3623POPC   C4A47202  17.510  21.397   7.364
 3623POPC   C1B47203  17.758  21.316   6.464
 3623POPC   C2B47204  17.721  21.377   6.764
 3623POPC   C3B47205  17.780  21.373   7.064
 3623POPC   C4B47206  17.739  21.278   7.364
 3624POPC   NC347207  26.057   5.067   5.564
 3624POPC   PO447208  26.003   5.101   5.864
 3624POPC   GL147209  26.009   5.138   6.164
 3624POPC   GL247210  25.970   5.186   6.164
 3624POPC   C1A47211  26.086   5.077   6.464
 3624POPC   D2A47212  26.082   5.082   6.764
 3624POPC   C3A47213  26.007   5.122   7.064
 3624POPC   C4A47214  25.995   5.133   7.364
 3624POPC   C1B47215  25.791   5.187   6.464
 3624POPC   C2B47216  25.823   5.187   6.764
 3624POPC   C3B47217  25.861   5.238   7.064
 3624POPC   C4B47218  25.813   5.245   7.364
 3625POPC   NC347219   8.239   8.158   5.564
 3625POPC   PO447220   8.199   8.186   5.864
 3625POPC   GL147221   8.184   8.210   6.164
 3625POPC   GL247222   8.150   8.294   6.164
 3625POPC   C1A47223   8.205   8.244   6.464
 3625POPC   D2A47224   8.165   8.166   6.764
 3625POPC   C3A47225   8.230   8.181   7.064
 3625POPC   C4A47226   8.172   8.164   7.364
 3625POPC   C1B47227   8.058   8.340   6.464
 3625POPC   C2B47228   8.000   8.399   6.764
 3625POPC   C3B47229   8.021   8.380   7.064
 3625POPC   C4B47230   8.068   8.341   7.364
 3626POPC   NC347231  34.599   2.721   5.564
 3626POPC   PO447232  34.623   2.764   5.864
 3626POPC   GL147233  34.554   2.804   6.164
 3626POPC   GL247234  34.659   2.835   6.164
 3626POPC   C1A47235  34.621   2.722   6.464
 3626POPC   D2A47236  34.622   2.742   6.764
 3626POPC   C3A47237  34.574   2.723   7.064
 3626POPC   C4A47238  34.541   2.757   7.364
 3626POPC   C1B47239  34.846   2.829   6.464
 3626POPC   C2B47240  34.846   2.855   6.764
 3626POPC   C3B47241  34.827   2.857   7.064
 3626POPC   C4B47242  34.803   2.783   7.364
 3627POPC   NC347243  28.366  26.051   5.564
 3627POPC   PO447244  28.373  26.006   5.864
 3627POPC   GL147245  28.323  26.033   6.164
 3627POPC   GL247246  28.486  26.046   6.164
 3627POPC   C1A47247  28.392  26.016   6.464
 3627POPC   D2A47248  28.340  26.083   6.764
 3627POPC   C3A47249  28.385  26.077   7.064
 3627POPC   C4A47250  28.335  26.085   7.364
 3627POPC   C1B47251  28.619  26.078   6.464
 3627POPC   C2B47252  28.584  26.017   6.764
 3627POPC   C3B47253  28.574  26.039   7.064
 3627POPC   C4B47254  28.595  26.086   7.364
 3628POPC   NC347255  43.147   4.267   5.564
 3628POPC   PO447256  43.137   4.331   5.864
 3628POPC   GL147257  43.151   4.290   6.164
 3628POPC   GL247258  43.168   4.378   6.164
 3628POPC   C1A47259  43.078   4.357   6.464
 3628POPC   D2A47260  43.086   4.350   6.764
 3628POPC   C3A47261  43.155   4.302   7.064
 3628POPC   C4A47262  43.076   4.317   7.364
 3628POPC   C1B47263  43.301   4.488   6.464
 3628POPC   C2B47264  43.292   4.494   6.764
 3628POPC   C3B47265  43.352   4.428   7.064
 3628POPC   C4B47266  43.270   4.457   7.364
 3629POPC   NC347267  43.852  36.134   5.564
 3629POPC   PO447268  43.900  36.082   5.864
 3629POPC   GL147269  43.843  36.157   6.164
 3629POPC   GL247270  43.737  36.095   6.164
 3629POPC   C1A47271  43.878  36.156   6.464
 3629POPC   D2A47272  43.866  36.106   6.764
 3629POPC   C3A47273  43.930  36.132   7.064
 3629POPC   C4A47274  43.865  36.129   7.364
 3629POPC   C1B47275  43.652  36.025   6.464
 3629POPC   C2B47276  43.684  36.082   6.764
 3629POPC   C3B47277  43.602  36.036   7.064
 3629POPC   C4B47278  43.661  36.035   7.364
 3630POPC   NC347279   7.394   2.785   5.564
 3630POPC   PO447280   7.427   2.740   5.864
 3630POPC   GL147281   7.453   2.767   6.164
 3630POPC   GL247282   7.349   2.739   6.164
 3630POPC   C1A47283   7.454   2.797   6.464
 3630POPC   D2A47284   7.438   2.742   6.764
 3630POPC   C3A47285   7.397   2.771   7.064
 3630POPC   C4A47286   7.398   2.716   7.364
 3630POPC   C1B47287   7.171   2.653   6.464
 3630POPC   C2B47288   7.217   2.683   6.764
 3630POPC   C3B47289   7.158   2.672   7.064
 3630POPC   C4B47290   7.186   2.609   7.364
 3631POPC   NC347291  10.507   6.628   5.564
 3631POPC   PO447292  10.521   6.672   5.864
 3631POPC   GL147293  10.524   6.630   6.164
 3631POPC   GL247294  10.593   6.601   6.164
 3631POPC   C1A47295  10.567   6.616   6.464
 3631POPC   D2A47296  10.533   6.669   6.764
 3631POPC   C3A47297  10.569   6.687   7.064
 3631POPC   C4A47298  10.525   6.642   7.364
 3631POPC   C1B47299  10.673   6.421   6.464
 3631POPC   C2B47300  10.741   6.491   6.764
 3631POPC   C3B47301  10.712   6.493   7.064
 3631POPC   C4B47302  10.692   6.430   7.364
 3632POPC   NC347303  26.781  40.049   5.564
 3632POPC   PO447304  26.832  40.027   5.864
 3632POPC   GL147305  26.850  39.989   6.164
 3632POPC   GL247306  26.690  40.045   6.164
 3632POPC   C1A47307  26.810  40.054   6.464
 3632POPC   D2A47308  26.800  39.970   6.764
 3632POPC   C3A47309  26.781  40.009   7.064
 3632POPC   C4A47310  26.831  40.056   7.364
 3632POPC   C1B47311  26.652  40.107   6.464
 3632POPC   C2B47312  26.592  40.137   6.764
 3632POPC   C3B47313  26.571  40.167   7.064
 3632POPC   C4B47314  26.631  40.134   7.364
 3633POPC   NC347315   8.200  44.693   5.564
 3633POPC   PO447316   8.222  44.629   5.864
 3633POPC   GL147317   8.152  44.689   6.164
 3633POPC   GL247318   8.187  44.575   6.164
 3633POPC   C1A47319   8.189  44.632   6.464
 3633POPC   D2A47320   8.196  44.646   6.764
 3633POPC   C3A47321   8.238  44.616   7.064
 3633POPC   C4A47322   8.232  44.699   7.364
 3633POPC   C1B47323   8.270  44.456   6.464
 3633POPC   C2B47324   8.218  44.447   6.764
 3633POPC   C3B47325   8.240  44.441   7.064
 3633POPC   C4B47326   8.280  44.457   7.364
 3634POPC   NC347327  40.019  39.223   5.564
 3634POPC   PO447328  39.981  39.260   5.864
 3634POPC   GL147329  40.024  39.192   6.164
 3634POPC   GL247330  40.120  39.106   6.164
 3634POPC   C1A47331  39.967  39.183   6.464
 3634POPC   D2A47332  39.974  39.183   6.764
 3634POPC   C3A47333  40.044  39.262   7.064
 3634POPC   C4A47334  39.963  39.222   7.364
 3634POPC   C1B47335  40.161  39.081   6.464
 3634POPC   C2B47336  40.183  39.096   6.764
 3634POPC   C3B47337  40.217  39.045   7.064
 3634POPC   C4B47338  40.182  39.069   7.364
 3635POPC   NC347339  24.472   2.766   5.564
 3635POPC   PO447340  24.486   2.792   5.864
 3635POPC   GL147341  24.498   2.718   6.164
 3635POPC   GL247342  24.621   2.678   6.164
 3635POPC   C1A47343  24.484   2.795   6.464
 3635POPC   D2A47344  24.539   2.780   6.764
 3635POPC   C3A47345  24.497   2.794   7.064
 3635POPC   C4A47346  24.533   2.733   7.364
 3635POPC   C1B47347  24.754   2.669   6.464
 3635POPC   C2B47348  24.691   2.623   6.764
 3635POPC   C3B47349  24.672   2.623   7.064
 3635POPC   C4B47350  24.676   2.692   7.364
 3636POPC   NC347351  26.020  38.426   5.564
 3636POPC   PO447352  26.051  38.486   5.864
 3636POPC   GL147353  25.996  38.425   6.164
 3636POPC   GL247354  26.146  38.352   6.164
 3636POPC   C1A47355  26.072  38.482   6.464
 3636POPC   D2A47356  26.061  38.443   6.764
 3636POPC   C3A47357  26.039  38.450   7.064
 3636POPC   C4A47358  26.002  38.411   7.364
 3636POPC   C1B47359  26.293  38.345   6.464
 3636POPC   C2B47360  26.302  38.386   6.764
 3636POPC   C3B47361  26.266  38.351   7.064
 3636POPC   C4B47362  26.307  38.338   7.364
 3637POPC   NC347363  41.523  14.366   5.564
 3637POPC   PO447364  41.530  14.424   5.864
 3637POPC   GL147365  41.583  14.426   6.164
 3637POPC   GL247366  41.537  14.541   6.164
 3637POPC   C1A47367  41.590  14.395   6.464
 3637POPC   D2A47368  41.589  14.368   6.764
 3637POPC   C3A47369  41.567  14.376   7.064
 3637POPC   C4A47370  41.509  14.422   7.364
 3637POPC   C1B47371  41.493  14.676   6.464
 3637POPC   C2B47372  41.451  14.646   6.764
 3637POPC   C3B47373  41.436  14.605   7.064
 3637POPC   C4B47374  41.502  14.590   7.364
 3638POPC   NC347375  28.383  18.277   5.564
 3638POPC   PO447376  28.418  18.262   5.864
 3638POPC   GL147377  28.329  18.242   6.164
 3638POPC   GL247378  28.329  18.374   6.164
 3638POPC   C1A47379  28.397  18.260   6.464
 3638POPC   D2A47380  28.365  18.292   6.764
 3638POPC   C3A47381  28.343  18.248   7.064
 3638POPC   C4A47382  28.417  18.245   7.364
 3638POPC   C1B47383  28.329  18.538   6.464
 3638POPC   C2B47384  28.312  18.578   6.764
 3638POPC   C3B47385  28.332  18.544   7.064
 3638POPC   C4B47386  28.331  18.503   7.364
 3639POPC   NC347387  33.046  26.039   5.564
 3639POPC   PO447388  32.984  26.062   5.864
 3639POPC   GL147389  33.069  26.088   6.164
 3639POPC   GL247390  33.133  26.052   6.164
 3639POPC   C1A47391  33.007  26.007   6.464
 3639POPC   D2A47392  32.995  26.047   6.764
 3639POPC   C3A47393  33.060  26.071   7.064
 3639POPC   C4A47394  32.979  25.996   7.364
 3639POPC   C1B47395  33.283  26.001   6.464
 3639POPC   C2B47396  33.226  26.013   6.764
 3639POPC   C3B47397  33.244  26.002   7.064
 3639POPC   C4B47398  33.301  25.969   7.364
 3640POPC   NC347399  16.687  21.381   5.564
 3640POPC   PO447400  16.709  21.391   5.864
 3640POPC   GL147401  16.699  21.341   6.164
 3640POPC   GL247402  16.655  21.467   6.164
 3640POPC   C1A47403  16.741  21.338   6.464
 3640POPC   D2A47404  16.687  21.392   6.764
 3640POPC   C3A47405  16.778  21.362   7.064
 3640POPC   C4A47406  16.713  21.348   7.364
 3640POPC   C1B47407  16.571  21.582   6.464
 3640POPC   C2B47408  16.626  21.552   6.764
 3640POPC   C3B47409  16.619  21.544   7.064
 3640POPC   C4B47410  16.629  21.581   7.364
 3641POPC   NC347411  15.955  24.518   5.564
 3641POPC   PO447412  15.909  24.514   5.864
 3641POPC   GL147413  15.959  24.494   6.164
 3641POPC   GL247414  15.890  24.352   6.164
 3641POPC   C1A47415  15.982  24.525   6.464
 3641POPC   D2A47416  15.959  24.538   6.764
 3641POPC   C3A47417  15.939  24.486   7.064
 3641POPC   C4A47418  15.920  24.445   7.364
 3641POPC   C1B47419  15.944  24.279   6.464
 3641POPC   C2B47420  15.964  24.216   6.764
 3641POPC   C3B47421  15.924  24.202   7.064
 3641POPC   C4B47422  15.880  24.242   7.364
 3642POPC   NC347423   3.590  23.739   5.564
 3642POPC   PO447424   3.586  23.706   5.864
 3642POPC   GL147425   3.568  23.763   6.164
 3642POPC   GL247426   3.660  23.776   6.164
 3642POPC   C1A47427   3.589  23.755   6.464
 3642POPC   D2A47428   3.537  23.743   6.764
 3642POPC   C3A47429   3.544  23.675   7.064
 3642POPC   C4A47430   3.516  23.729   7.364
 3642POPC   C1B47431   3.730  23.868   6.464
 3642POPC   C2B47432   3.669  23.938   6.764
 3642POPC   C3B47433   3.642  23.907   7.064
 3642POPC   C4B47434   3.701  23.883   7.364
 3643POPC   NC347435  26.788  32.259   5.564
 3643POPC   PO447436  26.774  32.250   5.864
 3643POPC   GL147437  26.788  32.266   6.164
 3643POPC   GL247438  26.672  32.271   6.164
 3643POPC   C1A47439  26.784  32.286   6.464
 3643POPC   D2A47440  26.867  32.202   6.764
 3643POPC   C3A47441  26.772  32.234   7.064
 3643POPC   C4A47442  26.860  32.277   7.364
 3643POPC   C1B47443  26.594  32.229   6.464
 3643POPC   C2B47444  26.607  32.169   6.764
 3643POPC   C3B47445  26.606  32.187   7.064
 3643POPC   C4B47446  26.573  32.230   7.364
 3644POPC   NC347447  21.375  24.499   5.564
 3644POPC   PO447448  21.345  24.486   5.864
 3644POPC   GL147449  21.403  24.510   6.164
 3644POPC   GL247450  21.428  24.647   6.164
 3644POPC   C1A47451  21.388  24.468   6.464
 3644POPC   D2A47452  21.406  24.470   6.764
 3644POPC   C3A47453  21.370  24.482   7.064
 3644POPC   C4A47454  21.387  24.497   7.364
 3644POPC   C1B47455  21.443  24.769   6.464
 3644POPC   C2B47456  21.420  24.722   6.764
 3644POPC   C3B47457  21.433  24.687   7.064
 3644POPC   C4B47458  21.436  24.770   7.364
 3645POPC   NC347459  21.376   4.284   5.564
 3645POPC   PO447460  21.337   4.362   5.864
 3645POPC   GL147461  21.406   4.339   6.164
 3645POPC   GL247462  21.266   4.415   6.164
 3645POPC   C1A47463  21.358   4.332   6.464
 3645POPC   D2A47464  21.385   4.345   6.764
 3645POPC   C3A47465  21.378   4.310   7.064
 3645POPC   C4A47466  21.419   4.290   7.364
 3645POPC   C1B47467  21.189   4.515   6.464
 3645POPC   C2B47468  21.174   4.513   6.764
 3645POPC   C3B47469  21.261   4.525   7.064
 3645POPC   C4B47470  21.254   4.482   7.364
 3646POPC   NC347471  14.453   1.253   5.564
 3646POPC   PO447472  14.430   1.244   5.864
 3646POPC   GL147473  14.451   1.197   6.164
 3646POPC   GL247474  14.476   1.146   6.164
 3646POPC   C1A47475  14.409   1.206   6.464
 3646POPC   D2A47476  14.393   1.226   6.764
 3646POPC   C3A47477  14.451   1.194   7.064
 3646POPC   C4A47478  14.402   1.241   7.364
 3646POPC   C1B47479  14.586   1.010   6.464
 3646POPC   C2B47480  14.569   1.087   6.764
 3646POPC   C3B47481  14.638   1.046   7.064
 3646POPC   C4B47482  14.625   1.073   7.364
 3647POPC   NC347483  29.185  33.800   5.564
 3647POPC   PO447484  29.133  33.786   5.864
 3647POPC   GL147485  29.124  33.809   6.164
 3647POPC   GL247486  29.310  33.786   6.164
 3647POPC   C1A47487  29.144  33.821   6.464
 3647POPC   D2A47488  29.123  33.835   6.764
 3647POPC   C3A47489  29.147  33.787   7.064
 3647POPC   C4A47490  29.153  33.776   7.364
 3647POPC   C1B47491  29.406  33.815   6.464
 3647POPC   C2B47492  29.420  33.783   6.764
 3647POPC   C3B47493  29.423  33.753   7.064
 3647POPC   C4B47494  29.417  33.745   7.364
 3648POPC   NC347495  39.190  36.124   5.564
 3648POPC   PO447496  39.245  36.158   5.864
 3648POPC   GL147497  39.193  36.172   6.164
 3648POPC   GL247498  39.210  36.248   6.164
 3648POPC   C1A47499  39.196  36.171   6.464
 3648POPC   D2A47500  39.235  36.138   6.764
 3648POPC   C3A47501  39.189  36.165   7.064
 3648POPC   C4A47502  39.235  36.129   7.364
 3648POPC   C1B47503  39.245  36.407   6.464
 3648POPC   C2B47504  39.268  36.388   6.764
 3648POPC   C3B47505  39.290  36.396   7.064
 3648POPC   C4B47506  39.316  36.369   7.364
 3649POPC   NC347507  34.556  33.755   5.564
 3649POPC   PO447508  34.554  33.798   5.864
 3649POPC   GL147509  34.583  33.847   6.164
 3649POPC   GL247510  34.692  33.778   6.164
 3649POPC   C1A47511  34.558  33.806   6.464
 3649POPC   D2A47512  34.552  33.752   6.764
 3649POPC   C3A47513  34.526  33.751   7.064
 3649POPC   C4A47514  34.580  33.807   7.364
 3649POPC   C1B47515  34.777  33.676   6.464
 3649POPC   C2B47516  34.776  33.621   6.764
 3649POPC   C3B47517  34.776  33.673   7.064
 3649POPC   C4B47518  34.740  33.698   7.364
 3650POPC   NC347519   7.428  39.197   5.564
 3650POPC   PO447520   7.371  39.198   5.864
 3650POPC   GL147521   7.415  39.273   6.164
 3650POPC   GL247522   7.502  39.252   6.164
 3650POPC   C1A47523   7.376  39.200   6.464
 3650POPC   D2A47524   7.402  39.223   6.764
 3650POPC   C3A47525   7.384  39.187   7.064
 3650POPC   C4A47526   7.389  39.280   7.364
 3650POPC   C1B47527   7.650  39.336   6.464
 3650POPC   C2B47528   7.646  39.347   6.764
 3650POPC   C3B47529   7.663  39.299   7.064
 3650POPC   C4B47530   7.599  39.305   7.364
 3651POPC   NC347531  31.489   8.959   5.564
 3651POPC   PO447532  31.509   8.971   5.864
 3651POPC   GL147533  31.487   8.997   6.164
 3651POPC   GL247534  31.321   8.985   6.164
 3651POPC   C1A47535  31.476   8.998   6.464
 3651POPC   D2A47536  31.486   8.996   6.764
 3651POPC   C3A47537  31.501   8.946   7.064
 3651POPC   C4A47538  31.466   8.991   7.364
 3651POPC   C1B47539  31.247   9.122   6.464
 3651POPC   C2B47540  31.297   9.044   6.764
 3651POPC   C3B47541  31.217   9.060   7.064
 3651POPC   C4B47542  31.254   9.073   7.364
 3652POPC   NC347543  22.966  38.425   5.564
 3652POPC   PO447544  22.891  38.443   5.864
 3652POPC   GL147545  22.933  38.501   6.164
 3652POPC   GL247546  22.893  38.560   6.164
 3652POPC   C1A47547  22.889  38.440   6.464
 3652POPC   D2A47548  22.947  38.488   6.764
 3652POPC   C3A47549  22.954  38.490   7.064
 3652POPC   C4A47550  22.918  38.421   7.364
 3652POPC   C1B47551  22.895  38.678   6.464
 3652POPC   C2B47552  22.924  38.719   6.764
 3652POPC   C3B47553  22.920  38.743   7.064
 3652POPC   C4B47554  22.897  38.668   7.364
 3653POPC   NC347555   1.945  38.431   5.564
 3653POPC   PO447556   1.988  38.497   5.864
 3653POPC   GL147557   1.942  38.433   6.164
 3653POPC   GL247558   1.863  38.426   6.164
 3653POPC   C1A47559   2.030  38.497   6.464
 3653POPC   D2A47560   1.989  38.443   6.764
 3653POPC   C3A47561   1.949  38.444   7.064
 3653POPC   C4A47562   1.977  38.427   7.364
 3653POPC   C1B47563   1.761  38.337   6.464
 3653POPC   C2B47564   1.741  38.319   6.764
 3653POPC   C3B47565   1.712  38.409   7.064
 3653POPC   C4B47566   1.754  38.391   7.364
 3654POPC   NC347567  22.199   1.243   5.564
 3654POPC   PO447568  22.202   1.238   5.864
 3654POPC   GL147569  22.171   1.239   6.164
 3654POPC   GL247570  22.169   1.386   6.164
 3654POPC   C1A47571  22.182   1.247   6.464
 3654POPC   D2A47572  22.185   1.242   6.764
 3654POPC   C3A47573  22.167   1.199   7.064
 3654POPC   C4A47574  22.196   1.175   7.364
 3654POPC   C1B47575  22.080   1.428   6.464
 3654POPC   C2B47576  22.162   1.502   6.764
 3654POPC   C3B47577  22.129   1.424   7.064
 3654POPC   C4B47578  22.129   1.491   7.364
 3655POPC   NC347579  21.426  41.579   5.564
 3655POPC   PO447580  21.357  41.528   5.864
 3655POPC   GL147581  21.433  41.558   6.164
 3655POPC   GL247582  21.499  41.500   6.164
 3655POPC   C1A47583  21.369  41.528   6.464
 3655POPC   D2A47584  21.421  41.553   6.764
 3655POPC   C3A47585  21.408  41.572   7.064
 3655POPC   C4A47586  21.376  41.509   7.364
 3655POPC   C1B47587  21.657  41.500   6.464
 3655POPC   C2B47588  21.677  41.497   6.764
 3655POPC   C3B47589  21.660  41.533   7.064
 3655POPC   C4B47590  21.629  41.492   7.364
 3656POPC   NC347591  39.964  41.538   5.564
 3656POPC   PO447592  39.958  41.513   5.864
 3656POPC   GL147593  40.004  41.570   6.164
 3656POPC   GL247594  40.147  41.571   6.164
 3656POPC   C1A47595  40.049  41.580   6.464
 3656POPC   D2A47596  39.980  41.515   6.764
 3656POPC   C3A47597  39.990  41.600   7.064
 3656POPC   C4A47598  40.021  41.509   7.364
 3656POPC   C1B47599  40.230  41.590   6.464
 3656POPC   C2B47600  40.212  41.498   6.764
 3656POPC   C3B47601  40.283  41.559   7.064
 3656POPC   C4B47602  40.287  41.511   7.364
 3657POPC   NC347603  13.673  41.597   5.564
 3657POPC   PO447604  13.620  41.554   5.864
 3657POPC   GL147605  13.615  41.557   6.164
 3657POPC   GL247606  13.560  41.584   6.164
 3657POPC   C1A47607  13.647  41.522   6.464
 3657POPC   D2A47608  13.652  41.601   6.764
 3657POPC   C3A47609  13.581  41.570   7.064
 3657POPC   C4A47610  13.650  41.517   7.364
 3657POPC   C1B47611  13.414  41.664   6.464
 3657POPC   C2B47612  13.399  41.629   6.764
 3657POPC   C3B47613  13.407  41.673   7.064
 3657POPC   C4B47614  13.445  41.671   7.364
 3658POPC   NC347615  11.310  24.526   5.564
 3658POPC   PO447616  11.318  24.490   5.864
 3658POPC   GL147617  11.293  24.446   6.164
 3658POPC   GL247618  11.254  24.578   6.164
 3658POPC   C1A47619  11.271  24.446   6.464
 3658POPC   D2A47620  11.282  24.497   6.764
 3658POPC   C3A47621  11.263  24.490   7.064
 3658POPC   C4A47622  11.255  24.505   7.364
 3658POPC   C1B47623  11.158  24.675   6.464
 3658POPC   C2B47624  11.098  24.680   6.764
 3658POPC   C3B47625  11.124  24.620   7.064
 3658POPC   C4B47626  11.091  24.617   7.364
 3659POPC   NC347627  24.449  36.859   5.564
 3659POPC   PO447628  24.455  36.930   5.864
 3659POPC   GL147629  24.519  36.947   6.164
 3659POPC   GL247630  24.606  36.879   6.164
 3659POPC   C1A47631  24.475  36.919   6.464
 3659POPC   D2A47632  24.496  36.868   6.764
 3659POPC   C3A47633  24.487  36.912   7.064
 3659POPC   C4A47634  24.536  36.943   7.364
 3659POPC   C1B47635  24.730  36.913   6.464
 3659POPC   C2B47636  24.739  36.884   6.764
 3659POPC   C3B47637  24.787  36.911   7.064
 3659POPC   C4B47638  24.726  36.870   7.364
 3660POPC   NC347639  33.775   7.446   5.564
 3660POPC   PO447640  33.763   7.409   5.864
 3660POPC   GL147641  33.845   7.450   6.164
 3660POPC   GL247642  33.740   7.590   6.164
 3660POPC   C1A47643  33.827   7.444   6.464
 3660POPC   D2A47644  33.822   7.434   6.764
 3660POPC   C3A47645  33.816   7.431   7.064
 3660POPC   C4A47646  33.764   7.419   7.364
 3660POPC   C1B47647  33.744   7.674   6.464
 3660POPC   C2B47648  33.693   7.675   6.764
 3660POPC   C3B47649  33.731   7.712   7.064
 3660POPC   C4B47650  33.767   7.687   7.364
 3661POPC   NC347651  43.090   2.036   5.564
 3661POPC   PO447652  43.105   2.021   5.864
 3661POPC   GL147653  43.123   2.024   6.164
 3661POPC   GL247654  43.226   2.066   6.164
 3661POPC   C1A47655  43.150   1.952   6.464
 3661POPC   D2A47656  43.133   1.981   6.764
 3661POPC   C3A47657  43.086   1.954   7.064
 3661POPC   C4A47658  43.138   2.028   7.364
 3661POPC   C1B47659  43.286   2.125   6.464
 3661POPC   C2B47660  43.309   2.126   6.764
 3661POPC   C3B47661  43.356   2.144   7.064
 3661POPC   C4B47662  43.341   2.133   7.364
 3662POPC   NC347663  26.771  43.081   5.564
 3662POPC   PO447664  26.788  43.099   5.864
 3662POPC   GL147665  26.857  43.143   6.164
 3662POPC   GL247666  26.761  43.001   6.164
 3662POPC   C1A47667  26.770  43.131   6.464
 3662POPC   D2A47668  26.788  43.139   6.764
 3662POPC   C3A47669  26.845  43.139   7.064
 3662POPC   C4A47670  26.850  43.102   7.364
 3662POPC   C1B47671  26.772  42.824   6.464
 3662POPC   C2B47672  26.772  42.878   6.764
 3662POPC   C3B47673  26.730  42.906   7.064
 3662POPC   C4B47674  26.803  42.872   7.364
 3663POPC   NC347675  30.654  16.698   5.564
 3663POPC   PO447676  30.736  16.681   5.864
 3663POPC   GL147677  30.715  16.738   6.164
 3663POPC   GL247678  30.866  16.771   6.164
 3663POPC   C1A47679  30.659  16.689   6.464
 3663POPC   D2A47680  30.685  16.750   6.764
 3663POPC   C3A47681  30.707  16.708   7.064
 3663POPC   C4A47682  30.735  16.705   7.364
 3663POPC   C1B47683  30.961  16.733   6.464
 3663POPC   C2B47684  30.913  16.738   6.764
 3663POPC   C3B47685  30.943  16.718   7.064
 3663POPC   C4B47686  30.996  16.701   7.364
 3664POPC   NC347687  19.803  29.933   5.564
 3664POPC   PO447688  19.796  29.955   5.864
 3664POPC   GL147689  19.817  29.943   6.164
 3664POPC   GL247690  19.713  29.904   6.164
 3664POPC   C1A47691  19.814  29.950   6.464
 3664POPC   D2A47692  19.850  29.899   6.764
 3664POPC   C3A47693  19.814  29.926   7.064
 3664POPC   C4A47694  19.871  29.901   7.364
 3664POPC   C1B47695  19.583  29.900   6.464
 3664POPC   C2B47696  19.601  29.855   6.764
 3664POPC   C3B47697  19.546  29.845   7.064
 3664POPC   C4B47698  19.554  29.899   7.364
 3665POPC   NC347699  39.246  14.427   5.564
 3665POPC   PO447700  39.253  14.423   5.864
 3665POPC   GL147701  39.254  14.413   6.164
 3665POPC   GL247702  39.120  14.471   6.164
 3665POPC   C1A47703  39.241  14.382   6.464
 3665POPC   D2A47704  39.242  14.402   6.764
 3665POPC   C3A47705  39.277  14.358   7.064
 3665POPC   C4A47706  39.184  14.395   7.364
 3665POPC   C1B47707  38.975  14.482   6.464
 3665POPC   C2B47708  38.961  14.502   6.764
 3665POPC   C3B47709  39.012  14.502   7.064
 3665POPC   C4B47710  38.983  14.436   7.364
 3666POPC   NC347711   8.999  41.570   5.564
 3666POPC   PO447712   8.988  41.554   5.864
 3666POPC   GL147713   8.932  41.607   6.164
 3666POPC   GL247714   9.123  41.576   6.164
 3666POPC   C1A47715   8.984  41.509   6.464
 3666POPC   D2A47716   8.958  41.528   6.764
 3666POPC   C3A47717   8.938  41.559   7.064
 3666POPC   C4A47718   8.941  41.577   7.364
 3666POPC   C1B47719   9.179  41.620   6.464
 3666POPC   C2B47720   9.208  41.684   6.764
 3666POPC   C3B47721   9.235  41.601   7.064
 3666POPC   C4B47722   9.222  41.611   7.364
 3667POPC   NC347723  29.118  13.653   5.564
 3667POPC   PO447724  29.127  13.616   5.864
 3667POPC   GL147725  29.102  13.647   6.164
 3667POPC   GL247726  29.180  13.726   6.164
 3667POPC   C1A47727  29.103  13.662   6.464
 3667POPC   D2A47728  29.103  13.637   6.764
 3667POPC   C3A47729  29.115  13.602   7.064
 3667POPC   C4A47730  29.155  13.644   7.364
 3667POPC   C1B47731  29.239  13.802   6.464
 3667POPC   C2B47732  29.253  13.871   6.764
 3667POPC   C3B47733  29.307  13.843   7.064
 3667POPC   C4B47734  29.236  13.865   7.364
 3668POPC   NC347735  30.666  32.290   5.564
 3668POPC   PO447736  30.697  32.240   5.864
 3668POPC   GL147737  30.695  32.290   6.164
 3668POPC   GL247738  30.737  32.104   6.164
 3668POPC   C1A47739  30.743  32.297   6.464
 3668POPC   D2A47740  30.730  32.237   6.764
 3668POPC   C3A47741  30.699  32.200   7.064
 3668POPC   C4A47742  30.717  32.205   7.364
 3668POPC   C1B47743  30.752  32.000   6.464
 3668POPC   C2B47744  30.724  31.993   6.764
 3668POPC   C3B47745  30.744  31.990   7.064
 3668POPC   C4B47746  30.732  31.980   7.364
 3669POPC   NC347747  29.120  38.449   5.564
 3669POPC   PO447748  29.170  38.467   5.864
 3669POPC   GL147749  29.108  38.422   6.164
 3669POPC   GL247750  29.140  38.374   6.164
 3669POPC   C1A47751  29.104  38.417   6.464
 3669POPC   D2A47752  29.096  38.479   6.764
 3669POPC   C3A47753  29.151  38.455   7.064
 3669POPC   C4A47754  29.187  38.491   7.364
 3669POPC   C1B47755  29.195  38.215   6.464
 3669POPC   C2B47756  29.257  38.251   6.764
 3669POPC   C3B47757  29.257  38.215   7.064
 3669POPC   C4B47758  29.248  38.173   7.364
 3670POPC   NC347759   6.694  37.630   5.564
 3670POPC   PO447760   6.616  37.711   5.864
 3670POPC   GL147761   6.652  37.696   6.164
 3670POPC   GL247762   6.655  37.841   6.164
 3670POPC   C1A47763   6.599  37.667   6.464
 3670POPC   D2A47764   6.636  37.722   6.764
 3670POPC   C3A47765   6.645  37.722   7.064
 3670POPC   C4A47766   6.601  37.719   7.364
 3670POPC   C1B47767   6.685  37.923   6.464
 3670POPC   C2B47768   6.630  37.932   6.764
 3670POPC   C3B47769   6.695  37.880   7.064
 3670POPC   C4B47770   6.616  37.948   7.364
 3671POPC   NC347771  44.657   7.424   5.564
 3671POPC   PO447772  44.667   7.430   5.864
 3671POPC   GL147773  44.620   7.469   6.164
 3671POPC   GL247774  44.591   7.547   6.164
 3671POPC   C1A47775  44.641   7.421   6.464
 3671POPC   D2A47776  44.694   7.430   6.764
 3671POPC   C3A47777  44.632   7.442   7.064
 3671POPC   C4A47778  44.673   7.436   7.364
 3671POPC   C1B47779  44.581   7.710   6.464
 3671POPC   C2B47780  44.606   7.696   6.764
 3671POPC   C3B47781  44.561   7.646   7.064
 3671POPC   C4B47782  44.605   7.680   7.364
 3672POPC   NC347783   8.967  35.397   5.564
 3672POPC   PO447784   8.935  35.323   5.864
 3672POPC   GL147785   8.997  35.343   6.164
 3672POPC   GL247786   8.867  35.287   6.164
 3672POPC   C1A47787   8.999  35.362   6.464
 3672POPC   D2A47788   8.945  35.305   6.764
 3672POPC   C3A47789   9.002  35.385   7.064
 3672POPC   C4A47790   9.011  35.336   7.364
 3672POPC   C1B47791   8.758  35.223   6.464
 3672POPC   C2B47792   8.813  35.186   6.764
 3672POPC   C3B47793   8.809  35.186   7.064
 3672POPC   C4B47794   8.786  35.181   7.364
 3673POPC   NC347795  10.544  25.264   5.564
 3673POPC   PO447796  10.532  25.271   5.864
 3673POPC   GL147797  10.508  25.274   6.164
 3673POPC   GL247798  10.599  25.368   6.164
 3673POPC   C1A47799  10.546  25.299   6.464
 3673POPC   D2A47800  10.532  25.312   6.764
 3673POPC   C3A47801  10.549  25.264   7.064
 3673POPC   C4A47802  10.553  25.255   7.364
 3673POPC   C1B47803  10.632  25.522   6.464
 3673POPC   C2B47804  10.681  25.454   6.764
 3673POPC   C3B47805  10.666  25.532   7.064
 3673POPC   C4B47806  10.674  25.473   7.364
 3674POPC   NC347807  30.745   1.189   5.564
 3674POPC   PO447808  30.706   1.197   5.864
 3674POPC   GL147809  30.697   1.227   6.164
 3674POPC   GL247810  30.593   1.123   6.164
 3674POPC   C1A47811  30.723   1.209   6.464
 3674POPC   D2A47812  30.703   1.216   6.764
 3674POPC   C3A47813  30.673   1.176   7.064
 3674POPC   C4A47814  30.740   1.249   7.364
 3674POPC   C1B47815  30.425   1.135   6.464
 3674POPC   C2B47816  30.438   1.103   6.764
 3674POPC   C3B47817  30.447   1.150   7.064
 3674POPC   C4B47818  30.500   1.105   7.364
 3675POPC   NC347819   1.217  20.597   5.564
 3675POPC   PO447820   1.209  20.647   5.864
 3675POPC   GL147821   1.230  20.570   6.164
 3675POPC   GL247822   1.133  20.611   6.164
 3675POPC   C1A47823   1.186  20.563   6.464
 3675POPC   D2A47824   1.253  20.652   6.764
 3675POPC   C3A47825   1.181  20.586   7.064
 3675POPC   C4A47826   1.219  20.629   7.364
 3675POPC   C1B47827   0.933  20.663   6.464
 3675POPC   C2B47828   0.927  20.671   6.764
 3675POPC   C3B47829   1.006  20.687   7.064
 3675POPC   C4B47830   0.993  20.711   7.364
 3676POPC   NC347831  12.864  26.063   5.564
 3676POPC   PO447832  12.822  26.062   5.864
 3676POPC   GL147833  12.855  26.006   6.164
 3676POPC   GL247834  12.925  25.959   6.164
 3676POPC   C1A47835  12.855  26.036   6.464
 3676POPC   D2A47836  12.895  26.055   6.764
 3676POPC   C3A47837  12.847  26.086   7.064
 3676POPC   C4A47838  12.857  26.013   7.364
 3676POPC   C1B47839  13.003  25.804   6.464
 3676POPC   C2B47840  12.931  25.816   6.764
 3676POPC   C3B47841  12.959  25.852   7.064
 3676POPC   C4B47842  13.008  25.807   7.364
 3677POPC   NC347843  39.182  43.875   5.564
 3677POPC   PO447844  39.274  43.871   5.864
 3677POPC   GL147845  39.221  43.862   6.164
 3677POPC   GL247846  39.328  43.940   6.164
 3677POPC   C1A47847  39.200  43.903   6.464
 3677POPC   D2A47848  39.264  43.931   6.764
 3677POPC   C3A47849  39.220  43.881   7.064
 3677POPC   C4A47850  39.192  43.925   7.364
 3677POPC   C1B47851  39.429  43.951   6.464
 3677POPC   C2B47852  39.490  44.012   6.764
 3677POPC   C3B47853  39.411  44.009   7.064
 3677POPC   C4B47854  39.470  44.027   7.364
 3678POPC   NC347855  22.121  34.532   5.564
 3678POPC   PO447856  22.205  34.537   5.864
 3678POPC   GL147857  22.172  34.546   6.164
 3678POPC   GL247858  22.284  34.441   6.164
 3678POPC   C1A47859  22.184  34.548   6.464
 3678POPC   D2A47860  22.155  34.600   6.764
 3678POPC   C3A47861  22.188  34.595   7.064
 3678POPC   C4A47862  22.193  34.613   7.364
 3678POPC   C1B47863  22.281  34.398   6.464
 3678POPC   C2B47864  22.344  34.395   6.764
 3678POPC   C3B47865  22.354  34.332   7.064
 3678POPC   C4B47866  22.275  34.344   7.364
 3679POPC   NC347867   8.964  29.873   5.564
 3679POPC   PO447868   8.975  29.935   5.864
 3679POPC   GL147869   9.000  29.911   6.164
 3679POPC   GL247870   9.026  29.844   6.164
 3679POPC   C1A47871   9.003  29.901   6.464
 3679POPC   D2A47872   9.016  29.902   6.764
 3679POPC   C3A47873   9.008  29.953   7.064
 3679POPC   C4A47874   9.013  29.877   7.364
 3679POPC   C1B47875   9.071  29.627   6.464
 3679POPC   C2B47876   9.018  29.685   6.764
 3679POPC   C3B47877   8.998  29.672   7.064
 3679POPC   C4B47878   9.000  29.710   7.364
 3680POPC   NC347879  22.956  21.425   5.564
 3680POPC   PO447880  22.969  21.418   5.864
 3680POPC   GL147881  22.973  21.412   6.164
 3680POPC   GL247882  22.903  21.469   6.164
 3680POPC   C1A47883  22.892  21.422   6.464
 3680POPC   D2A47884  22.929  21.383   6.764
 3680POPC   C3A47885  22.900  21.416   7.064
 3680POPC   C4A47886  22.917  21.419   7.364
 3680POPC   C1B47887  22.859  21.581   6.464
 3680POPC   C2B47888  22.782  21.571   6.764
 3680POPC   C3B47889  22.841  21.562   7.064
 3680POPC   C4B47890  22.871  21.590   7.364
 3681POPC   NC347891  44.699  30.732   5.564
 3681POPC   PO447892  44.621  30.732   5.864
 3681POPC   GL147893  44.709  30.739   6.164
 3681POPC   GL247894  44.586  30.785   6.164
 3681POPC   C1A47895  44.648  30.702   6.464
 3681POPC   D2A47896  44.669  30.730   6.764
 3681POPC   C3A47897  44.670  30.726   7.064
 3681POPC   C4A47898  44.690  30.718   7.364
 3681POPC   C1B47899  44.475  30.781   6.464
 3681POPC   C2B47900  44.470  30.792   6.764
 3681POPC   C3B47901  44.426  30.772   7.064
 3681POPC   C4B47902  44.412  30.734   7.364
 3682POPC   NC347903  14.391   2.774   5.564
 3682POPC   PO447904  14.429   2.810   5.864
 3682POPC   GL147905  14.392   2.791   6.164
 3682POPC   GL247906  14.489   2.604   6.164
 3682POPC   C1A47907  14.399   2.815   6.464
 3682POPC   D2A47908  14.375   2.764   6.764
 3682POPC   C3A47909  14.419   2.734   7.064
 3682POPC   C4A47910  14.444   2.746   7.364
 3682POPC   C1B47911  14.564   2.543   6.464
 3682POPC   C2B47912  14.476   2.507   6.764
 3682POPC   C3B47913  14.495   2.529   7.064
 3682POPC   C4B47914  14.496   2.579   7.364
 3683POPC   NC347915   4.284  29.907   5.564
 3683POPC   PO447916   4.270  29.935   5.864
 3683POPC   GL147917   4.353  29.937   6.164
 3683POPC   GL247918   4.372  29.791   6.164
 3683POPC   C1A47919   4.344  29.950   6.464
 3683POPC   D2A47920   4.298  29.884   6.764
 3683POPC   C3A47921   4.317  29.936   7.064
 3683POPC   C4A47922   4.271  29.872   7.364
 3683POPC   C1B47923   4.426  29.684   6.464
 3683POPC   C2B47924   4.452  29.715   6.764
 3683POPC   C3B47925   4.387  29.697   7.064
 3683POPC   C4B47926   4.482  29.699   7.364
 3684POPC   NC347927  21.366  15.976   5.564
 3684POPC   PO447928  21.413  15.939   5.864
 3684POPC   GL147929  21.430  15.972   6.164
 3684POPC   GL247930  21.477  15.869   6.164
 3684POPC   C1A47931  21.348  15.919   6.464
 3684POPC   D2A47932  21.368  15.906   6.764
 3684POPC   C3A47933  21.422  15.951   7.064
 3684POPC   C4A47934  21.412  15.922   7.364
 3684POPC   C1B47935  21.518  15.790   6.464
 3684POPC   C2B47936  21.514  15.771   6.764
 3684POPC   C3B47937  21.522  15.811   7.064
 3684POPC   C4B47938  21.503  15.775   7.364
 3685POPC   NC347939  39.267  31.466   5.564
 3685POPC   PO447940  39.199  31.442   5.864
 3685POPC   GL147941  39.263  31.508   6.164
 3685POPC   GL247942  39.136  31.436   6.164
 3685POPC   C1A47943  39.259  31.436   6.464
 3685POPC   D2A47944  39.203  31.498   6.764
 3685POPC   C3A47945  39.199  31.435   7.064
 3685POPC   C4A47946  39.249  31.447   7.364
 3685POPC   C1B47947  38.982  31.451   6.464
 3685POPC   C2B47948  38.945  31.452   6.764
 3685POPC   C3B47949  39.009  31.436   7.064
 3685POPC   C4B47950  38.956  31.470   7.364
 3686POPC   NC347951  12.096  36.904   5.564
 3686POPC   PO447952  12.053  36.858   5.864
 3686POPC   GL147953  12.083  36.884   6.164
 3686POPC   GL247954  12.154  36.804   6.164
 3686POPC   C1A47955  12.121  36.862   6.464
 3686POPC   D2A47956  12.082  36.905   6.764
 3686POPC   C3A47957  12.066  36.940   7.064
 3686POPC   C4A47958  12.049  36.929   7.364
 3686POPC   C1B47959  12.152  36.615   6.464
 3686POPC   C2B47960  12.120  36.615   6.764
 3686POPC   C3B47961  12.196  36.618   7.064
 3686POPC   C4B47962  12.137  36.692   7.364
 3687POPC   NC347963  22.926  11.300   5.564
 3687POPC   PO447964  22.905  11.268   5.864
 3687POPC   GL147965  22.897  11.307   6.164
 3687POPC   GL247966  23.017  11.191   6.164
 3687POPC   C1A47967  22.970  11.321   6.464
 3687POPC   D2A47968  22.917  11.267   6.764
 3687POPC   C3A47969  22.958  11.324   7.064
 3687POPC   C4A47970  22.953  11.266   7.364
 3687POPC   C1B47971  23.068  11.138   6.464
 3687POPC   C2B47972  23.094  11.112   6.764
 3687POPC   C3B47973  23.077  11.063   7.064
 3687POPC   C4B47974  23.135  11.107   7.364
 3688POPC   NC347975  31.517  19.848   5.564
 3688POPC   PO447976  31.515  19.840   5.864
 3688POPC   GL147977  31.429  19.849   6.164
 3688POPC   GL247978  31.444  19.997   6.164
 3688POPC   C1A47979  31.434  19.875   6.464
 3688POPC   D2A47980  31.500  19.786   6.764
 3688POPC   C3A47981  31.482  19.800   7.064
 3688POPC   C4A47982  31.521  19.807   7.364
 3688POPC   C1B47983  31.380  20.098   6.464
 3688POPC   C2B47984  31.439  20.104   6.764
 3688POPC   C3B47985  31.376  20.121   7.064
 3688POPC   C4B47986  31.377  20.104   7.364
 3689POPC   NC347987  24.463  22.916   5.564
 3689POPC   PO447988  24.506  22.930   5.864
 3689POPC   GL147989  24.526  22.891   6.164
 3689POPC   GL247990  24.454  22.862   6.164
 3689POPC   C1A47991  24.508  22.981   6.464
 3689POPC   D2A47992  24.441  22.929   6.764
 3689POPC   C3A47993  24.514  22.985   7.064
 3689POPC   C4A47994  24.482  22.900   7.364
 3689POPC   C1B47995  24.522  22.724   6.464
 3689POPC   C2B47996  24.451  22.714   6.764
 3689POPC   C3B47997  24.446  22.665   7.064
 3689POPC   C4B47998  24.471  22.662   7.364
 3690POPC   NC347999   5.047  29.922   5.564
 3690POPC   PO448000   5.111  29.920   5.864
 3690POPC   GL148001   5.066  29.969   6.164
 3690POPC   GL248002   5.127  30.051   6.164
 3690POPC   C1A48003   5.097  29.878   6.464
 3690POPC   D2A48004   5.070  29.948   6.764
 3690POPC   C3A48005   5.082  29.898   7.064
 3690POPC   C4A48006   5.056  29.917   7.364
 3690POPC   C1B48007   5.130  30.179   6.464
 3690POPC   C2B48008   5.175  30.192   6.764
 3690POPC   C3B48009   5.164  30.178   7.064
 3690POPC   C4B48010   5.208  30.175   7.364
 3691POPC   NC348011  43.065   8.993   5.564
 3691POPC   PO448012  43.125   8.963   5.864
 3691POPC   GL148013  43.137   8.997   6.164
 3691POPC   GL248014  43.003   9.072   6.164
 3691POPC   C1A48015  43.124   8.931   6.464
 3691POPC   D2A48016  43.065   9.002   6.764
 3691POPC   C3A48017  43.123   8.925   7.064
 3691POPC   C4A48018  43.063   9.001   7.364
 3691POPC   C1B48019  42.961   9.190   6.464
 3691POPC   C2B48020  42.949   9.168   6.764
 3691POPC   C3B48021  42.917   9.186   7.064
 3691POPC   C4B48022  42.913   9.126   7.364
 3692POPC   NC348023  26.831  34.623   5.564
 3692POPC   PO448024  26.841  34.543   5.864
 3692POPC   GL148025  26.794  34.593   6.164
 3692POPC   GL248026  26.767  34.706   6.164
 3692POPC   C1A48027  26.791  34.559   6.464
 3692POPC   D2A48028  26.866  34.614   6.764
 3692POPC   C3A48029  26.810  34.574   7.064
 3692POPC   C4A48030  26.780  34.544   7.364
 3692POPC   C1B48031  26.665  34.826   6.464
 3692POPC   C2B48032  26.696  34.829   6.764
 3692POPC   C3B48033  26.690  34.758   7.064
 3692POPC   C4B48034  26.675  34.769   7.364
 3693POPC   NC348035  42.317  39.985   5.564
 3693POPC   PO448036  42.354  39.960   5.864
 3693POPC   GL148037  42.325  40.038   6.164
 3693POPC   GL248038  42.413  40.066   6.164
 3693POPC   C1A48039  42.323  39.974   6.464
 3693POPC   D2A48040  42.336  40.032   6.764
 3693POPC   C3A48041  42.355  40.022   7.064
 3693POPC   C4A48042  42.361  40.039   7.364
 3693POPC   C1B48043  42.515  40.167   6.464
 3693POPC   C2B48044  42.533  40.143   6.764
 3693POPC   C3B48045  42.569  40.185   7.064
 3693POPC   C4B48046  42.542  40.121   7.364
 3694POPC   NC348047   5.874  30.709   5.564
 3694POPC   PO448048   5.890  30.696   5.864
 3694POPC   GL148049   5.849  30.685   6.164
 3694POPC   GL248050   5.966  30.770   6.164
 3694POPC   C1A48051   5.874  30.738   6.464
 3694POPC   D2A48052   5.832  30.672   6.764
 3694POPC   C3A48053   5.854  30.659   7.064
 3694POPC   C4A48054   5.836  30.687   7.364
 3694POPC   C1B48055   6.060  30.883   6.464
 3694POPC   C2B48056   6.078  30.804   6.764
 3694POPC   C3B48057   6.089  30.876   7.064
 3694POPC   C4B48058   6.113  30.808   7.364
 3695POPC   NC348059   7.381   8.245   5.564
 3695POPC   PO448060   7.427   8.179   5.864
 3695POPC   GL148061   7.437   8.179   6.164
 3695POPC   GL248062   7.480   8.315   6.164
 3695POPC   C1A48063   7.443   8.235   6.464
 3695POPC   D2A48064   7.441   8.194   6.764
 3695POPC   C3A48065   7.436   8.229   7.064
 3695POPC   C4A48066   7.422   8.206   7.364
 3695POPC   C1B48067   7.474   8.444   6.464
 3695POPC   C2B48068   7.469   8.445   6.764
 3695POPC   C3B48069   7.436   8.456   7.064
 3695POPC   C4B48070   7.434   8.445   7.364
 3696POPC   NC348071   6.693  30.728   5.564
 3696POPC   PO448072   6.690  30.680   5.864
 3696POPC   GL148073   6.622  30.696   6.164
 3696POPC   GL248074   6.775  30.669   6.164
 3696POPC   C1A48075   6.631  30.729   6.464
 3696POPC   D2A48076   6.597  30.729   6.764
 3696POPC   C3A48077   6.609  30.741   7.064
 3696POPC   C4A48078   6.663  30.692   7.364
 3696POPC   C1B48079   6.860  30.724   6.464
 3696POPC   C2B48080   6.908  30.679   6.764
 3696POPC   C3B48081   6.934  30.741   7.064
 3696POPC   C4B48082   6.879  30.662   7.364
 3697POPC   NC348083  14.374   9.718   5.564
 3697POPC   PO448084  14.380   9.758   5.864
 3697POPC   GL148085  14.365   9.736   6.164
 3697POPC   GL248086  14.418   9.862   6.164
 3697POPC   C1A48087  14.453   9.765   6.464
 3697POPC   D2A48088  14.429   9.766   6.764
 3697POPC   C3A48089  14.403   9.765   7.064
 3697POPC   C4A48090  14.406   9.726   7.364
 3697POPC   C1B48091  14.400  10.008   6.464
 3697POPC   C2B48092  14.389  10.042   6.764
 3697POPC   C3B48093  14.414   9.967   7.064
 3697POPC   C4B48094  14.413   9.987   7.364
 3698POPC   NC348095   1.979  19.070   5.564
 3698POPC   PO448096   1.946  19.019   5.864
 3698POPC   GL148097   1.983  19.065   6.164
 3698POPC   GL248098   2.026  19.161   6.164
 3698POPC   C1A48099   2.031  19.084   6.464
 3698POPC   D2A48100   2.038  19.092   6.764
 3698POPC   C3A48101   1.943  19.062   7.064
 3698POPC   C4A48102   1.981  19.096   7.364
 3698POPC   C1B48103   2.127  19.284   6.464
 3698POPC   C2B48104   2.106  19.240   6.764
 3698POPC   C3B48105   2.177  19.285   7.064
 3698POPC   C4B48106   2.180  19.305   7.364
 3699POPC   NC348107  19.862  10.574   5.564
 3699POPC   PO448108  19.822  10.508   5.864
 3699POPC   GL148109  19.863  10.514   6.164
 3699POPC   GL248110  19.691  10.586   6.164
 3699POPC   C1A48111  19.869  10.554   6.464
 3699POPC   D2A48112  19.809  10.525   6.764
 3699POPC   C3A48113  19.786  10.554   7.064
 3699POPC   C4A48114  19.874  10.550   7.364
 3699POPC   C1B48115  19.559  10.596   6.464
 3699POPC   C2B48116  19.618  10.594   6.764
 3699POPC   C3B48117  19.572  10.503   7.064
 3699POPC   C4B48118  19.554  10.571   7.364
 3700POPC   NC348119  16.758  35.379   5.564
 3700POPC   PO448120  16.706  35.327   5.864
 3700POPC   GL148121  16.759  35.318   6.164
 3700POPC   GL248122  16.640  35.403   6.164
 3700POPC   C1A48123  16.705  35.310   6.464
 3700POPC   D2A48124  16.713  35.307   6.764
 3700POPC   C3A48125  16.711  35.353   7.064
 3700POPC   C4A48126  16.780  35.303   7.364
 3700POPC   C1B48127  16.537  35.526   6.464
 3700POPC   C2B48128  16.560  35.507   6.764
 3700POPC   C3B48129  16.558  35.450   7.064
 3700POPC   C4B48130  16.558  35.458   7.364
 3701POPC   NC348131  21.336   8.925   5.564
 3701POPC   PO448132  21.373   8.998   5.864
 3701POPC   GL148133  21.395   9.013   6.164
 3701POPC   GL248134  21.497   9.008   6.164
 3701POPC   C1A48135  21.349   8.974   6.464
 3701POPC   D2A48136  21.368   8.946   6.764
 3701POPC   C3A48137  21.342   8.947   7.064
 3701POPC   C4A48138  21.422   9.021   7.364
 3701POPC   C1B48139  21.623   9.060   6.464
 3701POPC   C2B48140  21.582   9.098   6.764
 3701POPC   C3B48141  21.555   9.156   7.064
 3701POPC   C4B48142  21.590   9.078   7.364
 3702POPC   NC348143   4.311  19.096   5.564
 3702POPC   PO448144   4.289  19.033   5.864
 3702POPC   GL148145   4.311  19.067   6.164
 3702POPC   GL248146   4.251  19.161   6.164
 3702POPC   C1A48147   4.276  19.051   6.464
 3702POPC   D2A48148   4.278  19.077   6.764
 3702POPC   C3A48149   4.332  19.099   7.064
 3702POPC   C4A48150   4.332  19.101   7.364
 3702POPC   C1B48151   4.131  19.177   6.464
 3702POPC   C2B48152   4.140  19.197   6.764
 3702POPC   C3B48153   4.093  19.117   7.064
 3702POPC   C4B48154   4.062  19.154   7.364
 3703POPC   NC348155   8.990  36.891   5.564
 3703POPC   PO448156   9.003  36.870   5.864
 3703POPC   GL148157   8.965  36.946   6.164
 3703POPC   GL248158   8.959  36.997   6.164
 3703POPC   C1A48159   8.986  36.928   6.464
 3703POPC   D2A48160   8.934  36.927   6.764
 3703POPC   C3A48161   9.021  36.934   7.064
 3703POPC   C4A48162   8.958  36.934   7.364
 3703POPC   C1B48163   9.038  37.124   6.464
 3703POPC   C2B48164   8.994  37.173   6.764
 3703POPC   C3B48165   9.061  37.194   7.064
 3703POPC   C4B48166   9.072  37.096   7.364
 3704POPC   NC348167  19.805  29.117   5.564
 3704POPC   PO448168  19.799  29.194   5.864
 3704POPC   GL148169  19.882  29.157   6.164
 3704POPC   GL248170  19.680  29.067   6.164
 3704POPC   C1A48171  19.842  29.131   6.464
 3704POPC   D2A48172  19.845  29.117   6.764
 3704POPC   C3A48173  19.853  29.142   7.064
 3704POPC   C4A48174  19.824  29.176   7.364
 3704POPC   C1B48175  19.615  29.056   6.464
 3704POPC   C2B48176  19.634  29.047   6.764
 3704POPC   C3B48177  19.568  29.062   7.064
 3704POPC   C4B48178  19.597  29.026   7.364
 3705POPC   NC348179  29.924  25.265   5.564
 3705POPC   PO448180  29.915  25.304   5.864
 3705POPC   GL148181  29.881  25.274   6.164
 3705POPC   GL248182  29.816  25.191   6.164
 3705POPC   C1A48183  29.970  25.269   6.464
 3705POPC   D2A48184  29.930  25.267   6.764
 3705POPC   C3A48185  29.957  25.217   7.064
 3705POPC   C4A48186  29.886  25.236   7.364
 3705POPC   C1B48187  29.759  25.040   6.464
 3705POPC   C2B48188  29.762  25.088   6.764
 3705POPC   C3B48189  29.853  25.060   7.064
 3705POPC   C4B48190  29.852  25.089   7.364
 3706POPC   NC348191  29.150  20.625   5.564
 3706POPC   PO448192  29.144  20.653   5.864
 3706POPC   GL148193  29.095  20.597   6.164
 3706POPC   GL248194  29.087  20.701   6.164
 3706POPC   C1A48195  29.181  20.572   6.464
 3706POPC   D2A48196  29.162  20.650   6.764
 3706POPC   C3A48197  29.116  20.578   7.064
 3706POPC   C4A48198  29.136  20.583   7.364
 3706POPC   C1B48199  28.995  20.880   6.464
 3706POPC   C2B48200  29.006  20.870   6.764
 3706POPC   C3B48201  29.065  20.859   7.064
 3706POPC   C4B48202  29.015  20.852   7.364
 3707POPC   NC348203  19.043  39.251   5.564
 3707POPC   PO448204  19.056  39.260   5.864
 3707POPC   GL148205  19.108  39.279   6.164
 3707POPC   GL248206  18.917  39.191   6.164
 3707POPC   C1A48207  19.105  39.274   6.464
 3707POPC   D2A48208  19.059  39.192   6.764
 3707POPC   C3A48209  19.078  39.237   7.064
 3707POPC   C4A48210  19.028  39.187   7.364
 3707POPC   C1B48211  18.879  39.066   6.464
 3707POPC   C2B48212  18.836  39.089   6.764
 3707POPC   C3B48213  18.887  39.083   7.064
 3707POPC   C4B48214  18.879  39.131   7.364
 3708POPC   NC348215  16.689  28.376   5.564
 3708POPC   PO448216  16.703  28.408   5.864
 3708POPC   GL148217  16.690  28.394   6.164
 3708POPC   GL248218  16.777  28.474   6.164
 3708POPC   C1A48219  16.742  28.398   6.464
 3708POPC   D2A48220  16.693  28.389   6.764
 3708POPC   C3A48221  16.755  28.320   7.064
 3708POPC   C4A48222  16.701  28.392   7.364
 3708POPC   C1B48223  16.826  28.601   6.464
 3708POPC   C2B48224  16.818  28.580   6.764
 3708POPC   C3B48225  16.760  28.603   7.064
 3708POPC   C4B48226  16.804  28.637   7.364
 3709POPC   NC348227   5.827  23.727   5.564
 3709POPC   PO448228   5.837  23.679   5.864
 3709POPC   GL148229   5.878  23.693   6.164
 3709POPC   GL248230   5.743  23.617   6.164
 3709POPC   C1A48231   5.882  23.675   6.464
 3709POPC   D2A48232   5.909  23.697   6.764
 3709POPC   C3A48233   5.866  23.736   7.064
 3709POPC   C4A48234   5.912  23.682   7.364
 3709POPC   C1B48235   5.665  23.578   6.464
 3709POPC   C2B48236   5.710  23.551   6.764
 3709POPC   C3B48237   5.675  23.578   7.064
 3709POPC   C4B48238   5.682  23.519   7.364
 3710POPC   NC348239  26.803  10.568   5.564
 3710POPC   PO448240  26.829  10.506   5.864
 3710POPC   GL148241  26.769  10.568   6.164
 3710POPC   GL248242  26.706  10.509   6.164
 3710POPC   C1A48243  26.813  10.532   6.464
 3710POPC   D2A48244  26.858  10.554   6.764
 3710POPC   C3A48245  26.784  10.553   7.064
 3710POPC   C4A48246  26.802  10.505   7.364
 3710POPC   C1B48247  26.543  10.536   6.464
 3710POPC   C2B48248  26.548  10.514   6.764
 3710POPC   C3B48249  26.591  10.542   7.064
 3710POPC   C4B48250  26.616  10.471   7.364
 3711POPC   NC348251  40.743  38.500   5.564
 3711POPC   PO448252  40.744  38.408   5.864
 3711POPC   GL148253  40.758  38.431   6.164
 3711POPC   GL248254  40.885  38.398   6.164
 3711POPC   C1A48255  40.762  38.495   6.464
 3711POPC   D2A48256  40.810  38.473   6.764
 3711POPC   C3A48257  40.762  38.468   7.064
 3711POPC   C4A48258  40.783  38.470   7.364
 3711POPC   C1B48259  40.985  38.419   6.464
 3711POPC   C2B48260  41.079  38.414   6.764
 3711POPC   C3B48261  41.005  38.403   7.064
 3711POPC   C4B48262  40.992  38.429   7.364
 3712POPC   NC348263  40.034  12.819   5.564
 3712POPC   PO448264  39.967  12.894   5.864
 3712POPC   GL148265  39.990  12.835   6.164
 3712POPC   GL248266  40.070  12.952   6.164
 3712POPC   C1A48267  40.000  12.852   6.464
 3712POPC   D2A48268  39.968  12.867   6.764
 3712POPC   C3A48269  39.991  12.830   7.064
 3712POPC   C4A48270  40.036  12.897   7.364
 3712POPC   C1B48271  40.074  13.053   6.464
 3712POPC   C2B48272  40.109  13.098   6.764
 3712POPC   C3B48273  40.125  13.071   7.064
 3712POPC   C4B48274  40.120  13.044   7.364
 3713POPC   NC348275  20.580   5.916   5.564
 3713POPC   PO448276  20.598   5.870   5.864
 3713POPC   GL148277  20.616   5.866   6.164
 3713POPC   GL248278  20.494   5.899   6.164
 3713POPC   C1A48279  20.611   5.873   6.464
 3713POPC   D2A48280  20.629   5.898   6.764
 3713POPC   C3A48281  20.658   5.906   7.064
 3713POPC   C4A48282  20.611   5.872   7.364
 3713POPC   C1B48283  20.394   5.832   6.464
 3713POPC   C2B48284  20.315   5.834   6.764
 3713POPC   C3B48285  20.359   5.857   7.064
 3713POPC   C4B48286  20.356   5.874   7.364
 3714POPC   NC348287  24.530  32.290   5.564
 3714POPC   PO448288  24.443  32.271   5.864
 3714POPC   GL148289  24.448  32.252   6.164
 3714POPC   GL248290  24.485  32.078   6.164
 3714POPC   C1A48291  24.456  32.252   6.464
 3714POPC   D2A48292  24.452  32.208   6.764
 3714POPC   C3A48293  24.519  32.279   7.064
 3714POPC   C4A48294  24.480  32.223   7.364
 3714POPC   C1B48295  24.486  32.003   6.464
 3714POPC   C2B48296  24.558  31.999   6.764
 3714POPC   C3B48297  24.568  32.045   7.064
 3714POPC   C4B48298  24.479  32.014   7.364
 3715POPC   NC348299  17.468  25.234   5.564
 3715POPC   PO448300  17.542  25.222   5.864
 3715POPC   GL148301  17.534  25.260   6.164
 3715POPC   GL248302  17.666  25.312   6.164
 3715POPC   C1A48303  17.481  25.229   6.464
 3715POPC   D2A48304  17.484  25.262   6.764
 3715POPC   C3A48305  17.481  25.309   7.064
 3715POPC   C4A48306  17.547  25.274   7.364
 3715POPC   C1B48307  17.754  25.336   6.464
 3715POPC   C2B48308  17.768  25.392   6.764
 3715POPC   C3B48309  17.771  25.374   7.064
 3715POPC   C4B48310  17.751  25.412   7.364
 3716POPC   NC348311  34.556  12.071   5.564
 3716POPC   PO448312  34.557  12.050   5.864
 3716POPC   GL148313  34.556  12.064   6.164
 3716POPC   GL248314  34.536  12.232   6.164
 3716POPC   C1A48315  34.572  12.069   6.464
 3716POPC   D2A48316  34.625  12.063   6.764
 3716POPC   C3A48317  34.624  12.064   7.064
 3716POPC   C4A48318  34.552  12.034   7.364
 3716POPC   C1B48319  34.549  12.360   6.464
 3716POPC   C2B48320  34.606  12.337   6.764
 3716POPC   C3B48321  34.562  12.290   7.064
 3716POPC   C4B48322  34.561  12.374   7.364
 3717POPC   NC348323   5.122  10.529   5.564
 3717POPC   PO448324   5.142  10.562   5.864
 3717POPC   GL148325   5.108  10.482   6.164
 3717POPC   GL248326   5.113  10.442   6.164
 3717POPC   C1A48327   5.129  10.480   6.464
 3717POPC   D2A48328   5.078  10.496   6.764
 3717POPC   C3A48329   5.077  10.549   7.064
 3717POPC   C4A48330   5.059  10.483   7.364
 3717POPC   C1B48331   5.197  10.304   6.464
 3717POPC   C2B48332   5.200  10.307   6.764
 3717POPC   C3B48333   5.155  10.308   7.064
 3717POPC   C4B48334   5.134  10.255   7.364
 3718POPC   NC348335  25.305   6.662   5.564
 3718POPC   PO448336  25.242   6.646   5.864
 3718POPC   GL148337  25.268   6.596   6.164
 3718POPC   GL248338  25.103   6.601   6.164
 3718POPC   C1A48339  25.295   6.645   6.464
 3718POPC   D2A48340  25.308   6.624   6.764
 3718POPC   C3A48341  25.298   6.634   7.064
 3718POPC   C4A48342  25.309   6.669   7.364
 3718POPC   C1B48343  24.992   6.628   6.464
 3718POPC   C2B48344  25.024   6.618   6.764
 3718POPC   C3B48345  25.025   6.648   7.064
 3718POPC   C4B48346  25.061   6.684   7.364
 3719POPC   NC348347  32.292   0.445   5.564
 3719POPC   PO448348  32.214   0.469   5.864
 3719POPC   GL148349  32.284   0.440   6.164
 3719POPC   GL248350  32.294   0.304   6.164
 3719POPC   C1A48351  32.212   0.447   6.464
 3719POPC   D2A48352  32.254   0.400   6.764
 3719POPC   C3A48353  32.239   0.392   7.064
 3719POPC   C4A48354  32.255   0.390   7.364
 3719POPC   C1B48355  32.318   0.225   6.464
 3719POPC   C2B48356  32.292   0.168   6.764
 3719POPC   C3B48357  32.327   0.231   7.064
 3719POPC   C4B48358  32.296   0.157   7.364
 3720POPC   NC348359  42.286  23.732   5.564
 3720POPC   PO448360  42.328  23.752   5.864
 3720POPC   GL148361  42.384  23.727   6.164
 3720POPC   GL248362  42.176  23.658   6.164
 3720POPC   C1A48363  42.373  23.735   6.464
 3720POPC   D2A48364  42.353  23.756   6.764
 3720POPC   C3A48365  42.355  23.731   7.064
 3720POPC   C4A48366  42.355  23.714   7.364
 3720POPC   C1B48367  42.116  23.646   6.464
 3720POPC   C2B48368  42.044  23.698   6.764
 3720POPC   C3B48369  42.055  23.621   7.064
 3720POPC   C4B48370  42.106  23.681   7.364
 3721POPC   NC348371  19.059   9.699   5.564
 3721POPC   PO448372  19.080   9.771   5.864
 3721POPC   GL148373  19.060   9.785   6.164
 3721POPC   GL248374  19.168   9.792   6.164
 3721POPC   C1A48375  19.108   9.753   6.464
 3721POPC   D2A48376  19.023   9.758   6.764
 3721POPC   C3A48377  19.066   9.722   7.064
 3721POPC   C4A48378  19.091   9.787   7.364
 3721POPC   C1B48379  19.318   9.870   6.464
 3721POPC   C2B48380  19.260   9.828   6.764
 3721POPC   C3B48381  19.325   9.827   7.064
 3721POPC   C4B48382  19.282   9.865   7.364
 3722POPC   NC348383  29.160  10.480   5.564
 3722POPC   PO448384  29.169  10.545   5.864
 3722POPC   GL148385  29.151  10.544   6.164
 3722POPC   GL248386  29.123  10.390   6.164
 3722POPC   C1A48387  29.171  10.495   6.464
 3722POPC   D2A48388  29.187  10.549   6.764
 3722POPC   C3A48389  29.174  10.545   7.064
 3722POPC   C4A48390  29.176  10.514   7.364
 3722POPC   C1B48391  29.115  10.320   6.464
 3722POPC   C2B48392  29.202  10.266   6.764
 3722POPC   C3B48393  29.159  10.230   7.064
 3722POPC   C4B48394  29.167  10.317   7.364
 3723POPC   NC348395   1.175   3.567   5.564
 3723POPC   PO448396   1.260   3.496   5.864
 3723POPC   GL148397   1.251   3.526   6.164
 3723POPC   GL248398   1.112   3.491   6.164
 3723POPC   C1A48399   1.250   3.553   6.464
 3723POPC   D2A48400   1.262   3.573   6.764
 3723POPC   C3A48401   1.202   3.590   7.064
 3723POPC   C4A48402   1.223   3.540   7.364
 3723POPC   C1B48403   1.084   3.341   6.464
 3723POPC   C2B48404   1.067   3.401   6.764
 3723POPC   C3B48405   1.079   3.395   7.064
 3723POPC   C4B48406   1.062   3.351   7.364
 3724POPC   NC348407  14.426  43.107   5.564
 3724POPC   PO448408  14.374  43.089   5.864
 3724POPC   GL148409  14.449  43.079   6.164
 3724POPC   GL248410  14.534  43.094   6.164
 3724POPC   C1A48411  14.436  43.113   6.464
 3724POPC   D2A48412  14.442  43.135   6.764
 3724POPC   C3A48413  14.358  43.113   7.064
 3724POPC   C4A48414  14.383  43.075   7.364
 3724POPC   C1B48415  14.679  43.091   6.464
 3724POPC   C2B48416  14.628  43.040   6.764
 3724POPC   C3B48417  14.643  43.042   7.064
 3724POPC   C4B48418  14.646  43.039   7.364
 3725POPC   NC348419  13.662  34.607   5.564
 3725POPC   PO448420  13.664  34.547   5.864
 3725POPC   GL148421  13.675  34.586   6.164
 3725POPC   GL248422  13.460  34.565   6.164
 3725POPC   C1A48423  13.594  34.567   6.464
 3725POPC   D2A48424  13.605  34.568   6.764
 3725POPC   C3A48425  13.638  34.533   7.064
 3725POPC   C4A48426  13.660  34.592   7.364
 3725POPC   C1B48427  13.379  34.568   6.464
 3725POPC   C2B48428  13.419  34.559   6.764
 3725POPC   C3B48429  13.406  34.539   7.064
 3725POPC   C4B48430  13.411  34.602   7.364
 3726POPC   NC348431  10.537  22.183   5.564
 3726POPC   PO448432  10.525  22.148   5.864
 3726POPC   GL148433  10.485  22.209   6.164
 3726POPC   GL248434  10.416  22.250   6.164
 3726POPC   C1A48435  10.488  22.126   6.464
 3726POPC   D2A48436  10.530  22.119   6.764
 3726POPC   C3A48437  10.536  22.166   7.064
 3726POPC   C4A48438  10.558  22.127   7.364
 3726POPC   C1B48439  10.354  22.353   6.464
 3726POPC   C2B48440  10.410  22.332   6.764
 3726POPC   C3B48441  10.352  22.413   7.064
 3726POPC   C4B48442  10.374  22.392   7.364
 3727POPC   NC348443   5.859  25.274   5.564
 3727POPC   PO448444   5.853  25.226   5.864
 3727POPC   GL148445   5.856  25.241   6.164
 3727POPC   GL248446   5.769  25.189   6.164
 3727POPC   C1A48447   5.915  25.243   6.464
 3727POPC   D2A48448   5.834  25.287   6.764
 3727POPC   C3A48449   5.851  25.289   7.064
 3727POPC   C4A48450   5.875  25.265   7.364
 3727POPC   C1B48451   5.763  25.013   6.464
 3727POPC   C2B48452   5.680  25.085   6.764
 3727POPC   C3B48453   5.706  25.085   7.064
 3727POPC   C4B48454   5.693  25.020   7.364
 3728POPC   NC348455  13.579  26.019   5.564
 3728POPC   PO448456  13.657  26.012   5.864
 3728POPC   GL148457  13.627  26.090   6.164
 3728POPC   GL248458  13.725  26.103   6.164
 3728POPC   C1A48459  13.596  26.035   6.464
 3728POPC   D2A48460  13.670  26.047   6.764
 3728POPC   C3A48461  13.580  26.013   7.064
 3728POPC   C4A48462  13.633  26.080   7.364
 3728POPC   C1B48463  13.803  26.215   6.464
 3728POPC   C2B48464  13.770  26.208   6.764
 3728POPC   C3B48465  13.793  26.262   7.064
 3728POPC   C4B48466  13.810  26.185   7.364
 3729POPC   NC348467  10.515  31.510   5.564
 3729POPC   PO448468  10.515  31.522   5.864
 3729POPC   GL148469  10.485  31.475   6.164
 3729POPC   GL248470  10.575  31.521   6.164
 3729POPC   C1A48471  10.567  31.423   6.464
 3729POPC   D2A48472  10.516  31.471   6.764
 3729POPC   C3A48473  10.523  31.487   7.064
 3729POPC   C4A48474  10.543  31.435   7.364
 3729POPC   C1B48475  10.738  31.610   6.464
 3729POPC   C2B48476  10.684  31.580   6.764
 3729POPC   C3B48477  10.742  31.654   7.064
 3729POPC   C4B48478  10.773  31.581   7.364
 3730POPC   NC348479   1.949  36.901   5.564
 3730POPC   PO448480   2.029  36.943   5.864
 3730POPC   GL148481   1.954  36.869   6.164
 3730POPC   GL248482   2.120  36.991   6.164
 3730POPC   C1A48483   2.036  36.951   6.464
 3730POPC   D2A48484   2.036  36.929   6.764
 3730POPC   C3A48485   1.974  36.949   7.064
 3730POPC   C4A48486   2.035  36.866   7.364
 3730POPC   C1B48487   2.220  37.054   6.464
 3730POPC   C2B48488   2.160  37.070   6.764
 3730POPC   C3B48489   2.219  37.054   7.064
 3730POPC   C4B48490   2.153  37.021   7.364
 3731POPC   NC348491  25.269  19.034   5.564
 3731POPC   PO448492  25.310  19.019   5.864
 3731POPC   GL148493  25.228  19.058   6.164
 3731POPC   GL248494  25.368  19.037   6.164
 3731POPC   C1A48495  25.259  19.029   6.464
 3731POPC   D2A48496  25.242  19.054   6.764
 3731POPC   C3A48497  25.252  19.070   7.064
 3731POPC   C4A48498  25.225  19.082   7.364
 3731POPC   C1B48499  25.475  18.938   6.464
 3731POPC   C2B48500  25.477  18.992   6.764
 3731POPC   C3B48501  25.540  19.008   7.064
 3731POPC   C4B48502  25.485  18.985   7.364
 3732POPC   NC348503   3.504  31.465   5.564
 3732POPC   PO448504   3.582  31.519   5.864
 3732POPC   GL148505   3.571  31.467   6.164
 3732POPC   GL248506   3.552  31.332   6.164
 3732POPC   C1A48507   3.585  31.439   6.464
 3732POPC   D2A48508   3.587  31.434   6.764
 3732POPC   C3A48509   3.547  31.458   7.064
 3732POPC   C4A48510   3.573  31.467   7.364
 3732POPC   C1B48511   3.471  31.230   6.464
 3732POPC   C2B48512   3.445  31.223   6.764
 3732POPC   C3B48513   3.468  31.206   7.064
 3732POPC   C4B48514   3.502  31.210   7.364
 3733POPC   NC348515  29.169  42.299   5.564
 3733POPC   PO448516  29.131  42.361   5.864
 3733POPC   GL148517  29.097  42.377   6.164
 3733POPC   GL248518  28.984  42.336   6.164
 3733POPC   C1A48519  29.142  42.333   6.464
 3733POPC   D2A48520  29.162  42.382   6.764
 3733POPC   C3A48521  29.156  42.340   7.064
 3733POPC   C4A48522  29.172  42.382   7.364
 3733POPC   C1B48523  28.883  42.354   6.464
 3733POPC   C2B48524  28.852  42.393   6.764
 3733POPC   C3B48525  28.942  42.390   7.064
 3733POPC   C4B48526  28.903  42.385   7.364
 3734POPC   NC348527  19.012  20.618   5.564
 3734POPC   PO448528  19.047  20.596   5.864
 3734POPC   GL148529  19.049  20.563   6.164
 3734POPC   GL248530  19.188  20.598   6.164
 3734POPC   C1A48531  19.079  20.642   6.464
 3734POPC   D2A48532  19.066  20.575   6.764
 3734POPC   C3A48533  19.076  20.621   7.064
 3734POPC   C4A48534  19.039  20.634   7.364
 3734POPC   C1B48535  19.322  20.567   6.464
 3734POPC   C2B48536  19.257  20.528   6.764
 3734POPC   C3B48537  19.318  20.604   7.064
 3734POPC   C4B48538  19.284  20.547   7.364
 3735POPC   NC348539  31.424  24.470   5.564
 3735POPC   PO448540  31.496  24.493   5.864
 3735POPC   GL148541  31.481  24.474   6.164
 3735POPC   GL248542  31.445  24.340   6.164
 3735POPC   C1A48543  31.518  24.466   6.464
 3735POPC   D2A48544  31.485  24.453   6.764
 3735POPC   C3A48545  31.427  24.444   7.064
 3735POPC   C4A48546  31.436  24.466   7.364
 3735POPC   C1B48547  31.462  24.214   6.464
 3735POPC   C2B48548  31.364  24.260   6.764
 3735POPC   C3B48549  31.382  24.272   7.064
 3735POPC   C4B48550  31.392  24.294   7.364
 3736POPC   NC348551  29.912   5.867   5.564
 3736POPC   PO448552  29.920   5.861   5.864
 3736POPC   GL148553  29.928   5.867   6.164
 3736POPC   GL248554  30.057   5.890   6.164
 3736POPC   C1A48555  29.903   5.869   6.464
 3736POPC   D2A48556  29.888   5.879   6.764
 3736POPC   C3A48557  29.958   5.897   7.064
 3736POPC   C4A48558  29.877   5.877   7.364
 3736POPC   C1B48559  30.165   6.023   6.464
 3736POPC   C2B48560  30.116   6.014   6.764
 3736POPC   C3B48561  30.084   5.969   7.064
 3736POPC   C4B48562  30.171   5.959   7.364
 3737POPC   NC348563   0.418  25.227   5.564
 3737POPC   PO448564   0.429  25.233   5.864
 3737POPC   GL148565   0.422  25.260   6.164
 3737POPC   GL248566   0.411  25.413   6.164
 3737POPC   C1A48567   0.478  25.283   6.464
 3737POPC   D2A48568   0.410  25.262   6.764
 3737POPC   C3A48569   0.448  25.229   7.064
 3737POPC   C4A48570   0.418  25.221   7.364
 3737POPC   C1B48571   0.408  25.523   6.464
 3737POPC   C2B48572   0.445  25.501   6.764
 3737POPC   C3B48573   0.406  25.474   7.064
 3737POPC   C4B48574   0.432  25.561   7.364
 3738POPC   NC348575  10.541  21.401   5.564
 3738POPC   PO448576  10.540  21.367   5.864
 3738POPC   GL148577  10.509  21.405   6.164
 3738POPC   GL248578  10.442  21.339   6.164
 3738POPC   C1A48579  10.512  21.384   6.464
 3738POPC   D2A48580  10.523  21.351   6.764
 3738POPC   C3A48581  10.490  21.394   7.064
 3738POPC   C4A48582  10.526  21.372   7.364
 3738POPC   C1B48583  10.335  21.342   6.464
 3738POPC   C2B48584  10.315  21.283   6.764
 3738POPC   C3B48585  10.238  21.360   7.064
 3738POPC   C4B48586  10.320  21.298   7.364
 3739POPC   NC348587  28.356   2.037   5.564
 3739POPC   PO448588  28.364   1.994   5.864
 3739POPC   GL148589  28.326   1.995   6.164
 3739POPC   GL248590  28.364   1.898   6.164
 3739POPC   C1A48591  28.369   2.018   6.464
 3739POPC   D2A48592  28.374   1.948   6.764
 3739POPC   C3A48593  28.407   2.032   7.064
 3739POPC   C4A48594  28.330   1.964   7.364
 3739POPC   C1B48595  28.386   1.725   6.464
 3739POPC   C2B48596  28.400   1.759   6.764
 3739POPC   C3B48597  28.374   1.773   7.064
 3739POPC   C4B48598  28.380   1.755   7.364
 3740POPC   NC348599  32.975  38.406   5.564
 3740POPC   PO448600  32.980  38.423   5.864
 3740POPC   GL148601  33.039  38.495   6.164
 3740POPC   GL248602  32.936  38.398   6.164
 3740POPC   C1A48603  32.996  38.428   6.464
 3740POPC   D2A48604  33.065  38.480   6.764
 3740POPC   C3A48605  33.042  38.485   7.064
 3740POPC   C4A48606  33.032  38.499   7.364
 3740POPC   C1B48607  32.815  38.420   6.464
 3740POPC   C2B48608  32.751  38.411   6.764
 3740POPC   C3B48609  32.827  38.368   7.064
 3740POPC   C4B48610  32.761  38.416   7.364
 3741POPC   NC348611  40.746   0.407   5.564
 3741POPC   PO448612  40.825   0.403   5.864
 3741POPC   GL148613  40.767   0.424   6.164
 3741POPC   GL248614  40.699   0.457   6.164
 3741POPC   C1A48615  40.760   0.421   6.464
 3741POPC   D2A48616  40.819   0.486   6.764
 3741POPC   C3A48617  40.809   0.458   7.064
 3741POPC   C4A48618  40.776   0.413   7.364
 3741POPC   C1B48619  40.604   0.586   6.464
 3741POPC   C2B48620  40.580   0.597   6.764
 3741POPC   C3B48621  40.601   0.506   7.064
 3741POPC   C4B48622  40.584   0.551   7.364
 3742POPC   NC348623  22.909  31.481   5.564
 3742POPC   PO448624  22.894  31.469   5.864
 3742POPC   GL148625  22.913  31.477   6.164
 3742POPC   GL248626  23.037  31.452   6.164
 3742POPC   C1A48627  22.975  31.499   6.464
 3742POPC   D2A48628  22.890  31.518   6.764
 3742POPC   C3A48629  22.951  31.473   7.064
 3742POPC   C4A48630  22.912  31.484   7.364
 3742POPC   C1B48631  23.140  31.540   6.464
 3742POPC   C2B48632  23.168  31.495   6.764
 3742POPC   C3B48633  23.154  31.565   7.064
 3742POPC   C4B48634  23.198  31.542   7.364
 3743POPC   NC348635  11.332  40.025   5.564
 3743POPC   PO448636  11.262  39.965   5.864
 3743POPC   GL148637  11.309  40.034   6.164
 3743POPC   GL248638  11.246  39.937   6.164
 3743POPC   C1A48639  11.312  40.032   6.464
 3743POPC   D2A48640  11.346  40.005   6.764
 3743POPC   C3A48641  11.303  39.957   7.064
 3743POPC   C4A48642  11.306  40.034   7.364
 3743POPC   C1B48643  11.087  39.806   6.464
 3743POPC   C2B48644  11.129  39.820   6.764
 3743POPC   C3B48645  11.168  39.858   7.064
 3743POPC   C4B48646  11.139  39.854   7.364
 3744POPC   NC348647  22.957   2.011   5.564
 3744POPC   PO448648  22.927   1.947   5.864
 3744POPC   GL148649  22.975   1.997   6.164
 3744POPC   GL248650  22.864   2.069   6.164
 3744POPC   C1A48651  22.888   2.033   6.464
 3744POPC   D2A48652  22.986   2.015   6.764
 3744POPC   C3A48653  22.911   1.988   7.064
 3744POPC   C4A48654  22.924   1.992   7.364
 3744POPC   C1B48655  22.807   2.180   6.464
 3744POPC   C2B48656  22.871   2.223   6.764
 3744POPC   C3B48657  22.878   2.241   7.064
 3744POPC   C4B48658  22.842   2.197   7.364
 3745POPC   NC348659  24.498  12.829   5.564
 3745POPC   PO448660  24.496  12.807   5.864
 3745POPC   GL148661  24.474  12.895   6.164
 3745POPC   GL248662  24.366  12.848   6.164
 3745POPC   C1A48663  24.468  12.818   6.464
 3745POPC   D2A48664  24.505  12.881   6.764
 3745POPC   C3A48665  24.444  12.859   7.064
 3745POPC   C4A48666  24.539  12.869   7.364
 3745POPC   C1B48667  24.230  12.810   6.464
 3745POPC   C2B48668  24.261  12.815   6.764
 3745POPC   C3B48669  24.278  12.869   7.064
 3745POPC   C4B48670  24.236  12.884   7.364
 3746POPC   NC348671  26.864  15.981   5.564
 3746POPC   PO448672  26.817  15.996   5.864
 3746POPC   GL148673  26.820  15.948   6.164
 3746POPC   GL248674  26.697  15.923   6.164
 3746POPC   C1A48675  26.791  15.936   6.464
 3746POPC   D2A48676  26.827  15.980   6.764
 3746POPC   C3A48677  26.849  15.959   7.064
 3746POPC   C4A48678  26.809  15.946   7.364
 3746POPC   C1B48679  26.533  15.932   6.464
 3746POPC   C2B48680  26.583  15.898   6.764
 3746POPC   C3B48681  26.600  15.872   7.064
 3746POPC   C4B48682  26.594  15.934   7.364
 3747POPC   NC348683  39.219  16.725   5.564
 3747POPC   PO448684  39.273  16.709   5.864
 3747POPC   GL148685  39.251  16.765   6.164
 3747POPC   GL248686  39.310  16.683   6.164
 3747POPC   C1A48687  39.238  16.769   6.464
 3747POPC   D2A48688  39.227  16.777   6.764
 3747POPC   C3A48689  39.210  16.754   7.064
 3747POPC   C4A48690  39.271  16.767   7.364
 3747POPC   C1B48691  39.510  16.754   6.464
 3747POPC   C2B48692  39.509  16.678   6.764
 3747POPC   C3B48693  39.447  16.763   7.064
 3747POPC   C4B48694  39.479  16.734   7.364
 3748POPC   NC348695  34.616  19.014   5.564
 3748POPC   PO448696  34.560  19.035   5.864
 3748POPC   GL148697  34.611  19.062   6.164
 3748POPC   GL248698  34.594  19.121   6.164
 3748POPC   C1A48699  34.596  19.048   6.464
 3748POPC   D2A48700  34.624  19.068   6.764
 3748POPC   C3A48701  34.625  19.087   7.064
 3748POPC   C4A48702  34.540  19.012   7.364
 3748POPC   C1B48703  34.748  19.234   6.464
 3748POPC   C2B48704  34.707  19.297   6.764
 3748POPC   C3B48705  34.689  19.248   7.064
 3748POPC   C4B48706  34.721  19.319   7.364
 3749POPC   NC348707  11.265  12.034   5.564
 3749POPC   PO448708  11.332  12.095   5.864
 3749POPC   GL148709  11.274  12.085   6.164
 3749POPC   GL248710  11.416  12.125   6.164
 3749POPC   C1A48711  11.253  12.030   6.464
 3749POPC   D2A48712  11.272  12.092   6.764
 3749POPC   C3A48713  11.310  12.064   7.064
 3749POPC   C4A48714  11.321  12.120   7.364
 3749POPC   C1B48715  11.455  12.286   6.464
 3749POPC   C2B48716  11.436  12.265   6.764
 3749POPC   C3B48717  11.483  12.227   7.064
 3749POPC   C4B48718  11.499  12.236   7.364
 3750POPC   NC348719  34.607  25.281   5.564
 3750POPC   PO448720  34.607  25.304   5.864
 3750POPC   GL148721  34.612  25.247   6.164
 3750POPC   GL248722  34.624  25.121   6.164
 3750POPC   C1A48723  34.619  25.295   6.464
 3750POPC   D2A48724  34.605  25.221   6.764
 3750POPC   C3A48725  34.611  25.277   7.064
 3750POPC   C4A48726  34.529  25.274   7.364
 3750POPC   C1B48727  34.707  25.019   6.464
 3750POPC   C2B48728  34.654  25.001   6.764
 3750POPC   C3B48729  34.672  24.994   7.064
 3750POPC   C4B48730  34.662  25.008   7.364
 3751POPC   NC348731  29.102  33.064   5.564
 3751POPC   PO448732  29.111  33.023   5.864
 3751POPC   GL148733  29.129  33.032   6.164
 3751POPC   GL248734  29.286  32.993   6.164
 3751POPC   C1A48735  29.158  33.006   6.464
 3751POPC   D2A48736  29.191  32.994   6.764
 3751POPC   C3A48737  29.181  33.049   7.064
 3751POPC   C4A48738  29.108  33.057   7.364
 3751POPC   C1B48739  29.432  32.987   6.464
 3751POPC   C2B48740  29.382  33.044   6.764
 3751POPC   C3B48741  29.419  33.044   7.064
 3751POPC   C4B48742  29.431  33.048   7.364
 3752POPC   NC348743  14.392  32.214   5.564
 3752POPC   PO448744  14.399  32.209   5.864
 3752POPC   GL148745  14.380  32.287   6.164
 3752POPC   GL248746  14.442  32.169   6.164
 3752POPC   C1A48747  14.442  32.233   6.464
 3752POPC   D2A48748  14.390  32.236   6.764
 3752POPC   C3A48749  14.370  32.238   7.064
 3752POPC   C4A48750  14.428  32.201   7.364
 3752POPC   C1B48751  14.503  31.989   6.464
 3752POPC   C2B48752  14.437  32.011   6.764
 3752POPC   C3B48753  14.443  31.992   7.064
 3752POPC   C4B48754  14.450  32.030   7.364
 3753POPC   NC348755   5.082   1.181   5.564
 3753POPC   PO448756   5.068   1.214   5.864
 3753POPC   GL148757   5.118   1.211   6.164
 3753POPC   GL248758   5.129   1.061   6.164
 3753POPC   C1A48759   5.124   1.171   6.464
 3753POPC   D2A48760   5.055   1.174   6.764
 3753POPC   C3A48761   5.064   1.202   7.064
 3753POPC   C4A48762   5.055   1.189   7.364
 3753POPC   C1B48763   5.205   0.996   6.464
 3753POPC   C2B48764   5.109   0.981   6.764
 3753POPC   C3B48765   5.146   1.020   7.064
 3753POPC   C4B48766   5.146   0.971   7.364
 3754POPC   NC348767  11.297  25.300   5.564
 3754POPC   PO448768  11.338  25.298   5.864
 3754POPC   GL148769  11.328  25.234   6.164
 3754POPC   GL248770  11.245  25.306   6.164
 3754POPC   C1A48771  11.311  25.223   6.464
 3754POPC   D2A48772  11.303  25.245   6.764
 3754POPC   C3A48773  11.298  25.289   7.064
 3754POPC   C4A48774  11.269  25.299   7.364
 3754POPC   C1B48775  11.114  25.354   6.464
 3754POPC   C2B48776  11.130  25.359   6.764
 3754POPC   C3B48777  11.047  25.405   7.064
 3754POPC   C4B48778  11.129  25.412   7.364
 3755POPC   NC348779  35.344  15.918   5.564
 3755POPC   PO448780  35.368  15.912   5.864
 3755POPC   GL148781  35.309  15.906   6.164
 3755POPC   GL248782  35.289  15.862   6.164
 3755POPC   C1A48783  35.333  15.987   6.464
 3755POPC   D2A48784  35.344  15.991   6.764
 3755POPC   C3A48785  35.324  15.916   7.064
 3755POPC   C4A48786  35.368  15.992   7.364
 3755POPC   C1B48787  35.234  15.674   6.464
 3755POPC   C2B48788  35.239  15.735   6.764
 3755POPC   C3B48789  35.281  15.752   7.064
 3755POPC   C4B48790  35.286  15.769   7.364
 3756POPC   NC348791  17.463  23.724   5.564
 3756POPC   PO448792  17.548  23.753   5.864
 3756POPC   GL148793  17.527  23.720   6.164
 3756POPC   GL248794  17.576  23.792   6.164
 3756POPC   C1A48795  17.542  23.724   6.464
 3756POPC   D2A48796  17.524  23.761   6.764
 3756POPC   C3A48797  17.510  23.667   7.064
 3756POPC   C4A48798  17.458  23.718   7.364
 3756POPC   C1B48799  17.696  23.925   6.464
 3756POPC   C2B48800  17.649  23.904   6.764
 3756POPC   C3B48801  17.686  23.910   7.064
 3756POPC   C4B48802  17.686  23.942   7.364
 3757POPC   NC348803  27.610  33.838   5.564
 3757POPC   PO448804  27.604  33.774   5.864
 3757POPC   GL148805  27.639  33.804   6.164
 3757POPC   GL248806  27.477  33.689   6.164
 3757POPC   C1A48807  27.557  33.767   6.464
 3757POPC   D2A48808  27.639  33.758   6.764
 3757POPC   C3A48809  27.593  33.765   7.064
 3757POPC   C4A48810  27.595  33.780   7.364
 3757POPC   C1B48811  27.410  33.601   6.464
 3757POPC   C2B48812  27.389  33.601   6.764
 3757POPC   C3B48813  27.437  33.602   7.064
 3757POPC   C4B48814  27.408  33.672   7.364
 3758POPC   NC348815  12.809   2.741   5.564
 3758POPC   PO448816  12.815   2.734   5.864
 3758POPC   GL148817  12.868   2.764   6.164
 3758POPC   GL248818  12.838   2.905   6.164
 3758POPC   C1A48819  12.836   2.746   6.464
 3758POPC   D2A48820  12.844   2.806   6.764
 3758POPC   C3A48821  12.866   2.781   7.064
 3758POPC   C4A48822  12.844   2.767   7.364
 3758POPC   C1B48823  12.779   3.035   6.464
 3758POPC   C2B48824  12.772   3.039   6.764
 3758POPC   C3B48825  12.749   3.000   7.064
 3758POPC   C4B48826  12.781   2.992   7.364
 3759POPC   NC348827  33.754   6.635   5.564
 3759POPC   PO448828  33.846   6.682   5.864
 3759POPC   GL148829  33.775   6.684   6.164
 3759POPC   GL248830  33.957   6.685   6.164
 3759POPC   C1A48831  33.823   6.691   6.464
 3759POPC   D2A48832  33.837   6.678   6.764
 3759POPC   C3A48833  33.775   6.672   7.064
 3759POPC   C4A48834  33.787   6.683   7.364
 3759POPC   C1B48835  34.035   6.707   6.464
 3759POPC   C2B48836  33.999   6.724   6.764
 3759POPC   C3B48837  34.074   6.770   7.064
 3759POPC   C4B48838  34.020   6.702   7.364
 3760POPC   NC348839  26.064  34.573   5.564
 3760POPC   PO448840  26.049  34.528   5.864
 3760POPC   GL148841  26.057  34.568   6.164
 3760POPC   GL248842  26.161  34.504   6.164
 3760POPC   C1A48843  26.043  34.544   6.464
 3760POPC   D2A48844  26.006  34.588   6.764
 3760POPC   C3A48845  25.995  34.573   7.064
 3760POPC   C4A48846  26.078  34.581   7.364
 3760POPC   C1B48847  26.196  34.391   6.464
 3760POPC   C2B48848  26.199  34.426   6.764
 3760POPC   C3B48849  26.257  34.436   7.064
 3760POPC   C4B48850  26.220  34.436   7.364
 3761POPC   NC348851   6.606  43.135   5.564
 3761POPC   PO448852   6.639  43.096   5.864
 3761POPC   GL148853   6.681  43.156   6.164
 3761POPC   GL248854   6.738  43.237   6.164
 3761POPC   C1A48855   6.624  43.115   6.464
 3761POPC   D2A48856   6.641  43.093   6.764
 3761POPC   C3A48857   6.636  43.126   7.064
 3761POPC   C4A48858   6.610  43.111   7.364
 3761POPC   C1B48859   6.791  43.313   6.464
 3761POPC   C2B48860   6.846  43.300   6.764
 3761POPC   C3B48861   6.827  43.313   7.064
 3761POPC   C4B48862   6.791  43.257   7.364
 3762POPC   NC348863  40.771  43.065   5.564
 3762POPC   PO448864  40.823  43.140   5.864
 3762POPC   GL148865  40.805  43.123   6.164
 3762POPC   GL248866  40.920  43.182   6.164
 3762POPC   C1A48867  40.760  43.095   6.464
 3762POPC   D2A48868  40.747  43.149   6.764
 3762POPC   C3A48869  40.785  43.141   7.064
 3762POPC   C4A48870  40.758  43.095   7.364
 3762POPC   C1B48871  40.928  43.242   6.464
 3762POPC   C2B48872  40.952  43.294   6.764
 3762POPC   C3B48873  40.999  43.242   7.064
 3762POPC   C4B48874  40.938  43.286   7.364
 3763POPC   NC348875  10.485   5.072   5.564
 3763POPC   PO448876  10.506   5.071   5.864
 3763POPC   GL148877  10.484   5.098   6.164
 3763POPC   GL248878  10.636   5.041   6.164
 3763POPC   C1A48879  10.522   5.136   6.464
 3763POPC   D2A48880  10.483   5.099   6.764
 3763POPC   C3A48881  10.555   5.099   7.064
 3763POPC   C4A48882  10.546   5.078   7.364
 3763POPC   C1B48883  10.682   4.906   6.464
 3763POPC   C2B48884  10.723   4.843   6.764
 3763POPC   C3B48885  10.636   4.932   7.064
 3763POPC   C4B48886  10.684   4.920   7.364
 3764POPC   NC348887  39.967   5.823   5.564
 3764POPC   PO448888  39.967   5.880   5.864
 3764POPC   GL148889  39.981   5.864   6.164
 3764POPC   GL248890  39.872   5.866   6.164
 3764POPC   C1A48891  40.038   5.883   6.464
 3764POPC   D2A48892  39.997   5.909   6.764
 3764POPC   C3A48893  39.976   5.906   7.064
 3764POPC   C4A48894  39.959   5.889   7.364
 3764POPC   C1B48895  39.775   5.973   6.464
 3764POPC   C2B48896  39.760   5.930   6.764
 3764POPC   C3B48897  39.734   5.952   7.064
 3764POPC   C4B48898  39.784   5.944   7.364
 3765POPC   NC348899  36.163   5.876   5.564
 3765POPC   PO448900  36.124   5.874   5.864
 3765POPC   GL148901  36.092   5.854   6.164
 3765POPC   GL248902  36.299   5.865   6.164
 3765POPC   C1A48903  36.145   5.822   6.464
 3765POPC   D2A48904  36.124   5.865   6.764
 3765POPC   C3A48905  36.110   5.900   7.064
 3765POPC   C4A48906  36.112   5.861   7.364
 3765POPC   C1B48907  36.339   5.873   6.464
 3765POPC   C2B48908  36.382   5.834   6.764
 3765POPC   C3B48909  36.335   5.822   7.064
 3765POPC   C4B48910  36.361   5.846   7.364
 3766POPC   NC348911  16.775  29.951   5.564
 3766POPC   PO448912  16.685  29.932   5.864
 3766POPC   GL148913  16.696  29.965   6.164
 3766POPC   GL248914  16.736  29.796   6.164
 3766POPC   C1A48915  16.771  29.914   6.464
 3766POPC   D2A48916  16.739  29.886   6.764
 3766POPC   C3A48917  16.780  29.938   7.064
 3766POPC   C4A48918  16.737  29.952   7.364
 3766POPC   C1B48919  16.681  29.714   6.464
 3766POPC   C2B48920  16.747  29.708   6.764
 3766POPC   C3B48921  16.751  29.646   7.064
 3766POPC   C4B48922  16.687  29.696   7.364
 3767POPC   NC348923  39.219  43.121   5.564
 3767POPC   PO448924  39.205  43.069   5.864
 3767POPC   GL148925  39.267  43.089   6.164
 3767POPC   GL248926  39.301  42.965   6.164
 3767POPC   C1A48927  39.258  43.150   6.464
 3767POPC   D2A48928  39.212  43.099   6.764
 3767POPC   C3A48929  39.256  43.073   7.064
 3767POPC   C4A48930  39.267  43.111   7.364
 3767POPC   C1B48931  39.362  42.897   6.464
 3767POPC   C2B48932  39.407  42.875   6.764
 3767POPC   C3B48933  39.362  42.900   7.064
 3767POPC   C4B48934  39.354  42.904   7.364
 3768POPC   NC348935  27.634  15.964   5.564
 3768POPC   PO448936  27.617  15.967   5.864
 3768POPC   GL148937  27.557  15.922   6.164
 3768POPC   GL248938  27.603  15.841   6.164
 3768POPC   C1A48939  27.614  15.930   6.464
 3768POPC   D2A48940  27.558  15.987   6.764
 3768POPC   C3A48941  27.608  15.938   7.064
 3768POPC   C4A48942  27.582  15.954   7.364
 3768POPC   C1B48943  27.723  15.726   6.464
 3768POPC   C2B48944  27.751  15.740   6.764
 3768POPC   C3B48945  27.690  15.723   7.064
 3768POPC   C4B48946  27.733  15.708   7.364
 3769POPC   NC348947  27.639  31.512   5.564
 3769POPC   PO448948  27.561  31.483   5.864
 3769POPC   GL148949  27.602  31.513   6.164
 3769POPC   GL248950  27.701  31.439   6.164
 3769POPC   C1A48951  27.624  31.495   6.464
 3769POPC   D2A48952  27.615  31.440   6.764
 3769POPC   C3A48953  27.569  31.478   7.064
 3769POPC   C4A48954  27.617  31.434   7.364
 3769POPC   C1B48955  27.867  31.416   6.464
 3769POPC   C2B48956  27.872  31.402   6.764
 3769POPC   C3B48957  27.785  31.443   7.064
 3769POPC   C4B48958  27.880  31.414   7.364
 3770POPC   NC348959  17.482   9.770   5.564
 3770POPC   PO448960  17.491   9.777   5.864
 3770POPC   GL148961  17.525   9.699   6.164
 3770POPC   GL248962  17.353   9.659   6.164
 3770POPC   C1A48963  17.494   9.792   6.464
 3770POPC   D2A48964  17.536   9.742   6.764
 3770POPC   C3A48965  17.497   9.797   7.064
 3770POPC   C4A48966  17.537   9.770   7.364
 3770POPC   C1B48967  17.316   9.661   6.464
 3770POPC   C2B48968  17.313   9.611   6.764
 3770POPC   C3B48969  17.325   9.583   7.064
 3770POPC   C4B48970  17.242   9.600   7.364
 3771POPC   NC348971  28.397   5.822   5.564
 3771POPC   PO448972  28.368   5.855   5.864
 3771POPC   GL148973  28.356   5.880   6.164
 3771POPC   GL248974  28.266   5.817   6.164
 3771POPC   C1A48975  28.374   5.890   6.464
 3771POPC   D2A48976  28.347   5.842   6.764
 3771POPC   C3A48977  28.414   5.856   7.064
 3771POPC   C4A48978  28.379   5.882   7.364
 3771POPC   C1B48979  28.236   5.683   6.464
 3771POPC   C2B48980  28.170   5.720   6.764
 3771POPC   C3B48981  28.175   5.648   7.064
 3771POPC   C4B48982  28.173   5.677   7.364
 3772POPC   NC348983   8.237  10.528   5.564
 3772POPC   PO448984   8.212  10.561   5.864
 3772POPC   GL148985   8.208  10.514   6.164
 3772POPC   GL248986   8.258  10.647   6.164
 3772POPC   C1A48987   8.162  10.573   6.464
 3772POPC   D2A48988   8.214  10.523   6.764
 3772POPC   C3A48989   8.211  10.502   7.064
 3772POPC   C4A48990   8.239  10.537   7.364
 3772POPC   C1B48991   8.309  10.684   6.464
 3772POPC   C2B48992   8.339  10.698   6.764
 3772POPC   C3B48993   8.370  10.738   7.064
 3772POPC   C4B48994   8.382  10.724   7.364
 3773POPC   NC348995  19.803  19.035   5.564
 3773POPC   PO448996  19.820  19.032   5.864
 3773POPC   GL148997  19.842  19.012   6.164
 3773POPC   GL248998  19.828  18.886   6.164
 3773POPC   C1A48999  19.792  19.032   6.464
 3773POPC   D2A49000  19.827  19.023   6.764
 3773POPC   C3A49001  19.826  19.016   7.064
 3773POPC   C4A49002  19.796  19.107   7.364
 3773POPC   C1B49003  19.810  18.813   6.464
 3773POPC   C2B49004  19.845  18.769   6.764
 3773POPC   C3B49005  19.800  18.777   7.064
 3773POPC   C4B49006  19.844  18.817   7.364
 3774POPC   NC349007  40.742  33.818   5.564
 3774POPC   PO449008  40.749  33.841   5.864
 3774POPC   GL149009  40.761  33.770   6.164
 3774POPC   GL249010  40.864  33.682   6.164
 3774POPC   C1A49011  40.769  33.796   6.464
 3774POPC   D2A49012  40.833  33.788   6.764
 3774POPC   C3A49013  40.780  33.803   7.064
 3774POPC   C4A49014  40.798  33.763   7.364
 3774POPC   C1B49015  41.001  33.673   6.464
 3774POPC   C2B49016  40.919  33.609   6.764
 3774POPC   C3B49017  40.919  33.662   7.064
 3774POPC   C4B49018  40.956  33.650   7.364
 3775POPC   NC349019  32.987  19.803   5.564
 3775POPC   PO449020  32.990  19.860   5.864
 3775POPC   GL149021  33.025  19.827   6.164
 3775POPC   GL249022  33.081  19.867   6.164
 3775POPC   C1A49023  32.981  19.872   6.464
 3775POPC   D2A49024  33.044  19.865   6.764
 3775POPC   C3A49025  33.045  19.796   7.064
 3775POPC   C4A49026  32.986  19.851   7.364
 3775POPC   C1B49027  33.219  19.994   6.464
 3775POPC   C2B49028  33.208  19.952   6.764
 3775POPC   C3B49029  33.251  19.938   7.064
 3775POPC   C4B49030  33.213  19.964   7.364
 3776POPC   NC349031  30.658  38.466   5.564
 3776POPC   PO449032  30.679  38.424   5.864
 3776POPC   GL149033  30.724  38.414   6.164
 3776POPC   GL249034  30.865  38.452   6.164
 3776POPC   C1A49035  30.693  38.416   6.464
 3776POPC   D2A49036  30.679  38.451   6.764
 3776POPC   C3A49037  30.716  38.479   7.064
 3776POPC   C4A49038  30.664  38.473   7.364
 3776POPC   C1B49039  30.950  38.435   6.464
 3776POPC   C2B49040  30.975  38.520   6.764
 3776POPC   C3B49041  30.942  38.509   7.064
 3776POPC   C4B49042  30.988  38.514   7.364
 3777POPC   NC349043  13.605  16.682   5.564
 3777POPC   PO449044  13.590  16.755   5.864
 3777POPC   GL149045  13.615  16.747   6.164
 3777POPC   GL249046  13.590  16.823   6.164
 3777POPC   C1A49047  13.608  16.763   6.464
 3777POPC   D2A49048  13.672  16.718   6.764
 3777POPC   C3A49049  13.651  16.743   7.064
 3777POPC   C4A49050  13.628  16.750   7.364
 3777POPC   C1B49051  13.597  16.959   6.464
 3777POPC   C2B49052  13.637  17.023   6.764
 3777POPC   C3B49053  13.668  17.017   7.064
 3777POPC   C4B49054  13.685  16.936   7.364
 3778POPC   NC349055   5.066  36.946   5.564
 3778POPC   PO449056   5.066  36.922   5.864
 3778POPC   GL149057   5.109  36.929   6.164
 3778POPC   GL249058   5.073  37.061   6.164
 3778POPC   C1A49059   5.084  36.893   6.464
 3778POPC   D2A49060   5.092  36.881   6.764
 3778POPC   C3A49061   5.143  36.890   7.064
 3778POPC   C4A49062   5.048  36.916   7.364
 3778POPC   C1B49063   5.164  37.176   6.464
 3778POPC   C2B49064   5.156  37.147   6.764
 3778POPC   C3B49065   5.149  37.102   7.064
 3778POPC   C4B49066   5.197  37.108   7.364
 3779POPC   NC349067  18.242  38.481   5.564
 3779POPC   PO449068  18.267  38.472   5.864
 3779POPC   GL149069  18.245  38.410   6.164
 3779POPC   GL249070  18.195  38.432   6.164
 3779POPC   C1A49071  18.301  38.415   6.464
 3779POPC   D2A49072  18.233  38.472   6.764
 3779POPC   C3A49073  18.298  38.487   7.064
 3779POPC   C4A49074  18.323  38.459   7.364
 3779POPC   C1B49075  18.066  38.428   6.464
 3779POPC   C2B49076  18.058  38.448   6.764
 3779POPC   C3B49077  18.080  38.465   7.064
 3779POPC   C4B49078  18.043  38.463   7.364
 3780POPC   NC349079   8.976   8.221   5.564
 3780POPC   PO449080   8.960   8.178   5.864
 3780POPC   GL149081   8.947   8.192   6.164
 3780POPC   GL249082   8.966   8.311   6.164
 3780POPC   C1A49083   8.940   8.154   6.464
 3780POPC   D2A49084   9.010   8.216   6.764
 3780POPC   C3A49085   8.953   8.154   7.064
 3780POPC   C4A49086   8.948   8.154   7.364
 3780POPC   C1B49087   9.080   8.405   6.464
 3780POPC   C2B49088   9.034   8.475   6.764
 3780POPC   C3B49089   9.036   8.390   7.064
 3780POPC   C4B49090   9.039   8.455   7.364
 3781POPC   NC349091  33.033  40.752   5.564
 3781POPC   PO449092  32.989  40.756   5.864
 3781POPC   GL149093  33.021  40.780   6.164
 3781POPC   GL249094  32.886  40.847   6.164
 3781POPC   C1A49095  33.003  40.810   6.464
 3781POPC   D2A49096  33.059  40.799   6.764
 3781POPC   C3A49097  33.044  40.794   7.064
 3781POPC   C4A49098  33.060  40.760   7.364
 3781POPC   C1B49099  32.809  40.872   6.464
 3781POPC   C2B49100  32.791  40.886   6.764
 3781POPC   C3B49101  32.779  40.881   7.064
 3781POPC   C4B49102  32.814  40.805   7.364
 3782POPC   NC349103   6.642  19.040   5.564
 3782POPC   PO449104   6.661  19.056   5.864
 3782POPC   GL149105   6.619  19.086   6.164
 3782POPC   GL249106   6.584  19.220   6.164
 3782POPC   C1A49107   6.643  19.083   6.464
 3782POPC   D2A49108   6.632  19.013   6.764
 3782POPC   C3A49109   6.617  19.080   7.064
 3782POPC   C4A49110   6.604  19.078   7.364
 3782POPC   C1B49111   6.588  19.292   6.464
 3782POPC   C2B49112   6.520  19.278   6.764
 3782POPC   C3B49113   6.499  19.299   7.064
 3782POPC   C4B49114   6.544  19.320   7.364
 3783POPC   NC349115  29.107  34.589   5.564
 3783POPC   PO449116  29.129  34.559   5.864
 3783POPC   GL149117  29.184  34.596   6.164
 3783POPC   GL249118  29.307  34.496   6.164
 3783POPC   C1A49119  29.143  34.538   6.464
 3783POPC   D2A49120  29.125  34.595   6.764
 3783POPC   C3A49121  29.098  34.576   7.064
 3783POPC   C4A49122  29.164  34.572   7.364
 3783POPC   C1B49123  29.388  34.468   6.464
 3783POPC   C2B49124  29.378  34.506   6.764
 3783POPC   C3B49125  29.327  34.435   7.064
 3783POPC   C4B49126  29.388  34.495   7.364
 3784POPC   NC349127  29.887  18.238   5.564
 3784POPC   PO449128  29.960  18.255   5.864
 3784POPC   GL149129  29.923  18.256   6.164
 3784POPC   GL249130  29.806  18.151   6.164
 3784POPC   C1A49131  29.885  18.308   6.464
 3784POPC   D2A49132  29.952  18.321   6.764
 3784POPC   C3A49133  29.902  18.317   7.064
 3784POPC   C4A49134  29.920  18.266   7.364
 3784POPC   C1B49135  29.777  18.131   6.464
 3784POPC   C2B49136  29.719  18.078   6.764
 3784POPC   C3B49137  29.788  18.059   7.064
 3784POPC   C4B49138  29.716  18.118   7.364
 3785POPC   NC349139  29.942  19.854   5.564
 3785POPC   PO449140  29.880  19.802   5.864
 3785POPC   GL149141  29.938  19.800   6.164
 3785POPC   GL249142  30.074  19.836   6.164
 3785POPC   C1A49143  29.880  19.860   6.464
 3785POPC   D2A49144  29.928  19.792   6.764
 3785POPC   C3A49145  29.919  19.804   7.064
 3785POPC   C4A49146  29.937  19.809   7.364
 3785POPC   C1B49147  30.151  19.942   6.464
 3785POPC   C2B49148  30.145  19.870   6.764
 3785POPC   C3B49149  30.155  19.892   7.064
 3785POPC   C4B49150  30.112  19.880   7.364
 3786POPC   NC349151  42.346  41.584   5.564
 3786POPC   PO449152  42.329  41.522   5.864
 3786POPC   GL149153  42.312  41.520   6.164
 3786POPC   GL249154  42.213  41.669   6.164
 3786POPC   C1A49155  42.349  41.537   6.464
 3786POPC   D2A49156  42.341  41.562   6.764
 3786POPC   C3A49157  42.329  41.574   7.064
 3786POPC   C4A49158  42.300  41.541   7.364
 3786POPC   C1B49159  42.145  41.679   6.464
 3786POPC   C2B49160  42.102  41.676   6.764
 3786POPC   C3B49161  42.167  41.688   7.064
 3786POPC   C4B49162  42.184  41.744   7.364
 3787POPC   NC349163  38.475  23.762   5.564
 3787POPC   PO449164  38.425  23.694   5.864
 3787POPC   GL149165  38.458  23.705   6.164
 3787POPC   GL249166  38.539  23.782   6.164
 3787POPC   C1A49167  38.478  23.686   6.464
 3787POPC   D2A49168  38.418  23.689   6.764
 3787POPC   C3A49169  38.429  23.696   7.064
 3787POPC   C4A49170  38.497  23.695   7.364
 3787POPC   C1B49171  38.656  23.839   6.464
 3787POPC   C2B49172  38.612  23.823   6.764
 3787POPC   C3B49173  38.691  23.838   7.064
 3787POPC   C4B49174  38.672  23.898   7.364
 3788POPC   NC349175  41.528  36.870   5.564
 3788POPC   PO449176  41.571  36.899   5.864
 3788POPC   GL149177  41.553  36.902   6.164
 3788POPC   GL249178  41.635  36.875   6.164
 3788POPC   C1A49179  41.598  36.860   6.464
 3788POPC   D2A49180  41.549  36.859   6.764
 3788POPC   C3A49181  41.584  36.928   7.064
 3788POPC   C4A49182  41.560  36.926   7.364
 3788POPC   C1B49183  41.825  36.784   6.464
 3788POPC   C2B49184  41.797  36.781   6.764
 3788POPC   C3B49185  41.784  36.850   7.064
 3788POPC   C4B49186  41.835  36.782   7.364
 3789POPC   NC349187  43.871   5.858   5.564
 3789POPC   PO449188  43.877   5.911   5.864
 3789POPC   GL149189  43.880   5.915   6.164
 3789POPC   GL249190  43.786   5.840   6.164
 3789POPC   C1A49191  43.848   5.844   6.464
 3789POPC   D2A49192  43.915   5.907   6.764
 3789POPC   C3A49193  43.868   5.915   7.064
 3789POPC   C4A49194  43.842   5.883   7.364
 3789POPC   C1B49195  43.660   5.786   6.464
 3789POPC   C2B49196  43.618   5.765   6.764
 3789POPC   C3B49197  43.691   5.802   7.064
 3789POPC   C4B49198  43.625   5.728   7.364
 3790POPC   NC349199  31.487  29.953   5.564
 3790POPC   PO449200  31.431  29.872   5.864
 3790POPC   GL149201  31.424  29.956   6.164
 3790POPC   GL249202  31.470  29.772   6.164
 3790POPC   C1A49203  31.486  29.878   6.464
 3790POPC   D2A49204  31.430  29.917   6.764
 3790POPC   C3A49205  31.495  29.929   7.064
 3790POPC   C4A49206  31.488  29.891   7.364
 3790POPC   C1B49207  31.401  29.646   6.464
 3790POPC   C2B49208  31.429  29.719   6.764
 3790POPC   C3B49209  31.442  29.641   7.064
 3790POPC   C4B49210  31.384  29.668   7.364
 3791POPC   NC349211  19.035  16.775   5.564
 3791POPC   PO449212  19.044  16.751   5.864
 3791POPC   GL149213  19.019  16.755   6.164
 3791POPC   GL249214  19.173  16.620   6.164
 3791POPC   C1A49215  19.095  16.762   6.464
 3791POPC   D2A49216  19.032  16.754   6.764
 3791POPC   C3A49217  19.063  16.702   7.064
 3791POPC   C4A49218  19.076  16.776   7.364
 3791POPC   C1B49219  19.259  16.602   6.464
 3791POPC   C2B49220  19.289  16.515   6.764
 3791POPC   C3B49221  19.289  16.519   7.064
 3791POPC   C4B49222  19.271  16.550   7.364
 3792POPC   NC349223   8.950  34.604   5.564
 3792POPC   PO449224   8.951  34.576   5.864
 3792POPC   GL149225   8.928  34.597   6.164
 3792POPC   GL249226   9.074  34.537   6.164
 3792POPC   C1A49227   8.982  34.607   6.464
 3792POPC   D2A49228   8.947  34.562   6.764
 3792POPC   C3A49229   8.975  34.597   7.064
 3792POPC   C4A49230   8.972  34.575   7.364
 3792POPC   C1B49231   9.251  34.449   6.464
 3792POPC   C2B49232   9.220  34.536   6.764
 3792POPC   C3B49233   9.222  34.500   7.064
 3792POPC   C4B49234   9.209  34.471   7.364
 3793POPC   NC349235   1.241  21.382   5.564
 3793POPC   PO449236   1.178  21.345   5.864
 3793POPC   GL149237   1.257  21.363   6.164
 3793POPC   GL249238   1.293  21.343   6.164
 3793POPC   C1A49239   1.221  21.350   6.464
 3793POPC   D2A49240   1.210  21.351   6.764
 3793POPC   C3A49241   1.248  21.409   7.064
 3793POPC   C4A49242   1.263  21.383   7.364
 3793POPC   C1B49243   1.445  21.339   6.464
 3793POPC   C2B49244   1.400  21.296   6.764
 3793POPC   C3B49245   1.471  21.339   7.064
 3793POPC   C4B49246   1.463  21.289   7.364
 3794POPC   NC349247  13.652  32.223   5.564
 3794POPC   PO449248  13.593  32.297   5.864
 3794POPC   GL149249  13.597  32.261   6.164
 3794POPC   GL249250  13.655  32.413   6.164
 3794POPC   C1A49251  13.614  32.210   6.464
 3794POPC   D2A49252  13.669  32.291   6.764
 3794POPC   C3A49253  13.621  32.217   7.064
 3794POPC   C4A49254  13.617  32.247   7.364
 3794POPC   C1B49255  13.632  32.495   6.464
 3794POPC   C2B49256  13.551  32.510   6.764
 3794POPC   C3B49257  13.627  32.517   7.064
 3794POPC   C4B49258  13.580  32.455   7.364
 3795POPC   NC349259   9.765  22.122   5.564
 3795POPC   PO449260   9.735  22.186   5.864
 3795POPC   GL149261   9.731  22.169   6.164
 3795POPC   GL249262   9.841  22.138   6.164
 3795POPC   C1A49263   9.736  22.139   6.464
 3795POPC   D2A49264   9.769  22.120   6.764
 3795POPC   C3A49265   9.709  22.200   7.064
 3795POPC   C4A49266   9.704  22.116   7.364
 3795POPC   C1B49267   9.949  22.080   6.464
 3795POPC   C2B49268   9.966  22.010   6.764
 3795POPC   C3B49269  10.011  22.016   7.064
 3795POPC   C4B49270   9.952  21.990   7.364
 3796POPC   NC349271  44.639  31.431   5.564
 3796POPC   PO449272  44.681  31.423   5.864
 3796POPC   GL149273  44.616  31.445   6.164
 3796POPC   GL249274  44.611  31.613   6.164
 3796POPC   C1A49275  44.617  31.443   6.464
 3796POPC   D2A49276  44.656  31.464   6.764
 3796POPC   C3A49277  44.615  31.444   7.064
 3796POPC   C4A49278  44.629  31.433   7.364
 3796POPC   C1B49279  44.526  31.677   6.464
 3796POPC   C2B49280  44.562  31.696   6.764
 3796POPC   C3B49281  44.561  31.660   7.064
 3796POPC   C4B49282  44.535  31.740   7.364
 3797POPC   NC349283   9.747  34.617   5.564
 3797POPC   PO449284   9.757  34.548   5.864
 3797POPC   GL149285   9.796  34.620   6.164
 3797POPC   GL249286   9.754  34.422   6.164
 3797POPC   C1A49287   9.765  34.574   6.464
 3797POPC   D2A49288   9.798  34.597   6.764
 3797POPC   C3A49289   9.708  34.604   7.064
 3797POPC   C4A49290   9.743  34.538   7.364
 3797POPC   C1B49291   9.632  34.384   6.464
 3797POPC   C2B49292   9.648  34.293   6.764
 3797POPC   C3B49293   9.624  34.375   7.064
 3797POPC   C4B49294   9.673  34.387   7.364
 3798POPC   NC349295  13.591  29.889   5.564
 3798POPC   PO449296  13.614  29.890   5.864
 3798POPC   GL149297  13.620  29.923   6.164
 3798POPC   GL249298  13.732  29.863   6.164
 3798POPC   C1A49299  13.619  29.935   6.464
 3798POPC   D2A49300  13.606  29.937   6.764
 3798POPC   C3A49301  13.649  29.914   7.064
 3798POPC   C4A49302  13.641  29.877   7.364
 3798POPC   C1B49303  13.783  29.806   6.464
 3798POPC   C2B49304  13.807  29.712   6.764
 3798POPC   C3B49305  13.819  29.760   7.064
 3798POPC   C4B49306  13.853  29.739   7.364
 3799POPC   NC349307  27.571  13.660   5.564
 3799POPC   PO449308  27.599  13.657   5.864
 3799POPC   GL149309  27.628  13.607   6.164
 3799POPC   GL249310  27.612  13.497   6.164
 3799POPC   C1A49311  27.627  13.581   6.464
 3799POPC   D2A49312  27.547  13.674   6.764
 3799POPC   C3A49313  27.598  13.671   7.064
 3799POPC   C4A49314  27.642  13.627   7.364
 3799POPC   C1B49315  27.598  13.418   6.464
 3799POPC   C2B49316  27.543  13.365   6.764
 3799POPC   C3B49317  27.598  13.338   7.064
 3799POPC   C4B49318  27.621  13.398   7.364
 3800POPC   NC349319  44.677  16.703   5.564
 3800POPC   PO449320  44.686  16.767   5.864
 3800POPC   GL149321  44.664  16.776   6.164
 3800POPC   GL249322  44.625  16.578   6.164
 3800POPC   C1A49323  44.619  16.719   6.464
 3800POPC   D2A49324  44.669  16.769   6.764
 3800POPC   C3A49325  44.634  16.743   7.064
 3800POPC   C4A49326  44.634  16.731   7.364
 3800POPC   C1B49327  44.578  16.550   6.464
 3800POPC   C2B49328  44.585  16.503   6.764
 3800POPC   C3B49329  44.588  16.465   7.064
 3800POPC   C4B49330  44.503  16.524   7.364
 3801POPC   NC349331  19.826  28.408   5.564
 3801POPC   PO449332  19.793  28.369   5.864
 3801POPC   GL149333  19.833  28.366   6.164
 3801POPC   GL249334  19.964  28.293   6.164
 3801POPC   C1A49335  19.856  28.357   6.464
 3801POPC   D2A49336  19.822  28.342   6.764
 3801POPC   C3A49337  19.811  28.366   7.064
 3801POPC   C4A49338  19.798  28.352   7.364
 3801POPC   C1B49339  20.063  28.290   6.464
 3801POPC   C2B49340  20.047  28.288   6.764
 3801POPC   C3B49341  20.046  28.279   7.064
 3801POPC   C4B49342  20.070  28.214   7.364
 3802POPC   NC349343   8.199   3.560   5.564
 3802POPC   PO449344   8.228   3.493   5.864
 3802POPC   GL149345   8.174   3.576   6.164
 3802POPC   GL249346   8.064   3.494   6.164
 3802POPC   C1A49347   8.154   3.536   6.464
 3802POPC   D2A49348   8.238   3.582   6.764
 3802POPC   C3A49349   8.217   3.556   7.064
 3802POPC   C4A49350   8.244   3.506   7.364
 3802POPC   C1B49351   8.013   3.398   6.464
 3802POPC   C2B49352   7.957   3.350   6.764
 3802POPC   C3B49353   7.989   3.340   7.064
 3802POPC   C4B49354   8.048   3.383   7.364
 3803POPC   NC349355  20.587  19.010   5.564
 3803POPC   PO449356  20.659  19.096   5.864
 3803POPC   GL149357  20.647  19.068   6.164
 3803POPC   GL249358  20.512  18.957   6.164
 3803POPC   C1A49359  20.603  19.087   6.464
 3803POPC   D2A49360  20.624  19.034   6.764
 3803POPC   C3A49361  20.573  19.078   7.064
 3803POPC   C4A49362  20.562  19.083   7.364
 3803POPC   C1B49363  20.505  18.806   6.464
 3803POPC   C2B49364  20.460  18.822   6.764
 3803POPC   C3B49365  20.445  18.830   7.064
 3803POPC   C4B49366  20.436  18.882   7.364
 3804POPC   NC349367  34.570  32.251   5.564
 3804POPC   PO449368  34.540  32.269   5.864
 3804POPC   GL149369  34.586  32.294   6.164
 3804POPC   GL249370  34.433  32.190   6.164
 3804POPC   C1A49371  34.580  32.262   6.464
 3804POPC   D2A49372  34.533  32.213   6.764
 3804POPC   C3A49373  34.546  32.257   7.064
 3804POPC   C4A49374  34.532  32.225   7.364
 3804POPC   C1B49375  34.369  32.247   6.464
 3804POPC   C2B49376  34.363  32.246   6.764
 3804POPC   C3B49377  34.307  32.181   7.064
 3804POPC   C4B49378  34.319  32.253   7.364
 3805POPC   NC349379  25.308  12.123   5.564
 3805POPC   PO449380  25.271  12.028   5.864
 3805POPC   GL149381  25.297  12.092   6.164
 3805POPC   GL249382  25.136  12.027   6.164
 3805POPC   C1A49383  25.230  12.053   6.464
 3805POPC   D2A49384  25.258  12.113   6.764
 3805POPC   C3A49385  25.253  12.062   7.064
 3805POPC   C4A49386  25.289  12.059   7.364
 3805POPC   C1B49387  25.013  12.021   6.464
 3805POPC   C2B49388  25.041  11.963   6.764
 3805POPC   C3B49389  25.038  11.981   7.064
 3805POPC   C4B49390  25.019  11.962   7.364
 3806POPC   NC349391   4.333  35.332   5.564
 3806POPC   PO449392   4.346  35.393   5.864
 3806POPC   GL149393   4.359  35.366   6.164
 3806POPC   GL249394   4.405  35.355   6.164
 3806POPC   C1A49395   4.300  35.343   6.464
 3806POPC   D2A49396   4.274  35.397   6.764
 3806POPC   C3A49397   4.329  35.382   7.064
 3806POPC   C4A49398   4.320  35.365   7.364
 3806POPC   C1B49399   4.567  35.301   6.464
 3806POPC   C2B49400   4.584  35.300   6.764
 3806POPC   C3B49401   4.580  35.308   7.064
 3806POPC   C4B49402   4.604  35.287   7.364
 3807POPC   NC349403  40.754   2.035   5.564
 3807POPC   PO449404  40.784   2.009   5.864
 3807POPC   GL149405  40.803   2.025   6.164
 3807POPC   GL249406  40.844   1.891   6.164
 3807POPC   C1A49407  40.826   1.955   6.464
 3807POPC   D2A49408  40.784   1.963   6.764
 3807POPC   C3A49409  40.831   1.984   7.064
 3807POPC   C4A49410  40.806   2.015   7.364
 3807POPC   C1B49411  41.010   1.885   6.464
 3807POPC   C2B49412  40.991   1.919   6.764
 3807POPC   C3B49413  40.971   1.845   7.064
 3807POPC   C4B49414  40.981   1.857   7.364
 3808POPC   NC349415  43.865  16.715   5.564
 3808POPC   PO449416  43.858  16.711   5.864
 3808POPC   GL149417  43.917  16.779   6.164
 3808POPC   GL249418  44.030  16.777   6.164
 3808POPC   C1A49419  43.932  16.735   6.464
 3808POPC   D2A49420  43.936  16.768   6.764
 3808POPC   C3A49421  43.908  16.780   7.064
 3808POPC   C4A49422  43.876  16.723   7.364
 3808POPC   C1B49423  44.143  16.703   6.464
 3808POPC   C2B49424  44.093  16.723   6.764
 3808POPC   C3B49425  44.135  16.762   7.064
 3808POPC   C4B49426  44.127  16.766   7.364
 3809POPC   NC349427  26.767  24.443   5.564
 3809POPC   PO449428  26.838  24.518   5.864
 3809POPC   GL149429  26.815  24.534   6.164
 3809POPC   GL249430  26.938  24.472   6.164
 3809POPC   C1A49431  26.798  24.506   6.464
 3809POPC   D2A49432  26.780  24.520   6.764
 3809POPC   C3A49433  26.866  24.492   7.064
 3809POPC   C4A49434  26.838  24.499   7.364
 3809POPC   C1B49435  27.057  24.394   6.464
 3809POPC   C2B49436  27.044  24.335   6.764
 3809POPC   C3B49437  26.994  24.366   7.064
 3809POPC   C4B49438  26.988  24.356   7.364
 3810POPC   NC349439  12.047   5.069   5.564
 3810POPC   PO449440  12.066   5.102   5.864
 3810POPC   GL149441  12.061   5.129   6.164
 3810POPC   GL249442  12.117   5.217   6.164
 3810POPC   C1A49443  12.096   5.121   6.464
 3810POPC   D2A49444  12.108   5.082   6.764
 3810POPC   C3A49445  12.104   5.122   7.064
 3810POPC   C4A49446  12.030   5.049   7.364
 3810POPC   C1B49447  12.196   5.293   6.464
 3810POPC   C2B49448  12.167   5.280   6.764
 3810POPC   C3B49449  12.163   5.343   7.064
 3810POPC   C4B49450  12.194   5.291   7.364
 3811POPC   NC349451  20.657  41.566   5.564
 3811POPC   PO449452  20.568  41.554   5.864
 3811POPC   GL149453  20.644  41.585   6.164
 3811POPC   GL249454  20.689  41.454   6.164
 3811POPC   C1A49455  20.593  41.522   6.464
 3811POPC   D2A49456  20.561  41.546   6.764
 3811POPC   C3A49457  20.646  41.563   7.064
 3811POPC   C4A49458  20.601  41.515   7.364
 3811POPC   C1B49459  20.786  41.348   6.464
 3811POPC   C2B49460  20.799  41.344   6.764
 3811POPC   C3B49461  20.762  41.406   7.064
 3811POPC   C4B49462  20.738  41.337   7.364
 3812POPC   NC349463  14.370  15.917   5.564
 3812POPC   PO449464  14.376  15.939   5.864
 3812POPC   GL149465  14.406  15.961   6.164
 3812POPC   GL249466  14.296  15.862   6.164
 3812POPC   C1A49467  14.390  15.962   6.464
 3812POPC   D2A49468  14.378  15.999   6.764
 3812POPC   C3A49469  14.387  15.909   7.064
 3812POPC   C4A49470  14.434  15.930   7.364
 3812POPC   C1B49471  14.159  15.810   6.464
 3812POPC   C2B49472  14.145  15.851   6.764
 3812POPC   C3B49473  14.144  15.820   7.064
 3812POPC   C4B49474  14.131  15.875   7.364
 3813POPC   NC349475   8.189  36.922   5.564
 3813POPC   PO449476   8.160  36.949   5.864
 3813POPC   GL149477   8.190  36.950   6.164
 3813POPC   GL249478   8.071  36.791   6.164
 3813POPC   C1A49479   8.185  36.858   6.464
 3813POPC   D2A49480   8.212  36.922   6.764
 3813POPC   C3A49481   8.209  36.881   7.064
 3813POPC   C4A49482   8.242  36.921   7.364
 3813POPC   C1B49483   8.073  36.698   6.464
 3813POPC   C2B49484   8.088  36.712   6.764
 3813POPC   C3B49485   8.037  36.681   7.064
 3813POPC   C4B49486   8.066  36.681   7.364
 3814POPC   NC349487  31.498  31.427   5.564
 3814POPC   PO449488  31.446  31.494   5.864
 3814POPC   GL149489  31.461  31.492   6.164
 3814POPC   GL249490  31.417  31.383   6.164
 3814POPC   C1A49491  31.461  31.517   6.464
 3814POPC   D2A49492  31.432  31.518   6.764
 3814POPC   C3A49493  31.440  31.458   7.064
 3814POPC   C4A49494  31.522  31.462   7.364
 3814POPC   C1B49495  31.373  31.241   6.464
 3814POPC   C2B49496  31.386  31.246   6.764
 3814POPC   C3B49497  31.378  31.282   7.064
 3814POPC   C4B49498  31.438  31.242   7.364
 3815POPC   NC349499  28.341  43.087   5.564
 3815POPC   PO449500  28.322  43.115   5.864
 3815POPC   GL149501  28.363  43.068   6.164
 3815POPC   GL249502  28.434  43.257   6.164
 3815POPC   C1A49503  28.373  43.119   6.464
 3815POPC   D2A49504  28.332  43.062   6.764
 3815POPC   C3A49505  28.379  43.119   7.064
 3815POPC   C4A49506  28.411  43.115   7.364
 3815POPC   C1B49507  28.484  43.306   6.464
 3815POPC   C2B49508  28.446  43.329   6.764
 3815POPC   C3B49509  28.477  43.330   7.064
 3815POPC   C4B49510  28.432  43.325   7.364
 3816POPC   NC349511  39.995  10.493   5.564
 3816POPC   PO449512  39.966  10.565   5.864
 3816POPC   GL149513  40.015  10.493   6.164
 3816POPC   GL249514  40.092  10.433   6.164
 3816POPC   C1A49515  40.004  10.492   6.464
 3816POPC   D2A49516  39.990  10.561   6.764
 3816POPC   C3A49517  39.974  10.504   7.064
 3816POPC   C4A49518  40.024  10.562   7.364
 3816POPC   C1B49519  40.251  10.330   6.464
 3816POPC   C2B49520  40.216  10.348   6.764
 3816POPC   C3B49521  40.230  10.403   7.064
 3816POPC   C4B49522  40.205  10.361   7.364
 3817POPC   NC349523   7.404  22.937   5.564
 3817POPC   PO449524   7.378  22.969   5.864
 3817POPC   GL149525   7.420  22.926   6.164
 3817POPC   GL249526   7.288  23.064   6.164
 3817POPC   C1A49527   7.409  22.985   6.464
 3817POPC   D2A49528   7.417  22.968   6.764
 3817POPC   C3A49529   7.419  22.961   7.064
 3817POPC   C4A49530   7.458  22.967   7.364
 3817POPC   C1B49531   7.221  23.073   6.464
 3817POPC   C2B49532   7.256  23.132   6.764
 3817POPC   C3B49533   7.222  23.138   7.064
 3817POPC   C4B49534   7.297  23.104   7.364
 3818POPC   NC349535  10.512  42.379   5.564
 3818POPC   PO449536  10.513  42.343   5.864
 3818POPC   GL149537  10.570  42.359   6.164
 3818POPC   GL249538  10.430  42.335   6.164
 3818POPC   C1A49539  10.492  42.350   6.464
 3818POPC   D2A49540  10.494  42.346   6.764
 3818POPC   C3A49541  10.542  42.309   7.064
 3818POPC   C4A49542  10.514  42.363   7.364
 3818POPC   C1B49543  10.247  42.279   6.464
 3818POPC   C2B49544  10.332  42.228   6.764
 3818POPC   C3B49545  10.258  42.223   7.064
 3818POPC   C4B49546  10.249  42.281   7.364
 3819POPC   NC349547  21.391  39.262   5.564
 3819POPC   PO449548  21.391  39.209   5.864
 3819POPC   GL149549  21.402  39.262   6.164
 3819POPC   GL249550  21.295  39.235   6.164
 3819POPC   C1A49551  21.357  39.212   6.464
 3819POPC   D2A49552  21.364  39.217   6.764
 3819POPC   C3A49553  21.378  39.204   7.064
 3819POPC   C4A49554  21.373  39.228   7.364
 3819POPC   C1B49555  21.183  39.234   6.464
 3819POPC   C2B49556  21.148  39.296   6.764
 3819POPC   C3B49557  21.187  39.261   7.064
 3819POPC   C4B49558  21.103  39.307   7.364
 3820POPC   NC349559  36.883  31.433   5.564
 3820POPC   PO449560  36.911  31.522   5.864
 3820POPC   GL149561  36.869  31.425   6.164
 3820POPC   GL249562  36.987  31.507   6.164
 3820POPC   C1A49563  36.905  31.439   6.464
 3820POPC   D2A49564  36.894  31.514   6.764
 3820POPC   C3A49565  36.941  31.520   7.064
 3820POPC   C4A49566  36.855  31.449   7.364
 3820POPC   C1B49567  37.101  31.637   6.464
 3820POPC   C2B49568  37.128  31.590   6.764
 3820POPC   C3B49569  37.094  31.568   7.064
 3820POPC   C4B49570  37.126  31.622   7.364
 3821POPC   NC349571  15.181  12.865   5.564
 3821POPC   PO449572  15.141  12.847   5.864
 3821POPC   GL149573  15.160  12.892   6.164
 3821POPC   GL249574  15.076  12.923   6.164
 3821POPC   C1A49575  15.172  12.856   6.464
 3821POPC   D2A49576  15.212  12.877   6.764
 3821POPC   C3A49577  15.138  12.808   7.064
 3821POPC   C4A49578  15.162  12.875   7.364
 3821POPC   C1B49579  15.043  13.108   6.464
 3821POPC   C2B49580  15.041  13.040   6.764
 3821POPC   C3B49581  15.023  13.030   7.064
 3821POPC   C4B49582  15.056  13.041   7.364
 3822POPC   NC349583  32.231  36.916   5.564
 3822POPC   PO449584  32.249  36.922   5.864
 3822POPC   GL149585  32.297  36.903   6.164
 3822POPC   GL249586  32.370  36.819   6.164
 3822POPC   C1A49587  32.286  36.886   6.464
 3822POPC   D2A49588  32.264  36.902   6.764
 3822POPC   C3A49589  32.289  36.868   7.064
 3822POPC   C4A49590  32.259  36.870   7.364
 3822POPC   C1B49591  32.431  36.806   6.464
 3822POPC   C2B49592  32.430  36.748   6.764
 3822POPC   C3B49593  32.478  36.734   7.064
 3822POPC   C4B49594  32.482  36.753   7.364
 3823POPC   NC349595  29.886  12.061   5.564
 3823POPC   PO449596  29.915  12.102   5.864
 3823POPC   GL149597  29.891  12.112   6.164
 3823POPC   GL249598  29.966  11.920   6.164
 3823POPC   C1A49599  29.899  12.101   6.464
 3823POPC   D2A49600  29.874  12.034   6.764
 3823POPC   C3A49601  29.897  12.072   7.064
 3823POPC   C4A49602  29.965  12.092   7.364
 3823POPC   C1B49603  30.028  11.870   6.464
 3823POPC   C2B49604  30.043  11.870   6.764
 3823POPC   C3B49605  30.060  11.880   7.064
 3823POPC   C4B49606  30.037  11.844   7.364
 3824POPC   NC349607  36.932   5.837   5.564
 3824POPC   PO449608  36.903   5.833   5.864
 3824POPC   GL149609  36.888   5.823   6.164
 3824POPC   GL249610  36.894   5.740   6.164
 3824POPC   C1A49611  36.863   5.839   6.464
 3824POPC   D2A49612  36.886   5.825   6.764
 3824POPC   C3A49613  36.926   5.874   7.064
 3824POPC   C4A49614  36.899   5.824   7.364
 3824POPC   C1B49615  36.934   5.665   6.464
 3824POPC   C2B49616  36.931   5.587   6.764
 3824POPC   C3B49617  36.897   5.598   7.064
 3824POPC   C4B49618  36.925   5.658   7.364
 3825POPC   NC349619   2.796  31.459   5.564
 3825POPC   PO449620   2.804  31.489   5.864
 3825POPC   GL149621   2.716  31.471   6.164
 3825POPC   GL249622   2.666  31.586   6.164
 3825POPC   C1A49623   2.760  31.501   6.464
 3825POPC   D2A49624   2.793  31.515   6.764
 3825POPC   C3A49625   2.755  31.504   7.064
 3825POPC   C4A49626   2.778  31.440   7.364
 3825POPC   C1B49627   2.636  31.690   6.464
 3825POPC   C2B49628   2.662  31.723   6.764
 3825POPC   C3B49629   2.679  31.703   7.064
 3825POPC   C4B49630   2.713  31.748   7.364
 3826POPC   NC349631  24.457  23.670   5.564
 3826POPC   PO449632  24.483  23.761   5.864
 3826POPC   GL149633  24.452  23.694   6.164
 3826POPC   GL249634  24.578  23.724   6.164
 3826POPC   C1A49635  24.533  23.707   6.464
 3826POPC   D2A49636  24.515  23.698   6.764
 3826POPC   C3A49637  24.498  23.736   7.064
 3826POPC   C4A49638  24.467  23.701   7.364
 3826POPC   C1B49639  24.739  23.700   6.464
 3826POPC   C2B49640  24.714  23.661   6.764
 3826POPC   C3B49641  24.731  23.641   7.064
 3826POPC   C4B49642  24.722  23.718   7.364
 3827POPC   NC349643  13.669  12.856   5.564
 3827POPC   PO449644  13.579  12.857   5.864
 3827POPC   GL149645  13.638  12.897   6.164
 3827POPC   GL249646  13.575  12.983   6.164
 3827POPC   C1A49647  13.658  12.864   6.464
 3827POPC   D2A49648  13.619  12.835   6.764
 3827POPC   C3A49649  13.580  12.891   7.064
 3827POPC   C4A49650  13.595  12.870   7.364
 3827POPC   C1B49651  13.480  13.016   6.464
 3827POPC   C2B49652  13.529  13.083   6.764
 3827POPC   C3B49653  13.463  13.048   7.064
 3827POPC   C4B49654  13.523  13.092   7.364
 3828POPC   NC349655  33.006   2.727   5.564
 3828POPC   PO449656  33.011   2.720   5.864
 3828POPC   GL149657  33.047   2.800   6.164
 3828POPC   GL249658  32.972   2.645   6.164
 3828POPC   C1A49659  33.015   2.783   6.464
 3828POPC   D2A49660  33.060   2.809   6.764
 3828POPC   C3A49661  32.985   2.772   7.064
 3828POPC   C4A49662  32.999   2.722   7.364
 3828POPC   C1B49663  32.944   2.513   6.464
 3828POPC   C2B49664  32.894   2.563   6.764
 3828POPC   C3B49665  32.983   2.502   7.064
 3828POPC   C4B49666  32.937   2.554   7.364
 3829POPC   NC349667  19.860  33.827   5.564
 3829POPC   PO449668  19.822  33.818   5.864
 3829POPC   GL149669  19.867  33.775   6.164
 3829POPC   GL249670  19.994  33.811   6.164
 3829POPC   C1A49671  19.827  33.816   6.464
 3829POPC   D2A49672  19.819  33.769   6.764
 3829POPC   C3A49673  19.812  33.789   7.064
 3829POPC   C4A49674  19.786  33.786   7.364
 3829POPC   C1B49675  20.083  33.709   6.464
 3829POPC   C2B49676  20.093  33.692   6.764
 3829POPC   C3B49677  20.071  33.750   7.064
 3829POPC   C4B49678  20.066  33.721   7.364
 3830POPC   NC349679  22.975   9.744   5.564
 3830POPC   PO449680  22.973   9.787   5.864
 3830POPC   GL149681  22.977   9.777   6.164
 3830POPC   GL249682  22.946   9.826   6.164
 3830POPC   C1A49683  22.903   9.704   6.464
 3830POPC   D2A49684  22.980   9.733   6.764
 3830POPC   C3A49685  22.947   9.762   7.064
 3830POPC   C4A49686  22.944   9.795   7.364
 3830POPC   C1B49687  22.957   9.977   6.464
 3830POPC   C2B49688  22.896   9.981   6.764
 3830POPC   C3B49689  22.913  10.009   7.064
 3830POPC   C4B49690  22.977  10.028   7.364
 3831POPC   NC349691   8.997  32.296   5.564
 3831POPC   PO449692   8.932  32.245   5.864
 3831POPC   GL149693   9.000  32.280   6.164
 3831POPC   GL249694   8.886  32.097   6.164
 3831POPC   C1A49695   8.966  32.249   6.464
 3831POPC   D2A49696   8.950  32.282   6.764
 3831POPC   C3A49697   8.960  32.199   7.064
 3831POPC   C4A49698   9.021  32.214   7.364
 3831POPC   C1B49699   8.841  32.025   6.464
 3831POPC   C2B49700   8.864  31.992   6.764
 3831POPC   C3B49701   8.842  32.001   7.064
 3831POPC   C4B49702   8.830  31.982   7.364
 3832POPC   NC349703   8.170  22.167   5.564
 3832POPC   PO449704   8.173  22.149   5.864
 3832POPC   GL149705   8.246  22.134   6.164
 3832POPC   GL249706   8.145  22.005   6.164
 3832POPC   C1A49707   8.160  22.203   6.464
 3832POPC   D2A49708   8.173  22.125   6.764
 3832POPC   C3A49709   8.172  22.156   7.064
 3832POPC   C4A49710   8.238  22.174   7.364
 3832POPC   C1B49711   8.121  21.965   6.464
 3832POPC   C2B49712   8.154  21.931   6.764
 3832POPC   C3B49713   8.148  21.938   7.064
 3832POPC   C4B49714   8.156  21.946   7.364
 3833POPC   NC349715  40.036  19.061   5.564
 3833POPC   PO449716  39.983  19.022   5.864
 3833POPC   GL149717  39.967  19.054   6.164
 3833POPC   GL249718  40.096  19.088   6.164
 3833POPC   C1A49719  40.038  19.051   6.464
 3833POPC   D2A49720  39.982  19.038   6.764
 3833POPC   C3A49721  40.022  19.062   7.064
 3833POPC   C4A49722  40.019  19.041   7.364
 3833POPC   C1B49723  40.305  19.108   6.464
 3833POPC   C2B49724  40.217  19.046   6.764
 3833POPC   C3B49725  40.247  19.132   7.064
 3833POPC   C4B49726  40.228  19.065   7.364
 3834POPC   NC349727  20.631  39.260   5.564
 3834POPC   PO449728  20.656  39.194   5.864
 3834POPC   GL149729  20.627  39.185   6.164
 3834POPC   GL249730  20.732  39.267   6.164
 3834POPC   C1A49731  20.568  39.259   6.464
 3834POPC   D2A49732  20.562  39.200   6.764
 3834POPC   C3A49733  20.600  39.194   7.064
 3834POPC   C4A49734  20.576  39.269   7.364
 3834POPC   C1B49735  20.753  39.359   6.464
 3834POPC   C2B49736  20.830  39.354   6.764
 3834POPC   C3B49737  20.754  39.433   7.064
 3834POPC   C4B49738  20.777  39.413   7.364
 3835POPC   NC349739  32.276   6.608   5.564
 3835POPC   PO449740  32.255   6.624   5.864
 3835POPC   GL149741  32.267   6.690   6.164
 3835POPC   GL249742  32.169   6.577   6.164
 3835POPC   C1A49743  32.250   6.671   6.464
 3835POPC   D2A49744  32.260   6.638   6.764
 3835POPC   C3A49745  32.272   6.606   7.064
 3835POPC   C4A49746  32.246   6.654   7.364
 3835POPC   C1B49747  31.979   6.625   6.464
 3835POPC   C2B49748  32.010   6.550   6.764
 3835POPC   C3B49749  32.042   6.601   7.064
 3835POPC   C4B49750  31.962   6.578   7.364
 3836POPC   NC349751  27.635  36.936   5.564
 3836POPC   PO449752  27.574  36.945   5.864
 3836POPC   GL149753  27.577  36.918   6.164
 3836POPC   GL249754  27.647  36.776   6.164
 3836POPC   C1A49755  27.602  36.939   6.464
 3836POPC   D2A49756  27.605  36.892   6.764
 3836POPC   C3A49757  27.560  36.942   7.064
 3836POPC   C4A49758  27.607  36.911   7.364
 3836POPC   C1B49759  27.759  36.731   6.464
 3836POPC   C2B49760  27.731  36.692   6.764
 3836POPC   C3B49761  27.717  36.650   7.064
 3836POPC   C4B49762  27.672  36.664   7.364
 3837POPC   NC349763  31.450   9.761   5.564
 3837POPC   PO449764  31.500   9.735   5.864
 3837POPC   GL149765  31.515   9.779   6.164
 3837POPC   GL249766  31.458   9.636   6.164
 3837POPC   C1A49767  31.447   9.769   6.464
 3837POPC   D2A49768  31.424   9.737   6.764
 3837POPC   C3A49769  31.469   9.764   7.064
 3837POPC   C4A49770  31.469   9.769   7.364
 3837POPC   C1B49771  31.370   9.548   6.464
 3837POPC   C2B49772  31.396   9.497   6.764
 3837POPC   C3B49773  31.368   9.570   7.064
 3837POPC   C4B49774  31.323   9.569   7.364
 3838POPC   NC349775   8.180   1.262   5.564
 3838POPC   PO449776   8.198   1.199   5.864
 3838POPC   GL149777   8.188   1.207   6.164
 3838POPC   GL249778   8.203   1.293   6.164
 3838POPC   C1A49779   8.232   1.182   6.464
 3838POPC   D2A49780   8.196   1.211   6.764
 3838POPC   C3A49781   8.164   1.183   7.064
 3838POPC   C4A49782   8.163   1.183   7.364
 3838POPC   C1B49783   8.318   1.447   6.464
 3838POPC   C2B49784   8.259   1.446   6.764
 3838POPC   C3B49785   8.312   1.466   7.064
 3838POPC   C4B49786   8.292   1.482   7.364
 3839POPC   NC349787  41.520  44.686   5.564
 3839POPC   PO449788  41.579  44.633   5.864
 3839POPC   GL149789  41.531  44.623   6.164
 3839POPC   GL249790  41.540  44.569   6.164
 3839POPC   C1A49791  41.568  44.708   6.464
 3839POPC   D2A49792  41.555  44.618   6.764
 3839POPC   C3A49793  41.569  44.694   7.064
 3839POPC   C4A49794  41.550  44.706   7.364
 3839POPC   C1B49795  41.459  44.407   6.464
 3839POPC   C2B49796  41.438  44.476   6.764
 3839POPC   C3B49797  41.457  44.464   7.064
 3839POPC   C4B49798  41.466  44.473   7.364
 3840POPC   NC349799  32.279  12.045   5.564
 3840POPC   PO449800  32.231  12.063   5.864
 3840POPC   GL149801  32.238  12.109   6.164
 3840POPC   GL249802  32.337  12.141   6.164
 3840POPC   C1A49803  32.279  12.080   6.464
 3840POPC   D2A49804  32.237  12.044   6.764
 3840POPC   C3A49805  32.282  12.078   7.064
 3840POPC   C4A49806  32.267  12.118   7.364
 3840POPC   C1B49807  32.485  12.076   6.464
 3840POPC   C2B49808  32.497  12.074   6.764
 3840POPC   C3B49809  32.448  12.068   7.064
 3840POPC   C4B49810  32.503  12.123   7.364
 3841POPC   NC349811  10.503   5.883   5.564
 3841POPC   PO449812  10.558   5.871   5.864
 3841POPC   GL149813  10.530   5.822   6.164
 3841POPC   GL249814  10.452   5.728   6.164
 3841POPC   C1A49815  10.537   5.828   6.464
 3841POPC   D2A49816  10.533   5.884   6.764
 3841POPC   C3A49817  10.539   5.868   7.064
 3841POPC   C4A49818  10.555   5.861   7.364
 3841POPC   C1B49819  10.392   5.683   6.464
 3841POPC   C2B49820  10.409   5.719   6.764
 3841POPC   C3B49821  10.376   5.728   7.064
 3841POPC   C4B49822  10.321   5.654   7.364
 3842POPC   NC349823  24.529  14.449   5.564
 3842POPC   PO449824  24.522  14.373   5.864
 3842POPC   GL149825  24.480  14.377   6.164
 3842POPC   GL249826  24.383  14.329   6.164
 3842POPC   C1A49827  24.456  14.382   6.464
 3842POPC   D2A49828  24.461  14.382   6.764
 3842POPC   C3A49829  24.457  14.419   7.064
 3842POPC   C4A49830  24.448  14.441   7.364
 3842POPC   C1B49831  24.366  14.168   6.464
 3842POPC   C2B49832  24.367  14.168   6.764
 3842POPC   C3B49833  24.303  14.231   7.064
 3842POPC   C4B49834  24.390  14.145   7.364
 3843POPC   NC349835   0.409  36.088   5.564
 3843POPC   PO449836   0.431  36.175   5.864
 3843POPC   GL149837   0.411  36.140   6.164
 3843POPC   GL249838   0.517  36.048   6.164
 3843POPC   C1A49839   0.472  36.098   6.464
 3843POPC   D2A49840   0.401  36.088   6.764
 3843POPC   C3A49841   0.487  36.088   7.064
 3843POPC   C4A49842   0.456  36.094   7.364
 3843POPC   C1B49843   0.559  35.854   6.464
 3843POPC   C2B49844   0.525  35.844   6.764
 3843POPC   C3B49845   0.531  35.871   7.064
 3843POPC   C4B49846   0.529  35.848   7.364
 3844POPC   NC349847  36.885  12.836   5.564
 3844POPC   PO449848  36.885  12.812   5.864
 3844POPC   GL149849  36.868  12.901   6.164
 3844POPC   GL249850  36.926  12.725   6.164
 3844POPC   C1A49851  36.891  12.889   6.464
 3844POPC   D2A49852  36.907  12.893   6.764
 3844POPC   C3A49853  36.869  12.879   7.064
 3844POPC   C4A49854  36.904  12.863   7.364
 3844POPC   C1B49855  36.900  12.576   6.464
 3844POPC   C2B49856  36.868  12.570   6.764
 3844POPC   C3B49857  36.911  12.580   7.064
 3844POPC   C4B49858  36.882  12.649   7.364
 3845POPC   NC349859  27.545  25.302   5.564
 3845POPC   PO449860  27.630  25.233   5.864
 3845POPC   GL149861  27.631  25.283   6.164
 3845POPC   GL249862  27.692  25.340   6.164
 3845POPC   C1A49863  27.642  25.283   6.464
 3845POPC   D2A49864  27.588  25.228   6.764
 3845POPC   C3A49865  27.599  25.216   7.064
 3845POPC   C4A49866  27.618  25.263   7.364
 3845POPC   C1B49867  27.759  25.454   6.464
 3845POPC   C2B49868  27.741  25.447   6.764
 3845POPC   C3B49869  27.753  25.478   7.064
 3845POPC   C4B49870  27.781  25.423   7.364
 3846POPC   NC349871  43.926  23.691   5.564
 3846POPC   PO449872  43.912  23.666   5.864
 3846POPC   GL149873  43.913  23.736   6.164
 3846POPC   GL249874  43.758  23.586   6.164
 3846POPC   C1A49875  43.858  23.713   6.464
 3846POPC   D2A49876  43.936  23.682   6.764
 3846POPC   C3A49877  43.885  23.710   7.064
 3846POPC   C4A49878  43.862  23.686   7.364
 3846POPC   C1B49879  43.729  23.512   6.464
 3846POPC   C2B49880  43.677  23.492   6.764
 3846POPC   C3B49881  43.704  23.574   7.064
 3846POPC   C4B49882  43.679  23.558   7.364
 3847POPC   NC349883  16.726  32.269   5.564
 3847POPC   PO449884  16.727  32.230   5.864
 3847POPC   GL149885  16.686  32.282   6.164
 3847POPC   GL249886  16.649  32.123   6.164
 3847POPC   C1A49887  16.710  32.261   6.464
 3847POPC   D2A49888  16.737  32.293   6.764
 3847POPC   C3A49889  16.686  32.242   7.064
 3847POPC   C4A49890  16.682  32.230   7.364
 3847POPC   C1B49891  16.668  31.987   6.464
 3847POPC   C2B49892  16.670  32.051   6.764
 3847POPC   C3B49893  16.614  32.025   7.064
 3847POPC   C4B49894  16.614  32.042   7.364
 3848POPC   NC349895  12.028   1.166   5.564
 3848POPC   PO449896  12.055   1.232   5.864
 3848POPC   GL149897  12.059   1.239   6.164
 3848POPC   GL249898  12.131   1.286   6.164
 3848POPC   C1A49899  12.057   1.228   6.464
 3848POPC   D2A49900  12.042   1.259   6.764
 3848POPC   C3A49901  12.103   1.174   7.064
 3848POPC   C4A49902  12.047   1.170   7.364
 3848POPC   C1B49903  12.304   1.356   6.464
 3848POPC   C2B49904  12.248   1.300   6.764
 3848POPC   C3B49905  12.267   1.385   7.064
 3848POPC   C4B49906  12.259   1.305   7.364
 3849POPC   NC349907   9.698  33.790   5.564
 3849POPC   PO449908   9.734  33.843   5.864
 3849POPC   GL149909   9.750  33.810   6.164
 3849POPC   GL249910   9.817  33.953   6.164
 3849POPC   C1A49911   9.784  33.827   6.464
 3849POPC   D2A49912   9.740  33.755   6.764
 3849POPC   C3A49913   9.751  33.816   7.064
 3849POPC   C4A49914   9.714  33.760   7.364
 3849POPC   C1B49915   9.779  34.037   6.464
 3849POPC   C2B49916   9.763  34.018   6.764
 3849POPC   C3B49917   9.763  34.018   7.064
 3849POPC   C4B49918   9.765  34.013   7.364
 3850POPC   NC349919   8.206  36.125   5.564
 3850POPC   PO449920   8.158  36.175   5.864
 3850POPC   GL149921   8.197  36.152   6.164
 3850POPC   GL249922   8.174  36.010   6.164
 3850POPC   C1A49923   8.184  36.165   6.464
 3850POPC   D2A49924   8.158  36.111   6.764
 3850POPC   C3A49925   8.221  36.130   7.064
 3850POPC   C4A49926   8.176  36.110   7.364
 3850POPC   C1B49927   8.127  35.908   6.464
 3850POPC   C2B49928   8.204  35.838   6.764
 3850POPC   C3B49929   8.165  35.878   7.064
 3850POPC   C4B49930   8.173  35.890   7.364
 3851POPC   NC349931  28.320   2.767   5.564
 3851POPC   PO449932  28.381   2.807   5.864
 3851POPC   GL149933  28.414   2.764   6.164
 3851POPC   GL249934  28.489   2.832   6.164
 3851POPC   C1A49935  28.373   2.781   6.464
 3851POPC   D2A49936  28.385   2.807   6.764
 3851POPC   C3A49937  28.389   2.790   7.064
 3851POPC   C4A49938  28.378   2.804   7.364
 3851POPC   C1B49939  28.570   2.903   6.464
 3851POPC   C2B49940  28.551   2.899   6.764
 3851POPC   C3B49941  28.531   2.957   7.064
 3851POPC   C4B49942  28.597   2.956   7.364
 3852POPC   NC349943   8.940   0.443   5.564
 3852POPC   PO449944   8.938   0.454   5.864
 3852POPC   GL149945   8.975   0.416   6.164
 3852POPC   GL249946   8.886   0.379   6.164
 3852POPC   C1A49947   8.964   0.394   6.464
 3852POPC   D2A49948   8.942   0.443   6.764
 3852POPC   C3A49949   8.961   0.428   7.064
 3852POPC   C4A49950   9.014   0.413   7.364
 3852POPC   C1B49951   8.749   0.399   6.464
 3852POPC   C2B49952   8.687   0.393   6.764
 3852POPC   C3B49953   8.769   0.415   7.064
 3852POPC   C4B49954   8.753   0.355   7.364
 3853POPC   NC349955  40.019   4.354   5.564
 3853POPC   PO449956  39.957   4.309   5.864
 3853POPC   GL149957  40.002   4.280   6.164
 3853POPC   GL249958  39.854   4.308   6.164
 3853POPC   C1A49959  39.972   4.278   6.464
 3853POPC   D2A49960  39.964   4.302   6.764
 3853POPC   C3A49961  40.048   4.311   7.064
 3853POPC   C4A49962  39.979   4.269   7.364
 3853POPC   C1B49963  39.708   4.276   6.464
 3853POPC   C2B49964  39.741   4.297   6.764
 3853POPC   C3B49965  39.763   4.340   7.064
 3853POPC   C4B49966  39.738   4.272   7.364
 3854POPC   NC349967  22.919  19.060   5.564
 3854POPC   PO449968  22.918  19.099   5.864
 3854POPC   GL149969  22.942  19.032   6.164
 3854POPC   GL249970  22.943  18.922   6.164
 3854POPC   C1A49971  22.946  19.090   6.464
 3854POPC   D2A49972  22.914  19.106   6.764
 3854POPC   C3A49973  22.976  19.075   7.064
 3854POPC   C4A49974  22.973  19.108   7.364
 3854POPC   C1B49975  23.023  18.829   6.464
 3854POPC   C2B49976  23.006  18.824   6.764
 3854POPC   C3B49977  23.038  18.814   7.064
 3854POPC   C4B49978  23.002  18.870   7.364
 3855POPC   NC349979  36.952   8.934   5.564
 3855POPC   PO449980  36.952   8.983   5.864
 3855POPC   GL149981  36.891   9.019   6.164
 3855POPC   GL249982  37.046   9.033   6.164
 3855POPC   C1A49983  36.860   8.945   6.464
 3855POPC   D2A49984  36.932   8.951   6.764
 3855POPC   C3A49985  36.861   8.924   7.064
 3855POPC   C4A49986  36.913   9.010   7.364
 3855POPC   C1B49987  37.200   8.986   6.464
 3855POPC   C2B49988  37.128   9.049   6.764
 3855POPC   C3B49989  37.102   8.978   7.064
 3855POPC   C4B49990  37.183   9.004   7.364
 3856POPC   NC349991  22.124  22.961   5.564
 3856POPC   PO449992  22.161  22.981   5.864
 3856POPC   GL149993  22.168  22.897   6.164
 3856POPC   GL249994  22.163  22.786   6.164
 3856POPC   C1A49995  22.182  22.911   6.464
 3856POPC   D2A49996  22.167  22.897   6.764
 3856POPC   C3A49997  22.162  22.953   7.064
 3856POPC   C4A49998  22.189  22.953   7.364
 3856POPC   C1B49999  22.089  22.671   6.464
 3856POPC   C2B50000  22.072  22.684   6.764
 3856POPC   C3B50001  22.133  22.686   7.064
 3856POPC   C4B50002  22.065  22.734   7.364
 3857POPC   NC350003   8.927   6.685   5.564
 3857POPC   PO450004   8.978   6.638   5.864
 3857POPC   GL150005   8.968   6.642   6.164
 3857POPC   GL250006   8.908   6.748   6.164
 3857POPC   C1A50007   9.000   6.635   6.464
 3857POPC   D2A50008   8.961   6.663   6.764
 3857POPC   C3A50009   8.959   6.676   7.064
 3857POPC   C4A50010   9.004   6.670   7.364
 3857POPC   C1B50011   8.840   6.809   6.464
 3857POPC   C2B50012   8.836   6.806   6.764
 3857POPC   C3B50013   8.810   6.870   7.064
 3857POPC   C4B50014   8.748   6.807   7.364
 3858POPC   NC350015  26.799  14.405   5.564
 3858POPC   PO450016  26.814  14.373   5.864
 3858POPC   GL150017  26.830  14.379   6.164
 3858POPC   GL250018  26.897  14.542   6.164
 3858POPC   C1A50019  26.779  14.359   6.464
 3858POPC   D2A50020  26.789  14.396   6.764
 3858POPC   C3A50021  26.836  14.378   7.064
 3858POPC   C4A50022  26.856  14.404   7.364
 3858POPC   C1B50023  26.963  14.649   6.464
 3858POPC   C2B50024  26.913  14.623   6.764
 3858POPC   C3B50025  26.903  14.653   7.064
 3858POPC   C4B50026  26.903  14.644   7.364
 3859POPC   NC350027  21.364  34.560   5.564
 3859POPC   PO450028  21.413  34.609   5.864
 3859POPC   GL150029  21.414  34.539   6.164
 3859POPC   GL250030  21.489  34.574   6.164
 3859POPC   C1A50031  21.396  34.540   6.464
 3859POPC   D2A50032  21.393  34.612   6.764
 3859POPC   C3A50033  21.348  34.623   7.064
 3859POPC   C4A50034  21.408  34.545   7.364
 3859POPC   C1B50035  21.649  34.491   6.464
 3859POPC   C2B50036  21.659  34.563   6.764
 3859POPC   C3B50037  21.605  34.490   7.064
 3859POPC   C4B50038  21.658  34.590   7.364
 3860POPC   NC350039  22.209  39.958   5.564
 3860POPC   PO450040  22.124  39.999   5.864
 3860POPC   GL150041  22.138  40.016   6.164
 3860POPC   GL250042  22.112  40.060   6.164
 3860POPC   C1A50043  22.164  40.032   6.464
 3860POPC   D2A50044  22.152  40.050   6.764
 3860POPC   C3A50045  22.184  39.976   7.064
 3860POPC   C4A50046  22.190  40.033   7.364
 3860POPC   C1B50047  21.965  40.144   6.464
 3860POPC   C2B50048  21.968  40.190   6.764
 3860POPC   C3B50049  22.023  40.161   7.064
 3860POPC   C4B50050  22.002  40.198   7.364
 3861POPC   NC350051  36.861  12.091   5.564
 3861POPC   PO450052  36.923  12.121   5.864
 3861POPC   GL150053  36.939  12.093   6.164
 3861POPC   GL250054  37.005  12.080   6.164
 3861POPC   C1A50055  36.943  12.097   6.464
 3861POPC   D2A50056  36.909  12.057   6.764
 3861POPC   C3A50057  36.882  12.094   7.064
 3861POPC   C4A50058  36.946  12.120   7.364
 3861POPC   C1B50059  37.141  12.125   6.464
 3861POPC   C2B50060  37.136  12.081   6.764
 3861POPC   C3B50061  37.125  12.098   7.064
 3861POPC   C4B50062  37.188  12.078   7.364
 3862POPC   NC350063  38.496  28.365   5.564
 3862POPC   PO450064  38.425  28.382   5.864
 3862POPC   GL150065  38.466  28.355   6.164
 3862POPC   GL250066  38.347  28.284   6.164
 3862POPC   C1A50067  38.407  28.402   6.464
 3862POPC   D2A50068  38.479  28.328   6.764
 3862POPC   C3A50069  38.418  28.416   7.064
 3862POPC   C4A50070  38.446  28.360   7.364
 3862POPC   C1B50071  38.243  28.258   6.464
 3862POPC   C2B50072  38.278  28.216   6.764
 3862POPC   C3B50073  38.260  28.212   7.064
 3862POPC   C4B50074  38.303  28.248   7.364
 3863POPC   NC350075  35.386   1.182   5.564
 3863POPC   PO450076  35.330   1.166   5.864
 3863POPC   GL150077  35.388   1.258   6.164
 3863POPC   GL250078  35.354   1.370   6.164
 3863POPC   C1A50079  35.314   1.176   6.464
 3863POPC   D2A50080  35.388   1.244   6.764
 3863POPC   C3A50081  35.334   1.181   7.064
 3863POPC   C4A50082  35.353   1.205   7.364
 3863POPC   C1B50083  35.392   1.446   6.464
 3863POPC   C2B50084  35.435   1.496   6.764
 3863POPC   C3B50085  35.418   1.411   7.064
 3863POPC   C4B50086  35.441   1.436   7.364
 3864POPC   NC350087  39.976  29.958   5.564
 3864POPC   PO450088  40.000  29.907   5.864
 3864POPC   GL150089  39.965  29.938   6.164
 3864POPC   GL250090  40.108  29.985   6.164
 3864POPC   C1A50091  39.990  29.910   6.464
 3864POPC   D2A50092  39.980  29.887   6.764
 3864POPC   C3A50093  39.962  29.917   7.064
 3864POPC   C4A50094  40.003  29.944   7.364
 3864POPC   C1B50095  40.217  29.985   6.464
 3864POPC   C2B50096  40.226  29.972   6.764
 3864POPC   C3B50097  40.246  29.953   7.064
 3864POPC   C4B50098  40.248  29.960   7.364
 3865POPC   NC350099   3.495  21.399   5.564
 3865POPC   PO450100   3.509  21.357   5.864
 3865POPC   GL150101   3.569  21.408   6.164
 3865POPC   GL250102   3.427  21.272   6.164
 3865POPC   C1A50103   3.516  21.364   6.464
 3865POPC   D2A50104   3.496  21.406   6.764
 3865POPC   C3A50105   3.498  21.412   7.064
 3865POPC   C4A50106   3.587  21.341   7.364
 3865POPC   C1B50107   3.434  21.165   6.464
 3865POPC   C2B50108   3.344  21.205   6.764
 3865POPC   C3B50109   3.361  21.152   7.064
 3865POPC   C4B50110   3.434  21.146   7.364
 3866POPC   NC350111  29.953  15.954   5.564
 3866POPC   PO450112  29.968  15.919   5.864
 3866POPC   GL150113  29.909  15.971   6.164
 3866POPC   GL250114  29.983  16.049   6.164
 3866POPC   C1A50115  29.921  15.988   6.464
 3866POPC   D2A50116  29.904  15.906   6.764
 3866POPC   C3A50117  29.937  15.990   7.064
 3866POPC   C4A50118  29.931  15.955   7.364
 3866POPC   C1B50119  30.164  16.051   6.464
 3866POPC   C2B50120  30.141  16.119   6.764
 3866POPC   C3B50121  30.168  16.131   7.064
 3866POPC   C4B50122  30.103  16.103   7.364
 3867POPC   NC350123  23.739  12.879   5.564
 3867POPC   PO450124  23.749  12.803   5.864
 3867POPC   GL150125  23.696  12.814   6.164
 3867POPC   GL250126  23.845  12.866   6.164
 3867POPC   C1A50127  23.710  12.839   6.464
 3867POPC   D2A50128  23.720  12.807   6.764
 3867POPC   C3A50129  23.717  12.836   7.064
 3867POPC   C4A50130  23.704  12.815   7.364
 3867POPC   C1B50131  23.982  12.837   6.464
 3867POPC   C2B50132  23.987  12.852   6.764
 3867POPC   C3B50133  23.926  12.823   7.064
 3867POPC   C4B50134  23.929  12.854   7.364
 3868POPC   NC350135  38.434  26.792   5.564
 3868POPC   PO450136  38.447  26.770   5.864
 3868POPC   GL150137  38.490  26.780   6.164
 3868POPC   GL250138  38.452  26.989   6.164
 3868POPC   C1A50139  38.476  26.851   6.464
 3868POPC   D2A50140  38.503  26.774   6.764
 3868POPC   C3A50141  38.443  26.863   7.064
 3868POPC   C4A50142  38.465  26.867   7.364
 3868POPC   C1B50143  38.402  27.055   6.464
 3868POPC   C2B50144  38.445  27.111   6.764
 3868POPC   C3B50145  38.478  27.035   7.064
 3868POPC   C4B50146  38.460  27.042   7.364
 3869POPC   NC350147   9.720  21.348   5.564
 3869POPC   PO450148   9.728  21.380   5.864
 3869POPC   GL150149   9.717  21.375   6.164
 3869POPC   GL250150   9.809  21.264   6.164
 3869POPC   C1A50151   9.739  21.341   6.464
 3869POPC   D2A50152   9.713  21.371   6.764
 3869POPC   C3A50153   9.721  21.427   7.064
 3869POPC   C4A50154   9.699  21.405   7.364
 3869POPC   C1B50155   9.904  21.170   6.464
 3869POPC   C2B50156   9.913  21.246   6.764
 3869POPC   C3B50157   9.919  21.241   7.064
 3869POPC   C4B50158   9.907  21.176   7.364
 3870POPC   NC350159  15.173  22.944   5.564
 3870POPC   PO450160  15.154  22.935   5.864
 3870POPC   GL150161  15.131  22.908   6.164
 3870POPC   GL250162  15.023  22.974   6.164
 3870POPC   C1A50163  15.154  22.976   6.464
 3870POPC   D2A50164  15.145  22.953   6.764
 3870POPC   C3A50165  15.228  22.914   7.064
 3870POPC   C4A50166  15.157  22.897   7.364
 3870POPC   C1B50167  14.959  22.956   6.464
 3870POPC   C2B50168  14.895  22.939   6.764
 3870POPC   C3B50169  14.930  22.971   7.064
 3870POPC   C4B50170  14.893  22.911   7.364
 3871POPC   NC350171  16.688  40.829   5.564
 3871POPC   PO450172  16.769  40.738   5.864
 3871POPC   GL150173  16.746  40.824   6.164
 3871POPC   GL250174  16.830  40.826   6.164
 3871POPC   C1A50175  16.685  40.806   6.464
 3871POPC   D2A50176  16.764  40.812   6.764
 3871POPC   C3A50177  16.740  40.817   7.064
 3871POPC   C4A50178  16.709  40.822   7.364
 3871POPC   C1B50179  16.960  40.849   6.464
 3871POPC   C2B50180  17.009  40.834   6.764
 3871POPC   C3B50181  17.024  40.792   7.064
 3871POPC   C4B50182  16.943  40.868   7.364
 3872POPC   NC350183  19.073  15.175   5.564
 3872POPC   PO450184  19.087  15.152   5.864
 3872POPC   GL150185  19.088  15.219   6.164
 3872POPC   GL250186  19.168  15.062   6.164
 3872POPC   C1A50187  19.067  15.191   6.464
 3872POPC   D2A50188  19.038  15.194   6.764
 3872POPC   C3A50189  19.043  15.211   7.064
 3872POPC   C4A50190  19.101  15.174   7.364
 3872POPC   C1B50191  19.240  14.938   6.464
 3872POPC   C2B50192  19.153  14.989   6.764
 3872POPC   C3B50193  19.223  14.999   7.064
 3872POPC   C4B50194  19.204  15.008   7.364
 3873POPC   NC350195  42.295  14.432   5.564
 3873POPC   PO450196  42.351  14.450   5.864
 3873POPC   GL150197  42.347  14.404   6.164
 3873POPC   GL250198  42.218  14.398   6.164
 3873POPC   C1A50199  42.339  14.373   6.464
 3873POPC   D2A50200  42.384  14.360   6.764
 3873POPC   C3A50201  42.331  14.390   7.064
 3873POPC   C4A50202  42.364  14.439   7.364
 3873POPC   C1B50203  42.075  14.401   6.464
 3873POPC   C2B50204  42.054  14.455   6.764
 3873POPC   C3B50205  42.110  14.482   7.064
 3873POPC   C4B50206  42.094  14.421   7.364
 3874POPC   NC350207  14.431  10.498   5.564
 3874POPC   PO450208  14.446  10.515   5.864
 3874POPC   GL150209  14.448  10.514   6.164
 3874POPC   GL250210  14.401  10.593   6.164
 3874POPC   C1A50211  14.437  10.549   6.464
 3874POPC   D2A50212  14.371  10.503   6.764
 3874POPC   C3A50213  14.411  10.568   7.064
 3874POPC   C4A50214  14.437  10.511   7.364
 3874POPC   C1B50215  14.316  10.766   6.464
 3874POPC   C2B50216  14.320  10.712   6.764
 3874POPC   C3B50217  14.335  10.711   7.064
 3874POPC   C4B50218  14.366  10.761   7.364
 3875POPC   NC350219  10.532  36.147   5.564
 3875POPC   PO450220  10.572  36.158   5.864
 3875POPC   GL150221  10.488  36.079   6.164
 3875POPC   GL250222  10.461  36.208   6.164
 3875POPC   C1A50223  10.567  36.145   6.464
 3875POPC   D2A50224  10.500  36.147   6.764
 3875POPC   C3A50225  10.476  36.148   7.064
 3875POPC   C4A50226  10.567  36.107   7.364
 3875POPC   C1B50227  10.254  36.265   6.464
 3875POPC   C2B50228  10.312  36.239   6.764
 3875POPC   C3B50229  10.290  36.261   7.064
 3875POPC   C4B50230  10.316  36.193   7.364
 3876POPC   NC350231  40.805  15.193   5.564
 3876POPC   PO450232  40.748  15.157   5.864
 3876POPC   GL150233  40.776  15.135   6.164
 3876POPC   GL250234  40.658  15.089   6.164
 3876POPC   C1A50235  40.735  15.203   6.464
 3876POPC   D2A50236  40.782  15.135   6.764
 3876POPC   C3A50237  40.759  15.146   7.064
 3876POPC   C4A50238  40.798  15.222   7.364
 3876POPC   C1B50239  40.605  15.054   6.464
 3876POPC   C2B50240  40.537  15.098   6.764
 3876POPC   C3B50241  40.606  15.095   7.064
 3876POPC   C4B50242  40.535  15.041   7.364
 3877POPC   NC350243   6.668  26.790   5.564
 3877POPC   PO450244   6.649  26.802   5.864
 3877POPC   GL150245   6.611  26.843   6.164
 3877POPC   GL250246   6.702  26.755   6.164
 3877POPC   C1A50247   6.688  26.829   6.464
 3877POPC   D2A50248   6.685  26.780   6.764
 3877POPC   C3A50249   6.649  26.835   7.064
 3877POPC   C4A50250   6.603  26.866   7.364
 3877POPC   C1B50251   6.710  26.625   6.464
 3877POPC   C2B50252   6.768  26.595   6.764
 3877POPC   C3B50253   6.780  26.618   7.064
 3877POPC   C4B50254   6.746  26.608   7.364
 3878POPC   NC350255  27.546  38.431   5.564
 3878POPC   PO450256  27.601  38.485   5.864
 3878POPC   GL150257  27.634  38.469   6.164
 3878POPC   GL250258  27.468  38.537   6.164
 3878POPC   C1A50259  27.620  38.483   6.464
 3878POPC   D2A50260  27.606  38.498   6.764
 3878POPC   C3A50261  27.632  38.477   7.064
 3878POPC   C4A50262  27.593  38.447   7.364
 3878POPC   C1B50263  27.414  38.683   6.464
 3878POPC   C2B50264  27.463  38.679   6.764
 3878POPC   C3B50265  27.458  38.679   7.064
 3878POPC   C4B50266  27.447  38.658   7.364
 3879POPC   NC350267  19.834  32.286   5.564
 3879POPC   PO450268  19.785  32.295   5.864
 3879POPC   GL150269  19.816  32.251   6.164
 3879POPC   GL250270  19.879  32.337   6.164
 3879POPC   C1A50271  19.873  32.221   6.464
 3879POPC   D2A50272  19.836  32.259   6.764
 3879POPC   C3A50273  19.840  32.214   7.064
 3879POPC   C4A50274  19.863  32.224   7.364
 3879POPC   C1B50275  19.962  32.442   6.464
 3879POPC   C2B50276  20.019  32.451   6.764
 3879POPC   C3B50277  20.019  32.413   7.064
 3879POPC   C4B50278  19.994  32.418   7.364
 3880POPC   NC350279  42.356  36.862   5.564
 3880POPC   PO450280  42.318  36.872   5.864
 3880POPC   GL150281  42.285  36.948   6.164
 3880POPC   GL250282  42.430  36.923   6.164
 3880POPC   C1A50283  42.363  36.939   6.464
 3880POPC   D2A50284  42.358  36.898   6.764
 3880POPC   C3A50285  42.287  36.936   7.064
 3880POPC   C4A50286  42.382  36.953   7.364
 3880POPC   C1B50287  42.579  36.944   6.464
 3880POPC   C2B50288  42.580  36.966   6.764
 3880POPC   C3B50289  42.604  36.947   7.064
 3880POPC   C4B50290  42.560  36.892   7.364
 3881POPC   NC350291  22.198   5.879   5.564
 3881POPC   PO450292  22.174   5.905   5.864
 3881POPC   GL150293  22.139   5.838   6.164
 3881POPC   GL250294  22.326   5.888   6.164
 3881POPC   C1A50295  22.164   5.869   6.464
 3881POPC   D2A50296  22.161   5.910   6.764
 3881POPC   C3A50297  22.170   5.909   7.064
 3881POPC   C4A50298  22.163   5.916   7.364
 3881POPC   C1B50299  22.412   5.955   6.464
 3881POPC   C2B50300  22.447   5.894   6.764
 3881POPC   C3B50301  22.420   5.954   7.064
 3881POPC   C4B50302  22.376   5.977   7.364
 3882POPC   NC350303  43.919   0.397   5.564
 3882POPC   PO450304  43.894   0.445   5.864
 3882POPC   GL150305  43.912   0.477   6.164
 3882POPC   GL250306  43.778   0.543   6.164
 3882POPC   C1A50307  43.885   0.440   6.464
 3882POPC   D2A50308  43.886   0.454   6.764
 3882POPC   C3A50309  43.850   0.408   7.064
 3882POPC   C4A50310  43.881   0.454   7.364
 3882POPC   C1B50311  43.713   0.568   6.464
 3882POPC   C2B50312  43.646   0.618   6.764
 3882POPC   C3B50313  43.653   0.619   7.064
 3882POPC   C4B50314  43.662   0.552   7.364
 3883POPC   NC350315  13.628  23.704   5.564
 3883POPC   PO450316  13.668  23.682   5.864
 3883POPC   GL150317  13.624  23.671   6.164
 3883POPC   GL250318  13.476  23.686   6.164
 3883POPC   C1A50319  13.583  23.726   6.464
 3883POPC   D2A50320  13.668  23.696   6.764
 3883POPC   C3A50321  13.584  23.760   7.064
 3883POPC   C4A50322  13.613  23.708   7.364
 3883POPC   C1B50323  13.350  23.745   6.464
 3883POPC   C2B50324  13.347  23.730   6.764
 3883POPC   C3B50325  13.344  23.677   7.064
 3883POPC   C4B50326  13.361  23.696   7.364
 3884POPC   NC350327  44.659  19.085   5.564
 3884POPC   PO450328  44.677  19.047   5.864
 3884POPC   GL150329  44.710  19.073   6.164
 3884POPC   GL250330  44.677  19.136   6.164
 3884POPC   C1A50331  44.620  19.102   6.464
 3884POPC   D2A50332  44.660  19.095   6.764
 3884POPC   C3A50333  44.711  19.045   7.064
 3884POPC   C4A50334  44.633  19.101   7.364
 3884POPC   C1B50335  44.694  19.277   6.464
 3884POPC   C2B50336  44.666  19.351   6.764
 3884POPC   C3B50337  44.638  19.305   7.064
 3884POPC   C4B50338  44.599  19.267   7.364
 3885POPC   NC350339  19.061  25.216   5.564
 3885POPC   PO450340  19.032  25.273   5.864
 3885POPC   GL150341  19.087  25.280   6.164
 3885POPC   GL250342  19.201  25.267   6.164
 3885POPC   C1A50343  19.094  25.238   6.464
 3885POPC   D2A50344  19.092  25.269   6.764
 3885POPC   C3A50345  19.035  25.301   7.064
 3885POPC   C4A50346  19.028  25.229   7.364
 3885POPC   C1B50347  19.312  25.372   6.464
 3885POPC   C2B50348  19.290  25.354   6.764
 3885POPC   C3B50349  19.347  25.327   7.064
 3885POPC   C4B50350  19.260  25.311   7.364
 3886POPC   NC350351  35.317  43.899   5.564
 3886POPC   PO450352  35.304  43.883   5.864
 3886POPC   GL150353  35.379  43.929   6.164
 3886POPC   GL250354  35.274  43.842   6.164
 3886POPC   C1A50355  35.396  43.912   6.464
 3886POPC   D2A50356  35.336  43.869   6.764
 3886POPC   C3A50357  35.372  43.857   7.064
 3886POPC   C4A50358  35.388  43.867   7.364
 3886POPC   C1B50359  35.142  43.747   6.464
 3886POPC   C2B50360  35.147  43.809   6.764
 3886POPC   C3B50361  35.167  43.737   7.064
 3886POPC   C4B50362  35.085  43.797   7.364
 3887POPC   NC350363  21.394  37.696   5.564
 3887POPC   PO450364  21.363  37.727   5.864
 3887POPC   GL150365  21.396  37.660   6.164
 3887POPC   GL250366  21.241  37.656   6.164
 3887POPC   C1A50367  21.370  37.643   6.464
 3887POPC   D2A50368  21.398  37.717   6.764
 3887POPC   C3A50369  21.363  37.708   7.064
 3887POPC   C4A50370  21.383  37.660   7.364
 3887POPC   C1B50371  21.152  37.634   6.464
 3887POPC   C2B50372  21.119  37.716   6.764
 3887POPC   C3B50373  21.161  37.650   7.064
 3887POPC   C4B50374  21.107  37.663   7.364
 3888POPC   NC350375  21.369   2.727   5.564
 3888POPC   PO450376  21.354   2.732   5.864
 3888POPC   GL150377  21.400   2.742   6.164
 3888POPC   GL250378  21.517   2.869   6.164
 3888POPC   C1A50379  21.375   2.722   6.464
 3888POPC   D2A50380  21.412   2.721   6.764
 3888POPC   C3A50381  21.405   2.754   7.064
 3888POPC   C4A50382  21.429   2.768   7.364
 3888POPC   C1B50383  21.618   2.946   6.464
 3888POPC   C2B50384  21.575   2.982   6.764
 3888POPC   C3B50385  21.610   2.949   7.064
 3888POPC   C4B50386  21.530   2.973   7.364
 3889POPC   NC350387  17.542   5.115   5.564
 3889POPC   PO450388  17.466   5.111   5.864
 3889POPC   GL150389  17.508   5.045   6.164
 3889POPC   GL250390  17.448   5.145   6.164
 3889POPC   C1A50391  17.471   5.076   6.464
 3889POPC   D2A50392  17.468   5.098   6.764
 3889POPC   C3A50393  17.486   5.063   7.064
 3889POPC   C4A50394  17.515   5.131   7.364
 3889POPC   C1B50395  17.341   5.279   6.464
 3889POPC   C2B50396  17.338   5.301   6.764
 3889POPC   C3B50397  17.367   5.299   7.064
 3889POPC   C4B50398  17.337   5.311   7.364
 3890POPC   NC350399  43.927  30.676   5.564
 3890POPC   PO450400  43.918  30.675   5.864
 3890POPC   GL150401  43.936  30.724   6.164
 3890POPC   GL250402  43.775  30.801   6.164
 3890POPC   C1A50403  43.913  30.737   6.464
 3890POPC   D2A50404  43.883  30.698   6.764
 3890POPC   C3A50405  43.911  30.658   7.064
 3890POPC   C4A50406  43.880  30.671   7.364
 3890POPC   C1B50407  43.641  30.821   6.464
 3890POPC   C2B50408  43.682  30.825   6.764
 3890POPC   C3B50409  43.674  30.853   7.064
 3890POPC   C4B50410  43.711  30.850   7.364
 3891POPC   NC350411  43.849  19.870   5.564
 3891POPC   PO450412  43.927  19.798   5.864
 3891POPC   GL150413  43.877  19.806   6.164
 3891POPC   GL250414  43.793  19.902   6.164
 3891POPC   C1A50415  43.866  19.799   6.464
 3891POPC   D2A50416  43.929  19.873   6.764
 3891POPC   C3A50417  43.934  19.848   7.064
 3891POPC   C4A50418  43.915  19.884   7.364
 3891POPC   C1B50419  43.621  19.948   6.464
 3891POPC   C2B50420  43.694  19.978   6.764
 3891POPC   C3B50421  43.622  19.937   7.064
 3891POPC   C4B50422  43.630  19.901   7.364
 3892POPC   NC350423  38.455  37.681   5.564
 3892POPC   PO450424  38.494  37.666   5.864
 3892POPC   GL150425  38.479  37.707   6.164
 3892POPC   GL250426  38.442  37.542   6.164
 3892POPC   C1A50427  38.424  37.687   6.464
 3892POPC   D2A50428  38.420  37.643   6.764
 3892POPC   C3A50429  38.478  37.690   7.064
 3892POPC   C4A50430  38.422  37.721   7.364
 3892POPC   C1B50431  38.316  37.409   6.464
 3892POPC   C2B50432  38.316  37.491   6.764
 3892POPC   C3B50433  38.313  37.415   7.064
 3892POPC   C4B50434  38.386  37.407   7.364
 3893POPC   NC350435  12.810  16.754   5.564
 3893POPC   PO450436  12.815  16.743   5.864
 3893POPC   GL150437  12.831  16.703   6.164
 3893POPC   GL250438  12.685  16.681   6.164
 3893POPC   C1A50439  12.878  16.723   6.464
 3893POPC   D2A50440  12.847  16.752   6.764
 3893POPC   C3A50441  12.854  16.706   7.064
 3893POPC   C4A50442  12.879  16.733   7.364
 3893POPC   C1B50443  12.650  16.755   6.464
 3893POPC   C2B50444  12.601  16.727   6.764
 3893POPC   C3B50445  12.571  16.697   7.064
 3893POPC   C4B50446  12.640  16.667   7.364
 3894POPC   NC350447  29.900   6.677   5.564
 3894POPC   PO450448  29.884   6.640   5.864
 3894POPC   GL150449  29.919   6.605   6.164
 3894POPC   GL250450  29.814   6.494   6.164
 3894POPC   C1A50451  29.949   6.683   6.464
 3894POPC   D2A50452  29.967   6.648   6.764
 3894POPC   C3A50453  29.959   6.666   7.064
 3894POPC   C4A50454  29.905   6.612   7.364
 3894POPC   C1B50455  29.811   6.392   6.464
 3894POPC   C2B50456  29.831   6.384   6.764
 3894POPC   C3B50457  29.832   6.447   7.064
 3894POPC   C4B50458  29.823   6.410   7.364
 3895POPC   NC350459  19.875   9.789   5.564
 3895POPC   PO450460  19.797   9.793   5.864
 3895POPC   GL150461  19.797   9.713   6.164
 3895POPC   GL250462  19.980   9.838   6.164
 3895POPC   C1A50463  19.837   9.711   6.464
 3895POPC   D2A50464  19.864   9.745   6.764
 3895POPC   C3A50465  19.866   9.790   7.064
 3895POPC   C4A50466  19.827   9.767   7.364
 3895POPC   C1B50467  20.074   9.829   6.464
 3895POPC   C2B50468  20.071   9.867   6.764
 3895POPC   C3B50469  20.035   9.813   7.064
 3895POPC   C4B50470  20.090   9.883   7.364
 3896POPC   NC350471  35.369  41.572   5.564
 3896POPC   PO450472  35.401  41.555   5.864
 3896POPC   GL150473  35.344  41.511   6.164
 3896POPC   GL250474  35.253  41.444   6.164
 3896POPC   C1A50475  35.354  41.536   6.464
 3896POPC   D2A50476  35.370  41.546   6.764
 3896POPC   C3A50477  35.383  41.588   7.064
 3896POPC   C4A50478  35.398  41.534   7.364
 3896POPC   C1B50479  35.173  41.442   6.464
 3896POPC   C2B50480  35.146  41.404   6.764
 3896POPC   C3B50481  35.118  41.395   7.064
 3896POPC   C4B50482  35.122  41.353   7.364
 3897POPC   NC350483  28.346   1.183   5.564
 3897POPC   PO450484  28.363   1.260   5.864
 3897POPC   GL150485  28.335   1.179   6.164
 3897POPC   GL250486  28.344   1.069   6.164
 3897POPC   C1A50487  28.342   1.249   6.464
 3897POPC   D2A50488  28.381   1.241   6.764
 3897POPC   C3A50489  28.342   1.198   7.064
 3897POPC   C4A50490  28.408   1.216   7.364
 3897POPC   C1B50491  28.261   0.990   6.464
 3897POPC   C2B50492  28.315   0.996   6.764
 3897POPC   C3B50493  28.328   0.971   7.064
 3897POPC   C4B50494  28.299   0.944   7.364
 3898POPC   NC350495   2.019  22.898   5.564
 3898POPC   PO450496   1.977  22.977   5.864
 3898POPC   GL150497   1.946  22.915   6.164
 3898POPC   GL250498   1.886  22.826   6.164
 3898POPC   C1A50499   2.039  22.921   6.464
 3898POPC   D2A50500   2.028  22.920   6.764
 3898POPC   C3A50501   2.014  22.904   7.064
 3898POPC   C4A50502   1.956  22.968   7.364
 3898POPC   C1B50503   1.793  22.832   6.464
 3898POPC   C2B50504   1.812  22.842   6.764
 3898POPC   C3B50505   1.819  22.805   7.064
 3898POPC   C4B50506   1.735  22.816   7.364
 3899POPC   NC350507  21.389  29.125   5.564
 3899POPC   PO450508  21.436  29.133   5.864
 3899POPC   GL150509  21.383  29.119   6.164
 3899POPC   GL250510  21.390  29.014   6.164
 3899POPC   C1A50511  21.382  29.112   6.464
 3899POPC   D2A50512  21.372  29.174   6.764
 3899POPC   C3A50513  21.426  29.097   7.064
 3899POPC   C4A50514  21.365  29.140   7.364
 3899POPC   C1B50515  21.393  28.876   6.464
 3899POPC   C2B50516  21.311  28.908   6.764
 3899POPC   C3B50517  21.389  28.920   7.064
 3899POPC   C4B50518  21.361  28.945   7.364
 3900POPC   NC350519  22.148   8.195   5.564
 3900POPC   PO450520  22.188   8.239   5.864
 3900POPC   GL150521  22.120   8.214   6.164
 3900POPC   GL250522  21.993   8.231   6.164
 3900POPC   C1A50523  22.189   8.199   6.464
 3900POPC   D2A50524  22.200   8.184   6.764
 3900POPC   C3A50525  22.124   8.220   7.064
 3900POPC   C4A50526  22.170   8.210   7.364
 3900POPC   C1B50527  21.950   8.180   6.464
 3900POPC   C2B50528  21.950   8.237   6.764
 3900POPC   C3B50529  21.902   8.162   7.064
 3900POPC   C4B50530  21.875   8.228   7.364
 3901POPC   NC350531  10.548  30.658   5.564
 3901POPC   PO450532  10.503  30.710   5.864
 3901POPC   GL150533  10.503  30.667   6.164
 3901POPC   GL250534  10.379  30.691   6.164
 3901POPC   C1A50535  10.545  30.737   6.464
 3901POPC   D2A50536  10.495  30.723   6.764
 3901POPC   C3A50537  10.546  30.656   7.064
 3901POPC   C4A50538  10.485  30.650   7.364
 3901POPC   C1B50539  10.249  30.576   6.464
 3901POPC   C2B50540  10.306  30.574   6.764
 3901POPC   C3B50541  10.304  30.621   7.064
 3901POPC   C4B50542  10.258  30.614   7.364
 3902POPC   NC350543  22.138  15.166   5.564
 3902POPC   PO450544  22.188  15.177   5.864
 3902POPC   GL150545  22.118  15.229   6.164
 3902POPC   GL250546  22.157  15.071   6.164
 3902POPC   C1A50547  22.173  15.156   6.464
 3902POPC   D2A50548  22.155  15.213   6.764
 3902POPC   C3A50549  22.121  15.132   7.064
 3902POPC   C4A50550  22.164  15.229   7.364
 3902POPC   C1B50551  22.171  14.973   6.464
 3902POPC   C2B50552  22.080  14.954   6.764
 3902POPC   C3B50553  22.154  14.921   7.064
 3902POPC   C4B50554  22.136  14.978   7.364
 3903POPC   NC350555  26.859  22.911   5.564
 3903POPC   PO450556  26.783  22.979   5.864
 3903POPC   GL150557  26.771  22.976   6.164
 3903POPC   GL250558  26.858  23.015   6.164
 3903POPC   C1A50559  26.864  22.986   6.464
 3903POPC   D2A50560  26.805  22.967   6.764
 3903POPC   C3A50561  26.781  22.914   7.064
 3903POPC   C4A50562  26.851  22.916   7.364
 3903POPC   C1B50563  26.937  23.205   6.464
 3903POPC   C2B50564  26.901  23.187   6.764
 3903POPC   C3B50565  26.890  23.158   7.064
 3903POPC   C4B50566  26.964  23.140   7.364
 3904POPC   NC350567  18.319  39.279   5.564
 3904POPC   PO450568  18.314  39.219   5.864
 3904POPC   GL150569  18.264  39.268   6.164
 3904POPC   GL250570  18.282  39.342   6.164
 3904POPC   C1A50571  18.256  39.277   6.464
 3904POPC   D2A50572  18.330  39.240   6.764
 3904POPC   C3A50573  18.266  39.212   7.064
 3904POPC   C4A50574  18.317  39.227   7.364
 3904POPC   C1B50575  18.343  39.497   6.464
 3904POPC   C2B50576  18.371  39.505   6.764
 3904POPC   C3B50577  18.347  39.499   7.064
 3904POPC   C4B50578  18.332  39.461   7.364
 3905POPC   NC350579   3.576   5.045   5.564
 3905POPC   PO450580   3.536   5.046   5.864
 3905POPC   GL150581   3.575   5.074   6.164
 3905POPC   GL250582   3.655   5.228   6.164
 3905POPC   C1A50583   3.557   5.093   6.464
 3905POPC   D2A50584   3.588   5.121   6.764
 3905POPC   C3A50585   3.527   5.124   7.064
 3905POPC   C4A50586   3.493   5.132   7.364
 3905POPC   C1B50587   3.757   5.312   6.464
 3905POPC   C2B50588   3.677   5.316   6.764
 3905POPC   C3B50589   3.721   5.312   7.064
 3905POPC   C4B50590   3.685   5.251   7.364
 3906POPC   NC350591  23.763  19.845   5.564
 3906POPC   PO450592  23.716  19.856   5.864
 3906POPC   GL150593  23.755  19.806   6.164
 3906POPC   GL250594  23.710  19.729   6.164
 3906POPC   C1A50595  23.752  19.884   6.464
 3906POPC   D2A50596  23.745  19.845   6.764
 3906POPC   C3A50597  23.669  19.804   7.064
 3906POPC   C4A50598  23.702  19.840   7.364
 3906POPC   C1B50599  23.730  19.582   6.464
 3906POPC   C2B50600  23.674  19.634   6.764
 3906POPC   C3B50601  23.681  19.567   7.064
 3906POPC   C4B50602  23.766  19.538   7.364
 3907POPC   NC350603  22.935  36.865   5.564
 3907POPC   PO450604  22.910  36.898   5.864
 3907POPC   GL150605  22.957  36.934   6.164
 3907POPC   GL250606  23.067  36.806   6.164
 3907POPC   C1A50607  22.984  36.866   6.464
 3907POPC   D2A50608  22.926  36.927   6.764
 3907POPC   C3A50609  22.974  36.863   7.064
 3907POPC   C4A50610  22.957  36.859   7.364
 3907POPC   C1B50611  23.175  36.717   6.464
 3907POPC   C2B50612  23.099  36.732   6.764
 3907POPC   C3B50613  23.147  36.731   7.064
 3907POPC   C4B50614  23.093  36.713   7.364
 3908POPC   NC350615   6.651  27.578   5.564
 3908POPC   PO450616   6.646  27.566   5.864
 3908POPC   GL150617   6.669  27.642   6.164
 3908POPC   GL250618   6.677  27.442   6.164
 3908POPC   C1A50619   6.651  27.630   6.464
 3908POPC   D2A50620   6.688  27.560   6.764
 3908POPC   C3A50621   6.627  27.606   7.064
 3908POPC   C4A50622   6.626  27.607   7.364
 3908POPC   C1B50623   6.716  27.364   6.464
 3908POPC   C2B50624   6.668  27.385   6.764
 3908POPC   C3B50625   6.685  27.325   7.064
 3908POPC   C4B50626   6.763  27.377   7.364
 3909POPC   NC350627  40.826  41.552   5.564
 3909POPC   PO450628  40.796  41.547   5.864
 3909POPC   GL150629  40.745  41.595   6.164
 3909POPC   GL250630  40.621  41.591   6.164
 3909POPC   C1A50631  40.741  41.548   6.464
 3909POPC   D2A50632  40.758  41.603   6.764
 3909POPC   C3A50633  40.784  41.572   7.064
 3909POPC   C4A50634  40.813  41.576   7.364
 3909POPC   C1B50635  40.602  41.710   6.464
 3909POPC   C2B50636  40.528  41.673   6.764
 3909POPC   C3B50637  40.523  41.656   7.064
 3909POPC   C4B50638  40.520  41.649   7.364
 3910POPC   NC350639  39.227   8.198   5.564
 3910POPC   PO450640  39.247   8.240   5.864
 3910POPC   GL150641  39.187   8.192   6.164
 3910POPC   GL250642  39.256   8.328   6.164
 3910POPC   C1A50643  39.194   8.202   6.464
 3910POPC   D2A50644  39.231   8.245   6.764
 3910POPC   C3A50645  39.206   8.180   7.064
 3910POPC   C4A50646  39.239   8.187   7.364
 3910POPC   C1B50647  39.201   8.413   6.464
 3910POPC   C2B50648  39.201   8.395   6.764
 3910POPC   C3B50649  39.214   8.420   7.064
 3910POPC   C4B50650  39.222   8.412   7.364
 3911POPC   NC350651  33.792  26.849   5.564
 3911POPC   PO450652  33.783  26.783   5.864
 3911POPC   GL150653  33.759  26.832   6.164
 3911POPC   GL250654  33.812  26.738   6.164
 3911POPC   C1A50655  33.774  26.785   6.464
 3911POPC   D2A50656  33.789  26.801   6.764
 3911POPC   C3A50657  33.763  26.865   7.064
 3911POPC   C4A50658  33.809  26.813   7.364
 3911POPC   C1B50659  33.762  26.536   6.464
 3911POPC   C2B50660  33.739  26.540   6.764
 3911POPC   C3B50661  33.781  26.556   7.064
 3911POPC   C4B50662  33.793  26.594   7.364
 3912POPC   NC350663  43.838  41.525   5.564
 3912POPC   PO450664  43.907  41.590   5.864
 3912POPC   GL150665  43.846  41.509   6.164
 3912POPC   GL250666  44.026  41.681   6.164
 3912POPC   C1A50667  43.870  41.603   6.464
 3912POPC   D2A50668  43.868  41.519   6.764
 3912POPC   C3A50669  43.839  41.569   7.064
 3912POPC   C4A50670  43.866  41.577   7.364
 3912POPC   C1B50671  44.115  41.733   6.464
 3912POPC   C2B50672  44.100  41.738   6.764
 3912POPC   C3B50673  44.108  41.745   7.064
 3912POPC   C4B50674  44.129  41.747   7.364
 3913POPC   NC350675  29.943   1.177   5.564
 3913POPC   PO450676  29.918   1.211   5.864
 3913POPC   GL150677  29.886   1.229   6.164
 3913POPC   GL250678  29.800   1.212   6.164
 3913POPC   C1A50679  29.923   1.167   6.464
 3913POPC   D2A50680  29.876   1.209   6.764
 3913POPC   C3A50681  29.937   1.257   7.064
 3913POPC   C4A50682  29.880   1.190   7.364
 3913POPC   C1B50683  29.708   1.174   6.464
 3913POPC   C2B50684  29.637   1.158   6.764
 3913POPC   C3B50685  29.728   1.195   7.064
 3913POPC   C4B50686  29.714   1.165   7.364
 3914POPC   NC350687   8.970  39.979   5.564
 3914POPC   PO450688   8.939  39.986   5.864
 3914POPC   GL150689   8.991  40.010   6.164
 3914POPC   GL250690   9.040  40.026   6.164
 3914POPC   C1A50691   8.979  40.023   6.464
 3914POPC   D2A50692   8.930  39.962   6.764
 3914POPC   C3A50693   9.019  40.042   7.064
 3914POPC   C4A50694   8.996  40.027   7.364
 3914POPC   C1B50695   9.140  40.188   6.464
 3914POPC   C2B50696   9.156  40.098   6.764
 3914POPC   C3B50697   9.222  40.137   7.064
 3914POPC   C4B50698   9.211  40.113   7.364
 3915POPC   NC350699  18.271   5.888   5.564
 3915POPC   PO450700  18.239   5.838   5.864
 3915POPC   GL150701  18.284   5.828   6.164
 3915POPC   GL250702  18.200   5.834   6.164
 3915POPC   C1A50703  18.323   5.900   6.464
 3915POPC   D2A50704  18.272   5.893   6.764
 3915POPC   C3A50705  18.291   5.897   7.064
 3915POPC   C4A50706  18.303   5.907   7.364
 3915POPC   C1B50707  18.145   5.700   6.464
 3915POPC   C2B50708  18.081   5.739   6.764
 3915POPC   C3B50709  18.102   5.661   7.064
 3915POPC   C4B50710  18.141   5.651   7.364
 3916POPC   NC350711  22.974  33.850   5.564
 3916POPC   PO450712  22.948  33.822   5.864
 3916POPC   GL150713  22.949  33.757   6.164
 3916POPC   GL250714  23.015  33.899   6.164
 3916POPC   C1A50715  22.944  33.784   6.464
 3916POPC   D2A50716  22.981  33.793   6.764
 3916POPC   C3A50717  22.899  33.846   7.064
 3916POPC   C4A50718  22.898  33.784   7.364
 3916POPC   C1B50719  23.164  33.927   6.464
 3916POPC   C2B50720  23.154  33.950   6.764
 3916POPC   C3B50721  23.120  33.959   7.064
 3916POPC   C4B50722  23.184  33.937   7.364
 3917POPC   NC350723   8.202   2.729   5.564
 3917POPC   PO450724   8.194   2.785   5.864
 3917POPC   GL150725   8.176   2.744   6.164
 3917POPC   GL250726   8.055   2.862   6.164
 3917POPC   C1A50727   8.233   2.745   6.464
 3917POPC   D2A50728   8.244   2.793   6.764
 3917POPC   C3A50729   8.232   2.807   7.064
 3917POPC   C4A50730   8.180   2.798   7.364
 3917POPC   C1B50731   7.977   2.891   6.464
 3917POPC   C2B50732   8.057   2.903   6.764
 3917POPC   C3B50733   7.992   2.889   7.064
 3917POPC   C4B50734   8.000   2.948   7.364
 3918POPC   NC350735   7.393  18.307   5.564
 3918POPC   PO450736   7.431  18.287   5.864
 3918POPC   GL150737   7.450  18.281   6.164
 3918POPC   GL250738   7.524  18.401   6.164
 3918POPC   C1A50739   7.410  18.314   6.464
 3918POPC   D2A50740   7.453  18.267   6.764
 3918POPC   C3A50741   7.383  18.272   7.064
 3918POPC   C4A50742   7.452  18.235   7.364
 3918POPC   C1B50743   7.598  18.457   6.464
 3918POPC   C2B50744   7.631  18.436   6.764
 3918POPC   C3B50745   7.577  18.403   7.064
 3918POPC   C4B50746   7.575  18.427   7.364
 3919POPC   NC350747  12.042  19.035   5.564
 3919POPC   PO450748  12.062  19.048   5.864
 3919POPC   GL150749  12.061  19.047   6.164
 3919POPC   GL250750  11.928  19.024   6.164
 3919POPC   C1A50751  12.097  19.014   6.464
 3919POPC   D2A50752  12.055  19.102   6.764
 3919POPC   C3A50753  12.098  19.081   7.064
 3919POPC   C4A50754  12.047  19.100   7.364
 3919POPC   C1B50755  11.884  18.866   6.464
 3919POPC   C2B50756  11.904  18.865   6.764
 3919POPC   C3B50757  11.915  18.895   7.064
 3919POPC   C4B50758  11.844  18.900   7.364
 3920POPC   NC350759   8.990  43.934   5.564
 3920POPC   PO450760   9.015  43.920   5.864
 3920POPC   GL150761   8.982  43.910   6.164
 3920POPC   GL250762   8.898  43.722   6.164
 3920POPC   C1A50763   8.959  43.932   6.464
 3920POPC   D2A50764   9.013  43.887   6.764
 3920POPC   C3A50765   8.931  43.866   7.064
 3920POPC   C4A50766   9.002  43.868   7.364
 3920POPC   C1B50767   8.889  43.686   6.464
 3920POPC   C2B50768   8.835  43.613   6.764
 3920POPC   C3B50769   8.832  43.694   7.064
 3920POPC   C4B50770   8.861  43.622   7.364
 3921POPC   NC350771  36.929  44.665   5.564
 3921POPC   PO450772  36.899  44.710   5.864
 3921POPC   GL150773  36.890  44.689   6.164
 3921POPC   GL250774  36.961  44.528   6.164
 3921POPC   C1A50775  36.862  44.671   6.464
 3921POPC   D2A50776  36.861  44.641   6.764
 3921POPC   C3A50777  36.883  44.664   7.064
 3921POPC   C4A50778  36.865  44.650   7.364
 3921POPC   C1B50779  37.006  44.391   6.464
 3921POPC   C2B50780  36.935  44.438   6.764
 3921POPC   C3B50781  36.930  44.455   7.064
 3921POPC   C4B50782  36.975  44.439   7.364
 3922POPC   NC350783  26.008  36.176   5.564
 3922POPC   PO450784  26.026  36.163   5.864
 3922POPC   GL150785  26.076  36.164   6.164
 3922POPC   GL250786  25.930  36.231   6.164
 3922POPC   C1A50787  26.030  36.161   6.464
 3922POPC   D2A50788  26.013  36.119   6.764
 3922POPC   C3A50789  26.052  36.138   7.064
 3922POPC   C4A50790  26.004  36.174   7.364
 3922POPC   C1B50791  25.891  36.310   6.464
 3922POPC   C2B50792  25.914  36.333   6.764
 3922POPC   C3B50793  25.894  36.335   7.064
 3922POPC   C4B50794  25.947  36.328   7.364
 3923POPC   NC350795  10.544  17.480   5.564
 3923POPC   PO450796  10.524  17.461   5.864
 3923POPC   GL150797  10.572  17.526   6.164
 3923POPC   GL250798  10.678  17.515   6.164
 3923POPC   C1A50799  10.521  17.496   6.464
 3923POPC   D2A50800  10.527  17.539   6.764
 3923POPC   C3A50801  10.494  17.465   7.064
 3923POPC   C4A50802  10.524  17.476   7.364
 3923POPC   C1B50803  10.781  17.483   6.464
 3923POPC   C2B50804  10.755  17.406   6.764
 3923POPC   C3B50805  10.773  17.407   7.064
 3923POPC   C4B50806  10.761  17.409   7.364
 3924POPC   NC350807  22.929  32.263   5.564
 3924POPC   PO450808  22.936  32.290   5.864
 3924POPC   GL150809  22.921  32.271   6.164
 3924POPC   GL250810  23.051  32.316   6.164
 3924POPC   C1A50811  22.965  32.220   6.464
 3924POPC   D2A50812  22.921  32.213   6.764
 3924POPC   C3A50813  22.976  32.209   7.064
 3924POPC   C4A50814  22.983  32.270   7.364
 3924POPC   C1B50815  23.146  32.304   6.464
 3924POPC   C2B50816  23.128  32.355   6.764
 3924POPC   C3B50817  23.208  32.314   7.064
 3924POPC   C4B50818  23.221  32.299   7.364
 3925POPC   NC350819   0.395  32.225   5.564
 3925POPC   PO450820   0.450  32.219   5.864
 3925POPC   GL150821   0.395  32.203   6.164
 3925POPC   GL250822   0.436  32.122   6.164
 3925POPC   C1A50823   0.466  32.218   6.464
 3925POPC   D2A50824   0.444  32.222   6.764
 3925POPC   C3A50825   0.392  32.238   7.064
 3925POPC   C4A50826   0.420  32.201   7.364
 3925POPC   C1B50827   0.454  31.954   6.464
 3925POPC   C2B50828   0.444  31.976   6.764
 3925POPC   C3B50829   0.361  32.040   7.064
 3925POPC   C4B50830   0.398  32.011   7.364
 3926POPC   NC350831  11.297  16.775   5.564
 3926POPC   PO450832  11.269  16.684   5.864
 3926POPC   GL150833  11.306  16.733   6.164
 3926POPC   GL250834  11.201  16.743   6.164
 3926POPC   C1A50835  11.274  16.681   6.464
 3926POPC   D2A50836  11.281  16.705   6.764
 3926POPC   C3A50837  11.324  16.739   7.064
 3926POPC   C4A50838  11.325  16.699   7.364
 3926POPC   C1B50839  11.023  16.626   6.464
 3926POPC   C2B50840  11.074  16.651   6.764
 3926POPC   C3B50841  11.110  16.702   7.064
 3926POPC   C4B50842  11.104  16.658   7.364
 3927POPC   NC350843   3.520  44.685   5.564
 3927POPC   PO450844   3.539  44.620   5.864
 3927POPC   GL150845   3.513  44.645   6.164
 3927POPC   GL250846   3.372  44.709   6.164
 3927POPC   C1A50847   3.517  44.653   6.464
 3927POPC   D2A50848   3.503  44.712   6.764
 3927POPC   C3A50849   3.504  44.650   7.064
 3927POPC   C4A50850   3.507  44.702   7.364
 3927POPC   C1B50851   3.337  44.726   6.464
 3927POPC   C2B50852   3.271  44.722   6.764
 3927POPC   C3B50853   3.293  44.771   7.064
 3927POPC   C4B50854   3.339  44.763   7.364
 3928POPC   NC350855  18.285   7.417   5.564
 3928POPC   PO450856  18.328   7.425   5.864
 3928POPC   GL150857  18.256   7.423   6.164
 3928POPC   GL250858  18.355   7.377   6.164
 3928POPC   C1A50859  18.265   7.376   6.464
 3928POPC   D2A50860  18.237   7.398   6.764
 3928POPC   C3A50861  18.251   7.411   7.064
 3928POPC   C4A50862  18.294   7.435   7.364
 3928POPC   C1B50863  18.464   7.338   6.464
 3928POPC   C2B50864  18.521   7.249   6.764
 3928POPC   C3B50865  18.471   7.286   7.064
 3928POPC   C4B50866  18.457   7.298   7.364
 3929POPC   NC350867  22.167  29.133   5.564
 3929POPC   PO450868  22.184  29.141   5.864
 3929POPC   GL150869  22.124  29.129   6.164
 3929POPC   GL250870  22.134  29.039   6.164
 3929POPC   C1A50871  22.205  29.173   6.464
 3929POPC   D2A50872  22.173  29.122   6.764
 3929POPC   C3A50873  22.174  29.100   7.064
 3929POPC   C4A50874  22.132  29.179   7.364
 3929POPC   C1B50875  22.148  28.896   6.464
 3929POPC   C2B50876  22.147  28.904   6.764
 3929POPC   C3B50877  22.158  28.902   7.064
 3929POPC   C4B50878  22.166  28.911   7.364
 3930POPC   NC350879  33.776  38.422   5.564
 3930POPC   PO450880  33.823  38.444   5.864
 3930POPC   GL150881  33.795  38.422   6.164
 3930POPC   GL250882  33.888  38.595   6.164
 3930POPC   C1A50883  33.765  38.436   6.464
 3930POPC   D2A50884  33.781  38.405   6.764
 3930POPC   C3A50885  33.834  38.468   7.064
 3930POPC   C4A50886  33.777  38.422   7.364
 3930POPC   C1B50887  33.949  38.665   6.464
 3930POPC   C2B50888  33.923  38.620   6.764
 3930POPC   C3B50889  33.956  38.601   7.064
 3930POPC   C4B50890  33.970  38.687   7.364
 3931POPC   NC350891  12.037  22.967   5.564
 3931POPC   PO450892  12.093  22.913   5.864
 3931POPC   GL150893  12.125  22.896   6.164
 3931POPC   GL250894  11.978  22.807   6.164
 3931POPC   C1A50895  12.074  22.946   6.464
 3931POPC   D2A50896  12.063  22.925   6.764
 3931POPC   C3A50897  12.028  22.929   7.064
 3931POPC   C4A50898  12.100  22.972   7.364
 3931POPC   C1B50899  11.928  22.782   6.464
 3931POPC   C2B50900  11.848  22.813   6.764
 3931POPC   C3B50901  11.926  22.767   7.064
 3931POPC   C4B50902  11.903  22.816   7.364
 3932POPC   NC350903  26.085  26.783   5.564
 3932POPC   PO450904  26.013  26.861   5.864
 3932POPC   GL150905  26.037  26.811   6.164
 3932POPC   GL250906  26.103  26.765   6.164
 3932POPC   C1A50907  26.014  26.838   6.464
 3932POPC   D2A50908  26.001  26.866   6.764
 3932POPC   C3A50909  26.013  26.801   7.064
 3932POPC   C4A50910  26.013  26.799   7.364
 3932POPC   C1B50911  26.209  26.704   6.464
 3932POPC   C2B50912  26.302  26.646   6.764
 3932POPC   C3B50913  26.249  26.704   7.064
 3932POPC   C4B50914  26.248  26.656   7.364
 3933POPC   NC350915  32.206  15.153   5.564
 3933POPC   PO450916  32.285  15.170   5.864
 3933POPC   GL150917  32.265  15.140   6.164
 3933POPC   GL250918  32.136  15.261   6.164
 3933POPC   C1A50919  32.239  15.194   6.464
 3933POPC   D2A50920  32.289  15.186   6.764
 3933POPC   C3A50921  32.227  15.144   7.064
 3933POPC   C4A50922  32.234  15.161   7.364
 3933POPC   C1B50923  32.043  15.238   6.464
 3933POPC   C2B50924  32.008  15.305   6.764
 3933POPC   C3B50925  32.036  15.291   7.064
 3933POPC   C4B50926  31.995  15.233   7.364
 3934POPC   NC350927  16.682  39.999   5.564
 3934POPC   PO450928  16.711  39.995   5.864
 3934POPC   GL150929  16.682  39.972   6.164
 3934POPC   GL250930  16.797  40.151   6.164
 3934POPC   C1A50931  16.739  40.029   6.464
 3934POPC   D2A50932  16.737  39.972   6.764
 3934POPC   C3A50933  16.681  40.036   7.064
 3934POPC   C4A50934  16.769  39.992   7.364
 3934POPC   C1B50935  16.824  40.232   6.464
 3934POPC   C2B50936  16.799  40.248   6.764
 3934POPC   C3B50937  16.849  40.249   7.064
 3934POPC   C4B50938  16.831  40.216   7.364
 3935POPC   NC350939   3.589  22.977   5.564
 3935POPC   PO450940   3.552  22.972   5.864
 3935POPC   GL150941   3.586  22.960   6.164
 3935POPC   GL250942   3.544  23.082   6.164
 3935POPC   C1A50943   3.554  22.948   6.464
 3935POPC   D2A50944   3.572  22.946   6.764
 3935POPC   C3A50945   3.581  22.943   7.064
 3935POPC   C4A50946   3.552  22.952   7.364
 3935POPC   C1B50947   3.585  23.203   6.464
 3935POPC   C2B50948   3.636  23.184   6.764
 3935POPC   C3B50949   3.594  23.131   7.064
 3935POPC   C4B50950   3.583  23.160   7.364
 3936POPC   NC350951   7.393  44.613   5.564
 3936POPC   PO450952   7.444  44.623   5.864
 3936POPC   GL150953   7.457  44.629   6.164
 3936POPC   GL250954   7.543  44.666   6.164
 3936POPC   C1A50955   7.434  44.664   6.464
 3936POPC   D2A50956   7.450  44.686   6.764
 3936POPC   C3A50957   7.456  44.628   7.064
 3936POPC   C4A50958   7.444  44.634   7.364
 3936POPC   C1B50959   7.654  44.591   6.464
 3936POPC   C2B50960   7.662  44.581   6.764
 3936POPC   C3B50961   7.631  44.593   7.064
 3936POPC   C4B50962   7.660  44.590   7.364
 3937POPC   NC350963  23.715  36.953   5.564
 3937POPC   PO450964  23.749  36.855   5.864
 3937POPC   GL150965  23.707  36.928   6.164
 3937POPC   GL250966  23.716  37.006   6.164
 3937POPC   C1A50967  23.740  36.941   6.464
 3937POPC   D2A50968  23.746  36.913   6.764
 3937POPC   C3A50969  23.741  36.856   7.064
 3937POPC   C4A50970  23.753  36.938   7.364
 3937POPC   C1B50971  23.761  37.159   6.464
 3937POPC   C2B50972  23.816  37.127   6.764
 3937POPC   C3B50973  23.793  37.140   7.064
 3937POPC   C4B50974  23.823  37.098   7.364
 3938POPC   NC350975  19.083  33.065   5.564
 3938POPC   PO450976  19.027  32.989   5.864
 3938POPC   GL150977  19.038  33.011   6.164
 3938POPC   GL250978  19.120  32.946   6.164
 3938POPC   C1A50979  19.023  33.019   6.464
 3938POPC   D2A50980  19.034  33.058   6.764
 3938POPC   C3A50981  19.058  33.067   7.064
 3938POPC   C4A50982  19.078  32.977   7.364
 3938POPC   C1B50983  19.096  32.750   6.464
 3938POPC   C2B50984  19.155  32.821   6.764
 3938POPC   C3B50985  19.143  32.746   7.064
 3938POPC   C4B50986  19.117  32.734   7.364
 3939POPC   NC350987   6.653  17.514   5.564
 3939POPC   PO450988   6.625  17.542   5.864
 3939POPC   GL150989   6.623  17.532   6.164
 3939POPC   GL250990   6.600  17.385   6.164
 3939POPC   C1A50991   6.618  17.523   6.464
 3939POPC   D2A50992   6.687  17.519   6.764
 3939POPC   C3A50993   6.658  17.548   7.064
 3939POPC   C4A50994   6.682  17.476   7.364
 3939POPC   C1B50995   6.516  17.248   6.464
 3939POPC   C2B50996   6.550  17.287   6.764
 3939POPC   C3B50997   6.571  17.316   7.064
 3939POPC   C4B50998   6.529  17.303   7.364
 3940POPC   NC350999   7.427  22.201   5.564
 3940POPC   PO451000   7.436  22.149   5.864
 3940POPC   GL151001   7.443  22.171   6.164
 3940POPC   GL251002   7.513  22.295   6.164
 3940POPC   C1A51003   7.413  22.180   6.464
 3940POPC   D2A51004   7.416  22.165   6.764
 3940POPC   C3A51005   7.389  22.130   7.064
 3940POPC   C4A51006   7.412  22.175   7.364
 3940POPC   C1B51007   7.602  22.318   6.464
 3940POPC   C2B51008   7.580  22.347   6.764
 3940POPC   C3B51009   7.529  22.393   7.064
 3940POPC   C4B51010   7.615  22.336   7.364
 3941POPC   NC351011  12.076  42.287   5.564
 3941POPC   PO451012  12.109  42.384   5.864
 3941POPC   GL151013  12.122  42.366   6.164
 3941POPC   GL251014  12.187  42.365   6.164
 3941POPC   C1A51015  12.063  42.323   6.464
 3941POPC   D2A51016  12.088  42.290   6.764
 3941POPC   C3A51017  12.062  42.345   7.064
 3941POPC   C4A51018  12.064  42.329   7.364
 3941POPC   C1B51019  12.293  42.378   6.464
 3941POPC   C2B51020  12.362  42.330   6.764
 3941POPC   C3B51021  12.324  42.333   7.064
 3941POPC   C4B51022  12.372  42.341   7.364
 3942POPC   NC351023  38.440  36.921   5.564
 3942POPC   PO451024  38.406  36.885   5.864
 3942POPC   GL151025  38.480  36.876   6.164
 3942POPC   GL251026  38.503  37.016   6.164
 3942POPC   C1A51027  38.431  36.882   6.464
 3942POPC   D2A51028  38.484  36.930   6.764
 3942POPC   C3A51029  38.407  36.874   7.064
 3942POPC   C4A51030  38.458  36.863   7.364
 3942POPC   C1B51031  38.609  37.044   6.464
 3942POPC   C2B51032  38.627  37.067   6.764
 3942POPC   C3B51033  38.657  37.118   7.064
 3942POPC   C4B51034  38.635  37.033   7.364
 3943POPC   NC351035  32.206  14.365   5.564
 3943POPC   PO451036  32.269  14.380   5.864
 3943POPC   GL151037  32.274  14.373   6.164
 3943POPC   GL251038  32.392  14.353   6.164
 3943POPC   C1A51039  32.251  14.420   6.464
 3943POPC   D2A51040  32.278  14.364   6.764
 3943POPC   C3A51041  32.293  14.356   7.064
 3943POPC   C4A51042  32.216  14.439   7.364
 3943POPC   C1B51043  32.446  14.319   6.464
 3943POPC   C2B51044  32.431  14.327   6.764
 3943POPC   C3B51045  32.503  14.326   7.064
 3943POPC   C4B51046  32.496  14.248   7.364
 3944POPC   NC351047   5.061  11.283   5.564
 3944POPC   PO451048   5.122  11.266   5.864
 3944POPC   GL151049   5.074  11.294   6.164
 3944POPC   GL251050   5.078  11.133   6.164
 3944POPC   C1A51051   5.080  11.256   6.464
 3944POPC   D2A51052   5.083  11.270   6.764
 3944POPC   C3A51053   5.143  11.272   7.064
 3944POPC   C4A51054   5.075  11.274   7.364
 3944POPC   C1B51055   5.125  11.052   6.464
 3944POPC   C2B51056   5.085  11.017   6.764
 3944POPC   C3B51057   5.088  11.094   7.064
 3944POPC   C4B51058   5.119  11.046   7.364
 3945POPC   NC351059  40.039   9.789   5.564
 3945POPC   PO451060  40.039   9.716   5.864
 3945POPC   GL151061  39.996   9.746   6.164
 3945POPC   GL251062  40.152   9.725   6.164
 3945POPC   C1A51063  40.054   9.702   6.464
 3945POPC   D2A51064  40.029   9.724   6.764
 3945POPC   C3A51065  40.019   9.771   7.064
 3945POPC   C4A51066  39.976   9.743   7.364
 3945POPC   C1B51067  40.298   9.742   6.464
 3945POPC   C2B51068  40.244   9.734   6.764
 3945POPC   C3B51069  40.299   9.765   7.064
 3945POPC   C4B51070  40.293   9.722   7.364
 3946POPC   NC351071  15.918  26.017   5.564
 3946POPC   PO451072  15.924  26.035   5.864
 3946POPC   GL151073  15.989  26.089   6.164
 3946POPC   GL251074  15.837  25.969   6.164
 3946POPC   C1A51075  15.947  26.029   6.464
 3946POPC   D2A51076  15.998  26.026   6.764
 3946POPC   C3A51077  15.918  25.995   7.064
 3946POPC   C4A51078  15.913  26.069   7.364
 3946POPC   C1B51079  15.687  25.940   6.464
 3946POPC   C2B51080  15.760  26.033   6.764
 3946POPC   C3B51081  15.714  25.951   7.064
 3946POPC   C4B51082  15.717  25.946   7.364
 3947POPC   NC351083  36.170  13.594   5.564
 3947POPC   PO451084  36.119  13.660   5.864
 3947POPC   GL151085  36.084  13.605   6.164
 3947POPC   GL251086  36.181  13.564   6.164
 3947POPC   C1A51087  36.132  13.601   6.464
 3947POPC   D2A51088  36.154  13.651   6.764
 3947POPC   C3A51089  36.144  13.592   7.064
 3947POPC   C4A51090  36.177  13.630   7.364
 3947POPC   C1B51091  36.300  13.410   6.464
 3947POPC   C2B51092  36.251  13.397   6.764
 3947POPC   C3B51093  36.284  13.448   7.064
 3947POPC   C4B51094  36.235  13.399   7.364
 3948POPC   NC351095  44.625   2.016   5.564
 3948POPC   PO451096  44.687   2.038   5.864
 3948POPC   GL151097  44.667   1.959   6.164
 3948POPC   GL251098  44.706   2.080   6.164
 3948POPC   C1A51099  44.686   2.021   6.464
 3948POPC   D2A51100  44.688   2.013   6.764
 3948POPC   C3A51101  44.614   1.966   7.064
 3948POPC   C4A51102  44.650   1.985   7.364
 3948POPC   C1B51103  44.853   2.213   6.464
 3948POPC   C2B51104  44.794   2.150   6.764
 3948POPC   C3B51105  44.831   2.142   7.064
 3948POPC   C4B51106  44.787   2.147   7.364
 3949POPC   NC351107  10.492  43.066   5.564
 3949POPC   PO451108  10.477  43.107   5.864
 3949POPC   GL151109  10.546  43.095   6.164
 3949POPC   GL251110  10.495  43.249   6.164
 3949POPC   C1A51111  10.537  43.077   6.464
 3949POPC   D2A51112  10.504  43.078   6.764
 3949POPC   C3A51113  10.483  43.097   7.064
 3949POPC   C4A51114  10.480  43.069   7.364
 3949POPC   C1B51115  10.503  43.336   6.464
 3949POPC   C2B51116  10.514  43.401   6.764
 3949POPC   C3B51117  10.449  43.348   7.064
 3949POPC   C4B51118  10.473  43.333   7.364
 3950POPC   NC351119  29.157  23.721   5.564
 3950POPC   PO451120  29.175  23.690   5.864
 3950POPC   GL151121  29.123  23.693   6.164
 3950POPC   GL251122  29.101  23.794   6.164
 3950POPC   C1A51123  29.185  23.687   6.464
 3950POPC   D2A51124  29.171  23.684   6.764
 3950POPC   C3A51125  29.193  23.730   7.064
 3950POPC   C4A51126  29.101  23.751   7.364
 3950POPC   C1B51127  29.086  23.960   6.464
 3950POPC   C2B51128  29.066  23.948   6.764
 3950POPC   C3B51129  29.046  23.985   7.064
 3950POPC   C4B51130  29.031  23.988   7.364
 3951POPC   NC351131  36.080   7.405   5.564
 3951POPC   PO451132  36.081   7.410   5.864
 3951POPC   GL151133  36.103   7.390   6.164
 3951POPC   GL251134  36.180   7.515   6.164
 3951POPC   C1A51135  36.159   7.398   6.464
 3951POPC   D2A51136  36.087   7.446   6.764
 3951POPC   C3A51137  36.121   7.422   7.064
 3951POPC   C4A51138  36.134   7.387   7.364
 3951POPC   C1B51139  36.104   7.637   6.464
 3951POPC   C2B51140  36.162   7.659   6.764
 3951POPC   C3B51141  36.089   7.658   7.064
 3951POPC   C4B51142  36.139   7.642   7.364
 3952POPC   NC351143  15.928  30.663   5.564
 3952POPC   PO451144  15.984  30.669   5.864
 3952POPC   GL151145  16.001  30.671   6.164
 3952POPC   GL251146  16.073  30.653   6.164
 3952POPC   C1A51147  15.979  30.736   6.464
 3952POPC   D2A51148  15.949  30.691   6.764
 3952POPC   C3A51149  15.905  30.701   7.064
 3952POPC   C4A51150  15.922  30.723   7.364
 3952POPC   C1B51151  16.180  30.673   6.464
 3952POPC   C2B51152  16.204  30.698   6.764
 3952POPC   C3B51153  16.232  30.668   7.064
 3952POPC   C4B51154  16.174  30.635   7.364
 3953POPC   NC351155   6.652  25.263   5.564
 3953POPC   PO451156   6.687  25.300   5.864
 3953POPC   GL151157   6.640  25.227   6.164
 3953POPC   GL251158   6.658  25.176   6.164
 3953POPC   C1A51159   6.623  25.286   6.464
 3953POPC   D2A51160   6.662  25.231   6.764
 3953POPC   C3A51161   6.678  25.261   7.064
 3953POPC   C4A51162   6.599  25.264   7.364
 3953POPC   C1B51163   6.722  24.995   6.464
 3953POPC   C2B51164   6.744  25.010   6.764
 3953POPC   C3B51165   6.747  25.069   7.064
 3953POPC   C4B51166   6.735  25.009   7.364
 3954POPC   NC351167  16.755  23.729   5.564
 3954POPC   PO451168  16.725  23.714   5.864
 3954POPC   GL151169  16.703  23.675   6.164
 3954POPC   GL251170  16.619  23.794   6.164
 3954POPC   C1A51171  16.775  23.726   6.464
 3954POPC   D2A51172  16.681  23.710   6.764
 3954POPC   C3A51173  16.771  23.684   7.064
 3954POPC   C4A51174  16.698  23.700   7.364
 3954POPC   C1B51175  16.497  23.818   6.464
 3954POPC   C2B51176  16.539  23.889   6.764
 3954POPC   C3B51177  16.494  23.853   7.064
 3954POPC   C4B51178  16.522  23.871   7.364
 3955POPC   NC351179  36.082  42.347   5.564
 3955POPC   PO451180  36.156  42.305   5.864
 3955POPC   GL151181  36.124  42.380   6.164
 3955POPC   GL251182  36.019  42.303   6.164
 3955POPC   C1A51183  36.175  42.329   6.464
 3955POPC   D2A51184  36.135  42.334   6.764
 3955POPC   C3A51185  36.105  42.301   7.064
 3955POPC   C4A51186  36.129  42.357   7.364
 3955POPC   C1B51187  35.920  42.190   6.464
 3955POPC   C2B51188  35.911  42.205   6.764
 3955POPC   C3B51189  35.929  42.257   7.064
 3955POPC   C4B51190  35.851  42.239   7.364
 3956POPC   NC351191  25.271  29.904   5.564
 3956POPC   PO451192  25.216  29.882   5.864
 3956POPC   GL151193  25.223  29.897   6.164
 3956POPC   GL251194  25.251  29.843   6.164
 3956POPC   C1A51195  25.223  29.928   6.464
 3956POPC   D2A51196  25.275  29.898   6.764
 3956POPC   C3A51197  25.263  29.952   7.064
 3956POPC   C4A51198  25.310  29.885   7.364
 3956POPC   C1B51199  25.257  29.713   6.464
 3956POPC   C2B51200  25.340  29.648   6.764
 3956POPC   C3B51201  25.344  29.652   7.064
 3956POPC   C4B51202  25.336  29.681   7.364
 3957POPC   NC351203   7.449  15.212   5.564
 3957POPC   PO451204   7.411  15.136   5.864
 3957POPC   GL151205   7.451  15.212   6.164
 3957POPC   GL251206   7.278  15.227   6.164
 3957POPC   C1A51207   7.456  15.171   6.464
 3957POPC   D2A51208   7.381  15.204   6.764
 3957POPC   C3A51209   7.465  15.191   7.064
 3957POPC   C4A51210   7.385  15.205   7.364
 3957POPC   C1B51211   7.210  15.264   6.464
 3957POPC   C2B51212   7.218  15.282   6.764
 3957POPC   C3B51213   7.156  15.258   7.064
 3957POPC   C4B51214   7.216  15.235   7.364
 3958POPC   NC351215  33.038  39.199   5.564
 3958POPC   PO451216  32.985  39.276   5.864
 3958POPC   GL151217  33.026  39.276   6.164
 3958POPC   GL251218  33.034  39.133   6.164
 3958POPC   C1A51219  33.051  39.203   6.464
 3958POPC   D2A51220  33.006  39.267   6.764
 3958POPC   C3A51221  33.058  39.271   7.064
 3958POPC   C4A51222  32.981  39.200   7.364
 3958POPC   C1B51223  32.979  38.989   6.464
 3958POPC   C2B51224  32.985  39.004   6.764
 3958POPC   C3B51225  33.016  38.998   7.064
 3958POPC   C4B51226  33.010  38.948   7.364
 3959POPC   NC351227   0.480   1.189   5.564
 3959POPC   PO451228   0.399   1.175   5.864
 3959POPC   GL151229   0.436   1.212   6.164
 3959POPC   GL251230   0.370   1.110   6.164
 3959POPC   C1A51231   0.487   1.226   6.464
 3959POPC   D2A51232   0.486   1.184   6.764
 3959POPC   C3A51233   0.425   1.169   7.064
 3959POPC   C4A51234   0.461   1.236   7.364
 3959POPC   C1B51235   0.295   1.080   6.464
 3959POPC   C2B51236   0.272   1.031   6.764
 3959POPC   C3B51237   0.232   1.022   7.064
 3959POPC   C4B51238   0.243   1.071   7.364
 3960POPC   NC351239  17.482  37.710   5.564
 3960POPC   PO451240  17.543  37.687   5.864
 3960POPC   GL151241  17.514  37.690   6.164
 3960POPC   GL251242  17.391  37.721   6.164
 3960POPC   C1A51243  17.540  37.710   6.464
 3960POPC   D2A51244  17.528  37.666   6.764
 3960POPC   C3A51245  17.544  37.674   7.064
 3960POPC   C4A51246  17.477  37.694   7.364
 3960POPC   C1B51247  17.280  37.760   6.464
 3960POPC   C2B51248  17.309  37.775   6.764
 3960POPC   C3B51249  17.262  37.826   7.064
 3960POPC   C4B51250  17.243  37.844   7.364
 3961POPC   NC351251  11.311  38.448   5.564
 3961POPC   PO451252  11.251  38.473   5.864
 3961POPC   GL151253  11.276  38.504   6.164
 3961POPC   GL251254  11.388  38.361   6.164
 3961POPC   C1A51255  11.324  38.491   6.464
 3961POPC   D2A51256  11.276  38.491   6.764
 3961POPC   C3A51257  11.348  38.495   7.064
 3961POPC   C4A51258  11.329  38.455   7.364
 3961POPC   C1B51259  11.500  38.302   6.464
 3961POPC   C2B51260  11.533  38.328   6.764
 3961POPC   C3B51261  11.540  38.286   7.064
 3961POPC   C4B51262  11.502  38.342   7.364
 3962POPC   NC351263  24.516  43.159   5.564
 3962POPC   PO451264  24.483  43.077   5.864
 3962POPC   GL151265  24.510  43.065   6.164
 3962POPC   GL251266  24.606  43.116   6.164
 3962POPC   C1A51267  24.449  43.105   6.464
 3962POPC   D2A51268  24.504  43.064   6.764
 3962POPC   C3A51269  24.505  43.155   7.064
 3962POPC   C4A51270  24.462  43.076   7.364
 3962POPC   C1B51271  24.763  43.154   6.464
 3962POPC   C2B51272  24.680  43.153   6.764
 3962POPC   C3B51273  24.714  43.189   7.064
 3962POPC   C4B51274  24.721  43.168   7.364
 3963POPC   NC351275  24.513   9.761   5.564
 3963POPC   PO451276  24.523   9.758   5.864
 3963POPC   GL151277  24.535   9.760   6.164
 3963POPC   GL251278  24.487   9.900   6.164
 3963POPC   C1A51279  24.499   9.765   6.464
 3963POPC   D2A51280  24.446   9.741   6.764
 3963POPC   C3A51281  24.505   9.790   7.064
 3963POPC   C4A51282  24.492   9.705   7.364
 3963POPC   C1B51283  24.411   9.972   6.464
 3963POPC   C2B51284  24.452   9.975   6.764
 3963POPC   C3B51285  24.433   9.989   7.064
 3963POPC   C4B51286  24.419   9.956   7.364
 3964POPC   NC351287  12.810  44.617   5.564
 3964POPC   PO451288  12.807  44.644   5.864
 3964POPC   GL151289  12.876  44.707   6.164
 3964POPC   GL251290  12.923  44.577   6.164
 3964POPC   C1A51291  12.822  44.619   6.464
 3964POPC   D2A51292  12.807  44.641   6.764
 3964POPC   C3A51293  12.853  44.663   7.064
 3964POPC   C4A51294  12.861  44.666   7.364
 3964POPC   C1B51295  13.045  44.492   6.464
 3964POPC   C2B51296  13.041  44.471   6.764
 3964POPC   C3B51297  12.955  44.475   7.064
 3964POPC   C4B51298  12.997  44.459   7.364
 3965POPC   NC351299   6.656  21.432   5.564
 3965POPC   PO451300   6.691  21.400   5.864
 3965POPC   GL151301   6.653  21.348   6.164
 3965POPC   GL251302   6.549  21.346   6.164
 3965POPC   C1A51303   6.666  21.400   6.464
 3965POPC   D2A51304   6.669  21.344   6.764
 3965POPC   C3A51305   6.649  21.341   7.064
 3965POPC   C4A51306   6.695  21.421   7.364
 3965POPC   C1B51307   6.388  21.314   6.464
 3965POPC   C2B51308   6.367  21.254   6.764
 3965POPC   C3B51309   6.371  21.332   7.064
 3965POPC   C4B51310   6.389  21.246   7.364
 3966POPC   NC351311   2.026  40.018   5.564
 3966POPC   PO451312   1.969  40.056   5.864
 3966POPC   GL151313   2.023  40.028   6.164
 3966POPC   GL251314   1.864  39.928   6.164
 3966POPC   C1A51315   1.967  40.046   6.464
 3966POPC   D2A51316   1.940  40.044   6.764
 3966POPC   C3A51317   1.971  39.971   7.064
 3966POPC   C4A51318   2.008  40.045   7.364
 3966POPC   C1B51319   1.815  39.872   6.464
 3966POPC   C2B51320   1.780  39.806   6.764
 3966POPC   C3B51321   1.745  39.832   7.064
 3966POPC   C4B51322   1.757  39.821   7.364
 3967POPC   NC351323  35.329  10.512   5.564
 3967POPC   PO451324  35.360  10.549   5.864
 3967POPC   GL151325  35.400  10.515   6.164
 3967POPC   GL251326  35.495  10.549   6.164
 3967POPC   C1A51327  35.307  10.501   6.464
 3967POPC   D2A51328  35.329  10.511   6.764
 3967POPC   C3A51329  35.330  10.499   7.064
 3967POPC   C4A51330  35.346  10.541   7.364
 3967POPC   C1B51331  35.608  10.620   6.464
 3967POPC   C2B51332  35.615  10.656   6.764
 3967POPC   C3B51333  35.573  10.643   7.064
 3967POPC   C4B51334  35.622  10.632   7.364
 3968POPC   NC351335  23.713  33.781   5.564
 3968POPC   PO451336  23.724  33.763   5.864
 3968POPC   GL151337  23.705  33.835   6.164
 3968POPC   GL251338  23.738  33.640   6.164
 3968POPC   C1A51339  23.757  33.754   6.464
 3968POPC   D2A51340  23.687  33.805   6.764
 3968POPC   C3A51341  23.747  33.818   7.064
 3968POPC   C4A51342  23.673  33.816   7.364
 3968POPC   C1B51343  23.698  33.538   6.464
 3968POPC   C2B51344  23.651  33.558   6.764
 3968POPC   C3B51345  23.712  33.538   7.064
 3968POPC   C4B51346  23.664  33.514   7.364
 3969POPC   NC351347  13.593  39.252   5.564
 3969POPC   PO451348  13.665  39.195   5.864
 3969POPC   GL151349  13.592  39.187   6.164
 3969POPC   GL251350  13.696  39.290   6.164
 3969POPC   C1A51351  13.630  39.200   6.464
 3969POPC   D2A51352  13.607  39.194   6.764
 3969POPC   C3A51353  13.597  39.199   7.064
 3969POPC   C4A51354  13.675  39.273   7.364
 3969POPC   C1B51355  13.848  39.383   6.464
 3969POPC   C2B51356  13.802  39.304   6.764
 3969POPC   C3B51357  13.823  39.309   7.064
 3969POPC   C4B51358  13.818  39.323   7.364
 3970POPC   NC351359  19.810  14.412   5.564
 3970POPC   PO451360  19.823  14.439   5.864
 3970POPC   GL151361  19.816  14.399   6.164
 3970POPC   GL251362  19.900  14.290   6.164
 3970POPC   C1A51363  19.846  14.375   6.464
 3970POPC   D2A51364  19.874  14.373   6.764
 3970POPC   C3A51365  19.851  14.401   7.064
 3970POPC   C4A51366  19.878  14.378   7.364
 3970POPC   C1B51367  19.952  14.264   6.464
 3970POPC   C2B51368  20.043  14.172   6.764
 3970POPC   C3B51369  20.045  14.258   7.064
 3970POPC   C4B51370  19.953  14.257   7.364
 3971POPC   NC351371  13.590  39.987   5.564
 3971POPC   PO451372  13.588  39.987   5.864
 3971POPC   GL151373  13.626  40.042   6.164
 3971POPC   GL251374  13.648  40.114   6.164
 3971POPC   C1A51375  13.588  40.053   6.464
 3971POPC   D2A51376  13.578  40.053   6.764
 3971POPC   C3A51377  13.631  40.054   7.064
 3971POPC   C4A51378  13.658  40.008   7.364
 3971POPC   C1B51379  13.609  40.221   6.464
 3971POPC   C2B51380  13.607  40.228   6.764
 3971POPC   C3B51381  13.596  40.230   7.064
 3971POPC   C4B51382  13.582  40.212   7.364
 3972POPC   NC351383  14.416  22.925   5.564
 3972POPC   PO451384  14.446  22.928   5.864
 3972POPC   GL151385  14.396  22.943   6.164
 3972POPC   GL251386  14.345  22.844   6.164
 3972POPC   C1A51387  14.386  22.898   6.464
 3972POPC   D2A51388  14.400  22.932   6.764
 3972POPC   C3A51389  14.386  22.915   7.064
 3972POPC   C4A51390  14.418  22.938   7.364
 3972POPC   C1B51391  14.282  22.713   6.464
 3972POPC   C2B51392  14.243  22.735   6.764
 3972POPC   C3B51393  14.272  22.714   7.064
 3972POPC   C4B51394  14.213  22.788   7.364
 3973POPC   NC351395  43.069  31.470   5.564
 3973POPC   PO451396  43.114  31.428   5.864
 3973POPC   GL151397  43.109  31.444   6.164
 3973POPC   GL251398  43.018  31.386   6.164
 3973POPC   C1A51399  43.158  31.484   6.464
 3973POPC   D2A51400  43.094  31.451   6.764
 3973POPC   C3A51401  43.157  31.462   7.064
 3973POPC   C4A51402  43.129  31.425   7.364
 3973POPC   C1B51403  42.988  31.226   6.464
 3973POPC   C2B51404  42.974  31.246   6.764
 3973POPC   C3B51405  42.957  31.272   7.064
 3973POPC   C4B51406  43.018  31.301   7.364
 3974POPC   NC351407  35.304  39.213   5.564
 3974POPC   PO451408  35.390  39.251   5.864
 3974POPC   GL151409  35.353  39.234   6.164
 3974POPC   GL251410  35.432  39.140   6.164
 3974POPC   C1A51411  35.380  39.182   6.464
 3974POPC   D2A51412  35.391  39.260   6.764
 3974POPC   C3A51413  35.368  39.232   7.064
 3974POPC   C4A51414  35.380  39.210   7.364
 3974POPC   C1B51415  35.464  38.952   6.464
 3974POPC   C2B51416  35.457  38.980   6.764
 3974POPC   C3B51417  35.388  38.986   7.064
 3974POPC   C4B51418  35.409  38.950   7.364
 3975POPC   NC351419  15.910   5.134   5.564
 3975POPC   PO451420  15.909   5.107   5.864
 3975POPC   GL151421  15.908   5.068   6.164
 3975POPC   GL251422  15.829   5.061   6.164
 3975POPC   C1A51423  15.980   5.071   6.464
 3975POPC   D2A51424  15.926   5.080   6.764
 3975POPC   C3A51425  15.988   5.130   7.064
 3975POPC   C4A51426  15.995   5.062   7.364
 3975POPC   C1B51427  15.667   4.990   6.464
 3975POPC   C2B51428  15.711   5.084   6.764
 3975POPC   C3B51429  15.702   5.053   7.064
 3975POPC   C4B51430  15.707   5.059   7.364
 3976POPC   NC351431  43.119  12.063   5.564
 3976POPC   PO451432  43.160  12.037   5.864
 3976POPC   GL151433  43.066  12.115   6.164
 3976POPC   GL251434  43.078  12.156   6.164
 3976POPC   C1A51435  43.145  12.074   6.464
 3976POPC   D2A51436  43.070  12.095   6.764
 3976POPC   C3A51437  43.110  12.094   7.064
 3976POPC   C4A51438  43.141  12.067   7.364
 3976POPC   C1B51439  43.064  12.274   6.464
 3976POPC   C2B51440  43.046  12.359   6.764
 3976POPC   C3B51441  43.100  12.282   7.064
 3976POPC   C4B51442  43.107  12.337   7.364
 3977POPC   NC351443   4.268  24.454   5.564
 3977POPC   PO451444   4.300  24.480   5.864
 3977POPC   GL151445   4.268  24.507   6.164
 3977POPC   GL251446   4.230  24.396   6.164
 3977POPC   C1A51447   4.347  24.471   6.464
 3977POPC   D2A51448   4.367  24.460   6.764
 3977POPC   C3A51449   4.294  24.475   7.064
 3977POPC   C4A51450   4.267  24.456   7.364
 3977POPC   C1B51451   4.045  24.378   6.464
 3977POPC   C2B51452   4.118  24.436   6.764
 3977POPC   C3B51453   4.053  24.371   7.064
 3977POPC   C4B51454   4.092  24.419   7.364
 3978POPC   NC351455  24.535   7.400   5.564
 3978POPC   PO451456  24.520   7.386   5.864
 3978POPC   GL151457  24.447   7.427   6.164
 3978POPC   GL251458  24.472   7.565   6.164
 3978POPC   C1A51459  24.476   7.425   6.464
 3978POPC   D2A51460  24.530   7.460   6.764
 3978POPC   C3A51461  24.516   7.465   7.064
 3978POPC   C4A51462  24.507   7.439   7.364
 3978POPC   C1B51463  24.430   7.666   6.464
 3978POPC   C2B51464  24.392   7.655   6.764
 3978POPC   C3B51465  24.382   7.633   7.064
 3978POPC   C4B51466  24.426   7.653   7.364
 3979POPC   NC351467  28.403   8.169   5.564
 3979POPC   PO451468  28.356   8.161   5.864
 3979POPC   GL151469  28.363   8.218   6.164
 3979POPC   GL251470  28.263   8.149   6.164
 3979POPC   C1A51471  28.350   8.218   6.464
 3979POPC   D2A51472  28.365   8.217   6.764
 3979POPC   C3A51473  28.332   8.217   7.064
 3979POPC   C4A51474  28.357   8.215   7.364
 3979POPC   C1B51475  28.167   8.072   6.464
 3979POPC   C2B51476  28.131   8.038   6.764
 3979POPC   C3B51477  28.152   8.082   7.064
 3979POPC   C4B51478  28.165   8.090   7.364
 3980POPC   NC351479  37.657  21.362   5.564
 3980POPC   PO451480  37.726  21.358   5.864
 3980POPC   GL151481  37.679  21.381   6.164
 3980POPC   GL251482  37.620  21.312   6.164
 3980POPC   C1A51483  37.689  21.428   6.464
 3980POPC   D2A51484  37.679  21.417   6.764
 3980POPC   C3A51485  37.658  21.367   7.064
 3980POPC   C4A51486  37.696  21.406   7.364
 3980POPC   C1B51487  37.467  21.178   6.464
 3980POPC   C2B51488  37.484  21.183   6.764
 3980POPC   C3B51489  37.538  21.183   7.064
 3980POPC   C4B51490  37.495  21.251   7.364
 3981POPC   NC351491  12.098  31.451   5.564
 3981POPC   PO451492  12.028  31.487   5.864
 3981POPC   GL151493  12.089  31.462   6.164
 3981POPC   GL251494  12.217  31.584   6.164
 3981POPC   C1A51495  12.117  31.478   6.464
 3981POPC   D2A51496  12.063  31.490   6.764
 3981POPC   C3A51497  12.085  31.483   7.064
 3981POPC   C4A51498  12.053  31.499   7.364
 3981POPC   C1B51499  12.273  31.636   6.464
 3981POPC   C2B51500  12.232  31.628   6.764
 3981POPC   C3B51501  12.255  31.666   7.064
 3981POPC   C4B51502  12.226  31.630   7.364
 3982POPC   NC351503  27.624  30.696   5.564
 3982POPC   PO451504  27.567  30.746   5.864
 3982POPC   GL151505  27.591  30.676   6.164
 3982POPC   GL251506  27.480  30.604   6.164
 3982POPC   C1A51507  27.594  30.671   6.464
 3982POPC   D2A51508  27.547  30.653   6.764
 3982POPC   C3A51509  27.628  30.658   7.064
 3982POPC   C4A51510  27.561  30.721   7.364
 3982POPC   C1B51511  27.366  30.557   6.464
 3982POPC   C2B51512  27.339  30.593   6.764
 3982POPC   C3B51513  27.340  30.564   7.064
 3982POPC   C4B51514  27.408  30.627   7.364
 3983POPC   NC351515  25.291   9.713   5.564
 3983POPC   PO451516  25.221   9.722   5.864
 3983POPC   GL151517  25.232   9.743   6.164
 3983POPC   GL251518  25.200   9.818   6.164
 3983POPC   C1A51519  25.294   9.701   6.464
 3983POPC   D2A51520  25.294   9.753   6.764
 3983POPC   C3A51521  25.232   9.785   7.064
 3983POPC   C4A51522  25.228   9.729   7.364
 3983POPC   C1B51523  25.142  10.010   6.464
 3983POPC   C2B51524  25.169   9.935   6.764
 3983POPC   C3B51525  25.187   9.988   7.064
 3983POPC   C4B51526  25.170  10.019   7.364
 3984POPC   NC351527  25.286  38.487   5.564
 3984POPC   PO451528  25.291  38.502   5.864
 3984POPC   GL151529  25.313  38.444   6.164
 3984POPC   GL251530  25.164  38.538   6.164
 3984POPC   C1A51531  25.311  38.472   6.464
 3984POPC   D2A51532  25.274  38.448   6.764
 3984POPC   C3A51533  25.264  38.427   7.064
 3984POPC   C4A51534  25.243  38.438   7.364
 3984POPC   C1B51535  25.141  38.696   6.464
 3984POPC   C2B51536  25.101  38.629   6.764
 3984POPC   C3B51537  25.118  38.709   7.064
 3984POPC   C4B51538  25.083  38.669   7.364
 3985POPC   NC351539  37.716  25.218   5.564
 3985POPC   PO451540  37.655  25.259   5.864
 3985POPC   GL151541  37.694  25.222   6.164
 3985POPC   GL251542  37.612  25.293   6.164
 3985POPC   C1A51543  37.689  25.298   6.464
 3985POPC   D2A51544  37.696  25.297   6.764
 3985POPC   C3A51545  37.677  25.287   7.064
 3985POPC   C4A51546  37.718  25.293   7.364
 3985POPC   C1B51547  37.424  25.337   6.464
 3985POPC   C2B51548  37.486  25.379   6.764
 3985POPC   C3B51549  37.430  25.349   7.064
 3985POPC   C4B51550  37.468  25.385   7.364
 3986POPC   NC351551  15.170  32.260   5.564
 3986POPC   PO451552  15.153  32.225   5.864
 3986POPC   GL151553  15.211  32.202   6.164
 3986POPC   GL251554  15.039  32.259   6.164
 3986POPC   C1A51555  15.204  32.209   6.464
 3986POPC   D2A51556  15.172  32.214   6.764
 3986POPC   C3A51557  15.134  32.210   7.064
 3986POPC   C4A51558  15.197  32.228   7.364
 3986POPC   C1B51559  14.923  32.268   6.464
 3986POPC   C2B51560  14.963  32.255   6.764
 3986POPC   C3B51561  14.905  32.220   7.064
 3986POPC   C4B51562  14.890  32.238   7.364
 3987POPC   NC351563  35.376  38.479   5.564
 3987POPC   PO451564  35.371  38.453   5.864
 3987POPC   GL151565  35.374  38.487   6.164
 3987POPC   GL251566  35.194  38.386   6.164
 3987POPC   C1A51567  35.365  38.453   6.464
 3987POPC   D2A51568  35.302  38.470   6.764
 3987POPC   C3A51569  35.391  38.459   7.064
 3987POPC   C4A51570  35.368  38.496   7.364
 3987POPC   C1B51571  35.109  38.315   6.464
 3987POPC   C2B51572  35.096  38.342   6.764
 3987POPC   C3B51573  35.100  38.318   7.064
 3987POPC   C4B51574  35.120  38.386   7.364
 3988POPC   NC351575  19.105  13.656   5.564
 3988POPC   PO451576  19.069  13.659   5.864
 3988POPC   GL151577  19.087  13.673   6.164
 3988POPC   GL251578  19.095  13.484   6.164
 3988POPC   C1A51579  19.010  13.599   6.464
 3988POPC   D2A51580  19.095  13.670   6.764
 3988POPC   C3A51581  19.072  13.633   7.064
 3988POPC   C4A51582  19.069  13.592   7.364
 3988POPC   C1B51583  19.217  13.451   6.464
 3988POPC   C2B51584  19.147  13.357   6.764
 3988POPC   C3B51585  19.195  13.426   7.064
 3988POPC   C4B51586  19.199  13.404   7.364
 3989POPC   NC351587  22.136   4.358   5.564
 3989POPC   PO451588  22.165   4.348   5.864
 3989POPC   GL151589  22.175   4.317   6.164
 3989POPC   GL251590  22.116   4.407   6.164
 3989POPC   C1A51591  22.131   4.316   6.464
 3989POPC   D2A51592  22.121   4.359   6.764
 3989POPC   C3A51593  22.125   4.320   7.064
 3989POPC   C4A51594  22.144   4.319   7.364
 3989POPC   C1B51595  21.948   4.524   6.464
 3989POPC   C2B51596  21.967   4.499   6.764
 3989POPC   C3B51597  21.973   4.521   7.064
 3989POPC   C4B51598  21.968   4.527   7.364
 3990POPC   NC351599  10.541  19.811   5.564
 3990POPC   PO451600  10.557  19.810   5.864
 3990POPC   GL151601  10.502  19.840   6.164
 3990POPC   GL251602  10.387  19.909   6.164
 3990POPC   C1A51603  10.536  19.810   6.464
 3990POPC   D2A51604  10.567  19.835   6.764
 3990POPC   C3A51605  10.495  19.838   7.064
 3990POPC   C4A51606  10.543  19.806   7.364
 3990POPC   C1B51607  10.349  20.001   6.464
 3990POPC   C2B51608  10.337  19.981   6.764
 3990POPC   C3B51609  10.301  19.998   7.064
 3990POPC   C4B51610  10.290  20.010   7.364
 3991POPC   NC351611  20.573  27.593   5.564
 3991POPC   PO451612  20.569  27.601   5.864
 3991POPC   GL151613  20.647  27.548   6.164
 3991POPC   GL251614  20.610  27.457   6.164
 3991POPC   C1A51615  20.630  27.620   6.464
 3991POPC   D2A51616  20.604  27.583   6.764
 3991POPC   C3A51617  20.658  27.638   7.064
 3991POPC   C4A51618  20.613  27.567   7.364
 3991POPC   C1B51619  20.689  27.373   6.464
 3991POPC   C2B51620  20.698  27.317   6.764
 3991POPC   C3B51621  20.651  27.341   7.064
 3991POPC   C4B51622  20.704  27.375   7.364
 3992POPC   NC351623  33.007  15.199   5.564
 3992POPC   PO451624  33.037  15.164   5.864
 3992POPC   GL151625  33.011  15.212   6.164
 3992POPC   GL251626  32.943  15.241   6.164
 3992POPC   C1A51627  33.034  15.158   6.464
 3992POPC   D2A51628  33.033  15.199   6.764
 3992POPC   C3A51629  32.980  15.136   7.064
 3992POPC   C4A51630  33.037  15.135   7.364
 3992POPC   C1B51631  32.872  15.406   6.464
 3992POPC   C2B51632  32.921  15.418   6.764
 3992POPC   C3B51633  32.916  15.378   7.064
 3992POPC   C4B51634  32.830  15.398   7.364
 3993POPC   NC351635  12.036  30.676   5.564
 3993POPC   PO451636  12.075  30.667   5.864
 3993POPC   GL151637  12.111  30.670   6.164
 3993POPC   GL251638  12.070  30.590   6.164
 3993POPC   C1A51639  12.084  30.728   6.464
 3993POPC   D2A51640  12.120  30.677   6.764
 3993POPC   C3A51641  12.034  30.668   7.064
 3993POPC   C4A51642  12.076  30.724   7.364
 3993POPC   C1B51643  11.936  30.484   6.464
 3993POPC   C2B51644  12.008  30.452   6.764
 3993POPC   C3B51645  11.961  30.484   7.064
 3993POPC   C4B51646  12.020  30.492   7.364
 3994POPC   NC351647  33.006  20.642   5.564
 3994POPC   PO451648  33.073  20.625   5.864
 3994POPC   GL151649  33.006  20.608   6.164
 3994POPC   GL251650  32.991  20.718   6.164
 3994POPC   C1A51651  33.065  20.583   6.464
 3994POPC   D2A51652  33.069  20.578   6.764
 3994POPC   C3A51653  32.990  20.615   7.064
 3994POPC   C4A51654  32.992  20.563   7.364
 3994POPC   C1B51655  33.053  20.819   6.464
 3994POPC   C2B51656  33.053  20.821   6.764
 3994POPC   C3B51657  33.025  20.879   7.064
 3994POPC   C4B51658  33.090  20.879   7.364
 3995POPC   NC351659  22.930  28.321   5.564
 3995POPC   PO451660  22.954  28.402   5.864
 3995POPC   GL151661  22.953  28.355   6.164
 3995POPC   GL251662  22.904  28.422   6.164
 3995POPC   C1A51663  22.900  28.386   6.464
 3995POPC   D2A51664  22.893  28.335   6.764
 3995POPC   C3A51665  22.934  28.376   7.064
 3995POPC   C4A51666  22.978  28.325   7.364
 3995POPC   C1B51667  22.811  28.608   6.464
 3995POPC   C2B51668  22.773  28.515   6.764
 3995POPC   C3B51669  22.819  28.581   7.064
 3995POPC   C4B51670  22.809  28.550   7.364
 3996POPC   NC351671  14.409  23.753   5.564
 3996POPC   PO451672  14.449  23.739   5.864
 3996POPC   GL151673  14.404  23.691   6.164
 3996POPC   GL251674  14.331  23.804   6.164
 3996POPC   C1A51675  14.411  23.669   6.464
 3996POPC   D2A51676  14.452  23.701   6.764
 3996POPC   C3A51677  14.426  23.702   7.064
 3996POPC   C4A51678  14.380  23.684   7.364
 3996POPC   C1B51679  14.304  23.969   6.464
 3996POPC   C2B51680  14.340  23.944   6.764
 3996POPC   C3B51681  14.299  23.947   7.064
 3996POPC   C4B51682  14.360  23.997   7.364
 3997POPC   NC351683  38.465  18.316   5.564
 3997POPC   PO451684  38.496  18.306   5.864
 3997POPC   GL151685  38.493  18.240   6.164
 3997POPC   GL251686  38.422  18.207   6.164
 3997POPC   C1A51687  38.476  18.260   6.464
 3997POPC   D2A51688  38.496  18.251   6.764
 3997POPC   C3A51689  38.428  18.255   7.064
 3997POPC   C4A51690  38.424  18.284   7.364
 3997POPC   C1B51691  38.352  18.094   6.464
 3997POPC   C2B51692  38.352  18.050   6.764
 3997POPC   C3B51693  38.350  18.054   7.064
 3997POPC   C4B51694  38.375  18.087   7.364
 3998POPC   NC351695  22.120  42.328   5.564
 3998POPC   PO451696  22.173  42.295   5.864
 3998POPC   GL151697  22.115  42.333   6.164
 3998POPC   GL251698  22.168  42.194   6.164
 3998POPC   C1A51699  22.152  42.342   6.464
 3998POPC   D2A51700  22.209  42.340   6.764
 3998POPC   C3A51701  22.169  42.340   7.064
 3998POPC   C4A51702  22.168  42.368   7.364
 3998POPC   C1B51703  22.085  42.057   6.464
 3998POPC   C2B51704  22.049  42.124   6.764
 3998POPC   C3B51705  22.057  42.140   7.064
 3998POPC   C4B51706  22.054  42.121   7.364
 3999POPC   NC351707  10.568  43.849   5.564
 3999POPC   PO451708  10.500  43.921   5.864
 3999POPC   GL151709  10.566  43.838   6.164
 3999POPC   GL251710  10.374  43.823   6.164
 3999POPC   C1A51711  10.489  43.885   6.464
 3999POPC   D2A51712  10.561  43.847   6.764
 3999POPC   C3A51713  10.494  43.896   7.064
 3999POPC   C4A51714  10.508  43.883   7.364
 3999POPC   C1B51715  10.336  43.818   6.464
 3999POPC   C2B51716  10.343  43.789   6.764
 3999POPC   C3B51717  10.312  43.738   7.064
 3999POPC   C4B51718  10.252  43.824   7.364
 4000POPC   NC351719  32.215  26.052   5.564
 4000POPC   PO451720  32.242  26.027   5.864
 4000POPC   GL151721  32.297  26.003   6.164
 4000POPC   GL251722  32.103  25.937   6.164
 4000POPC   C1A51723  32.232  26.046   6.464
 4000POPC   D2A51724  32.262  26.028   6.764
 4000POPC   C3A51725  32.200  25.992   7.064
 4000POPC   C4A51726  32.283  26.046   7.364
 4000POPC   C1B51727  32.007  25.893   6.464
 4000POPC   C2B51728  32.073  25.926   6.764
 4000POPC   C3B51729  31.998  25.855   7.064
 4000POPC   C4B51730  32.016  25.929   7.364
 4001POPC   NC351731  33.036  36.097   5.564
 4001POPC   PO451732  33.045  36.122   5.864
 4001POPC   GL151733  33.000  36.171   6.164
 4001POPC   GL251734  33.085  36.278   6.164
 4001POPC   C1A51735  32.977  36.090   6.464
 4001POPC   D2A51736  33.060  36.103   6.764
 4001POPC   C3A51737  33.033  36.163   7.064
 4001POPC   C4A51738  33.048  36.106   7.364
 4001POPC   C1B51739  33.149  36.394   6.464
 4001POPC   C2B51740  33.108  36.336   6.764
 4001POPC   C3B51741  33.135  36.373   7.064
 4001POPC   C4B51742  33.148  36.325   7.364
 4002POPC   NC351743  16.695  15.181   5.564
 4002POPC   PO451744  16.692  15.195   5.864
 4002POPC   GL151745  16.740  15.198   6.164
 4002POPC   GL251746  16.782  15.043   6.164
 4002POPC   C1A51747  16.716  15.133   6.464
 4002POPC   D2A51748  16.727  15.189   6.764
 4002POPC   C3A51749  16.705  15.131   7.064
 4002POPC   C4A51750  16.709  15.187   7.364
 4002POPC   C1B51751  16.878  15.021   6.464
 4002POPC   C2B51752  16.908  14.982   6.764
 4002POPC   C3B51753  16.941  15.018   7.064
 4002POPC   C4B51754  16.919  15.005   7.364
 4003POPC   NC351755  22.145   3.579   5.564
 4003POPC   PO451756  22.135   3.515   5.864
 4003POPC   GL151757  22.180   3.514   6.164
 4003POPC   GL251758  22.048   3.582   6.164
 4003POPC   C1A51759  22.114   3.556   6.464
 4003POPC   D2A51760  22.171   3.494   6.764
 4003POPC   C3A51761  22.188   3.556   7.064
 4003POPC   C4A51762  22.147   3.581   7.364
 4003POPC   C1B51763  21.943   3.657   6.464
 4003POPC   C2B51764  21.908   3.659   6.764
 4003POPC   C3B51765  21.931   3.698   7.064
 4003POPC   C4B51766  21.952   3.704   7.364
 4004POPC   NC351767  36.132  39.221   5.564
 4004POPC   PO451768  36.140  39.270   5.864
 4004POPC   GL151769  36.177  39.257   6.164
 4004POPC   GL251770  36.047  39.303   6.164
 4004POPC   C1A51771  36.120  39.246   6.464
 4004POPC   D2A51772  36.151  39.212   6.764
 4004POPC   C3A51773  36.165  39.193   7.064
 4004POPC   C4A51774  36.098  39.231   7.364
 4004POPC   C1B51775  35.940  39.389   6.464
 4004POPC   C2B51776  35.948  39.365   6.764
 4004POPC   C3B51777  35.920  39.373   7.064
 4004POPC   C4B51778  35.930  39.407   7.364
 4005POPC   NC351779  44.651  33.836   5.564
 4005POPC   PO451780  44.652  33.798   5.864
 4005POPC   GL151781  44.667  33.833   6.164
 4005POPC   GL251782  44.587  33.869   6.164
 4005POPC   C1A51783  44.699  33.764   6.464
 4005POPC   D2A51784  44.699  33.753   6.764
 4005POPC   C3A51785  44.651  33.779   7.064
 4005POPC   C4A51786  44.615  33.823   7.364
 4005POPC   C1B51787  44.461  33.915   6.464
 4005POPC   C2B51788  44.403  33.818   6.764
 4005POPC   C3B51789  44.453  33.883   7.064
 4005POPC   C4B51790  44.452  33.821   7.364
 4006POPC   NC351791  30.741  35.381   5.564
 4006POPC   PO451792  30.722  35.308   5.864
 4006POPC   GL151793  30.703  35.347   6.164
 4006POPC   GL251794  30.817  35.423   6.164
 4006POPC   C1A51795  30.707  35.372   6.464
 4006POPC   D2A51796  30.719  35.370   6.764
 4006POPC   C3A51797  30.698  35.343   7.064
 4006POPC   C4A51798  30.670  35.318   7.364
 4006POPC   C1B51799  30.926  35.429   6.464
 4006POPC   C2B51800  30.890  35.436   6.764
 4006POPC   C3B51801  30.941  35.453   7.064
 4006POPC   C4B51802  30.935  35.474   7.364
 4007POPC   NC351803   8.213  23.664   5.564
 4007POPC   PO451804   8.190  23.724   5.864
 4007POPC   GL151805   8.233  23.729   6.164
 4007POPC   GL251806   8.310  23.642   6.164
 4007POPC   C1A51807   8.159  23.682   6.464
 4007POPC   D2A51808   8.233  23.724   6.764
 4007POPC   C3A51809   8.217  23.695   7.064
 4007POPC   C4A51810   8.229  23.714   7.364
 4007POPC   C1B51811   8.445  23.649   6.464
 4007POPC   C2B51812   8.400  23.663   6.764
 4007POPC   C3B51813   8.391  23.689   7.064
 4007POPC   C4B51814   8.467  23.631   7.364
 4008POPC   NC351815  37.691  39.243   5.564
 4008POPC   PO451816  37.665  39.213   5.864
 4008POPC   GL151817  37.727  39.199   6.164
 4008POPC   GL251818  37.815  39.328   6.164
 4008POPC   C1A51819  37.646  39.256   6.464
 4008POPC   D2A51820  37.696  39.266   6.764
 4008POPC   C3A51821  37.671  39.193   7.064
 4008POPC   C4A51822  37.717  39.215   7.364
 4008POPC   C1B51823  37.876  39.395   6.464
 4008POPC   C2B51824  37.913  39.378   6.764
 4008POPC   C3B51825  37.911  39.419   7.064
 4008POPC   C4B51826  37.873  39.372   7.364
 4009POPC   NC351827  10.516  20.612   5.564
 4009POPC   PO451828  10.531  20.624   5.864
 4009POPC   GL151829  10.554  20.606   6.164
 4009POPC   GL251830  10.669  20.636   6.164
 4009POPC   C1A51831  10.485  20.655   6.464
 4009POPC   D2A51832  10.477  20.629   6.764
 4009POPC   C3A51833  10.507  20.637   7.064
 4009POPC   C4A51834  10.520  20.577   7.364
 4009POPC   C1B51835  10.708  20.692   6.464
 4009POPC   C2B51836  10.755  20.709   6.764
 4009POPC   C3B51837  10.733  20.688   7.064
 4009POPC   C4B51838  10.735  20.682   7.364
 4010POPC   NC351839  28.363  39.240   5.564
 4010POPC   PO451840  28.391  39.221   5.864
 4010POPC   GL151841  28.377  39.248   6.164
 4010POPC   GL251842  28.446  39.331   6.164
 4010POPC   C1A51843  28.391  39.191   6.464
 4010POPC   D2A51844  28.363  39.275   6.764
 4010POPC   C3A51845  28.397  39.274   7.064
 4010POPC   C4A51846  28.361  39.254   7.364
 4010POPC   C1B51847  28.552  39.470   6.464
 4010POPC   C2B51848  28.487  39.420   6.764
 4010POPC   C3B51849  28.482  39.392   7.064
 4010POPC   C4B51850  28.544  39.421   7.364
 4011POPC   NC351851  17.553  38.459   5.564
 4011POPC   PO451852  17.471  38.474   5.864
 4011POPC   GL151853  17.458  38.438   6.164
 4011POPC   GL251854  17.476  38.562   6.164
 4011POPC   C1A51855  17.520  38.443   6.464
 4011POPC   D2A51856  17.548  38.502   6.764
 4011POPC   C3A51857  17.467  38.487   7.064
 4011POPC   C4A51858  17.542  38.504   7.364
 4011POPC   C1B51859  17.460  38.738   6.464
 4011POPC   C2B51860  17.449  38.704   6.764
 4011POPC   C3B51861  17.462  38.693   7.064
 4011POPC   C4B51862  17.504  38.682   7.364
 4012POPC   NC351863  19.814  39.999   5.564
 4012POPC   PO451864  19.857  40.023   5.864
 4012POPC   GL151865  19.815  40.054   6.164
 4012POPC   GL251866  19.711  40.081   6.164
 4012POPC   C1A51867  19.864  40.004   6.464
 4012POPC   D2A51868  19.835  40.008   6.764
 4012POPC   C3A51869  19.800  40.013   7.064
 4012POPC   C4A51870  19.800  40.047   7.364
 4012POPC   C1B51871  19.618  40.149   6.464
 4012POPC   C2B51872  19.598  40.144   6.764
 4012POPC   C3B51873  19.683  40.198   7.064
 4012POPC   C4B51874  19.649  40.211   7.364
 4013POPC   NC351875  44.709  42.306   5.564
 4013POPC   PO451876  44.655  42.320   5.864
 4013POPC   GL151877  44.632  42.312   6.164
 4013POPC   GL251878  44.547  42.454   6.164
 4013POPC   C1A51879  44.636  42.301   6.464
 4013POPC   D2A51880  44.712  42.301   6.764
 4013POPC   C3A51881  44.679  42.363   7.064
 4013POPC   C4A51882  44.692  42.348   7.364
 4013POPC   C1B51883  44.460  42.474   6.464
 4013POPC   C2B51884  44.453  42.504   6.764
 4013POPC   C3B51885  44.438  42.462   7.064
 4013POPC   C4B51886  44.459  42.515   7.364
 4014POPC   NC351887  23.690  28.369   5.564
 4014POPC   PO451888  23.729  28.355   5.864
 4014POPC   GL151889  23.677  28.399   6.164
 4014POPC   GL251890  23.790  28.324   6.164
 4014POPC   C1A51891  23.741  28.393   6.464
 4014POPC   D2A51892  23.728  28.325   6.764
 4014POPC   C3A51893  23.710  28.332   7.064
 4014POPC   C4A51894  23.676  28.384   7.364
 4014POPC   C1B51895  23.973  28.337   6.464
 4014POPC   C2B51896  23.976  28.361   6.764
 4014POPC   C3B51897  23.936  28.340   7.064
 4014POPC   C4B51898  23.921  28.353   7.364
 4015POPC   NC351899   1.196   8.195   5.564
 4015POPC   PO451900   1.213   8.170   5.864
 4015POPC   GL151901   1.179   8.235   6.164
 4015POPC   GL251902   1.294   8.103   6.164
 4015POPC   C1A51903   1.227   8.227   6.464
 4015POPC   D2A51904   1.206   8.232   6.764
 4015POPC   C3A51905   1.172   8.245   7.064
 4015POPC   C4A51906   1.240   8.189   7.364
 4015POPC   C1B51907   1.440   8.060   6.464
 4015POPC   C2B51908   1.445   8.117   6.764
 4015POPC   C3B51909   1.457   8.066   7.064
 4015POPC   C4B51910   1.395   8.074   7.364
 4016POPC   NC351911   7.403  14.451   5.564
 4016POPC   PO451912   7.428  14.380   5.864
 4016POPC   GL151913   7.407  14.412   6.164
 4016POPC   GL251914   7.356  14.515   6.164
 4016POPC   C1A51915   7.456  14.363   6.464
 4016POPC   D2A51916   7.393  14.365   6.764
 4016POPC   C3A51917   7.389  14.402   7.064
 4016POPC   C4A51918   7.432  14.395   7.364
 4016POPC   C1B51919   7.325  14.641   6.464
 4016POPC   C2B51920   7.257  14.620   6.764
 4016POPC   C3B51921   7.256  14.629   7.064
 4016POPC   C4B51922   7.266  14.635   7.364
 4017POPC   NC351923  24.487  11.300   5.564
 4017POPC   PO451924  24.512  11.274   5.864
 4017POPC   GL151925  24.509  11.346   6.164
 4017POPC   GL251926  24.414  11.223   6.164
 4017POPC   C1A51927  24.505  11.280   6.464
 4017POPC   D2A51928  24.445  11.262   6.764
 4017POPC   C3A51929  24.462  11.310   7.064
 4017POPC   C4A51930  24.448  11.337   7.364
 4017POPC   C1B51931  24.390  11.041   6.464
 4017POPC   C2B51932  24.415  11.072   6.764
 4017POPC   C3B51933  24.433  11.032   7.064
 4017POPC   C4B51934  24.379  11.033   7.364
 4018POPC   NC351935  15.207  12.085   5.564
 4018POPC   PO451936  15.149  12.036   5.864
 4018POPC   GL151937  15.217  12.123   6.164
 4018POPC   GL251938  15.135  11.996   6.164
 4018POPC   C1A51939  15.167  12.036   6.464
 4018POPC   D2A51940  15.187  12.105   6.764
 4018POPC   C3A51941  15.183  12.066   7.064
 4018POPC   C4A51942  15.186  12.110   7.364
 4018POPC   C1B51943  15.026  11.860   6.464
 4018POPC   C2B51944  15.020  11.826   6.764
 4018POPC   C3B51945  15.070  11.828   7.064
 4018POPC   C4B51946  15.071  11.902   7.364
 4019POPC   NC351947  10.484  13.648   5.564
 4019POPC   PO451948  10.535  13.623   5.864
 4019POPC   GL151949  10.567  13.612   6.164
 4019POPC   GL251950  10.501  13.742   6.164
 4019POPC   C1A51951  10.547  13.625   6.464
 4019POPC   D2A51952  10.557  13.642   6.764
 4019POPC   C3A51953  10.525  13.596   7.064
 4019POPC   C4A51954  10.500  13.616   7.364
 4019POPC   C1B51955  10.485  13.924   6.464
 4019POPC   C2B51956  10.547  13.901   6.764
 4019POPC   C3B51957  10.547  13.876   7.064
 4019POPC   C4B51958  10.560  13.864   7.364
 4020POPC   NC351959  36.106  19.100   5.564
 4020POPC   PO451960  36.101  19.028   5.864
 4020POPC   GL151961  36.115  19.108   6.164
 4020POPC   GL251962  36.255  19.127   6.164
 4020POPC   C1A51963  36.113  19.030   6.464
 4020POPC   D2A51964  36.164  19.072   6.764
 4020POPC   C3A51965  36.145  19.089   7.064
 4020POPC   C4A51966  36.152  19.070   7.364
 4020POPC   C1B51967  36.277  19.254   6.464
 4020POPC   C2B51968  36.337  19.254   6.764
 4020POPC   C3B51969  36.305  19.187   7.064
 4020POPC   C4B51970  36.284  19.241   7.364
 4021POPC   NC351971   2.793  37.695   5.564
 4021POPC   PO451972   2.762  37.646   5.864
 4021POPC   GL151973   2.730  37.718   6.164
 4021POPC   GL251974   2.618  37.709   6.164
 4021POPC   C1A51975   2.809  37.691   6.464
 4021POPC   D2A51976   2.781  37.697   6.764
 4021POPC   C3A51977   2.798  37.714   7.064
 4021POPC   C4A51978   2.789  37.657   7.364
 4021POPC   C1B51979   2.495  37.645   6.464
 4021POPC   C2B51980   2.543  37.663   6.764
 4021POPC   C3B51981   2.485  37.646   7.064
 4021POPC   C4B51982   2.486  37.615   7.364
 4022POPC   NC351983  31.480  43.152   5.564
 4022POPC   PO451984  31.503  43.103   5.864
 4022POPC   GL151985  31.500  43.129   6.164
 4022POPC   GL251986  31.458  42.993   6.164
 4022POPC   C1A51987  31.441  43.095   6.464
 4022POPC   D2A51988  31.512  43.103   6.764
 4022POPC   C3A51989  31.432  43.147   7.064
 4022POPC   C4A51990  31.464  43.140   7.364
 4022POPC   C1B51991  31.447  42.820   6.464
 4022POPC   C2B51992  31.523  42.836   6.764
 4022POPC   C3B51993  31.480  42.857   7.064
 4022POPC   C4B51994  31.460  42.888   7.364
 4023POPC   NC351995  12.850  12.123   5.564
 4023POPC   PO451996  12.844  12.095   5.864
 4023POPC   GL151997  12.851  12.117   6.164
 4023POPC   GL251998  12.923  12.162   6.164
 4023POPC   C1A51999  12.891  12.051   6.464
 4023POPC   D2A52000  12.831  12.083   6.764
 4023POPC   C3A52001  12.819  12.117   7.064
 4023POPC   C4A52002  12.808  12.116   7.364
 4023POPC   C1B52003  13.086  12.174   6.464
 4023POPC   C2B52004  13.080  12.212   6.764
 4023POPC   C3B52005  13.034  12.164   7.064
 4023POPC   C4B52006  13.114  12.164   7.364
 4024POPC   NC352007  13.677   0.388   5.564
 4024POPC   PO452008  13.641   0.388   5.864
 4024POPC   GL152009  13.591   0.430   6.164
 4024POPC   GL252010  13.794   0.450   6.164
 4024POPC   C1A52011  13.647   0.419   6.464
 4024POPC   D2A52012  13.592   0.447   6.764
 4024POPC   C3A52013  13.656   0.461   7.064
 4024POPC   C4A52014  13.655   0.419   7.364
 4024POPC   C1B52015  13.829   0.441   6.464
 4024POPC   C2B52016  13.850   0.441   6.764
 4024POPC   C3B52017  13.880   0.387   7.064
 4024POPC   C4B52018  13.871   0.406   7.364
 4025POPC   NC352019  37.662   9.798   5.564
 4025POPC   PO452020  37.724   9.752   5.864
 4025POPC   GL152021  37.640   9.780   6.164
 4025POPC   GL252022  37.783   9.735   6.164
 4025POPC   C1A52023  37.634   9.761   6.464
 4025POPC   D2A52024  37.693   9.787   6.764
 4025POPC   C3A52025  37.652   9.732   7.064
 4025POPC   C4A52026  37.709   9.705   7.364
 4025POPC   C1B52027  37.920   9.632   6.464
 4025POPC   C2B52028  37.957   9.636   6.764
 4025POPC   C3B52029  37.942   9.724   7.064
 4025POPC   C4B52030  37.886   9.627   7.364
 4026POPC   NC352031  10.490   1.181   5.564
 4026POPC   PO452032  10.476   1.243   5.864
 4026POPC   GL152033  10.531   1.211   6.164
 4026POPC   GL252034  10.446   1.174   6.164
 4026POPC   C1A52035  10.529   1.191   6.464
 4026POPC   D2A52036  10.494   1.224   6.764
 4026POPC   C3A52037  10.546   1.197   7.064
 4026POPC   C4A52038  10.521   1.230   7.364
 4026POPC   C1B52039  10.339   1.054   6.464
 4026POPC   C2B52040  10.353   1.103   6.764
 4026POPC   C3B52041  10.322   1.105   7.064
 4026POPC   C4B52042  10.348   1.079   7.364
 4027POPC   NC352043  19.808  30.656   5.564
 4027POPC   PO452044  19.870  30.738   5.864
 4027POPC   GL152045  19.817  30.720   6.164
 4027POPC   GL252046  19.882  30.795   6.164
 4027POPC   C1A52047  19.872  30.722   6.464
 4027POPC   D2A52048  19.859  30.695   6.764
 4027POPC   C3A52049  19.827  30.671   7.064
 4027POPC   C4A52050  19.880  30.651   7.364
 4027POPC   C1B52051  19.996  30.895   6.464
 4027POPC   C2B52052  20.006  30.905   6.764
 4027POPC   C3B52053  20.045  30.904   7.064
 4027POPC   C4B52054  19.966  30.931   7.364
 4028POPC   NC352055   7.435  37.692   5.564
 4028POPC   PO452056   7.441  37.647   5.864
 4028POPC   GL152057   7.445  37.678   6.164
 4028POPC   GL252058   7.588  37.745   6.164
 4028POPC   C1A52059   7.431  37.686   6.464
 4028POPC   D2A52060   7.402  37.725   6.764
 4028POPC   C3A52061   7.463  37.721   7.064
 4028POPC   C4A52062   7.462  37.707   7.364
 4028POPC   C1B52063   7.698  37.718   6.464
 4028POPC   C2B52064   7.708  37.719   6.764
 4028POPC   C3B52065   7.629  37.685   7.064
 4028POPC   C4B52066   7.679  37.702   7.364
 4029POPC   NC352067  11.279   8.943   5.564
 4029POPC   PO452068  11.331   9.019   5.864
 4029POPC   GL152069  11.272   8.987   6.164
 4029POPC   GL252070  11.341   9.060   6.164
 4029POPC   C1A52071  11.325   8.943   6.464
 4029POPC   D2A52072  11.300   8.929   6.764
 4029POPC   C3A52073  11.337   8.969   7.064
 4029POPC   C4A52074  11.279   8.964   7.364
 4029POPC   C1B52075  11.355   9.239   6.464
 4029POPC   C2B52076  11.326   9.186   6.764
 4029POPC   C3B52077  11.346   9.267   7.064
 4029POPC   C4B52078  11.359   9.208   7.364
 4030POPC   NC352079  37.641  13.593   5.564
 4030POPC   PO452080  37.687  13.584   5.864
 4030POPC   GL152081  37.659  13.596   6.164
 4030POPC   GL252082  37.624  13.550   6.164
 4030POPC   C1A52083  37.717  13.604   6.464
 4030POPC   D2A52084  37.697  13.653   6.764
 4030POPC   C3A52085  37.668  13.610   7.064
 4030POPC   C4A52086  37.717  13.591   7.364
 4030POPC   C1B52087  37.606  13.352   6.464
 4030POPC   C2B52088  37.575  13.359   6.764
 4030POPC   C3B52089  37.560  13.383   7.064
 4030POPC   C4B52090  37.579  13.351   7.364
 4031POPC   NC352091  31.465  32.209   5.564
 4031POPC   PO452092  31.492  32.272   5.864
 4031POPC   GL152093  31.458  32.251   6.164
 4031POPC   GL252094  31.502  32.343   6.164
 4031POPC   C1A52095  31.481  32.281   6.464
 4031POPC   D2A52096  31.470  32.213   6.764
 4031POPC   C3A52097  31.425  32.252   7.064
 4031POPC   C4A52098  31.453  32.237   7.364
 4031POPC   C1B52099  31.513  32.496   6.464
 4031POPC   C2B52100  31.531  32.517   6.764
 4031POPC   C3B52101  31.564  32.456   7.064
 4031POPC   C4B52102  31.524  32.528   7.364
 4032POPC   NC352103  26.071  30.743   5.564
 4032POPC   PO452104  26.069  30.659   5.864
 4032POPC   GL152105  26.021  30.730   6.164
 4032POPC   GL252106  25.954  30.744   6.164
 4032POPC   C1A52107  26.076  30.726   6.464
 4032POPC   D2A52108  26.082  30.734   6.764
 4032POPC   C3A52109  26.032  30.707   7.064
 4032POPC   C4A52110  26.063  30.728   7.364
 4032POPC   C1B52111  25.876  30.807   6.464
 4032POPC   C2B52112  25.834  30.870   6.764
 4032POPC   C3B52113  25.874  30.861   7.064
 4032POPC   C4B52114  25.862  30.833   7.364
 4033POPC   NC352115  44.629  11.277   5.564
 4033POPC   PO452116  44.646  11.316   5.864
 4033POPC   GL152117  44.677  11.340   6.164
 4033POPC   GL252118  44.676  11.215   6.164
 4033POPC   C1A52119  44.690  11.306   6.464
 4033POPC   D2A52120  44.618  11.291   6.764
 4033POPC   C3A52121  44.627  11.330   7.064
 4033POPC   C4A52122  44.704  11.292   7.364
 4033POPC   C1B52123  44.622  11.058   6.464
 4033POPC   C2B52124  44.617  11.013   6.764
 4033POPC   C3B52125  44.632  11.050   7.064
 4033POPC   C4B52126  44.594  11.023   7.364
 4034POPC   NC352127  33.058  13.652   5.564
 4034POPC   PO452128  33.011  13.607   5.864
 4034POPC   GL152129  33.061  13.620   6.164
 4034POPC   GL252130  32.953  13.479   6.164
 4034POPC   C1A52131  33.070  13.639   6.464
 4034POPC   D2A52132  32.978  13.652   6.764
 4034POPC   C3A52133  33.059  13.642   7.064
 4034POPC   C4A52134  33.027  13.668   7.364
 4034POPC   C1B52135  32.928  13.383   6.464
 4034POPC   C2B52136  32.979  13.402   6.764
 4034POPC   C3B52137  32.930  13.384   7.064
 4034POPC   C4B52138  32.977  13.387   7.364
 4035POPC   NC352139   8.964  32.999   5.564
 4035POPC   PO452140   9.006  32.995   5.864
 4035POPC   GL152141   8.940  33.058   6.164
 4035POPC   GL252142   8.848  32.927   6.164
 4035POPC   C1A52143   9.008  33.018   6.464
 4035POPC   D2A52144   8.938  32.999   6.764
 4035POPC   C3A52145   8.986  33.030   7.064
 4035POPC   C4A52146   8.978  33.027   7.364
 4035POPC   C1B52147   8.753  32.857   6.464
 4035POPC   C2B52148   8.735  32.863   6.764
 4035POPC   C3B52149   8.792  32.851   7.064
 4035POPC   C4B52150   8.786  32.887   7.364
 4036POPC   NC352151   2.011  29.129   5.564
 4036POPC   PO452152   2.035  29.117   5.864
 4036POPC   GL152153   2.029  29.098   6.164
 4036POPC   GL252154   1.973  29.065   6.164
 4036POPC   C1A52155   2.001  29.175   6.464
 4036POPC   D2A52156   2.030  29.165   6.764
 4036POPC   C3A52157   2.003  29.141   7.064
 4036POPC   C4A52158   2.021  29.123   7.364
 4036POPC   C1B52159   2.006  28.855   6.464
 4036POPC   C2B52160   2.036  28.931   6.764
 4036POPC   C3B52161   2.047  28.857   7.064
 4036POPC   C4B52162   2.015  28.866   7.364
 4037POPC   NC352163  43.080  17.515   5.564
 4037POPC   PO452164  43.072  17.495   5.864
 4037POPC   GL152165  43.123  17.464   6.164
 4037POPC   GL252166  43.049  17.584   6.164
 4037POPC   C1A52167  43.142  17.536   6.464
 4037POPC   D2A52168  43.090  17.464   6.764
 4037POPC   C3A52169  43.143  17.546   7.064
 4037POPC   C4A52170  43.081  17.519   7.364
 4037POPC   C1B52171  42.917  17.616   6.464
 4037POPC   C2B52172  42.937  17.619   6.764
 4037POPC   C3B52173  42.929  17.596   7.064
 4037POPC   C4B52174  42.911  17.666   7.364
 4038POPC   NC352175   2.792  12.066   5.564
 4038POPC   PO452176   2.723  12.028   5.864
 4038POPC   GL152177   2.746  12.044   6.164
 4038POPC   GL252178   2.701  12.001   6.164
 4038POPC   C1A52179   2.772  12.118   6.464
 4038POPC   D2A52180   2.718  12.088   6.764
 4038POPC   C3A52181   2.738  12.073   7.064
 4038POPC   C4A52182   2.732  12.107   7.364
 4038POPC   C1B52183   2.573  11.930   6.464
 4038POPC   C2B52184   2.563  11.833   6.764
 4038POPC   C3B52185   2.562  11.933   7.064
 4038POPC   C4B52186   2.581  11.921   7.364
 4039POPC   NC352187  16.761  42.305   5.564
 4039POPC   PO452188  16.774  42.323   5.864
 4039POPC   GL152189  16.713  42.289   6.164
 4039POPC   GL252190  16.582  42.261   6.164
 4039POPC   C1A52191  16.741  42.358   6.464
 4039POPC   D2A52192  16.717  42.381   6.764
 4039POPC   C3A52193  16.704  42.345   7.064
 4039POPC   C4A52194  16.727  42.299   7.364
 4039POPC   C1B52195  16.503  42.283   6.464
 4039POPC   C2B52196  16.501  42.295   6.764
 4039POPC   C3B52197  16.514  42.259   7.064
 4039POPC   C4B52198  16.505  42.226   7.364
 4040POPC   NC352199   6.608  28.329   5.564
 4040POPC   PO452200   6.639  28.399   5.864
 4040POPC   GL152201   6.667  28.406   6.164
 4040POPC   GL252202   6.600  28.536   6.164
 4040POPC   C1A52203   6.689  28.373   6.464
 4040POPC   D2A52204   6.644  28.358   6.764
 4040POPC   C3A52205   6.633  28.406   7.064
 4040POPC   C4A52206   6.670  28.419   7.364
 4040POPC   C1B52207   6.538  28.636   6.464
 4040POPC   C2B52208   6.576  28.576   6.764
 4040POPC   C3B52209   6.551  28.637   7.064
 4040POPC   C4B52210   6.536  28.643   7.364
 4041POPC   NC352211  19.852  18.327   5.564
 4041POPC   PO452212  19.833  18.292   5.864
 4041POPC   GL152213  19.862  18.234   6.164
 4041POPC   GL252214  19.709  18.253   6.164
 4041POPC   C1A52215  19.854  18.301   6.464
 4041POPC   D2A52216  19.825  18.290   6.764
 4041POPC   C3A52217  19.786  18.245   7.064
 4041POPC   C4A52218  19.847  18.308   7.364
 4041POPC   C1B52219  19.573  18.167   6.464
 4041POPC   C2B52220  19.601  18.163   6.764
 4041POPC   C3B52221  19.606  18.238   7.064
 4041POPC   C4B52222  19.637  18.170   7.364
 4042POPC   NC352223  23.695   5.906   5.564
 4042POPC   PO452224  23.706   5.853   5.864
 4042POPC   GL152225  23.668   5.897   6.164
 4042POPC   GL252226  23.586   5.847   6.164
 4042POPC   C1A52227  23.720   5.860   6.464
 4042POPC   D2A52228  23.729   5.843   6.764
 4042POPC   C3A52229  23.751   5.913   7.064
 4042POPC   C4A52230  23.721   5.867   7.364
 4042POPC   C1B52231  23.506   5.683   6.464
 4042POPC   C2B52232  23.495   5.683   6.764
 4042POPC   C3B52233  23.495   5.780   7.064
 4042POPC   C4B52234  23.475   5.767   7.364
 4043POPC   NC352235  13.595  11.327   5.564
 4043POPC   PO452236  13.649  11.273   5.864
 4043POPC   GL152237  13.676  11.276   6.164
 4043POPC   GL252238  13.728  11.404   6.164
 4043POPC   C1A52239  13.639  11.293   6.464
 4043POPC   D2A52240  13.654  11.335   6.764
 4043POPC   C3A52241  13.616  11.302   7.064
 4043POPC   C4A52242  13.582  11.319   7.364
 4043POPC   C1B52243  13.731  11.536   6.464
 4043POPC   C2B52244  13.768  11.545   6.764
 4043POPC   C3B52245  13.785  11.509   7.064
 4043POPC   C4B52246  13.703  11.525   7.364
 4044POPC   NC352247  15.131  41.560   5.564
 4044POPC   PO452248  15.136  41.577   5.864
 4044POPC   GL152249  15.173  41.606   6.164
 4044POPC   GL252250  15.094  41.703   6.164
 4044POPC   C1A52251  15.186  41.513   6.464
 4044POPC   D2A52252  15.174  41.607   6.764
 4044POPC   C3A52253  15.200  41.523   7.064
 4044POPC   C4A52254  15.155  41.595   7.364
 4044POPC   C1B52255  15.095  41.775   6.464
 4044POPC   C2B52256  15.111  41.746   6.764
 4044POPC   C3B52257  15.075  41.771   7.064
 4044POPC   C4B52258  15.127  41.789   7.364
 4045POPC   NC352259  28.361  11.259   5.564
 4045POPC   PO452260  28.405  11.305   5.864
 4045POPC   GL152261  28.358  11.328   6.164
 4045POPC   GL252262  28.293  11.242   6.164
 4045POPC   C1A52263  28.417  11.326   6.464
 4045POPC   D2A52264  28.380  11.290   6.764
 4045POPC   C3A52265  28.369  11.257   7.064
 4045POPC   C4A52266  28.323  11.317   7.364
 4045POPC   C1B52267  28.108  11.274   6.464
 4045POPC   C2B52268  28.074  11.255   6.764
 4045POPC   C3B52269  28.162  11.232   7.064
 4045POPC   C4B52270  28.129  11.236   7.364
 4046POPC   NC352271  21.398  20.633   5.564
 4046POPC   PO452272  21.387  20.572   5.864
 4046POPC   GL152273  21.430  20.570   6.164
 4046POPC   GL252274  21.411  20.470   6.164
 4046POPC   C1A52275  21.340  20.565   6.464
 4046POPC   D2A52276  21.415  20.591   6.764
 4046POPC   C3A52277  21.391  20.589   7.064
 4046POPC   C4A52278  21.432  20.598   7.364
 4046POPC   C1B52279  21.300  20.398   6.464
 4046POPC   C2B52280  21.304  20.325   6.764
 4046POPC   C3B52281  21.353  20.348   7.064
 4046POPC   C4B52282  21.348  20.345   7.364
 4047POPC   NC352283  22.132   5.083   5.564
 4047POPC   PO452284  22.133   5.057   5.864
 4047POPC   GL152285  22.188   5.115   6.164
 4047POPC   GL252286  22.130   4.991   6.164
 4047POPC   C1A52287  22.181   5.060   6.464
 4047POPC   D2A52288  22.158   5.143   6.764
 4047POPC   C3A52289  22.212   5.063   7.064
 4047POPC   C4A52290  22.168   5.066   7.364
 4047POPC   C1B52291  22.176   4.801   6.464
 4047POPC   C2B52292  22.210   4.850   6.764
 4047POPC   C3B52293  22.163   4.811   7.064
 4047POPC   C4B52294  22.218   4.886   7.364
 4048POPC   NC352295  39.247   9.706   5.564
 4048POPC   PO452296  39.209   9.717   5.864
 4048POPC   GL152297  39.243   9.762   6.164
 4048POPC   GL252298  39.156   9.829   6.164
 4048POPC   C1A52299  39.258   9.703   6.464
 4048POPC   D2A52300  39.274   9.789   6.764
 4048POPC   C3A52301  39.208   9.713   7.064
 4048POPC   C4A52302  39.279   9.765   7.364
 4048POPC   C1B52303  38.966   9.847   6.464
 4048POPC   C2B52304  39.005   9.799   6.764
 4048POPC   C3B52305  38.972   9.804   7.064
 4048POPC   C4B52306  38.964   9.825   7.364
 4049POPC   NC352307  21.383  25.228   5.564
 4049POPC   PO452308  21.410  25.218   5.864
 4049POPC   GL152309  21.422  25.240   6.164
 4049POPC   GL252310  21.393  25.135   6.164
 4049POPC   C1A52311  21.408  25.310   6.464
 4049POPC   D2A52312  21.377  25.288   6.764
 4049POPC   C3A52313  21.357  25.286   7.064
 4049POPC   C4A52314  21.342  25.289   7.364
 4049POPC   C1B52315  21.471  25.004   6.464
 4049POPC   C2B52316  21.462  25.008   6.764
 4049POPC   C3B52317  21.513  25.079   7.064
 4049POPC   C4B52318  21.433  25.026   7.364
 4050POPC   NC352319  22.977  22.959   5.564
 4050POPC   PO452320  22.889  22.955   5.864
 4050POPC   GL152321  22.950  22.973   6.164
 4050POPC   GL252322  23.024  22.884   6.164
 4050POPC   C1A52323  22.944  22.952   6.464
 4050POPC   D2A52324  22.958  22.961   6.764
 4050POPC   C3A52325  22.904  22.903   7.064
 4050POPC   C4A52326  22.889  22.918   7.364
 4050POPC   C1B52327  23.167  22.835   6.464
 4050POPC   C2B52328  23.105  22.811   6.764
 4050POPC   C3B52329  23.104  22.833   7.064
 4050POPC   C4B52330  23.141  22.807   7.364
 4051POPC   NC352331  15.131  36.858   5.564
 4051POPC   PO452332  15.152  36.895   5.864
 4051POPC   GL152333  15.184  36.915   6.164
 4051POPC   GL252334  15.280  36.941   6.164
 4051POPC   C1A52335  15.145  36.889   6.464
 4051POPC   D2A52336  15.183  36.890   6.764
 4051POPC   C3A52337  15.209  36.925   7.064
 4051POPC   C4A52338  15.147  36.856   7.364
 4051POPC   C1B52339  15.423  36.883   6.464
 4051POPC   C2B52340  15.385  36.929   6.764
 4051POPC   C3B52341  15.473  36.889   7.064
 4051POPC   C4B52342  15.455  36.868   7.364
 4052POPC   NC352343  21.338  26.826   5.564
 4052POPC   PO452344  21.432  26.772   5.864
 4052POPC   GL152345  21.399  26.782   6.164
 4052POPC   GL252346  21.512  26.865   6.164
 4052POPC   C1A52347  21.367  26.858   6.464
 4052POPC   D2A52348  21.342  26.779   6.764
 4052POPC   C3A52349  21.429  26.843   7.064
 4052POPC   C4A52350  21.418  26.817   7.364
 4052POPC   C1B52351  21.635  26.914   6.464
 4052POPC   C2B52352  21.634  26.977   6.764
 4052POPC   C3B52353  21.637  26.951   7.064
 4052POPC   C4B52354  21.584  26.914   7.364
 4053POPC   NC352355  29.909  10.564   5.564
 4053POPC   PO452356  29.911  10.559   5.864
 4053POPC   GL152357  29.893  10.485   6.164
 4053POPC   GL252358  30.022  10.618   6.164
 4053POPC   C1A52359  29.876  10.534   6.464
 4053POPC   D2A52360  29.917  10.477   6.764
 4053POPC   C3A52361  29.892  10.566   7.064
 4053POPC   C4A52362  29.914  10.513   7.364
 4053POPC   C1B52363  30.070  10.677   6.464
 4053POPC   C2B52364  30.027  10.733   6.764
 4053POPC   C3B52365  30.117  10.717   7.064
 4053POPC   C4B52366  30.068  10.733   7.364
 4054POPC   NC352367  13.627  26.837   5.564
 4054POPC   PO452368  13.610  26.847   5.864
 4054POPC   GL152369  13.604  26.777   6.164
 4054POPC   GL252370  13.609  26.700   6.164
 4054POPC   C1A52371  13.631  26.784   6.464
 4054POPC   D2A52372  13.650  26.833   6.764
 4054POPC   C3A52373  13.660  26.791   7.064
 4054POPC   C4A52374  13.619  26.778   7.364
 4054POPC   C1B52375  13.523  26.579   6.464
 4054POPC   C2B52376  13.534  26.601   6.764
 4054POPC   C3B52377  13.498  26.600   7.064
 4054POPC   C4B52378  13.514  26.544   7.364
 4055POPC   NC352379   4.276   1.942   5.564
 4055POPC   PO452380   4.367   1.940   5.864
 4055POPC   GL152381   4.276   2.033   6.164
 4055POPC   GL252382   4.226   1.869   6.164
 4055POPC   C1A52383   4.314   1.966   6.464
 4055POPC   D2A52384   4.357   2.016   6.764
 4055POPC   C3A52385   4.338   1.996   7.064
 4055POPC   C4A52386   4.324   1.982   7.364
 4055POPC   C1B52387   4.124   1.830   6.464
 4055POPC   C2B52388   4.100   1.885   6.764
 4055POPC   C3B52389   4.132   1.873   7.064
 4055POPC   C4B52390   4.143   1.883   7.364
 4056POPC   NC352391   4.269  43.866   5.564
 4056POPC   PO452392   4.332  43.914   5.864
 4056POPC   GL152393   4.288  43.843   6.164
 4056POPC   GL252394   4.218  43.957   6.164
 4056POPC   C1A52395   4.332  43.913   6.464
 4056POPC   D2A52396   4.319  43.932   6.764
 4056POPC   C3A52397   4.337  43.865   7.064
 4056POPC   C4A52398   4.293  43.850   7.364
 4056POPC   C1B52399   4.108  44.045   6.464
 4056POPC   C2B52400   4.067  43.989   6.764
 4056POPC   C3B52401   4.076  43.989   7.064
 4056POPC   C4B52402   4.093  44.028   7.364
 4057POPC   NC352403  43.911  14.359   5.564
 4057POPC   PO452404  43.857  14.401   5.864
 4057POPC   GL152405  43.849  14.364   6.164
 4057POPC   GL252406  43.842  14.231   6.164
 4057POPC   C1A52407  43.880  14.424   6.464
 4057POPC   D2A52408  43.888  14.411   6.764
 4057POPC   C3A52409  43.860  14.387   7.064
 4057POPC   C4A52410  43.897  14.376   7.364
 4057POPC   C1B52411  43.825  14.144   6.464
 4057POPC   C2B52412  43.881  14.186   6.764
 4057POPC   C3B52413  43.811  14.162   7.064
 4057POPC   C4B52414  43.816  14.190   7.364
 4058POPC   NC352415  28.349  29.909   5.564
 4058POPC   PO452416  28.351  29.905   5.864
 4058POPC   GL152417  28.345  29.937   6.164
 4058POPC   GL252418  28.341  30.007   6.164
 4058POPC   C1A52419  28.364  29.919   6.464
 4058POPC   D2A52420  28.408  29.919   6.764
 4058POPC   C3A52421  28.345  29.917   7.064
 4058POPC   C4A52422  28.354  29.899   7.364
 4058POPC   C1B52423  28.303  30.126   6.464
 4058POPC   C2B52424  28.303  30.169   6.764
 4058POPC   C3B52425  28.236  30.164   7.064
 4058POPC   C4B52426  28.261  30.174   7.364
 4059POPC   NC352427  16.700   6.635   5.564
 4059POPC   PO452428  16.742   6.678   5.864
 4059POPC   GL152429  16.757   6.601   6.164
 4059POPC   GL252430  16.630   6.751   6.164
 4059POPC   C1A52431  16.755   6.690   6.464
 4059POPC   D2A52432  16.730   6.596   6.764
 4059POPC   C3A52433  16.685   6.689   7.064
 4059POPC   C4A52434  16.741   6.661   7.364
 4059POPC   C1B52435  16.496   6.786   6.464
 4059POPC   C2B52436  16.499   6.755   6.764
 4059POPC   C3B52437  16.546   6.765   7.064
 4059POPC   C4B52438  16.512   6.774   7.364
 4060POPC   NC352439   5.828  16.751   5.564
 4060POPC   PO452440   5.870  16.694   5.864
 4060POPC   GL152441   5.857  16.760   6.164
 4060POPC   GL252442   5.890  16.838   6.164
 4060POPC   C1A52443   5.820  16.706   6.464
 4060POPC   D2A52444   5.871  16.761   6.764
 4060POPC   C3A52445   5.824  16.776   7.064
 4060POPC   C4A52446   5.893  16.716   7.364
 4060POPC   C1B52447   5.969  16.997   6.464
 4060POPC   C2B52448   5.959  16.943   6.764
 4060POPC   C3B52449   5.992  16.930   7.064
 4060POPC   C4B52450   5.981  16.989   7.364
 4061POPC   NC352451   0.481  24.470   5.564
 4061POPC   PO452452   0.388  24.440   5.864
 4061POPC   GL152453   0.392  24.530   6.164
 4061POPC   GL252454   0.541  24.360   6.164
 4061POPC   C1A52455   0.450  24.462   6.464
 4061POPC   D2A52456   0.460  24.461   6.764
 4061POPC   C3A52457   0.394  24.507   7.064
 4061POPC   C4A52458   0.462  24.518   7.364
 4061POPC   C1B52459   0.588  24.278   6.464
 4061POPC   C2B52460   0.604  24.320   6.764
 4061POPC   C3B52461   0.535  24.298   7.064
 4061POPC   C4B52462   0.590  24.274   7.364
 4062POPC   NC352463  39.968  22.168   5.564
 4062POPC   PO452464  40.029  22.155   5.864
 4062POPC   GL152465  39.988  22.138   6.164
 4062POPC   GL252466  39.987  22.040   6.164
 4062POPC   C1A52467  40.022  22.149   6.464
 4062POPC   D2A52468  40.007  22.190   6.764
 4062POPC   C3A52469  40.007  22.162   7.064
 4062POPC   C4A52470  39.987  22.169   7.364
 4062POPC   C1B52471  40.052  21.945   6.464
 4062POPC   C2B52472  40.057  21.951   6.764
 4062POPC   C3B52473  40.004  21.895   7.064
 4062POPC   C4B52474  40.021  21.885   7.364
 4063POPC   NC352475  12.865  39.256   5.564
 4063POPC   PO452476  12.858  39.185   5.864
 4063POPC   GL152477  12.849  39.258   6.164
 4063POPC   GL252478  12.717  39.175   6.164
 4063POPC   C1A52479  12.869  39.271   6.464
 4063POPC   D2A52480  12.825  39.239   6.764
 4063POPC   C3A52481  12.809  39.197   7.064
 4063POPC   C4A52482  12.855  39.248   7.364
 4063POPC   C1B52483  12.640  39.067   6.464
 4063POPC   C2B52484  12.670  39.120   6.764
 4063POPC   C3B52485  12.655  39.091   7.064
 4063POPC   C4B52486  12.672  39.065   7.364
 4064POPC   NC352487  30.662   0.460   5.564
 4064POPC   PO452488  30.654   0.439   5.864
 4064POPC   GL152489  30.711   0.473   6.164
 4064POPC   GL252490  30.551   0.530   6.164
 4064POPC   C1A52491  30.690   0.456   6.464
 4064POPC   D2A52492  30.683   0.414   6.764
 4064POPC   C3A52493  30.675   0.404   7.064
 4064POPC   C4A52494  30.651   0.451   7.364
 4064POPC   C1B52495  30.443   0.524   6.464
 4064POPC   C2B52496  30.484   0.577   6.764
 4064POPC   C3B52497  30.504   0.598   7.064
 4064POPC   C4B52498  30.440   0.539   7.364
 4065POPC   NC352499  29.942  33.827   5.564
 4065POPC   PO452500  29.889  33.769   5.864
 4065POPC   GL152501  29.890  33.829   6.164
 4065POPC   GL252502  29.829  33.867   6.164
 4065POPC   C1A52503  29.961  33.795   6.464
 4065POPC   D2A52504  29.876  33.756   6.764
 4065POPC   C3A52505  29.944  33.777   7.064
 4065POPC   C4A52506  29.936  33.847   7.364
 4065POPC   C1B52507  29.784  34.063   6.464
 4065POPC   C2B52508  29.811  34.032   6.764
 4065POPC   C3B52509  29.859  34.067   7.064
 4065POPC   C4B52510  29.853  34.041   7.364
 4066POPC   NC352511   1.168  38.447   5.564
 4066POPC   PO452512   1.246  38.443   5.864
 4066POPC   GL152513   1.232  38.487   6.164
 4066POPC   GL252514   1.286  38.462   6.164
 4066POPC   C1A52515   1.175  38.461   6.464
 4066POPC   D2A52516   1.216  38.485   6.764
 4066POPC   C3A52517   1.203  38.463   7.064
 4066POPC   C4A52518   1.246  38.499   7.364
 4066POPC   C1B52519   1.404  38.575   6.464
 4066POPC   C2B52520   1.426  38.603   6.764
 4066POPC   C3B52521   1.416  38.601   7.064
 4066POPC   C4B52522   1.398  38.569   7.364
 4067POPC   NC352523  33.836  26.046   5.564
 4067POPC   PO452524  33.830  26.065   5.864
 4067POPC   GL152525  33.802  26.068   6.164
 4067POPC   GL252526  33.670  26.051   6.164
 4067POPC   C1A52527  33.797  26.005   6.464
 4067POPC   D2A52528  33.800  26.015   6.764
 4067POPC   C3A52529  33.757  26.018   7.064
 4067POPC   C4A52530  33.757  26.023   7.364
 4067POPC   C1B52531  33.579  26.070   6.464
 4067POPC   C2B52532  33.580  26.106   6.764
 4067POPC   C3B52533  33.543  26.088   7.064
 4067POPC   C4B52534  33.566  26.125   7.364
 4068POPC   NC352535  38.503   1.997   5.564
 4068POPC   PO452536  38.421   1.990   5.864
 4068POPC   GL152537  38.418   1.978   6.164
 4068POPC   GL252538  38.310   2.023   6.164
 4068POPC   C1A52539  38.439   1.987   6.464
 4068POPC   D2A52540  38.493   1.976   6.764
 4068POPC   C3A52541  38.488   2.026   7.064
 4068POPC   C4A52542  38.493   1.986   7.364
 4068POPC   C1B52543  38.206   2.049   6.464
 4068POPC   C2B52544  38.211   2.126   6.764
 4068POPC   C3B52545  38.256   2.122   7.064
 4068POPC   C4B52546  38.266   2.087   7.364
 4069POPC   NC352547  29.117   8.166   5.564
 4069POPC   PO452548  29.177   8.168   5.864
 4069POPC   GL152549  29.117   8.230   6.164
 4069POPC   GL252550  29.291   8.154   6.164
 4069POPC   C1A52551  29.180   8.152   6.464
 4069POPC   D2A52552  29.106   8.241   6.764
 4069POPC   C3A52553  29.109   8.160   7.064
 4069POPC   C4A52554  29.119   8.193   7.364
 4069POPC   C1B52555  29.317   8.001   6.464
 4069POPC   C2B52556  29.309   8.086   6.764
 4069POPC   C3B52557  29.348   8.058   7.064
 4069POPC   C4B52558  29.328   8.034   7.364
 4070POPC   NC352559  24.488  20.637   5.564
 4070POPC   PO452560  24.485  20.576   5.864
 4070POPC   GL152561  24.478  20.571   6.164
 4070POPC   GL252562  24.409  20.549   6.164
 4070POPC   C1A52563  24.513  20.618   6.464
 4070POPC   D2A52564  24.455  20.625   6.764
 4070POPC   C3A52565  24.536  20.563   7.064
 4070POPC   C4A52566  24.539  20.562   7.364
 4070POPC   C1B52567  24.313  20.475   6.464
 4070POPC   C2B52568  24.319  20.491   6.764
 4070POPC   C3B52569  24.227  20.451   7.064
 4070POPC   C4B52570  24.236  20.514   7.364
 4071POPC   NC352571  32.222  23.695   5.564
 4071POPC   PO452572  32.203  23.707   5.864
 4071POPC   GL152573  32.201  23.697   6.164
 4071POPC   GL252574  32.403  23.727   6.164
 4071POPC   C1A52575  32.270  23.763   6.464
 4071POPC   D2A52576  32.278  23.760   6.764
 4071POPC   C3A52577  32.255  23.742   7.064
 4071POPC   C4A52578  32.268  23.682   7.364
 4071POPC   C1B52579  32.491  23.700   6.464
 4071POPC   C2B52580  32.519  23.749   6.764
 4071POPC   C3B52581  32.462  23.755   7.064
 4071POPC   C4B52582  32.518  23.731   7.364
 4072POPC   NC352583  19.031   4.282   5.564
 4072POPC   PO452584  19.102   4.353   5.864
 4072POPC   GL152585  19.095   4.335   6.164
 4072POPC   GL252586  19.125   4.228   6.164
 4072POPC   C1A52587  19.062   4.277   6.464
 4072POPC   D2A52588  19.080   4.316   6.764
 4072POPC   C3A52589  19.041   4.363   7.064
 4072POPC   C4A52590  19.086   4.308   7.364
 4072POPC   C1B52591  19.136   4.057   6.464
 4072POPC   C2B52592  19.196   4.068   6.764
 4072POPC   C3B52593  19.198   4.122   7.064
 4072POPC   C4B52594  19.142   4.059   7.364
 4073POPC   NC352595   1.961  43.084   5.564
 4073POPC   PO452596   1.966  43.126   5.864
 4073POPC   GL152597   2.025  43.131   6.164
 4073POPC   GL252598   2.041  43.000   6.164
 4073POPC   C1A52599   2.008  43.070   6.464
 4073POPC   D2A52600   2.035  43.142   6.764
 4073POPC   C3A52601   1.975  43.071   7.064
 4073POPC   C4A52602   1.950  43.149   7.364
 4073POPC   C1B52603   2.028  42.825   6.464
 4073POPC   C2B52604   2.060  42.906   6.764
 4073POPC   C3B52605   2.065  42.838   7.064
 4073POPC   C4B52606   2.070  42.833   7.364
 4074POPC   NC352607  44.641  43.080   5.564
 4074POPC   PO452608  44.680  43.116   5.864
 4074POPC   GL152609  44.659  43.077   6.164
 4074POPC   GL252610  44.755  43.061   6.164
 4074POPC   C1A52611  44.643  43.157   6.464
 4074POPC   D2A52612  44.617  43.121   6.764
 4074POPC   C3A52613  44.664  43.082   7.064
 4074POPC   C4A52614  44.671  43.092   7.364
 4074POPC   C1B52615  44.905  43.073   6.464
 4074POPC   C2B52616  44.861  43.052   6.764
 4074POPC   C3B52617  44.897  43.050   7.064
 4074POPC   C4B52618  44.857  43.007   7.364
 4075POPC   NC352619   0.467   4.360   5.564
 4075POPC   PO452620   0.477   4.312   5.864
 4075POPC   GL152621   0.404   4.304   6.164
 4075POPC   GL252622   0.495   4.445   6.164
 4075POPC   C1A52623   0.408   4.309   6.464
 4075POPC   D2A52624   0.482   4.366   6.764
 4075POPC   C3A52625   0.390   4.295   7.064
 4075POPC   C4A52626   0.471   4.328   7.364
 4075POPC   C1B52627   0.415   4.567   6.464
 4075POPC   C2B52628   0.502   4.576   6.764
 4075POPC   C3B52629   0.490   4.608   7.064
 4075POPC   C4B52630   0.418   4.576   7.364
 4076POPC   NC352631  17.491   2.019   5.564
 4076POPC   PO452632  17.504   1.952   5.864
 4076POPC   GL152633  17.553   2.008   6.164
 4076POPC   GL252634  17.423   1.925   6.164
 4076POPC   C1A52635  17.460   1.949   6.464
 4076POPC   D2A52636  17.458   2.004   6.764
 4076POPC   C3A52637  17.498   1.996   7.064
 4076POPC   C4A52638  17.525   1.989   7.364
 4076POPC   C1B52639  17.330   1.766   6.464
 4076POPC   C2B52640  17.370   1.821   6.764
 4076POPC   C3B52641  17.387   1.763   7.064
 4076POPC   C4B52642  17.418   1.750   7.364
 4077POPC   NC352643  30.662  23.699   5.564
 4077POPC   PO452644  30.720  23.668   5.864
 4077POPC   GL152645  30.661  23.712   6.164
 4077POPC   GL252646  30.579  23.853   6.164
 4077POPC   C1A52647  30.733  23.694   6.464
 4077POPC   D2A52648  30.709  23.705   6.764
 4077POPC   C3A52649  30.727  23.695   7.064
 4077POPC   C4A52650  30.728  23.708   7.364
 4077POPC   C1B52651  30.576  23.896   6.464
 4077POPC   C2B52652  30.596  23.931   6.764
 4077POPC   C3B52653  30.600  23.941   7.064
 4077POPC   C4B52654  30.547  23.888   7.364
 4078POPC   NC352655  28.411   6.679   5.564
 4078POPC   PO452656  28.342   6.646   5.864
 4078POPC   GL152657  28.405   6.655   6.164
 4078POPC   GL252658  28.338   6.530   6.164
 4078POPC   C1A52659  28.376   6.686   6.464
 4078POPC   D2A52660  28.354   6.603   6.764
 4078POPC   C3A52661  28.323   6.614   7.064
 4078POPC   C4A52662  28.331   6.674   7.364
 4078POPC   C1B52663  28.270   6.473   6.464
 4078POPC   C2B52664  28.214   6.393   6.764
 4078POPC   C3B52665  28.275   6.456   7.064
 4078POPC   C4B52666  28.240   6.454   7.364
 4079POPC   NC352667  31.471  40.761   5.564
 4079POPC   PO452668  31.441  40.807   5.864
 4079POPC   GL152669  31.451  40.821   6.164
 4079POPC   GL252670  31.410  40.870   6.164
 4079POPC   C1A52671  31.473  40.763   6.464
 4079POPC   D2A52672  31.496  40.780   6.764
 4079POPC   C3A52673  31.455  40.753   7.064
 4079POPC   C4A52674  31.466  40.794   7.364
 4079POPC   C1B52675  31.263  40.954   6.464
 4079POPC   C2B52676  31.297  40.951   6.764
 4079POPC   C3B52677  31.263  41.004   7.064
 4079POPC   C4B52678  31.346  40.954   7.364
 4080POPC   NC352679  44.679  43.906   5.564
 4080POPC   PO452680  44.658  43.871   5.864
 4080POPC   GL152681  44.704  43.875   6.164
 4080POPC   GL252682  44.559  43.870   6.164
 4080POPC   C1A52683  44.672  43.876   6.464
 4080POPC   D2A52684  44.705  43.888   6.764
 4080POPC   C3A52685  44.671  43.861   7.064
 4080POPC   C4A52686  44.664  43.893   7.364
 4080POPC   C1B52687  44.399  43.842   6.464
 4080POPC   C2B52688  44.458  43.872   6.764
 4080POPC   C3B52689  44.371  43.901   7.064
 4080POPC   C4B52690  44.447  43.898   7.364
 4081POPC   NC352691  34.568  11.283   5.564
 4081POPC   PO452692  34.545  11.262   5.864
 4081POPC   GL152693  34.562  11.259   6.164
 4081POPC   GL252694  34.500  11.210   6.164
 4081POPC   C1A52695  34.575  11.348   6.464
 4081POPC   D2A52696  34.528  11.297   6.764
 4081POPC   C3A52697  34.558  11.324   7.064
 4081POPC   C4A52698  34.621  11.271   7.364
 4081POPC   C1B52699  34.436  11.124   6.464
 4081POPC   C2B52700  34.416  11.129   6.764
 4081POPC   C3B52701  34.394  11.098   7.064
 4081POPC   C4B52702  34.377  11.142   7.364
 4082POPC   NC352703   4.299  31.451   5.564
 4082POPC   PO452704   4.328  31.439   5.864
 4082POPC   GL152705   4.358  31.479   6.164
 4082POPC   GL252706   4.363  31.377   6.164
 4082POPC   C1A52707   4.364  31.437   6.464
 4082POPC   D2A52708   4.365  31.428   6.764
 4082POPC   C3A52709   4.270  31.469   7.064
 4082POPC   C4A52710   4.337  31.493   7.364
 4082POPC   C1B52711   4.380  31.254   6.464
 4082POPC   C2B52712   4.379  31.213   6.764
 4082POPC   C3B52713   4.339  31.205   7.064
 4082POPC   C4B52714   4.304  31.229   7.364
 4083POPC   NC352715  18.327  30.732   5.564
 4083POPC   PO452716  18.288  30.685   5.864
 4083POPC   GL152717  18.251  30.685   6.164
 4083POPC   GL252718  18.394  30.653   6.164
 4083POPC   C1A52719  18.247  30.702   6.464
 4083POPC   D2A52720  18.302  30.718   6.764
 4083POPC   C3A52721  18.278  30.736   7.064
 4083POPC   C4A52722  18.262  30.654   7.364
 4083POPC   C1B52723  18.458  30.502   6.464
 4083POPC   C2B52724  18.496  30.566   6.764
 4083POPC   C3B52725  18.465  30.588   7.064
 4083POPC   C4B52726  18.497  30.512   7.364
 4084POPC   NC352727   5.882  38.440   5.564
 4084POPC   PO452728   5.863  38.422   5.864
 4084POPC   GL152729   5.847  38.425   6.164
 4084POPC   GL252730   5.881  38.612   6.164
 4084POPC   C1A52731   5.863  38.412   6.464
 4084POPC   D2A52732   5.861  38.406   6.764
 4084POPC   C3A52733   5.899  38.413   7.064
 4084POPC   C4A52734   5.831  38.420   7.364
 4084POPC   C1B52735   5.818  38.696   6.464
 4084POPC   C2B52736   5.835  38.698   6.764
 4084POPC   C3B52737   5.851  38.675   7.064
 4084POPC   C4B52738   5.830  38.657   7.364
 4085POPC   NC352739  28.366  28.387   5.564
 4085POPC   PO452740  28.362  28.417   5.864
 4085POPC   GL152741  28.407  28.371   6.164
 4085POPC   GL252742  28.290  28.417   6.164
 4085POPC   C1A52743  28.328  28.405   6.464
 4085POPC   D2A52744  28.344  28.362   6.764
 4085POPC   C3A52745  28.388  28.331   7.064
 4085POPC   C4A52746  28.386  28.385   7.364
 4085POPC   C1B52747  28.144  28.403   6.464
 4085POPC   C2B52748  28.131  28.429   6.764
 4085POPC   C3B52749  28.166  28.378   7.064
 4085POPC   C4B52750  28.113  28.420   7.364
 4086POPC   NC352751  20.561  21.352   5.564
 4086POPC   PO452752  20.624  21.373   5.864
 4086POPC   GL152753  20.597  21.357   6.164
 4086POPC   GL252754  20.540  21.275   6.164
 4086POPC   C1A52755  20.579  21.373   6.464
 4086POPC   D2A52756  20.626  21.373   6.764
 4086POPC   C3A52757  20.611  21.381   7.064
 4086POPC   C4A52758  20.645  21.386   7.364
 4086POPC   C1B52759  20.360  21.252   6.464
 4086POPC   C2B52760  20.369  21.303   6.764
 4086POPC   C3B52761  20.415  21.280   7.064
 4086POPC   C4B52762  20.392  21.234   7.364
 4087POPC   NC352763  34.551  36.896   5.564
 4087POPC   PO452764  34.541  36.920   5.864
 4087POPC   GL152765  34.598  36.865   6.164
 4087POPC   GL252766  34.714  37.003   6.164
 4087POPC   C1A52767  34.582  36.944   6.464
 4087POPC   D2A52768  34.602  36.890   6.764
 4087POPC   C3A52769  34.603  36.876   7.064
 4087POPC   C4A52770  34.541  36.876   7.364
 4087POPC   C1B52771  34.810  37.107   6.464
 4087POPC   C2B52772  34.805  37.076   6.764
 4087POPC   C3B52773  34.734  37.075   7.064
 4087POPC   C4B52774  34.724  37.038   7.364
 4088POPC   NC352775  13.653  37.688   5.564
 4088POPC   PO452776  13.620  37.714   5.864
 4088POPC   GL152777  13.608  37.700   6.164
 4088POPC   GL252778  13.652  37.792   6.164
 4088POPC   C1A52779  13.641  37.654   6.464
 4088POPC   D2A52780  13.609  37.638   6.764
 4088POPC   C3A52781  13.642  37.669   7.064
 4088POPC   C4A52782  13.638  37.692   7.364
 4088POPC   C1B52783  13.690  37.868   6.464
 4088POPC   C2B52784  13.726  37.901   6.764
 4088POPC   C3B52785  13.770  37.919   7.064
 4088POPC   C4B52786  13.713  37.953   7.364
 4089POPC   NC352787  39.986  23.738   5.564
 4089POPC   PO452788  40.036  23.707   5.864
 4089POPC   GL152789  40.051  23.680   6.164
 4089POPC   GL252790  40.166  23.720   6.164
 4089POPC   C1A52791  40.004  23.711   6.464
 4089POPC   D2A52792  39.984  23.695   6.764
 4089POPC   C3A52793  40.044  23.732   7.064
 4089POPC   C4A52794  39.957  23.736   7.364
 4089POPC   C1B52795  40.219  23.643   6.464
 4089POPC   C2B52796  40.209  23.618   6.764
 4089POPC   C3B52797  40.210  23.627   7.064
 4089POPC   C4B52798  40.264  23.701   7.364
 4090POPC   NC352799  42.329  19.884   5.564
 4090POPC   PO452800  42.320  19.854   5.864
 4090POPC   GL152801  42.310  19.846   6.164
 4090POPC   GL252802  42.201  19.738   6.164
 4090POPC   C1A52803  42.308  19.882   6.464
 4090POPC   D2A52804  42.312  19.842   6.764
 4090POPC   C3A52805  42.349  19.863   7.064
 4090POPC   C4A52806  42.295  19.882   7.364
 4090POPC   C1B52807  42.108  19.771   6.464
 4090POPC   C2B52808  42.149  19.731   6.764
 4090POPC   C3B52809  42.150  19.706   7.064
 4090POPC   C4B52810  42.155  19.724   7.364
 4091POPC   NC352811  25.277  30.684   5.564
 4091POPC   PO452812  25.237  30.678   5.864
 4091POPC   GL152813  25.245  30.666   6.164
 4091POPC   GL252814  25.176  30.622   6.164
 4091POPC   C1A52815  25.298  30.654   6.464
 4091POPC   D2A52816  25.258  30.716   6.764
 4091POPC   C3A52817  25.241  30.692   7.064
 4091POPC   C4A52818  25.216  30.693   7.364
 4091POPC   C1B52819  25.159  30.534   6.464
 4091POPC   C2B52820  25.175  30.513   6.764
 4091POPC   C3B52821  25.157  30.497   7.064
 4091POPC   C4B52822  25.124  30.501   7.364
 4092POPC   NC352823  27.557  18.269   5.564
 4092POPC   PO452824  27.567  18.251   5.864
 4092POPC   GL152825  27.548  18.307   6.164
 4092POPC   GL252826  27.444  18.231   6.164
 4092POPC   C1A52827  27.549  18.318   6.464
 4092POPC   D2A52828  27.572  18.261   6.764
 4092POPC   C3A52829  27.607  18.295   7.064
 4092POPC   C4A52830  27.552  18.275   7.364
 4092POPC   C1B52831  27.372  18.151   6.464
 4092POPC   C2B52832  27.337  18.142   6.764
 4092POPC   C3B52833  27.345  18.178   7.064
 4092POPC   C4B52834  27.338  18.190   7.364
 4093POPC   NC352835  37.695   8.152   5.564
 4093POPC   PO452836  37.675   8.215   5.864
 4093POPC   GL152837  37.703   8.202   6.164
 4093POPC   GL252838  37.626   8.100   6.164
 4093POPC   C1A52839  37.683   8.156   6.464
 4093POPC   D2A52840  37.713   8.186   6.764
 4093POPC   C3A52841  37.681   8.232   7.064
 4093POPC   C4A52842  37.648   8.226   7.364
 4093POPC   C1B52843  37.638   7.990   6.464
 4093POPC   C2B52844  37.635   7.958   6.764
 4093POPC   C3B52845  37.572   7.975   7.064
 4093POPC   C4B52846  37.601   7.918   7.364
 4094POPC   NC352847  36.157  28.330   5.564
 4094POPC   PO452848  36.096  28.322   5.864
 4094POPC   GL152849  36.118  28.326   6.164
 4094POPC   GL252850  36.072  28.427   6.164
 4094POPC   C1A52851  36.113  28.396   6.464
 4094POPC   D2A52852  36.087  28.399   6.764
 4094POPC   C3A52853  36.108  28.397   7.064
 4094POPC   C4A52854  36.143  28.409   7.364
 4094POPC   C1B52855  36.000  28.587   6.464
 4094POPC   C2B52856  36.022  28.589   6.764
 4094POPC   C3B52857  35.963  28.608   7.064
 4094POPC   C4B52858  35.994  28.542   7.364
 4095POPC   NC352859  30.717   8.158   5.564
 4095POPC   PO452860  30.741   8.241   5.864
 4095POPC   GL152861  30.647   8.154   6.164
 4095POPC   GL252862  30.597   8.179   6.164
 4095POPC   C1A52863  30.696   8.154   6.464
 4095POPC   D2A52864  30.721   8.147   6.764
 4095POPC   C3A52865  30.745   8.230   7.064
 4095POPC   C4A52866  30.684   8.162   7.364
 4095POPC   C1B52867  30.410   8.233   6.464
 4095POPC   C2B52868  30.467   8.261   6.764
 4095POPC   C3B52869  30.455   8.245   7.064
 4095POPC   C4B52870  30.472   8.246   7.364
 4096POPC   NC352871  26.013  36.895   5.564
 4096POPC   PO452872  26.036  36.879   5.864
 4096POPC   GL152873  26.000  36.938   6.164
 4096POPC   GL252874  26.175  36.975   6.164
 4096POPC   C1A52875  26.090  36.935   6.464
 4096POPC   D2A52876  26.028  36.868   6.764
 4096POPC   C3A52877  26.030  36.880   7.064
 4096POPC   C4A52878  26.014  36.860   7.364
 4096POPC   C1B52879  26.268  36.930   6.464
 4096POPC   C2B52880  26.257  36.912   6.764
 4096POPC   C3B52881  26.312  36.968   7.064
 4096POPC   C4B52882  26.263  36.939   7.364
 4097POPC   NC352883  27.550   8.993   5.564
 4097POPC   PO452884  27.635   8.956   5.864
 4097POPC   GL152885  27.555   8.957   6.164
 4097POPC   GL252886  27.668   8.863   6.164
 4097POPC   C1A52887  27.614   8.971   6.464
 4097POPC   D2A52888  27.583   8.987   6.764
 4097POPC   C3A52889  27.557   8.965   7.064
 4097POPC   C4A52890  27.632   8.986   7.364
 4097POPC   C1B52891  27.767   8.823   6.464
 4097POPC   C2B52892  27.794   8.794   6.764
 4097POPC   C3B52893  27.793   8.855   7.064
 4097POPC   C4B52894  27.768   8.859   7.364
 4098POPC   NC352895  29.104  29.921   5.564
 4098POPC   PO452896  29.194  29.906   5.864
 4098POPC   GL152897  29.175  29.891   6.164
 4098POPC   GL252898  29.266  29.892   6.164
 4098POPC   C1A52899  29.195  29.911   6.464
 4098POPC   D2A52900  29.181  29.892   6.764
 4098POPC   C3A52901  29.096  29.887   7.064
 4098POPC   C4A52902  29.120  29.939   7.364
 4098POPC   C1B52903  29.313  29.795   6.464
 4098POPC   C2B52904  29.330  29.834   6.764
 4098POPC   C3B52905  29.382  29.749   7.064
 4098POPC   C4B52906  29.375  29.823   7.364
 4099POPC   NC352907  12.041  10.513   5.564
 4099POPC   PO452908  12.065  10.528   5.864
 4099POPC   GL152909  12.064  10.506   6.164
 4099POPC   GL252910  11.982  10.485   6.164
 4099POPC   C1A52911  12.038  10.561   6.464
 4099POPC   D2A52912  12.063  10.549   6.764
 4099POPC   C3A52913  12.120  10.486   7.064
 4099POPC   C4A52914  12.067  10.545   7.364
 4099POPC   C1B52915  11.814  10.425   6.464
 4099POPC   C2B52916  11.860  10.444   6.764
 4099POPC   C3B52917  11.818  10.414   7.064
 4099POPC   C4B52918  11.809  10.382   7.364
 4100POPC   NC352919   7.464  13.670   5.564
 4100POPC   PO452920   7.463  13.591   5.864
 4100POPC   GL152921   7.386  13.611   6.164
 4100POPC   GL252922   7.452  13.776   6.164
 4100POPC   C1A52923   7.443  13.581   6.464
 4100POPC   D2A52924   7.461  13.674   6.764
 4100POPC   C3A52925   7.408  13.605   7.064
 4100POPC   C4A52926   7.412  13.582   7.364
 4100POPC   C1B52927   7.403  13.856   6.464
 4100POPC   C2B52928   7.432  13.915   6.764
 4100POPC   C3B52929   7.387  13.896   7.064
 4100POPC   C4B52930   7.381  13.919   7.364
 4101POPC   NC352931  34.563   8.948   5.564
 4101POPC   PO452932  34.586   9.020   5.864
 4101POPC   GL152933  34.546   8.956   6.164
 4101POPC   GL252934  34.659   8.973   6.164
 4101POPC   C1A52935  34.535   8.966   6.464
 4101POPC   D2A52936  34.605   8.947   6.764
 4101POPC   C3A52937  34.588   8.982   7.064
 4101POPC   C4A52938  34.606   8.933   7.364
 4101POPC   C1B52939  34.815   8.857   6.464
 4101POPC   C2B52940  34.817   8.906   6.764
 4101POPC   C3B52941  34.833   8.905   7.064
 4101POPC   C4B52942  34.857   8.855   7.364
 4102POPC   NC352943  19.105   3.529   5.564
 4102POPC   PO452944  19.033   3.572   5.864
 4102POPC   GL152945  19.103   3.511   6.164
 4102POPC   GL252946  19.100   3.473   6.164
 4102POPC   C1A52947  19.036   3.576   6.464
 4102POPC   D2A52948  19.061   3.556   6.764
 4102POPC   C3A52949  19.034   3.572   7.064
 4102POPC   C4A52950  19.021   3.542   7.364
 4102POPC   C1B52951  19.153   3.328   6.464
 4102POPC   C2B52952  19.122   3.271   6.764
 4102POPC   C3B52953  19.111   3.304   7.064
 4102POPC   C4B52954  19.204   3.275   7.364
 4103POPC   NC352955  43.066  32.209   5.564
 4103POPC   PO452956  43.110  32.230   5.864
 4103POPC   GL152957  43.069  32.247   6.164
 4103POPC   GL252958  43.247  32.302   6.164
 4103POPC   C1A52959  43.082  32.298   6.464
 4103POPC   D2A52960  43.063  32.283   6.764
 4103POPC   C3A52961  43.158  32.248   7.064
 4103POPC   C4A52962  43.134  32.241   7.364
 4103POPC   C1B52963  43.381  32.373   6.464
 4103POPC   C2B52964  43.372  32.362   6.764
 4103POPC   C3B52965  43.328  32.325   7.064
 4103POPC   C4B52966  43.340  32.389   7.364
 4104POPC   NC352967  38.488  16.764   5.564
 4104POPC   PO452968  38.466  16.747   5.864
 4104POPC   GL152969  38.453  16.691   6.164
 4104POPC   GL252970  38.553  16.827   6.164
 4104POPC   C1A52971  38.414  16.747   6.464
 4104POPC   D2A52972  38.419  16.760   6.764
 4104POPC   C3A52973  38.450  16.747   7.064
 4104POPC   C4A52974  38.453  16.687   7.364
 4104POPC   C1B52975  38.623  16.863   6.464
 4104POPC   C2B52976  38.663  16.923   6.764
 4104POPC   C3B52977  38.632  16.902   7.064
 4104POPC   C4B52978  38.645  16.912   7.364
 4105POPC   NC352979  40.017  15.991   5.564
 4105POPC   PO452980  39.958  15.938   5.864
 4105POPC   GL152981  40.020  15.954   6.164
 4105POPC   GL252982  39.907  15.898   6.164
 4105POPC   C1A52983  40.027  15.975   6.464
 4105POPC   D2A52984  40.041  15.926   6.764
 4105POPC   C3A52985  39.975  15.971   7.064
 4105POPC   C4A52986  40.026  15.944   7.364
 4105POPC   C1B52987  39.726  15.936   6.464
 4105POPC   C2B52988  39.799  15.918   6.764
 4105POPC   C3B52989  39.789  15.952   7.064
 4105POPC   C4B52990  39.767  15.961   7.364
 4106POPC   NC352991  37.715  41.608   5.564
 4106POPC   PO452992  37.649  41.517   5.864
 4106POPC   GL152993  37.632  41.597   6.164
 4106POPC   GL252994  37.795  41.525   6.164
 4106POPC   C1A52995  37.724  41.561   6.464
 4106POPC   D2A52996  37.699  41.527   6.764
 4106POPC   C3A52997  37.713  41.517   7.064
 4106POPC   C4A52998  37.674  41.584   7.364
 4106POPC   C1B52999  37.923  41.448   6.464
 4106POPC   C2B53000  37.896  41.460   6.764
 4106POPC   C3B53001  37.871  41.474   7.064
 4106POPC   C4B53002  37.942  41.460   7.364
 4107POPC   NC353003  22.193   1.945   5.564
 4107POPC   PO453004  22.148   1.972   5.864
 4107POPC   GL153005  22.153   1.997   6.164
 4107POPC   GL253006  22.026   2.056   6.164
 4107POPC   C1A53007  22.175   1.969   6.464
 4107POPC   D2A53008  22.179   1.946   6.764
 4107POPC   C3A53009  22.130   1.981   7.064
 4107POPC   C4A53010  22.146   1.949   7.364
 4107POPC   C1B53011  21.914   2.051   6.464
 4107POPC   C2B53012  21.892   2.052   6.764
 4107POPC   C3B53013  21.871   1.999   7.064
 4107POPC   C4B53014  21.882   2.032   7.364
 4108POPC   NC353015  30.732  36.940   5.564
 4108POPC   PO453016  30.738  36.917   5.864
 4108POPC   GL153017  30.732  36.911   6.164
 4108POPC   GL253018  30.710  37.056   6.164
 4108POPC   C1A53019  30.725  36.862   6.464
 4108POPC   D2A53020  30.717  36.879   6.764
 4108POPC   C3A53021  30.718  36.932   7.064
 4108POPC   C4A53022  30.684  36.953   7.364
 4108POPC   C1B53023  30.811  37.142   6.464
 4108POPC   C2B53024  30.784  37.188   6.764
 4108POPC   C3B53025  30.732  37.160   7.064
 4108POPC   C4B53026  30.820  37.150   7.364
 4109POPC   NC353027  19.060  22.165   5.564
 4109POPC   PO453028  19.083  22.165   5.864
 4109POPC   GL153029  19.088  22.206   6.164
 4109POPC   GL253030  18.966  22.124   6.164
 4109POPC   C1A53031  19.081  22.154   6.464
 4109POPC   D2A53032  19.011  22.172   6.764
 4109POPC   C3A53033  19.043  22.182   7.064
 4109POPC   C4A53034  19.020  22.165   7.364
 4109POPC   C1B53035  18.893  22.059   6.464
 4109POPC   C2B53036  18.873  21.990   6.764
 4109POPC   C3B53037  18.903  22.006   7.064
 4109POPC   C4B53038  18.857  22.051   7.364
 4110POPC   NC353039  30.720  29.961   5.564
 4110POPC   PO453040  30.731  29.909   5.864
 4110POPC   GL153041  30.676  29.939   6.164
 4110POPC   GL253042  30.680  30.022   6.164
 4110POPC   C1A53043  30.696  29.925   6.464
 4110POPC   D2A53044  30.699  29.901   6.764
 4110POPC   C3A53045  30.677  29.874   7.064
 4110POPC   C4A53046  30.686  29.947   7.364
 4110POPC   C1B53047  30.739  30.199   6.464
 4110POPC   C2B53048  30.751  30.180   6.764
 4110POPC   C3B53049  30.720  30.175   7.064
 4110POPC   C4B53050  30.713  30.155   7.364
 4111POPC   NC353051  36.137  27.589   5.564
 4111POPC   PO453052  36.126  27.627   5.864
 4111POPC   GL153053  36.156  27.570   6.164
 4111POPC   GL253054  36.207  27.642   6.164
 4111POPC   C1A53055  36.093  27.600   6.464
 4111POPC   D2A53056  36.082  27.552   6.764
 4111POPC   C3A53057  36.095  27.572   7.064
 4111POPC   C4A53058  36.116  27.583   7.364
 4111POPC   C1B53059  36.274  27.790   6.464
 4111POPC   C2B53060  36.330  27.757   6.764
 4111POPC   C3B53061  36.262  27.818   7.064
 4111POPC   C4B53062  36.326  27.757   7.364
 4112POPC   NC353063  44.691  38.454   5.564
 4112POPC   PO453064  44.639  38.433   5.864
 4112POPC   GL153065  44.664  38.435   6.164
 4112POPC   GL253066  44.579  38.431   6.164
 4112POPC   C1A53067  44.651  38.425   6.464
 4112POPC   D2A53068  44.709  38.492   6.764
 4112POPC   C3A53069  44.628  38.448   7.064
 4112POPC   C4A53070  44.701  38.452   7.364
 4112POPC   C1B53071  44.420  38.442   6.464
 4112POPC   C2B53072  44.371  38.434   6.764
 4112POPC   C3B53073  44.374  38.354   7.064
 4112POPC   C4B53074  44.375  38.419   7.364
 4113POPC   NC353075  31.500  33.809   5.564
 4113POPC   PO453076  31.511  33.767   5.864
 4113POPC   GL153077  31.448  33.780   6.164
 4113POPC   GL253078  31.401  33.923   6.164
 4113POPC   C1A53079  31.479  33.809   6.464
 4113POPC   D2A53080  31.440  33.805   6.764
 4113POPC   C3A53081  31.505  33.790   7.064
 4113POPC   C4A53082  31.508  33.831   7.364
 4113POPC   C1B53083  31.265  33.940   6.464
 4113POPC   C2B53084  31.226  33.931   6.764
 4113POPC   C3B53085  31.277  33.993   7.064
 4113POPC   C4B53086  31.277  33.996   7.364
 4114POPC   NC353087   3.543  38.432   5.564
 4114POPC   PO453088   3.510  38.440   5.864
 4114POPC   GL153089   3.514  38.443   6.164
 4114POPC   GL253090   3.556  38.329   6.164
 4114POPC   C1A53091   3.535  38.437   6.464
 4114POPC   D2A53092   3.544  38.487   6.764
 4114POPC   C3A53093   3.521  38.475   7.064
 4114POPC   C4A53094   3.501  38.464   7.364
 4114POPC   C1B53095   3.524  38.253   6.464
 4114POPC   C2B53096   3.489  38.202   6.764
 4114POPC   C3B53097   3.445  38.210   7.064
 4114POPC   C4B53098   3.473  38.194   7.364
 4115POPC   NC353099   6.669  43.849   5.564
 4115POPC   PO453100   6.679  43.868   5.864
 4115POPC   GL153101   6.676  43.856   6.164
 4115POPC   GL253102   6.514  43.981   6.164
 4115POPC   C1A53103   6.647  43.881   6.464
 4115POPC   D2A53104   6.630  43.932   6.764
 4115POPC   C3A53105   6.666  43.847   7.064
 4115POPC   C4A53106   6.653  43.851   7.364
 4115POPC   C1B53107   6.487  44.102   6.464
 4115POPC   C2B53108   6.428  44.101   6.764
 4115POPC   C3B53109   6.458  44.100   7.064
 4115POPC   C4B53110   6.491  44.040   7.364
 4116POPC   NC353111  27.550  19.831   5.564
 4116POPC   PO453112  27.605  19.808   5.864
 4116POPC   GL153113  27.626  19.866   6.164
 4116POPC   GL253114  27.592  19.691   6.164
 4116POPC   C1A53115  27.565  19.863   6.464
 4116POPC   D2A53116  27.548  19.831   6.764
 4116POPC   C3A53117  27.612  19.795   7.064
 4116POPC   C4A53118  27.628  19.793   7.364
 4116POPC   C1B53119  27.607  19.581   6.464
 4116POPC   C2B53120  27.652  19.550   6.764
 4116POPC   C3B53121  27.591  19.564   7.064
 4116POPC   C4B53122  27.650  19.567   7.364
 4117POPC   NC353123  31.480  38.412   5.564
 4117POPC   PO453124  31.429  38.484   5.864
 4117POPC   GL153125  31.509  38.456   6.164
 4117POPC   GL253126  31.459  38.531   6.164
 4117POPC   C1A53127  31.492  38.411   6.464
 4117POPC   D2A53128  31.426  38.438   6.764
 4117POPC   C3A53129  31.459  38.446   7.064
 4117POPC   C4A53130  31.505  38.453   7.364
 4117POPC   C1B53131  31.448  38.659   6.464
 4117POPC   C2B53132  31.481  38.742   6.764
 4117POPC   C3B53133  31.395  38.700   7.064
 4117POPC   C4B53134  31.412  38.713   7.364
 4118POPC   NC353135  43.142  14.433   5.564
 4118POPC   PO453136  43.079  14.425   5.864
 4118POPC   GL153137  43.159  14.430   6.164
 4118POPC   GL253138  43.114  14.268   6.164
 4118POPC   C1A53139  43.131  14.386   6.464
 4118POPC   D2A53140  43.099  14.357   6.764
 4118POPC   C3A53141  43.120  14.369   7.064
 4118POPC   C4A53142  43.095  14.445   7.364
 4118POPC   C1B53143  43.212  14.164   6.464
 4118POPC   C2B53144  43.139  14.202   6.764
 4118POPC   C3B53145  43.151  14.158   7.064
 4118POPC   C4B53146  43.147  14.116   7.364
 4119POPC   NC353147  28.409  26.790   5.564
 4119POPC   PO453148  28.396  26.846   5.864
 4119POPC   GL153149  28.406  26.864   6.164
 4119POPC   GL253150  28.456  26.915   6.164
 4119POPC   C1A53151  28.324  26.838   6.464
 4119POPC   D2A53152  28.385  26.775   6.764
 4119POPC   C3A53153  28.320  26.810   7.064
 4119POPC   C4A53154  28.378  26.864   7.364
 4119POPC   C1B53155  28.557  26.945   6.464
 4119POPC   C2B53156  28.582  26.977   6.764
 4119POPC   C3B53157  28.585  27.005   7.064
 4119POPC   C4B53158  28.584  26.948   7.364
 4120POPC   NC353159  42.336  31.460   5.564
 4120POPC   PO453160  42.381  31.462   5.864
 4120POPC   GL153161  42.380  31.509   6.164
 4120POPC   GL253162  42.336  31.302   6.164
 4120POPC   C1A53163  42.311  31.498   6.464
 4120POPC   D2A53164  42.312  31.483   6.764
 4120POPC   C3A53165  42.320  31.464   7.064
 4120POPC   C4A53166  42.352  31.470   7.364
 4120POPC   C1B53167  42.332  31.187   6.464
 4120POPC   C2B53168  42.384  31.206   6.764
 4120POPC   C3B53169  42.373  31.229   7.064
 4120POPC   C4B53170  42.337  31.239   7.364
 4121POPC   NC353171  20.610  18.282   5.564
 4121POPC   PO453172  20.588  18.293   5.864
 4121POPC   GL153173  20.613  18.242   6.164
 4121POPC   GL253174  20.703  18.358   6.164
 4121POPC   C1A53175  20.562  18.291   6.464
 4121POPC   D2A53176  20.612  18.265   6.764
 4121POPC   C3A53177  20.588  18.257   7.064
 4121POPC   C4A53178  20.645  18.239   7.364
 4121POPC   C1B53179  20.840  18.404   6.464
 4121POPC   C2B53180  20.851  18.398   6.764
 4121POPC   C3B53181  20.757  18.436   7.064
 4121POPC   C4B53182  20.824  18.422   7.364
 4122POPC   NC353183   2.799  32.226   5.564
 4122POPC   PO453184   2.762  32.273   5.864
 4122POPC   GL153185   2.765  32.245   6.164
 4122POPC   GL253186   2.897  32.210   6.164
 4122POPC   C1A53187   2.806  32.208   6.464
 4122POPC   D2A53188   2.810  32.256   6.764
 4122POPC   C3A53189   2.805  32.239   7.064
 4122POPC   C4A53190   2.746  32.201   7.364
 4122POPC   C1B53191   3.010  32.123   6.464
 4122POPC   C2B53192   2.966  32.146   6.764
 4122POPC   C3B53193   2.959  32.084   7.064
 4122POPC   C4B53194   3.007  32.070   7.364
 4123POPC   NC353195  26.866   8.224   5.564
 4123POPC   PO453196  26.862   8.202   5.864
 4123POPC   GL153197  26.810   8.226   6.164
 4123POPC   GL253198  26.781   8.110   6.164
 4123POPC   C1A53199  26.839   8.227   6.464
 4123POPC   D2A53200  26.783   8.230   6.764
 4123POPC   C3A53201  26.785   8.209   7.064
 4123POPC   C4A53202  26.803   8.177   7.364
 4123POPC   C1B53203  26.827   7.907   6.464
 4123POPC   C2B53204  26.774   7.979   6.764
 4123POPC   C3B53205  26.806   7.992   7.064
 4123POPC   C4B53206  26.847   7.905   7.364
 4124POPC   NC353207  43.857   1.180   5.564
 4124POPC   PO453208  43.911   1.239   5.864
 4124POPC   GL153209  43.907   1.206   6.164
 4124POPC   GL253210  43.863   1.362   6.164
 4124POPC   C1A53211  43.850   1.178   6.464
 4124POPC   D2A53212  43.865   1.207   6.764
 4124POPC   C3A53213  43.881   1.167   7.064
 4124POPC   C4A53214  43.838   1.248   7.364
 4124POPC   C1B53215  43.900   1.433   6.464
 4124POPC   C2B53216  43.821   1.491   6.764
 4124POPC   C3B53217  43.874   1.452   7.064
 4124POPC   C4B53218  43.890   1.472   7.364
 4125POPC   NC353219  32.278  20.636   5.564
 4125POPC   PO453220  32.258  20.646   5.864
 4125POPC   GL153221  32.246  20.658   6.164
 4125POPC   GL253222  32.101  20.548   6.164
 4125POPC   C1A53223  32.207  20.570   6.464
 4125POPC   D2A53224  32.247  20.610   6.764
 4125POPC   C3A53225  32.206  20.612   7.064
 4125POPC   C4A53226  32.215  20.602   7.364
 4125POPC   C1B53227  32.049  20.492   6.464
 4125POPC   C2B53228  32.015  20.475   6.764
 4125POPC   C3B53229  32.029  20.545   7.064
 4125POPC   C4B53230  32.057  20.486   7.364
 4126POPC   NC353231  44.676  35.333   5.564
 4126POPC   PO453232  44.612  35.388   5.864
 4126POPC   GL153233  44.676  35.332   6.164
 4126POPC   GL253234  44.820  35.329   6.164
 4126POPC   C1A53235  44.643  35.348   6.464
 4126POPC   D2A53236  44.645  35.374   6.764
 4126POPC   C3A53237  44.635  35.366   7.064
 4126POPC   C4A53238  44.669  35.365   7.364
 4126POPC   C1B53239  44.950  35.299   6.464
 4126POPC   C2B53240  44.893  35.361   6.764
 4126POPC   C3B53241  44.884  35.305   7.064
 4126POPC   C4B53242  44.907  35.303   7.364
 4127POPC   NC353243  22.914   5.135   5.564
 4127POPC   PO453244  22.898   5.074   5.864
 4127POPC   GL153245  22.968   5.043   6.164
 4127POPC   GL253246  22.920   4.955   6.164
 4127POPC   C1A53247  22.938   5.123   6.464
 4127POPC   D2A53248  22.943   5.125   6.764
 4127POPC   C3A53249  22.932   5.054   7.064
 4127POPC   C4A53250  22.919   5.052   7.364
 4127POPC   C1B53251  22.914   4.834   6.464
 4127POPC   C2B53252  22.943   4.827   6.764
 4127POPC   C3B53253  22.923   4.809   7.064
 4127POPC   C4B53254  22.907   4.873   7.364
 4128POPC   NC353255  10.500   0.420   5.564
 4128POPC   PO453256  10.484   0.414   5.864
 4128POPC   GL153257  10.546   0.456   6.164
 4128POPC   GL253258  10.629   0.388   6.164
 4128POPC   C1A53259  10.496   0.401   6.464
 4128POPC   D2A53260  10.530   0.444   6.764
 4128POPC   C3A53261  10.509   0.438   7.064
 4128POPC   C4A53262  10.541   0.484   7.364
 4128POPC   C1B53263  10.744   0.389   6.464
 4128POPC   C2B53264  10.750   0.386   6.764
 4128POPC   C3B53265  10.745   0.376   7.064
 4128POPC   C4B53266  10.770   0.376   7.364
 4129POPC   NC353267  44.681   2.801   5.564
 4129POPC   PO453268  44.620   2.767   5.864
 4129POPC   GL153269  44.637   2.773   6.164
 4129POPC   GL253270  44.748   2.716   6.164
 4129POPC   C1A53271  44.684   2.720   6.464
 4129POPC   D2A53272  44.665   2.757   6.764
 4129POPC   C3A53273  44.675   2.723   7.064
 4129POPC   C4A53274  44.646   2.763   7.364
 4129POPC   C1B53275  44.780   2.572   6.464
 4129POPC   C2B53276  44.791   2.579   6.764
 4129POPC   C3B53277  44.775   2.590   7.064
 4129POPC   C4B53278  44.807   2.529   7.364
 4130POPC   NC353279   3.512  30.709   5.564
 4130POPC   PO453280   3.523  30.723   5.864
 4130POPC   GL153281   3.557  30.669   6.164
 4130POPC   GL253282   3.666  30.636   6.164
 4130POPC   C1A53283   3.498  30.742   6.464
 4130POPC   D2A53284   3.542  30.678   6.764
 4130POPC   C3A53285   3.543  30.653   7.064
 4130POPC   C4A53286   3.520  30.716   7.364
 4130POPC   C1B53287   3.804  30.642   6.464
 4130POPC   C2B53288   3.777  30.669   6.764
 4130POPC   C3B53289   3.817  30.702   7.064
 4130POPC   C4B53290   3.808  30.702   7.364
 4131POPC   NC353291  41.543   1.994   5.564
 4131POPC   PO453292  41.570   1.982   5.864
 4131POPC   GL153293  41.581   1.956   6.164
 4131POPC   GL253294  41.570   2.142   6.164
 4131POPC   C1A53295  41.516   2.017   6.464
 4131POPC   D2A53296  41.510   2.035   6.764
 4131POPC   C3A53297  41.515   1.968   7.064
 4131POPC   C4A53298  41.583   2.025   7.364
 4131POPC   C1B53299  41.564   2.262   6.464
 4131POPC   C2B53300  41.598   2.223   6.764
 4131POPC   C3B53301  41.634   2.284   7.064
 4131POPC   C4B53302  41.626   2.249   7.364
 4132POPC   NC353303   8.160   5.873   5.564
 4132POPC   PO453304   8.215   5.847   5.864
 4132POPC   GL153305   8.244   5.836   6.164
 4132POPC   GL253306   8.174   6.012   6.164
 4132POPC   C1A53307   8.201   5.875   6.464
 4132POPC   D2A53308   8.166   5.896   6.764
 4132POPC   C3A53309   8.176   5.904   7.064
 4132POPC   C4A53310   8.148   5.853   7.364
 4132POPC   C1B53311   8.154   6.070   6.464
 4132POPC   C2B53312   8.121   6.130   6.764
 4132POPC   C3B53313   8.197   6.129   7.064
 4132POPC   C4B53314   8.139   6.113   7.364
 4133POPC   NC353315  33.783  15.967   5.564
 4133POPC   PO453316  33.783  15.906   5.864
 4133POPC   GL153317  33.750  15.911   6.164
 4133POPC   GL253318  33.875  15.931   6.164
 4133POPC   C1A53319  33.817  15.979   6.464
 4133POPC   D2A53320  33.847  15.946   6.764
 4133POPC   C3A53321  33.793  15.908   7.064
 4133POPC   C4A53322  33.825  15.907   7.364
 4133POPC   C1B53323  34.006  15.911   6.464
 4133POPC   C2B53324  34.078  15.902   6.764
 4133POPC   C3B53325  34.074  15.926   7.064
 4133POPC   C4B53326  34.068  15.918   7.364
 4134POPC   NC353327  26.803  36.177   5.564
 4134POPC   PO453328  26.851  36.164   5.864
 4134POPC   GL153329  26.816  36.173   6.164
 4134POPC   GL253330  26.650  36.169   6.164
 4134POPC   C1A53331  26.819  36.116   6.464
 4134POPC   D2A53332  26.837  36.151   6.764
 4134POPC   C3A53333  26.816  36.095   7.064
 4134POPC   C4A53334  26.826  36.143   7.364
 4134POPC   C1B53335  26.551  36.121   6.464
 4134POPC   C2B53336  26.589  36.144   6.764
 4134POPC   C3B53337  26.520  36.185   7.064
 4134POPC   C4B53338  26.598  36.172   7.364
 4135POPC   NC353339  28.341  25.287   5.564
 4135POPC   PO453340  28.373  25.216   5.864
 4135POPC   GL153341  28.390  25.302   6.164
 4135POPC   GL253342  28.484  25.356   6.164
 4135POPC   C1A53343  28.402  25.289   6.464
 4135POPC   D2A53344  28.382  25.253   6.764
 4135POPC   C3A53345  28.327  25.280   7.064
 4135POPC   C4A53346  28.390  25.253   7.364
 4135POPC   C1B53347  28.497  25.503   6.464
 4135POPC   C2B53348  28.466  25.502   6.764
 4135POPC   C3B53349  28.552  25.427   7.064
 4135POPC   C4B53350  28.496  25.479   7.364
 4136POPC   NC353351   8.190  17.539   5.564
 4136POPC   PO453352   8.199  17.483   5.864
 4136POPC   GL153353   8.240  17.520   6.164
 4136POPC   GL253354   8.054  17.494   6.164
 4136POPC   C1A53355   8.221  17.483   6.464
 4136POPC   D2A53356   8.222  17.544   6.764
 4136POPC   C3A53357   8.242  17.541   7.064
 4136POPC   C4A53358   8.147  17.532   7.364
 4136POPC   C1B53359   7.953  17.469   6.464
 4136POPC   C2B53360   7.942  17.530   6.764
 4136POPC   C3B53361   7.934  17.554   7.064
 4136POPC   C4B53362   7.980  17.560   7.364
 4137POPC   NC353363  27.593   5.114   5.564
 4137POPC   PO453364  27.604   5.137   5.864
 4137POPC   GL153365  27.580   5.095   6.164
 4137POPC   GL253366  27.476   5.062   6.164
 4137POPC   C1A53367  27.602   5.115   6.464
 4137POPC   D2A53368  27.573   5.079   6.764
 4137POPC   C3A53369  27.587   5.050   7.064
 4137POPC   C4A53370  27.586   5.071   7.364
 4137POPC   C1B53371  27.383   5.133   6.464
 4137POPC   C2B53372  27.302   5.119   6.764
 4137POPC   C3B53373  27.319   5.132   7.064
 4137POPC   C4B53374  27.344   5.079   7.364
 4138POPC   NC353375  42.319  36.132   5.564
 4138POPC   PO453376  42.295  36.090   5.864
 4138POPC   GL153377  42.355  36.165   6.164
 4138POPC   GL253378  42.412  36.175   6.164
 4138POPC   C1A53379  42.324  36.108   6.464
 4138POPC   D2A53380  42.355  36.170   6.764
 4138POPC   C3A53381  42.359  36.114   7.064
 4138POPC   C4A53382  42.384  36.108   7.364
 4138POPC   C1B53383  42.503  36.254   6.464
 4138POPC   C2B53384  42.543  36.322   6.764
 4138POPC   C3B53385  42.515  36.240   7.064
 4138POPC   C4B53386  42.527  36.300   7.364
 4139POPC   NC353387  39.223  30.705   5.564
 4139POPC   PO453388  39.280  30.661   5.864
 4139POPC   GL153389  39.259  30.721   6.164
 4139POPC   GL253390  39.260  30.551   6.164
 4139POPC   C1A53391  39.235  30.744   6.464
 4139POPC   D2A53392  39.261  30.668   6.764
 4139POPC   C3A53393  39.260  30.647   7.064
 4139POPC   C4A53394  39.256  30.675   7.364
 4139POPC   C1B53395  39.273  30.501   6.464
 4139POPC   C2B53396  39.296  30.418   6.764
 4139POPC   C3B53397  39.320  30.504   7.064
 4139POPC   C4B53398  39.340  30.429   7.364
 4140POPC   NC353399  29.942  21.430   5.564
 4140POPC   PO453400  29.911  21.368   5.864
 4140POPC   GL153401  29.958  21.413   6.164
 4140POPC   GL253402  29.836  21.257   6.164
 4140POPC   C1A53403  29.884  21.420   6.464
 4140POPC   D2A53404  29.902  21.382   6.764
 4140POPC   C3A53405  29.919  21.429   7.064
 4140POPC   C4A53406  29.935  21.431   7.364
 4140POPC   C1B53407  29.737  21.194   6.464
 4140POPC   C2B53408  29.776  21.206   6.764
 4140POPC   C3B53409  29.740  21.216   7.064
 4140POPC   C4B53410  29.803  21.222   7.364
 4141POPC   NC353411  31.466  16.735   5.564
 4141POPC   PO453412  31.478  16.719   5.864
 4141POPC   GL153413  31.495  16.702   6.164
 4141POPC   GL253414  31.482  16.862   6.164
 4141POPC   C1A53415  31.464  16.742   6.464
 4141POPC   D2A53416  31.436  16.737   6.764
 4141POPC   C3A53417  31.487  16.767   7.064
 4141POPC   C4A53418  31.464  16.695   7.364
 4141POPC   C1B53419  31.533  16.988   6.464
 4141POPC   C2B53420  31.529  16.941   6.764
 4141POPC   C3B53421  31.443  16.997   7.064
 4141POPC   C4B53422  31.505  17.029   7.364
 4142POPC   NC353423   8.971  24.453   5.564
 4142POPC   PO453424   9.022  24.457   5.864
 4142POPC   GL153425   9.015  24.538   6.164
 4142POPC   GL253426   8.882  24.457   6.164
 4142POPC   C1A53427   8.953  24.539   6.464
 4142POPC   D2A53428   8.944  24.446   6.764
 4142POPC   C3A53429   9.009  24.534   7.064
 4142POPC   C4A53430   8.954  24.440   7.364
 4142POPC   C1B53431   8.714  24.456   6.464
 4142POPC   C2B53432   8.758  24.477   6.764
 4142POPC   C3B53433   8.726  24.462   7.064
 4142POPC   C4B53434   8.756  24.467   7.364
 4143POPC   NC353435  15.934  36.909   5.564
 4143POPC   PO453436  15.985  36.935   5.864
 4143POPC   GL153437  15.991  36.858   6.164
 4143POPC   GL253438  15.827  36.889   6.164
 4143POPC   C1A53439  15.918  36.948   6.464
 4143POPC   D2A53440  15.983  36.914   6.764
 4143POPC   C3A53441  15.938  36.864   7.064
 4143POPC   C4A53442  15.950  36.951   7.364
 4143POPC   C1B53443  15.668  36.928   6.464
 4143POPC   C2B53444  15.742  36.963   6.764
 4143POPC   C3B53445  15.673  36.978   7.064
 4143POPC   C4B53446  15.706  36.925   7.364
 4144POPC   NC353447  37.689  27.603   5.564
 4144POPC   PO453448  37.688  27.592   5.864
 4144POPC   GL153449  37.656  27.574   6.164
 4144POPC   GL253450  37.618  27.444   6.164
 4144POPC   C1A53451  37.700  27.607   6.464
 4144POPC   D2A53452  37.677  27.616   6.764
 4144POPC   C3A53453  37.723  27.567   7.064
 4144POPC   C4A53454  37.702  27.590   7.364
 4144POPC   C1B53455  37.641  27.353   6.464
 4144POPC   C2B53456  37.608  27.382   6.764
 4144POPC   C3B53457  37.668  27.367   7.064
 4144POPC   C4B53458  37.593  27.390   7.364
 4145POPC   NC353459  40.794  19.857   5.564
 4145POPC   PO453460  40.797  19.867   5.864
 4145POPC   GL153461  40.760  19.860   6.164
 4145POPC   GL253462  40.634  19.901   6.164
 4145POPC   C1A53463  40.791  19.819   6.464
 4145POPC   D2A53464  40.799  19.832   6.764
 4145POPC   C3A53465  40.757  19.835   7.064
 4145POPC   C4A53466  40.830  19.837   7.364
 4145POPC   C1B53467  40.549  19.990   6.464
 4145POPC   C2B53468  40.606  19.971   6.764
 4145POPC   C3B53469  40.531  19.940   7.064
 4145POPC   C4B53470  40.598  19.919   7.364
 4146POPC   NC353471  16.720  22.124   5.564
 4146POPC   PO453472  16.717  22.131   5.864
 4146POPC   GL153473  16.778  22.206   6.164
 4146POPC   GL253474  16.698  22.241   6.164
 4146POPC   C1A53475  16.736  22.128   6.464
 4146POPC   D2A53476  16.723  22.202   6.764
 4146POPC   C3A53477  16.731  22.175   7.064
 4146POPC   C4A53478  16.735  22.170   7.364
 4146POPC   C1B53479  16.642  22.416   6.464
 4146POPC   C2B53480  16.621  22.343   6.764
 4146POPC   C3B53481  16.580  22.391   7.064
 4146POPC   C4B53482  16.577  22.431   7.364
 4147POPC   NC353483  14.381  14.384   5.564
 4147POPC   PO453484  14.384  14.407   5.864
 4147POPC   GL153485  14.428  14.416   6.164
 4147POPC   GL253486  14.460  14.286   6.164
 4147POPC   C1A53487  14.354  14.384   6.464
 4147POPC   D2A53488  14.431  14.361   6.764
 4147POPC   C3A53489  14.367  14.378   7.064
 4147POPC   C4A53490  14.374  14.400   7.364
 4147POPC   C1B53491  14.475  14.185   6.464
 4147POPC   C2B53492  14.442  14.120   6.764
 4147POPC   C3B53493  14.391  14.110   7.064
 4147POPC   C4B53494  14.461  14.182   7.364
 4148POPC   NC353495  43.155  12.817   5.564
 4148POPC   PO453496  43.121  12.868   5.864
 4148POPC   GL153497  43.125  12.901   6.164
 4148POPC   GL253498  42.954  12.789   6.164
 4148POPC   C1A53499  43.140  12.805   6.464
 4148POPC   D2A53500  43.076  12.816   6.764
 4148POPC   C3A53501  43.146  12.836   7.064
 4148POPC   C4A53502  43.141  12.889   7.364
 4148POPC   C1B53503  42.842  12.849   6.464
 4148POPC   C2B53504  42.863  12.805   6.764
 4148POPC   C3B53505  42.883  12.825   7.064
 4148POPC   C4B53506  42.828  12.824   7.364
 4149POPC   NC353507  11.324  36.892   5.564
 4149POPC   PO453508  11.261  36.928   5.864
 4149POPC   GL153509  11.297  36.909   6.164
 4149POPC   GL253510  11.362  37.042   6.164
 4149POPC   C1A53511  11.317  36.914   6.464
 4149POPC   D2A53512  11.338  36.912   6.764
 4149POPC   C3A53513  11.288  36.886   7.064
 4149POPC   C4A53514  11.305  36.884   7.364
 4149POPC   C1B53515  11.401  37.173   6.464
 4149POPC   C2B53516  11.350  37.127   6.764
 4149POPC   C3B53517  11.369  37.096   7.064
 4149POPC   C4B53518  11.350  37.099   7.364
 4150POPC   NC353519  14.364  29.122   5.564
 4150POPC   PO453520  14.386  29.164   5.864
 4150POPC   GL153521  14.368  29.170   6.164
 4150POPC   GL253522  14.366  29.042   6.164
 4150POPC   C1A53523  14.363  29.177   6.464
 4150POPC   D2A53524  14.440  29.187   6.764
 4150POPC   C3A53525  14.417  29.139   7.064
 4150POPC   C4A53526  14.373  29.098   7.364
 4150POPC   C1B53527  14.211  28.900   6.464
 4150POPC   C2B53528  14.293  28.978   6.764
 4150POPC   C3B53529  14.257  28.949   7.064
 4150POPC   C4B53530  14.242  28.926   7.364
 4151POPC   NC353531  37.680  24.452   5.564
 4151POPC   PO453532  37.687  24.512   5.864
 4151POPC   GL153533  37.631  24.530   6.164
 4151POPC   GL253534  37.558  24.583   6.164
 4151POPC   C1A53535  37.720  24.516   6.464
 4151POPC   D2A53536  37.630  24.447   6.764
 4151POPC   C3A53537  37.653  24.515   7.064
 4151POPC   C4A53538  37.721  24.496   7.364
 4151POPC   C1B53539  37.498  24.694   6.464
 4151POPC   C2B53540  37.505  24.676   6.764
 4151POPC   C3B53541  37.482  24.656   7.064
 4151POPC   C4B53542  37.473  24.642   7.364
 4152POPC   NC353543  12.846  33.805   5.564
 4152POPC   PO453544  12.882  33.805   5.864
 4152POPC   GL153545  12.828  33.830   6.164
 4152POPC   GL253546  12.767  33.844   6.164
 4152POPC   C1A53547  12.819  33.784   6.464
 4152POPC   D2A53548  12.853  33.819   6.764
 4152POPC   C3A53549  12.896  33.780   7.064
 4152POPC   C4A53550  12.811  33.769   7.364
 4152POPC   C1B53551  12.681  33.952   6.464
 4152POPC   C2B53552  12.672  33.915   6.764
 4152POPC   C3B53553  12.698  33.992   7.064
 4152POPC   C4B53554  12.619  33.968   7.364
 4153POPC   NC353555  29.899  13.620   5.564
 4153POPC   PO453556  29.900  13.640   5.864
 4153POPC   GL153557  29.914  13.638   6.164
 4153POPC   GL253558  29.766  13.548   6.164
 4153POPC   C1A53559  29.876  13.604   6.464
 4153POPC   D2A53560  29.928  13.639   6.764
 4153POPC   C3A53561  29.950  13.651   7.064
 4153POPC   C4A53562  29.877  13.621   7.364
 4153POPC   C1B53563  29.660  13.558   6.464
 4153POPC   C2B53564  29.742  13.534   6.764
 4153POPC   C3B53565  29.660  13.555   7.064
 4153POPC   C4B53566  29.716  13.562   7.364
 4154POPC   NC353567  29.164  11.329   5.564
 4154POPC   PO453568  29.161  11.344   5.864
 4154POPC   GL153569  29.095  11.263   6.164
 4154POPC   GL253570  29.126  11.389   6.164
 4154POPC   C1A53571  29.129  11.346   6.464
 4154POPC   D2A53572  29.170  11.280   6.764
 4154POPC   C3A53573  29.124  11.304   7.064
 4154POPC   C4A53574  29.103  11.251   7.364
 4154POPC   C1B53575  29.044  11.593   6.464
 4154POPC   C2B53576  29.059  11.567   6.764
 4154POPC   C3B53577  29.119  11.571   7.064
 4154POPC   C4B53578  29.138  11.589   7.364
 4155POPC   NC353579  36.867   1.258   5.564
 4155POPC   PO453580  36.928   1.246   5.864
 4155POPC   GL153581  36.861   1.222   6.164
 4155POPC   GL253582  36.853   1.094   6.164
 4155POPC   C1A53583  36.929   1.175   6.464
 4155POPC   D2A53584  36.919   1.238   6.764
 4155POPC   C3A53585  36.922   1.164   7.064
 4155POPC   C4A53586  36.894   1.214   7.364
 4155POPC   C1B53587  36.723   1.051   6.464
 4155POPC   C2B53588  36.749   1.046   6.764
 4155POPC   C3B53589  36.797   1.008   7.064
 4155POPC   C4B53590  36.720   1.049   7.364
 4156POPC   NC353591  12.809  43.837   5.564
 4156POPC   PO453592  12.885  43.842   5.864
 4156POPC   GL153593  12.884  43.918   6.164
 4156POPC   GL253594  12.810  43.834   6.164
 4156POPC   C1A53595  12.819  43.864   6.464
 4156POPC   D2A53596  12.813  43.914   6.764
 4156POPC   C3A53597  12.887  43.915   7.064
 4156POPC   C4A53598  12.898  43.926   7.364
 4156POPC   C1B53599  12.651  43.679   6.464
 4156POPC   C2B53600  12.702  43.692   6.764
 4156POPC   C3B53601  12.698  43.706   7.064
 4156POPC   C4B53602  12.686  43.684   7.364
 4157POPC   NC353603   1.236  32.270   5.564
 4157POPC   PO453604   1.187  32.269   5.864
 4157POPC   GL153605   1.179  32.237   6.164
 4157POPC   GL253606   1.173  32.094   6.164
 4157POPC   C1A53607   1.204  32.202   6.464
 4157POPC   D2A53608   1.247  32.214   6.764
 4157POPC   C3A53609   1.167  32.279   7.064
 4157POPC   C4A53610   1.167  32.201   7.364
 4157POPC   C1B53611   1.106  32.036   6.464
 4157POPC   C2B53612   1.125  32.024   6.764
 4157POPC   C3B53613   1.074  32.059   7.064
 4157POPC   C4B53614   1.091  31.984   7.364
 4158POPC   NC353615  18.268  15.988   5.564
 4158POPC   PO453616  18.269  15.994   5.864
 4158POPC   GL153617  18.327  15.938   6.164
 4158POPC   GL253618  18.364  15.830   6.164
 4158POPC   C1A53619  18.324  15.987   6.464
 4158POPC   D2A53620  18.248  15.906   6.764
 4158POPC   C3A53621  18.324  15.950   7.064
 4158POPC   C4A53622  18.245  15.962   7.364
 4158POPC   C1B53623  18.388  15.742   6.464
 4158POPC   C2B53624  18.360  15.770   6.764
 4158POPC   C3B53625  18.409  15.748   7.064
 4158POPC   C4B53626  18.418  15.717   7.364
 4159POPC   NC353627  13.619  14.401   5.564
 4159POPC   PO453628  13.606  14.399   5.864
 4159POPC   GL153629  13.596  14.406   6.164
 4159POPC   GL253630  13.751  14.326   6.164
 4159POPC   C1A53631  13.605  14.403   6.464
 4159POPC   D2A53632  13.633  14.388   6.764
 4159POPC   C3A53633  13.634  14.420   7.064
 4159POPC   C4A53634  13.633  14.439   7.364
 4159POPC   C1B53635  13.847  14.285   6.464
 4159POPC   C2B53636  13.812  14.288   6.764
 4159POPC   C3B53637  13.819  14.328   7.064
 4159POPC   C4B53638  13.817  14.304   7.364
 4160POPC   NC353639  32.278  22.966   5.564
 4160POPC   PO453640  32.221  22.973   5.864
 4160POPC   GL153641  32.237  22.945   6.164
 4160POPC   GL253642  32.160  23.043   6.164
 4160POPC   C1A53643  32.276  22.923   6.464
 4160POPC   D2A53644  32.291  22.890   6.764
 4160POPC   C3A53645  32.244  22.942   7.064
 4160POPC   C4A53646  32.291  22.934   7.364
 4160POPC   C1B53647  32.069  23.074   6.464
 4160POPC   C2B53648  32.052  23.093   6.764
 4160POPC   C3B53649  32.109  23.089   7.064
 4160POPC   C4B53650  32.090  23.091   7.364
 4161POPC   NC353651  36.875   7.372   5.564
 4161POPC   PO453652  36.867   7.401   5.864
 4161POPC   GL153653  36.886   7.426   6.164
 4161POPC   GL253654  36.871   7.558   6.164
 4161POPC   C1A53655  36.883   7.412   6.464
 4161POPC   D2A53656  36.855   7.433   6.764
 4161POPC   C3A53657  36.951   7.388   7.064
 4161POPC   C4A53658  36.898   7.426   7.364
 4161POPC   C1B53659  36.887   7.666   6.464
 4161POPC   C2B53660  36.887   7.703   6.764
 4161POPC   C3B53661  36.936   7.655   7.064
 4161POPC   C4B53662  36.876   7.634   7.364
 4162POPC   NC353663  36.097  12.045   5.564
 4162POPC   PO453664  36.097  12.062   5.864
 4162POPC   GL153665  36.177  12.099   6.164
 4162POPC   GL253666  36.229  11.970   6.164
 4162POPC   C1A53667  36.123  12.071   6.464
 4162POPC   D2A53668  36.119  12.074   6.764
 4162POPC   C3A53669  36.080  12.034   7.064
 4162POPC   C4A53670  36.109  12.115   7.364
 4162POPC   C1B53671  36.228  11.824   6.464
 4162POPC   C2B53672  36.283  11.918   6.764
 4162POPC   C3B53673  36.295  11.906   7.064
 4162POPC   C4B53674  36.225  11.863   7.364
 4163POPC   NC353675  14.354  42.330   5.564
 4163POPC   PO453676  14.389  42.288   5.864
 4163POPC   GL153677  14.420  42.314   6.164
 4163POPC   GL253678  14.470  42.461   6.164
 4163POPC   C1A53679  14.372  42.339   6.464
 4163POPC   D2A53680  14.415  42.297   6.764
 4163POPC   C3A53681  14.428  42.380   7.064
 4163POPC   C4A53682  14.395  42.293   7.364
 4163POPC   C1B53683  14.600  42.575   6.464
 4163POPC   C2B53684  14.523  42.555   6.764
 4163POPC   C3B53685  14.520  42.578   7.064
 4163POPC   C4B53686  14.526  42.567   7.364
 4164POPC   NC353687  12.825  24.441   5.564
 4164POPC   PO453688  12.891  24.505   5.864
 4164POPC   GL153689  12.871  24.489   6.164
 4164POPC   GL253690  12.812  24.565   6.164
 4164POPC   C1A53691  12.823  24.477   6.464
 4164POPC   D2A53692  12.880  24.471   6.764
 4164POPC   C3A53693  12.893  24.452   7.064
 4164POPC   C4A53694  12.895  24.504   7.364
 4164POPC   C1B53695  12.658  24.684   6.464
 4164POPC   C2B53696  12.668  24.674   6.764
 4164POPC   C3B53697  12.662  24.642   7.064
 4164POPC   C4B53698  12.641  24.706   7.364
 4165POPC   NC353699   3.526   3.522   5.564
 4165POPC   PO453700   3.543   3.574   5.864
 4165POPC   GL153701   3.547   3.525   6.164
 4165POPC   GL253702   3.453   3.577   6.164
 4165POPC   C1A53703   3.561   3.533   6.464
 4165POPC   D2A53704   3.569   3.561   6.764
 4165POPC   C3A53705   3.510   3.518   7.064
 4165POPC   C4A53706   3.578   3.539   7.364
 4165POPC   C1B53707   3.316   3.576   6.464
 4165POPC   C2B53708   3.263   3.615   6.764
 4165POPC   C3B53709   3.280   3.561   7.064
 4165POPC   C4B53710   3.262   3.583   7.364
 4166POPC   NC353711  26.797  17.472   5.564
 4166POPC   PO453712  26.788  17.503   5.864
 4166POPC   GL153713  26.858  17.509   6.164
 4166POPC   GL253714  26.750  17.643   6.164
 4166POPC   C1A53715  26.849  17.467   6.464
 4166POPC   D2A53716  26.855  17.551   6.764
 4166POPC   C3A53717  26.796  17.484   7.064
 4166POPC   C4A53718  26.781  17.500   7.364
 4166POPC   C1B53719  26.740  17.753   6.464
 4166POPC   C2B53720  26.783  17.734   6.764
 4166POPC   C3B53721  26.749  17.737   7.064
 4166POPC   C4B53722  26.756  17.775   7.364
 4167POPC   NC353723   9.009  31.505   5.564
 4167POPC   PO453724   8.968  31.465   5.864
 4167POPC   GL153725   8.938  31.508   6.164
 4167POPC   GL253726   9.111  31.509   6.164
 4167POPC   C1A53727   8.972  31.433   6.464
 4167POPC   D2A53728   8.996  31.489   6.764
 4167POPC   C3A53729   8.989  31.491   7.064
 4167POPC   C4A53730   8.975  31.465   7.364
 4167POPC   C1B53731   9.217  31.582   6.464
 4167POPC   C2B53732   9.145  31.637   6.764
 4167POPC   C3B53733   9.200  31.591   7.064
 4167POPC   C4B53734   9.201  31.584   7.364
 4168POPC   NC353735  11.270  29.190   5.564
 4168POPC   PO453736  11.344  29.168   5.864
 4168POPC   GL153737  11.295  29.155   6.164
 4168POPC   GL253738  11.136  29.155   6.164
 4168POPC   C1A53739  11.336  29.134   6.464
 4168POPC   D2A53740  11.321  29.148   6.764
 4168POPC   C3A53741  11.272  29.131   7.064
 4168POPC   C4A53742  11.346  29.118   7.364
 4168POPC   C1B53743  11.055  29.225   6.464
 4168POPC   C2B53744  11.016  29.173   6.764
 4168POPC   C3B53745  11.069  29.163   7.064
 4168POPC   C4B53746  11.081  29.214   7.364
 4169POPC   NC353747  38.505  39.993   5.564
 4169POPC   PO453748  38.496  40.001   5.864
 4169POPC   GL153749  38.482  40.014   6.164
 4169POPC   GL253750  38.314  40.012   6.164
 4169POPC   C1A53751  38.416  39.999   6.464
 4169POPC   D2A53752  38.461  39.986   6.764
 4169POPC   C3A53753  38.479  39.970   7.064
 4169POPC   C4A53754  38.425  40.003   7.364
 4169POPC   C1B53755  38.230  40.106   6.464
 4169POPC   C2B53756  38.225  40.076   6.764
 4169POPC   C3B53757  38.213  40.127   7.064
 4169POPC   C4B53758  38.177  40.041   7.364
 4170POPC   NC353759  20.605   3.509   5.564
 4170POPC   PO453760  20.651   3.520   5.864
 4170POPC   GL153761  20.588   3.523   6.164
 4170POPC   GL253762  20.495   3.683   6.164
 4170POPC   C1A53763  20.575   3.516   6.464
 4170POPC   D2A53764  20.598   3.494   6.764
 4170POPC   C3A53765  20.592   3.494   7.064
 4170POPC   C4A53766  20.594   3.499   7.364
 4170POPC   C1B53767  20.478   3.750   6.464
 4170POPC   C2B53768  20.410   3.698   6.764
 4170POPC   C3B53769  20.488   3.770   7.064
 4170POPC   C4B53770  20.431   3.681   7.364
 4171POPC   NC353771  31.441  34.603   5.564
 4171POPC   PO453772  31.428  34.612   5.864
 4171POPC   GL153773  31.503  34.589   6.164
 4171POPC   GL253774  31.537  34.680   6.164
 4171POPC   C1A53775  31.459  34.585   6.464
 4171POPC   D2A53776  31.507  34.553   6.764
 4171POPC   C3A53777  31.440  34.601   7.064
 4171POPC   C4A53778  31.496  34.615   7.364
 4171POPC   C1B53779  31.592  34.796   6.464
 4171POPC   C2B53780  31.603  34.853   6.764
 4171POPC   C3B53781  31.583  34.848   7.064
 4171POPC   C4B53782  31.599  34.845   7.364
 4172POPC   NC353783  25.226  42.306   5.564
 4172POPC   PO453784  25.225  42.345   5.864
 4172POPC   GL153785  25.306  42.346   6.164
 4172POPC   GL253786  25.265  42.432   6.164
 4172POPC   C1A53787  25.279  42.307   6.464
 4172POPC   D2A53788  25.295  42.318   6.764
 4172POPC   C3A53789  25.277  42.314   7.064
 4172POPC   C4A53790  25.260  42.314   7.364
 4172POPC   C1B53791  25.370  42.576   6.464
 4172POPC   C2B53792  25.361  42.546   6.764
 4172POPC   C3B53793  25.317  42.544   7.064
 4172POPC   C4B53794  25.317  42.622   7.364
 4173POPC   NC353795   1.984  10.565   5.564
 4173POPC   PO453796   1.990  10.510   5.864
 4173POPC   GL153797   2.009  10.548   6.164
 4173POPC   GL253798   1.851  10.482   6.164
 4173POPC   C1A53799   1.973  10.526   6.464
 4173POPC   D2A53800   1.988  10.477   6.764
 4173POPC   C3A53801   1.995  10.475   7.064
 4173POPC   C4A53802   1.975  10.476   7.364
 4173POPC   C1B53803   1.713  10.548   6.464
 4173POPC   C2B53804   1.759  10.521   6.764
 4173POPC   C3B53805   1.690  10.487   7.064
 4173POPC   C4B53806   1.763  10.530   7.364
 4174POPC   NC353807  20.619  13.596   5.564
 4174POPC   PO453808  20.582  13.613   5.864
 4174POPC   GL153809  20.654  13.598   6.164
 4174POPC   GL253810  20.709  13.681   6.164
 4174POPC   C1A53811  20.581  13.592   6.464
 4174POPC   D2A53812  20.617  13.621   6.764
 4174POPC   C3A53813  20.575  13.631   7.064
 4174POPC   C4A53814  20.596  13.595   7.364
 4174POPC   C1B53815  20.798  13.800   6.464
 4174POPC   C2B53816  20.767  13.801   6.764
 4174POPC   C3B53817  20.771  13.757   7.064
 4174POPC   C4B53818  20.846  13.746   7.364
 4175POPC   NC353819  26.068   2.780   5.564
 4175POPC   PO453820  26.050   2.746   5.864
 4175POPC   GL153821  25.992   2.737   6.164
 4175POPC   GL253822  25.957   2.881   6.164
 4175POPC   C1A53823  26.039   2.807   6.464
 4175POPC   D2A53824  26.013   2.738   6.764
 4175POPC   C3A53825  26.049   2.729   7.064
 4175POPC   C4A53826  26.040   2.803   7.364
 4175POPC   C1B53827  26.016   3.020   6.464
 4175POPC   C2B53828  25.999   3.029   6.764
 4175POPC   C3B53829  25.919   3.009   7.064
 4175POPC   C4B53830  25.925   3.050   7.364
 4176POPC   NC353831  20.570   9.739   5.564
 4176POPC   PO453832  20.616   9.705   5.864
 4176POPC   GL153833  20.569   9.765   6.164
 4176POPC   GL253834  20.781   9.749   6.164
 4176POPC   C1A53835  20.621   9.700   6.464
 4176POPC   D2A53836  20.590   9.699   6.764
 4176POPC   C3A53837  20.630   9.716   7.064
 4176POPC   C4A53838  20.641   9.743   7.364
 4176POPC   C1B53839  20.853   9.694   6.464
 4176POPC   C2B53840  20.881   9.717   6.764
 4176POPC   C3B53841  20.821   9.693   7.064
 4176POPC   C4B53842  20.829   9.760   7.364
 4177POPC   NC353843   5.111  32.976   5.564
 4177POPC   PO453844   5.055  33.034   5.864
 4177POPC   GL153845   5.120  33.052   6.164
 4177POPC   GL253846   5.013  32.961   6.164
 4177POPC   C1A53847   5.114  33.048   6.464
 4177POPC   D2A53848   5.110  33.034   6.764
 4177POPC   C3A53849   5.082  33.004   7.064
 4177POPC   C4A53850   5.098  33.025   7.364
 4177POPC   C1B53851   4.909  32.875   6.464
 4177POPC   C2B53852   4.881  32.869   6.764
 4177POPC   C3B53853   4.897  32.852   7.064
 4177POPC   C4B53854   4.952  32.844   7.364
 4178POPC   NC353855  16.728   9.001   5.564
 4178POPC   PO453856  16.709   8.993   5.864
 4178POPC   GL153857  16.772   9.012   6.164
 4178POPC   GL253858  16.564   8.987   6.164
 4178POPC   C1A53859  16.694   9.022   6.464
 4178POPC   D2A53860  16.690   8.991   6.764
 4178POPC   C3A53861  16.758   8.988   7.064
 4178POPC   C4A53862  16.698   8.987   7.364
 4178POPC   C1B53863  16.528   8.955   6.464
 4178POPC   C2B53864  16.484   8.933   6.764
 4178POPC   C3B53865  16.456   8.920   7.064
 4178POPC   C4B53866  16.510   8.927   7.364
 4179POPC   NC353867   5.047  25.262   5.564
 4179POPC   PO453868   5.091  25.283   5.864
 4179POPC   GL153869   5.068  25.301   6.164
 4179POPC   GL253870   5.213  25.181   6.164
 4179POPC   C1A53871   5.139  25.303   6.464
 4179POPC   D2A53872   5.131  25.276   6.764
 4179POPC   C3A53873   5.090  25.307   7.064
 4179POPC   C4A53874   5.056  25.223   7.364
 4179POPC   C1B53875   5.240  25.037   6.464
 4179POPC   C2B53876   5.243  25.114   6.764
 4179POPC   C3B53877   5.295  25.078   7.064
 4179POPC   C4B53878   5.308  25.043   7.364
 4180POPC   NC353879  24.476  13.620   5.564
 4180POPC   PO453880  24.464  13.623   5.864
 4180POPC   GL153881  24.465  13.651   6.164
 4180POPC   GL253882  24.540  13.553   6.164
 4180POPC   C1A53883  24.519  13.592   6.464
 4180POPC   D2A53884  24.485  13.640   6.764
 4180POPC   C3A53885  24.471  13.650   7.064
 4180POPC   C4A53886  24.478  13.627   7.364
 4180POPC   C1B53887  24.565  13.387   6.464
 4180POPC   C2B53888  24.593  13.354   6.764
 4180POPC   C3B53889  24.615  13.403   7.064
 4180POPC   C4B53890  24.569  13.403   7.364
 4181POPC   NC353891  38.472   5.134   5.564
 4181POPC   PO453892  38.478   5.077   5.864
 4181POPC   GL153893  38.416   5.082   6.164
 4181POPC   GL253894  38.443   5.229   6.164
 4181POPC   C1A53895  38.461   5.054   6.464
 4181POPC   D2A53896  38.472   5.108   6.764
 4181POPC   C3A53897  38.415   5.120   7.064
 4181POPC   C4A53898  38.488   5.137   7.364
 4181POPC   C1B53899  38.386   5.342   6.464
 4181POPC   C2B53900  38.393   5.342   6.764
 4181POPC   C3B53901  38.436   5.300   7.064
 4181POPC   C4B53902  38.430   5.360   7.364
 4182POPC   NC353903  12.871  15.188   5.564
 4182POPC   PO453904  12.880  15.141   5.864
 4182POPC   GL153905  12.883  15.196   6.164
 4182POPC   GL253906  12.877  15.299   6.164
 4182POPC   C1A53907  12.873  15.143   6.464
 4182POPC   D2A53908  12.889  15.148   6.764
 4182POPC   C3A53909  12.890  15.158   7.064
 4182POPC   C4A53910  12.805  15.144   7.364
 4182POPC   C1B53911  12.929  15.377   6.464
 4182POPC   C2B53912  12.976  15.425   6.764
 4182POPC   C3B53913  12.939  15.443   7.064
 4182POPC   C4B53914  12.968  15.412   7.364
 4183POPC   NC353915  19.014  17.481   5.564
 4183POPC   PO453916  19.071  17.478   5.864
 4183POPC   GL153917  19.101  17.534   6.164
 4183POPC   GL253918  18.917  17.532   6.164
 4183POPC   C1A53919  19.042  17.529   6.464
 4183POPC   D2A53920  19.082  17.476   6.764
 4183POPC   C3A53921  19.045  17.549   7.064
 4183POPC   C4A53922  19.072  17.463   7.364
 4183POPC   C1B53923  18.768  17.423   6.464
 4183POPC   C2B53924  18.848  17.511   6.764
 4183POPC   C3B53925  18.857  17.503   7.064
 4183POPC   C4B53926  18.831  17.489   7.364
 4184POPC   NC353927  30.675  21.431   5.564
 4184POPC   PO453928  30.710  21.411   5.864
 4184POPC   GL153929  30.661  21.427   6.164
 4184POPC   GL253930  30.583  21.477   6.164
 4184POPC   C1A53931  30.704  21.417   6.464
 4184POPC   D2A53932  30.685  21.348   6.764
 4184POPC   C3A53933  30.737  21.416   7.064
 4184POPC   C4A53934  30.657  21.401   7.364
 4184POPC   C1B53935  30.454  21.515   6.464
 4184POPC   C2B53936  30.448  21.487   6.764
 4184POPC   C3B53937  30.447  21.488   7.064
 4184POPC   C4B53938  30.523  21.486   7.364
 4185POPC   NC353939   5.863  35.342   5.564
 4185POPC   PO453940   5.840  35.323   5.864
 4185POPC   GL153941   5.844  35.358   6.164
 4185POPC   GL253942   5.944  35.264   6.164
 4185POPC   C1A53943   5.822  35.308   6.464
 4185POPC   D2A53944   5.893  35.389   6.764
 4185POPC   C3A53945   5.820  35.343   7.064
 4185POPC   C4A53946   5.910  35.315   7.364
 4185POPC   C1B53947   6.101  35.190   6.464
 4185POPC   C2B53948   6.125  35.172   6.764
 4185POPC   C3B53949   6.034  35.212   7.064
 4185POPC   C4B53950   6.083  35.236   7.364
 4186POPC   NC353951  38.456  30.705   5.564
 4186POPC   PO453952  38.411  30.743   5.864
 4186POPC   GL153953  38.419  30.742   6.164
 4186POPC   GL253954  38.509  30.589   6.164
 4186POPC   C1A53955  38.432  30.720   6.464
 4186POPC   D2A53956  38.494  30.649   6.764
 4186POPC   C3A53957  38.440  30.729   7.064
 4186POPC   C4A53958  38.416  30.673   7.364
 4186POPC   C1B53959  38.583  30.469   6.464
 4186POPC   C2B53960  38.586  30.454   6.764
 4186POPC   C3B53961  38.613  30.520   7.064
 4186POPC   C4B53962  38.574  30.454   7.364
 4187POPC   NC353963   5.066  19.086   5.564
 4187POPC   PO453964   5.059  19.028   5.864
 4187POPC   GL153965   5.115  19.058   6.164
 4187POPC   GL253966   4.999  18.943   6.164
 4187POPC   C1A53967   5.104  19.055   6.464
 4187POPC   D2A53968   5.108  19.014   6.764
 4187POPC   C3A53969   5.047  19.065   7.064
 4187POPC   C4A53970   5.115  19.021   7.364
 4187POPC   C1B53971   4.991  18.821   6.464
 4187POPC   C2B53972   4.979  18.829   6.764
 4187POPC   C3B53973   5.021  18.834   7.064
 4187POPC   C4B53974   4.984  18.816   7.364
 4188POPC   NC353975  25.222  11.314   5.564
 4188POPC   PO453976  25.282  11.302   5.864
 4188POPC   GL153977  25.299  11.279   6.164
 4188POPC   GL253978  25.249  11.390   6.164
 4188POPC   C1A53979  25.305  11.342   6.464
 4188POPC   D2A53980  25.309  11.251   6.764
 4188POPC   C3A53981  25.308  11.272   7.064
 4188POPC   C4A53982  25.286  11.333   7.364
 4188POPC   C1B53983  25.308  11.539   6.464
 4188POPC   C2B53984  25.308  11.590   6.764
 4188POPC   C3B53985  25.262  11.550   7.064
 4188POPC   C4B53986  25.292  11.565   7.364
 4189POPC   NC353987  27.630  40.789   5.564
 4189POPC   PO453988  27.580  40.738   5.864
 4189POPC   GL153989  27.583  40.739   6.164
 4189POPC   GL253990  27.518  40.757   6.164
 4189POPC   C1A53991  27.584  40.785   6.464
 4189POPC   D2A53992  27.595  40.734   6.764
 4189POPC   C3A53993  27.560  40.813   7.064
 4189POPC   C4A53994  27.609  40.765   7.364
 4189POPC   C1B53995  27.357  40.673   6.464
 4189POPC   C2B53996  27.334  40.686   6.764
 4189POPC   C3B53997  27.407  40.698   7.064
 4189POPC   C4B53998  27.393  40.674   7.364
 4190POPC   NC353999   9.725   9.752   5.564
 4190POPC   PO454000   9.778   9.705   5.864
 4190POPC   GL154001   9.748   9.767   6.164
 4190POPC   GL254002   9.782   9.825   6.164
 4190POPC   C1A54003   9.727   9.772   6.464
 4190POPC   D2A54004   9.761   9.732   6.764
 4190POPC   C3A54005   9.789   9.796   7.064
 4190POPC   C4A54006   9.719   9.779   7.364
 4190POPC   C1B54007   9.820   9.965   6.464
 4190POPC   C2B54008   9.849   9.954   6.764
 4190POPC   C3B54009   9.814   9.963   7.064
 4190POPC   C4B54010   9.813   9.984   7.364
 4191POPC   NC354011  11.338  31.444   5.564
 4191POPC   PO454012  11.300  31.468   5.864
 4191POPC   GL154013  11.265  31.499   6.164
 4191POPC   GL254014  11.368  31.359   6.164
 4191POPC   C1A54015  11.332  31.520   6.464
 4191POPC   D2A54016  11.339  31.457   6.764
 4191POPC   C3A54017  11.304  31.500   7.064
 4191POPC   C4A54018  11.339  31.512   7.364
 4191POPC   C1B54019  11.518  31.305   6.464
 4191POPC   C2B54020  11.463  31.283   6.764
 4191POPC   C3B54021  11.481  31.281   7.064
 4191POPC   C4B54022  11.451  31.319   7.364
 4192POPC   NC354023   0.402  35.368   5.564
 4192POPC   PO454024   0.428  35.370   5.864
 4192POPC   GL154025   0.474  35.333   6.164
 4192POPC   GL254026   0.475  35.241   6.164
 4192POPC   C1A54027   0.455  35.387   6.464
 4192POPC   D2A54028   0.457  35.397   6.764
 4192POPC   C3A54029   0.449  35.359   7.064
 4192POPC   C4A54030   0.461  35.378   7.364
 4192POPC   C1B54031   0.618  35.145   6.464
 4192POPC   C2B54032   0.575  35.113   6.764
 4192POPC   C3B54033   0.533  35.111   7.064
 4192POPC   C4B54034   0.549  35.194   7.364
 4193POPC   NC354035  33.849  14.399   5.564
 4193POPC   PO454036  33.828  14.390   5.864
 4193POPC   GL154037  33.766  14.365   6.164
 4193POPC   GL254038  33.802  14.545   6.164
 4193POPC   C1A54039  33.810  14.412   6.464
 4193POPC   D2A54040  33.764  14.371   6.764
 4193POPC   C3A54041  33.848  14.413   7.064
 4193POPC   C4A54042  33.773  14.396   7.364
 4193POPC   C1B54043  33.807  14.605   6.464
 4193POPC   C2B54044  33.769  14.625   6.764
 4193POPC   C3B54045  33.812  14.654   7.064
 4193POPC   C4B54046  33.748  14.673   7.364
 4194POPC   NC354047  44.651  15.134   5.564
 4194POPC   PO454048  44.710  15.213   5.864
 4194POPC   GL154049  44.659  15.199   6.164
 4194POPC   GL254050  44.735  15.140   6.164
 4194POPC   C1A54051  44.619  15.134   6.464
 4194POPC   D2A54052  44.692  15.210   6.764
 4194POPC   C3A54053  44.649  15.180   7.064
 4194POPC   C4A54054  44.650  15.207   7.364
 4194POPC   C1B54055  44.910  15.039   6.464
 4194POPC   C2B54056  44.861  15.017   6.764
 4194POPC   C3B54057  44.903  15.005   7.064
 4194POPC   C4B54058  44.849  14.992   7.364
 4195POPC   NC354059  26.088  37.723   5.564
 4195POPC   PO454060  26.059  37.648   5.864
 4195POPC   GL154061  26.060  37.660   6.164
 4195POPC   GL254062  26.080  37.592   6.164
 4195POPC   C1A54063  26.050  37.720   6.464
 4195POPC   D2A54064  26.068  37.670   6.764
 4195POPC   C3A54065  26.004  37.636   7.064
 4195POPC   C4A54066  25.995  37.637   7.364
 4195POPC   C1B54067  26.034  37.451   6.464
 4195POPC   C2B54068  26.046  37.449   6.764
 4195POPC   C3B54069  26.017  37.413   7.064
 4195POPC   C4B54070  26.004  37.434   7.364
 4196POPC   NC354071  26.012  20.629   5.564
 4196POPC   PO454072  26.019  20.567   5.864
 4196POPC   GL154073  26.011  20.644   6.164
 4196POPC   GL254074  26.088  20.723   6.164
 4196POPC   C1A54075  26.065  20.613   6.464
 4196POPC   D2A54076  26.057  20.602   6.764
 4196POPC   C3A54077  26.003  20.568   7.064
 4196POPC   C4A54078  25.994  20.643   7.364
 4196POPC   C1B54079  26.132  20.811   6.464
 4196POPC   C2B54080  26.081  20.863   6.764
 4196POPC   C3B54081  26.052  20.858   7.064
 4196POPC   C4B54082  26.069  20.894   7.364
 4197POPC   NC354083  43.927  39.274   5.564
 4197POPC   PO454084  43.886  39.234   5.864
 4197POPC   GL154085  43.844  39.267   6.164
 4197POPC   GL254086  43.782  39.362   6.164
 4197POPC   C1A54087  43.876  39.265   6.464
 4197POPC   D2A54088  43.861  39.219   6.764
 4197POPC   C3A54089  43.922  39.196   7.064
 4197POPC   C4A54090  43.868  39.204   7.364
 4197POPC   C1B54091  43.726  39.436   6.464
 4197POPC   C2B54092  43.685  39.388   6.764
 4197POPC   C3B54093  43.705  39.399   7.064
 4197POPC   C4B54094  43.675  39.410   7.364
 4198POPC   NC354095  33.048  11.339   5.564
 4198POPC   PO454096  33.046  11.275   5.864
 4198POPC   GL154097  33.000  11.322   6.164
 4198POPC   GL254098  33.127  11.255   6.164
 4198POPC   C1A54099  32.991  11.347   6.464
 4198POPC   D2A54100  32.981  11.266   6.764
 4198POPC   C3A54101  33.040  11.333   7.064
 4198POPC   C4A54102  33.009  11.311   7.364
 4198POPC   C1B54103  33.243  11.233   6.464
 4198POPC   C2B54104  33.292  11.150   6.764
 4198POPC   C3B54105  33.278  11.229   7.064
 4198POPC   C4B54106  33.249  11.230   7.364
 4199POPC   NC354107  23.747   7.465   5.564
 4199POPC   PO454108  23.721   7.410   5.864
 4199POPC   GL154109  23.732   7.380   6.164
 4199POPC   GL254110  23.836   7.450   6.164
 4199POPC   C1A54111  23.714   7.398   6.464
 4199POPC   D2A54112  23.723   7.432   6.764
 4199POPC   C3A54113  23.684   7.406   7.064
 4199POPC   C4A54114  23.682   7.463   7.364
 4199POPC   C1B54115  23.903   7.491   6.464
 4199POPC   C2B54116  23.987   7.540   6.764
 4199POPC   C3B54117  23.946   7.561   7.064
 4199POPC   C4B54118  23.914   7.556   7.364
 4200POPC   NC354119   5.129  24.535   5.564
 4200POPC   PO454120   5.108  24.459   5.864
 4200POPC   GL154121   5.130  24.507   6.164
 4200POPC   GL254122   5.240  24.521   6.164
 4200POPC   C1A54123   5.106  24.496   6.464
 4200POPC   D2A54124   5.102  24.485   6.764
 4200POPC   C3A54125   5.115  24.450   7.064
 4200POPC   C4A54126   5.067  24.536   7.364
 4200POPC   C1B54127   5.338  24.603   6.464
 4200POPC   C2B54128   5.316  24.604   6.764
 4200POPC   C3B54129   5.336  24.672   7.064
 4200POPC   C4B54130   5.287  24.681   7.364
 4201POPC   NC354131  21.395  40.761   5.564
 4201POPC   PO454132  21.373  40.747   5.864
 4201POPC   GL154133  21.377  40.816   6.164
 4201POPC   GL254134  21.405  40.617   6.164
 4201POPC   C1A54135  21.434  40.801   6.464
 4201POPC   D2A54136  21.356  40.795   6.764
 4201POPC   C3A54137  21.388  40.772   7.064
 4201POPC   C4A54138  21.416  40.760   7.364
 4201POPC   C1B54139  21.407  40.519   6.464
 4201POPC   C2B54140  21.355  40.534   6.764
 4201POPC   C3B54141  21.350  40.539   7.064
 4201POPC   C4B54142  21.388  40.528   7.364
 4202POPC   NC354143  10.522  26.082   5.564
 4202POPC   PO454144  10.496  26.041   5.864
 4202POPC   GL154145  10.490  26.034   6.164
 4202POPC   GL254146  10.476  26.188   6.164
 4202POPC   C1A54147  10.535  26.040   6.464
 4202POPC   D2A54148  10.545  26.046   6.764
 4202POPC   C3A54149  10.573  26.063   7.064
 4202POPC   C4A54150  10.566  26.002   7.364
 4202POPC   C1B54151  10.513  26.253   6.464
 4202POPC   C2B54152  10.484  26.297   6.764
 4202POPC   C3B54153  10.498  26.279   7.064
 4202POPC   C4B54154  10.550  26.272   7.364
 4203POPC   NC354155  40.783  19.068   5.564
 4203POPC   PO454156  40.760  19.036   5.864
 4203POPC   GL154157  40.768  19.078   6.164
 4203POPC   GL254158  40.864  19.163   6.164
 4203POPC   C1A54159  40.736  19.017   6.464
 4203POPC   D2A54160  40.772  19.010   6.764
 4203POPC   C3A54161  40.816  19.091   7.064
 4203POPC   C4A54162  40.738  19.019   7.364
 4203POPC   C1B54163  40.865  19.332   6.464
 4203POPC   C2B54164  40.926  19.326   6.764
 4203POPC   C3B54165  40.880  19.330   7.064
 4203POPC   C4B54166  40.851  19.326   7.364
 4204POPC   NC354167  31.424  14.417   5.564
 4204POPC   PO454168  31.466  14.426   5.864
 4204POPC   GL154169  31.440  14.449   6.164
 4204POPC   GL254170  31.351  14.376   6.164
 4204POPC   C1A54171  31.522  14.397   6.464
 4204POPC   D2A54172  31.513  14.432   6.764
 4204POPC   C3A54173  31.517  14.408   7.064
 4204POPC   C4A54174  31.432  14.402   7.364
 4204POPC   C1B54175  31.184  14.375   6.464
 4204POPC   C2B54176  31.201  14.385   6.764
 4204POPC   C3B54177  31.227  14.353   7.064
 4204POPC   C4B54178  31.223  14.342   7.364
 4205POPC   NC354179  26.012  14.436   5.564
 4205POPC   PO454180  26.051  14.392   5.864
 4205POPC   GL154181  26.080  14.390   6.164
 4205POPC   GL254182  26.186  14.356   6.164
 4205POPC   C1A54183  26.025  14.448   6.464
 4205POPC   D2A54184  26.050  14.433   6.764
 4205POPC   C3A54185  26.034  14.450   7.064
 4205POPC   C4A54186  26.060  14.431   7.364
 4205POPC   C1B54187  26.246  14.345   6.464
 4205POPC   C2B54188  26.271  14.308   6.764
 4205POPC   C3B54189  26.304  14.295   7.064
 4205POPC   C4B54190  26.245  14.257   7.364
 4206POPC   NC354191  20.583  36.870   5.564
 4206POPC   PO454192  20.605  36.949   5.864
 4206POPC   GL154193  20.645  36.885   6.164
 4206POPC   GL254194  20.615  36.823   6.164
 4206POPC   C1A54195  20.571  36.880   6.464
 4206POPC   D2A54196  20.583  36.952   6.764
 4206POPC   C3A54197  20.595  36.952   7.064
 4206POPC   C4A54198  20.585  36.939   7.364
 4206POPC   C1B54199  20.683  36.612   6.464
 4206POPC   C2B54200  20.597  36.667   6.764
 4206POPC   C3B54201  20.668  36.629   7.064
 4206POPC   C4B54202  20.597  36.656   7.364
 4207POPC   NC354203  25.297   4.269   5.564
 4207POPC   PO454204  25.257   4.279   5.864
 4207POPC   GL154205  25.231   4.294   6.164
 4207POPC   GL254206  25.103   4.295   6.164
 4207POPC   C1A54207  25.237   4.321   6.464
 4207POPC   D2A54208  25.274   4.303   6.764
 4207POPC   C3A54209  25.260   4.273   7.064
 4207POPC   C4A54210  25.239   4.301   7.364
 4207POPC   C1B54211  25.015   4.337   6.464
 4207POPC   C2B54212  25.008   4.278   6.764
 4207POPC   C3B54213  24.984   4.344   7.064
 4207POPC   C4B54214  24.977   4.304   7.364
 4208POPC   NC354215   8.148  15.972   5.564
 4208POPC   PO454216   8.166  15.999   5.864
 4208POPC   GL154217   8.237  15.929   6.164
 4208POPC   GL254218   8.288  16.078   6.164
 4208POPC   C1A54219   8.243  15.983   6.464
 4208POPC   D2A54220   8.200  15.910   6.764
 4208POPC   C3A54221   8.225  15.909   7.064
 4208POPC   C4A54222   8.246  15.997   7.364
 4208POPC   C1B54223   8.324  16.113   6.464
 4208POPC   C2B54224   8.315  16.163   6.764
 4208POPC   C3B54225   8.380  16.137   7.064
 4208POPC   C4B54226   8.392  16.137   7.364
 4209POPC   NC354227  21.347  42.349   5.564
 4209POPC   PO454228  21.389  42.375   5.864
 4209POPC   GL154229  21.431  42.346   6.164
 4209POPC   GL254230  21.283  42.316   6.164
 4209POPC   C1A54231  21.435  42.305   6.464
 4209POPC   D2A54232  21.371  42.289   6.764
 4209POPC   C3A54233  21.365  42.379   7.064
 4209POPC   C4A54234  21.404  42.317   7.364
 4209POPC   C1B54235  21.138  42.389   6.464
 4209POPC   C2B54236  21.109  42.400   6.764
 4209POPC   C3B54237  21.099  42.415   7.064
 4209POPC   C4B54238  21.097  42.419   7.364
 4210POPC   NC354239  36.085   4.305   5.564
 4210POPC   PO454240  36.079   4.314   5.864
 4210POPC   GL154241  36.154   4.298   6.164
 4210POPC   GL254242  35.975   4.229   6.164
 4210POPC   C1A54243  36.126   4.295   6.464
 4210POPC   D2A54244  36.133   4.350   6.764
 4210POPC   C3A54245  36.169   4.325   7.064
 4210POPC   C4A54246  36.116   4.360   7.364
 4210POPC   C1B54247  35.896   4.252   6.464
 4210POPC   C2B54248  35.865   4.199   6.764
 4210POPC   C3B54249  35.936   4.266   7.064
 4210POPC   C4B54250  35.913   4.207   7.364
 4211POPC   NC354251  19.835   9.000   5.564
 4211POPC   PO454252  19.814   9.019   5.864
 4211POPC   GL154253  19.800   8.923   6.164
 4211POPC   GL254254  19.908   9.061   6.164
 4211POPC   C1A54255  19.799   8.991   6.464
 4211POPC   D2A54256  19.821   8.929   6.764
 4211POPC   C3A54257  19.827   8.923   7.064
 4211POPC   C4A54258  19.824   8.927   7.364
 4211POPC   C1B54259  19.915   9.225   6.464
 4211POPC   C2B54260  19.899   9.186   6.764
 4211POPC   C3B54261  19.948   9.215   7.064
 4211POPC   C4B54262  19.960   9.182   7.364
 4212POPC   NC354263   1.168  29.132   5.564
 4212POPC   PO454264   1.241  29.133   5.864
 4212POPC   GL154265   1.242  29.158   6.164
 4212POPC   GL254266   1.070  29.151   6.164
 4212POPC   C1A54267   1.261  29.163   6.464
 4212POPC   D2A54268   1.216  29.179   6.764
 4212POPC   C3A54269   1.227  29.188   7.064
 4212POPC   C4A54270   1.260  29.107   7.364
 4212POPC   C1B54271   0.939  29.166   6.464
 4212POPC   C2B54272   0.928  29.123   6.764
 4212POPC   C3B54273   0.921  29.171   7.064
 4212POPC   C4B54274   1.006  29.219   7.364
 4213POPC   NC354275   2.807  34.621   5.564
 4213POPC   PO454276   2.799  34.546   5.864
 4213POPC   GL154277   2.771  34.558   6.164
 4213POPC   GL254278   2.918  34.540   6.164
 4213POPC   C1A54279   2.756  34.581   6.464
 4213POPC   D2A54280   2.757  34.610   6.764
 4213POPC   C3A54281   2.800  34.583   7.064
 4213POPC   C4A54282   2.746  34.534   7.364
 4213POPC   C1B54283   3.050  34.598   6.464
 4213POPC   C2B54284   2.985  34.619   6.764
 4213POPC   C3B54285   3.041  34.539   7.064
 4213POPC   C4B54286   3.058  34.531   7.364
 4214POPC   NC354287  44.690  37.664   5.564
 4214POPC   PO454288  44.690  37.703   5.864
 4214POPC   GL154289  44.678  37.728   6.164
 4214POPC   GL254290  44.781  37.596   6.164
 4214POPC   C1A54291  44.684  37.691   6.464
 4214POPC   D2A54292  44.615  37.689   6.764
 4214POPC   C3A54293  44.669  37.685   7.064
 4214POPC   C4A54294  44.634  37.666   7.364
 4214POPC   C1B54295  44.786  37.502   6.464
 4214POPC   C2B54296  44.840  37.449   6.764
 4214POPC   C3B54297  44.816  37.483   7.064
 4214POPC   C4B54298  44.781  37.483   7.364
 4215POPC   NC354299  18.246  27.614   5.564
 4215POPC   PO454300  18.326  27.611   5.864
 4215POPC   GL154301  18.245  27.579   6.164
 4215POPC   GL254302  18.270  27.454   6.164
 4215POPC   C1A54303  18.310  27.607   6.464
 4215POPC   D2A54304  18.332  27.560   6.764
 4215POPC   C3A54305  18.289  27.642   7.064
 4215POPC   C4A54306  18.286  27.547   7.364
 4215POPC   C1B54307  18.229  27.388   6.464
 4215POPC   C2B54308  18.228  27.321   6.764
 4215POPC   C3B54309  18.214  27.364   7.064
 4215POPC   C4B54310  18.208  27.413   7.364
 4216POPC   NC354311  39.215  21.432   5.564
 4216POPC   PO454312  39.183  21.379   5.864
 4216POPC   GL154313  39.183  21.375   6.164
 4216POPC   GL254314  39.179  21.286   6.164
 4216POPC   C1A54315  39.196  21.390   6.464
 4216POPC   D2A54316  39.197  21.416   6.764
 4216POPC   C3A54317  39.199  21.421   7.064
 4216POPC   C4A54318  39.193  21.386   7.364
 4216POPC   C1B54319  39.032  21.220   6.464
 4216POPC   C2B54320  39.043  21.159   6.764
 4216POPC   C3B54321  39.081  21.200   7.064
 4216POPC   C4B54322  39.017  21.162   7.364
 4217POPC   NC354323  30.718  27.581   5.564
 4217POPC   PO454324  30.684  27.629   5.864
 4217POPC   GL154325  30.710  27.613   6.164
 4217POPC   GL254326  30.765  27.526   6.164
 4217POPC   C1A54327  30.670  27.630   6.464
 4217POPC   D2A54328  30.649  27.597   6.764
 4217POPC   C3A54329  30.698  27.564   7.064
 4217POPC   C4A54330  30.653  27.638   7.364
 4217POPC   C1B54331  30.950  27.491   6.464
 4217POPC   C2B54332  30.899  27.510   6.764
 4217POPC   C3B54333  30.882  27.439   7.064
 4217POPC   C4B54334  30.899  27.452   7.364
 4218POPC   NC354335   2.780  38.482   5.564
 4218POPC   PO454336   2.813  38.410   5.864
 4218POPC   GL154337   2.759  38.501   6.164
 4218POPC   GL254338   2.754  38.333   6.164
 4218POPC   C1A54339   2.733  38.442   6.464
 4218POPC   D2A54340   2.725  38.489   6.764
 4218POPC   C3A54341   2.759  38.442   7.064
 4218POPC   C4A54342   2.805  38.464   7.364
 4218POPC   C1B54343   2.626  38.205   6.464
 4218POPC   C2B54344   2.685  38.195   6.764
 4218POPC   C3B54345   2.643  38.191   7.064
 4218POPC   C4B54346   2.663  38.257   7.364
 4219POPC   NC354347   2.751   5.132   5.564
 4219POPC   PO454348   2.779   5.052   5.864
 4219POPC   GL154349   2.767   5.076   6.164
 4219POPC   GL254350   2.894   5.066   6.164
 4219POPC   C1A54351   2.731   5.099   6.464
 4219POPC   D2A54352   2.763   5.112   6.764
 4219POPC   C3A54353   2.768   5.051   7.064
 4219POPC   C4A54354   2.807   5.132   7.364
 4219POPC   C1B54355   3.018   4.917   6.464
 4219POPC   C2B54356   3.017   4.931   6.764
 4219POPC   C3B54357   2.982   4.964   7.064
 4219POPC   C4B54358   2.937   4.992   7.364
 4220POPC   NC354359  12.041   2.025   5.564
 4220POPC   PO454360  12.098   1.992   5.864
 4220POPC   GL154361  12.039   1.980   6.164
 4220POPC   GL254362  11.969   2.040   6.164
 4220POPC   C1A54363  12.124   1.950   6.464
 4220POPC   D2A54364  12.098   1.973   6.764
 4220POPC   C3A54365  12.047   1.996   7.064
 4220POPC   C4A54366  12.032   1.958   7.364
 4220POPC   C1B54367  11.835   2.047   6.464
 4220POPC   C2B54368  11.786   1.990   6.764
 4220POPC   C3B54369  11.859   2.046   7.064
 4220POPC   C4B54370  11.847   2.058   7.364
 4221POPC   NC354371   8.982   9.777   5.564
 4221POPC   PO454372   8.957   9.756   5.864
 4221POPC   GL154373   9.014   9.711   6.164
 4221POPC   GL254374   9.033   9.793   6.164
 4221POPC   C1A54375   8.958   9.752   6.464
 4221POPC   D2A54376   8.964   9.722   6.764
 4221POPC   C3A54377   9.002   9.776   7.064
 4221POPC   C4A54378   9.008   9.758   7.364
 4221POPC   C1B54379   9.210   9.822   6.464
 4221POPC   C2B54380   9.177   9.905   6.764
 4221POPC   C3B54381   9.234   9.846   7.064
 4221POPC   C4B54382   9.189   9.877   7.364
 4222POPC   NC354383   0.399  41.589   5.564
 4222POPC   PO454384   0.443  41.518   5.864
 4222POPC   GL154385   0.461  41.562   6.164
 4222POPC   GL254386   0.473  41.401   6.164
 4222POPC   C1A54387   0.410  41.528   6.464
 4222POPC   D2A54388   0.481  41.516   6.764
 4222POPC   C3A54389   0.443  41.523   7.064
 4222POPC   C4A54390   0.391  41.544   7.364
 4222POPC   C1B54391   0.549  41.294   6.464
 4222POPC   C2B54392   0.607  41.389   6.764
 4222POPC   C3B54393   0.587  41.336   7.064
 4222POPC   C4B54394   0.519  41.369   7.364
 4223POPC   NC354395  40.777  27.607   5.564
 4223POPC   PO454396  40.773  27.575   5.864
 4223POPC   GL154397  40.763  27.577   6.164
 4223POPC   GL254398  40.929  27.619   6.164
 4223POPC   C1A54399  40.800  27.562   6.464
 4223POPC   D2A54400  40.748  27.624   6.764
 4223POPC   C3A54401  40.741  27.618   7.064
 4223POPC   C4A54402  40.741  27.608   7.364
 4223POPC   C1B54403  41.003  27.582   6.464
 4223POPC   C2B54404  41.064  27.588   6.764
 4223POPC   C3B54405  41.006  27.570   7.064
 4223POPC   C4B54406  41.050  27.557   7.364
 4224POPC   NC354407  15.946  10.531   5.564
 4224POPC   PO454408  15.906  10.528   5.864
 4224POPC   GL154409  15.977  10.525   6.164
 4224POPC   GL254410  15.902  10.460   6.164
 4224POPC   C1A54411  15.963  10.510   6.464
 4224POPC   D2A54412  15.947  10.508   6.764
 4224POPC   C3A54413  15.977  10.512   7.064
 4224POPC   C4A54414  15.946  10.508   7.364
 4224POPC   C1B54415  15.744  10.351   6.464
 4224POPC   C2B54416  15.752  10.358   6.764
 4224POPC   C3B54417  15.793  10.335   7.064
 4224POPC   C4B54418  15.749  10.417   7.364
 4225POPC   NC354419  19.828  34.558   5.564
 4225POPC   PO454420  19.802  34.568   5.864
 4225POPC   GL154421  19.876  34.565   6.164
 4225POPC   GL254422  19.864  34.469   6.164
 4225POPC   C1A54423  19.818  34.531   6.464
 4225POPC   D2A54424  19.870  34.550   6.764
 4225POPC   C3A54425  19.877  34.537   7.064
 4225POPC   C4A54426  19.840  34.563   7.364
 4225POPC   C1B54427  19.972  34.313   6.464
 4225POPC   C2B54428  19.959  34.391   6.764
 4225POPC   C3B54429  19.920  34.296   7.064
 4225POPC   C4B54430  19.954  34.364   7.364
 4226POPC   NC354431  20.636  29.187   5.564
 4226POPC   PO454432  20.593  29.133   5.864
 4226POPC   GL154433  20.571  29.180   6.164
 4226POPC   GL254434  20.535  29.054   6.164
 4226POPC   C1A54435  20.596  29.195   6.464
 4226POPC   D2A54436  20.567  29.117   6.764
 4226POPC   C3A54437  20.572  29.142   7.064
 4226POPC   C4A54438  20.634  29.187   7.364
 4226POPC   C1B54439  20.435  29.022   6.464
 4226POPC   C2B54440  20.390  29.068   6.764
 4226POPC   C3B54441  20.437  29.006   7.064
 4226POPC   C4B54442  20.415  28.976   7.364
 4227POPC   NC354443  35.399  37.708   5.564
 4227POPC   PO454444  35.311  37.716   5.864
 4227POPC   GL154445  35.305  37.707   6.164
 4227POPC   GL254446  35.391  37.596   6.164
 4227POPC   C1A54447  35.387  37.633   6.464
 4227POPC   D2A54448  35.377  37.666   6.764
 4227POPC   C3A54449  35.329  37.719   7.064
 4227POPC   C4A54450  35.375  37.708   7.364
 4227POPC   C1B54451  35.369  37.473   6.464
 4227POPC   C2B54452  35.306  37.446   6.764
 4227POPC   C3B54453  35.304  37.422   7.064
 4227POPC   C4B54454  35.306  37.409   7.364
 4228POPC   NC354455  29.132  21.394   5.564
 4228POPC   PO454456  29.153  21.340   5.864
 4228POPC   GL154457  29.111  21.337   6.164
 4228POPC   GL254458  29.259  21.352   6.164
 4228POPC   C1A54459  29.189  21.400   6.464
 4228POPC   D2A54460  29.100  21.365   6.764
 4228POPC   C3A54461  29.151  21.429   7.064
 4228POPC   C4A54462  29.105  21.415   7.364
 4228POPC   C1B54463  29.426  21.380   6.464
 4228POPC   C2B54464  29.367  21.438   6.764
 4228POPC   C3B54465  29.413  21.394   7.064
 4228POPC   C4B54466  29.372  21.403   7.364
 4229POPC   NC354467  22.148  37.713   5.564
 4229POPC   PO454468  22.153  37.717   5.864
 4229POPC   GL154469  22.191  37.726   6.164
 4229POPC   GL254470  22.195  37.600   6.164
 4229POPC   C1A54471  22.187  37.722   6.464
 4229POPC   D2A54472  22.113  37.693   6.764
 4229POPC   C3A54473  22.154  37.700   7.064
 4229POPC   C4A54474  22.145  37.644   7.364
 4229POPC   C1B54475  22.175  37.428   6.464
 4229POPC   C2B54476  22.207  37.426   6.764
 4229POPC   C3B54477  22.200  37.422   7.064
 4229POPC   C4B54478  22.209  37.423   7.364
 4230POPC   NC354479  22.200  36.104   5.564
 4230POPC   PO454480  22.120  36.080   5.864
 4230POPC   GL154481  22.155  36.166   6.164
 4230POPC   GL254482  22.081  36.191   6.164
 4230POPC   C1A54483  22.115  36.137   6.464
 4230POPC   D2A54484  22.167  36.118   6.764
 4230POPC   C3A54485  22.186  36.176   7.064
 4230POPC   C4A54486  22.181  36.108   7.364
 4230POPC   C1B54487  21.958  36.312   6.464
 4230POPC   C2B54488  22.032  36.270   6.764
 4230POPC   C3B54489  22.017  36.274   7.064
 4230POPC   C4B54490  22.021  36.276   7.364
 4231POPC   NC354491   8.944  26.010   5.564
 4231POPC   PO454492   9.003  26.003   5.864
 4231POPC   GL154493   8.962  26.048   6.164
 4231POPC   GL254494   9.035  25.998   6.164
 4231POPC   C1A54495   8.923  26.026   6.464
 4231POPC   D2A54496   9.006  26.031   6.764
 4231POPC   C3A54497   8.932  26.065   7.064
 4231POPC   C4A54498   9.006  26.010   7.364
 4231POPC   C1B54499   9.120  25.890   6.464
 4231POPC   C2B54500   9.162  25.873   6.764
 4231POPC   C3B54501   9.174  25.860   7.064
 4231POPC   C4B54502   9.197  25.841   7.364
 4232POPC   NC354503  39.207  12.873   5.564
 4232POPC   PO454504  39.211  12.843   5.864
 4232POPC   GL154505  39.193  12.877   6.164
 4232POPC   GL254506  39.086  12.785   6.164
 4232POPC   C1A54507  39.262  12.862   6.464
 4232POPC   D2A54508  39.216  12.855   6.764
 4232POPC   C3A54509  39.241  12.863   7.064
 4232POPC   C4A54510  39.202  12.806   7.364
 4232POPC   C1B54511  38.958  12.777   6.464
 4232POPC   C2B54512  39.042  12.808   6.764
 4232POPC   C3B54513  38.980  12.733   7.064
 4232POPC   C4B54514  39.032  12.801   7.364
 4233POPC   NC354515  15.223   0.470   5.564
 4233POPC   PO454516  15.228   0.459   5.864
 4233POPC   GL154517  15.160   0.466   6.164
 4233POPC   GL254518  15.264   0.485   6.164
 4233POPC   C1A54519  15.193   0.412   6.464
 4233POPC   D2A54520  15.187   0.400   6.764
 4233POPC   C3A54521  15.149   0.394   7.064
 4233POPC   C4A54522  15.190   0.390   7.364
 4233POPC   C1B54523  15.346   0.638   6.464
 4233POPC   C2B54524  15.321   0.616   6.764
 4233POPC   C3B54525  15.316   0.672   7.064
 4233POPC   C4B54526  15.332   0.647   7.364
 4234POPC   NC354527  42.331   5.859   5.564
 4234POPC   PO454528  42.360   5.868   5.864
 4234POPC   GL154529  42.309   5.862   6.164
 4234POPC   GL254530  42.185   5.873   6.164
 4234POPC   C1A54531  42.372   5.869   6.464
 4234POPC   D2A54532  42.370   5.838   6.764
 4234POPC   C3A54533  42.322   5.886   7.064
 4234POPC   C4A54534  42.379   5.907   7.364
 4234POPC   C1B54535  42.125   5.943   6.464
 4234POPC   C2B54536  42.100   5.972   6.764
 4234POPC   C3B54537  42.138   5.946   7.064
 4234POPC   C4B54538  42.131   5.999   7.364
 4235POPC   NC354539   5.880  10.488   5.564
 4235POPC   PO454540   5.883  10.527   5.864
 4235POPC   GL154541   5.826  10.523   6.164
 4235POPC   GL254542   6.002  10.639   6.164
 4235POPC   C1A54543   5.917  10.522   6.464
 4235POPC   D2A54544   5.870  10.527   6.764
 4235POPC   C3A54545   5.910  10.486   7.064
 4235POPC   C4A54546   5.892  10.497   7.364
 4235POPC   C1B54547   6.058  10.755   6.464
 4235POPC   C2B54548   6.078  10.669   6.764
 4235POPC   C3B54549   6.013  10.694   7.064
 4235POPC   C4B54550   6.088  10.728   7.364
 4236POPC   NC354551  19.094  11.300   5.564
 4236POPC   PO454552  19.090  11.296   5.864
 4236POPC   GL154553  19.069  11.317   6.164
 4236POPC   GL254554  19.159  11.344   6.164
 4236POPC   C1A54555  19.073  11.277   6.464
 4236POPC   D2A54556  19.070  11.253   6.764
 4236POPC   C3A54557  19.094  11.319   7.064
 4236POPC   C4A54558  19.021  11.343   7.364
 4236POPC   C1B54559  19.331  11.308   6.464
 4236POPC   C2B54560  19.311  11.354   6.764
 4236POPC   C3B54561  19.292  11.371   7.064
 4236POPC   C4B54562  19.267  11.321   7.364
 4237POPC   NC354563   0.424  12.880   5.564
 4237POPC   PO454564   0.421  12.826   5.864
 4237POPC   GL154565   0.468  12.884   6.164
 4237POPC   GL254566   0.349  12.855   6.164
 4237POPC   C1A54567   0.476  12.881   6.464
 4237POPC   D2A54568   0.417  12.884   6.764
 4237POPC   C3A54569   0.443  12.852   7.064
 4237POPC   C4A54570   0.471  12.873   7.364
 4237POPC   C1B54571   0.165  12.765   6.464
 4237POPC   C2B54572   0.243  12.770   6.764
 4237POPC   C3B54573   0.224  12.797   7.064
 4237POPC   C4B54574   0.159  12.764   7.364
 4238POPC   NC354575  33.787  37.634   5.564
 4238POPC   PO454576  33.807  37.667   5.864
 4238POPC   GL154577  33.802  37.709   6.164
 4238POPC   GL254578  33.895  37.566   6.164
 4238POPC   C1A54579  33.824  37.633   6.464
 4238POPC   D2A54580  33.780  37.667   6.764
 4238POPC   C3A54581  33.773  37.680   7.064
 4238POPC   C4A54582  33.751  37.647   7.364
 4238POPC   C1B54583  33.900  37.422   6.464
 4238POPC   C2B54584  33.935  37.499   6.764
 4238POPC   C3B54585  33.917  37.492   7.064
 4238POPC   C4B54586  33.914  37.434   7.364
 4239POPC   NC354587   0.473  16.777   5.564
 4239POPC   PO454588   0.473  16.710   5.864
 4239POPC   GL154589   0.474  16.755   6.164
 4239POPC   GL254590   0.413  16.613   6.164
 4239POPC   C1A54591   0.425  16.724   6.464
 4239POPC   D2A54592   0.421  16.742   6.764
 4239POPC   C3A54593   0.400  16.775   7.064
 4239POPC   C4A54594   0.421  16.732   7.364
 4239POPC   C1B54595   0.359  16.500   6.464
 4239POPC   C2B54596   0.365  16.474   6.764
 4239POPC   C3B54597   0.345  16.460   7.064
 4239POPC   C4B54598   0.282  16.489   7.364
 4240POPC   NC354599  43.135  29.176   5.564
 4240POPC   PO454600  43.121  29.144   5.864
 4240POPC   GL154601  43.142  29.156   6.164
 4240POPC   GL254602  43.251  29.135   6.164
 4240POPC   C1A54603  43.157  29.169   6.464
 4240POPC   D2A54604  43.108  29.185   6.764
 4240POPC   C3A54605  43.104  29.143   7.064
 4240POPC   C4A54606  43.062  29.106   7.364
 4240POPC   C1B54607  43.339  29.167   6.464
 4240POPC   C2B54608  43.369  29.118   6.764
 4240POPC   C3B54609  43.316  29.103   7.064
 4240POPC   C4B54610  43.366  29.182   7.364
 4241POPC   NC354611   9.738  35.401   5.564
 4241POPC   PO454612   9.762  35.312   5.864
 4241POPC   GL154613   9.701  35.379   6.164
 4241POPC   GL254614   9.819  35.266   6.164
 4241POPC   C1A54615   9.794  35.342   6.464
 4241POPC   D2A54616   9.740  35.302   6.764
 4241POPC   C3A54617   9.777  35.327   7.064
 4241POPC   C4A54618   9.796  35.373   7.364
 4241POPC   C1B54619   9.869  35.204   6.464
 4241POPC   C2B54620   9.925  35.151   6.764
 4241POPC   C3B54621   9.926  35.192   7.064
 4241POPC   C4B54622   9.893  35.166   7.364
 4242POPC   NC354623  33.751   8.949   5.564
 4242POPC   PO454624  33.774   8.978   5.864
 4242POPC   GL154625  33.804   8.948   6.164
 4242POPC   GL254626  33.736   8.953   6.164
 4242POPC   C1A54627  33.757   8.979   6.464
 4242POPC   D2A54628  33.764   8.988   6.764
 4242POPC   C3A54629  33.784   8.985   7.064
 4242POPC   C4A54630  33.801   9.017   7.364
 4242POPC   C1B54631  33.619   8.845   6.464
 4242POPC   C2B54632  33.570   8.861   6.764
 4242POPC   C3B54633  33.554   8.912   7.064
 4242POPC   C4B54634  33.578   8.825   7.364
 4243POPC   NC354635  31.471  23.669   5.564
 4243POPC   PO454636  31.454  23.690   5.864
 4243POPC   GL154637  31.476  23.697   6.164
 4243POPC   GL254638  31.362  23.870   6.164
 4243POPC   C1A54639  31.452  23.680   6.464
 4243POPC   D2A54640  31.504  23.668   6.764
 4243POPC   C3A54641  31.483  23.758   7.064
 4243POPC   C4A54642  31.423  23.710   7.364
 4243POPC   C1B54643  31.342  23.899   6.464
 4243POPC   C2B54644  31.365  23.941   6.764
 4243POPC   C3B54645  31.352  23.918   7.064
 4243POPC   C4B54646  31.322  23.967   7.364
 4244POPC   NC354647   0.450  34.576   5.564
 4244POPC   PO454648   0.450  34.601   5.864
 4244POPC   GL154649   0.428  34.595   6.164
 4244POPC   GL254650   0.464  34.490   6.164
 4244POPC   C1A54651   0.421  34.579   6.464
 4244POPC   D2A54652   0.483  34.539   6.764
 4244POPC   C3A54653   0.400  34.577   7.064
 4244POPC   C4A54654   0.427  34.609   7.364
 4244POPC   C1B54655   0.358  34.333   6.464
 4244POPC   C2B54656   0.389  34.330   6.764
 4244POPC   C3B54657   0.409  34.331   7.064
 4244POPC   C4B54658   0.389  34.363   7.364
 4245POPC   NC354659  33.781   8.185   5.564
 4245POPC   PO454660  33.782   8.173   5.864
 4245POPC   GL154661  33.820   8.204   6.164
 4245POPC   GL254662  33.826   8.286   6.164
 4245POPC   C1A54663  33.790   8.220   6.464
 4245POPC   D2A54664  33.799   8.220   6.764
 4245POPC   C3A54665  33.816   8.209   7.064
 4245POPC   C4A54666  33.821   8.209   7.364
 4245POPC   C1B54667  33.827   8.433   6.464
 4245POPC   C2B54668  33.737   8.441   6.764
 4245POPC   C3B54669  33.776   8.402   7.064
 4245POPC   C4B54670  33.767   8.406   7.364
 4246POPC   NC354671  22.184  11.282   5.564
 4246POPC   PO454672  22.132  11.310   5.864
 4246POPC   GL154673  22.117  11.307   6.164
 4246POPC   GL254674  22.198  11.367   6.164
 4246POPC   C1A54675  22.120  11.313   6.464
 4246POPC   D2A54676  22.161  11.286   6.764
 4246POPC   C3A54677  22.150  11.335   7.064
 4246POPC   C4A54678  22.169  11.266   7.364
 4246POPC   C1B54679  22.245  11.472   6.464
 4246POPC   C2B54680  22.253  11.535   6.764
 4246POPC   C3B54681  22.259  11.514   7.064
 4246POPC   C4B54682  22.312  11.470   7.364
 4247POPC   NC354683  33.825   0.430   5.564
 4247POPC   PO454684  33.754   0.453   5.864
 4247POPC   GL154685  33.787   0.430   6.164
 4247POPC   GL254686  33.927   0.511   6.164
 4247POPC   C1A54687  33.806   0.473   6.464
 4247POPC   D2A54688  33.820   0.435   6.764
 4247POPC   C3A54689  33.755   0.460   7.064
 4247POPC   C4A54690  33.752   0.415   7.364
 4247POPC   C1B54691  34.082   0.474   6.464
 4247POPC   C2B54692  34.004   0.540   6.764
 4247POPC   C3B54693  34.047   0.459   7.064
 4247POPC   C4B54694  34.080   0.499   7.364
 4248POPC   NC354695   2.033   2.727   5.564
 4248POPC   PO454696   2.020   2.804   5.864
 4248POPC   GL154697   2.022   2.717   6.164
 4248POPC   GL254698   1.902   2.718   6.164
 4248POPC   C1A54699   1.974   2.723   6.464
 4248POPC   D2A54700   1.971   2.762   6.764
 4248POPC   C3A54701   1.967   2.808   7.064
 4248POPC   C4A54702   2.027   2.718   7.364
 4248POPC   C1B54703   1.807   2.624   6.464
 4248POPC   C2B54704   1.780   2.571   6.764
 4248POPC   C3B54705   1.799   2.627   7.064
 4248POPC   C4B54706   1.738   2.636   7.364
 4249POPC   NC354707  19.799  41.528   5.564
 4249POPC   PO454708  19.813  41.584   5.864
 4249POPC   GL154709  19.861  41.525   6.164
 4249POPC   GL254710  19.730  41.497   6.164
 4249POPC   C1A54711  19.785  41.567   6.464
 4249POPC   D2A54712  19.857  41.584   6.764
 4249POPC   C3A54713  19.853  41.515   7.064
 4249POPC   C4A54714  19.881  41.509   7.364
 4249POPC   C1B54715  19.633  41.510   6.464
 4249POPC   C2B54716  19.625  41.521   6.764
 4249POPC   C3B54717  19.635  41.535   7.064
 4249POPC   C4B54718  19.611  41.483   7.364
 4250POPC   NC354719   6.666  22.179   5.564
 4250POPC   PO454720   6.675  22.138   5.864
 4250POPC   GL154721   6.674  22.182   6.164
 4250POPC   GL254722   6.513  22.186   6.164
 4250POPC   C1A54723   6.683  22.134   6.464
 4250POPC   D2A54724   6.598  22.128   6.764
 4250POPC   C3A54725   6.628  22.184   7.064
 4250POPC   C4A54726   6.668  22.132   7.364
 4250POPC   C1B54727   6.387  22.207   6.464
 4250POPC   C2B54728   6.391  22.225   6.764
 4250POPC   C3B54729   6.419  22.227   7.064
 4250POPC   C4B54730   6.351  22.236   7.364
 4251POPC   NC354731  26.080  12.069   5.564
 4251POPC   PO454732  26.049  12.094   5.864
 4251POPC   GL154733  26.030  12.076   6.164
 4251POPC   GL254734  25.978  12.025   6.164
 4251POPC   C1A54735  26.007  12.118   6.464
 4251POPC   D2A54736  26.008  12.075   6.764
 4251POPC   C3A54737  26.058  12.080   7.064
 4251POPC   C4A54738  26.020  12.031   7.364
 4251POPC   C1B54739  25.865  11.934   6.464
 4251POPC   C2B54740  25.828  11.909   6.764
 4251POPC   C3B54741  25.859  11.865   7.064
 4251POPC   C4B54742  25.834  11.881   7.364
 4252POPC   NC354743  41.518   2.718   5.564
 4252POPC   PO454744  41.532   2.766   5.864
 4252POPC   GL154745  41.524   2.731   6.164
 4252POPC   GL254746  41.633   2.745   6.164
 4252POPC   C1A54747  41.524   2.758   6.464
 4252POPC   D2A54748  41.580   2.799   6.764
 4252POPC   C3A54749  41.603   2.791   7.064
 4252POPC   C4A54750  41.602   2.775   7.364
 4252POPC   C1B54751  41.824   2.696   6.464
 4252POPC   C2B54752  41.835   2.753   6.764
 4252POPC   C3B54753  41.766   2.759   7.064
 4252POPC   C4B54754  41.773   2.722   7.364
 4253POPC   NC354755  31.470   7.464   5.564
 4253POPC   PO454756  31.471   7.417   5.864
 4253POPC   GL154757  31.479   7.402   6.164
 4253POPC   GL254758  31.533   7.269   6.164
 4253POPC   C1A54759  31.521   7.432   6.464
 4253POPC   D2A54760  31.454   7.381   6.764
 4253POPC   C3A54761  31.465   7.392   7.064
 4253POPC   C4A54762  31.439   7.430   7.364
 4253POPC   C1B54763  31.527   7.210   6.464
 4253POPC   C2B54764  31.579   7.188   6.764
 4253POPC   C3B54765  31.553   7.169   7.064
 4253POPC   C4B54766  31.501   7.182   7.364
 4254POPC   NC354767   5.911  22.138   5.564
 4254POPC   PO454768   5.826  22.146   5.864
 4254POPC   GL154769   5.873  22.162   6.164
 4254POPC   GL254770   5.714  22.185   6.164
 4254POPC   C1A54771   5.884  22.204   6.464
 4254POPC   D2A54772   5.832  22.117   6.764
 4254POPC   C3A54773   5.885  22.169   7.064
 4254POPC   C4A54774   5.843  22.185   7.364
 4254POPC   C1B54775   5.601  22.219   6.464
 4254POPC   C2B54776   5.606  22.158   6.764
 4254POPC   C3B54777   5.601  22.210   7.064
 4254POPC   C4B54778   5.606  22.159   7.364
 4255POPC   NC354779  37.683   2.020   5.564
 4255POPC   PO454780  37.667   1.990   5.864
 4255POPC   GL154781  37.662   2.019   6.164
 4255POPC   GL254782  37.528   1.989   6.164
 4255POPC   C1A54783  37.647   1.958   6.464
 4255POPC   D2A54784  37.682   1.941   6.764
 4255POPC   C3A54785  37.653   2.026   7.064
 4255POPC   C4A54786  37.647   1.970   7.364
 4255POPC   C1B54787  37.466   2.032   6.464
 4255POPC   C2B54788  37.410   2.004   6.764
 4255POPC   C3B54789  37.431   2.034   7.064
 4255POPC   C4B54790  37.459   1.961   7.364
 4256POPC   NC354791  26.004  33.833   5.564
 4256POPC   PO454792  26.036  33.833   5.864
 4256POPC   GL154793  26.026  33.774   6.164
 4256POPC   GL254794  26.165  33.928   6.164
 4256POPC   C1A54795  25.991  33.800   6.464
 4256POPC   D2A54796  26.029  33.774   6.764
 4256POPC   C3A54797  26.059  33.820   7.064
 4256POPC   C4A54798  26.026  33.760   7.364
 4256POPC   C1B54799  26.230  33.989   6.464
 4256POPC   C2B54800  26.225  33.939   6.764
 4256POPC   C3B54801  26.242  34.011   7.064
 4256POPC   C4B54802  26.214  33.994   7.364
 4257POPC   NC354803  14.447  28.397   5.564
 4257POPC   PO454804  14.407  28.326   5.864
 4257POPC   GL154805  14.433  28.335   6.164
 4257POPC   GL254806  14.487  28.236   6.164
 4257POPC   C1A54807  14.391  28.380   6.464
 4257POPC   D2A54808  14.367  28.390   6.764
 4257POPC   C3A54809  14.445  28.399   7.064
 4257POPC   C4A54810  14.358  28.416   7.364
 4257POPC   C1B54811  14.474  28.158   6.464
 4257POPC   C2B54812  14.430  28.134   6.764
 4257POPC   C3B54813  14.429  28.085   7.064
 4257POPC   C4B54814  14.511  28.148   7.364
 4258POPC   NC354815  11.262  18.259   5.564
 4258POPC   PO454816  11.256  18.323   5.864
 4258POPC   GL154817  11.310  18.326   6.164
 4258POPC   GL254818  11.225  18.345   6.164
 4258POPC   C1A54819  11.344  18.327   6.464
 4258POPC   D2A54820  11.319  18.277   6.764
 4258POPC   C3A54821  11.344  18.283   7.064
 4258POPC   C4A54822  11.264  18.300   7.364
 4258POPC   C1B54823  11.078  18.362   6.464
 4258POPC   C2B54824  11.013  18.308   6.764
 4258POPC   C3B54825  11.050  18.319   7.064
 4258POPC   C4B54826  11.078  18.334   7.364
 4259POPC   NC354827  30.701  30.680   5.564
 4259POPC   PO454828  30.746  30.691   5.864
 4259POPC   GL154829  30.671  30.699   6.164
 4259POPC   GL254830  30.602  30.602   6.164
 4259POPC   C1A54831  30.681  30.700   6.464
 4259POPC   D2A54832  30.712  30.654   6.764
 4259POPC   C3A54833  30.701  30.688   7.064
 4259POPC   C4A54834  30.674  30.687   7.364
 4259POPC   C1B54835  30.450  30.583   6.464
 4259POPC   C2B54836  30.434  30.622   6.764
 4259POPC   C3B54837  30.432  30.639   7.064
 4259POPC   C4B54838  30.420  30.575   7.364
 4260POPC   NC354839  29.120   7.394   5.564
 4260POPC   PO454840  29.099   7.385   5.864
 4260POPC   GL154841  29.095   7.464   6.164
 4260POPC   GL254842  29.139   7.263   6.164
 4260POPC   C1A54843  29.163   7.467   6.464
 4260POPC   D2A54844  29.184   7.399   6.764
 4260POPC   C3A54845  29.160   7.428   7.064
 4260POPC   C4A54846  29.161   7.438   7.364
 4260POPC   C1B54847  29.217   7.216   6.464
 4260POPC   C2B54848  29.223   7.213   6.764
 4260POPC   C3B54849  29.207   7.188   7.064
 4260POPC   C4B54850  29.198   7.223   7.364
 4261POPC   NC354851   2.732   2.730   5.564
 4261POPC   PO454852   2.733   2.766   5.864
 4261POPC   GL154853   2.792   2.771   6.164
 4261POPC   GL254854   2.759   2.911   6.164
 4261POPC   C1A54855   2.813   2.796   6.464
 4261POPC   D2A54856   2.735   2.793   6.764
 4261POPC   C3A54857   2.777   2.780   7.064
 4261POPC   C4A54858   2.793   2.768   7.364
 4261POPC   C1B54859   2.800   3.054   6.464
 4261POPC   C2B54860   2.761   3.025   6.764
 4261POPC   C3B54861   2.803   3.044   7.064
 4261POPC   C4B54862   2.846   3.061   7.364
 4262POPC   NC354863  15.916  22.928   5.564
 4262POPC   PO454864  15.934  22.949   5.864
 4262POPC   GL154865  15.916  22.987   6.164
 4262POPC   GL254866  16.027  22.831   6.164
 4262POPC   C1A54867  15.935  22.931   6.464
 4262POPC   D2A54868  15.971  22.960   6.764
 4262POPC   C3A54869  15.998  22.977   7.064
 4262POPC   C4A54870  15.952  22.974   7.364
 4262POPC   C1B54871  16.090  22.707   6.464
 4262POPC   C2B54872  16.017  22.685   6.764
 4262POPC   C3B54873  16.093  22.670   7.064
 4262POPC   C4B54874  16.065  22.723   7.364
 4263POPC   NC354875  22.937  23.666   5.564
 4263POPC   PO454876  22.896  23.684   5.864
 4263POPC   GL154877  22.909  23.678   6.164
 4263POPC   GL254878  22.996  23.661   6.164
 4263POPC   C1A54879  22.894  23.688   6.464
 4263POPC   D2A54880  22.964  23.664   6.764
 4263POPC   C3A54881  22.931  23.716   7.064
 4263POPC   C4A54882  22.939  23.702   7.364
 4263POPC   C1B54883  23.072  23.560   6.464
 4263POPC   C2B54884  23.163  23.572   6.764
 4263POPC   C3B54885  23.142  23.491   7.064
 4263POPC   C4B54886  23.114  23.494   7.364
 4264POPC   NC354887   7.380  27.594   5.564
 4264POPC   PO454888   7.434  27.595   5.864
 4264POPC   GL154889   7.419  27.600   6.164
 4264POPC   GL254890   7.585  27.668   6.164
 4264POPC   C1A54891   7.469  27.567   6.464
 4264POPC   D2A54892   7.462  27.622   6.764
 4264POPC   C3A54893   7.373  27.606   7.064
 4264POPC   C4A54894   7.423  27.631   7.364
 4264POPC   C1B54895   7.694  27.636   6.464
 4264POPC   C2B54896   7.659  27.616   6.764
 4264POPC   C3B54897   7.656  27.635   7.064
 4264POPC   C4B54898   7.705  27.647   7.364
 4265POPC   NC354899  23.709   6.620   5.564
 4265POPC   PO454900  23.680   6.692   5.864
 4265POPC   GL154901  23.698   6.633   6.164
 4265POPC   GL254902  23.583   6.605   6.164
 4265POPC   C1A54903  23.675   6.659   6.464
 4265POPC   D2A54904  23.685   6.641   6.764
 4265POPC   C3A54905  23.700   6.678   7.064
 4265POPC   C4A54906  23.705   6.653   7.364
 4265POPC   C1B54907  23.480   6.620   6.464
 4265POPC   C2B54908  23.434   6.620   6.764
 4265POPC   C3B54909  23.504   6.613   7.064
 4265POPC   C4B54910  23.422   6.572   7.364
 4266POPC   NC354911  21.377  32.992   5.564
 4266POPC   PO454912  21.428  33.012   5.864
 4266POPC   GL154913  21.422  32.993   6.164
 4266POPC   GL254914  21.347  33.100   6.164
 4266POPC   C1A54915  21.360  33.042   6.464
 4266POPC   D2A54916  21.435  33.036   6.764
 4266POPC   C3A54917  21.409  32.990   7.064
 4266POPC   C4A54918  21.432  33.033   7.364
 4266POPC   C1B54919  21.225  33.242   6.464
 4266POPC   C2B54920  21.225  33.210   6.764
 4266POPC   C3B54921  21.206  33.223   7.064
 4266POPC   C4B54922  21.185  33.198   7.364
 4267POPC   NC354923  33.058  37.669   5.564
 4267POPC   PO454924  33.063  37.662   5.864
 4267POPC   GL154925  33.052  37.650   6.164
 4267POPC   GL254926  32.950  37.666   6.164
 4267POPC   C1A54927  33.071  37.675   6.464
 4267POPC   D2A54928  33.062  37.686   6.764
 4267POPC   C3A54929  33.073  37.670   7.064
 4267POPC   C4A54930  33.009  37.681   7.364
 4267POPC   C1B54931  32.816  37.579   6.464
 4267POPC   C2B54932  32.803  37.581   6.764
 4267POPC   C3B54933  32.753  37.584   7.064
 4267POPC   C4B54934  32.770  37.607   7.364
 4268POPC   NC354935  11.319   2.737   5.564
 4268POPC   PO454936  11.317   2.753   5.864
 4268POPC   GL154937  11.261   2.748   6.164
 4268POPC   GL254938  11.319   2.608   6.164
 4268POPC   C1A54939  11.275   2.812   6.464
 4268POPC   D2A54940  11.313   2.771   6.764
 4268POPC   C3A54941  11.273   2.810   7.064
 4268POPC   C4A54942  11.319   2.783   7.364
 4268POPC   C1B54943  11.362   2.561   6.464
 4268POPC   C2B54944  11.364   2.502   6.764
 4268POPC   C3B54945  11.314   2.493   7.064
 4268POPC   C4B54946  11.362   2.529   7.364
 4269POPC   NC354947  22.961   6.676   5.564
 4269POPC   PO454948  22.944   6.667   5.864
 4269POPC   GL154949  22.968   6.631   6.164
 4269POPC   GL254950  22.974   6.517   6.164
 4269POPC   C1A54951  22.966   6.678   6.464
 4269POPC   D2A54952  22.892   6.679   6.764
 4269POPC   C3A54953  22.945   6.681   7.064
 4269POPC   C4A54954  22.950   6.657   7.364
 4269POPC   C1B54955  23.011   6.413   6.464
 4269POPC   C2B54956  23.066   6.391   6.764
 4269POPC   C3B54957  23.021   6.442   7.064
 4269POPC   C4B54958  23.033   6.383   7.364
 4270POPC   NC354959  34.554  12.857   5.564
 4270POPC   PO454960  34.610  12.862   5.864
 4270POPC   GL154961  34.616  12.849   6.164
 4270POPC   GL254962  34.565  12.700   6.164
 4270POPC   C1A54963  34.618  12.823   6.464
 4270POPC   D2A54964  34.579  12.872   6.764
 4270POPC   C3A54965  34.614  12.894   7.064
 4270POPC   C4A54966  34.550  12.822   7.364
 4270POPC   C1B54967  34.557  12.644   6.464
 4270POPC   C2B54968  34.518  12.638   6.764
 4270POPC   C3B54969  34.550  12.567   7.064
 4270POPC   C4B54970  34.529  12.586   7.364
 4271POPC   NC354971  32.270  19.830   5.564
 4271POPC   PO454972  32.291  19.794   5.864
 4271POPC   GL154973  32.221  19.845   6.164
 4271POPC   GL254974  32.206  19.919   6.164
 4271POPC   C1A54975  32.203  19.849   6.464
 4271POPC   D2A54976  32.217  19.874   6.764
 4271POPC   C3A54977  32.295  19.812   7.064
 4271POPC   C4A54978  32.270  19.847   7.364
 4271POPC   C1B54979  32.246  20.111   6.464
 4271POPC   C2B54980  32.240  20.075   6.764
 4271POPC   C3B54981  32.159  20.119   7.064
 4271POPC   C4B54982  32.236  20.034   7.364
 4272POPC   NC354983   1.244  19.857   5.564
 4272POPC   PO454984   1.170  19.818   5.864
 4272POPC   GL154985   1.251  19.858   6.164
 4272POPC   GL254986   1.377  19.801   6.164
 4272POPC   C1A54987   1.255  19.798   6.464
 4272POPC   D2A54988   1.169  19.825   6.764
 4272POPC   C3A54989   1.214  19.861   7.064
 4272POPC   C4A54990   1.222  19.857   7.364
 4272POPC   C1B54991   1.415  19.812   6.464
 4272POPC   C2B54992   1.467  19.775   6.764
 4272POPC   C3B54993   1.498  19.790   7.064
 4272POPC   C4B54994   1.483  19.838   7.364
 4273POPC   NC354995  15.207  39.986   5.564
 4273POPC   PO454996  15.178  40.003   5.864
 4273POPC   GL154997  15.144  40.036   6.164
 4273POPC   GL254998  15.025  40.021   6.164
 4273POPC   C1A54999  15.210  39.984   6.464
 4273POPC   D2A55000  15.188  40.002   6.764
 4273POPC   C3A55001  15.219  39.999   7.064
 4273POPC   C4A55002  15.212  39.988   7.364
 4273POPC   C1B55003  14.954  40.049   6.464
 4273POPC   C2B55004  14.919  40.122   6.764
 4273POPC   C3B55005  14.932  40.122   7.064
 4273POPC   C4B55006  14.917  40.053   7.364
 4274POPC   NC355007  21.414   7.391   5.564
 4274POPC   PO455008  21.377   7.426   5.864
 4274POPC   GL155009  21.406   7.409   6.164
 4274POPC   GL255010  21.509   7.350   6.164
 4274POPC   C1A55011  21.376   7.421   6.464
 4274POPC   D2A55012  21.407   7.385   6.764
 4274POPC   C3A55013  21.348   7.463   7.064
 4274POPC   C4A55014  21.340   7.462   7.364
 4274POPC   C1B55015  21.584   7.251   6.464
 4274POPC   C2B55016  21.606   7.220   6.764
 4274POPC   C3B55017  21.522   7.205   7.064
 4274POPC   C4B55018  21.596   7.221   7.364
 4275POPC   NC355019  26.816  39.265   5.564
 4275POPC   PO455020  26.826  39.223   5.864
 4275POPC   GL155021  26.805  39.226   6.164
 4275POPC   GL255022  26.918  39.358   6.164
 4275POPC   C1A55023  26.782  39.200   6.464
 4275POPC   D2A55024  26.771  39.208   6.764
 4275POPC   C3A55025  26.834  39.207   7.064
 4275POPC   C4A55026  26.843  39.188   7.364
 4275POPC   C1B55027  27.000  39.352   6.464
 4275POPC   C2B55028  27.049  39.418   6.764
 4275POPC   C3B55029  27.019  39.428   7.064
 4275POPC   C4B55030  26.978  39.364   7.364
 4276POPC   NC355031  43.109  15.962   5.564
 4276POPC   PO455032  43.118  15.913   5.864
 4276POPC   GL155033  43.147  15.919   6.164
 4276POPC   GL255034  43.178  15.866   6.164
 4276POPC   C1A55035  43.083  15.998   6.464
 4276POPC   D2A55036  43.110  15.946   6.764
 4276POPC   C3A55037  43.060  16.004   7.064
 4276POPC   C4A55038  43.112  15.912   7.364
 4276POPC   C1B55039  43.224  15.687   6.464
 4276POPC   C2B55040  43.188  15.723   6.764
 4276POPC   C3B55041  43.203  15.717   7.064
 4276POPC   C4B55042  43.189  15.734   7.364
 4277POPC   NC355043  40.823  16.775   5.564
 4277POPC   PO455044  40.742  16.690   5.864
 4277POPC   GL155045  40.819  16.721   6.164
 4277POPC   GL255046  40.806  16.613   6.164
 4277POPC   C1A55047  40.833  16.759   6.464
 4277POPC   D2A55048  40.788  16.687   6.764
 4277POPC   C3A55049  40.793  16.738   7.064
 4277POPC   C4A55050  40.737  16.732   7.364
 4277POPC   C1B55051  40.768  16.523   6.464
 4277POPC   C2B55052  40.777  16.454   6.764
 4277POPC   C3B55053  40.769  16.445   7.064
 4277POPC   C4B55054  40.694  16.504   7.364
 4278POPC   NC355055  15.209  43.100   5.564
 4278POPC   PO455056  15.179  43.113   5.864
 4278POPC   GL155057  15.227  43.120   6.164
 4278POPC   GL255058  15.273  43.006   6.164
 4278POPC   C1A55059  15.167  43.122   6.464
 4278POPC   D2A55060  15.199  43.102   6.764
 4278POPC   C3A55061  15.216  43.114   7.064
 4278POPC   C4A55062  15.211  43.158   7.364
 4278POPC   C1B55063  15.363  42.886   6.464
 4278POPC   C2B55064  15.335  42.920   6.764
 4278POPC   C3B55065  15.297  42.857   7.064
 4278POPC   C4B55066  15.280  42.856   7.364
 4279POPC   NC355067  12.842  26.822   5.564
 4279POPC   PO455068  12.879  26.778   5.864
 4279POPC   GL155069  12.900  26.799   6.164
 4279POPC   GL255070  12.958  26.916   6.164
 4279POPC   C1A55071  12.803  26.785   6.464
 4279POPC   D2A55072  12.821  26.796   6.764
 4279POPC   C3A55073  12.804  26.844   7.064
 4279POPC   C4A55074  12.840  26.856   7.364
 4279POPC   C1B55075  13.104  26.978   6.464
 4279POPC   C2B55076  13.063  26.933   6.764
 4279POPC   C3B55077  13.063  26.955   7.064
 4279POPC   C4B55078  13.061  26.980   7.364
 4280POPC   NC355079  43.101  33.012   5.564
 4280POPC   PO455080  43.145  32.985   5.864
 4280POPC   GL155081  43.084  33.065   6.164
 4280POPC   GL255082  43.198  33.102   6.164
 4280POPC   C1A55083  43.085  33.045   6.464
 4280POPC   D2A55084  43.109  32.987   6.764
 4280POPC   C3A55085  43.121  33.019   7.064
 4280POPC   C4A55086  43.081  33.073   7.364
 4280POPC   C1B55087  43.206  33.277   6.464
 4280POPC   C2B55088  43.204  33.248   6.764
 4280POPC   C3B55089  43.177  33.231   7.064
 4280POPC   C4B55090  43.186  33.284   7.364
 4281POPC   NC355091  23.729  10.499   5.564
 4281POPC   PO455092  23.762  10.477   5.864
 4281POPC   GL155093  23.678  10.546   6.164
 4281POPC   GL255094  23.692  10.630   6.164
 4281POPC   C1A55095  23.707  10.570   6.464
 4281POPC   D2A55096  23.683  10.506   6.764
 4281POPC   C3A55097  23.719  10.480   7.064
 4281POPC   C4A55098  23.711  10.535   7.364
 4281POPC   C1B55099  23.576  10.698   6.464
 4281POPC   C2B55100  23.551  10.769   6.764
 4281POPC   C3B55101  23.620  10.730   7.064
 4281POPC   C4B55102  23.575  10.702   7.364
 4282POPC   NC355103  22.125  32.277   5.564
 4282POPC   PO455104  22.112  32.233   5.864
 4282POPC   GL155105  22.171  32.269   6.164
 4282POPC   GL255106  22.169  32.353   6.164
 4282POPC   C1A55107  22.116  32.217   6.464
 4282POPC   D2A55108  22.166  32.241   6.764
 4282POPC   C3A55109  22.144  32.198   7.064
 4282POPC   C4A55110  22.201  32.255   7.364
 4282POPC   C1B55111  22.153  32.449   6.464
 4282POPC   C2B55112  22.136  32.503   6.764
 4282POPC   C3B55113  22.085  32.456   7.064
 4282POPC   C4B55114  22.120  32.463   7.364
 4283POPC   NC355115  18.288  13.588   5.564
 4283POPC   PO455116  18.294  13.668   5.864
 4283POPC   GL155117  18.282  13.667   6.164
 4283POPC   GL255118  18.127  13.740   6.164
 4283POPC   C1A55119  18.296  13.604   6.464
 4283POPC   D2A55120  18.290  13.651   6.764
 4283POPC   C3A55121  18.293  13.620   7.064
 4283POPC   C4A55122  18.299  13.596   7.364
 4283POPC   C1B55123  18.063  13.785   6.464
 4283POPC   C2B55124  18.029  13.784   6.764
 4283POPC   C3B55125  18.040  13.730   7.064
 4283POPC   C4B55126  18.063  13.770   7.364
 4284POPC   NC355127  36.118   1.256   5.564
 4284POPC   PO455128  36.133   1.200   5.864
 4284POPC   GL155129  36.153   1.230   6.164
 4284POPC   GL255130  36.005   1.314   6.164
 4284POPC   C1A55131  36.103   1.216   6.464
 4284POPC   D2A55132  36.115   1.228   6.764
 4284POPC   C3A55133  36.171   1.251   7.064
 4284POPC   C4A55134  36.124   1.238   7.364
 4284POPC   C1B55135  35.941   1.314   6.464
 4284POPC   C2B55136  35.919   1.316   6.764
 4284POPC   C3B55137  35.886   1.332   7.064
 4284POPC   C4B55138  35.932   1.284   7.364
 4285POPC   NC355139  34.601   8.218   5.564
 4285POPC   PO455140  34.528   8.173   5.864
 4285POPC   GL155141  34.597   8.185   6.164
 4285POPC   GL255142  34.592   8.039   6.164
 4285POPC   C1A55143  34.574   8.245   6.464
 4285POPC   D2A55144  34.552   8.233   6.764
 4285POPC   C3A55145  34.592   8.183   7.064
 4285POPC   C4A55146  34.579   8.158   7.364
 4285POPC   C1B55147  34.646   7.994   6.464
 4285POPC   C2B55148  34.578   7.935   6.764
 4285POPC   C3B55149  34.628   7.972   7.064
 4285POPC   C4B55150  34.598   7.899   7.364
 4286POPC   NC355151  32.242  16.774   5.564
 4286POPC   PO455152  32.279  16.764   5.864
 4286POPC   GL155153  32.298  16.778   6.164
 4286POPC   GL255154  32.191  16.895   6.164
 4286POPC   C1A55155  32.207  16.748   6.464
 4286POPC   D2A55156  32.294  16.696   6.764
 4286POPC   C3A55157  32.256  16.768   7.064
 4286POPC   C4A55158  32.205  16.683   7.364
 4286POPC   C1B55159  32.205  16.928   6.464
 4286POPC   C2B55160  32.162  16.929   6.764
 4286POPC   C3B55161  32.187  16.971   7.064
 4286POPC   C4B55162  32.167  16.951   7.364
 4287POPC   NC355163  36.118  14.445   5.564
 4287POPC   PO455164  36.091  14.389   5.864
 4287POPC   GL155165  36.108  14.452   6.164
 4287POPC   GL255166  36.288  14.347   6.164
 4287POPC   C1A55167  36.175  14.420   6.464
 4287POPC   D2A55168  36.162  14.367   6.764
 4287POPC   C3A55169  36.096  14.416   7.064
 4287POPC   C4A55170  36.116  14.403   7.364
 4287POPC   C1B55171  36.332  14.306   6.464
 4287POPC   C2B55172  36.406  14.311   6.764
 4287POPC   C3B55173  36.399  14.287   7.064
 4287POPC   C4B55174  36.332  14.317   7.364
 4288POPC   NC355175  23.689  29.180   5.564
 4288POPC   PO455176  23.731  29.106   5.864
 4288POPC   GL155177  23.696  29.144   6.164
 4288POPC   GL255178  23.744  29.021   6.164
 4288POPC   C1A55179  23.762  29.114   6.464
 4288POPC   D2A55180  23.697  29.175   6.764
 4288POPC   C3A55181  23.717  29.111   7.064
 4288POPC   C4A55182  23.683  29.144   7.364
 4288POPC   C1B55183  23.870  28.927   6.464
 4288POPC   C2B55184  23.810  28.897   6.764
 4288POPC   C3B55185  23.822  28.924   7.064
 4288POPC   C4B55186  23.798  28.884   7.364
 4289POPC   NC355187   7.417  41.595   5.564
 4289POPC   PO455188   7.468  41.558   5.864
 4289POPC   GL155189   7.469  41.607   6.164
 4289POPC   GL255190   7.307  41.628   6.164
 4289POPC   C1A55191   7.437  41.561   6.464
 4289POPC   D2A55192   7.407  41.569   6.764
 4289POPC   C3A55193   7.379  41.609   7.064
 4289POPC   C4A55194   7.456  41.520   7.364
 4289POPC   C1B55195   7.216  41.677   6.464
 4289POPC   C2B55196   7.262  41.710   6.764
 4289POPC   C3B55197   7.224  41.702   7.064
 4289POPC   C4B55198   7.225  41.719   7.364
 4290POPC   NC355199  15.961  29.907   5.564
 4290POPC   PO455200  15.962  29.949   5.864
 4290POPC   GL155201  16.003  29.883   6.164
 4290POPC   GL255202  15.928  29.806   6.164
 4290POPC   C1A55203  15.952  29.946   6.464
 4290POPC   D2A55204  15.969  29.907   6.764
 4290POPC   C3A55205  15.992  29.921   7.064
 4290POPC   C4A55206  15.922  29.943   7.364
 4290POPC   C1B55207  15.910  29.707   6.464
 4290POPC   C2B55208  15.883  29.712   6.764
 4290POPC   C3B55209  15.953  29.657   7.064
 4290POPC   C4B55210  15.908  29.657   7.364
 4291POPC   NC355211  29.108  28.359   5.564
 4291POPC   PO455212  29.161  28.363   5.864
 4291POPC   GL155213  29.161  28.393   6.164
 4291POPC   GL255214  29.126  28.281   6.164
 4291POPC   C1A55215  29.141  28.330   6.464
 4291POPC   D2A55216  29.137  28.416   6.764
 4291POPC   C3A55217  29.173  28.320   7.064
 4291POPC   C4A55218  29.117  28.391   7.364
 4291POPC   C1B55219  29.088  28.083   6.464
 4291POPC   C2B55220  29.096  28.166   6.764
 4291POPC   C3B55221  29.080  28.164   7.064
 4291POPC   C4B55222  29.102  28.114   7.364
 4292POPC   NC355223   0.427  26.804   5.564
 4292POPC   PO455224   0.426  26.841   5.864
 4292POPC   GL155225   0.445  26.864   6.164
 4292POPC   GL255226   0.400  26.967   6.164
 4292POPC   C1A55227   0.434  26.849   6.464
 4292POPC   D2A55228   0.485  26.781   6.764
 4292POPC   C3A55229   0.453  26.825   7.064
 4292POPC   C4A55230   0.444  26.831   7.364
 4292POPC   C1B55231   0.331  27.023   6.464
 4292POPC   C2B55232   0.329  27.009   6.764
 4292POPC   C3B55233   0.326  27.032   7.064
 4292POPC   C4B55234   0.322  27.014   7.364
 4293POPC   NC355235  42.342  43.842   5.564
 4293POPC   PO455236  42.365  43.836   5.864
 4293POPC   GL155237  42.295  43.934   6.164
 4293POPC   GL255238  42.330  43.997   6.164
 4293POPC   C1A55239  42.289  43.933   6.464
 4293POPC   D2A55240  42.352  43.873   6.764
 4293POPC   C3A55241  42.333  43.914   7.064
 4293POPC   C4A55242  42.369  43.855   7.364
 4293POPC   C1B55243  42.311  44.113   6.464
 4293POPC   C2B55244  42.345  44.086   6.764
 4293POPC   C3B55245  42.340  44.178   7.064
 4293POPC   C4B55246  42.285  44.106   7.364
 4294POPC   NC355247  41.519  20.576   5.564
 4294POPC   PO455248  41.509  20.603   5.864
 4294POPC   GL155249  41.547  20.569   6.164
 4294POPC   GL255250  41.637  20.655   6.164
 4294POPC   C1A55251  41.603  20.656   6.464
 4294POPC   D2A55252  41.536  20.582   6.764
 4294POPC   C3A55253  41.526  20.581   7.064
 4294POPC   C4A55254  41.563  20.614   7.364
 4294POPC   C1B55255  41.788  20.744   6.464
 4294POPC   C2B55256  41.752  20.820   6.764
 4294POPC   C3B55257  41.711  20.821   7.064
 4294POPC   C4B55258  41.749  20.763   7.364
 4295POPC   NC355259  18.243   9.728   5.564
 4295POPC   PO455260  18.313   9.774   5.864
 4295POPC   GL155261  18.321   9.716   6.164
 4295POPC   GL255262  18.242   9.811   6.164
 4295POPC   C1A55263  18.280   9.757   6.464
 4295POPC   D2A55264  18.331   9.743   6.764
 4295POPC   C3A55265  18.302   9.775   7.064
 4295POPC   C4A55266  18.282   9.718   7.364
 4295POPC   C1B55267  18.114  10.003   6.464
 4295POPC   C2B55268  18.162  10.013   6.764
 4295POPC   C3B55269  18.191   9.927   7.064
 4295POPC   C4B55270  18.126   9.981   7.364
 4296POPC   NC355271   6.615  32.976   5.564
 4296POPC   PO455272   6.636  32.993   5.864
 4296POPC   GL155273   6.662  33.061   6.164
 4296POPC   GL255274   6.499  33.022   6.164
 4296POPC   C1A55275   6.651  32.996   6.464
 4296POPC   D2A55276   6.613  32.987   6.764
 4296POPC   C3A55277   6.634  33.002   7.064
 4296POPC   C4A55278   6.665  33.000   7.364
 4296POPC   C1B55279   6.410  32.973   6.464
 4296POPC   C2B55280   6.410  33.037   6.764
 4296POPC   C3B55281   6.387  32.996   7.064
 4296POPC   C4B55282   6.375  32.973   7.364
 4297POPC   NC355283   1.260  18.324   5.564
 4297POPC   PO455284   1.165  18.234   5.864
 4297POPC   GL155285   1.211  18.250   6.164
 4297POPC   GL255286   1.091  18.375   6.164
 4297POPC   C1A55287   1.232  18.315   6.464
 4297POPC   D2A55288   1.187  18.296   6.764
 4297POPC   C3A55289   1.170  18.259   7.064
 4297POPC   C4A55290   1.244  18.244   7.364
 4297POPC   C1B55291   0.987  18.493   6.464
 4297POPC   C2B55292   1.057  18.426   6.764
 4297POPC   C3B55293   1.014  18.433   7.064
 4297POPC   C4B55294   1.051  18.466   7.364
 4298POPC   NC355295  42.297   8.176   5.564
 4298POPC   PO455296  42.327   8.164   5.864
 4298POPC   GL155297  42.379   8.245   6.164
 4298POPC   GL255298  42.449   8.066   6.164
 4298POPC   C1A55299  42.366   8.167   6.464
 4298POPC   D2A55300  42.337   8.199   6.764
 4298POPC   C3A55301  42.292   8.168   7.064
 4298POPC   C4A55302  42.353   8.244   7.364
 4298POPC   C1B55303  42.437   7.975   6.464
 4298POPC   C2B55304  42.437   7.980   6.764
 4298POPC   C3B55305  42.508   7.999   7.064
 4298POPC   C4B55306  42.444   7.951   7.364
 4299POPC   NC355307  43.108  36.944   5.564
 4299POPC   PO455308  43.141  36.864   5.864
 4299POPC   GL155309  43.155  36.856   6.164
 4299POPC   GL255310  43.044  36.995   6.164
 4299POPC   C1A55311  43.123  36.867   6.464
 4299POPC   D2A55312  43.146  36.879   6.764
 4299POPC   C3A55313  43.132  36.886   7.064
 4299POPC   C4A55314  43.116  36.906   7.364
 4299POPC   C1B55315  43.079  37.168   6.464
 4299POPC   C2B55316  43.088  37.154   6.764
 4299POPC   C3B55317  43.097  37.138   7.064
 4299POPC   C4B55318  43.033  37.194   7.364
 4300POPC   NC355319  16.004  32.230   5.564
 4300POPC   PO455320  15.972  32.202   5.864
 4300POPC   GL155321  15.918  32.231   6.164
 4300POPC   GL255322  15.835  32.349   6.164
 4300POPC   C1A55323  15.921  32.265   6.464
 4300POPC   D2A55324  15.916  32.219   6.764
 4300POPC   C3A55325  15.999  32.237   7.064
 4300POPC   C4A55326  15.962  32.273   7.364
 4300POPC   C1B55327  15.739  32.411   6.464
 4300POPC   C2B55328  15.711  32.333   6.764
 4300POPC   C3B55329  15.745  32.395   7.064
 4300POPC   C4B55330  15.764  32.423   7.364
 4301POPC   NC355331  17.542  12.042   5.564
 4301POPC   PO455332  17.520  12.092   5.864
 4301POPC   GL155333  17.513  12.093   6.164
 4301POPC   GL255334  17.407  12.048   6.164
 4301POPC   C1A55335  17.512  12.063   6.464
 4301POPC   D2A55336  17.484  12.121   6.764
 4301POPC   C3A55337  17.534  12.064   7.064
 4301POPC   C4A55338  17.460  12.029   7.364
 4301POPC   C1B55339  17.222  11.997   6.464
 4301POPC   C2B55340  17.266  12.042   6.764
 4301POPC   C3B55341  17.239  12.011   7.064
 4301POPC   C4B55342  17.234  12.016   7.364
 4302POPC   NC355343  34.533   4.352   5.564
 4302POPC   PO455344  34.567   4.326   5.864
 4302POPC   GL155345  34.541   4.349   6.164
 4302POPC   GL255346  34.541   4.428   6.164
 4302POPC   C1A55347  34.543   4.292   6.464
 4302POPC   D2A55348  34.609   4.301   6.764
 4302POPC   C3A55349  34.611   4.273   7.064
 4302POPC   C4A55350  34.548   4.352   7.364
 4302POPC   C1B55351  34.434   4.518   6.464
 4302POPC   C2B55352  34.442   4.536   6.764
 4302POPC   C3B55353  34.423   4.565   7.064
 4302POPC   C4B55354  34.443   4.536   7.364
 4303POPC   NC355355  20.598  11.330   5.564
 4303POPC   PO455356  20.621  11.343   5.864
 4303POPC   GL155357  20.656  11.327   6.164
 4303POPC   GL255358  20.717  11.356   6.164
 4303POPC   C1A55359  20.644  11.319   6.464
 4303POPC   D2A55360  20.659  11.339   6.764
 4303POPC   C3A55361  20.656  11.261   7.064
 4303POPC   C4A55362  20.655  11.316   7.364
 4303POPC   C1B55363  20.693  11.538   6.464
 4303POPC   C2B55364  20.708  11.543   6.764
 4303POPC   C3B55365  20.776  11.517   7.064
 4303POPC   C4B55366  20.708  11.554   7.364
 4304POPC   NC355367  15.918  43.063   5.564
 4304POPC   PO455368  15.922  43.124   5.864
 4304POPC   GL155369  15.979  43.159   6.164
 4304POPC   GL255370  15.862  43.093   6.164
 4304POPC   C1A55371  15.971  43.069   6.464
 4304POPC   D2A55372  15.928  43.133   6.764
 4304POPC   C3A55373  15.937  43.087   7.064
 4304POPC   C4A55374  15.990  43.121   7.364
 4304POPC   C1B55375  15.782  42.970   6.464
 4304POPC   C2B55376  15.723  42.963   6.764
 4304POPC   C3B55377  15.699  42.972   7.064
 4304POPC   C4B55378  15.740  43.031   7.364
 4305POPC   NC355379  43.883  12.842   5.564
 4305POPC   PO455380  43.922  12.805   5.864
 4305POPC   GL155381  43.916  12.857   6.164
 4305POPC   GL255382  43.739  12.861   6.164
 4305POPC   C1A55383  43.837  12.854   6.464
 4305POPC   D2A55384  43.936  12.890   6.764
 4305POPC   C3A55385  43.911  12.804   7.064
 4305POPC   C4A55386  43.888  12.894   7.364
 4305POPC   C1B55387  43.696  12.922   6.464
 4305POPC   C2B55388  43.636  12.915   6.764
 4305POPC   C3B55389  43.662  12.948   7.064
 4305POPC   C4B55390  43.642  12.984   7.364
 4306POPC   NC355391  40.055  15.219   5.564
 4306POPC   PO455392  40.027  15.211   5.864
 4306POPC   GL155393  40.016  15.212   6.164
 4306POPC   GL255394  40.048  15.019   6.164
 4306POPC   C1A55395  40.012  15.186   6.464
 4306POPC   D2A55396  40.043  15.198   6.764
 4306POPC   C3A55397  39.972  15.190   7.064
 4306POPC   C4A55398  39.962  15.182   7.364
 4306POPC   C1B55399  40.039  14.917   6.464
 4306POPC   C2B55400  39.971  14.892   6.764
 4306POPC   C3B55401  40.019  14.922   7.064
 4306POPC   C4B55402  39.988  14.886   7.364
 4307POPC   NC355403  22.205  26.795   5.564
 4307POPC   PO455404  22.202  26.860   5.864
 4307POPC   GL155405  22.122  26.790   6.164
 4307POPC   GL255406  22.236  26.772   6.164
 4307POPC   C1A55407  22.209  26.859   6.464
 4307POPC   D2A55408  22.184  26.836   6.764
 4307POPC   C3A55409  22.119  26.867   7.064
 4307POPC   C4A55410  22.124  26.784   7.364
 4307POPC   C1B55411  22.320  26.703   6.464
 4307POPC   C2B55412  22.369  26.619   6.764
 4307POPC   C3B55413  22.343  26.702   7.064
 4307POPC   C4B55414  22.380  26.681   7.364
 4308POPC   NC355415  29.131  17.528   5.564
 4308POPC   PO455416  29.136  17.510   5.864
 4308POPC   GL155417  29.188  17.464   6.164
 4308POPC   GL255418  29.296  17.499   6.164
 4308POPC   C1A55419  29.151  17.515   6.464
 4308POPC   D2A55420  29.149  17.466   6.764
 4308POPC   C3A55421  29.144  17.537   7.064
 4308POPC   C4A55422  29.172  17.491   7.364
 4308POPC   C1B55423  29.413  17.508   6.464
 4308POPC   C2B55424  29.387  17.513   6.764
 4308POPC   C3B55425  29.410  17.491   7.064
 4308POPC   C4B55426  29.387  17.569   7.364
 4309POPC   NC355427  43.071  44.675   5.564
 4309POPC   PO455428  43.075  44.679   5.864
 4309POPC   GL155429  43.130  44.701   6.164
 4309POPC   GL255430  42.982  44.578   6.164
 4309POPC   C1A55431  43.094  44.664   6.464
 4309POPC   D2A55432  43.075  44.617   6.764
 4309POPC   C3A55433  43.121  44.705   7.064
 4309POPC   C4A55434  43.152  44.660   7.364
 4309POPC   C1B55435  42.923  44.511   6.464
 4309POPC   C2B55436  42.886  44.461   6.764
 4309POPC   C3B55437  42.921  44.529   7.064
 4309POPC   C4B55438  42.976  44.485   7.364
 4310POPC   NC355439  24.455  38.468   5.564
 4310POPC   PO455440  24.524  38.474   5.864
 4310POPC   GL155441  24.536  38.420   6.164
 4310POPC   GL255442  24.569  38.485   6.164
 4310POPC   C1A55443  24.492  38.493   6.464
 4310POPC   D2A55444  24.461  38.415   6.764
 4310POPC   C3A55445  24.453  38.476   7.064
 4310POPC   C4A55446  24.494  38.459   7.364
 4310POPC   C1B55447  24.755  38.563   6.464
 4310POPC   C2B55448  24.738  38.527   6.764
 4310POPC   C3B55449  24.713  38.554   7.064
 4310POPC   C4B55450  24.711  38.514   7.364
 4311POPC   NC355451   0.441  13.667   5.564
 4311POPC   PO455452   0.456  13.642   5.864
 4311POPC   GL155453   0.392  13.669   6.164
 4311POPC   GL255454   0.583  13.592   6.164
 4311POPC   C1A55455   0.476  13.668   6.464
 4311POPC   D2A55456   0.485  13.664   6.764
 4311POPC   C3A55457   0.420  13.579   7.064
 4311POPC   C4A55458   0.463  13.675   7.364
 4311POPC   C1B55459   0.735  13.630   6.464
 4311POPC   C2B55460   0.717  13.565   6.764
 4311POPC   C3B55461   0.667  13.595   7.064
 4311POPC   C4B55462   0.643  13.589   7.364
 4312POPC   NC355463   6.636  34.596   5.564
 4312POPC   PO455464   6.609  34.618   5.864
 4312POPC   GL155465   6.689  34.535   6.164
 4312POPC   GL255466   6.588  34.700   6.164
 4312POPC   C1A55467   6.645  34.544   6.464
 4312POPC   D2A55468   6.623  34.542   6.764
 4312POPC   C3A55469   6.668  34.598   7.064
 4312POPC   C4A55470   6.605  34.611   7.364
 4312POPC   C1B55471   6.511  34.784   6.464
 4312POPC   C2B55472   6.507  34.711   6.764
 4312POPC   C3B55473   6.490  34.741   7.064
 4312POPC   C4B55474   6.466  34.733   7.364
 4313POPC   NC355475  32.278   4.281   5.564
 4313POPC   PO455476  32.244   4.303   5.864
 4313POPC   GL155477  32.231   4.271   6.164
 4313POPC   GL255478  32.157   4.394   6.164
 4313POPC   C1A55479  32.270   4.344   6.464
 4313POPC   D2A55480  32.272   4.355   6.764
 4313POPC   C3A55481  32.264   4.326   7.064
 4313POPC   C4A55482  32.261   4.309   7.364
 4313POPC   C1B55483  32.079   4.439   6.464
 4313POPC   C2B55484  32.083   4.450   6.764
 4313POPC   C3B55485  32.092   4.426   7.064
 4313POPC   C4B55486  32.064   4.469   7.364
 4314POPC   NC355487   7.433   2.037   5.564
 4314POPC   PO455488   7.388   1.999   5.864
 4314POPC   GL155489   7.407   1.973   6.164
 4314POPC   GL255490   7.328   2.028   6.164
 4314POPC   C1A55491   7.391   2.009   6.464
 4314POPC   D2A55492   7.383   2.024   6.764
 4314POPC   C3A55493   7.420   1.946   7.064
 4314POPC   C4A55494   7.427   2.005   7.364
 4314POPC   C1B55495   7.243   2.128   6.464
 4314POPC   C2B55496   7.175   2.090   6.764
 4314POPC   C3B55497   7.219   2.088   7.064
 4314POPC   C4B55498   7.206   2.122   7.364
 4315POPC   NC355499  38.462   8.244   5.564
 4315POPC   PO455500  38.441   8.177   5.864
 4315POPC   GL155501  38.467   8.187   6.164
 4315POPC   GL255502  38.427   8.296   6.164
 4315POPC   C1A55503  38.418   8.182   6.464
 4315POPC   D2A55504  38.419   8.154   6.764
 4315POPC   C3A55505  38.415   8.192   7.064
 4315POPC   C4A55506  38.433   8.152   7.364
 4315POPC   C1B55507  38.457   8.475   6.464
 4315POPC   C2B55508  38.448   8.439   6.764
 4315POPC   C3B55509  38.412   8.450   7.064
 4315POPC   C4B55510  38.446   8.399   7.364
 4316POPC   NC355511  14.417  33.043   5.564
 4316POPC   PO455512  14.448  33.058   5.864
 4316POPC   GL155513  14.354  33.060   6.164
 4316POPC   GL255514  14.540  32.983   6.164
 4316POPC   C1A55515  14.428  33.064   6.464
 4316POPC   D2A55516  14.429  32.987   6.764
 4316POPC   C3A55517  14.396  33.044   7.064
 4316POPC   C4A55518  14.422  33.042   7.364
 4316POPC   C1B55519  14.639  32.925   6.464
 4316POPC   C2B55520  14.606  32.920   6.764
 4316POPC   C3B55521  14.621  32.977   7.064
 4316POPC   C4B55522  14.635  32.979   7.364
 4317POPC   NC355523  29.959  15.156   5.564
 4317POPC   PO455524  29.904  15.190   5.864
 4317POPC   GL155525  29.917  15.182   6.164
 4317POPC   GL255526  30.076  15.189   6.164
 4317POPC   C1A55527  29.874  15.212   6.464
 4317POPC   D2A55528  29.898  15.204   6.764
 4317POPC   C3A55529  29.934  15.198   7.064
 4317POPC   C4A55530  29.951  15.186   7.364
 4317POPC   C1B55531  30.201  15.242   6.464
 4317POPC   C2B55532  30.152  15.186   6.764
 4317POPC   C3B55533  30.169  15.249   7.064
 4317POPC   C4B55534  30.152  15.258   7.364
 4318POPC   NC355535  33.056  35.339   5.564
 4318POPC   PO455536  33.066  35.401   5.864
 4318POPC   GL155537  33.001  35.361   6.164
 4318POPC   GL255538  32.941  35.450   6.164
 4318POPC   C1A55539  33.034  35.366   6.464
 4318POPC   D2A55540  33.001  35.321   6.764
 4318POPC   C3A55541  33.070  35.380   7.064
 4318POPC   C4A55542  33.014  35.307   7.364
 4318POPC   C1B55543  32.774  35.528   6.464
 4318POPC   C2B55544  32.786  35.526   6.764
 4318POPC   C3B55545  32.771  35.507   7.064
 4318POPC   C4B55546  32.772  35.475   7.364
 4319POPC   NC355547  28.395  20.619   5.564
 4319POPC   PO455548  28.391  20.653   5.864
 4319POPC   GL155549  28.380  20.574   6.164
 4319POPC   GL255550  28.309  20.545   6.164
 4319POPC   C1A55551  28.396  20.617   6.464
 4319POPC   D2A55552  28.338  20.618   6.764
 4319POPC   C3A55553  28.337  20.576   7.064
 4319POPC   C4A55554  28.324  20.593   7.364
 4319POPC   C1B55555  28.129  20.476   6.464
 4319POPC   C2B55556  28.132  20.454   6.764
 4319POPC   C3B55557  28.141  20.458   7.064
 4319POPC   C4B55558  28.219  20.440   7.364
 4320POPC   NC355559  39.275  29.151   5.564
 4320POPC   PO455560  39.210  29.164   5.864
 4320POPC   GL155561  39.194  29.100   6.164
 4320POPC   GL255562  39.173  29.249   6.164
 4320POPC   C1A55563  39.183  29.186   6.464
 4320POPC   D2A55564  39.277  29.194   6.764
 4320POPC   C3A55565  39.254  29.150   7.064
 4320POPC   C4A55566  39.211  29.131   7.364
 4320POPC   C1B55567  39.079  29.284   6.464
 4320POPC   C2B55568  39.016  29.312   6.764
 4320POPC   C3B55569  39.052  29.288   7.064
 4320POPC   C4B55570  39.001  29.328   7.364
 4321POPC   NC355571  22.940  22.158   5.564
 4321POPC   PO455572  22.966  22.123   5.864
 4321POPC   GL155573  22.962  22.121   6.164
 4321POPC   GL255574  22.989  22.084   6.164
 4321POPC   C1A55575  22.957  22.176   6.464
 4321POPC   D2A55576  22.912  22.153   6.764
 4321POPC   C3A55577  22.972  22.115   7.064
 4321POPC   C4A55578  22.941  22.144   7.364
 4321POPC   C1B55579  23.110  21.965   6.464
 4321POPC   C2B55580  23.083  21.965   6.764
 4321POPC   C3B55581  23.061  21.957   7.064
 4321POPC   C4B55582  23.067  21.939   7.364
 4322POPC   NC355583  16.779  43.070   5.564
 4322POPC   PO455584  16.741  43.149   5.864
 4322POPC   GL155585  16.773  43.077   6.164
 4322POPC   GL255586  16.831  43.166   6.164
 4322POPC   C1A55587  16.719  43.127   6.464
 4322POPC   D2A55588  16.688  43.145   6.764
 4322POPC   C3A55589  16.768  43.142   7.064
 4322POPC   C4A55590  16.720  43.137   7.364
 4322POPC   C1B55591  16.945  43.283   6.464
 4322POPC   C2B55592  16.978  43.250   6.764
 4322POPC   C3B55593  16.957  43.252   7.064
 4322POPC   C4B55594  16.929  43.287   7.364
 4323POPC   NC355595  19.824   7.457   5.564
 4323POPC   PO455596  19.815   7.449   5.864
 4323POPC   GL155597  19.882   7.403   6.164
 4323POPC   GL255598  19.869   7.595   6.164
 4323POPC   C1A55599  19.828   7.435   6.464
 4323POPC   D2A55600  19.799   7.400   6.764
 4323POPC   C3A55601  19.856   7.420   7.064
 4323POPC   C4A55602  19.833   7.470   7.364
 4323POPC   C1B55603  19.830   7.696   6.464
 4323POPC   C2B55604  19.895   7.647   6.764
 4323POPC   C3B55605  19.848   7.685   7.064
 4323POPC   C4B55606  19.838   7.691   7.364
 4324POPC   NC355607  28.391   3.556   5.564
 4324POPC   PO455608  28.341   3.535   5.864
 4324POPC   GL155609  28.369   3.512   6.164
 4324POPC   GL255610  28.505   3.525   6.164
 4324POPC   C1A55611  28.355   3.541   6.464
 4324POPC   D2A55612  28.401   3.494   6.764
 4324POPC   C3A55613  28.353   3.495   7.064
 4324POPC   C4A55614  28.359   3.565   7.364
 4324POPC   C1B55615  28.573   3.428   6.464
 4324POPC   C2B55616  28.590   3.455   6.764
 4324POPC   C3B55617  28.595   3.420   7.064
 4324POPC   C4B55618  28.592   3.462   7.364
 4325POPC   NC355619  30.744  14.425   5.564
 4325POPC   PO455620  30.666  14.443   5.864
 4325POPC   GL155621  30.734  14.433   6.164
 4325POPC   GL255622  30.606  14.298   6.164
 4325POPC   C1A55623  30.733  14.440   6.464
 4325POPC   D2A55624  30.726  14.395   6.764
 4325POPC   C3A55625  30.647  14.408   7.064
 4325POPC   C4A55626  30.671  14.361   7.364
 4325POPC   C1B55627  30.540  14.239   6.464
 4325POPC   C2B55628  30.512  14.144   6.764
 4325POPC   C3B55629  30.530  14.205   7.064
 4325POPC   C4B55630  30.539  14.200   7.364
 4326POPC   NC355631  14.395  12.871   5.564
 4326POPC   PO455632  14.414  12.845   5.864
 4326POPC   GL155633  14.378  12.861   6.164
 4326POPC   GL255634  14.519  12.854   6.164
 4326POPC   C1A55635  14.369  12.855   6.464
 4326POPC   D2A55636  14.452  12.879   6.764
 4326POPC   C3A55637  14.440  12.884   7.064
 4326POPC   C4A55638  14.393  12.805   7.364
 4326POPC   C1B55639  14.680  12.888   6.464
 4326POPC   C2B55640  14.687  12.883   6.764
 4326POPC   C3B55641  14.634  12.895   7.064
 4326POPC   C4B55642  14.674  12.947   7.364
 4327POPC   NC355643   8.213  26.843   5.564
 4327POPC   PO455644   8.222  26.865   5.864
 4327POPC   GL155645   8.218  26.782   6.164
 4327POPC   GL255646   8.120  26.750   6.164
 4327POPC   C1A55647   8.240  26.771   6.464
 4327POPC   D2A55648   8.160  26.850   6.764
 4327POPC   C3A55649   8.210  26.805   7.064
 4327POPC   C4A55650   8.157  26.859   7.364
 4327POPC   C1B55651   8.014  26.562   6.464
 4327POPC   C2B55652   8.029  26.646   6.764
 4327POPC   C3B55653   8.092  26.634   7.064
 4327POPC   C4B55654   8.036  26.567   7.364
 4328POPC   NC355655   4.332   5.074   5.564
 4328POPC   PO455656   4.363   5.089   5.864
 4328POPC   GL155657   4.350   5.115   6.164
 4328POPC   GL255658   4.286   5.008   6.164
 4328POPC   C1A55659   4.358   5.059   6.464
 4328POPC   D2A55660   4.270   5.051   6.764
 4328POPC   C3A55661   4.273   5.053   7.064
 4328POPC   C4A55662   4.275   5.132   7.364
 4328POPC   C1B55663   4.301   4.819   6.464
 4328POPC   C2B55664   4.325   4.887   6.764
 4328POPC   C3B55665   4.353   4.809   7.064
 4328POPC   C4B55666   4.333   4.806   7.364
 4329POPC   NC355667  38.414   6.668   5.564
 4329POPC   PO455668  38.472   6.694   5.864
 4329POPC   GL155669  38.411   6.671   6.164
 4329POPC   GL255670  38.482   6.563   6.164
 4329POPC   C1A55671  38.456   6.620   6.464
 4329POPC   D2A55672  38.408   6.628   6.764
 4329POPC   C3A55673  38.477   6.609   7.064
 4329POPC   C4A55674  38.456   6.640   7.364
 4329POPC   C1B55675  38.560   6.454   6.464
 4329POPC   C2B55676  38.515   6.395   6.764
 4329POPC   C3B55677  38.528   6.389   7.064
 4329POPC   C4B55678  38.524   6.436   7.364
 4330POPC   NC355679  40.740  20.649   5.564
 4330POPC   PO455680  40.796  20.608   5.864
 4330POPC   GL155681  40.753  20.607   6.164
 4330POPC   GL255682  40.627  20.613   6.164
 4330POPC   C1A55683  40.806  20.620   6.464
 4330POPC   D2A55684  40.812  20.614   6.764
 4330POPC   C3A55685  40.793  20.586   7.064
 4330POPC   C4A55686  40.811  20.644   7.364
 4330POPC   C1B55687  40.552  20.613   6.464
 4330POPC   C2B55688  40.571  20.627   6.764
 4330POPC   C3B55689  40.571  20.692   7.064
 4330POPC   C4B55690  40.563  20.631   7.364
 4331POPC   NC355691  12.114  40.758   5.564
 4331POPC   PO455692  12.032  40.794   5.864
 4331POPC   GL155693  12.042  40.748   6.164
 4331POPC   GL255694  11.973  40.725   6.164
 4331POPC   C1A55695  12.107  40.804   6.464
 4331POPC   D2A55696  12.081  40.735   6.764
 4331POPC   C3A55697  12.120  40.805   7.064
 4331POPC   C4A55698  12.105  40.805   7.364
 4331POPC   C1B55699  11.909  40.577   6.464
 4331POPC   C2B55700  11.898  40.612   6.764
 4331POPC   C3B55701  11.943  40.620   7.064
 4331POPC   C4B55702  11.900  40.607   7.364
 4332POPC   NC355703  26.771   9.001   5.564
 4332POPC   PO455704  26.794   8.939   5.864
 4332POPC   GL155705  26.792   8.943   6.164
 4332POPC   GL255706  26.810   9.081   6.164
 4332POPC   C1A55707  26.843   8.994   6.464
 4332POPC   D2A55708  26.823   8.946   6.764
 4332POPC   C3A55709  26.805   9.006   7.064
 4332POPC   C4A55710  26.822   8.979   7.364
 4332POPC   C1B55711  26.839   9.178   6.464
 4332POPC   C2B55712  26.839   9.216   6.764
 4332POPC   C3B55713  26.892   9.185   7.064
 4332POPC   C4B55714  26.836   9.230   7.364
 4333POPC   NC355715   9.786  26.053   5.564
 4333POPC   PO455716   9.788  26.037   5.864
 4333POPC   GL155717   9.752  26.078   6.164
 4333POPC   GL255718   9.664  25.976   6.164
 4333POPC   C1A55719   9.791  26.022   6.464
 4333POPC   D2A55720   9.712  26.007   6.764
 4333POPC   C3A55721   9.775  26.044   7.064
 4333POPC   C4A55722   9.795  26.071   7.364
 4333POPC   C1B55723   9.628  25.784   6.464
 4333POPC   C2B55724   9.589  25.852   6.764
 4333POPC   C3B55725   9.676  25.848   7.064
 4333POPC   C4B55726   9.656  25.845   7.364
 4334POPC   NC355727  28.340  12.884   5.564
 4334POPC   PO455728  28.393  12.892   5.864
 4334POPC   GL155729  28.350  12.880   6.164
 4334POPC   GL255730  28.433  12.979   6.164
 4334POPC   C1A55731  28.337  12.842   6.464
 4334POPC   D2A55732  28.334  12.839   6.764
 4334POPC   C3A55733  28.410  12.814   7.064
 4334POPC   C4A55734  28.399  12.861   7.364
 4334POPC   C1B55735  28.529  13.038   6.464
 4334POPC   C2B55736  28.550  13.037   6.764
 4334POPC   C3B55737  28.557  12.985   7.064
 4334POPC   C4B55738  28.522  12.985   7.364
 4335POPC   NC355739  14.449  37.647   5.564
 4335POPC   PO455740  14.388  37.641   5.864
 4335POPC   GL155741  14.406  37.648   6.164
 4335POPC   GL255742  14.255  37.760   6.164
 4335POPC   C1A55743  14.389  37.690   6.464
 4335POPC   D2A55744  14.429  37.693   6.764
 4335POPC   C3A55745  14.448  37.728   7.064
 4335POPC   C4A55746  14.434  37.652   7.364
 4335POPC   C1B55747  14.188  37.809   6.464
 4335POPC   C2B55748  14.159  37.818   6.764
 4335POPC   C3B55749  14.211  37.804   7.064
 4335POPC   C4B55750  14.171  37.831   7.364
 4336POPC   NC355751  31.512  21.400   5.564
 4336POPC   PO455752  31.434  21.361   5.864
 4336POPC   GL155753  31.517  21.374   6.164
 4336POPC   GL255754  31.499  21.291   6.164
 4336POPC   C1A55755  31.461  21.432   6.464
 4336POPC   D2A55756  31.456  21.348   6.764
 4336POPC   C3A55757  31.468  21.409   7.064
 4336POPC   C4A55758  31.522  21.434   7.364
 4336POPC   C1B55759  31.526  21.166   6.464
 4336POPC   C2B55760  31.565  21.184   6.764
 4336POPC   C3B55761  31.605  21.182   7.064
 4336POPC   C4B55762  31.582  21.160   7.364
 4337POPC   NC355763  36.944  42.373   5.564
 4337POPC   PO455764  36.933  42.372   5.864
 4337POPC   GL155765  36.919  42.306   6.164
 4337POPC   GL255766  36.811  42.461   6.164
 4337POPC   C1A55767  36.925  42.354   6.464
 4337POPC   D2A55768  36.878  42.306   6.764
 4337POPC   C3A55769  36.907  42.301   7.064
 4337POPC   C4A55770  36.863  42.290   7.364
 4337POPC   C1B55771  36.774  42.503   6.464
 4337POPC   C2B55772  36.707  42.534   6.764
 4337POPC   C3B55773  36.766  42.532   7.064
 4337POPC   C4B55774  36.693  42.531   7.364
 4338POPC   NC355775  19.025  36.940   5.564
 4338POPC   PO455776  19.015  36.890   5.864
 4338POPC   GL155777  19.010  36.902   6.164
 4338POPC   GL255778  19.016  36.827   6.164
 4338POPC   C1A55779  19.054  36.938   6.464
 4338POPC   D2A55780  19.072  36.927   6.764
 4338POPC   C3A55781  19.019  36.873   7.064
 4338POPC   C4A55782  19.040  36.922   7.364
 4338POPC   C1B55783  18.978  36.621   6.464
 4338POPC   C2B55784  18.975  36.667   6.764
 4338POPC   C3B55785  18.947  36.714   7.064
 4338POPC   C4B55786  18.970  36.625   7.364
 4339POPC   NC355787   2.013  20.637   5.564
 4339POPC   PO455788   2.033  20.600   5.864
 4339POPC   GL155789   1.952  20.654   6.164
 4339POPC   GL255790   1.864  20.712   6.164
 4339POPC   C1A55791   2.002  20.579   6.464
 4339POPC   D2A55792   2.000  20.641   6.764
 4339POPC   C3A55793   1.990  20.597   7.064
 4339POPC   C4A55794   1.970  20.641   7.364
 4339POPC   C1B55795   1.825  20.755   6.464
 4339POPC   C2B55796   1.738  20.772   6.764
 4339POPC   C3B55797   1.823  20.739   7.064
 4339POPC   C4B55798   1.820  20.799   7.364
 4340POPC   NC355799  39.236  26.810   5.564
 4340POPC   PO455800  39.189  26.775   5.864
 4340POPC   GL155801  39.241  26.778   6.164
 4340POPC   GL255802  39.286  26.708   6.164
 4340POPC   C1A55803  39.258  26.841   6.464
 4340POPC   D2A55804  39.221  26.825   6.764
 4340POPC   C3A55805  39.279  26.801   7.064
 4340POPC   C4A55806  39.195  26.852   7.364
 4340POPC   C1B55807  39.314  26.612   6.464
 4340POPC   C2B55808  39.318  26.611   6.764
 4340POPC   C3B55809  39.373  26.618   7.064
 4340POPC   C4B55810  39.373  26.584   7.364
 4341POPC   NC355811  36.942  15.222   5.564
 4341POPC   PO455812  36.941  15.142   5.864
 4341POPC   GL155813  36.918  15.208   6.164
 4341POPC   GL255814  36.798  15.268   6.164
 4341POPC   C1A55815  36.943  15.182   6.464
 4341POPC   D2A55816  36.857  15.199   6.764
 4341POPC   C3A55817  36.920  15.172   7.064
 4341POPC   C4A55818  36.867  15.218   7.364
 4341POPC   C1B55819  36.752  15.393   6.464
 4341POPC   C2B55820  36.727  15.412   6.764
 4341POPC   C3B55821  36.783  15.373   7.064
 4341POPC   C4B55822  36.778  15.377   7.364
 4342POPC   NC355823  37.655  36.897   5.564
 4342POPC   PO455824  37.729  36.886   5.864
 4342POPC   GL155825  37.644  36.893   6.164
 4342POPC   GL255826  37.700  37.059   6.164
 4342POPC   C1A55827  37.707  36.931   6.464
 4342POPC   D2A55828  37.656  36.895   6.764
 4342POPC   C3A55829  37.698  36.880   7.064
 4342POPC   C4A55830  37.700  36.948   7.364
 4342POPC   C1B55831  37.699  37.173   6.464
 4342POPC   C2B55832  37.636  37.111   6.764
 4342POPC   C3B55833  37.690  37.117   7.064
 4342POPC   C4B55834  37.707  37.131   7.364
 4343POPC   NC355835   2.740   9.012   5.564
 4343POPC   PO455836   2.727   8.936   5.864
 4343POPC   GL155837   2.795   9.011   6.164
 4343POPC   GL255838   2.662   9.019   6.164
 4343POPC   C1A55839   2.814   9.009   6.464
 4343POPC   D2A55840   2.759   8.997   6.764
 4343POPC   C3A55841   2.780   9.013   7.064
 4343POPC   C4A55842   2.761   8.984   7.364
 4343POPC   C1B55843   2.513   9.069   6.464
 4343POPC   C2B55844   2.599   9.079   6.764
 4343POPC   C3B55845   2.596   9.156   7.064
 4343POPC   C4B55846   2.576   9.113   7.364
 4344POPC   NC355847   8.963  19.835   5.564
 4344POPC   PO455848   9.000  19.821   5.864
 4344POPC   GL155849   8.941  19.818   6.164
 4344POPC   GL255850   8.822  19.900   6.164
 4344POPC   C1A55851   8.985  19.793   6.464
 4344POPC   D2A55852   8.930  19.821   6.764
 4344POPC   C3A55853   8.964  19.869   7.064
 4344POPC   C4A55854   8.950  19.838   7.364
 4344POPC   C1B55855   8.734  19.900   6.464
 4344POPC   C2B55856   8.747  19.892   6.764
 4344POPC   C3B55857   8.728  19.936   7.064
 4344POPC   C4B55858   8.778  19.894   7.364
 4345POPC   NC355859  11.268   2.000   5.564
 4345POPC   PO455860  11.302   1.982   5.864
 4345POPC   GL155861  11.267   1.943   6.164
 4345POPC   GL255862  11.459   1.912   6.164
 4345POPC   C1A55863  11.348   1.972   6.464
 4345POPC   D2A55864  11.347   2.035   6.764
 4345POPC   C3A55865  11.314   1.987   7.064
 4345POPC   C4A55866  11.257   1.989   7.364
 4345POPC   C1B55867  11.571   1.880   6.464
 4345POPC   C2B55868  11.518   1.887   6.764
 4345POPC   C3B55869  11.555   1.917   7.064
 4345POPC   C4B55870  11.567   1.889   7.364
 4346POPC   NC355871  33.773  25.229   5.564
 4346POPC   PO455872  33.830  25.314   5.864
 4346POPC   GL155873  33.802  25.248   6.164
 4346POPC   GL255874  33.667  25.187   6.164
 4346POPC   C1A55875  33.805  25.290   6.464
 4346POPC   D2A55876  33.787  25.303   6.764
 4346POPC   C3A55877  33.781  25.287   7.064
 4346POPC   C4A55878  33.850  25.263   7.364
 4346POPC   C1B55879  33.513  25.208   6.464
 4346POPC   C2B55880  33.572  25.205   6.764
 4346POPC   C3B55881  33.560  25.170   7.064
 4346POPC   C4B55882  33.518  25.155   7.364
 4347POPC   NC355883  22.902   8.157   5.564
 4347POPC   PO455884  22.982   8.195   5.864
 4347POPC   GL155885  22.901   8.244   6.164
 4347POPC   GL255886  23.033   8.260   6.164
 4347POPC   C1A55887  22.924   8.222   6.464
 4347POPC   D2A55888  22.894   8.199   6.764
 4347POPC   C3A55889  22.920   8.184   7.064
 4347POPC   C4A55890  22.906   8.236   7.364
 4347POPC   C1B55891  23.124   8.238   6.464
 4347POPC   C2B55892  23.199   8.333   6.764
 4347POPC   C3B55893  23.200   8.248   7.064
 4347POPC   C4B55894  23.164   8.251   7.364
 4348POPC   NC355895   0.485  19.865   5.564
 4348POPC   PO455896   0.432  19.862   5.864
 4348POPC   GL155897   0.474  19.860   6.164
 4348POPC   GL255898   0.356  19.674   6.164
 4348POPC   C1A55899   0.486  19.845   6.464
 4348POPC   D2A55900   0.405  19.867   6.764
 4348POPC   C3A55901   0.396  19.870   7.064
 4348POPC   C4A55902   0.391  19.800   7.364
 4348POPC   C1B55903   0.345  19.622   6.464
 4348POPC   C2B55904   0.315  19.581   6.764
 4348POPC   C3B55905   0.356  19.646   7.064
 4348POPC   C4B55906   0.329  19.590   7.364
 4349POPC   NC355907  41.528  28.417   5.564
 4349POPC   PO455908  41.524  28.364   5.864
 4349POPC   GL155909  41.573  28.379   6.164
 4349POPC   GL255910  41.619  28.467   6.164
 4349POPC   C1A55911  41.513  28.416   6.464
 4349POPC   D2A55912  41.588  28.391   6.764
 4349POPC   C3A55913  41.558  28.372   7.064
 4349POPC   C4A55914  41.537  28.387   7.364
 4349POPC   C1B55915  41.553  28.596   6.464
 4349POPC   C2B55916  41.588  28.582   6.764
 4349POPC   C3B55917  41.543  28.645   7.064
 4349POPC   C4B55918  41.577  28.632   7.364
 4350POPC   NC355919   1.250  34.555   5.564
 4350POPC   PO455920   1.223  34.545   5.864
 4350POPC   GL155921   1.244  34.614   6.164
 4350POPC   GL255922   1.162  34.519   6.164
 4350POPC   C1A55923   1.223  34.541   6.464
 4350POPC   D2A55924   1.175  34.545   6.764
 4350POPC   C3A55925   1.231  34.535   7.064
 4350POPC   C4A55926   1.228  34.559   7.364
 4350POPC   C1B55927   1.071  34.385   6.464
 4350POPC   C2B55928   1.122  34.401   6.764
 4350POPC   C3B55929   1.064  34.382   7.064
 4350POPC   C4B55930   1.123  34.389   7.364
 4351POPC   NC355931  33.784  40.035   5.564
 4351POPC   PO455932  33.846  39.961   5.864
 4351POPC   GL155933  33.816  40.050   6.164
 4351POPC   GL255934  33.887  40.077   6.164
 4351POPC   C1A55935  33.833  40.007   6.464
 4351POPC   D2A55936  33.807  39.985   6.764
 4351POPC   C3A55937  33.845  39.967   7.064
 4351POPC   C4A55938  33.796  39.990   7.364
 4351POPC   C1B55939  34.007  40.032   6.464
 4351POPC   C2B55940  34.059  40.072   6.764
 4351POPC   C3B55941  34.030  40.073   7.064
 4351POPC   C4B55942  34.088  40.027   7.364
 4352POPC   NC355943   5.140  33.808   5.564
 4352POPC   PO455944   5.055  33.756   5.864
 4352POPC   GL155945   5.107  33.836   6.164
 4352POPC   GL255946   5.126  33.905   6.164
 4352POPC   C1A55947   5.082  33.848   6.464
 4352POPC   D2A55948   5.103  33.837   6.764
 4352POPC   C3A55949   5.095  33.834   7.064
 4352POPC   C4A55950   5.056  33.809   7.364
 4352POPC   C1B55951   5.189  34.008   6.464
 4352POPC   C2B55952   5.227  33.970   6.764
 4352POPC   C3B55953   5.275  33.966   7.064
 4352POPC   C4B55954   5.223  34.032   7.364
 4353POPC   NC355955  18.306  25.310   5.564
 4353POPC   PO455956  18.315  25.234   5.864
 4353POPC   GL155957  18.294  25.315   6.164
 4353POPC   GL255958  18.222  25.149   6.164
 4353POPC   C1A55959  18.237  25.253   6.464
 4353POPC   D2A55960  18.283  25.221   6.764
 4353POPC   C3A55961  18.315  25.289   7.064
 4353POPC   C4A55962  18.291  25.266   7.364
 4353POPC   C1B55963  18.156  25.076   6.464
 4353POPC   C2B55964  18.155  25.006   6.764
 4353POPC   C3B55965  18.230  25.072   7.064
 4353POPC   C4B55966  18.201  24.998   7.364
 4354POPC   NC355967  20.575  40.804   5.564
 4354POPC   PO455968  20.591  40.755   5.864
 4354POPC   GL155969  20.622  40.807   6.164
 4354POPC   GL255970  20.702  40.683   6.164
 4354POPC   C1A55971  20.610  40.749   6.464
 4354POPC   D2A55972  20.583  40.832   6.764
 4354POPC   C3A55973  20.564  40.747   7.064
 4354POPC   C4A55974  20.653  40.782   7.364
 4354POPC   C1B55975  20.771  40.586   6.464
 4354POPC   C2B55976  20.736  40.605   6.764
 4354POPC   C3B55977  20.735  40.576   7.064
 4354POPC   C4B55978  20.738  40.562   7.364
 4355POPC   NC355979  10.547   9.733   5.564
 4355POPC   PO455980  10.521   9.699   5.864
 4355POPC   GL155981  10.546   9.701   6.164
 4355POPC   GL255982  10.568   9.648   6.164
 4355POPC   C1A55983  10.530   9.762   6.464
 4355POPC   D2A55984  10.562   9.793   6.764
 4355POPC   C3A55985  10.477   9.702   7.064
 4355POPC   C4A55986  10.515   9.746   7.364
 4355POPC   C1B55987  10.693   9.531   6.464
 4355POPC   C2B55988  10.731   9.537   6.764
 4355POPC   C3B55989  10.677   9.592   7.064
 4355POPC   C4B55990  10.661   9.556   7.364
 4356POPC   NC355991   7.382  24.497   5.564
 4356POPC   PO455992   7.424  24.446   5.864
 4356POPC   GL155993   7.431  24.527   6.164
 4356POPC   GL255994   7.344  24.389   6.164
 4356POPC   C1A55995   7.469  24.480   6.464
 4356POPC   D2A55996   7.418  24.453   6.764
 4356POPC   C3A55997   7.420  24.527   7.064
 4356POPC   C4A55998   7.376  24.459   7.364
 4356POPC   C1B55999   7.367  24.253   6.464
 4356POPC   C2B56000   7.316  24.227   6.764
 4356POPC   C3B56001   7.368  24.296   7.064
 4356POPC   C4B56002   7.387  24.280   7.364
 4357POPC   NC356003  26.790  26.035   5.564
 4357POPC   PO456004  26.811  26.091   5.864
 4357POPC   GL156005  26.786  26.057   6.164
 4357POPC   GL256006  26.846  25.901   6.164
 4357POPC   C1A56007  26.845  26.070   6.464
 4357POPC   D2A56008  26.837  26.043   6.764
 4357POPC   C3A56009  26.867  26.030   7.064
 4357POPC   C4A56010  26.863  26.051   7.364
 4357POPC   C1B56011  26.822  25.841   6.464
 4357POPC   C2B56012  26.900  25.747   6.764
 4357POPC   C3B56013  26.854  25.829   7.064
 4357POPC   C4B56014  26.869  25.760   7.364
 4358POPC   NC356015  31.468   8.216   5.564
 4358POPC   PO456016  31.507   8.157   5.864
 4358POPC   GL156017  31.439   8.176   6.164
 4358POPC   GL256018  31.551   8.091   6.164
 4358POPC   C1A56019  31.500   8.171   6.464
 4358POPC   D2A56020  31.451   8.231   6.764
 4358POPC   C3A56021  31.424   8.218   7.064
 4358POPC   C4A56022  31.484   8.213   7.364
 4358POPC   C1B56023  31.623   8.045   6.464
 4358POPC   C2B56024  31.684   7.992   6.764
 4358POPC   C3B56025  31.628   8.000   7.064
 4358POPC   C4B56026  31.630   8.002   7.364
 4359POPC   NC356027   0.416   8.215   5.564
 4359POPC   PO456028   0.408   8.189   5.864
 4359POPC   GL156029   0.398   8.184   6.164
 4359POPC   GL256030   0.539   8.169   6.164
 4359POPC   C1A56031   0.441   8.169   6.464
 4359POPC   D2A56032   0.449   8.236   6.764
 4359POPC   C3A56033   0.468   8.212   7.064
 4359POPC   C4A56034   0.462   8.237   7.364
 4359POPC   C1B56035   0.680   8.157   6.464
 4359POPC   C2B56036   0.685   8.152   6.764
 4359POPC   C3B56037   0.676   8.161   7.064
 4359POPC   C4B56038   0.653   8.206   7.364
 4360POPC   NC356039  10.550  44.707   5.564
 4360POPC   PO456040  10.573  44.664   5.864
 4360POPC   GL156041  10.482  44.619   6.164
 4360POPC   GL256042  10.482  44.579   6.164
 4360POPC   C1A56043  10.505  44.620   6.464
 4360POPC   D2A56044  10.518  44.651   6.764
 4360POPC   C3A56045  10.538  44.631   7.064
 4360POPC   C4A56046  10.515  44.628   7.364
 4360POPC   C1B56047  10.473  44.448   6.464
 4360POPC   C2B56048  10.543  44.441   6.764
 4360POPC   C3B56049  10.489  44.396   7.064
 4360POPC   C4B56050  10.485  44.385   7.364
 4361POPC   NC356051  26.016  15.223   5.564
 4361POPC   PO456052  26.010  15.189   5.864
 4361POPC   GL156053  26.035  15.203   6.164
 4361POPC   GL256054  26.004  15.265   6.164
 4361POPC   C1A56055  26.048  15.134   6.464
 4361POPC   D2A56056  26.005  15.191   6.764
 4361POPC   C3A56057  26.068  15.150   7.064
 4361POPC   C4A56058  26.071  15.137   7.364
 4361POPC   C1B56059  25.968  15.368   6.464
 4361POPC   C2B56060  25.994  15.431   6.764
 4361POPC   C3B56061  25.958  15.423   7.064
 4361POPC   C4B56062  25.913  15.410   7.364
 4362POPC   NC356063  12.811   1.203   5.564
 4362POPC   PO456064  12.883   1.214   5.864
 4362POPC   GL156065  12.874   1.174   6.164
 4362POPC   GL256066  12.999   1.136   6.164
 4362POPC   C1A56067  12.892   1.181   6.464
 4362POPC   D2A56068  12.878   1.253   6.764
 4362POPC   C3A56069  12.898   1.253   7.064
 4362POPC   C4A56070  12.889   1.234   7.364
 4362POPC   C1B56071  13.088   1.071   6.464
 4362POPC   C2B56072  13.061   1.052   6.764
 4362POPC   C3B56073  13.102   1.068   7.064
 4362POPC   C4B56074  13.048   1.062   7.364
 4363POPC   NC356075  39.975   2.782   5.564
 4363POPC   PO456076  40.010   2.771   5.864
 4363POPC   GL156077  40.038   2.776   6.164
 4363POPC   GL256078  39.843   2.766   6.164
 4363POPC   C1A56079  39.978   2.757   6.464
 4363POPC   D2A56080  40.045   2.791   6.764
 4363POPC   C3A56081  40.021   2.776   7.064
 4363POPC   C4A56082  39.978   2.725   7.364
 4363POPC   C1B56083  39.750   2.764   6.464
 4363POPC   C2B56084  39.746   2.745   6.764
 4363POPC   C3B56085  39.769   2.713   7.064
 4363POPC   C4B56086  39.752   2.682   7.364
 4364POPC   NC356087   2.006   1.255   5.564
 4364POPC   PO456088   1.959   1.193   5.864
 4364POPC   GL156089   2.010   1.258   6.164
 4364POPC   GL256090   1.898   1.243   6.164
 4364POPC   C1A56091   2.034   1.164   6.464
 4364POPC   D2A56092   2.000   1.198   6.764
 4364POPC   C3A56093   1.966   1.224   7.064
 4364POPC   C4A56094   1.993   1.234   7.364
 4364POPC   C1B56095   1.825   1.316   6.464
 4364POPC   C2B56096   1.735   1.376   6.764
 4364POPC   C3B56097   1.729   1.300   7.064
 4364POPC   C4B56098   1.805   1.314   7.364
 4365POPC   NC356099   4.332   1.214   5.564
 4365POPC   PO456100   4.346   1.165   5.864
 4365POPC   GL156101   4.269   1.251   6.164
 4365POPC   GL256102   4.312   1.069   6.164
 4365POPC   C1A56103   4.284   1.201   6.464
 4365POPC   D2A56104   4.304   1.197   6.764
 4365POPC   C3A56105   4.313   1.205   7.064
 4365POPC   C4A56106   4.323   1.201   7.364
 4365POPC   C1B56107   4.355   0.947   6.464
 4365POPC   C2B56108   4.369   0.948   6.764
 4365POPC   C3B56109   4.383   0.972   7.064
 4365POPC   C4B56110   4.389   0.937   7.364
 4366POPC   NC356111  25.224  27.602   5.564
 4366POPC   PO456112  25.223  27.620   5.864
 4366POPC   GL156113  25.272  27.635   6.164
 4366POPC   GL256114  25.409  27.617   6.164
 4366POPC   C1A56115  25.223  27.607   6.464
 4366POPC   D2A56116  25.275  27.636   6.764
 4366POPC   C3A56117  25.261  27.639   7.064
 4366POPC   C4A56118  25.221  27.629   7.364
 4366POPC   C1B56119  25.527  27.545   6.464
 4366POPC   C2B56120  25.499  27.625   6.764
 4366POPC   C3B56121  25.472  27.593   7.064
 4366POPC   C4B56122  25.514  27.548   7.364
 4367POPC   NC356123  33.841  34.537   5.564
 4367POPC   PO456124  33.830  34.608   5.864
 4367POPC   GL156125  33.779  34.526   6.164
 4367POPC   GL256126  33.812  34.660   6.164
 4367POPC   C1A56127  33.758  34.615   6.464
 4367POPC   D2A56128  33.784  34.529   6.764
 4367POPC   C3A56129  33.810  34.612   7.064
 4367POPC   C4A56130  33.751  34.589   7.364
 4367POPC   C1B56131  33.801  34.778   6.464
 4367POPC   C2B56132  33.763  34.857   6.764
 4367POPC   C3B56133  33.803  34.800   7.064
 4367POPC   C4B56134  33.838  34.852   7.364
 4368POPC   NC356135  19.026  30.657   5.564
 4368POPC   PO456136  19.058  30.649   5.864
 4368POPC   GL156137  19.040  30.676   6.164
 4368POPC   GL256138  18.941  30.753   6.164
 4368POPC   C1A56139  19.011  30.735   6.464
 4368POPC   D2A56140  19.067  30.654   6.764
 4368POPC   C3A56141  19.045  30.733   7.064
 4368POPC   C4A56142  19.033  30.672   7.364
 4368POPC   C1B56143  18.872  30.813   6.464
 4368POPC   C2B56144  18.863  30.795   6.764
 4368POPC   C3B56145  18.871  30.813   7.064
 4368POPC   C4B56146  18.823  30.767   7.364
 4369POPC   NC356147  15.156  21.365   5.564
 4369POPC   PO456148  15.155  21.358   5.864
 4369POPC   GL156149  15.229  21.427   6.164
 4369POPC   GL256150  15.207  21.250   6.164
 4369POPC   C1A56151  15.210  21.407   6.464
 4369POPC   D2A56152  15.152  21.391   6.764
 4369POPC   C3A56153  15.196  21.388   7.064
 4369POPC   C4A56154  15.225  21.376   7.364
 4369POPC   C1B56155  15.187  21.124   6.464
 4369POPC   C2B56156  15.188  21.176   6.764
 4369POPC   C3B56157  15.171  21.090   7.064
 4369POPC   C4B56158  15.200  21.088   7.364
 4370POPC   NC356159  23.675  36.167   5.564
 4370POPC   PO456160  23.761  36.159   5.864
 4370POPC   GL156161  23.710  36.112   6.164
 4370POPC   GL256162  23.820  36.047   6.164
 4370POPC   C1A56163  23.721  36.175   6.464
 4370POPC   D2A56164  23.675  36.120   6.764
 4370POPC   C3A56165  23.746  36.167   7.064
 4370POPC   C4A56166  23.720  36.176   7.364
 4370POPC   C1B56167  23.902  35.975   6.464
 4370POPC   C2B56168  23.917  36.019   6.764
 4370POPC   C3B56169  23.910  35.960   7.064
 4370POPC   C4B56170  23.882  36.039   7.364
 4371POPC   NC356171  41.527  37.674   5.564
 4371POPC   PO456172  41.524  37.707   5.864
 4371POPC   GL156173  41.578  37.694   6.164
 4371POPC   GL256174  41.526  37.574   6.164
 4371POPC   C1A56175  41.581  37.658   6.464
 4371POPC   D2A56176  41.535  37.719   6.764
 4371POPC   C3A56177  41.585  37.674   7.064
 4371POPC   C4A56178  41.579  37.694   7.364
 4371POPC   C1B56179  41.349  37.471   6.464
 4371POPC   C2B56180  41.406  37.530   6.764
 4371POPC   C3B56181  41.443  37.496   7.064
 4371POPC   C4B56182  41.371  37.540   7.364
 4372POPC   NC356183   1.232  36.897   5.564
 4372POPC   PO456184   1.254  36.952   5.864
 4372POPC   GL156185   1.202  36.936   6.164
 4372POPC   GL256186   1.106  36.884   6.164
 4372POPC   C1A56187   1.214  36.867   6.464
 4372POPC   D2A56188   1.242  36.897   6.764
 4372POPC   C3A56189   1.207  36.948   7.064
 4372POPC   C4A56190   1.207  36.953   7.364
 4372POPC   C1B56191   0.949  36.941   6.464
 4372POPC   C2B56192   0.939  36.967   6.764
 4372POPC   C3B56193   1.012  36.971   7.064
 4372POPC   C4B56194   0.972  36.939   7.364
 4373POPC   NC356195   1.178  40.741   5.564
 4373POPC   PO456196   1.248  40.760   5.864
 4373POPC   GL156197   1.173  40.806   6.164
 4373POPC   GL256198   1.301  40.733   6.164
 4373POPC   C1A56199   1.212  40.781   6.464
 4373POPC   D2A56200   1.255  40.799   6.764
 4373POPC   C3A56201   1.230  40.816   7.064
 4373POPC   C4A56202   1.220  40.746   7.364
 4373POPC   C1B56203   1.431  40.625   6.464
 4373POPC   C2B56204   1.386  40.636   6.764
 4373POPC   C3B56205   1.391  40.633   7.064
 4373POPC   C4B56206   1.382  40.682   7.364
 4374POPC   NC356207   7.429  36.171   5.564
 4374POPC   PO456208   7.406  36.106   5.864
 4374POPC   GL156209   7.414  36.173   6.164
 4374POPC   GL256210   7.305  36.077   6.164
 4374POPC   C1A56211   7.406  36.162   6.464
 4374POPC   D2A56212   7.441  36.110   6.764
 4374POPC   C3A56213   7.398  36.137   7.064
 4374POPC   C4A56214   7.419  36.156   7.364
 4374POPC   C1B56215   7.144  36.045   6.464
 4374POPC   C2B56216   7.203  36.069   6.764
 4374POPC   C3B56217   7.225  36.028   7.064
 4374POPC   C4B56218   7.218  36.027   7.364
 4375POPC   NC356219  38.430  29.138   5.564
 4375POPC   PO456220  38.462  29.121   5.864
 4375POPC   GL156221  38.431  29.113   6.164
 4375POPC   GL256222  38.545  29.139   6.164
 4375POPC   C1A56223  38.488  29.134   6.464
 4375POPC   D2A56224  38.502  29.188   6.764
 4375POPC   C3A56225  38.462  29.112   7.064
 4375POPC   C4A56226  38.500  29.158   7.364
 4375POPC   C1B56227  38.671  29.056   6.464
 4375POPC   C2B56228  38.665  29.084   6.764
 4375POPC   C3B56229  38.726  29.045   7.064
 4375POPC   C4B56230  38.652  29.048   7.364
 4376POPC   NC356231  27.640   2.013   5.564
 4376POPC   PO456232  27.580   1.998   5.864
 4376POPC   GL156233  27.564   1.954   6.164
 4376POPC   GL256234  27.679   2.031   6.164
 4376POPC   C1A56235  27.552   2.028   6.464
 4376POPC   D2A56236  27.554   1.971   6.764
 4376POPC   C3A56237  27.580   1.958   7.064
 4376POPC   C4A56238  27.588   1.951   7.364
 4376POPC   C1B56239  27.886   2.002   6.464
 4376POPC   C2B56240  27.827   2.065   6.764
 4376POPC   C3B56241  27.857   1.993   7.064
 4376POPC   C4B56242  27.818   2.021   7.364
 4377POPC   NC356243  18.260  37.680   5.564
 4377POPC   PO456244  18.314  37.683   5.864
 4377POPC   GL156245  18.311  37.632   6.164
 4377POPC   GL256246  18.219  37.614   6.164
 4377POPC   C1A56247  18.237  37.689   6.464
 4377POPC   D2A56248  18.275  37.713   6.764
 4377POPC   C3A56249  18.307  37.686   7.064
 4377POPC   C4A56250  18.283  37.709   7.364
 4377POPC   C1B56251  18.105  37.501   6.464
 4377POPC   C2B56252  18.045  37.553   6.764
 4377POPC   C3B56253  18.112  37.479   7.064
 4377POPC   C4B56254  18.106  37.563   7.364
 4378POPC   NC356255  17.469  22.139   5.564
 4378POPC   PO456256  17.501  22.138   5.864
 4378POPC   GL156257  17.537  22.198   6.164
 4378POPC   GL256258  17.559  22.051   6.164
 4378POPC   C1A56259  17.480  22.205   6.464
 4378POPC   D2A56260  17.481  22.122   6.764
 4378POPC   C3A56261  17.491  22.186   7.064
 4378POPC   C4A56262  17.464  22.144   7.364
 4378POPC   C1B56263  17.526  21.907   6.464
 4378POPC   C2B56264  17.491  21.905   6.764
 4378POPC   C3B56265  17.488  21.945   7.064
 4378POPC   C4B56266  17.575  21.951   7.364
 4379POPC   NC356267   9.020  42.333   5.564
 4379POPC   PO456268   8.965  42.380   5.864
 4379POPC   GL156269   9.010  42.287   6.164
 4379POPC   GL256270   9.061  42.417   6.164
 4379POPC   C1A56271   9.006  42.351   6.464
 4379POPC   D2A56272   9.022  42.290   6.764
 4379POPC   C3A56273   8.990  42.369   7.064
 4379POPC   C4A56274   9.008  42.380   7.364
 4379POPC   C1B56275   9.250  42.426   6.464
 4379POPC   C2B56276   9.183  42.404   6.764
 4379POPC   C3B56277   9.168  42.435   7.064
 4379POPC   C4B56278   9.169  42.447   7.364
 4380POPC   NC356279  32.224  26.776   5.564
 4380POPC   PO456280  32.238  26.793   5.864
 4380POPC   GL156281  32.274  26.852   6.164
 4380POPC   GL256282  32.241  26.909   6.164
 4380POPC   C1A56283  32.293  26.859   6.464
 4380POPC   D2A56284  32.213  26.790   6.764
 4380POPC   C3A56285  32.245  26.779   7.064
 4380POPC   C4A56286  32.212  26.797   7.364
 4380POPC   C1B56287  32.134  27.088   6.464
 4380POPC   C2B56288  32.195  27.067   6.764
 4380POPC   C3B56289  32.149  27.044   7.064
 4380POPC   C4B56290  32.185  27.002   7.364
 4381POPC   NC356291   8.179  31.468   5.564
 4381POPC   PO456292   8.161  31.512   5.864
 4381POPC   GL156293   8.219  31.489   6.164
 4381POPC   GL256294   8.089  31.433   6.164
 4381POPC   C1A56295   8.209  31.451   6.464
 4381POPC   D2A56296   8.189  31.447   6.764
 4381POPC   C3A56297   8.196  31.468   7.064
 4381POPC   C4A56298   8.174  31.488   7.364
 4381POPC   C1B56299   7.953  31.450   6.464
 4381POPC   C2B56300   7.949  31.467   6.764
 4381POPC   C3B56301   7.980  31.396   7.064
 4381POPC   C4B56302   7.983  31.455   7.364
 4382POPC   NC356303  29.928  27.608   5.564
 4382POPC   PO456304  29.952  27.546   5.864
 4382POPC   GL156305  29.917  27.558   6.164
 4382POPC   GL256306  29.966  27.681   6.164
 4382POPC   C1A56307  29.961  27.580   6.464
 4382POPC   D2A56308  29.965  27.582   6.764
 4382POPC   C3A56309  29.941  27.643   7.064
 4382POPC   C4A56310  29.936  27.607   7.364
 4382POPC   C1B56311  29.936  27.807   6.464
 4382POPC   C2B56312  29.978  27.799   6.764
 4382POPC   C3B56313  29.934  27.841   7.064
 4382POPC   C4B56314  29.930  27.843   7.364
 4383POPC   NC356315  10.515  39.983   5.564
 4383POPC   PO456316  10.531  39.977   5.864
 4383POPC   GL156317  10.520  40.032   6.164
 4383POPC   GL256318  10.626  39.941   6.164
 4383POPC   C1A56319  10.520  40.055   6.464
 4383POPC   D2A56320  10.557  39.959   6.764
 4383POPC   C3A56321  10.556  40.020   7.064
 4383POPC   C4A56322  10.485  39.992   7.364
 4383POPC   C1B56323  10.727  39.889   6.464
 4383POPC   C2B56324  10.721  39.880   6.764
 4383POPC   C3B56325  10.720  39.958   7.064
 4383POPC   C4B56326  10.735  39.965   7.364
 4384POPC   NC356327  22.181  26.071   5.564
 4384POPC   PO456328  22.178  26.012   5.864
 4384POPC   GL156329  22.140  26.063   6.164
 4384POPC   GL256330  22.152  25.890   6.164
 4384POPC   C1A56331  22.142  26.085   6.464
 4384POPC   D2A56332  22.184  26.071   6.764
 4384POPC   C3A56333  22.186  26.042   7.064
 4384POPC   C4A56334  22.170  26.065   7.364
 4384POPC   C1B56335  22.053  25.790   6.464
 4384POPC   C2B56336  22.090  25.773   6.764
 4384POPC   C3B56337  22.090  25.805   7.064
 4384POPC   C4B56338  22.066  25.786   7.364
 4385POPC   NC356339  37.631  43.871   5.564
 4385POPC   PO456340  37.706  43.893   5.864
 4385POPC   GL156341  37.652  43.906   6.164
 4385POPC   GL256342  37.761  44.032   6.164
 4385POPC   C1A56343  37.684  43.837   6.464
 4385POPC   D2A56344  37.639  43.848   6.764
 4385POPC   C3A56345  37.666  43.841   7.064
 4385POPC   C4A56346  37.716  43.908   7.364
 4385POPC   C1B56347  37.846  44.085   6.464
 4385POPC   C2B56348  37.857  44.050   6.764
 4385POPC   C3B56349  37.787  44.121   7.064
 4385POPC   C4B56350  37.825  44.055   7.364
 4386POPC   NC356351   8.245  19.856   5.564
 4386POPC   PO456352   8.239  19.847   5.864
 4386POPC   GL156353   8.217  19.870   6.164
 4386POPC   GL256354   8.349  19.759   6.164
 4386POPC   C1A56355   8.160  19.816   6.464
 4386POPC   D2A56356   8.218  19.848   6.764
 4386POPC   C3A56357   8.227  19.810   7.064
 4386POPC   C4A56358   8.153  19.805   7.364
 4386POPC   C1B56359   8.391  19.754   6.464
 4386POPC   C2B56360   8.447  19.782   6.764
 4386POPC   C3B56361   8.454  19.774   7.064
 4386POPC   C4B56362   8.454  19.792   7.364
 4387POPC   NC356363  25.267  37.679   5.564
 4387POPC   PO456364  25.233  37.694   5.864
 4387POPC   GL156365  25.272  37.662   6.164
 4387POPC   GL256366  25.170  37.739   6.164
 4387POPC   C1A56367  25.244  37.629   6.464
 4387POPC   D2A56368  25.299  37.711   6.764
 4387POPC   C3A56369  25.250  37.667   7.064
 4387POPC   C4A56370  25.280  37.721   7.364
 4387POPC   C1B56371  25.126  37.847   6.464
 4387POPC   C2B56372  25.092  37.884   6.764
 4387POPC   C3B56373  25.107  37.935   7.064
 4387POPC   C4B56374  25.097  37.928   7.364
 4388POPC   NC356375  24.473  21.365   5.564
 4388POPC   PO456376  24.456  21.355   5.864
 4388POPC   GL156377  24.510  21.403   6.164
 4388POPC   GL256378  24.631  21.340   6.164
 4388POPC   C1A56379  24.533  21.428   6.464
 4388POPC   D2A56380  24.512  21.347   6.764
 4388POPC   C3A56381  24.506  21.394   7.064
 4388POPC   C4A56382  24.494  21.346   7.364
 4388POPC   C1B56383  24.688  21.250   6.464
 4388POPC   C2B56384  24.689  21.250   6.764
 4388POPC   C3B56385  24.684  21.218   7.064
 4388POPC   C4B56386  24.702  21.211   7.364
 4389POPC   NC356387  29.140  19.027   5.564
 4389POPC   PO456388  29.191  19.060   5.864
 4389POPC   GL156389  29.116  19.091   6.164
 4389POPC   GL256390  29.076  19.146   6.164
 4389POPC   C1A56391  29.156  19.021   6.464
 4389POPC   D2A56392  29.144  19.067   6.764
 4389POPC   C3A56393  29.120  19.099   7.064
 4389POPC   C4A56394  29.136  19.085   7.364
 4389POPC   C1B56395  29.020  19.309   6.464
 4389POPC   C2B56396  29.086  19.342   6.764
 4389POPC   C3B56397  29.038  19.307   7.064
 4389POPC   C4B56398  29.110  19.318   7.364
 4390POPC   NC356399  17.518  16.733   5.564
 4390POPC   PO456400  17.543  16.765   5.864
 4390POPC   GL156401  17.481  16.733   6.164
 4390POPC   GL256402  17.667  16.696   6.164
 4390POPC   C1A56403  17.557  16.695   6.464
 4390POPC   D2A56404  17.539  16.752   6.764
 4390POPC   C3A56405  17.486  16.739   7.064
 4390POPC   C4A56406  17.553  16.743   7.364
 4390POPC   C1B56407  17.773  16.614   6.464
 4390POPC   C2B56408  17.704  16.678   6.764
 4390POPC   C3B56409  17.781  16.662   7.064
 4390POPC   C4B56410  17.699  16.599   7.364
 4391POPC   NC356411  26.037  10.554   5.564
 4391POPC   PO456412  26.075  10.521   5.864
 4391POPC   GL156413  25.994  10.495   6.164
 4391POPC   GL256414  25.898  10.490   6.164
 4391POPC   C1A56415  26.044  10.510   6.464
 4391POPC   D2A56416  26.041  10.514   6.764
 4391POPC   C3A56417  26.085  10.507   7.064
 4391POPC   C4A56418  26.053  10.501   7.364
 4391POPC   C1B56419  25.821  10.368   6.464
 4391POPC   C2B56420  25.851  10.454   6.764
 4391POPC   C3B56421  25.838  10.409   7.064
 4391POPC   C4B56422  25.852  10.423   7.364
 4392POPC   NC356423   6.685   1.187   5.564
 4392POPC   PO456424   6.643   1.257   5.864
 4392POPC   GL156425   6.658   1.214   6.164
 4392POPC   GL256426   6.799   1.269   6.164
 4392POPC   C1A56427   6.679   1.178   6.464
 4392POPC   D2A56428   6.668   1.214   6.764
 4392POPC   C3A56429   6.636   1.231   7.064
 4392POPC   C4A56430   6.629   1.195   7.364
 4392POPC   C1B56431   6.933   1.251   6.464
 4392POPC   C2B56432   6.942   1.237   6.764
 4392POPC   C3B56433   6.937   1.194   7.064
 4392POPC   C4B56434   6.851   1.239   7.364
 4393POPC   NC356435  39.999  19.860   5.564
 4393POPC   PO456436  40.052  19.786   5.864
 4393POPC   GL156437  39.978  19.861   6.164
 4393POPC   GL256438  39.897  19.975   6.164
 4393POPC   C1A56439  40.019  19.857   6.464
 4393POPC   D2A56440  40.032  19.814   6.764
 4393POPC   C3A56441  39.973  19.859   7.064
 4393POPC   C4A56442  40.003  19.798   7.364
 4393POPC   C1B56443  39.790  19.996   6.464
 4393POPC   C2B56444  39.855  20.065   6.764
 4393POPC   C3B56445  39.863  20.035   7.064
 4393POPC   C4B56446  39.803  20.038   7.364
 4394POPC   NC356447  35.320  13.587   5.564
 4394POPC   PO456448  35.338  13.588   5.864
 4394POPC   GL156449  35.360  13.639   6.164
 4394POPC   GL256450  35.261  13.683   6.164
 4394POPC   C1A56451  35.374  13.622   6.464
 4394POPC   D2A56452  35.345  13.642   6.764
 4394POPC   C3A56453  35.395  13.644   7.064
 4394POPC   C4A56454  35.345  13.665   7.364
 4394POPC   C1B56455  35.161  13.783   6.464
 4394POPC   C2B56456  35.131  13.778   6.764
 4394POPC   C3B56457  35.098  13.798   7.064
 4394POPC   C4B56458  35.119  13.752   7.364
 4395POPC   NC356459  11.291  41.532   5.564
 4395POPC   PO456460  11.287  41.578   5.864
 4395POPC   GL156461  11.277  41.559   6.164
 4395POPC   GL256462  11.161  41.510   6.164
 4395POPC   C1A56463  11.285  41.574   6.464
 4395POPC   D2A56464  11.317  41.537   6.764
 4395POPC   C3A56465  11.317  41.598   7.064
 4395POPC   C4A56466  11.287  41.573   7.364
 4395POPC   C1B56467  11.106  41.431   6.464
 4395POPC   C2B56468  11.081  41.403   6.764
 4395POPC   C3B56469  11.137  41.407   7.064
 4395POPC   C4B56470  11.098  41.463   7.364
 4396POPC   NC356471  11.258  21.391   5.564
 4396POPC   PO456472  11.342  21.349   5.864
 4396POPC   GL156473  11.286  21.390   6.164
 4396POPC   GL256474  11.347  21.502   6.164
 4396POPC   C1A56475  11.273  21.392   6.464
 4396POPC   D2A56476  11.264  21.356   6.764
 4396POPC   C3A56477  11.330  21.346   7.064
 4396POPC   C4A56478  11.329  21.381   7.364
 4396POPC   C1B56479  11.427  21.650   6.464
 4396POPC   C2B56480  11.337  21.611   6.764
 4396POPC   C3B56481  11.422  21.619   7.064
 4396POPC   C4B56482  11.372  21.670   7.364
 4397POPC   NC356483  25.222  33.026   5.564
 4397POPC   PO456484  25.281  33.027   5.864
 4397POPC   GL156485  25.229  32.982   6.164
 4397POPC   GL256486  25.223  32.938   6.164
 4397POPC   C1A56487  25.293  33.007   6.464
 4397POPC   D2A56488  25.251  33.003   6.764
 4397POPC   C3A56489  25.281  33.012   7.064
 4397POPC   C4A56490  25.298  33.044   7.364
 4397POPC   C1B56491  25.188  32.810   6.464
 4397POPC   C2B56492  25.198  32.761   6.764
 4397POPC   C3B56493  25.194  32.756   7.064
 4397POPC   C4B56494  25.187  32.810   7.364
 4398POPC   NC356495   2.788  30.724   5.564
 4398POPC   PO456496   2.720  30.693   5.864
 4398POPC   GL156497   2.716  30.706   6.164
 4398POPC   GL256498   2.602  30.668   6.164
 4398POPC   C1A56499   2.793  30.660   6.464
 4398POPC   D2A56500   2.798  30.742   6.764
 4398POPC   C3A56501   2.734  30.702   7.064
 4398POPC   C4A56502   2.751  30.658   7.364
 4398POPC   C1B56503   2.565  30.678   6.464
 4398POPC   C2B56504   2.527  30.671   6.764
 4398POPC   C3B56505   2.548  30.647   7.064
 4398POPC   C4B56506   2.539  30.628   7.364
 4399POPC   NC356507  39.254  22.983   5.564
 4399POPC   PO456508  39.280  22.984   5.864
 4399POPC   GL156509  39.271  22.921   6.164
 4399POPC   GL256510  39.111  23.006   6.164
 4399POPC   C1A56511  39.251  22.980   6.464
 4399POPC   D2A56512  39.209  22.910   6.764
 4399POPC   C3A56513  39.242  22.945   7.064
 4399POPC   C4A56514  39.250  22.914   7.364
 4399POPC   C1B56515  38.965  23.046   6.464
 4399POPC   C2B56516  39.007  23.039   6.764
 4399POPC   C3B56517  39.037  23.004   7.064
 4399POPC   C4B56518  39.026  22.969   7.364
 4400POPC   NC356519  40.823   5.130   5.564
 4400POPC   PO456520  40.799   5.063   5.864
 4400POPC   GL156521  40.815   5.071   6.164
 4400POPC   GL256522  40.888   5.031   6.164
 4400POPC   C1A56523  40.743   5.138   6.464
 4400POPC   D2A56524  40.776   5.131   6.764
 4400POPC   C3A56525  40.742   5.108   7.064
 4400POPC   C4A56526  40.783   5.069   7.364
 4400POPC   C1B56527  40.953   4.856   6.464
 4400POPC   C2B56528  40.918   4.895   6.764
 4400POPC   C3B56529  40.933   4.936   7.064
 4400POPC   C4B56530  40.969   4.868   7.364
 4401POPC   NC356531  36.921  22.112   5.564
 4401POPC   PO456532  36.873  22.119   5.864
 4401POPC   GL156533  36.923  22.197   6.164
 4401POPC   GL256534  36.827  22.177   6.164
 4401POPC   C1A56535  36.871  22.199   6.464
 4401POPC   D2A56536  36.950  22.132   6.764
 4401POPC   C3A56537  36.862  22.205   7.064
 4401POPC   C4A56538  36.910  22.159   7.364
 4401POPC   C1B56539  36.649  22.097   6.464
 4401POPC   C2B56540  36.619  22.129   6.764
 4401POPC   C3B56541  36.702  22.176   7.064
 4401POPC   C4B56542  36.684  22.132   7.364
 4402POPC   NC356543   7.377  40.738   5.564
 4402POPC   PO456544   7.400  40.736   5.864
 4402POPC   GL156545   7.438  40.793   6.164
 4402POPC   GL256546   7.469  40.721   6.164
 4402POPC   C1A56547   7.457  40.797   6.464
 4402POPC   D2A56548   7.434  40.753   6.764
 4402POPC   C3A56549   7.438  40.735   7.064
 4402POPC   C4A56550   7.387  40.753   7.364
 4402POPC   C1B56551   7.584  40.576   6.464
 4402POPC   C2B56552   7.569  40.601   6.764
 4402POPC   C3B56553   7.599  40.562   7.064
 4402POPC   C4B56554   7.525  40.617   7.364
 4403POPC   NC356555  33.012  27.607   5.564
 4403POPC   PO456556  33.020  27.547   5.864
 4403POPC   GL156557  33.012  27.551   6.164
 4403POPC   GL256558  32.967  27.673   6.164
 4403POPC   C1A56559  33.028  27.634   6.464
 4403POPC   D2A56560  32.998  27.569   6.764
 4403POPC   C3A56561  32.988  27.593   7.064
 4403POPC   C4A56562  33.069  27.548   7.364
 4403POPC   C1B56563  32.818  27.709   6.464
 4403POPC   C2B56564  32.785  27.733   6.764
 4403POPC   C3B56565  32.799  27.729   7.064
 4403POPC   C4B56566  32.840  27.720   7.364
 4404POPC   NC356567   8.958  15.982   5.564
 4404POPC   PO456568   8.930  15.980   5.864
 4404POPC   GL156569   9.001  15.914   6.164
 4404POPC   GL256570   9.104  16.066   6.164
 4404POPC   C1A56571   9.004  15.912   6.464
 4404POPC   D2A56572   8.974  15.963   6.764
 4404POPC   C3A56573   8.924  15.951   7.064
 4404POPC   C4A56574   8.933  15.985   7.364
 4404POPC   C1B56575   9.192  16.064   6.464
 4404POPC   C2B56576   9.227  16.041   6.764
 4404POPC   C3B56577   9.156  16.108   7.064
 4404POPC   C4B56578   9.232  16.120   7.364
 4405POPC   NC356579   6.617   2.757   5.564
 4405POPC   PO456580   6.618   2.759   5.864
 4405POPC   GL156581   6.630   2.718   6.164
 4405POPC   GL256582   6.655   2.631   6.164
 4405POPC   C1A56583   6.643   2.736   6.464
 4405POPC   D2A56584   6.627   2.758   6.764
 4405POPC   C3A56585   6.658   2.792   7.064
 4405POPC   C4A56586   6.671   2.790   7.364
 4405POPC   C1B56587   6.610   2.470   6.464
 4405POPC   C2B56588   6.644   2.556   6.764
 4405POPC   C3B56589   6.643   2.473   7.064
 4405POPC   C4B56590   6.658   2.504   7.364
 4406POPC   NC356591  36.148   6.684   5.564
 4406POPC   PO456592  36.121   6.685   5.864
 4406POPC   GL156593  36.154   6.597   6.164
 4406POPC   GL256594  35.960   6.626   6.164
 4406POPC   C1A56595  36.163   6.685   6.464
 4406POPC   D2A56596  36.132   6.666   6.764
 4406POPC   C3A56597  36.139   6.629   7.064
 4406POPC   C4A56598  36.089   6.649   7.364
 4406POPC   C1B56599  35.923   6.638   6.464
 4406POPC   C2B56600  35.892   6.590   6.764
 4406POPC   C3B56601  35.897   6.595   7.064
 4406POPC   C4B56602  35.839   6.602   7.364
 4407POPC   NC356603  39.964  33.773   5.564
 4407POPC   PO456604  39.979  33.819   5.864
 4407POPC   GL156605  40.052  33.802   6.164
 4407POPC   GL256606  39.875  33.851   6.164
 4407POPC   C1A56607  39.987  33.822   6.464
 4407POPC   D2A56608  39.964  33.819   6.764
 4407POPC   C3A56609  40.013  33.830   7.064
 4407POPC   C4A56610  39.964  33.756   7.364
 4407POPC   C1B56611  39.802  33.814   6.464
 4407POPC   C2B56612  39.803  33.876   6.764
 4407POPC   C3B56613  39.727  33.864   7.064
 4407POPC   C4B56614  39.755  33.859   7.364
 4408POPC   NC356615  29.873  22.206   5.564
 4408POPC   PO456616  29.892  22.182   5.864
 4408POPC   GL156617  29.936  22.162   6.164
 4408POPC   GL256618  29.885  22.326   6.164
 4408POPC   C1A56619  29.874  22.172   6.464
 4408POPC   D2A56620  29.970  22.208   6.764
 4408POPC   C3A56621  29.874  22.164   7.064
 4408POPC   C4A56622  29.928  22.198   7.364
 4408POPC   C1B56623  29.937  22.368   6.464
 4408POPC   C2B56624  29.971  22.435   6.764
 4408POPC   C3B56625  29.913  22.399   7.064
 4408POPC   C4B56626  29.978  22.409   7.364
 4409POPC   NC356627   5.906   1.167   5.564
 4409POPC   PO456628   5.892   1.179   5.864
 4409POPC   GL156629   5.898   1.210   6.164
 4409POPC   GL256630   5.841   1.085   6.164
 4409POPC   C1A56631   5.877   1.241   6.464
 4409POPC   D2A56632   5.842   1.220   6.764
 4409POPC   C3A56633   5.863   1.250   7.064
 4409POPC   C4A56634   5.835   1.177   7.364
 4409POPC   C1B56635   5.806   0.981   6.464
 4409POPC   C2B56636   5.811   1.001   6.764
 4409POPC   C3B56637   5.755   0.979   7.064
 4409POPC   C4B56638   5.791   0.978   7.364
 4410POPC   NC356639  40.048  24.469   5.564
 4410POPC   PO456640  39.998  24.529   5.864
 4410POPC   GL156641  40.007  24.526   6.164
 4410POPC   GL256642  39.882  24.400   6.164
 4410POPC   C1A56643  39.998  24.469   6.464
 4410POPC   D2A56644  39.977  24.535   6.764
 4410POPC   C3A56645  39.959  24.450   7.064
 4410POPC   C4A56646  40.054  24.503   7.364
 4410POPC   C1B56647  39.777  24.354   6.464
 4410POPC   C2B56648  39.762  24.368   6.764
 4410POPC   C3B56649  39.786  24.391   7.064
 4410POPC   C4B56650  39.802  24.344   7.364
 4411POPC   NC356651  17.537  30.689   5.564
 4411POPC   PO456652  17.532  30.688   5.864
 4411POPC   GL156653  17.498  30.678   6.164
 4411POPC   GL256654  17.422  30.692   6.164
 4411POPC   C1A56655  17.540  30.713   6.464
 4411POPC   D2A56656  17.552  30.669   6.764
 4411POPC   C3A56657  17.515  30.657   7.064
 4411POPC   C4A56658  17.556  30.702   7.364
 4411POPC   C1B56659  17.274  30.630   6.464
 4411POPC   C2B56660  17.286  30.612   6.764
 4411POPC   C3B56661  17.265  30.584   7.064
 4411POPC   C4B56662  17.257  30.561   7.364
 4412POPC   NC356663  30.666  20.592   5.564
 4412POPC   PO456664  30.688  20.571   5.864
 4412POPC   GL156665  30.674  20.631   6.164
 4412POPC   GL256666  30.670  20.469   6.164
 4412POPC   C1A56667  30.652  20.593   6.464
 4412POPC   D2A56668  30.690  20.645   6.764
 4412POPC   C3A56669  30.663  20.588   7.064
 4412POPC   C4A56670  30.680  20.611   7.364
 4412POPC   C1B56671  30.591  20.387   6.464
 4412POPC   C2B56672  30.532  20.437   6.764
 4412POPC   C3B56673  30.590  20.430   7.064
 4412POPC   C4B56674  30.615  20.424   7.364
 4413POPC   NC356675   1.952  12.076   5.564
 4413POPC   PO456676   1.994  12.089   5.864
 4413POPC   GL156677   2.026  12.056   6.164
 4413POPC   GL256678   1.911  12.210   6.164
 4413POPC   C1A56679   2.039  12.094   6.464
 4413POPC   D2A56680   1.989  12.060   6.764
 4413POPC   C3A56681   1.944  12.088   7.064
 4413POPC   C4A56682   1.996  12.044   7.364
 4413POPC   C1B56683   1.910  12.303   6.464
 4413POPC   C2B56684   1.901  12.245   6.764
 4413POPC   C3B56685   1.843  12.305   7.064
 4413POPC   C4B56686   1.878  12.298   7.364
 4414POPC   NC356687   4.311  44.649   5.564
 4414POPC   PO456688   4.297  44.649   5.864
 4414POPC   GL156689   4.293  44.687   6.164
 4414POPC   GL256690   4.252  44.744   6.164
 4414POPC   C1A56691   4.338  44.667   6.464
 4414POPC   D2A56692   4.350  44.654   6.764
 4414POPC   C3A56693   4.290  44.629   7.064
 4414POPC   C4A56694   4.365  44.685   7.364
 4414POPC   C1B56695   4.178  44.866   6.464
 4414POPC   C2B56696   4.217  44.872   6.764
 4414POPC   C3B56697   4.213  44.851   7.064
 4414POPC   C4B56698   4.172  44.841   7.364
 4415POPC   NC356699  21.429  43.845   5.564
 4415POPC   PO456700  21.373  43.861   5.864
 4415POPC   GL156701  21.422  43.866   6.164
 4415POPC   GL256702  21.240  43.799   6.164
 4415POPC   C1A56703  21.420  43.902   6.464
 4415POPC   D2A56704  21.404  43.891   6.764
 4415POPC   C3A56705  21.389  43.919   7.064
 4415POPC   C4A56706  21.416  43.926   7.364
 4415POPC   C1B56707  21.124  43.769   6.464
 4415POPC   C2B56708  21.119  43.819   6.764
 4415POPC   C3B56709  21.103  43.764   7.064
 4415POPC   C4B56710  21.116  43.835   7.364
 4416POPC   NC356711   1.181  16.774   5.564
 4416POPC   PO456712   1.241  16.765   5.864
 4416POPC   GL156713   1.247  16.709   6.164
 4416POPC   GL256714   1.340  16.753   6.164
 4416POPC   C1A56715   1.235  16.763   6.464
 4416POPC   D2A56716   1.256  16.753   6.764
 4416POPC   C3A56717   1.205  16.685   7.064
 4416POPC   C4A56718   1.171  16.713   7.364
 4416POPC   C1B56719   1.426  16.739   6.464
 4416POPC   C2B56720   1.461  16.828   6.764
 4416POPC   C3B56721   1.461  16.785   7.064
 4416POPC   C4B56722   1.496  16.764   7.364
 4417POPC   NC356723  36.123  22.195   5.564
 4417POPC   PO456724  36.094  22.160   5.864
 4417POPC   GL156725  36.117  22.141   6.164
 4417POPC   GL256726  36.050  22.111   6.164
 4417POPC   C1A56727  36.174  22.189   6.464
 4417POPC   D2A56728  36.092  22.131   6.764
 4417POPC   C3A56729  36.121  22.126   7.064
 4417POPC   C4A56730  36.149  22.172   7.364
 4417POPC   C1B56731  35.896  22.033   6.464
 4417POPC   C2B56732  35.970  22.040   6.764
 4417POPC   C3B56733  35.964  21.979   7.064
 4417POPC   C4B56734  35.888  22.041   7.364
 4418POPC   NC356735  35.356  30.664   5.564
 4418POPC   PO456736  35.355  30.738   5.864
 4418POPC   GL156737  35.331  30.719   6.164
 4418POPC   GL256738  35.465  30.814   6.164
 4418POPC   C1A56739  35.338  30.705   6.464
 4418POPC   D2A56740  35.362  30.649   6.764
 4418POPC   C3A56741  35.394  30.687   7.064
 4418POPC   C4A56742  35.311  30.653   7.364
 4418POPC   C1B56743  35.570  30.898   6.464
 4418POPC   C2B56744  35.556  30.894   6.764
 4418POPC   C3B56745  35.581  30.894   7.064
 4418POPC   C4B56746  35.502  30.918   7.364
 4419POPC   NC356747   8.925  36.173   5.564
 4419POPC   PO456748   8.942  36.133   5.864
 4419POPC   GL156749   8.936  36.145   6.164
 4419POPC   GL256750   8.883  36.040   6.164
 4419POPC   C1A56751   9.022  36.138   6.464
 4419POPC   D2A56752   8.983  36.135   6.764
 4419POPC   C3A56753   8.931  36.104   7.064
 4419POPC   C4A56754   9.014  36.164   7.364
 4419POPC   C1B56755   8.715  36.041   6.464
 4419POPC   C2B56756   8.707  36.039   6.764
 4419POPC   C3B56757   8.784  36.032   7.064
 4419POPC   C4B56758   8.770  36.019   7.364
 4420POPC   NC356759  26.787   3.544   5.564
 4420POPC   PO456760  26.797   3.492   5.864
 4420POPC   GL156761  26.849   3.589   6.164
 4420POPC   GL256762  26.763   3.410   6.164
 4420POPC   C1A56763  26.788   3.580   6.464
 4420POPC   D2A56764  26.823   3.541   6.764
 4420POPC   C3A56765  26.815   3.555   7.064
 4420POPC   C4A56766  26.782   3.514   7.364
 4420POPC   C1B56767  26.745   3.278   6.464
 4420POPC   C2B56768  26.713   3.312   6.764
 4420POPC   C3B56769  26.723   3.347   7.064
 4420POPC   C4B56770  26.730   3.274   7.364
 4421POPC   NC356771  10.518  27.594   5.564
 4421POPC   PO456772  10.533  27.588   5.864
 4421POPC   GL156773  10.483  27.622   6.164
 4421POPC   GL256774  10.401  27.624   6.164
 4421POPC   C1A56775  10.561  27.550   6.464
 4421POPC   D2A56776  10.536  27.578   6.764
 4421POPC   C3A56777  10.484  27.637   7.064
 4421POPC   C4A56778  10.517  27.603   7.364
 4421POPC   C1B56779  10.259  27.539   6.464
 4421POPC   C2B56780  10.252  27.542   6.764
 4421POPC   C3B56781  10.235  27.567   7.064
 4421POPC   C4B56782  10.231  27.605   7.364
 4422POPC   NC356783  42.316  16.689   5.564
 4422POPC   PO456784  42.303  16.780   5.864
 4422POPC   GL156785  42.360  16.707   6.164
 4422POPC   GL256786  42.314  16.882   6.164
 4422POPC   C1A56787  42.336  16.773   6.464
 4422POPC   D2A56788  42.362  16.757   6.764
 4422POPC   C3A56789  42.384  16.764   7.064
 4422POPC   C4A56790  42.332  16.780   7.364
 4422POPC   C1B56791  42.262  16.936   6.464
 4422POPC   C2B56792  42.230  16.971   6.764
 4422POPC   C3B56793  42.222  16.966   7.064
 4422POPC   C4B56794  42.205  16.993   7.364
 4423POPC   NC356795   0.455   2.004   5.564
 4423POPC   PO456796   0.423   1.966   5.864
 4423POPC   GL156797   0.473   2.024   6.164
 4423POPC   GL256798   0.572   1.885   6.164
 4423POPC   C1A56799   0.445   1.957   6.464
 4423POPC   D2A56800   0.434   1.976   6.764
 4423POPC   C3A56801   0.394   1.958   7.064
 4423POPC   C4A56802   0.440   2.007   7.364
 4423POPC   C1B56803   0.680   1.898   6.464
 4423POPC   C2B56804   0.610   1.849   6.764
 4423POPC   C3B56805   0.611   1.829   7.064
 4423POPC   C4B56806   0.629   1.812   7.364
 4424POPC   NC356807  30.664  29.174   5.564
 4424POPC   PO456808  30.657  29.157   5.864
 4424POPC   GL156809  30.653  29.190   6.164
 4424POPC   GL256810  30.760  29.298   6.164
 4424POPC   C1A56811  30.733  29.141   6.464
 4424POPC   D2A56812  30.707  29.143   6.764
 4424POPC   C3A56813  30.696  29.169   7.064
 4424POPC   C4A56814  30.736  29.167   7.364
 4424POPC   C1B56815  30.826  29.389   6.464
 4424POPC   C2B56816  30.802  29.386   6.764
 4424POPC   C3B56817  30.802  29.335   7.064
 4424POPC   C4B56818  30.843  29.374   7.364
 4425POPC   NC356819  18.303  33.011   5.564
 4425POPC   PO456820  18.251  33.002   5.864
 4425POPC   GL156821  18.314  32.978   6.164
 4425POPC   GL256822  18.417  33.099   6.164
 4425POPC   C1A56823  18.312  33.042   6.464
 4425POPC   D2A56824  18.266  33.012   6.764
 4425POPC   C3A56825  18.252  33.073   7.064
 4425POPC   C4A56826  18.290  32.996   7.364
 4425POPC   C1B56827  18.495  33.205   6.464
 4425POPC   C2B56828  18.488  33.150   6.764
 4425POPC   C3B56829  18.441  33.145   7.064
 4425POPC   C4B56830  18.447  33.156   7.364
 4426POPC   NC356831  32.240  39.219   5.564
 4426POPC   PO456832  32.287  39.198   5.864
 4426POPC   GL156833  32.258  39.281   6.164
 4426POPC   GL256834  32.172  39.119   6.164
 4426POPC   C1A56835  32.203  39.229   6.464
 4426POPC   D2A56836  32.290  39.239   6.764
 4426POPC   C3A56837  32.230  39.223   7.064
 4426POPC   C4A56838  32.217  39.237   7.364
 4426POPC   C1B56839  32.135  39.044   6.464
 4426POPC   C2B56840  32.157  39.047   6.764
 4426POPC   C3B56841  32.153  39.028   7.064
 4426POPC   C4B56842  32.159  38.984   7.364
 4427POPC   NC356843  34.607  35.353   5.564
 4427POPC   PO456844  34.566  35.385   5.864
 4427POPC   GL156845  34.538  35.327   6.164
 4427POPC   GL256846  34.466  35.432   6.164
 4427POPC   C1A56847  34.596  35.336   6.464
 4427POPC   D2A56848  34.569  35.347   6.764
 4427POPC   C3A56849  34.565  35.388   7.064
 4427POPC   C4A56850  34.579  35.398   7.364
 4427POPC   C1B56851  34.317  35.488   6.464
 4427POPC   C2B56852  34.367  35.454   6.764
 4427POPC   C3B56853  34.386  35.450   7.064
 4427POPC   C4B56854  34.414  35.460   7.364
 4428POPC   NC356855   1.954   6.634   5.564
 4428POPC   PO456856   1.944   6.643   5.864
 4428POPC   GL156857   2.004   6.687   6.164
 4428POPC   GL256858   1.959   6.708   6.164
 4428POPC   C1A56859   1.986   6.621   6.464
 4428POPC   D2A56860   2.012   6.668   6.764
 4428POPC   C3A56861   1.982   6.672   7.064
 4428POPC   C4A56862   1.968   6.644   7.364
 4428POPC   C1B56863   1.863   6.889   6.464
 4428POPC   C2B56864   1.830   6.880   6.764
 4428POPC   C3B56865   1.871   6.917   7.064
 4428POPC   C4B56866   1.892   6.847   7.364
 4429POPC   NC356867   0.415  26.083   5.564
 4429POPC   PO456868   0.429  26.028   5.864
 4429POPC   GL156869   0.450  26.033   6.164
 4429POPC   GL256870   0.328  26.105   6.164
 4429POPC   C1A56871   0.416  26.080   6.464
 4429POPC   D2A56872   0.425  26.017   6.764
 4429POPC   C3A56873   0.470  26.021   7.064
 4429POPC   C4A56874   0.460  26.049   7.364
 4429POPC   C1B56875   0.324  26.210   6.464
 4429POPC   C2B56876   0.256  26.241   6.764
 4429POPC   C3B56877   0.255  26.221   7.064
 4429POPC   C4B56878   0.264  26.268   7.364
 4430POPC   NC356879  42.368  30.661   5.564
 4430POPC   PO456880  42.296  30.721   5.864
 4430POPC   GL156881  42.378  30.676   6.164
 4430POPC   GL256882  42.367  30.766   6.164
 4430POPC   C1A56883  42.374  30.671   6.464
 4430POPC   D2A56884  42.334  30.656   6.764
 4430POPC   C3A56885  42.342  30.708   7.064
 4430POPC   C4A56886  42.285  30.694   7.364
 4430POPC   C1B56887  42.393  30.977   6.464
 4430POPC   C2B56888  42.383  30.932   6.764
 4430POPC   C3B56889  42.429  30.966   7.064
 4430POPC   C4B56890  42.454  30.926   7.364
 4431POPC   NC356891  24.469  40.766   5.564
 4431POPC   PO456892  24.530  40.806   5.864
 4431POPC   GL156893  24.540  40.739   6.164
 4431POPC   GL256894  24.489  40.694   6.164
 4431POPC   C1A56895  24.470  40.828   6.464
 4431POPC   D2A56896  24.444  40.771   6.764
 4431POPC   C3A56897  24.495  40.756   7.064
 4431POPC   C4A56898  24.506  40.749   7.364
 4431POPC   C1B56899  24.539  40.558   6.464
 4431POPC   C2B56900  24.556  40.548   6.764
 4431POPC   C3B56901  24.542  40.532   7.064
 4431POPC   C4B56902  24.620  40.544   7.364
 4432POPC   NC356903  26.867  37.718   5.564
 4432POPC   PO456904  26.768  37.647   5.864
 4432POPC   GL156905  26.797  37.675   6.164
 4432POPC   GL256906  26.724  37.550   6.164
 4432POPC   C1A56907  26.804  37.716   6.464
 4432POPC   D2A56908  26.776  37.639   6.764
 4432POPC   C3A56909  26.792  37.705   7.064
 4432POPC   C4A56910  26.816  37.669   7.364
 4432POPC   C1B56911  26.741  37.496   6.464
 4432POPC   C2B56912  26.726  37.462   6.764
 4432POPC   C3B56913  26.747  37.478   7.064
 4432POPC   C4B56914  26.714  37.488   7.364
 4433POPC   NC356915  10.553  28.354   5.564
 4433POPC   PO456916  10.498  28.321   5.864
 4433POPC   GL156917  10.553  28.381   6.164
 4433POPC   GL256918  10.636  28.374   6.164
 4433POPC   C1A56919  10.493  28.372   6.464
 4433POPC   D2A56920  10.543  28.405   6.764
 4433POPC   C3A56921  10.548  28.328   7.064
 4433POPC   C4A56922  10.532  28.332   7.364
 4433POPC   C1B56923  10.793  28.251   6.464
 4433POPC   C2B56924  10.766  28.268   6.764
 4433POPC   C3B56925  10.764  28.265   7.064
 4433POPC   C4B56926  10.746  28.323   7.364
 4434POPC   NC356927  31.473  40.039   5.564
 4434POPC   PO456928  31.511  39.976   5.864
 4434POPC   GL156929  31.489  39.968   6.164
 4434POPC   GL256930  31.497  40.084   6.164
 4434POPC   C1A56931  31.489  40.008   6.464
 4434POPC   D2A56932  31.431  40.010   6.764
 4434POPC   C3A56933  31.463  39.960   7.064
 4434POPC   C4A56934  31.489  39.967   7.364
 4434POPC   C1B56935  31.605  40.248   6.464
 4434POPC   C2B56936  31.602  40.242   6.764
 4434POPC   C3B56937  31.598  40.265   7.064
 4434POPC   C4B56938  31.626  40.236   7.364
 4435POPC   NC356939  42.324  20.582   5.564
 4435POPC   PO456940  42.358  20.585   5.864
 4435POPC   GL156941  42.299  20.651   6.164
 4435POPC   GL256942  42.259  20.587   6.164
 4435POPC   C1A56943  42.363  20.648   6.464
 4435POPC   D2A56944  42.329  20.623   6.764
 4435POPC   C3A56945  42.358  20.567   7.064
 4435POPC   C4A56946  42.360  20.637   7.364
 4435POPC   C1B56947  42.060  20.546   6.464
 4435POPC   C2B56948  42.090  20.581   6.764
 4435POPC   C3B56949  42.132  20.560   7.064
 4435POPC   C4B56950  42.048  20.605   7.364
 4436POPC   NC356951   7.414   8.943   5.564
 4436POPC   PO456952   7.389   8.943   5.864
 4436POPC   GL156953   7.408   9.020   6.164
 4436POPC   GL256954   7.562   8.935   6.164
 4436POPC   C1A56955   7.455   8.945   6.464
 4436POPC   D2A56956   7.421   9.003   6.764
 4436POPC   C3A56957   7.424   8.993   7.064
 4436POPC   C4A56958   7.399   8.991   7.364
 4436POPC   C1B56959   7.663   8.904   6.464
 4436POPC   C2B56960   7.630   8.892   6.764
 4436POPC   C3B56961   7.625   8.889   7.064
 4436POPC   C4B56962   7.675   8.880   7.364
 4437POPC   NC356963  28.341  22.159   5.564
 4437POPC   PO456964  28.373  22.144   5.864
 4437POPC   GL156965  28.366  22.168   6.164
 4437POPC   GL256966  28.267  22.142   6.164
 4437POPC   C1A56967  28.389  22.175   6.464
 4437POPC   D2A56968  28.384  22.179   6.764
 4437POPC   C3A56969  28.334  22.163   7.064
 4437POPC   C4A56970  28.340  22.126   7.364
 4437POPC   C1B56971  28.159  22.208   6.464
 4437POPC   C2B56972  28.150  22.240   6.764
 4437POPC   C3B56973  28.136  22.189   7.064
 4437POPC   C4B56974  28.088  22.239   7.364
 4438POPC   NC356975  36.888  15.965   5.564
 4438POPC   PO456976  36.938  15.971   5.864
 4438POPC   GL156977  36.935  15.918   6.164
 4438POPC   GL256978  37.015  15.974   6.164
 4438POPC   C1A56979  36.889  15.937   6.464
 4438POPC   D2A56980  36.928  16.004   6.764
 4438POPC   C3A56981  36.924  15.944   7.064
 4438POPC   C4A56982  36.860  15.914   7.364
 4438POPC   C1B56983  37.192  15.994   6.464
 4438POPC   C2B56984  37.179  16.023   6.764
 4438POPC   C3B56985  37.143  16.030   7.064
 4438POPC   C4B56986  37.185  15.986   7.364
 4439POPC   NC356987  41.571  22.966   5.564
 4439POPC   PO456988  41.551  22.906   5.864
 4439POPC   GL156989  41.569  22.929   6.164
 4439POPC   GL256990  41.491  23.062   6.164
 4439POPC   C1A56991  41.572  22.913   6.464
 4439POPC   D2A56992  41.567  22.948   6.764
 4439POPC   C3A56993  41.523  22.964   7.064
 4439POPC   C4A56994  41.593  22.960   7.364
 4439POPC   C1B56995  41.471  23.142   6.464
 4439POPC   C2B56996  41.432  23.168   6.764
 4439POPC   C3B56997  41.425  23.135   7.064
 4439POPC   C4B56998  41.480  23.166   7.364
 4440POPC   NC356999  30.721  34.551   5.564
 4440POPC   PO457000  30.722  34.540   5.864
 4440POPC   GL157001  30.662  34.610   6.164
 4440POPC   GL257002  30.584  34.640   6.164
 4440POPC   C1A57003  30.672  34.586   6.464
 4440POPC   D2A57004  30.718  34.533   6.764
 4440POPC   C3A57005  30.740  34.625   7.064
 4440POPC   C4A57006  30.728  34.622   7.364
 4440POPC   C1B57007  30.491  34.767   6.464
 4440POPC   C2B57008  30.543  34.728   6.764
 4440POPC   C3B57009  30.548  34.785   7.064
 4440POPC   C4B57010  30.490  34.702   7.364
 4441POPC   NC357011  37.641  12.102   5.564
 4441POPC   PO457012  37.660  12.078   5.864
 4441POPC   GL157013  37.646  12.098   6.164
 4441POPC   GL257014  37.780  11.953   6.164
 4441POPC   C1A57015  37.647  12.079   6.464
 4441POPC   D2A57016  37.661  12.029   6.764
 4441POPC   C3A57017  37.725  12.051   7.064
 4441POPC   C4A57018  37.715  12.058   7.364
 4441POPC   C1B57019  37.774  11.885   6.464
 4441POPC   C2B57020  37.805  11.853   6.764
 4441POPC   C3B57021  37.807  11.854   7.064
 4441POPC   C4B57022  37.822  11.890   7.364
 4442POPC   NC357023  20.637  43.082   5.564
 4442POPC   PO457024  20.574  43.075   5.864
 4442POPC   GL157025  20.633  43.122   6.164
 4442POPC   GL257026  20.517  43.093   6.164
 4442POPC   C1A57027  20.607  43.070   6.464
 4442POPC   D2A57028  20.625  43.146   6.764
 4442POPC   C3A57029  20.621  43.149   7.064
 4442POPC   C4A57030  20.603  43.136   7.364
 4442POPC   C1B57031  20.415  42.945   6.464
 4442POPC   C2B57032  20.370  43.032   6.764
 4442POPC   C3B57033  20.387  43.028   7.064
 4442POPC   C4B57034  20.346  43.035   7.364
 4443POPC   NC357035   2.813  18.331   5.564
 4443POPC   PO457036   2.815  18.289   5.864
 4443POPC   GL157037   2.811  18.308   6.164
 4443POPC   GL257038   2.598  18.263   6.164
 4443POPC   C1A57039   2.725  18.329   6.464
 4443POPC   D2A57040   2.742  18.296   6.764
 4443POPC   C3A57041   2.759  18.244   7.064
 4443POPC   C4A57042   2.782  18.281   7.364
 4443POPC   C1B57043   2.565  18.285   6.464
 4443POPC   C2B57044   2.541  18.265   6.764
 4443POPC   C3B57045   2.496  18.325   7.064
 4443POPC   C4B57046   2.565  18.346   7.364
 4444POPC   NC357047  30.699  24.501   5.564
 4444POPC   PO457048  30.668  24.469   5.864
 4444POPC   GL157049  30.663  24.495   6.164
 4444POPC   GL257050  30.608  24.552   6.164
 4444POPC   C1A57051  30.684  24.468   6.464
 4444POPC   D2A57052  30.707  24.445   6.764
 4444POPC   C3A57053  30.656  24.500   7.064
 4444POPC   C4A57054  30.696  24.446   7.364
 4444POPC   C1B57055  30.528  24.610   6.464
 4444POPC   C2B57056  30.465  24.614   6.764
 4444POPC   C3B57057  30.507  24.620   7.064
 4444POPC   C4B57058  30.468  24.632   7.364
 4445POPC   NC357059  18.331  35.389   5.564
 4445POPC   PO457060  18.282  35.372   5.864
 4445POPC   GL157061  18.285  35.389   6.164
 4445POPC   GL257062  18.195  35.431   6.164
 4445POPC   C1A57063  18.329  35.321   6.464
 4445POPC   D2A57064  18.292  35.319   6.764
 4445POPC   C3A57065  18.234  35.338   7.064
 4445POPC   C4A57066  18.258  35.343   7.364
 4445POPC   C1B57067  17.995  35.373   6.464
 4445POPC   C2B57068  18.064  35.432   6.764
 4445POPC   C3B57069  18.052  35.373   7.064
 4445POPC   C4B57070  18.020  35.378   7.364
 4446POPC   NC357071  15.958  40.796   5.564
 4446POPC   PO457072  15.998  40.793   5.864
 4446POPC   GL157073  15.986  40.799   6.164
 4446POPC   GL257074  15.905  40.906   6.164
 4446POPC   C1A57075  15.975  40.765   6.464
 4446POPC   D2A57076  15.919  40.789   6.764
 4446POPC   C3A57077  15.994  40.802   7.064
 4446POPC   C4A57078  15.955  40.756   7.364
 4446POPC   C1B57079  15.882  41.053   6.464
 4446POPC   C2B57080  15.914  40.981   6.764
 4446POPC   C3B57081  15.844  40.979   7.064
 4446POPC   C4B57082  15.898  41.010   7.364
 4447POPC   NC357083   8.234  28.400   5.564
 4447POPC   PO457084   8.209  28.391   5.864
 4447POPC   GL157085   8.194  28.378   6.164
 4447POPC   GL257086   8.246  28.289   6.164
 4447POPC   C1A57087   8.168  28.365   6.464
 4447POPC   D2A57088   8.189  28.391   6.764
 4447POPC   C3A57089   8.244  28.332   7.064
 4447POPC   C4A57090   8.163  28.326   7.364
 4447POPC   C1B57091   8.259  28.174   6.464
 4447POPC   C2B57092   8.276  28.115   6.764
 4447POPC   C3B57093   8.244  28.159   7.064
 4447POPC   C4B57094   8.267  28.108   7.364
 4448POPC   NC357095  12.060  16.767   5.564
 4448POPC   PO457096  12.035  16.690   5.864
 4448POPC   GL157097  12.118  16.772   6.164
 4448POPC   GL257098  11.918  16.739   6.164
 4448POPC   C1A57099  12.047  16.690   6.464
 4448POPC   D2A57100  12.100  16.691   6.764
 4448POPC   C3A57101  12.096  16.742   7.064
 4448POPC   C4A57102  12.047  16.772   7.364
 4448POPC   C1B57103  11.842  16.719   6.464
 4448POPC   C2B57104  11.846  16.672   6.764
 4448POPC   C3B57105  11.796  16.747   7.064
 4448POPC   C4B57106  11.813  16.712   7.364
 4449POPC   NC357107  29.107   6.635   5.564
 4449POPC   PO457108  29.188   6.624   5.864
 4449POPC   GL157109  29.144   6.659   6.164
 4449POPC   GL257110  29.107   6.554   6.164
 4449POPC   C1A57111  29.170   6.667   6.464
 4449POPC   D2A57112  29.160   6.630   6.764
 4449POPC   C3A57113  29.193   6.610   7.064
 4449POPC   C4A57114  29.099   6.643   7.364
 4449POPC   C1B57115  29.064   6.399   6.464
 4449POPC   C2B57116  29.136   6.433   6.764
 4449POPC   C3B57117  29.104   6.411   7.064
 4449POPC   C4B57118  29.137   6.350   7.364
 4450POPC   NC357119  36.117  43.893   5.564
 4450POPC   PO457120  36.081  43.911   5.864
 4450POPC   GL157121  36.087  43.889   6.164
 4450POPC   GL257122  35.973  43.944   6.164
 4450POPC   C1A57123  36.164  43.928   6.464
 4450POPC   D2A57124  36.087  43.849   6.764
 4450POPC   C3A57125  36.090  43.905   7.064
 4450POPC   C4A57126  36.153  43.924   7.364
 4450POPC   C1B57127  35.896  43.913   6.464
 4450POPC   C2B57128  35.839  43.974   6.764
 4450POPC   C3B57129  35.839  43.958   7.064
 4450POPC   C4B57130  35.898  43.980   7.364
 4451POPC   NC357131  42.327  40.751   5.564
 4451POPC   PO457132  42.349  40.818   5.864
 4451POPC   GL157133  42.359  40.749   6.164
 4451POPC   GL257134  42.392  40.862   6.164
 4451POPC   C1A57135  42.329  40.818   6.464
 4451POPC   D2A57136  42.345  40.814   6.764
 4451POPC   C3A57137  42.307  40.780   7.064
 4451POPC   C4A57138  42.288  40.790   7.364
 4451POPC   C1B57139  42.493  40.943   6.464
 4451POPC   C2B57140  42.549  40.930   6.764
 4451POPC   C3B57141  42.527  40.879   7.064
 4451POPC   C4B57142  42.545  40.946   7.364
 4452POPC   NC357143  22.120  31.466   5.564
 4452POPC   PO457144  22.205  31.454   5.864
 4452POPC   GL157145  22.124  31.506   6.164
 4452POPC   GL257146  22.173  31.393   6.164
 4452POPC   C1A57147  22.114  31.427   6.464
 4452POPC   D2A57148  22.184  31.424   6.764
 4452POPC   C3A57149  22.150  31.491   7.064
 4452POPC   C4A57150  22.116  31.492   7.364
 4452POPC   C1B57151  22.199  31.207   6.464
 4452POPC   C2B57152  22.203  31.218   6.764
 4452POPC   C3B57153  22.188  31.254   7.064
 4452POPC   C4B57154  22.199  31.227   7.364
 4453POPC   NC357155  26.782  11.286   5.564
 4453POPC   PO457156  26.819  11.283   5.864
 4453POPC   GL157157  26.780  11.286   6.164
 4453POPC   GL257158  26.823  11.434   6.164
 4453POPC   C1A57159  26.832  11.258   6.464
 4453POPC   D2A57160  26.830  11.291   6.764
 4453POPC   C3A57161  26.814  11.268   7.064
 4453POPC   C4A57162  26.800  11.303   7.364
 4453POPC   C1B57163  26.845  11.501   6.464
 4453POPC   C2B57164  26.875  11.598   6.764
 4453POPC   C3B57165  26.816  11.537   7.064
 4453POPC   C4B57166  26.868  11.541   7.364
 4454POPC   NC357167  30.668  22.975   5.564
 4454POPC   PO457168  30.721  22.982   5.864
 4454POPC   GL157169  30.709  22.906   6.164
 4454POPC   GL257170  30.549  23.020   6.164
 4454POPC   C1A57171  30.697  22.960   6.464
 4454POPC   D2A57172  30.730  22.918   6.764
 4454POPC   C3A57173  30.681  22.958   7.064
 4454POPC   C4A57174  30.724  22.922   7.364
 4454POPC   C1B57175  30.510  23.087   6.464
 4454POPC   C2B57176  30.500  23.031   6.764
 4454POPC   C3B57177  30.510  23.010   7.064
 4454POPC   C4B57178  30.439  23.021   7.364
 4455POPC   NC357179  40.801   6.628   5.564
 4455POPC   PO457180  40.749   6.649   5.864
 4455POPC   GL157181  40.825   6.677   6.164
 4455POPC   GL257182  40.929   6.599   6.164
 4455POPC   C1A57183  40.762   6.603   6.464
 4455POPC   D2A57184  40.761   6.676   6.764
 4455POPC   C3A57185  40.762   6.625   7.064
 4455POPC   C4A57186  40.755   6.663   7.364
 4455POPC   C1B57187  40.981   6.554   6.464
 4455POPC   C2B57188  41.022   6.608   6.764
 4455POPC   C3B57189  41.012   6.553   7.064
 4455POPC   C4B57190  41.072   6.638   7.364
 4456POPC   NC357191  33.834   2.760   5.564
 4456POPC   PO457192  33.793   2.775   5.864
 4456POPC   GL157193  33.795   2.748   6.164
 4456POPC   GL257194  33.776   2.643   6.164
 4456POPC   C1A57195  33.826   2.741   6.464
 4456POPC   D2A57196  33.776   2.742   6.764
 4456POPC   C3A57197  33.789   2.756   7.064
 4456POPC   C4A57198  33.836   2.761   7.364
 4456POPC   C1B57199  33.752   2.528   6.464
 4456POPC   C2B57200  33.685   2.517   6.764
 4456POPC   C3B57201  33.717   2.485   7.064
 4456POPC   C4B57202  33.749   2.508   7.364
 4457POPC   NC357203  33.023  29.948   5.564
 4457POPC   PO457204  33.063  29.885   5.864
 4457POPC   GL157205  33.045  29.929   6.164
 4457POPC   GL257206  32.877  29.813   6.164
 4457POPC   C1A57207  32.992  29.912   6.464
 4457POPC   D2A57208  33.023  29.883   6.764
 4457POPC   C3A57209  33.063  29.881   7.064
 4457POPC   C4A57210  33.016  29.915   7.364
 4457POPC   C1B57211  32.842  29.840   6.464
 4457POPC   C2B57212  32.820  29.840   6.764
 4457POPC   C3B57213  32.801  29.767   7.064
 4457POPC   C4B57214  32.819  29.803   7.364
 4458POPC   NC357215  38.407   0.438   5.564
 4458POPC   PO457216  38.428   0.408   5.864
 4458POPC   GL157217  38.481   0.482   6.164
 4458POPC   GL257218  38.514   0.284   6.164
 4458POPC   C1A57219  38.457   0.466   6.464
 4458POPC   D2A57220  38.434   0.420   6.764
 4458POPC   C3A57221  38.422   0.426   7.064
 4458POPC   C4A57222  38.494   0.411   7.364
 4458POPC   C1B57223  38.555   0.200   6.464
 4458POPC   C2B57224  38.538   0.173   6.764
 4458POPC   C3B57225  38.492   0.186   7.064
 4458POPC   C4B57226  38.501   0.216   7.364
 4459POPC   NC357227  15.938  41.558   5.564
 4459POPC   PO457228  15.982  41.545   5.864
 4459POPC   GL157229  15.934  41.525   6.164
 4459POPC   GL257230  16.099  41.626   6.164
 4459POPC   C1A57231  15.918  41.566   6.464
 4459POPC   D2A57232  15.944  41.568   6.764
 4459POPC   C3A57233  15.911  41.527   7.064
 4459POPC   C4A57234  15.914  41.541   7.364
 4459POPC   C1B57235  16.204  41.686   6.464
 4459POPC   C2B57236  16.190  41.674   6.764
 4459POPC   C3B57237  16.212  41.693   7.064
 4459POPC   C4B57238  16.161  41.700   7.364
 4460POPC   NC357239  38.484   5.839   5.564
 4460POPC   PO457240  38.443   5.895   5.864
 4460POPC   GL157241  38.455   5.865   6.164
 4460POPC   GL257242  38.387   5.793   6.164
 4460POPC   C1A57243  38.494   5.886   6.464
 4460POPC   D2A57244  38.408   5.909   6.764
 4460POPC   C3A57245  38.473   5.884   7.064
 4460POPC   C4A57246  38.492   5.918   7.364
 4460POPC   C1B57247  38.345   5.648   6.464
 4460POPC   C2B57248  38.360   5.611   6.764
 4460POPC   C3B57249  38.379   5.656   7.064
 4460POPC   C4B57250  38.368   5.668   7.364
 4461POPC   NC357251  35.318   2.725   5.564
 4461POPC   PO457252  35.394   2.785   5.864
 4461POPC   GL157253  35.346   2.739   6.164
 4461POPC   GL257254  35.215   2.662   6.164
 4461POPC   C1A57255  35.400   2.761   6.464
 4461POPC   D2A57256  35.340   2.718   6.764
 4461POPC   C3A57257  35.342   2.807   7.064
 4461POPC   C4A57258  35.324   2.763   7.364
 4461POPC   C1B57259  35.126   2.637   6.464
 4461POPC   C2B57260  35.110   2.617   6.764
 4461POPC   C3B57261  35.102   2.692   7.064
 4461POPC   C4B57262  35.079   2.629   7.364
 4462POPC   NC357263  31.499  36.123   5.564
 4462POPC   PO457264  31.463  36.162   5.864
 4462POPC   GL157265  31.512  36.106   6.164
 4462POPC   GL257266  31.342  36.177   6.164
 4462POPC   C1A57267  31.466  36.164   6.464
 4462POPC   D2A57268  31.485  36.091   6.764
 4462POPC   C3A57269  31.440  36.173   7.064
 4462POPC   C4A57270  31.519  36.091   7.364
 4462POPC   C1B57271  31.237  36.149   6.464
 4462POPC   C2B57272  31.180  36.188   6.764
 4462POPC   C3B57273  31.231  36.191   7.064
 4462POPC   C4B57274  31.250  36.210   7.364
 4463POPC   NC357275  19.816  23.670   5.564
 4463POPC   PO457276  19.796  23.763   5.864
 4463POPC   GL157277  19.874  23.735   6.164
 4463POPC   GL257278  19.957  23.675   6.164
 4463POPC   C1A57279  19.814  23.672   6.464
 4463POPC   D2A57280  19.824  23.735   6.764
 4463POPC   C3A57281  19.797  23.670   7.064
 4463POPC   C4A57282  19.856  23.729   7.364
 4463POPC   C1B57283  20.062  23.555   6.464
 4463POPC   C2B57284  20.027  23.611   6.764
 4463POPC   C3B57285  20.067  23.608   7.064
 4463POPC   C4B57286  20.044  23.564   7.364
 4464POPC   NC357287  38.465  29.912   5.564
 4464POPC   PO457288  38.454  29.968   5.864
 4464POPC   GL157289  38.424  29.923   6.164
 4464POPC   GL257290  38.380  29.922   6.164
 4464POPC   C1A57291  38.409  29.923   6.464
 4464POPC   D2A57292  38.434  29.938   6.764
 4464POPC   C3A57293  38.462  29.962   7.064
 4464POPC   C4A57294  38.449  29.885   7.364
 4464POPC   C1B57295  38.181  29.785   6.464
 4464POPC   C2B57296  38.253  29.831   6.764
 4464POPC   C3B57297  38.224  29.852   7.064
 4464POPC   C4B57298  38.240  29.852   7.364
 4465POPC   NC357299  26.830  36.911   5.564
 4465POPC   PO457300  26.786  36.881   5.864
 4465POPC   GL157301  26.801  36.871   6.164
 4465POPC   GL257302  26.665  36.950   6.164
 4465POPC   C1A57303  26.772  36.917   6.464
 4465POPC   D2A57304  26.830  36.913   6.764
 4465POPC   C3A57305  26.768  36.932   7.064
 4465POPC   C4A57306  26.826  36.873   7.364
 4465POPC   C1B57307  26.528  36.965   6.464
 4465POPC   C2B57308  26.577  36.921   6.764
 4465POPC   C3B57309  26.538  36.896   7.064
 4465POPC   C4B57310  26.620  36.925   7.364
 4466POPC   NC357311  44.704  25.294   5.564
 4466POPC   PO457312  44.673  25.284   5.864
 4466POPC   GL157313  44.657  25.292   6.164
 4466POPC   GL257314  44.610  25.178   6.164
 4466POPC   C1A57315  44.644  25.292   6.464
 4466POPC   D2A57316  44.695  25.294   6.764
 4466POPC   C3A57317  44.658  25.276   7.064
 4466POPC   C4A57318  44.681  25.237   7.364
 4466POPC   C1B57319  44.517  25.014   6.464
 4466POPC   C2B57320  44.504  25.070   6.764
 4466POPC   C3B57321  44.535  25.106   7.064
 4466POPC   C4B57322  44.506  25.081   7.364
 4467POPC   NC357323  23.708   3.509   5.564
 4467POPC   PO457324  23.754   3.580   5.864
 4467POPC   GL157325  23.714   3.586   6.164
 4467POPC   GL257326  23.832   3.613   6.164
 4467POPC   C1A57327  23.736   3.524   6.464
 4467POPC   D2A57328  23.682   3.523   6.764
 4467POPC   C3A57329  23.755   3.565   7.064
 4467POPC   C4A57330  23.676   3.512   7.364
 4467POPC   C1B57331  23.851   3.723   6.464
 4467POPC   C2B57332  23.864   3.705   6.764
 4467POPC   C3B57333  23.841   3.720   7.064
 4467POPC   C4B57334  23.815   3.716   7.364
 4468POPC   NC357335  40.816  10.571   5.564
 4468POPC   PO457336  40.773  10.554   5.864
 4468POPC   GL157337  40.823  10.523   6.164
 4468POPC   GL257338  40.881  10.612   6.164
 4468POPC   C1A57339  40.814  10.527   6.464
 4468POPC   D2A57340  40.829  10.488   6.764
 4468POPC   C3A57341  40.828  10.536   7.064
 4468POPC   C4A57342  40.815  10.522   7.364
 4468POPC   C1B57343  40.940  10.777   6.464
 4468POPC   C2B57344  40.931  10.743   6.764
 4468POPC   C3B57345  40.932  10.727   7.064
 4468POPC   C4B57346  40.966  10.700   7.364
 4469POPC   NC357347  43.925  42.366   5.564
 4469POPC   PO457348  43.890  42.365   5.864
 4469POPC   GL157349  43.864  42.296   6.164
 4469POPC   GL257350  43.967  42.408   6.164
 4469POPC   C1A57351  43.850  42.373   6.464
 4469POPC   D2A57352  43.841  42.289   6.764
 4469POPC   C3A57353  43.853  42.293   7.064
 4469POPC   C4A57354  43.857  42.315   7.364
 4469POPC   C1B57355  44.059  42.522   6.464
 4469POPC   C2B57356  44.081  42.543   6.764
 4469POPC   C3B57357  44.091  42.488   7.064
 4469POPC   C4B57358  44.025  42.475   7.364
 4470POPC   NC357359  12.103  17.480   5.564
 4470POPC   PO457360  12.052  17.526   5.864
 4470POPC   GL157361  12.043  17.468   6.164
 4470POPC   GL257362  12.069  17.609   6.164
 4470POPC   C1A57363  12.111  17.494   6.464
 4470POPC   D2A57364  12.097  17.460   6.764
 4470POPC   C3A57365  12.038  17.465   7.064
 4470POPC   C4A57366  12.041  17.555   7.364
 4470POPC   C1B57367  11.960  17.712   6.464
 4470POPC   C2B57368  12.012  17.725   6.764
 4470POPC   C3B57369  11.950  17.700   7.064
 4470POPC   C4B57370  11.930  17.699   7.364
 4471POPC   NC357371   9.020  10.557   5.564
 4471POPC   PO457372   8.975  10.502   5.864
 4471POPC   GL157373   8.974  10.532   6.164
 4471POPC   GL257374   8.898  10.456   6.164
 4471POPC   C1A57375   8.989  10.485   6.464
 4471POPC   D2A57376   8.992  10.492   6.764
 4471POPC   C3A57377   9.003  10.571   7.064
 4471POPC   C4A57378   8.928  10.561   7.364
 4471POPC   C1B57379   8.793  10.423   6.464
 4471POPC   C2B57380   8.750  10.339   6.764
 4471POPC   C3B57381   8.771  10.394   7.064
 4471POPC   C4B57382   8.764  10.423   7.364
 4472POPC   NC357383  21.390   9.728   5.564
 4472POPC   PO457384  21.409   9.762   5.864
 4472POPC   GL157385  21.403   9.715   6.164
 4472POPC   GL257386  21.271   9.820   6.164
 4472POPC   C1A57387  21.375   9.764   6.464
 4472POPC   D2A57388  21.374   9.712   6.764
 4472POPC   C3A57389  21.336   9.744   7.064
 4472POPC   C4A57390  21.379   9.762   7.364
 4472POPC   C1B57391  21.224   9.904   6.464
 4472POPC   C2B57392  21.270   9.941   6.764
 4472POPC   C3B57393  21.271   9.982   7.064
 4472POPC   C4B57394  21.287   9.983   7.364
 4473POPC   NC357395  29.113  18.256   5.564
 4473POPC   PO457396  29.126  18.274   5.864
 4473POPC   GL157397  29.169  18.279   6.164
 4473POPC   GL257398  29.301  18.270   6.164
 4473POPC   C1A57399  29.154  18.267   6.464
 4473POPC   D2A57400  29.111  18.233   6.764
 4473POPC   C3A57401  29.176  18.233   7.064
 4473POPC   C4A57402  29.103  18.298   7.364
 4473POPC   C1B57403  29.363  18.217   6.464
 4473POPC   C2B57404  29.405  18.195   6.764
 4473POPC   C3B57405  29.331  18.168   7.064
 4473POPC   C4B57406  29.387  18.196   7.364
 4474POPC   NC357407  40.003  34.550   5.564
 4474POPC   PO457408  40.050  34.609   5.864
 4474POPC   GL157409  39.969  34.604   6.164
 4474POPC   GL257410  40.154  34.623   6.164
 4474POPC   C1A57411  40.015  34.566   6.464
 4474POPC   D2A57412  39.960  34.556   6.764
 4474POPC   C3A57413  40.049  34.610   7.064
 4474POPC   C4A57414  40.002  34.541   7.364
 4474POPC   C1B57415  40.218  34.584   6.464
 4474POPC   C2B57416  40.209  34.597   6.764
 4474POPC   C3B57417  40.271  34.622   7.064
 4474POPC   C4B57418  40.244  34.602   7.364
 4475POPC   NC357419  36.899  14.390   5.564
 4475POPC   PO457420  36.886  14.360   5.864
 4475POPC   GL157421  36.889  14.365   6.164
 4475POPC   GL257422  36.886  14.534   6.164
 4475POPC   C1A57423  36.860  14.388   6.464
 4475POPC   D2A57424  36.912  14.383   6.764
 4475POPC   C3A57425  36.948  14.371   7.064
 4475POPC   C4A57426  36.939  14.426   7.364
 4475POPC   C1B57427  36.937  14.650   6.464
 4475POPC   C2B57428  36.925  14.680   6.764
 4475POPC   C3B57429  36.942  14.679   7.064
 4475POPC   C4B57430  36.923  14.649   7.364
 4476POPC   NC357431   1.233  36.130   5.564
 4476POPC   PO457432   1.209  36.127   5.864
 4476POPC   GL157433   1.262  36.158   6.164
 4476POPC   GL257434   1.359  36.044   6.164
 4476POPC   C1A57435   1.239  36.176   6.464
 4476POPC   D2A57436   1.204  36.171   6.764
 4476POPC   C3A57437   1.199  36.142   7.064
 4476POPC   C4A57438   1.257  36.177   7.364
 4476POPC   C1B57439   1.459  36.046   6.464
 4476POPC   C2B57440   1.419  35.992   6.764
 4476POPC   C3B57441   1.463  36.014   7.064
 4476POPC   C4B57442   1.445  35.966   7.364
 4477POPC   NC357443  15.187  37.710   5.564
 4477POPC   PO457444  15.187  37.661   5.864
 4477POPC   GL157445  15.130  37.721   6.164
 4477POPC   GL257446  15.209  37.577   6.164
 4477POPC   C1A57447  15.174  37.688   6.464
 4477POPC   D2A57448  15.141  37.709   6.764
 4477POPC   C3A57449  15.208  37.649   7.064
 4477POPC   C4A57450  15.150  37.722   7.364
 4477POPC   C1B57451  15.278  37.435   6.464
 4477POPC   C2B57452  15.217  37.408   6.764
 4477POPC   C3B57453  15.205  37.458   7.064
 4477POPC   C4B57454  15.253  37.475   7.364
 4478POPC   NC357455  38.481  10.537   5.564
 4478POPC   PO457456  38.427  10.563   5.864
 4478POPC   GL157457  38.455  10.482   6.164
 4478POPC   GL257458  38.528  10.410   6.164
 4478POPC   C1A57459  38.492  10.539   6.464
 4478POPC   D2A57460  38.478  10.515   6.764
 4478POPC   C3A57461  38.446  10.500   7.064
 4478POPC   C4A57462  38.470  10.562   7.364
 4478POPC   C1B57463  38.537  10.295   6.464
 4478POPC   C2B57464  38.590  10.271   6.764
 4478POPC   C3B57465  38.550  10.266   7.064
 4478POPC   C4B57466  38.524  10.321   7.364
 4479POPC   NC357467   0.430  32.980   5.564
 4479POPC   PO457468   0.428  33.047   5.864
 4479POPC   GL157469   0.428  32.988   6.164
 4479POPC   GL257470   0.408  32.857   6.164
 4479POPC   C1A57471   0.457  33.049   6.464
 4479POPC   D2A57472   0.398  33.049   6.764
 4479POPC   C3A57473   0.472  32.980   7.064
 4479POPC   C4A57474   0.390  33.013   7.364
 4479POPC   C1B57475   0.396  32.792   6.464
 4479POPC   C2B57476   0.402  32.777   6.764
 4479POPC   C3B57477   0.388  32.781   7.064
 4479POPC   C4B57478   0.370  32.817   7.364
 4480POPC   NC357479  19.028  28.400   5.564
 4480POPC   PO457480  19.034  28.391   5.864
 4480POPC   GL157481  19.091  28.387   6.164
 4480POPC   GL257482  18.934  28.385   6.164
 4480POPC   C1A57483  19.057  28.399   6.464
 4480POPC   D2A57484  19.088  28.361   6.764
 4480POPC   C3A57485  19.044  28.344   7.064
 4480POPC   C4A57486  19.108  28.335   7.364
 4480POPC   C1B57487  18.828  28.456   6.464
 4480POPC   C2B57488  18.806  28.389   6.764
 4480POPC   C3B57489  18.782  28.441   7.064
 4480POPC   C4B57490  18.829  28.434   7.364
 4481POPC   NC357491  15.137  34.614   5.564
 4481POPC   PO457492  15.161  34.557   5.864
 4481POPC   GL157493  15.226  34.571   6.164
 4481POPC   GL257494  15.197  34.708   6.164
 4481POPC   C1A57495  15.146  34.621   6.464
 4481POPC   D2A57496  15.224  34.534   6.764
 4481POPC   C3A57497  15.206  34.546   7.064
 4481POPC   C4A57498  15.216  34.597   7.364
 4481POPC   C1B57499  15.091  34.789   6.464
 4481POPC   C2B57500  15.093  34.860   6.764
 4481POPC   C3B57501  15.083  34.866   7.064
 4481POPC   C4B57502  15.099  34.801   7.364
 4482POPC   NC357503  26.768  42.303   5.564
 4482POPC   PO457504  26.783  42.381   5.864
 4482POPC   GL157505  26.834  42.366   6.164
 4482POPC   GL257506  26.732  42.264   6.164
 4482POPC   C1A57507  26.825  42.343   6.464
 4482POPC   D2A57508  26.832  42.344   6.764
 4482POPC   C3A57509  26.778  42.383   7.064
 4482POPC   C4A57510  26.867  42.317   7.364
 4482POPC   C1B57511  26.683  42.067   6.464
 4482POPC   C2B57512  26.686  42.083   6.764
 4482POPC   C3B57513  26.713  42.085   7.064
 4482POPC   C4B57514  26.732  42.084   7.364
 4483POPC   NC357515  14.436  30.651   5.564
 4483POPC   PO457516  14.417  30.705   5.864
 4483POPC   GL157517  14.390  30.743   6.164
 4483POPC   GL257518  14.403  30.834   6.164
 4483POPC   C1A57519  14.386  30.678   6.464
 4483POPC   D2A57520  14.362  30.736   6.764
 4483POPC   C3A57521  14.379  30.664   7.064
 4483POPC   C4A57522  14.402  30.653   7.364
 4483POPC   C1B57523  14.440  30.957   6.464
 4483POPC   C2B57524  14.366  30.924   6.764
 4483POPC   C3B57525  14.455  30.937   7.064
 4483POPC   C4B57526  14.383  30.897   7.364
 4484POPC   NC357527   0.481   7.445   5.564
 4484POPC   PO457528   0.484   7.470   5.864
 4484POPC   GL157529   0.476   7.406   6.164
 4484POPC   GL257530   0.301   7.509   6.164
 4484POPC   C1A57531   0.389   7.442   6.464
 4484POPC   D2A57532   0.390   7.388   6.764
 4484POPC   C3A57533   0.446   7.374   7.064
 4484POPC   C4A57534   0.484   7.458   7.364
 4484POPC   C1B57535   0.254   7.576   6.464
 4484POPC   C2B57536   0.208   7.516   6.764
 4484POPC   C3B57537   0.199   7.489   7.064
 4484POPC   C4B57538   0.247   7.565   7.364
 4485POPC   NC357539  36.167  10.520   5.564
 4485POPC   PO457540  36.172  10.547   5.864
 4485POPC   GL157541  36.148  10.494   6.164
 4485POPC   GL257542  36.069  10.624   6.164
 4485POPC   C1A57543  36.141  10.561   6.464
 4485POPC   D2A57544  36.127  10.494   6.764
 4485POPC   C3A57545  36.150  10.536   7.064
 4485POPC   C4A57546  36.141  10.526   7.364
 4485POPC   C1B57547  36.143  10.767   6.464
 4485POPC   C2B57548  36.068  10.743   6.764
 4485POPC   C3B57549  36.145  10.772   7.064
 4485POPC   C4B57550  36.080  10.743   7.364
 4486POPC   NC357551   1.183  24.496   5.564
 4486POPC   PO457552   1.217  24.494   5.864
 4486POPC   GL157553   1.198  24.457   6.164
 4486POPC   GL257554   1.338  24.603   6.164
 4486POPC   C1A57555   1.250  24.494   6.464
 4486POPC   D2A57556   1.240  24.451   6.764
 4486POPC   C3A57557   1.202  24.530   7.064
 4486POPC   C4A57558   1.237  24.504   7.364
 4486POPC   C1B57559   1.409  24.721   6.464
 4486POPC   C2B57560   1.409  24.688   6.764
 4486POPC   C3B57561   1.352  24.696   7.064
 4486POPC   C4B57562   1.396  24.661   7.364
 4487POPC   NC357563  22.118   9.785   5.564
 4487POPC   PO457564  22.205   9.796   5.864
 4487POPC   GL157565  22.203   9.711   6.164
 4487POPC   GL257566  22.160   9.609   6.164
 4487POPC   C1A57567  22.206   9.729   6.464
 4487POPC   D2A57568  22.143   9.718   6.764
 4487POPC   C3A57569  22.131   9.753   7.064
 4487POPC   C4A57570  22.134   9.714   7.364
 4487POPC   C1B57571  22.201   9.497   6.464
 4487POPC   C2B57572  22.191   9.471   6.764
 4487POPC   C3B57573  22.148   9.512   7.064
 4487POPC   C4B57574  22.180   9.539   7.364
 4488POPC   NC357575   3.586  10.519   5.564
 4488POPC   PO457576   3.583  10.507   5.864
 4488POPC   GL157577   3.541  10.539   6.164
 4488POPC   GL257578   3.449  10.617   6.164
 4488POPC   C1A57579   3.520  10.534   6.464
 4488POPC   D2A57580   3.515  10.501   6.764
 4488POPC   C3A57581   3.557  10.571   7.064
 4488POPC   C4A57582   3.520  10.540   7.364
 4488POPC   C1B57583   3.412  10.711   6.464
 4488POPC   C2B57584   3.453  10.748   6.764
 4488POPC   C3B57585   3.383  10.759   7.064
 4488POPC   C4B57586   3.463  10.760   7.364
 4489POPC   NC357587  16.735  33.846   5.564
 4489POPC   PO457588  16.696  33.849   5.864
 4489POPC   GL157589  16.758  33.793   6.164
 4489POPC   GL257590  16.759  33.875   6.164
 4489POPC   C1A57591  16.757  33.760   6.464
 4489POPC   D2A57592  16.702  33.754   6.764
 4489POPC   C3A57593  16.684  33.806   7.064
 4489POPC   C4A57594  16.692  33.824   7.364
 4489POPC   C1B57595  16.788  34.066   6.464
 4489POPC   C2B57596  16.871  34.048   6.764
 4489POPC   C3B57597  16.825  34.032   7.064
 4489POPC   C4B57598  16.815  34.079   7.364
 4490POPC   NC357599  10.518   8.220   5.564
 4490POPC   PO457600  10.491   8.147   5.864
 4490POPC   GL157601  10.555   8.203   6.164
 4490POPC   GL257602  10.503   8.043   6.164
 4490POPC   C1A57603  10.552   8.185   6.464
 4490POPC   D2A57604  10.515   8.149   6.764
 4490POPC   C3A57605  10.509   8.192   7.064
 4490POPC   C4A57606  10.530   8.156   7.364
 4490POPC   C1B57607  10.441   8.006   6.464
 4490POPC   C2B57608  10.432   7.957   6.764
 4490POPC   C3B57609  10.394   7.938   7.064
 4490POPC   C4B57610  10.419   7.970   7.364
 4491POPC   NC357611   1.263  15.922   5.564
 4491POPC   PO457612   1.204  15.965   5.864
 4491POPC   GL157613   1.171  15.916   6.164
 4491POPC   GL257614   1.057  16.019   6.164
 4491POPC   C1A57615   1.223  15.933   6.464
 4491POPC   D2A57616   1.212  16.005   6.764
 4491POPC   C3A57617   1.168  15.938   7.064
 4491POPC   C4A57618   1.194  15.935   7.364
 4491POPC   C1B57619   0.972  15.949   6.464
 4491POPC   C2B57620   1.016  15.989   6.764
 4491POPC   C3B57621   0.995  16.005   7.064
 4491POPC   C4B57622   0.953  16.037   7.364
 4492POPC   NC357623  18.290  16.747   5.564
 4492POPC   PO457624  18.308  16.715   5.864
 4492POPC   GL157625  18.328  16.703   6.164
 4492POPC   GL257626  18.362  16.641   6.164
 4492POPC   C1A57627  18.325  16.762   6.464
 4492POPC   D2A57628  18.310  16.714   6.764
 4492POPC   C3A57629  18.314  16.739   7.064
 4492POPC   C4A57630  18.310  16.750   7.364
 4492POPC   C1B57631  18.450  16.637   6.464
 4492POPC   C2B57632  18.490  16.590   6.764
 4492POPC   C3B57633  18.516  16.578   7.064
 4492POPC   C4B57634  18.474  16.643   7.364
 4493POPC   NC357635  39.241  35.307   5.564
 4493POPC   PO457636  39.241  35.351   5.864
 4493POPC   GL157637  39.265  35.341   6.164
 4493POPC   GL257638  39.153  35.321   6.164
 4493POPC   C1A57639  39.244  35.349   6.464
 4493POPC   D2A57640  39.274  35.382   6.764
 4493POPC   C3A57641  39.205  35.345   7.064
 4493POPC   C4A57642  39.262  35.342   7.364
 4493POPC   C1B57643  38.982  35.266   6.464
 4493POPC   C2B57644  39.041  35.254   6.764
 4493POPC   C3B57645  39.018  35.305   7.064
 4493POPC   C4B57646  39.041  35.250   7.364
 4494POPC   NC357647   2.016  16.715   5.564
 4494POPC   PO457648   1.967  16.715   5.864
 4494POPC   GL157649   1.975  16.746   6.164
 4494POPC   GL257650   2.013  16.633   6.164
 4494POPC   C1A57651   2.012  16.710   6.464
 4494POPC   D2A57652   1.991  16.757   6.764
 4494POPC   C3A57653   1.949  16.734   7.064
 4494POPC   C4A57654   1.984  16.761   7.364
 4494POPC   C1B57655   2.022  16.494   6.464
 4494POPC   C2B57656   1.955  16.517   6.764
 4494POPC   C3B57657   2.024  16.436   7.064
 4494POPC   C4B57658   1.968  16.486   7.364
 4495POPC   NC357659  41.582  22.159   5.564
 4495POPC   PO457660  41.522  22.180   5.864
 4495POPC   GL157661  41.603  22.121   6.164
 4495POPC   GL257662  41.517  22.062   6.164
 4495POPC   C1A57663  41.534  22.178   6.464
 4495POPC   D2A57664  41.601  22.171   6.764
 4495POPC   C3A57665  41.569  22.186   7.064
 4495POPC   C4A57666  41.555  22.180   7.364
 4495POPC   C1B57667  41.345  22.010   6.464
 4495POPC   C2B57668  41.379  22.029   6.764
 4495POPC   C3B57669  41.337  22.012   7.064
 4495POPC   C4B57670  41.362  21.960   7.364
 4496POPC   NC357671  35.359  26.000   5.564
 4496POPC   PO457672  35.304  26.063   5.864
 4496POPC   GL157673  35.324  26.004   6.164
 4496POPC   GL257674  35.376  26.207   6.164
 4496POPC   C1A57675  35.389  26.046   6.464
 4496POPC   D2A57676  35.400  26.013   6.764
 4496POPC   C3A57677  35.324  26.058   7.064
 4496POPC   C4A57678  35.319  26.069   7.364
 4496POPC   C1B57679  35.425  26.334   6.464
 4496POPC   C2B57680  35.428  26.270   6.764
 4496POPC   C3B57681  35.345  26.298   7.064
 4496POPC   C4B57682  35.372  26.278   7.364
 4497POPC   NC357683  43.117  24.473   5.564
 4497POPC   PO457684  43.128  24.490   5.864
 4497POPC   GL157685  43.108  24.485   6.164
 4497POPC   GL257686  43.167  24.615   6.164
 4497POPC   C1A57687  43.091  24.493   6.464
 4497POPC   D2A57688  43.088  24.463   6.764
 4497POPC   C3A57689  43.072  24.472   7.064
 4497POPC   C4A57690  43.069  24.532   7.364
 4497POPC   C1B57691  43.172  24.730   6.464
 4497POPC   C2B57692  43.198  24.716   6.764
 4497POPC   C3B57693  43.171  24.700   7.064
 4497POPC   C4B57694  43.208  24.707   7.364
 4498POPC   NC357695   0.456  30.654   5.564
 4498POPC   PO457696   0.460  30.696   5.864
 4498POPC   GL157697   0.396  30.683   6.164
 4498POPC   GL257698   0.400  30.827   6.164
 4498POPC   C1A57699   0.401  30.738   6.464
 4498POPC   D2A57700   0.460  30.742   6.764
 4498POPC   C3A57701   0.477  30.651   7.064
 4498POPC   C4A57702   0.403  30.704   7.364
 4498POPC   C1B57703   0.476  30.965   6.464
 4498POPC   C2B57704   0.466  30.914   6.764
 4498POPC   C3B57705   0.483  30.915   7.064
 4498POPC   C4B57706   0.504  30.950   7.364
 4499POPC   NC357707  25.249  10.526   5.564
 4499POPC   PO457708  25.230  10.549   5.864
 4499POPC   GL157709  25.242  10.514   6.164
 4499POPC   GL257710  25.201  10.448   6.164
 4499POPC   C1A57711  25.272  10.559   6.464
 4499POPC   D2A57712  25.305  10.531   6.764
 4499POPC   C3A57713  25.275  10.509   7.064
 4499POPC   C4A57714  25.306  10.503   7.364
 4499POPC   C1B57715  25.045  10.366   6.464
 4499POPC   C2B57716  25.091  10.339   6.764
 4499POPC   C3B57717  25.029  10.394   7.064
 4499POPC   C4B57718  25.022  10.355   7.364
 4500POPC   NC357719  19.093  29.184   5.564
 4500POPC   PO457720  19.016  29.115   5.864
 4500POPC   GL157721  19.019  29.128   6.164
 4500POPC   GL257722  18.927  29.209   6.164
 4500POPC   C1A57723  19.091  29.181   6.464
 4500POPC   D2A57724  19.052  29.163   6.764
 4500POPC   C3A57725  19.064  29.176   7.064
 4500POPC   C4A57726  19.078  29.125   7.364
 4500POPC   C1B57727  18.836  29.158   6.464
 4500POPC   C2B57728  18.788  29.195   6.764
 4500POPC   C3B57729  18.774  29.186   7.064
 4500POPC   C4B57730  18.851  29.149   7.364
 4501POPC   NC357731   7.406  19.820   5.564
 4501POPC   PO457732   7.415  19.835   5.864
 4501POPC   GL157733   7.468  19.809   6.164
 4501POPC   GL257734   7.511  19.752   6.164
 4501POPC   C1A57735   7.452  19.790   6.464
 4501POPC   D2A57736   7.440  19.808   6.764
 4501POPC   C3A57737   7.397  19.829   7.064
 4501POPC   C4A57738   7.420  19.801   7.364
 4501POPC   C1B57739   7.508  19.650   6.464
 4501POPC   C2B57740   7.479  19.653   6.764
 4501POPC   C3B57741   7.558  19.601   7.064
 4501POPC   C4B57742   7.539  19.616   7.364
 4502POPC   NC357743  36.128  11.339   5.564
 4502POPC   PO457744  36.096  11.346   5.864
 4502POPC   GL157745  36.123  11.303   6.164
 4502POPC   GL257746  36.132  11.431   6.164
 4502POPC   C1A57747  36.085  11.299   6.464
 4502POPC   D2A57748  36.137  11.282   6.764
 4502POPC   C3A57749  36.160  11.256   7.064
 4502POPC   C4A57750  36.131  11.346   7.364
 4502POPC   C1B57751  36.204  11.571   6.464
 4502POPC   C2B57752  36.271  11.481   6.764
 4502POPC   C3B57753  36.213  11.554   7.064
 4502POPC   C4B57754  36.272  11.539   7.364
 4503POPC   NC357755  11.296  11.335   5.564
 4503POPC   PO457756  11.259  11.298   5.864
 4503POPC   GL157757  11.250  11.338   6.164
 4503POPC   GL257758  11.367  11.304   6.164
 4503POPC   C1A57759  11.348  11.326   6.464
 4503POPC   D2A57760  11.275  11.264   6.764
 4503POPC   C3A57761  11.287  11.260   7.064
 4503POPC   C4A57762  11.273  11.346   7.364
 4503POPC   C1B57763  11.524  11.189   6.464
 4503POPC   C2B57764  11.534  11.190   6.764
 4503POPC   C3B57765  11.559  11.235   7.064
 4503POPC   C4B57766  11.521  11.203   7.364
 4504POPC   NC357767  43.857   6.598   5.564
 4504POPC   PO457768  43.936   6.627   5.864
 4504POPC   GL157769  43.866   6.604   6.164
 4504POPC   GL257770  44.025   6.669   6.164
 4504POPC   C1A57771  43.889   6.662   6.464
 4504POPC   D2A57772  43.875   6.623   6.764
 4504POPC   C3A57773  43.912   6.658   7.064
 4504POPC   C4A57774  43.899   6.650   7.364
 4504POPC   C1B57775  44.106   6.669   6.464
 4504POPC   C2B57776  44.170   6.743   6.764
 4504POPC   C3B57777  44.103   6.698   7.064
 4504POPC   C4B57778  44.165   6.670   7.364
 4505POPC   NC357779   7.403  33.806   5.564
 4505POPC   PO457780   7.470  33.836   5.864
 4505POPC   GL157781   7.460  33.830   6.164
 4505POPC   GL257782   7.470  33.674   6.164
 4505POPC   C1A57783   7.372  33.805   6.464
 4505POPC   D2A57784   7.422  33.800   6.764
 4505POPC   C3A57785   7.445  33.783   7.064
 4505POPC   C4A57786   7.468  33.836   7.364
 4505POPC   C1B57787   7.587  33.586   6.464
 4505POPC   C2B57788   7.532  33.587   6.764
 4505POPC   C3B57789   7.618  33.575   7.064
 4505POPC   C4B57790   7.606  33.575   7.364
 4506POPC   NC357791  19.869  37.668   5.564
 4506POPC   PO457792  19.845  37.643   5.864
 4506POPC   GL157793  19.787  37.728   6.164
 4506POPC   GL257794  19.937  37.764   6.164
 4506POPC   C1A57795  19.820  37.721   6.464
 4506POPC   D2A57796  19.789  37.699   6.764
 4506POPC   C3A57797  19.834  37.664   7.064
 4506POPC   C4A57798  19.843  37.699   7.364
 4506POPC   C1B57799  20.046  37.827   6.464
 4506POPC   C2B57800  20.002  37.781   6.764
 4506POPC   C3B57801  20.013  37.797   7.064
 4506POPC   C4B57802  20.094  37.771   7.364
 4507POPC   NC357803  19.093  37.696   5.564
 4507POPC   PO457804  19.088  37.657   5.864
 4507POPC   GL157805  19.023  37.679   6.164
 4507POPC   GL257806  18.969  37.571   6.164
 4507POPC   C1A57807  19.042  37.634   6.464
 4507POPC   D2A57808  19.028  37.673   6.764
 4507POPC   C3A57809  19.090  37.645   7.064
 4507POPC   C4A57810  19.044  37.643   7.364
 4507POPC   C1B57811  18.934  37.460   6.464
 4507POPC   C2B57812  18.942  37.439   6.764
 4507POPC   C3B57813  18.928  37.450   7.064
 4507POPC   C4B57814  19.021  37.442   7.364
 4508POPC   NC357815  43.870  13.650   5.564
 4508POPC   PO457816  43.870  13.581   5.864
 4508POPC   GL157817  43.930  13.660   6.164
 4508POPC   GL257818  43.784  13.595   6.164
 4508POPC   C1A57819  43.864  13.599   6.464
 4508POPC   D2A57820  43.878  13.670   6.764
 4508POPC   C3A57821  43.883  13.633   7.064
 4508POPC   C4A57822  43.886  13.621   7.364
 4508POPC   C1B57823  43.669  13.506   6.464
 4508POPC   C2B57824  43.609  13.530   6.764
 4508POPC   C3B57825  43.667  13.561   7.064
 4508POPC   C4B57826  43.640  13.560   7.364
 4509POPC   NC357827  20.637   1.254   5.564
 4509POPC   PO457828  20.625   1.232   5.864
 4509POPC   GL157829  20.635   1.219   6.164
 4509POPC   GL257830  20.697   1.129   6.164
 4509POPC   C1A57831  20.651   1.199   6.464
 4509POPC   D2A57832  20.571   1.262   6.764
 4509POPC   C3A57833  20.627   1.168   7.064
 4509POPC   C4A57834  20.612   1.233   7.364
 4509POPC   C1B57835  20.663   0.942   6.464
 4509POPC   C2B57836  20.734   0.976   6.764
 4509POPC   C3B57837  20.657   0.956   7.064
 4509POPC   C4B57838  20.678   0.971   7.364
 4510POPC   NC357839  17.462  39.205   5.564
 4510POPC   PO457840  17.497  39.189   5.864
 4510POPC   GL157841  17.530  39.256   6.164
 4510POPC   GL257842  17.390  39.322   6.164
 4510POPC   C1A57843  17.495  39.224   6.464
 4510POPC   D2A57844  17.466  39.257   6.764
 4510POPC   C3A57845  17.475  39.218   7.064
 4510POPC   C4A57846  17.491  39.224   7.364
 4510POPC   C1B57847  17.230  39.308   6.464
 4510POPC   C2B57848  17.241  39.305   6.764
 4510POPC   C3B57849  17.316  39.344   7.064
 4510POPC   C4B57850  17.262  39.337   7.364
 4511POPC   NC357851   8.163  38.419   5.564
 4511POPC   PO457852   8.205  38.452   5.864
 4511POPC   GL157853   8.193  38.408   6.164
 4511POPC   GL257854   8.051  38.353   6.164
 4511POPC   C1A57855   8.239  38.432   6.464
 4511POPC   D2A57856   8.238  38.469   6.764
 4511POPC   C3A57857   8.192  38.485   7.064
 4511POPC   C4A57858   8.156  38.461   7.364
 4511POPC   C1B57859   7.926  38.333   6.464
 4511POPC   C2B57860   7.945  38.309   6.764
 4511POPC   C3B57861   8.006  38.347   7.064
 4511POPC   C4B57862   7.984  38.305   7.364
 4512POPC   NC357863  30.745   8.977   5.564
 4512POPC   PO457864  30.659   8.976   5.864
 4512POPC   GL157865  30.657   8.924   6.164
 4512POPC   GL257866  30.694   9.131   6.164
 4512POPC   C1A57867  30.717   8.978   6.464
 4512POPC   D2A57868  30.690   9.013   6.764
 4512POPC   C3A57869  30.730   8.964   7.064
 4512POPC   C4A57870  30.661   8.968   7.364
 4512POPC   C1B57871  30.704   9.227   6.464
 4512POPC   C2B57872  30.758   9.253   6.764
 4512POPC   C3B57873  30.706   9.185   7.064
 4512POPC   C4B57874  30.754   9.248   7.364
 4513POPC   NC357875   5.088  22.185   5.564
 4513POPC   PO457876   5.136  22.171   5.864
 4513POPC   GL157877   5.127  22.133   6.164
 4513POPC   GL257878   5.145  22.271   6.164
 4513POPC   C1A57879   5.061  22.178   6.464
 4513POPC   D2A57880   5.115  22.127   6.764
 4513POPC   C3A57881   5.108  22.173   7.064
 4513POPC   C4A57882   5.054  22.207   7.364
 4513POPC   C1B57883   5.130  22.371   6.464
 4513POPC   C2B57884   5.122  22.455   6.764
 4513POPC   C3B57885   5.098  22.446   7.064
 4513POPC   C4B57886   5.151  22.365   7.364
 4514POPC   NC357887  42.367  15.182   5.564
 4514POPC   PO457888  42.294  15.157   5.864
 4514POPC   GL157889  42.377  15.192   6.164
 4514POPC   GL257890  42.404  15.065   6.164
 4514POPC   C1A57891  42.381  15.189   6.464
 4514POPC   D2A57892  42.309  15.213   6.764
 4514POPC   C3A57893  42.302  15.130   7.064
 4514POPC   C4A57894  42.360  15.148   7.364
 4514POPC   C1B57895  42.500  14.928   6.464
 4514POPC   C2B57896  42.455  15.014   6.764
 4514POPC   C3B57897  42.457  14.949   7.064
 4514POPC   C4B57898  42.469  14.939   7.364
 4515POPC   NC357899   2.027  21.386   5.564
 4515POPC   PO457900   2.038  21.434   5.864
 4515POPC   GL157901   2.010  21.367   6.164
 4515POPC   GL257902   2.129  21.282   6.164
 4515POPC   C1A57903   1.968  21.405   6.464
 4515POPC   D2A57904   1.983  21.412   6.764
 4515POPC   C3A57905   1.980  21.337   7.064
 4515POPC   C4A57906   1.978  21.359   7.364
 4515POPC   C1B57907   2.186  21.270   6.464
 4515POPC   C2B57908   2.201  21.306   6.764
 4515POPC   C3B57909   2.173  21.268   7.064
 4515POPC   C4B57910   2.202  21.216   7.364
 4516POPC   NC357911  30.742  10.505   5.564
 4516POPC   PO457912  30.680  10.500   5.864
 4516POPC   GL157913  30.717  10.567   6.164
 4516POPC   GL257914  30.726  10.632   6.164
 4516POPC   C1A57915  30.725  10.514   6.464
 4516POPC   D2A57916  30.675  10.567   6.764
 4516POPC   C3A57917  30.690  10.517   7.064
 4516POPC   C4A57918  30.700  10.523   7.364
 4516POPC   C1B57919  30.714  10.732   6.464
 4516POPC   C2B57920  30.805  10.813   6.764
 4516POPC   C3B57921  30.733  10.794   7.064
 4516POPC   C4B57922  30.762  10.812   7.364
 4517POPC   NC357923  42.287  27.632   5.564
 4517POPC   PO457924  42.378  27.618   5.864
 4517POPC   GL157925  42.307  27.557   6.164
 4517POPC   GL257926  42.233  27.589   6.164
 4517POPC   C1A57927  42.354  27.574   6.464
 4517POPC   D2A57928  42.305  27.624   6.764
 4517POPC   C3A57929  42.360  27.552   7.064
 4517POPC   C4A57930  42.292  27.619   7.364
 4517POPC   C1B57931  42.039  27.608   6.464
 4517POPC   C2B57932  42.073  27.640   6.764
 4517POPC   C3B57933  42.046  27.600   7.064
 4517POPC   C4B57934  42.104  27.577   7.364
 4518POPC   NC357935  15.931  42.289   5.564
 4518POPC   PO457936  15.926  42.292   5.864
 4518POPC   GL157937  15.913  42.321   6.164
 4518POPC   GL257938  15.796  42.323   6.164
 4518POPC   C1A57939  15.976  42.375   6.464
 4518POPC   D2A57940  15.978  42.292   6.764
 4518POPC   C3A57941  15.974  42.369   7.064
 4518POPC   C4A57942  15.976  42.372   7.364
 4518POPC   C1B57943  15.707  42.257   6.464
 4518POPC   C2B57944  15.725  42.198   6.764
 4518POPC   C3B57945  15.733  42.213   7.064
 4518POPC   C4B57946  15.751  42.208   7.364
 4519POPC   NC357947  43.150  39.267   5.564
 4519POPC   PO457948  43.123  39.225   5.864
 4519POPC   GL157949  43.062  39.227   6.164
 4519POPC   GL257950  43.010  39.353   6.164
 4519POPC   C1A57951  43.084  39.215   6.464
 4519POPC   D2A57952  43.107  39.244   6.764
 4519POPC   C3A57953  43.120  39.212   7.064
 4519POPC   C4A57954  43.087  39.266   7.364
 4519POPC   C1B57955  42.983  39.442   6.464
 4519POPC   C2B57956  42.933  39.437   6.764
 4519POPC   C3B57957  42.923  39.455   7.064
 4519POPC   C4B57958  42.916  39.424   7.364
 4520POPC   NC357959  27.623   1.228   5.564
 4520POPC   PO457960  27.622   1.183   5.864
 4520POPC   GL157961  27.567   1.259   6.164
 4520POPC   GL257962  27.510   1.240   6.164
 4520POPC   C1A57963  27.570   1.212   6.464
 4520POPC   D2A57964  27.617   1.182   6.764
 4520POPC   C3A57965  27.559   1.200   7.064
 4520POPC   C4A57966  27.640   1.195   7.364
 4520POPC   C1B57967  27.351   1.261   6.464
 4520POPC   C2B57968  27.382   1.249   6.764
 4520POPC   C3B57969  27.389   1.181   7.064
 4520POPC   C4B57970  27.309   1.203   7.364
 4521POPC   NC357971  26.049   3.546   5.564
 4521POPC   PO457972  26.050   3.587   5.864
 4521POPC   GL157973  26.041   3.512   6.164
 4521POPC   GL257974  26.130   3.549   6.164
 4521POPC   C1A57975  26.045   3.545   6.464
 4521POPC   D2A57976  25.995   3.502   6.764
 4521POPC   C3A57977  26.035   3.583   7.064
 4521POPC   C4A57978  26.043   3.564   7.364
 4521POPC   C1B57979  26.291   3.615   6.464
 4521POPC   C2B57980  26.304   3.613   6.764
 4521POPC   C3B57981  26.297   3.582   7.064
 4521POPC   C4B57982  26.277   3.633   7.364
 4522POPC   NC357983  18.248  12.836   5.564
 4522POPC   PO457984  18.304  12.877   5.864
 4522POPC   GL157985  18.320  12.811   6.164
 4522POPC   GL257986  18.417  12.728   6.164
 4522POPC   C1A57987  18.270  12.846   6.464
 4522POPC   D2A57988  18.332  12.819   6.764
 4522POPC   C3A57989  18.250  12.863   7.064
 4522POPC   C4A57990  18.317  12.851   7.364
 4522POPC   C1B57991  18.460  12.654   6.464
 4522POPC   C2B57992  18.509  12.726   6.764
 4522POPC   C3B57993  18.458  12.702   7.064
 4522POPC   C4B57994  18.510  12.666   7.364
 4523POPC   NC357995  15.156  14.391   5.564
 4523POPC   PO457996  15.188  14.432   5.864
 4523POPC   GL157997  15.152  14.419   6.164
 4523POPC   GL257998  15.100  14.339   6.164
 4523POPC   C1A57999  15.196  14.360   6.464
 4523POPC   D2A58000  15.143  14.385   6.764
 4523POPC   C3A58001  15.189  14.396   7.064
 4523POPC   C4A58002  15.200  14.431   7.364
 4523POPC   C1B58003  14.950  14.333   6.464
 4523POPC   C2B58004  14.931  14.327   6.764
 4523POPC   C3B58005  14.943  14.306   7.064
 4523POPC   C4B58006  14.960  14.355   7.364
 4524POPC   NC358007  35.375  36.858   5.564
 4524POPC   PO458008  35.401  36.877   5.864
 4524POPC   GL158009  35.318  36.902   6.164
 4524POPC   GL258010  35.496  36.848   6.164
 4524POPC   C1A58011  35.358  36.874   6.464
 4524POPC   D2A58012  35.332  36.860   6.764
 4524POPC   C3A58013  35.389  36.890   7.064
 4524POPC   C4A58014  35.310  36.916   7.364
 4524POPC   C1B58015  35.635  36.928   6.464
 4524POPC   C2B58016  35.584  36.926   6.764
 4524POPC   C3B58017  35.604  36.863   7.064
 4524POPC   C4B58018  35.646  36.860   7.364
 4525POPC   NC358019  25.306  22.983   5.564
 4525POPC   PO458020  25.254  22.917   5.864
 4525POPC   GL158021  25.284  22.948   6.164
 4525POPC   GL258022  25.306  23.020   6.164
 4525POPC   C1A58023  25.239  22.983   6.464
 4525POPC   D2A58024  25.231  22.911   6.764
 4525POPC   C3A58025  25.220  22.935   7.064
 4525POPC   C4A58026  25.292  22.962   7.364
 4525POPC   C1B58027  25.384  23.194   6.464
 4525POPC   C2B58028  25.319  23.201   6.764
 4525POPC   C3B58029  25.298  23.206   7.064
 4525POPC   C4B58030  25.378  23.166   7.364
 4526POPC   NC358031  43.088  27.623   5.564
 4526POPC   PO458032  43.159  27.548   5.864
 4526POPC   GL158033  43.109  27.560   6.164
 4526POPC   GL258034  43.156  27.492   6.164
 4526POPC   C1A58035  43.150  27.594   6.464
 4526POPC   D2A58036  43.128  27.596   6.764
 4526POPC   C3A58037  43.160  27.591   7.064
 4526POPC   C4A58038  43.153  27.589   7.364
 4526POPC   C1B58039  43.295  27.443   6.464
 4526POPC   C2B58040  43.287  27.407   6.764
 4526POPC   C3B58041  43.323  27.428   7.064
 4526POPC   C4B58042  43.297  27.425   7.364
 4527POPC   NC358043  19.868  12.861   5.564
 4527POPC   PO458044  19.827  12.822   5.864
 4527POPC   GL158045  19.816  12.825   6.164
 4527POPC   GL258046  19.681  12.872   6.164
 4527POPC   C1A58047  19.787  12.851   6.464
 4527POPC   D2A58048  19.820  12.806   6.764
 4527POPC   C3A58049  19.848  12.804   7.064
 4527POPC   C4A58050  19.863  12.877   7.364
 4527POPC   C1B58051  19.553  12.909   6.464
 4527POPC   C2B58052  19.555  12.945   6.764
 4527POPC   C3B58053  19.597  12.876   7.064
 4527POPC   C4B58054  19.591  12.889   7.364
 4528POPC   NC358055  35.343  28.362   5.564
 4528POPC   PO458056  35.318  28.383   5.864
 4528POPC   GL158057  35.336  28.344   6.164
 4528POPC   GL258058  35.494  28.460   6.164
 4528POPC   C1A58059  35.391  28.361   6.464
 4528POPC   D2A58060  35.378  28.364   6.764
 4528POPC   C3A58061  35.387  28.388   7.064
 4528POPC   C4A58062  35.320  28.395   7.364
 4528POPC   C1B58063  35.581  28.509   6.464
 4528POPC   C2B58064  35.557  28.523   6.764
 4528POPC   C3B58065  35.573  28.472   7.064
 4528POPC   C4B58066  35.536  28.508   7.364
 4529POPC   NC358067  26.831  25.309   5.564
 4529POPC   PO458068  26.840  25.313   5.864
 4529POPC   GL158069  26.855  25.286   6.164
 4529POPC   GL258070  26.810  25.363   6.164
 4529POPC   C1A58071  26.774  25.259   6.464
 4529POPC   D2A58072  26.837  25.300   6.764
 4529POPC   C3A58073  26.771  25.266   7.064
 4529POPC   C4A58074  26.860  25.274   7.364
 4529POPC   C1B58075  26.735  25.515   6.464
 4529POPC   C2B58076  26.719  25.537   6.764
 4529POPC   C3B58077  26.698  25.473   7.064
 4529POPC   C4B58078  26.675  25.487   7.364
 4530POPC   NC358079   1.231  39.244   5.564
 4530POPC   PO458080   1.217  39.263   5.864
 4530POPC   GL158081   1.178  39.216   6.164
 4530POPC   GL258082   1.312  39.148   6.164
 4530POPC   C1A58083   1.193  39.245   6.464
 4530POPC   D2A58084   1.169  39.247   6.764
 4530POPC   C3A58085   1.244  39.195   7.064
 4530POPC   C4A58086   1.177  39.236   7.364
 4530POPC   C1B58087   1.331  39.070   6.464
 4530POPC   C2B58088   1.394  39.040   6.764
 4530POPC   C3B58089   1.398  39.034   7.064
 4530POPC   C4B58090   1.363  39.074   7.364
 4531POPC   NC358091  29.893   2.024   5.564
 4531POPC   PO458092  29.961   1.979   5.864
 4531POPC   GL158093  29.951   1.999   6.164
 4531POPC   GL258094  30.047   2.021   6.164
 4531POPC   C1A58095  29.878   1.941   6.464
 4531POPC   D2A58096  29.889   2.001   6.764
 4531POPC   C3A58097  29.967   1.944   7.064
 4531POPC   C4A58098  29.923   1.996   7.364
 4531POPC   C1B58099  30.072   2.125   6.464
 4531POPC   C2B58100  30.120   2.152   6.764
 4531POPC   C3B58101  30.102   2.146   7.064
 4531POPC   C4B58102  30.164   2.128   7.364
 4532POPC   NC358103  39.218  19.085   5.564
 4532POPC   PO458104  39.206  19.070   5.864
 4532POPC   GL158105  39.212  19.024   6.164
 4532POPC   GL258106  39.273  19.138   6.164
 4532POPC   C1A58107  39.188  19.024   6.464
 4532POPC   D2A58108  39.271  19.024   6.764
 4532POPC   C3A58109  39.200  19.088   7.064
 4532POPC   C4A58110  39.250  19.052   7.364
 4532POPC   C1B58111  39.240  19.314   6.464
 4532POPC   C2B58112  39.228  19.315   6.764
 4532POPC   C3B58113  39.261  19.352   7.064
 4532POPC   C4B58114  39.238  19.286   7.364
 4533POPC   NC358115  36.109   9.748   5.564
 4533POPC   PO458116  36.110   9.782   5.864
 4533POPC   GL158117  36.101   9.748   6.164
 4533POPC   GL258118  36.222   9.638   6.164
 4533POPC   C1A58119  36.177   9.713   6.464
 4533POPC   D2A58120  36.171   9.780   6.764
 4533POPC   C3A58121  36.098   9.766   7.064
 4533POPC   C4A58122  36.127   9.723   7.364
 4533POPC   C1B58123  36.272   9.563   6.464
 4533POPC   C2B58124  36.298   9.553   6.764
 4533POPC   C3B58125  36.285   9.560   7.064
 4533POPC   C4B58126  36.295   9.603   7.364
 4534POPC   NC358127  12.088  28.392   5.564
 4534POPC   PO458128  12.043  28.401   5.864
 4534POPC   GL158129  12.084  28.350   6.164
 4534POPC   GL258130  12.154  28.499   6.164
 4534POPC   C1A58131  12.057  28.380   6.464
 4534POPC   D2A58132  12.074  28.350   6.764
 4534POPC   C3A58133  12.111  28.354   7.064
 4534POPC   C4A58134  12.044  28.330   7.364
 4534POPC   C1B58135  12.226  28.580   6.464
 4534POPC   C2B58136  12.267  28.553   6.764
 4534POPC   C3B58137  12.241  28.537   7.064
 4534POPC   C4B58138  12.225  28.579   7.364
 4535POPC   NC358139   2.717  24.494   5.564
 4535POPC   PO458140   2.804  24.469   5.864
 4535POPC   GL158141   2.726  24.494   6.164
 4535POPC   GL258142   2.831  24.352   6.164
 4535POPC   C1A58143   2.728  24.527   6.464
 4535POPC   D2A58144   2.723  24.459   6.764
 4535POPC   C3A58145   2.758  24.465   7.064
 4535POPC   C4A58146   2.743  24.480   7.364
 4535POPC   C1B58147   2.954  24.323   6.464
 4535POPC   C2B58148   2.949  24.284   6.764
 4535POPC   C3B58149   2.927  24.323   7.064
 4535POPC   C4B58150   2.947  24.339   7.364
 4536POPC   NC358151  20.597  36.095   5.564
 4536POPC   PO458152  20.625  36.160   5.864
 4536POPC   GL158153  20.642  36.130   6.164
 4536POPC   GL258154  20.577  36.265   6.164
 4536POPC   C1A58155  20.641  36.140   6.464
 4536POPC   D2A58156  20.643  36.127   6.764
 4536POPC   C3A58157  20.569  36.079   7.064
 4536POPC   C4A58158  20.595  36.174   7.364
 4536POPC   C1B58159  20.617  36.415   6.464
 4536POPC   C2B58160  20.565  36.386   6.764
 4536POPC   C3B58161  20.632  36.336   7.064
 4536POPC   C4B58162  20.644  36.406   7.364
 4537POPC   NC358163  11.316  13.649   5.564
 4537POPC   PO458164  11.271  13.665   5.864
 4537POPC   GL158165  11.251  13.602   6.164
 4537POPC   GL258166  11.170  13.585   6.164
 4537POPC   C1A58167  11.320  13.605   6.464
 4537POPC   D2A58168  11.330  13.671   6.764
 4537POPC   C3A58169  11.300  13.666   7.064
 4537POPC   C4A58170  11.318  13.645   7.364
 4537POPC   C1B58171  11.026  13.586   6.464
 4537POPC   C2B58172  11.072  13.632   6.764
 4537POPC   C3B58173  11.040  13.614   7.064
 4537POPC   C4B58174  11.099  13.645   7.364
 4538POPC   NC358175  15.934  35.324   5.564
 4538POPC   PO458176  15.983  35.397   5.864
 4538POPC   GL158177  15.920  35.335   6.164
 4538POPC   GL258178  16.011  35.476   6.164
 4538POPC   C1A58179  15.949  35.355   6.464
 4538POPC   D2A58180  15.995  35.359   6.764
 4538POPC   C3A58181  15.914  35.386   7.064
 4538POPC   C4A58182  15.995  35.346   7.364
 4538POPC   C1B58183  16.035  35.618   6.464
 4538POPC   C2B58184  16.028  35.581   6.764
 4538POPC   C3B58185  16.030  35.594   7.064
 4538POPC   C4B58186  16.033  35.591   7.364
 4539POPC   NC358187   9.718  24.503   5.564
 4539POPC   PO458188   9.769  24.493   5.864
 4539POPC   GL158189   9.748  24.509   6.164
 4539POPC   GL258190   9.758  24.564   6.164
 4539POPC   C1A58191   9.730  24.538   6.464
 4539POPC   D2A58192   9.750  24.473   6.764
 4539POPC   C3A58193   9.766  24.530   7.064
 4539POPC   C4A58194   9.769  24.479   7.364
 4539POPC   C1B58195   9.835  24.731   6.464
 4539POPC   C2B58196   9.808  24.743   6.764
 4539POPC   C3B58197   9.859  24.682   7.064
 4539POPC   C4B58198   9.821  24.677   7.364
 4540POPC   NC358199  36.865   8.164   5.564
 4540POPC   PO458200  36.929   8.191   5.864
 4540POPC   GL158201  36.941   8.212   6.164
 4540POPC   GL258202  36.732   8.191   6.164
 4540POPC   C1A58203  36.914   8.158   6.464
 4540POPC   D2A58204  36.900   8.231   6.764
 4540POPC   C3A58205  36.907   8.182   7.064
 4540POPC   C4A58206  36.929   8.183   7.364
 4540POPC   C1B58207  36.616   8.191   6.464
 4540POPC   C2B58208  36.642   8.241   6.764
 4540POPC   C3B58209  36.632   8.175   7.064
 4540POPC   C4B58210  36.674   8.227   7.364
 4541POPC   NC358211  43.897  12.046   5.564
 4541POPC   PO458212  43.890  12.081   5.864
 4541POPC   GL158213  43.871  12.104   6.164
 4541POPC   GL258214  43.790  12.151   6.164
 4541POPC   C1A58215  43.893  12.126   6.464
 4541POPC   D2A58216  43.854  12.028   6.764
 4541POPC   C3A58217  43.871  12.112   7.064
 4541POPC   C4A58218  43.898  12.069   7.364
 4541POPC   C1B58219  43.680  12.242   6.464
 4541POPC   C2B58220  43.662  12.250   6.764
 4541POPC   C3B58221  43.670  12.277   7.064
 4541POPC   C4B58222  43.655  12.231   7.364
 4542POPC   NC358223  22.145  41.509   5.564
 4542POPC   PO458224  22.122  41.574   5.864
 4542POPC   GL158225  22.174  41.539   6.164
 4542POPC   GL258226  22.060  41.531   6.164
 4542POPC   C1A58227  22.154  41.542   6.464
 4542POPC   D2A58228  22.162  41.585   6.764
 4542POPC   C3A58229  22.195  41.589   7.064
 4542POPC   C4A58230  22.205  41.542   7.364
 4542POPC   C1B58231  21.929  41.559   6.464
 4542POPC   C2B58232  21.934  41.598   6.764
 4542POPC   C3B58233  21.886  41.511   7.064
 4542POPC   C4B58234  21.904  41.560   7.364
 4543POPC   NC358235  20.578   8.184   5.564
 4543POPC   PO458236  20.630   8.190   5.864
 4543POPC   GL158237  20.574   8.246   6.164
 4543POPC   GL258238  20.660   8.353   6.164
 4543POPC   C1A58239  20.654   8.205   6.464
 4543POPC   D2A58240  20.563   8.198   6.764
 4543POPC   C3A58241  20.613   8.184   7.064
 4543POPC   C4A58242  20.617   8.190   7.364
 4543POPC   C1B58243  20.673   8.430   6.464
 4543POPC   C2B58244  20.588   8.422   6.764
 4543POPC   C3B58245  20.650   8.455   7.064
 4543POPC   C4B58246  20.600   8.460   7.364
 4544POPC   NC358247  32.251  41.557   5.564
 4544POPC   PO458248  32.211  41.546   5.864
 4544POPC   GL158249  32.266  41.595   6.164
 4544POPC   GL258250  32.205  41.454   6.164
 4544POPC   C1A58251  32.207  41.571   6.464
 4544POPC   D2A58252  32.219  41.573   6.764
 4544POPC   C3A58253  32.199  41.552   7.064
 4544POPC   C4A58254  32.232  41.559   7.364
 4544POPC   C1B58255  32.208  41.332   6.464
 4544POPC   C2B58256  32.282  41.358   6.764
 4544POPC   C3B58257  32.290  41.317   7.064
 4544POPC   C4B58258  32.267  41.316   7.364
 4545POPC   NC358259  26.048  39.256   5.564
 4545POPC   PO458260  26.066  39.267   5.864
 4545POPC   GL158261  25.996  39.272   6.164
 4545POPC   GL258262  26.093  39.336   6.164
 4545POPC   C1A58263  26.002  39.238   6.464
 4545POPC   D2A58264  26.058  39.202   6.764
 4545POPC   C3A58265  26.028  39.277   7.064
 4545POPC   C4A58266  26.007  39.272   7.364
 4545POPC   C1B58267  26.167  39.457   6.464
 4545POPC   C2B58268  26.170  39.493   6.764
 4545POPC   C3B58269  26.120  39.467   7.064
 4545POPC   C4B58270  26.150  39.465   7.364
 4546POPC   NC358271   5.917   2.773   5.564
 4546POPC   PO458272   5.890   2.740   5.864
 4546POPC   GL158273   5.899   2.739   6.164
 4546POPC   GL258274   5.959   2.754   6.164
 4546POPC   C1A58275   5.872   2.730   6.464
 4546POPC   D2A58276   5.894   2.762   6.764
 4546POPC   C3A58277   5.874   2.808   7.064
 4546POPC   C4A58278   5.890   2.727   7.364
 4546POPC   C1B58279   6.117   2.792   6.464
 4546POPC   C2B58280   6.137   2.833   6.764
 4546POPC   C3B58281   6.158   2.828   7.064
 4546POPC   C4B58282   6.084   2.880   7.364
 4547POPC   NC358283  26.819  29.949   5.564
 4547POPC   PO458284  26.789  29.884   5.864
 4547POPC   GL158285  26.840  29.958   6.164
 4547POPC   GL258286  26.912  29.860   6.164
 4547POPC   C1A58287  26.807  29.881   6.464
 4547POPC   D2A58288  26.825  29.957   6.764
 4547POPC   C3A58289  26.792  29.963   7.064
 4547POPC   C4A58290  26.771  29.872   7.364
 4547POPC   C1B58291  27.058  29.859   6.464
 4547POPC   C2B58292  27.067  29.907   6.764
 4547POPC   C3B58293  27.046  29.910   7.064
 4547POPC   C4B58294  27.097  29.864   7.364
 4548POPC   NC358295   7.441  25.996   5.564
 4548POPC   PO458296   7.379  26.036   5.864
 4548POPC   GL158297   7.448  26.048   6.164
 4548POPC   GL258298   7.496  26.125   6.164
 4548POPC   C1A58299   7.453  26.036   6.464
 4548POPC   D2A58300   7.430  25.997   6.764
 4548POPC   C3A58301   7.372  26.076   7.064
 4548POPC   C4A58302   7.436  26.014   7.364
 4548POPC   C1B58303   7.513  26.289   6.464
 4548POPC   C2B58304   7.557  26.307   6.764
 4548POPC   C3B58305   7.549  26.305   7.064
 4548POPC   C4B58306   7.570  26.319   7.364
 4549POPC   NC358307  17.532  42.353   5.564
 4549POPC   PO458308  17.557  42.315   5.864
 4549POPC   GL158309  17.462  42.308   6.164
 4549POPC   GL258310  17.574  42.404   6.164
 4549POPC   C1A58311  17.490  42.361   6.464
 4549POPC   D2A58312  17.463  42.370   6.764
 4549POPC   C3A58313  17.511  42.384   7.064
 4549POPC   C4A58314  17.485  42.285   7.364
 4549POPC   C1B58315  17.605  42.591   6.464
 4549POPC   C2B58316  17.618  42.531   6.764
 4549POPC   C3B58317  17.601  42.513   7.064
 4549POPC   C4B58318  17.658  42.563   7.364
 4550POPC   NC358319  28.356  31.469   5.564
 4550POPC   PO458320  28.393  31.423   5.864
 4550POPC   GL158321  28.413  31.512   6.164
 4550POPC   GL258322  28.263  31.551   6.164
 4550POPC   C1A58323  28.393  31.473   6.464
 4550POPC   D2A58324  28.324  31.489   6.764
 4550POPC   C3A58325  28.417  31.477   7.064
 4550POPC   C4A58326  28.368  31.492   7.364
 4550POPC   C1B58327  28.166  31.646   6.464
 4550POPC   C2B58328  28.212  31.627   6.764
 4550POPC   C3B58329  28.221  31.615   7.064
 4550POPC   C4B58330  28.162  31.654   7.364
 4551POPC   NC358331   5.832  19.043   5.564
 4551POPC   PO458332   5.873  19.092   5.864
 4551POPC   GL158333   5.902  19.050   6.164
 4551POPC   GL258334   5.710  19.127   6.164
 4551POPC   C1A58335   5.847  19.018   6.464
 4551POPC   D2A58336   5.825  19.041   6.764
 4551POPC   C3A58337   5.881  19.081   7.064
 4551POPC   C4A58338   5.827  19.063   7.364
 4551POPC   C1B58339   5.617  19.099   6.464
 4551POPC   C2B58340   5.577  19.129   6.764
 4551POPC   C3B58341   5.639  19.078   7.064
 4551POPC   C4B58342   5.666  19.119   7.364
 4552POPC   NC358343  14.364   0.444   5.564
 4552POPC   PO458344  14.370   0.477   5.864
 4552POPC   GL158345  14.358   0.473   6.164
 4552POPC   GL258346  14.446   0.276   6.164
 4552POPC   C1A58347  14.416   0.461   6.464
 4552POPC   D2A58348  14.356   0.431   6.764
 4552POPC   C3A58349  14.434   0.406   7.064
 4552POPC   C4A58350  14.452   0.424   7.364
 4552POPC   C1B58351  14.439   0.227   6.464
 4552POPC   C2B58352  14.421   0.171   6.764
 4552POPC   C3B58353  14.488   0.196   7.064
 4552POPC   C4B58354  14.479   0.189   7.364
 4553POPC   NC358355  43.094   5.064   5.564
 4553POPC   PO458356  43.116   5.102   5.864
 4553POPC   GL158357  43.084   5.089   6.164
 4553POPC   GL258358  43.150   4.980   6.164
 4553POPC   C1A58359  43.097   5.120   6.464
 4553POPC   D2A58360  43.084   5.133   6.764
 4553POPC   C3A58361  43.152   5.092   7.064
 4553POPC   C4A58362  43.093   5.092   7.364
 4553POPC   C1B58363  43.066   4.879   6.464
 4553POPC   C2B58364  43.134   4.833   6.764
 4553POPC   C3B58365  43.138   4.859   7.064
 4553POPC   C4B58366  43.074   4.861   7.364
 4554POPC   NC358367  18.306  29.122   5.564
 4554POPC   PO458368  18.267  29.113   5.864
 4554POPC   GL158369  18.327  29.108   6.164
 4554POPC   GL258370  18.220  29.250   6.164
 4554POPC   C1A58371  18.261  29.188   6.464
 4554POPC   D2A58372  18.312  29.129   6.764
 4554POPC   C3A58373  18.248  29.184   7.064
 4554POPC   C4A58374  18.261  29.190   7.364
 4554POPC   C1B58375  18.028  29.265   6.464
 4554POPC   C2B58376  18.120  29.272   6.764
 4554POPC   C3B58377  18.070  29.301   7.064
 4554POPC   C4B58378  18.093  29.287   7.364
 4555POPC   NC358379  21.378  32.289   5.564
 4555POPC   PO458380  21.380  32.268   5.864
 4555POPC   GL158381  21.427  32.292   6.164
 4555POPC   GL258382  21.366  32.109   6.164
 4555POPC   C1A58383  21.401  32.252   6.464
 4555POPC   D2A58384  21.418  32.200   6.764
 4555POPC   C3A58385  21.353  32.230   7.064
 4555POPC   C4A58386  21.415  32.271   7.364
 4555POPC   C1B58387  21.381  32.005   6.464
 4555POPC   C2B58388  21.427  32.035   6.764
 4555POPC   C3B58389  21.373  32.044   7.064
 4555POPC   C4B58390  21.446  31.986   7.364
 4556POPC   NC358391  15.204  36.146   5.564
 4556POPC   PO458392  15.219  36.119   5.864
 4556POPC   GL158393  15.207  36.140   6.164
 4556POPC   GL258394  15.300  36.090   6.164
 4556POPC   C1A58395  15.222  36.159   6.464
 4556POPC   D2A58396  15.149  36.128   6.764
 4556POPC   C3A58397  15.130  36.134   7.064
 4556POPC   C4A58398  15.146  36.147   7.364
 4556POPC   C1B58399  15.358  35.972   6.464
 4556POPC   C2B58400  15.414  36.022   6.764
 4556POPC   C3B58401  15.406  36.034   7.064
 4556POPC   C4B58402  15.361  35.988   7.364
 4557POPC   NC358403  38.503  11.318   5.564
 4557POPC   PO458404  38.465  11.302   5.864
 4557POPC   GL158405  38.425  11.257   6.164
 4557POPC   GL258406  38.333  11.162   6.164
 4557POPC   C1A58407  38.455  11.322   6.464
 4557POPC   D2A58408  38.444  11.311   6.764
 4557POPC   C3A58409  38.499  11.296   7.064
 4557POPC   C4A58410  38.467  11.266   7.364
 4557POPC   C1B58411  38.319  11.161   6.464
 4557POPC   C2B58412  38.303  11.114   6.764
 4557POPC   C3B58413  38.231  11.088   7.064
 4557POPC   C4B58414  38.306  11.131   7.364
 4558POPC   NC358415  25.237  29.146   5.564
 4558POPC   PO458416  25.301  29.152   5.864
 4558POPC   GL158417  25.275  29.126   6.164
 4558POPC   GL258418  25.201  29.214   6.164
 4558POPC   C1A58419  25.245  29.126   6.464
 4558POPC   D2A58420  25.244  29.111   6.764
 4558POPC   C3A58421  25.229  29.144   7.064
 4558POPC   C4A58422  25.227  29.141   7.364
 4558POPC   C1B58423  25.012  29.228   6.464
 4558POPC   C2B58424  25.003  29.222   6.764
 4558POPC   C3B58425  25.054  29.239   7.064
 4558POPC   C4B58426  25.002  29.203   7.364
 4559POPC   NC358427  19.872  12.114   5.564
 4559POPC   PO458428  19.869  12.080   5.864
 4559POPC   GL158429  19.801  12.073   6.164
 4559POPC   GL258430  19.957  12.056   6.164
 4559POPC   C1A58431  19.870  12.124   6.464
 4559POPC   D2A58432  19.795  12.073   6.764
 4559POPC   C3A58433  19.833  12.041   7.064
 4559POPC   C4A58434  19.865  12.032   7.364
 4559POPC   C1B58435  20.087  12.052   6.464
 4559POPC   C2B58436  20.130  12.043   6.764
 4559POPC   C3B58437  20.031  12.017   7.064
 4559POPC   C4B58438  20.093  11.988   7.364
 4560POPC   NC358439  40.015  14.435   5.564
 4560POPC   PO458440  40.045  14.442   5.864
 4560POPC   GL158441  40.023  14.417   6.164
 4560POPC   GL258442  39.878  14.297   6.164
 4560POPC   C1A58443  39.960  14.380   6.464
 4560POPC   D2A58444  40.023  14.392   6.764
 4560POPC   C3A58445  39.986  14.425   7.064
 4560POPC   C4A58446  40.014  14.438   7.364
 4560POPC   C1B58447  39.836  14.265   6.464
 4560POPC   C2B58448  39.852  14.234   6.764
 4560POPC   C3B58449  39.824  14.219   7.064
 4560POPC   C4B58450  39.811  14.267   7.364
 4561POPC   NC358451  41.534   4.307   5.564
 4561POPC   PO458452  41.575   4.353   5.864
 4561POPC   GL158453  41.549   4.332   6.164
 4561POPC   GL258454  41.495   4.426   6.164
 4561POPC   C1A58455  41.537   4.281   6.464
 4561POPC   D2A58456  41.547   4.319   6.764
 4561POPC   C3A58457  41.551   4.326   7.064
 4561POPC   C4A58458  41.543   4.352   7.364
 4561POPC   C1B58459  41.361   4.457   6.464
 4561POPC   C2B58460  41.344   4.467   6.764
 4561POPC   C3B58461  41.368   4.554   7.064
 4561POPC   C4B58462  41.396   4.498   7.364
 4562POPC   NC358463  17.550  19.044   5.564
 4562POPC   PO458464  17.497  19.087   5.864
 4562POPC   GL158465  17.471  19.067   6.164
 4562POPC   GL258466  17.627  19.083   6.164
 4562POPC   C1A58467  17.522  19.068   6.464
 4562POPC   D2A58468  17.472  19.038   6.764
 4562POPC   C3A58469  17.540  19.059   7.064
 4562POPC   C4A58470  17.547  19.085   7.364
 4562POPC   C1B58471  17.801  19.032   6.464
 4562POPC   C2B58472  17.773  19.026   6.764
 4562POPC   C3B58473  17.737  19.042   7.064
 4562POPC   C4B58474  17.725  19.036   7.364
 4563POPC   NC358475   8.147  12.854   5.564
 4563POPC   PO458476   8.194  12.897   5.864
 4563POPC   GL158477   8.221  12.820   6.164
 4563POPC   GL258478   8.070  12.899   6.164
 4563POPC   C1A58479   8.175  12.848   6.464
 4563POPC   D2A58480   8.237  12.820   6.764
 4563POPC   C3A58481   8.182  12.885   7.064
 4563POPC   C4A58482   8.198  12.846   7.364
 4563POPC   C1B58483   8.005  12.908   6.464
 4563POPC   C2B58484   8.002  12.901   6.764
 4563POPC   C3B58485   7.927  12.925   7.064
 4563POPC   C4B58486   7.921  12.986   7.364
 4564POPC   NC358487   5.112   8.153   5.564
 4564POPC   PO458488   5.098   8.239   5.864
 4564POPC   GL158489   5.102   8.201   6.164
 4564POPC   GL258490   5.063   8.110   6.164
 4564POPC   C1A58491   5.127   8.218   6.464
 4564POPC   D2A58492   5.045   8.202   6.764
 4564POPC   C3A58493   5.142   8.196   7.064
 4564POPC   C4A58494   5.142   8.199   7.364
 4564POPC   C1B58495   5.078   7.902   6.464
 4564POPC   C2B58496   5.081   7.975   6.764
 4564POPC   C3B58497   5.046   7.920   7.064
 4564POPC   C4B58498   5.071   7.922   7.364
 4565POPC   NC358499  30.706   7.422   5.564
 4565POPC   PO458500  30.745   7.386   5.864
 4565POPC   GL158501  30.659   7.387   6.164
 4565POPC   GL258502  30.789   7.280   6.164
 4565POPC   C1A58503  30.666   7.393   6.464
 4565POPC   D2A58504  30.713   7.437   6.764
 4565POPC   C3A58505  30.666   7.373   7.064
 4565POPC   C4A58506  30.647   7.420   7.364
 4565POPC   C1B58507  30.867   7.269   6.464
 4565POPC   C2B58508  30.886   7.274   6.764
 4565POPC   C3B58509  30.813   7.260   7.064
 4565POPC   C4B58510  30.821   7.184   7.364
 4566POPC   NC358511  37.684  37.650   5.564
 4566POPC   PO458512  37.646  37.652   5.864
 4566POPC   GL158513  37.685  37.717   6.164
 4566POPC   GL258514  37.591  37.598   6.164
 4566POPC   C1A58515  37.704  37.632   6.464
 4566POPC   D2A58516  37.638  37.691   6.764
 4566POPC   C3A58517  37.727  37.645   7.064
 4566POPC   C4A58518  37.715  37.688   7.364
 4566POPC   C1B58519  37.549  37.444   6.464
 4566POPC   C2B58520  37.568  37.430   6.764
 4566POPC   C3B58521  37.537  37.413   7.064
 4566POPC   C4B58522  37.618  37.427   7.364
 4567POPC   NC358523  27.574  26.856   5.564
 4567POPC   PO458524  27.580  26.785   5.864
 4567POPC   GL158525  27.610  26.866   6.164
 4567POPC   GL258526  27.657  26.713   6.164
 4567POPC   C1A58527  27.603  26.810   6.464
 4567POPC   D2A58528  27.547  26.858   6.764
 4567POPC   C3A58529  27.636  26.777   7.064
 4567POPC   C4A58530  27.616  26.854   7.364
 4567POPC   C1B58531  27.740  26.613   6.464
 4567POPC   C2B58532  27.813  26.661   6.764
 4567POPC   C3B58533  27.797  26.647   7.064
 4567POPC   C4B58534  27.734  26.628   7.364
 4568POPC   NC358535  43.070  33.767   5.564
 4568POPC   PO458536  43.130  33.786   5.864
 4568POPC   GL158537  43.084  33.778   6.164
 4568POPC   GL258538  43.114  33.954   6.164
 4568POPC   C1A58539  43.084  33.800   6.464
 4568POPC   D2A58540  43.153  33.846   6.764
 4568POPC   C3A58541  43.113  33.837   7.064
 4568POPC   C4A58542  43.133  33.811   7.364
 4568POPC   C1B58543  43.067  34.042   6.464
 4568POPC   C2B58544  43.058  34.092   6.764
 4568POPC   C3B58545  43.057  34.043   7.064
 4568POPC   C4B58546  43.084  34.091   7.364
 4569POPC   NC358547   4.297  19.794   5.564
 4569POPC   PO458548   4.305  19.843   5.864
 4569POPC   GL158549   4.330  19.809   6.164
 4569POPC   GL258550   4.213  19.739   6.164
 4569POPC   C1A58551   4.328  19.859   6.464
 4569POPC   D2A58552   4.270  19.834   6.764
 4569POPC   C3A58553   4.335  19.796   7.064
 4569POPC   C4A58554   4.292  19.865   7.364
 4569POPC   C1B58555   4.089  19.683   6.464
 4569POPC   C2B58556   4.100  19.615   6.764
 4569POPC   C3B58557   4.116  19.673   7.064
 4569POPC   C4B58558   4.161  19.695   7.364
 4570POPC   NC358559   4.300  11.254   5.564
 4570POPC   PO458560   4.286  11.282   5.864
 4570POPC   GL158561   4.285  11.323   6.164
 4570POPC   GL258562   4.387  11.412   6.164
 4570POPC   C1A58563   4.360  11.270   6.464
 4570POPC   D2A58564   4.296  11.312   6.764
 4570POPC   C3A58565   4.293  11.304   7.064
 4570POPC   C4A58566   4.278  11.253   7.364
 4570POPC   C1B58567   4.400  11.530   6.464
 4570POPC   C2B58568   4.483  11.498   6.764
 4570POPC   C3B58569   4.402  11.482   7.064
 4570POPC   C4B58570   4.398  11.526   7.364
 4571POPC   NC358571  16.683  14.411   5.564
 4571POPC   PO458572  16.700  14.355   5.864
 4571POPC   GL158573  16.731  14.373   6.164
 4571POPC   GL258574  16.777  14.301   6.164
 4571POPC   C1A58575  16.700  14.385   6.464
 4571POPC   D2A58576  16.723  14.441   6.764
 4571POPC   C3A58577  16.739  14.403   7.064
 4571POPC   C4A58578  16.773  14.354   7.364
 4571POPC   C1B58579  16.781  14.206   6.464
 4571POPC   C2B58580  16.814  14.129   6.764
 4571POPC   C3B58581  16.768  14.111   7.064
 4571POPC   C4B58582  16.741  14.175   7.364
 4572POPC   NC358583  20.624  14.428   5.564
 4572POPC   PO458584  20.588  14.419   5.864
 4572POPC   GL158585  20.579  14.445   6.164
 4572POPC   GL258586  20.596  14.547   6.164
 4572POPC   C1A58587  20.598  14.378   6.464
 4572POPC   D2A58588  20.639  14.354   6.764
 4572POPC   C3A58589  20.596  14.381   7.064
 4572POPC   C4A58590  20.595  14.445   7.364
 4572POPC   C1B58591  20.614  14.649   6.464
 4572POPC   C2B58592  20.619  14.605   6.764
 4572POPC   C3B58593  20.663  14.649   7.064
 4572POPC   C4B58594  20.646  14.640   7.364
 4573POPC   NC358595  29.942   3.525   5.564
 4573POPC   PO458596  29.886   3.507   5.864
 4573POPC   GL158597  29.889   3.591   6.164
 4573POPC   GL258598  29.861   3.621   6.164
 4573POPC   C1A58599  29.908   3.582   6.464
 4573POPC   D2A58600  29.896   3.547   6.764
 4573POPC   C3A58601  29.947   3.533   7.064
 4573POPC   C4A58602  29.953   3.585   7.364
 4573POPC   C1B58603  29.879   3.808   6.464
 4573POPC   C2B58604  29.847   3.744   6.764
 4573POPC   C3B58605  29.863   3.753   7.064
 4573POPC   C4B58606  29.896   3.817   7.364
 4574POPC   NC358607  43.113   8.169   5.564
 4574POPC   PO458608  43.085   8.183   5.864
 4574POPC   GL158609  43.139   8.226   6.164
 4574POPC   GL258610  43.175   8.105   6.164
 4574POPC   C1A58611  43.112   8.204   6.464
 4574POPC   D2A58612  43.112   8.237   6.764
 4574POPC   C3A58613  43.147   8.162   7.064
 4574POPC   C4A58614  43.119   8.171   7.364
 4574POPC   C1B58615  43.307   8.063   6.464
 4574POPC   C2B58616  43.297   8.001   6.764
 4574POPC   C3B58617  43.255   8.063   7.064
 4574POPC   C4B58618  43.246   8.003   7.364
 4575POPC   NC358619  33.753  19.827   5.564
 4575POPC   PO458620  33.779  19.801   5.864
 4575POPC   GL158621  33.755  19.788   6.164
 4575POPC   GL258622  33.843  19.993   6.164
 4575POPC   C1A58623  33.798  19.818   6.464
 4575POPC   D2A58624  33.775  19.839   6.764
 4575POPC   C3A58625  33.823  19.797   7.064
 4575POPC   C4A58626  33.778  19.856   7.364
 4575POPC   C1B58627  33.933  20.057   6.464
 4575POPC   C2B58628  33.915  20.064   6.764
 4575POPC   C3B58629  33.893  20.088   7.064
 4575POPC   C4B58630  33.946  20.079   7.364
 4576POPC   NC358631  43.131  40.813   5.564
 4576POPC   PO458632  43.151  40.735   5.864
 4576POPC   GL158633  43.127  40.809   6.164
 4576POPC   GL258634  43.159  40.857   6.164
 4576POPC   C1A58635  43.089  40.796   6.464
 4576POPC   D2A58636  43.103  40.772   6.764
 4576POPC   C3A58637  43.131  40.806   7.064
 4576POPC   C4A58638  43.083  40.831   7.364
 4576POPC   C1B58639  43.166  41.014   6.464
 4576POPC   C2B58640  43.181  41.039   6.764
 4576POPC   C3B58641  43.145  41.016   7.064
 4576POPC   C4B58642  43.200  40.988   7.364
 4577POPC   NC358643   5.126  43.898   5.564
 4577POPC   PO458644   5.090  43.936   5.864
 4577POPC   GL158645   5.078  43.905   6.164
 4577POPC   GL258646   5.188  43.852   6.164
 4577POPC   C1A58647   5.070  43.875   6.464
 4577POPC   D2A58648   5.092  43.881   6.764
 4577POPC   C3A58649   5.085  43.862   7.064
 4577POPC   C4A58650   5.048  43.900   7.364
 4577POPC   C1B58651   5.345  43.891   6.464
 4577POPC   C2B58652   5.311  43.912   6.764
 4577POPC   C3B58653   5.324  43.881   7.064
 4577POPC   C4B58654   5.323  43.852   7.364
 4578POPC   NC358655  30.717  39.974   5.564
 4578POPC   PO458656  30.730  40.035   5.864
 4578POPC   GL158657  30.694  39.959   6.164
 4578POPC   GL258658  30.689  40.178   6.164
 4578POPC   C1A58659  30.716  40.008   6.464
 4578POPC   D2A58660  30.653  40.007   6.764
 4578POPC   C3A58661  30.669  39.997   7.064
 4578POPC   C4A58662  30.676  40.011   7.364
 4578POPC   C1B58663  30.767  40.286   6.464
 4578POPC   C2B58664  30.732  40.230   6.764
 4578POPC   C3B58665  30.739  40.202   7.064
 4578POPC   C4B58666  30.762  40.259   7.364
 4579POPC   NC358667  35.372   5.876   5.564
 4579POPC   PO458668  35.339   5.919   5.864
 4579POPC   GL158669  35.367   5.862   6.164
 4579POPC   GL258670  35.427   5.917   6.164
 4579POPC   C1A58671  35.312   5.828   6.464
 4579POPC   D2A58672  35.333   5.834   6.764
 4579POPC   C3A58673  35.331   5.889   7.064
 4579POPC   C4A58674  35.349   5.842   7.364
 4579POPC   C1B58675  35.637   5.941   6.464
 4579POPC   C2B58676  35.593   5.949   6.764
 4579POPC   C3B58677  35.579   5.995   7.064
 4579POPC   C4B58678  35.551   5.969   7.364
 4580POPC   NC358679   8.164  12.094   5.564
 4580POPC   PO458680   8.147  12.045   5.864
 4580POPC   GL158681   8.163  12.111   6.164
 4580POPC   GL258682   8.125  12.149   6.164
 4580POPC   C1A58683   8.157  12.085   6.464
 4580POPC   D2A58684   8.229  12.054   6.764
 4580POPC   C3A58685   8.174  12.058   7.064
 4580POPC   C4A58686   8.235  12.109   7.364
 4580POPC   C1B58687   8.033  12.251   6.464
 4580POPC   C2B58688   8.016  12.259   6.764
 4580POPC   C3B58689   8.068  12.307   7.064
 4580POPC   C4B58690   8.048  12.307   7.364
 4581POPC   NC358691  43.899  20.648   5.564
 4581POPC   PO458692  43.892  20.639   5.864
 4581POPC   GL158693  43.902  20.651   6.164
 4581POPC   GL258694  43.931  20.756   6.164
 4581POPC   C1A58695  43.857  20.602   6.464
 4581POPC   D2A58696  43.913  20.647   6.764
 4581POPC   C3A58697  43.913  20.590   7.064
 4581POPC   C4A58698  43.861  20.593   7.364
 4581POPC   C1B58699  43.966  20.816   6.464
 4581POPC   C2B58700  43.894  20.851   6.764
 4581POPC   C3B58701  43.917  20.887   7.064
 4581POPC   C4B58702  43.892  20.899   7.364
 4582POPC   NC358703  43.067  13.642   5.564
 4582POPC   PO458704  43.086  13.608   5.864
 4582POPC   GL158705  43.145  13.640   6.164
 4582POPC   GL258706  42.996  13.722   6.164
 4582POPC   C1A58707  43.106  13.637   6.464
 4582POPC   D2A58708  43.155  13.675   6.764
 4582POPC   C3A58709  43.092  13.632   7.064
 4582POPC   C4A58710  43.144  13.676   7.364
 4582POPC   C1B58711  42.910  13.788   6.464
 4582POPC   C2B58712  42.965  13.771   6.764
 4582POPC   C3B58713  42.967  13.801   7.064
 4582POPC   C4B58714  42.927  13.824   7.364
 4583POPC   NC358715  21.353  13.622   5.564
 4583POPC   PO458716  21.398  13.598   5.864
 4583POPC   GL158717  21.352  13.579   6.164
 4583POPC   GL258718  21.284  13.543   6.164
 4583POPC   C1A58719  21.373  13.603   6.464
 4583POPC   D2A58720  21.367  13.629   6.764
 4583POPC   C3A58721  21.385  13.666   7.064
 4583POPC   C4A58722  21.423  13.613   7.364
 4583POPC   C1B58723  21.176  13.521   6.464
 4583POPC   C2B58724  21.172  13.502   6.764
 4583POPC   C3B58725  21.144  13.570   7.064
 4583POPC   C4B58726  21.145  13.494   7.364
 4584POPC   NC358727  12.051  23.674   5.564
 4584POPC   PO458728  12.082  23.757   5.864
 4584POPC   GL158729  12.084  23.707   6.164
 4584POPC   GL258730  12.102  23.556   6.164
 4584POPC   C1A58731  12.055  23.707   6.464
 4584POPC   D2A58732  12.108  23.718   6.764
 4584POPC   C3A58733  12.095  23.717   7.064
 4584POPC   C4A58734  12.028  23.708   7.364
 4584POPC   C1B58735  12.155  23.525   6.464
 4584POPC   C2B58736  12.173  23.452   6.764
 4584POPC   C3B58737  12.132  23.504   7.064
 4584POPC   C4B58738  12.154  23.430   7.364
 4585POPC   NC358739  20.647   1.963   5.564
 4585POPC   PO458740  20.566   1.966   5.864
 4585POPC   GL158741  20.647   1.983   6.164
 4585POPC   GL258742  20.515   1.939   6.164
 4585POPC   C1A58743  20.658   2.035   6.464
 4585POPC   D2A58744  20.586   1.968   6.764
 4585POPC   C3A58745  20.579   2.026   7.064
 4585POPC   C4A58746  20.615   1.974   7.364
 4585POPC   C1B58747  20.407   1.795   6.464
 4585POPC   C2B58748  20.432   1.839   6.764
 4585POPC   C3B58749  20.437   1.755   7.064
 4585POPC   C4B58750  20.436   1.776   7.364
 4586POPC   NC358751   7.429  17.468   5.564
 4586POPC   PO458752   7.390  17.520   5.864
 4586POPC   GL158753   7.374  17.551   6.164
 4586POPC   GL258754   7.448  17.360   6.164
 4586POPC   C1A58755   7.456  17.537   6.464
 4586POPC   D2A58756   7.468  17.489   6.764
 4586POPC   C3A58757   7.378  17.513   7.064
 4586POPC   C4A58758   7.390  17.531   7.364
 4586POPC   C1B58759   7.576  17.298   6.464
 4586POPC   C2B58760   7.559  17.280   6.764
 4586POPC   C3B58761   7.611  17.333   7.064
 4586POPC   C4B58762   7.541  17.316   7.364
 4587POPC   NC358763  28.354  36.173   5.564
 4587POPC   PO458764  28.351  36.131   5.864
 4587POPC   GL158765  28.383  36.175   6.164
 4587POPC   GL258766  28.237  36.112   6.164
 4587POPC   C1A58767  28.406  36.155   6.464
 4587POPC   D2A58768  28.336  36.168   6.764
 4587POPC   C3A58769  28.395  36.089   7.064
 4587POPC   C4A58770  28.330  36.155   7.364
 4587POPC   C1B58771  28.123  36.023   6.464
 4587POPC   C2B58772  28.163  36.083   6.764
 4587POPC   C3B58773  28.126  36.056   7.064
 4587POPC   C4B58774  28.086  36.077   7.364
 4588POPC   NC358775  26.822  16.721   5.564
 4588POPC   PO458776  26.812  16.770   5.864
 4588POPC   GL158777  26.810  16.701   6.164
 4588POPC   GL258778  26.894  16.820   6.164
 4588POPC   C1A58779  26.785  16.741   6.464
 4588POPC   D2A58780  26.853  16.715   6.764
 4588POPC   C3A58781  26.799  16.766   7.064
 4588POPC   C4A58782  26.782  16.766   7.364
 4588POPC   C1B58783  26.869  16.946   6.464
 4588POPC   C2B58784  26.937  16.932   6.764
 4588POPC   C3B58785  26.907  16.944   7.064
 4588POPC   C4B58786  26.908  16.977   7.364
 4589POPC   NC358787  12.901  35.351   5.564
 4589POPC   PO458788  12.861  35.359   5.864
 4589POPC   GL158789  12.889  35.344   6.164
 4589POPC   GL258790  12.930  35.273   6.164
 4589POPC   C1A58791  12.818  35.383   6.464
 4589POPC   D2A58792  12.884  35.304   6.764
 4589POPC   C3A58793  12.884  35.363   7.064
 4589POPC   C4A58794  12.843  35.356   7.364
 4589POPC   C1B58795  12.996  35.186   6.464
 4589POPC   C2B58796  12.968  35.167   6.764
 4589POPC   C3B58797  13.025  35.134   7.064
 4589POPC   C4B58798  13.042  35.186   7.364
 4590POPC   NC358799  41.581  30.649   5.564
 4590POPC   PO458800  41.531  30.735   5.864
 4590POPC   GL158801  41.606  30.718   6.164
 4590POPC   GL258802  41.539  30.629   6.164
 4590POPC   C1A58803  41.519  30.658   6.464
 4590POPC   D2A58804  41.581  30.666   6.764
 4590POPC   C3A58805  41.533  30.672   7.064
 4590POPC   C4A58806  41.548  30.657   7.364
 4590POPC   C1B58807  41.483  30.447   6.464
 4590POPC   C2B58808  41.442  30.429   6.764
 4590POPC   C3B58809  41.395  30.431   7.064
 4590POPC   C4B58810  41.441  30.490   7.364
 4591POPC   NC358811  34.580   3.587   5.564
 4591POPC   PO458812  34.610   3.493   5.864
 4591POPC   GL158813  34.619   3.557   6.164
 4591POPC   GL258814  34.452   3.482   6.164
 4591POPC   C1A58815  34.528   3.574   6.464
 4591POPC   D2A58816  34.592   3.503   6.764
 4591POPC   C3A58817  34.582   3.528   7.064
 4591POPC   C4A58818  34.546   3.505   7.364
 4591POPC   C1B58819  34.364   3.388   6.464
 4591POPC   C2B58820  34.415   3.382   6.764
 4591POPC   C3B58821  34.399   3.360   7.064
 4591POPC   C4B58822  34.411   3.402   7.364
 4592POPC   NC358823   2.724   3.516   5.564
 4592POPC   PO458824   2.740   3.557   5.864
 4592POPC   GL158825   2.788   3.534   6.164
 4592POPC   GL258826   2.843   3.441   6.164
 4592POPC   C1A58827   2.734   3.509   6.464
 4592POPC   D2A58828   2.791   3.508   6.764
 4592POPC   C3A58829   2.754   3.565   7.064
 4592POPC   C4A58830   2.747   3.519   7.364
 4592POPC   C1B58831   3.017   3.392   6.464
 4592POPC   C2B58832   2.969   3.413   6.764
 4592POPC   C3B58833   2.973   3.423   7.064
 4592POPC   C4B58834   2.996   3.373   7.364
 4593POPC   NC358835  12.847  36.901   5.564
 4593POPC   PO458836  12.886  36.855   5.864
 4593POPC   GL158837  12.872  36.934   6.164
 4593POPC   GL258838  12.741  36.947   6.164
 4593POPC   C1A58839  12.813  36.863   6.464
 4593POPC   D2A58840  12.806  36.921   6.764
 4593POPC   C3A58841  12.823  36.930   7.064
 4593POPC   C4A58842  12.815  36.892   7.364
 4593POPC   C1B58843  12.628  37.074   6.464
 4593POPC   C2B58844  12.682  37.066   6.764
 4593POPC   C3B58845  12.697  37.083   7.064
 4593POPC   C4B58846  12.662  37.095   7.364
 4594POPC   NC358847   1.962  28.401   5.564
 4594POPC   PO458848   2.020  28.320   5.864
 4594POPC   GL158849   1.943  28.382   6.164
 4594POPC   GL258850   1.949  28.299   6.164
 4594POPC   C1A58851   2.011  28.355   6.464
 4594POPC   D2A58852   1.950  28.324   6.764
 4594POPC   C3A58853   2.024  28.351   7.064
 4594POPC   C4A58854   2.015  28.393   7.364
 4594POPC   C1B58855   1.878  28.152   6.464
 4594POPC   C2B58856   1.856  28.175   6.764
 4594POPC   C3B58857   1.890  28.094   7.064
 4594POPC   C4B58858   1.879  28.151   7.364
 4595POPC   NC358859  26.061   5.912   5.564
 4595POPC   PO458860  26.066   5.871   5.864
 4595POPC   GL158861  26.020   5.865   6.164
 4595POPC   GL258862  26.160   5.769   6.164
 4595POPC   C1A58863  26.042   5.879   6.464
 4595POPC   D2A58864  26.038   5.851   6.764
 4595POPC   C3A58865  26.054   5.884   7.064
 4595POPC   C4A58866  26.074   5.908   7.364
 4595POPC   C1B58867  26.267   5.692   6.464
 4595POPC   C2B58868  26.197   5.705   6.764
 4595POPC   C3B58869  26.260   5.718   7.064
 4595POPC   C4B58870  26.278   5.743   7.364
 4596POPC   NC358871   7.420  33.033   5.564
 4596POPC   PO458872   7.469  32.980   5.864
 4596POPC   GL158873   7.437  33.040   6.164
 4596POPC   GL258874   7.452  33.183   6.164
 4596POPC   C1A58875   7.470  33.045   6.464
 4596POPC   D2A58876   7.461  32.987   6.764
 4596POPC   C3A58877   7.397  33.033   7.064
 4596POPC   C4A58878   7.371  33.053   7.364
 4596POPC   C1B58879   7.475  33.274   6.464
 4596POPC   C2B58880   7.492  33.229   6.764
 4596POPC   C3B58881   7.562  33.235   7.064
 4596POPC   C4B58882   7.548  33.282   7.364
 4597POPC   NC358883  10.536  12.889   5.564
 4597POPC   PO458884  10.515  12.851   5.864
 4597POPC   GL158885  10.506  12.817   6.164
 4597POPC   GL258886  10.374  12.850   6.164
 4597POPC   C1A58887  10.487  12.808   6.464
 4597POPC   D2A58888  10.506  12.804   6.764
 4597POPC   C3A58889  10.503  12.826   7.064
 4597POPC   C4A58890  10.479  12.821   7.364
 4597POPC   C1B58891  10.294  12.802   6.464
 4597POPC   C2B58892  10.290  12.814   6.764
 4597POPC   C3B58893  10.315  12.817   7.064
 4597POPC   C4B58894  10.289  12.768   7.364
 4598POPC   NC358895  36.938  20.619   5.564
 4598POPC   PO458896  36.870  20.581   5.864
 4598POPC   GL158897  36.933  20.579   6.164
 4598POPC   GL258898  36.901  20.750   6.164
 4598POPC   C1A58899  36.922  20.573   6.464
 4598POPC   D2A58900  36.935  20.630   6.764
 4598POPC   C3A58901  36.935  20.595   7.064
 4598POPC   C4A58902  36.925  20.586   7.364
 4598POPC   C1B58903  36.801  20.867   6.464
 4598POPC   C2B58904  36.898  20.837   6.764
 4598POPC   C3B58905  36.815  20.858   7.064
 4598POPC   C4B58906  36.851  20.809   7.364
 4599POPC   NC358907  37.673  28.331   5.564
 4599POPC   PO458908  37.686  28.397   5.864
 4599POPC   GL158909  37.641  28.404   6.164
 4599POPC   GL258910  37.841  28.345   6.164
 4599POPC   C1A58911  37.651  28.360   6.464
 4599POPC   D2A58912  37.638  28.408   6.764
 4599POPC   C3A58913  37.727  28.354   7.064
 4599POPC   C4A58914  37.637  28.417   7.364
 4599POPC   C1B58915  37.884  28.317   6.464
 4599POPC   C2B58916  37.897  28.323   6.764
 4599POPC   C3B58917  37.899  28.345   7.064
 4599POPC   C4B58918  37.900  28.390   7.364
 4600POPC   NC358919  36.107  36.109   5.564
 4600POPC   PO458920  36.121  36.138   5.864
 4600POPC   GL158921  36.098  36.175   6.164
 4600POPC   GL258922  36.111  36.298   6.164
 4600POPC   C1A58923  36.112  36.129   6.464
 4600POPC   D2A58924  36.108  36.163   6.764
 4600POPC   C3A58925  36.171  36.125   7.064
 4600POPC   C4A58926  36.167  36.089   7.364
 4600POPC   C1B58927  36.086  36.377   6.464
 4600POPC   C2B58928  36.124  36.355   6.764
 4600POPC   C3B58929  36.092  36.337   7.064
 4600POPC   C4B58930  36.099  36.400   7.364
 4601POPC   NC358931   1.210  26.866   5.564
 4601POPC   PO458932   1.253  26.845   5.864
 4601POPC   GL158933   1.199  26.864   6.164
 4601POPC   GL258934   1.189  26.905   6.164
 4601POPC   C1A58935   1.223  26.769   6.464
 4601POPC   D2A58936   1.175  26.830   6.764
 4601POPC   C3A58937   1.184  26.865   7.064
 4601POPC   C4A58938   1.164  26.776   7.364
 4601POPC   C1B58939   1.067  26.983   6.464
 4601POPC   C2B58940   1.095  27.036   6.764
 4601POPC   C3B58941   1.053  27.028   7.064
 4601POPC   C4B58942   1.044  27.051   7.364
 4602POPC   NC358943  29.133  12.829   5.564
 4602POPC   PO458944  29.157  12.865   5.864
 4602POPC   GL158945  29.133  12.865   6.164
 4602POPC   GL258946  29.152  13.005   6.164
 4602POPC   C1A58947  29.153  12.870   6.464
 4602POPC   D2A58948  29.153  12.808   6.764
 4602POPC   C3A58949  29.150  12.858   7.064
 4602POPC   C4A58950  29.176  12.879   7.364
 4602POPC   C1B58951  29.227  13.038   6.464
 4602POPC   C2B58952  29.207  13.119   6.764
 4602POPC   C3B58953  29.201  13.086   7.064
 4602POPC   C4B58954  29.255  13.066   7.364
 4603POPC   NC358955  19.789  15.182   5.564
 4603POPC   PO458956  19.809  15.220   5.864
 4603POPC   GL158957  19.874  15.149   6.164
 4603POPC   GL258958  19.911  15.213   6.164
 4603POPC   C1A58959  19.816  15.191   6.464
 4603POPC   D2A58960  19.801  15.193   6.764
 4603POPC   C3A58961  19.870  15.219   7.064
 4603POPC   C4A58962  19.816  15.151   7.364
 4603POPC   C1B58963  20.075  15.228   6.464
 4603POPC   C2B58964  20.038  15.219   6.764
 4603POPC   C3B58965  20.020  15.263   7.064
 4603POPC   C4B58966  20.022  15.256   7.364
 4604POPC   NC358967  42.338  26.806   5.564
 4604POPC   PO458968  42.296  26.812   5.864
 4604POPC   GL158969  42.307  26.787   6.164
 4604POPC   GL258970  42.234  26.719   6.164
 4604POPC   C1A58971  42.358  26.775   6.464
 4604POPC   D2A58972  42.294  26.844   6.764
 4604POPC   C3A58973  42.297  26.794   7.064
 4604POPC   C4A58974  42.382  26.771   7.364
 4604POPC   C1B58975  42.202  26.602   6.464
 4604POPC   C2B58976  42.136  26.652   6.764
 4604POPC   C3B58977  42.184  26.596   7.064
 4604POPC   C4B58978  42.176  26.588   7.364
 4605POPC   NC358979  27.598  32.990   5.564
 4605POPC   PO458980  27.603  32.981   5.864
 4605POPC   GL158981  27.622  33.057   6.164
 4605POPC   GL258982  27.714  33.012   6.164
 4605POPC   C1A58983  27.613  33.014   6.464
 4605POPC   D2A58984  27.547  33.047   6.764
 4605POPC   C3A58985  27.617  32.999   7.064
 4605POPC   C4A58986  27.569  32.985   7.364
 4605POPC   C1B58987  27.862  32.914   6.464
 4605POPC   C2B58988  27.803  32.954   6.764
 4605POPC   C3B58989  27.773  32.923   7.064
 4605POPC   C4B58990  27.779  32.918   7.364
 4606POPC   NC358991  43.898  16.001   5.564
 4606POPC   PO458992  43.908  15.926   5.864
 4606POPC   GL158993  43.888  15.955   6.164
 4606POPC   GL258994  43.994  15.969   6.164
 4606POPC   C1A58995  43.865  15.921   6.464
 4606POPC   D2A58996  43.875  15.978   6.764
 4606POPC   C3A58997  43.864  15.965   7.064
 4606POPC   C4A58998  43.926  15.948   7.364
 4606POPC   C1B58999  44.140  16.095   6.464
 4606POPC   C2B59000  44.089  16.053   6.764
 4606POPC   C3B59001  44.070  16.048   7.064
 4606POPC   C4B59002  44.136  16.060   7.364
 4607POPC   NC359003  39.985  16.749   5.564
 4607POPC   PO459004  40.030  16.743   5.864
 4607POPC   GL159005  39.968  16.738   6.164
 4607POPC   GL259006  39.908  16.842   6.164
 4607POPC   C1A59007  40.029  16.711   6.464
 4607POPC   D2A59008  39.992  16.761   6.764
 4607POPC   C3A59009  39.973  16.720   7.064
 4607POPC   C4A59010  40.012  16.710   7.364
 4607POPC   C1B59011  39.843  16.877   6.464
 4607POPC   C2B59012  39.789  16.906   6.764
 4607POPC   C3B59013  39.834  16.827   7.064
 4607POPC   C4B59014  39.835  16.865   7.364
 4608POPC   NC359015  35.382  17.511   5.564
 4608POPC   PO459016  35.390  17.509   5.864
 4608POPC   GL159017  35.333  17.544   6.164
 4608POPC   GL259018  35.356  17.397   6.164
 4608POPC   C1A59019  35.360  17.513   6.464
 4608POPC   D2A59020  35.361  17.540   6.764
 4608POPC   C3A59021  35.302  17.511   7.064
 4608POPC   C4A59022  35.399  17.476   7.364
 4608POPC   C1B59023  35.263  17.250   6.464
 4608POPC   C2B59024  35.309  17.265   6.764
 4608POPC   C3B59025  35.263  17.268   7.064
 4608POPC   C4B59026  35.265  17.310   7.364
 4609POPC   NC359027  37.712  30.652   5.564
 4609POPC   PO459028  37.719  30.648   5.864
 4609POPC   GL159029  37.632  30.746   6.164
 4609POPC   GL259030  37.710  30.611   6.164
 4609POPC   C1A59031  37.688  30.722   6.464
 4609POPC   D2A59032  37.673  30.713   6.764
 4609POPC   C3A59033  37.659  30.650   7.064
 4609POPC   C4A59034  37.687  30.695   7.364
 4609POPC   C1B59035  37.789  30.431   6.464
 4609POPC   C2B59036  37.771  30.499   6.764
 4609POPC   C3B59037  37.772  30.503   7.064
 4609POPC   C4B59038  37.800  30.438   7.364
 4610POPC   NC359039  35.326  25.239   5.564
 4610POPC   PO459040  35.317  25.296   5.864
 4610POPC   GL159041  35.370  25.240   6.164
 4610POPC   GL259042  35.407  25.178   6.164
 4610POPC   C1A59043  35.339  25.261   6.464
 4610POPC   D2A59044  35.309  25.284   6.764
 4610POPC   C3A59045  35.367  25.283   7.064
 4610POPC   C4A59046  35.369  25.258   7.364
 4610POPC   C1B59047  35.469  25.040   6.464
 4610POPC   C2B59048  35.517  25.096   6.764
 4610POPC   C3B59049  35.539  25.050   7.064
 4610POPC   C4B59050  35.541  25.072   7.364
 4611POPC   NC359051  28.328   5.142   5.564
 4611POPC   PO459052  28.407   5.137   5.864
 4611POPC   GL159053  28.331   5.083   6.164
 4611POPC   GL259054  28.403   5.004   6.164
 4611POPC   C1A59055  28.383   5.068   6.464
 4611POPC   D2A59056  28.395   5.051   6.764
 4611POPC   C3A59057  28.368   5.056   7.064
 4611POPC   C4A59058  28.341   5.079   7.364
 4611POPC   C1B59059  28.531   4.873   6.464
 4611POPC   C2B59060  28.522   4.904   6.764
 4611POPC   C3B59061  28.525   4.900   7.064
 4611POPC   C4B59062  28.563   4.890   7.364
 4612POPC   NC359063  12.897  20.624   5.564
 4612POPC   PO459064  12.806  20.659   5.864
 4612POPC   GL159065  12.887  20.644   6.164
 4612POPC   GL259066  12.738  20.501   6.164
 4612POPC   C1A59067  12.815  20.649   6.464
 4612POPC   D2A59068  12.877  20.615   6.764
 4612POPC   C3A59069  12.840  20.626   7.064
 4612POPC   C4A59070  12.894  20.642   7.364
 4612POPC   C1B59071  12.687  20.462   6.464
 4612POPC   C2B59072  12.636  20.443   6.764
 4612POPC   C3B59073  12.657  20.407   7.064
 4612POPC   C4B59074  12.664  20.478   7.364
 4613POPC   NC359075   5.047   9.019   5.564
 4613POPC   PO459076   5.072   8.926   5.864
 4613POPC   GL159077   5.139   8.955   6.164
 4613POPC   GL259078   5.207   9.000   6.164
 4613POPC   C1A59079   5.136   8.964   6.464
 4613POPC   D2A59080   5.099   9.015   6.764
 4613POPC   C3A59081   5.084   9.022   7.064
 4613POPC   C4A59082   5.069   9.017   7.364
 4613POPC   C1B59083   5.297   8.926   6.464
 4613POPC   C2B59084   5.383   8.919   6.764
 4613POPC   C3B59085   5.363   8.911   7.064
 4613POPC   C4B59086   5.325   8.930   7.364
 4614POPC   NC359087   8.184  33.020   5.564
 4614POPC   PO459088   8.208  33.057   5.864
 4614POPC   GL159089   8.237  33.038   6.164
 4614POPC   GL259090   8.026  32.999   6.164
 4614POPC   C1A59091   8.185  33.045   6.464
 4614POPC   D2A59092   8.153  33.066   6.764
 4614POPC   C3A59093   8.208  32.985   7.064
 4614POPC   C4A59094   8.224  32.983   7.364
 4614POPC   C1B59095   7.967  32.940   6.464
 4614POPC   C2B59096   7.911  33.000   6.764
 4614POPC   C3B59097   7.943  32.926   7.064
 4614POPC   C4B59098   7.966  33.003   7.364
 4615POPC   NC359099  39.259  12.100   5.564
 4615POPC   PO459100  39.231  12.114   5.864
 4615POPC   GL159101  39.254  12.045   6.164
 4615POPC   GL259102  39.115  12.037   6.164
 4615POPC   C1A59103  39.220  12.048   6.464
 4615POPC   D2A59104  39.224  12.061   6.764
 4615POPC   C3A59105  39.250  12.096   7.064
 4615POPC   C4A59106  39.278  12.039   7.364
 4615POPC   C1B59107  39.022  11.923   6.464
 4615POPC   C2B59108  39.049  11.902   6.764
 4615POPC   C3B59109  38.998  11.975   7.064
 4615POPC   C4B59110  39.046  11.918   7.364
 4616POPC   NC359111  43.139  26.065   5.564
 4616POPC   PO459112  43.129  26.009   5.864
 4616POPC   GL159113  43.073  26.043   6.164
 4616POPC   GL259114  43.240  26.043   6.164
 4616POPC   C1A59115  43.066  26.055   6.464
 4616POPC   D2A59116  43.138  26.061   6.764
 4616POPC   C3A59117  43.144  26.086   7.064
 4616POPC   C4A59118  43.151  26.041   7.364
 4616POPC   C1B59119  43.366  26.030   6.464
 4616POPC   C2B59120  43.334  25.956   6.764
 4616POPC   C3B59121  43.360  26.019   7.064
 4616POPC   C4B59122  43.328  26.024   7.364
 4617POPC   NC359123  40.009  18.289   5.564
 4617POPC   PO459124  39.981  18.280   5.864
 4617POPC   GL159125  39.963  18.240   6.164
 4617POPC   GL259126  39.907  18.273   6.164
 4617POPC   C1A59127  40.046  18.238   6.464
 4617POPC   D2A59128  39.997  18.255   6.764
 4617POPC   C3A59129  39.966  18.318   7.064
 4617POPC   C4A59130  40.033  18.236   7.364
 4617POPC   C1B59131  39.794  18.192   6.464
 4617POPC   C2B59132  39.803  18.121   6.764
 4617POPC   C3B59133  39.740  18.140   7.064
 4617POPC   C4B59134  39.817  18.163   7.364
 4618POPC   NC359135  28.378   9.797   5.564
 4618POPC   PO459136  28.341   9.719   5.864
 4618POPC   GL159137  28.402   9.762   6.164
 4618POPC   GL259138  28.516   9.798   6.164
 4618POPC   C1A59139  28.372   9.702   6.464
 4618POPC   D2A59140  28.392   9.769   6.764
 4618POPC   C3A59141  28.351   9.742   7.064
 4618POPC   C4A59142  28.384   9.780   7.364
 4618POPC   C1B59143  28.641   9.760   6.464
 4618POPC   C2B59144  28.572   9.790   6.764
 4618POPC   C3B59145  28.606   9.824   7.064
 4618POPC   C4B59146  28.619   9.832   7.364
 4619POPC   NC359147   0.431  10.554   5.564
 4619POPC   PO459148   0.392  10.533   5.864
 4619POPC   GL159149   0.402  10.567   6.164
 4619POPC   GL259150   0.406  10.385   6.164
 4619POPC   C1A59151   0.426  10.551   6.464
 4619POPC   D2A59152   0.460  10.565   6.764
 4619POPC   C3A59153   0.405  10.496   7.064
 4619POPC   C4A59154   0.436  10.527   7.364
 4619POPC   C1B59155   0.423  10.294   6.464
 4619POPC   C2B59156   0.382  10.231   6.764
 4619POPC   C3B59157   0.446  10.265   7.064
 4619POPC   C4B59158   0.442  10.248   7.364
 4620POPC   NC359159  27.571  22.944   5.564
 4620POPC   PO459160  27.587  22.959   5.864
 4620POPC   GL159161  27.561  22.907   6.164
 4620POPC   GL259162  27.467  23.032   6.164
 4620POPC   C1A59163  27.590  22.961   6.464
 4620POPC   D2A59164  27.592  22.914   6.764
 4620POPC   C3A59165  27.564  22.944   7.064
 4620POPC   C4A59166  27.563  22.905   7.364
 4620POPC   C1B59167  27.456  23.139   6.464
 4620POPC   C2B59168  27.457  23.165   6.764
 4620POPC   C3B59169  27.469  23.110   7.064
 4620POPC   C4B59170  27.469  23.103   7.364
 4621POPC   NC359171   8.162  14.368   5.564
 4621POPC   PO459172   8.217  14.412   5.864
 4621POPC   GL159173   8.218  14.449   6.164
 4621POPC   GL259174   8.323  14.438   6.164
 4621POPC   C1A59175   8.156  14.433   6.464
 4621POPC   D2A59176   8.170  14.392   6.764
 4621POPC   C3A59177   8.175  14.387   7.064
 4621POPC   C4A59178   8.202  14.386   7.364
 4621POPC   C1B59179   8.342  14.567   6.464
 4621POPC   C2B59180   8.357  14.604   6.764
 4621POPC   C3B59181   8.430  14.558   7.064
 4621POPC   C4B59182   8.385  14.528   7.364
 4622POPC   NC359183  24.493  33.791   5.564
 4622POPC   PO459184  24.535  33.820   5.864
 4622POPC   GL159185  24.508  33.805   6.164
 4622POPC   GL259186  24.438  33.904   6.164
 4622POPC   C1A59187  24.507  33.777   6.464
 4622POPC   D2A59188  24.497  33.799   6.764
 4622POPC   C3A59189  24.539  33.762   7.064
 4622POPC   C4A59190  24.455  33.841   7.364
 4622POPC   C1B59191  24.358  33.971   6.464
 4622POPC   C2B59192  24.285  34.018   6.764
 4622POPC   C3B59193  24.325  34.012   7.064
 4622POPC   C4B59194  24.293  33.996   7.364
 4623POPC   NC359195   5.842  11.344   5.564
 4623POPC   PO459196   5.889  11.312   5.864
 4623POPC   GL159197   5.828  11.282   6.164
 4623POPC   GL259198   5.840  11.208   6.164
 4623POPC   C1A59199   5.915  11.342   6.464
 4623POPC   D2A59200   5.867  11.263   6.764
 4623POPC   C3A59201   5.895  11.294   7.064
 4623POPC   C4A59202   5.826  11.348   7.364
 4623POPC   C1B59203   5.875  11.052   6.464
 4623POPC   C2B59204   5.816  11.020   6.764
 4623POPC   C3B59205   5.876  11.051   7.064
 4623POPC   C4B59206   5.844  11.098   7.364
 4624POPC   NC359207  12.803  22.179   5.564
 4624POPC   PO459208  12.828  22.145   5.864
 4624POPC   GL159209  12.852  22.172   6.164
 4624POPC   GL259210  12.956  22.210   6.164
 4624POPC   C1A59211  12.899  22.133   6.464
 4624POPC   D2A59212  12.869  22.156   6.764
 4624POPC   C3A59213  12.818  22.170   7.064
 4624POPC   C4A59214  12.815  22.151   7.364
 4624POPC   C1B59215  13.101  22.141   6.464
 4624POPC   C2B59216  13.150  22.138   6.764
 4624POPC   C3B59217  13.132  22.139   7.064
 4624POPC   C4B59218  13.056  22.151   7.364
 4625POPC   NC359219  42.325  29.923   5.564
 4625POPC   PO459220  42.308  29.885   5.864
 4625POPC   GL159221  42.358  29.941   6.164
 4625POPC   GL259222  42.299  30.073   6.164
 4625POPC   C1A59223  42.350  29.936   6.464
 4625POPC   D2A59224  42.290  29.944   6.764
 4625POPC   C3A59225  42.324  29.907   7.064
 4625POPC   C4A59226  42.372  29.966   7.364
 4625POPC   C1B59227  42.212  30.143   6.464
 4625POPC   C2B59228  42.170  30.143   6.764
 4625POPC   C3B59229  42.204  30.114   7.064
 4625POPC   C4B59230  42.175  30.134   7.364
 4626POPC   NC359231  31.428  29.141   5.564
 4626POPC   PO459232  31.504  29.143   5.864
 4626POPC   GL159233  31.522  29.136   6.164
 4626POPC   GL259234  31.448  28.972   6.164
 4626POPC   C1A59235  31.466  29.159   6.464
 4626POPC   D2A59236  31.468  29.117   6.764
 4626POPC   C3A59237  31.459  29.108   7.064
 4626POPC   C4A59238  31.445  29.138   7.364
 4626POPC   C1B59239  31.475  28.904   6.464
 4626POPC   C2B59240  31.484  28.873   6.764
 4626POPC   C3B59241  31.452  28.901   7.064
 4626POPC   C4B59242  31.455  28.885   7.364
 4627POPC   NC359243  39.195  20.654   5.564
 4627POPC   PO459244  39.196  20.613   5.864
 4627POPC   GL159245  39.241  20.636   6.164
 4627POPC   GL259246  39.182  20.529   6.164
 4627POPC   C1A59247  39.217  20.572   6.464
 4627POPC   D2A59248  39.248  20.608   6.764
 4627POPC   C3A59249  39.257  20.633   7.064
 4627POPC   C4A59250  39.201  20.610   7.364
 4627POPC   C1B59251  39.272  20.328   6.464
 4627POPC   C2B59252  39.255  20.356   6.764
 4627POPC   C3B59253  39.266  20.321   7.064
 4627POPC   C4B59254  39.206  20.333   7.364
 4628POPC   NC359255  12.841  13.644   5.564
 4628POPC   PO459256  12.874  13.666   5.864
 4628POPC   GL159257  12.812  13.639   6.164
 4628POPC   GL259258  12.850  13.550   6.164
 4628POPC   C1A59259  12.832  13.615   6.464
 4628POPC   D2A59260  12.835  13.636   6.764
 4628POPC   C3A59261  12.848  13.648   7.064
 4628POPC   C4A59262  12.809  13.641   7.364
 4628POPC   C1B59263  12.865  13.383   6.464
 4628POPC   C2B59264  12.808  13.415   6.764
 4628POPC   C3B59265  12.806  13.368   7.064
 4628POPC   C4B59266  12.835  13.408   7.364
 4629POPC   NC359267  32.975   6.597   5.564
 4629POPC   PO459268  33.047   6.607   5.864
 4629POPC   GL159269  33.054   6.687   6.164
 4629POPC   GL259270  33.003   6.744   6.164
 4629POPC   C1A59271  33.074   6.662   6.464
 4629POPC   D2A59272  32.984   6.628   6.764
 4629POPC   C3A59273  32.980   6.621   7.064
 4629POPC   C4A59274  32.995   6.625   7.364
 4629POPC   C1B59275  33.056   6.896   6.464
 4629POPC   C2B59276  33.067   6.930   6.764
 4629POPC   C3B59277  33.046   6.885   7.064
 4629POPC   C4B59278  33.022   6.877   7.364
 4630POPC   NC359279  36.121  18.258   5.564
 4630POPC   PO459280  36.143  18.320   5.864
 4630POPC   GL159281  36.174  18.265   6.164
 4630POPC   GL259282  36.071  18.355   6.164
 4630POPC   C1A59283  36.098  18.318   6.464
 4630POPC   D2A59284  36.147  18.315   6.764
 4630POPC   C3A59285  36.167  18.239   7.064
 4630POPC   C4A59286  36.116  18.325   7.364
 4630POPC   C1B59287  35.955  18.452   6.464
 4630POPC   C2B59288  35.977  18.503   6.764
 4630POPC   C3B59289  35.960  18.487   7.064
 4630POPC   C4B59290  35.995  18.511   7.364
 4631POPC   NC359291  31.521   0.486   5.564
 4631POPC   PO459292  31.429   0.428   5.864
 4631POPC   GL159293  31.511   0.400   6.164
 4631POPC   GL259294  31.381   0.374   6.164
 4631POPC   C1A59295  31.443   0.466   6.464
 4631POPC   D2A59296  31.449   0.436   6.764
 4631POPC   C3A59297  31.450   0.442   7.064
 4631POPC   C4A59298  31.476   0.431   7.364
 4631POPC   C1B59299  31.213   0.371   6.464
 4631POPC   C2B59300  31.231   0.363   6.764
 4631POPC   C3B59301  31.238   0.384   7.064
 4631POPC   C4B59302  31.267   0.358   7.364
 4632POPC   NC359303   5.839  22.979   5.564
 4632POPC   PO459304   5.834  22.968   5.864
 4632POPC   GL159305   5.861  22.985   6.164
 4632POPC   GL259306   5.753  22.916   6.164
 4632POPC   C1A59307   5.884  22.958   6.464
 4632POPC   D2A59308   5.879  22.916   6.764
 4632POPC   C3A59309   5.855  22.964   7.064
 4632POPC   C4A59310   5.860  22.979   7.364
 4632POPC   C1B59311   5.638  22.954   6.464
 4632POPC   C2B59312   5.575  22.870   6.764
 4632POPC   C3B59313   5.579  22.863   7.064
 4632POPC   C4B59314   5.584  22.931   7.364
 4633POPC   NC359315   6.667   3.559   5.564
 4633POPC   PO459316   6.676   3.588   5.864
 4633POPC   GL159317   6.639   3.550   6.164
 4633POPC   GL259318   6.590   3.678   6.164
 4633POPC   C1A59319   6.662   3.495   6.464
 4633POPC   D2A59320   6.693   3.586   6.764
 4633POPC   C3A59321   6.688   3.498   7.064
 4633POPC   C4A59322   6.691   3.573   7.364
 4633POPC   C1B59323   6.630   3.820   6.464
 4633POPC   C2B59324   6.603   3.740   6.764
 4633POPC   C3B59325   6.626   3.828   7.064
 4633POPC   C4B59326   6.663   3.814   7.364
 4634POPC   NC359327  42.286  24.449   5.564
 4634POPC   PO459328  42.357  24.475   5.864
 4634POPC   GL159329  42.350  24.502   6.164
 4634POPC   GL259330  42.315  24.610   6.164
 4634POPC   C1A59331  42.360  24.465   6.464
 4634POPC   D2A59332  42.359  24.526   6.764
 4634POPC   C3A59333  42.371  24.528   7.064
 4634POPC   C4A59334  42.301  24.482   7.364
 4634POPC   C1B59335  42.207  24.725   6.464
 4634POPC   C2B59336  42.194  24.688   6.764
 4634POPC   C3B59337  42.275  24.675   7.064
 4634POPC   C4B59338  42.219  24.745   7.364
 4635POPC   NC359339  28.331  27.641   5.564
 4635POPC   PO459340  28.387  27.593   5.864
 4635POPC   GL159341  28.331  27.602   6.164
 4635POPC   GL259342  28.438  27.511   6.164
 4635POPC   C1A59343  28.341  27.561   6.464
 4635POPC   D2A59344  28.375  27.622   6.764
 4635POPC   C3A59345  28.348  27.603   7.064
 4635POPC   C4A59346  28.337  27.555   7.364
 4635POPC   C1B59347  28.514  27.350   6.464
 4635POPC   C2B59348  28.475  27.397   6.764
 4635POPC   C3B59349  28.464  27.354   7.064
 4635POPC   C4B59350  28.512  27.341   7.364
 4636POPC   NC359351  31.479  26.084   5.564
 4636POPC   PO459352  31.508  26.090   5.864
 4636POPC   GL159353  31.455  25.994   6.164
 4636POPC   GL259354  31.482  25.877   6.164
 4636POPC   C1A59355  31.474  26.008   6.464
 4636POPC   D2A59356  31.494  26.031   6.764
 4636POPC   C3A59357  31.470  26.066   7.064
 4636POPC   C4A59358  31.444  26.082   7.364
 4636POPC   C1B59359  31.489  25.833   6.464
 4636POPC   C2B59360  31.448  25.820   6.764
 4636POPC   C3B59361  31.487  25.789   7.064
 4636POPC   C4B59362  31.419  25.787   7.364
 4637POPC   NC359363  12.029   0.394   5.564
 4637POPC   PO459364  12.041   0.433   5.864
 4637POPC   GL159365  12.122   0.399   6.164
 4637POPC   GL259366  11.978   0.450   6.164
 4637POPC   C1A59367  12.123   0.399   6.464
 4637POPC   D2A59368  12.078   0.395   6.764
 4637POPC   C3A59369  12.028   0.439   7.064
 4637POPC   C4A59370  12.118   0.408   7.364
 4637POPC   C1B59371  11.801   0.435   6.464
 4637POPC   C2B59372  11.799   0.393   6.764
 4637POPC   C3B59373  11.855   0.401   7.064
 4637POPC   C4B59374  11.866   0.389   7.364
 4638POPC   NC359375   4.336  17.543   5.564
 4638POPC   PO459376   4.354  17.553   5.864
 4638POPC   GL159377   4.296  17.542   6.164
 4638POPC   GL259378   4.316  17.431   6.164
 4638POPC   C1A59379   4.287  17.464   6.464
 4638POPC   D2A59380   4.366  17.537   6.764
 4638POPC   C3A59381   4.336  17.552   7.064
 4638POPC   C4A59382   4.294  17.504   7.364
 4638POPC   C1B59383   4.204  17.308   6.464
 4638POPC   C2B59384   4.221  17.299   6.764
 4638POPC   C3B59385   4.265  17.264   7.064
 4638POPC   C4B59386   4.297  17.224   7.364
 4639POPC   NC359387  36.159   8.975   5.564
 4639POPC   PO459388  36.114   8.942   5.864
 4639POPC   GL159389  36.108   8.943   6.164
 4639POPC   GL259390  35.992   8.951   6.164
 4639POPC   C1A59391  36.175   8.937   6.464
 4639POPC   D2A59392  36.086   8.967   6.764
 4639POPC   C3A59393  36.078   8.994   7.064
 4639POPC   C4A59394  36.110   8.948   7.364
 4639POPC   C1B59395  35.865   8.813   6.464
 4639POPC   C2B59396  35.861   8.811   6.764
 4639POPC   C3B59397  35.884   8.820   7.064
 4639POPC   C4B59398  35.930   8.835   7.364
 4640POPC   NC359399  32.994   4.344   5.564
 4640POPC   PO459400  33.051   4.307   5.864
 4640POPC   GL159401  33.047   4.312   6.164
 4640POPC   GL259402  32.886   4.315   6.164
 4640POPC   C1A59403  33.047   4.278   6.464
 4640POPC   D2A59404  33.024   4.301   6.764
 4640POPC   C3A59405  32.983   4.344   7.064
 4640POPC   C4A59406  33.030   4.321   7.364
 4640POPC   C1B59407  32.766   4.194   6.464
 4640POPC   C2B59408  32.801   4.229   6.764
 4640POPC   C3B59409  32.821   4.188   7.064
 4640POPC   C4B59410  32.752   4.248   7.364
 4641POPC   NC359411  16.700  29.104   5.564
 4641POPC   PO459412  16.705  29.170   5.864
 4641POPC   GL159413  16.715  29.178   6.164
 4641POPC   GL259414  16.869  29.178   6.164
 4641POPC   C1A59415  16.762  29.099   6.464
 4641POPC   D2A59416  16.708  29.160   6.764
 4641POPC   C3A59417  16.694  29.184   7.064
 4641POPC   C4A59418  16.739  29.104   7.364
 4641POPC   C1B59419  16.987  29.144   6.464
 4641POPC   C2B59420  16.937  29.154   6.764
 4641POPC   C3B59421  17.019  29.148   7.064
 4641POPC   C4B59422  17.001  29.189   7.364
 4642POPC   NC359423  26.804  12.034   5.564
 4642POPC   PO459424  26.826  12.038   5.864
 4642POPC   GL159425  26.853  12.077   6.164
 4642POPC   GL259426  26.830  12.195   6.164
 4642POPC   C1A59427  26.866  12.123   6.464
 4642POPC   D2A59428  26.848  12.060   6.764
 4642POPC   C3A59429  26.852  12.092   7.064
 4642POPC   C4A59430  26.829  12.045   7.364
 4642POPC   C1B59431  26.783  12.298   6.464
 4642POPC   C2B59432  26.756  12.358   6.764
 4642POPC   C3B59433  26.765  12.341   7.064
 4642POPC   C4B59434  26.785  12.351   7.364
 4643POPC   NC359435   0.418  18.251   5.564
 4643POPC   PO459436   0.437  18.236   5.864
 4643POPC   GL159437   0.406  18.287   6.164
 4643POPC   GL259438   0.488  18.427   6.164
 4643POPC   C1A59439   0.479  18.332   6.464
 4643POPC   D2A59440   0.479  18.259   6.764
 4643POPC   C3A59441   0.456  18.331   7.064
 4643POPC   C4A59442   0.444  18.307   7.364
 4643POPC   C1B59443   0.573  18.473   6.464
 4643POPC   C2B59444   0.567  18.512   6.764
 4643POPC   C3B59445   0.609  18.526   7.064
 4643POPC   C4B59446   0.535  18.498   7.364
 4644POPC   NC359447  18.324  41.542   5.564
 4644POPC   PO459448  18.325  41.574   5.864
 4644POPC   GL159449  18.307  41.551   6.164
 4644POPC   GL259450  18.370  41.591   6.164
 4644POPC   C1A59451  18.269  41.539   6.464
 4644POPC   D2A59452  18.315  41.565   6.764
 4644POPC   C3A59453  18.322  41.595   7.064
 4644POPC   C4A59454  18.269  41.531   7.364
 4644POPC   C1B59455  18.485  41.586   6.464
 4644POPC   C2B59456  18.520  41.584   6.764
 4644POPC   C3B59457  18.535  41.651   7.064
 4644POPC   C4B59458  18.534  41.657   7.364
 4645POPC   NC359459   6.658   4.340   5.564
 4645POPC   PO459460   6.658   4.330   5.864
 4645POPC   GL159461   6.596   4.322   6.164
 4645POPC   GL259462   6.686   4.225   6.164
 4645POPC   C1A59463   6.648   4.276   6.464
 4645POPC   D2A59464   6.600   4.327   6.764
 4645POPC   C3A59465   6.615   4.323   7.064
 4645POPC   C4A59466   6.611   4.350   7.364
 4645POPC   C1B59467   6.750   4.155   6.464
 4645POPC   C2B59468   6.792   4.153   6.764
 4645POPC   C3B59469   6.779   4.124   7.064
 4645POPC   C4B59470   6.824   4.093   7.364
 4646POPC   NC359471  36.170  31.507   5.564
 4646POPC   PO459472  36.123  31.464   5.864
 4646POPC   GL159473  36.151  31.480   6.164
 4646POPC   GL259474  36.194  31.621   6.164
 4646POPC   C1A59475  36.143  31.498   6.464
 4646POPC   D2A59476  36.151  31.444   6.764
 4646POPC   C3A59477  36.082  31.518   7.064
 4646POPC   C4A59478  36.105  31.449   7.364
 4646POPC   C1B59479  36.226  31.653   6.464
 4646POPC   C2B59480  36.248  31.714   6.764
 4646POPC   C3B59481  36.233  31.677   7.064
 4646POPC   C4B59482  36.224  31.687   7.364
 4647POPC   NC359483  19.789   6.595   5.564
 4647POPC   PO459484  19.803   6.643   5.864
 4647POPC   GL159485  19.812   6.659   6.164
 4647POPC   GL259486  19.821   6.571   6.164
 4647POPC   C1A59487  19.794   6.687   6.464
 4647POPC   D2A59488  19.815   6.644   6.764
 4647POPC   C3A59489  19.880   6.648   7.064
 4647POPC   C4A59490  19.854   6.607   7.364
 4647POPC   C1B59491  19.722   6.407   6.464
 4647POPC   C2B59492  19.798   6.436   6.764
 4647POPC   C3B59493  19.771   6.360   7.064
 4647POPC   C4B59494  19.733   6.446   7.364
 4648POPC   NC359495  25.222  40.051   5.564
 4648POPC   PO459496  25.297  40.017   5.864
 4648POPC   GL159497  25.268  40.045   6.164
 4648POPC   GL259498  25.266  39.915   6.164
 4648POPC   C1A59499  25.303  39.975   6.464
 4648POPC   D2A59500  25.313  39.985   6.764
 4648POPC   C3A59501  25.226  39.967   7.064
 4648POPC   C4A59502  25.305  39.979   7.364
 4648POPC   C1B59503  25.277  39.725   6.464
 4648POPC   C2B59504  25.305  39.739   6.764
 4648POPC   C3B59505  25.257  39.729   7.064
 4648POPC   C4B59506  25.264  39.708   7.364
 4649POPC   NC359507   6.661   9.016   5.564
 4649POPC   PO459508   6.624   8.971   5.864
 4649POPC   GL159509   6.654   8.989   6.164
 4649POPC   GL259510   6.505   8.961   6.164
 4649POPC   C1A59511   6.603   8.936   6.464
 4649POPC   D2A59512   6.604   8.993   6.764
 4649POPC   C3A59513   6.619   8.988   7.064
 4649POPC   C4A59514   6.632   8.965   7.364
 4649POPC   C1B59515   6.424   8.914   6.464
 4649POPC   C2B59516   6.424   8.873   6.764
 4649POPC   C3B59517   6.449   8.880   7.064
 4649POPC   C4B59518   6.428   8.924   7.364
 4650POPC   NC359519  32.290  32.219   5.564
 4650POPC   PO459520  32.204  32.201   5.864
 4650POPC   GL159521  32.210  32.245   6.164
 4650POPC   GL259522  32.355  32.380   6.164
 4650POPC   C1A59523  32.219  32.241   6.464
 4650POPC   D2A59524  32.220  32.256   6.764
 4650POPC   C3A59525  32.231  32.287   7.064
 4650POPC   C4A59526  32.277  32.268   7.364
 4650POPC   C1B59527  32.484  32.416   6.464
 4650POPC   C2B59528  32.452  32.450   6.764
 4650POPC   C3B59529  32.453  32.434   7.064
 4650POPC   C4B59530  32.487  32.395   7.364
 4651POPC   NC359531  20.638  29.909   5.564
 4651POPC   PO459532  20.626  29.909   5.864
 4651POPC   GL159533  20.629  29.953   6.164
 4651POPC   GL259534  20.655  29.866   6.164
 4651POPC   C1A59535  20.646  29.901   6.464
 4651POPC   D2A59536  20.595  29.893   6.764
 4651POPC   C3A59537  20.649  29.939   7.064
 4651POPC   C4A59538  20.645  29.881   7.364
 4651POPC   C1B59539  20.793  29.761   6.464
 4651POPC   C2B59540  20.781  29.795   6.764
 4651POPC   C3B59541  20.810  29.782   7.064
 4651POPC   C4B59542  20.847  29.727   7.364
 4652POPC   NC359543  26.796   7.371   5.564
 4652POPC   PO459544  26.832   7.416   5.864
 4652POPC   GL159545  26.784   7.432   6.164
 4652POPC   GL259546  26.906   7.373   6.164
 4652POPC   C1A59547  26.811   7.440   6.464
 4652POPC   D2A59548  26.858   7.372   6.764
 4652POPC   C3A59549  26.768   7.372   7.064
 4652POPC   C4A59550  26.835   7.450   7.364
 4652POPC   C1B59551  27.070   7.367   6.464
 4652POPC   C2B59552  27.039   7.380   6.764
 4652POPC   C3B59553  27.098   7.363   7.064
 4652POPC   C4B59554  27.013   7.354   7.364
 4653POPC   NC359555  22.894  13.584   5.564
 4653POPC   PO459556  22.897  13.629   5.864
 4653POPC   GL159557  22.891  13.635   6.164
 4653POPC   GL259558  23.054  13.749   6.164
 4653POPC   C1A59559  22.948  13.643   6.464
 4653POPC   D2A59560  22.894  13.644   6.764
 4653POPC   C3A59561  22.958  13.589   7.064
 4653POPC   C4A59562  22.951  13.629   7.364
 4653POPC   C1B59563  23.155  13.789   6.464
 4653POPC   C2B59564  23.175  13.767   6.764
 4653POPC   C3B59565  23.104  13.767   7.064
 4653POPC   C4B59566  23.126  13.734   7.364
 4654POPC   NC359567  28.417  12.115   5.564
 4654POPC   PO459568  28.374  12.062   5.864
 4654POPC   GL159569  28.343  12.055   6.164
 4654POPC   GL259570  28.466  12.151   6.164
 4654POPC   C1A59571  28.399  12.063   6.464
 4654POPC   D2A59572  28.331  12.056   6.764
 4654POPC   C3A59573  28.336  12.064   7.064
 4654POPC   C4A59574  28.333  12.096   7.364
 4654POPC   C1B59575  28.598  12.252   6.464
 4654POPC   C2B59576  28.533  12.210   6.764
 4654POPC   C3B59577  28.560  12.291   7.064
 4654POPC   C4B59578  28.539  12.260   7.364
 4655POPC   NC359579  12.103  43.122   5.564
 4655POPC   PO459580  12.051  43.124   5.864
 4655POPC   GL159581  12.095  43.091   6.164
 4655POPC   GL259582  12.186  42.995   6.164
 4655POPC   C1A59583  12.062  43.071   6.464
 4655POPC   D2A59584  12.040  43.067   6.764
 4655POPC   C3A59585  12.058  43.154   7.064
 4655POPC   C4A59586  12.053  43.113   7.364
 4655POPC   C1B59587  12.270  42.933   6.464
 4655POPC   C2B59588  12.249  42.911   6.764
 4655POPC   C3B59589  12.277  42.989   7.064
 4655POPC   C4B59590  12.285  42.970   7.364
 4656POPC   NC359591  32.256  37.728   5.564
 4656POPC   PO459592  32.211  37.671   5.864
 4656POPC   GL159593  32.256  37.638   6.164
 4656POPC   GL259594  32.116  37.558   6.164
 4656POPC   C1A59595  32.257  37.671   6.464
 4656POPC   D2A59596  32.258  37.718   6.764
 4656POPC   C3A59597  32.262  37.726   7.064
 4656POPC   C4A59598  32.297  37.692   7.364
 4656POPC   C1B59599  32.041  37.535   6.464
 4656POPC   C2B59600  32.046  37.555   6.764
 4656POPC   C3B59601  32.067  37.525   7.064
 4656POPC   C4B59602  32.080  37.514   7.364
 4657POPC   NC359603  20.603  34.613   5.564
 4657POPC   PO459604  20.589  34.536   5.864
 4657POPC   GL159605  20.576  34.577   6.164
 4657POPC   GL259606  20.494  34.450   6.164
 4657POPC   C1A59607  20.610  34.622   6.464
 4657POPC   D2A59608  20.597  34.583   6.764
 4657POPC   C3A59609  20.615  34.551   7.064
 4657POPC   C4A59610  20.608  34.591   7.364
 4657POPC   C1B59611  20.485  34.410   6.464
 4657POPC   C2B59612  20.459  34.418   6.764
 4657POPC   C3B59613  20.430  34.384   7.064
 4657POPC   C4B59614  20.502  34.332   7.364
 4658POPC   NC359615   5.101  22.902   5.564
 4658POPC   PO459616   5.082  22.984   5.864
 4658POPC   GL159617   5.102  22.913   6.164
 4658POPC   GL259618   5.045  23.012   6.164
 4658POPC   C1A59619   5.134  22.960   6.464
 4658POPC   D2A59620   5.098  22.950   6.764
 4658POPC   C3A59621   5.090  22.941   7.064
 4658POPC   C4A59622   5.085  22.928   7.364
 4658POPC   C1B59623   5.022  23.158   6.464
 4658POPC   C2B59624   5.032  23.197   6.764
 4658POPC   C3B59625   4.973  23.199   7.064
 4658POPC   C4B59626   4.975  23.199   7.364
 4659POPC   NC359627  29.171  12.062   5.564
 4659POPC   PO459628  29.122  12.033   5.864
 4659POPC   GL159629  29.122  12.063   6.164
 4659POPC   GL259630  29.074  11.912   6.164
 4659POPC   C1A59631  29.173  12.061   6.464
 4659POPC   D2A59632  29.176  12.063   6.764
 4659POPC   C3A59633  29.169  12.058   7.064
 4659POPC   C4A59634  29.190  12.109   7.364
 4659POPC   C1B59635  29.044  11.886   6.464
 4659POPC   C2B59636  29.020  11.891   6.764
 4659POPC   C3B59637  29.047  11.879   7.064
 4659POPC   C4B59638  29.025  11.850   7.364
 4660POPC   NC359639   5.821   1.942   5.564
 4660POPC   PO459640   5.860   1.941   5.864
 4660POPC   GL159641   5.868   2.011   6.164
 4660POPC   GL259642   5.866   2.122   6.164
 4660POPC   C1A59643   5.871   1.985   6.464
 4660POPC   D2A59644   5.883   2.015   6.764
 4660POPC   C3A59645   5.898   1.961   7.064
 4660POPC   C4A59646   5.886   1.996   7.364
 4660POPC   C1B59647   5.767   2.198   6.464
 4660POPC   C2B59648   5.792   2.252   6.764
 4660POPC   C3B59649   5.794   2.240   7.064
 4660POPC   C4B59650   5.733   2.233   7.364
 4661POPC   NC359651  36.896  13.652   5.564
 4661POPC   PO459652  36.878  13.653   5.864
 4661POPC   GL159653  36.915  13.618   6.164
 4661POPC   GL259654  36.897  13.750   6.164
 4661POPC   C1A59655  36.922  13.660   6.464
 4661POPC   D2A59656  36.918  13.640   6.764
 4661POPC   C3A59657  36.944  13.665   7.064
 4661POPC   C4A59658  36.946  13.649   7.364
 4661POPC   C1B59659  36.813  13.824   6.464
 4661POPC   C2B59660  36.760  13.846   6.764
 4661POPC   C3B59661  36.836  13.851   7.064
 4661POPC   C4B59662  36.836  13.897   7.364
 4662POPC   NC359663  37.686   1.188   5.564
 4662POPC   PO459664  37.651   1.203   5.864
 4662POPC   GL159665  37.681   1.177   6.164
 4662POPC   GL259666  37.538   1.149   6.164
 4662POPC   C1A59667  37.684   1.262   6.464
 4662POPC   D2A59668  37.633   1.246   6.764
 4662POPC   C3A59669  37.709   1.185   7.064
 4662POPC   C4A59670  37.710   1.201   7.364
 4662POPC   C1B59671  37.450   1.112   6.464
 4662POPC   C2B59672  37.457   1.118   6.764
 4662POPC   C3B59673  37.442   1.177   7.064
 4662POPC   C4B59674  37.474   1.173   7.364
 4663POPC   NC359675  31.429  12.865   5.564
 4663POPC   PO459676  31.450  12.820   5.864
 4663POPC   GL159677  31.463  12.886   6.164
 4663POPC   GL259678  31.321  12.843   6.164
 4663POPC   C1A59679  31.520  12.872   6.464
 4663POPC   D2A59680  31.424  12.834   6.764
 4663POPC   C3A59681  31.509  12.828   7.064
 4663POPC   C4A59682  31.443  12.824   7.364
 4663POPC   C1B59683  31.292  12.783   6.464
 4663POPC   C2B59684  31.284  12.781   6.764
 4663POPC   C3B59685  31.273  12.745   7.064
 4663POPC   C4B59686  31.205  12.753   7.364
 4664POPC   NC359687  18.252  33.754   5.564
 4664POPC   PO459688  18.273  33.848   5.864
 4664POPC   GL159689  18.247  33.843   6.164
 4664POPC   GL259690  18.391  33.810   6.164
 4664POPC   C1A59691  18.310  33.827   6.464
 4664POPC   D2A59692  18.265  33.791   6.764
 4664POPC   C3A59693  18.281  33.798   7.064
 4664POPC   C4A59694  18.297  33.751   7.364
 4664POPC   C1B59695  18.546  33.928   6.464
 4664POPC   C2B59696  18.457  33.903   6.764
 4664POPC   C3B59697  18.465  33.946   7.064
 4664POPC   C4B59698  18.493  33.948   7.364
 4665POPC   NC359699  19.785  11.274   5.564
 4665POPC   PO459700  19.860  11.284   5.864
 4665POPC   GL159701  19.801  11.335   6.164
 4665POPC   GL259702  19.846  11.429   6.164
 4665POPC   C1A59703  19.824  11.348   6.464
 4665POPC   D2A59704  19.824  11.314   6.764
 4665POPC   C3A59705  19.858  11.268   7.064
 4665POPC   C4A59706  19.828  11.297   7.364
 4665POPC   C1B59707  19.974  11.541   6.464
 4665POPC   C2B59708  19.991  11.525   6.764
 4665POPC   C3B59709  19.908  11.476   7.064
 4665POPC   C4B59710  19.983  11.540   7.364
 4666POPC   NC359711   2.011   5.061   5.564
 4666POPC   PO459712   1.982   5.063   5.864
 4666POPC   GL159713   2.000   5.065   6.164
 4666POPC   GL259714   2.063   5.176   6.164
 4666POPC   C1A59715   1.971   5.133   6.464
 4666POPC   D2A59716   1.999   5.051   6.764
 4666POPC   C3A59717   2.018   5.075   7.064
 4666POPC   C4A59718   1.977   5.062   7.364
 4666POPC   C1B59719   2.165   5.269   6.464
 4666POPC   C2B59720   2.157   5.326   6.764
 4666POPC   C3B59721   2.120   5.320   7.064
 4666POPC   C4B59722   2.152   5.296   7.364
 4667POPC   NC359723  12.064  33.023   5.564
 4667POPC   PO459724  12.070  33.046   5.864
 4667POPC   GL159725  12.035  32.991   6.164
 4667POPC   GL259726  12.147  33.171   6.164
 4667POPC   C1A59727  12.054  32.990   6.464
 4667POPC   D2A59728  12.057  33.056   6.764
 4667POPC   C3A59729  12.060  33.048   7.064
 4667POPC   C4A59730  12.068  32.977   7.364
 4667POPC   C1B59731  12.165  33.251   6.464
 4667POPC   C2B59732  12.199  33.227   6.764
 4667POPC   C3B59733  12.159  33.298   7.064
 4667POPC   C4B59734  12.194  33.301   7.364
 4668POPC   NC359735  25.218   2.749   5.564
 4668POPC   PO459736  25.288   2.733   5.864
 4668POPC   GL159737  25.257   2.794   6.164
 4668POPC   GL259738  25.176   2.824   6.164
 4668POPC   C1A59739  25.291   2.810   6.464
 4668POPC   D2A59740  25.238   2.763   6.764
 4668POPC   C3A59741  25.256   2.746   7.064
 4668POPC   C4A59742  25.231   2.716   7.364
 4668POPC   C1B59743  25.014   2.820   6.464
 4668POPC   C2B59744  25.010   2.889   6.764
 4668POPC   C3B59745  25.006   2.829   7.064
 4668POPC   C4B59746  24.997   2.819   7.364
 4669POPC   NC359747  25.280  24.454   5.564
 4669POPC   PO459748  25.244  24.483   5.864
 4669POPC   GL159749  25.231  24.441   6.164
 4669POPC   GL259750  25.266  24.645   6.164
 4669POPC   C1A59751  25.231  24.459   6.464
 4669POPC   D2A59752  25.306  24.476   6.764
 4669POPC   C3A59753  25.314  24.471   7.064
 4669POPC   C4A59754  25.256  24.480   7.364
 4669POPC   C1B59755  25.275  24.707   6.464
 4669POPC   C2B59756  25.286  24.772   6.764
 4669POPC   C3B59757  25.290  24.703   7.064
 4669POPC   C4B59758  25.302  24.765   7.364
 4670POPC   NC359759   1.196  23.674   5.564
 4670POPC   PO459760   1.193  23.678   5.864
 4670POPC   GL159761   1.186  23.696   6.164
 4670POPC   GL259762   1.173  23.573   6.164
 4670POPC   C1A59763   1.243  23.678   6.464
 4670POPC   D2A59764   1.234  23.742   6.764
 4670POPC   C3A59765   1.215  23.709   7.064
 4670POPC   C4A59766   1.226  23.754   7.364
 4670POPC   C1B59767   1.129  23.483   6.464
 4670POPC   C2B59768   1.052  23.522   6.764
 4670POPC   C3B59769   1.119  23.479   7.064
 4670POPC   C4B59770   1.085  23.462   7.364
 4671POPC   NC359771   5.064  35.373   5.564
 4671POPC   PO459772   5.101  35.364   5.864
 4671POPC   GL159773   5.106  35.398   6.164
 4671POPC   GL259774   5.198  35.230   6.164
 4671POPC   C1A59775   5.069  35.341   6.464
 4671POPC   D2A59776   5.129  35.306   6.764
 4671POPC   C3A59777   5.104  35.319   7.064
 4671POPC   C4A59778   5.056  35.383   7.364
 4671POPC   C1B59779   5.234  35.160   6.464
 4671POPC   C2B59780   5.166  35.083   6.764
 4671POPC   C3B59781   5.217  35.168   7.064
 4671POPC   C4B59782   5.175  35.108   7.364
 4672POPC   NC359783  17.544  11.281   5.564
 4672POPC   PO459784  17.533  11.303   5.864
 4672POPC   GL159785  17.549  11.281   6.164
 4672POPC   GL259786  17.602  11.396   6.164
 4672POPC   C1A59787  17.463  11.328   6.464
 4672POPC   D2A59788  17.507  11.307   6.764
 4672POPC   C3A59789  17.539  11.257   7.064
 4672POPC   C4A59790  17.470  11.299   7.364
 4672POPC   C1B59791  17.755  11.392   6.464
 4672POPC   C2B59792  17.681  11.441   6.764
 4672POPC   C3B59793  17.752  11.387   7.064
 4672POPC   C4B59794  17.756  11.453   7.364
 4673POPC   NC359795  12.864  28.374   5.564
 4673POPC   PO459796  12.884  28.363   5.864
 4673POPC   GL159797  12.840  28.391   6.164
 4673POPC   GL259798  12.913  28.258   6.164
 4673POPC   C1A59799  12.838  28.406   6.464
 4673POPC   D2A59800  12.837  28.391   6.764
 4673POPC   C3A59801  12.862  28.368   7.064
 4673POPC   C4A59802  12.888  28.374   7.364
 4673POPC   C1B59803  13.107  28.195   6.464
 4673POPC   C2B59804  13.099  28.221   6.764
 4673POPC   C3B59805  13.042  28.278   7.064
 4673POPC   C4B59806  13.038  28.277   7.364
 4674POPC   NC359807  24.458  27.639   5.564
 4674POPC   PO459808  24.440  27.573   5.864
 4674POPC   GL159809  24.494  27.595   6.164
 4674POPC   GL259810  24.365  27.534   6.164
 4674POPC   C1A59811  24.539  27.614   6.464
 4674POPC   D2A59812  24.476  27.631   6.764
 4674POPC   C3A59813  24.481  27.619   7.064
 4674POPC   C4A59814  24.450  27.589   7.364
 4674POPC   C1B59815  24.252  27.386   6.464
 4674POPC   C2B59816  24.269  27.408   6.764
 4674POPC   C3B59817  24.323  27.436   7.064
 4674POPC   C4B59818  24.249  27.438   7.364
 4675POPC   NC359819  39.240   8.964   5.564
 4675POPC   PO459820  39.212   8.944   5.864
 4675POPC   GL159821  39.197   8.940   6.164
 4675POPC   GL259822  39.103   9.042   6.164
 4675POPC   C1A59823  39.252   8.994   6.464
 4675POPC   D2A59824  39.216   9.006   6.764
 4675POPC   C3A59825  39.246   8.923   7.064
 4675POPC   C4A59826  39.257   8.997   7.364
 4675POPC   C1B59827  39.017   8.996   6.464
 4675POPC   C2B59828  38.967   8.997   6.764
 4675POPC   C3B59829  38.944   9.051   7.064
 4675POPC   C4B59830  38.941   9.053   7.364
 4676POPC   NC359831  43.096  21.391   5.564
 4676POPC   PO459832  43.137  21.359   5.864
 4676POPC   GL159833  43.062  21.358   6.164
 4676POPC   GL259834  43.194  21.352   6.164
 4676POPC   C1A59835  43.135  21.388   6.464
 4676POPC   D2A59836  43.142  21.421   6.764
 4676POPC   C3A59837  43.143  21.348   7.064
 4676POPC   C4A59838  43.144  21.434   7.364
 4676POPC   C1B59839  43.330  21.278   6.464
 4676POPC   C2B59840  43.386  21.328   6.764
 4676POPC   C3B59841  43.315  21.296   7.064
 4676POPC   C4B59842  43.390  21.309   7.364
 4677POPC   NC359843  29.927  38.406   5.564
 4677POPC   PO459844  29.928  38.433   5.864
 4677POPC   GL159845  29.919  38.484   6.164
 4677POPC   GL259846  29.856  38.362   6.164
 4677POPC   C1A59847  29.967  38.433   6.464
 4677POPC   D2A59848  29.921  38.460   6.764
 4677POPC   C3A59849  29.956  38.441   7.064
 4677POPC   C4A59850  29.953  38.419   7.364
 4677POPC   C1B59851  29.681  38.347   6.464
 4677POPC   C2B59852  29.739  38.315   6.764
 4677POPC   C3B59853  29.755  38.355   7.064
 4677POPC   C4B59854  29.723  38.370   7.364
 4678POPC   NC359855  30.741  13.666   5.564
 4678POPC   PO459856  30.721  13.675   5.864
 4678POPC   GL159857  30.656  13.602   6.164
 4678POPC   GL259858  30.597  13.671   6.164
 4678POPC   C1A59859  30.665  13.585   6.464
 4678POPC   D2A59860  30.680  13.628   6.764
 4678POPC   C3A59861  30.680  13.624   7.064
 4678POPC   C4A59862  30.740  13.588   7.364
 4678POPC   C1B59863  30.458  13.661   6.464
 4678POPC   C2B59864  30.431  13.660   6.764
 4678POPC   C3B59865  30.444  13.702   7.064
 4678POPC   C4B59866  30.466  13.657   7.364
 4679POPC   NC359867  36.904  36.927   5.564
 4679POPC   PO459868  36.906  36.904   5.864
 4679POPC   GL159869  36.928  36.889   6.164
 4679POPC   GL259870  37.050  36.820   6.164
 4679POPC   C1A59871  36.930  36.917   6.464
 4679POPC   D2A59872  36.904  36.879   6.764
 4679POPC   C3A59873  36.879  36.896   7.064
 4679POPC   C4A59874  36.868  36.937   7.364
 4679POPC   C1B59875  37.171  36.780   6.464
 4679POPC   C2B59876  37.124  36.845   6.764
 4679POPC   C3B59877  37.146  36.791   7.064
 4679POPC   C4B59878  37.136  36.842   7.364
 4680POPC   NC359879  17.507  26.857   5.564
 4680POPC   PO459880  17.526  26.839   5.864
 4680POPC   GL159881  17.476  26.850   6.164
 4680POPC   GL259882  17.645  26.811   6.164
 4680POPC   C1A59883  17.533  26.790   6.464
 4680POPC   D2A59884  17.543  26.790   6.764
 4680POPC   C3A59885  17.541  26.795   7.064
 4680POPC   C4A59886  17.496  26.827   7.364
 4680POPC   C1B59887  17.761  26.835   6.464
 4680POPC   C2B59888  17.741  26.842   6.764
 4680POPC   C3B59889  17.801  26.838   7.064
 4680POPC   C4B59890  17.768  26.845   7.364
 4681POPC   NC359891   1.192  15.211   5.564
 4681POPC   PO459892   1.183  15.145   5.864
 4681POPC   GL159893   1.220  15.138   6.164
 4681POPC   GL259894   1.061  15.141   6.164
 4681POPC   C1A59895   1.223  15.207   6.464
 4681POPC   D2A59896   1.212  15.223   6.764
 4681POPC   C3A59897   1.262  15.193   7.064
 4681POPC   C4A59898   1.242  15.155   7.364
 4681POPC   C1B59899   1.009  15.121   6.464
 4681POPC   C2B59900   0.976  15.188   6.764
 4681POPC   C3B59901   1.013  15.167   7.064
 4681POPC   C4B59902   0.998  15.176   7.364
 4682POPC   NC359903  29.194   5.066   5.564
 4682POPC   PO459904  29.139   5.103   5.864
 4682POPC   GL159905  29.101   5.048   6.164
 4682POPC   GL259906  29.081   5.124   6.164
 4682POPC   C1A59907  29.172   5.118   6.464
 4682POPC   D2A59908  29.106   5.058   6.764
 4682POPC   C3A59909  29.154   5.127   7.064
 4682POPC   C4A59910  29.104   5.139   7.364
 4682POPC   C1B59911  28.990   5.235   6.464
 4682POPC   C2B59912  28.988   5.283   6.764
 4682POPC   C3B59913  28.956   5.263   7.064
 4682POPC   C4B59914  28.941   5.225   7.364
 4683POPC   NC359915  10.497  32.268   5.564
 4683POPC   PO459916  10.539  32.226   5.864
 4683POPC   GL159917  10.528  32.211   6.164
 4683POPC   GL259918  10.624  32.271   6.164
 4683POPC   C1A59919  10.506  32.253   6.464
 4683POPC   D2A59920  10.487  32.203   6.764
 4683POPC   C3A59921  10.517  32.284   7.064
 4683POPC   C4A59922  10.523  32.240   7.364
 4683POPC   C1B59923  10.780  32.232   6.464
 4683POPC   C2B59924  10.798  32.287   6.764
 4683POPC   C3B59925  10.742  32.235   7.064
 4683POPC   C4B59926  10.745  32.249   7.364
 4684POPC   NC359927   2.017  17.491   5.564
 4684POPC   PO459928   1.962  17.521   5.864
 4684POPC   GL159929   1.956  17.527   6.164
 4684POPC   GL259930   2.070  17.520   6.164
 4684POPC   C1A59931   2.026  17.495   6.464
 4684POPC   D2A59932   1.985  17.485   6.764
 4684POPC   C3A59933   1.940  17.538   7.064
 4684POPC   C4A59934   1.961  17.480   7.364
 4684POPC   C1B59935   2.284  17.533   6.464
 4684POPC   C2B59936   2.204  17.468   6.764
 4684POPC   C3B59937   2.213  17.532   7.064
 4684POPC   C4B59938   2.282  17.525   7.364
 4685POPC   NC359939  17.547  29.137   5.564
 4685POPC   PO459940  17.501  29.097   5.864
 4685POPC   GL159941  17.537  29.107   6.164
 4685POPC   GL259942  17.582  29.159   6.164
 4685POPC   C1A59943  17.518  29.151   6.464
 4685POPC   D2A59944  17.481  29.123   6.764
 4685POPC   C3A59945  17.534  29.178   7.064
 4685POPC   C4A59946  17.491  29.099   7.364
 4685POPC   C1B59947  17.777  29.185   6.464
 4685POPC   C2B59948  17.724  29.178   6.764
 4685POPC   C3B59949  17.754  29.269   7.064
 4685POPC   C4B59950  17.713  29.188   7.364
 4686POPC   NC359951  40.827  24.501   5.564
 4686POPC   PO459952  40.806  24.463   5.864
 4686POPC   GL159953  40.745  24.477   6.164
 4686POPC   GL259954  40.625  24.542   6.164
 4686POPC   C1A59955  40.779  24.493   6.464
 4686POPC   D2A59956  40.763  24.444   6.764
 4686POPC   C3A59957  40.762  24.520   7.064
 4686POPC   C4A59958  40.780  24.455   7.364
 4686POPC   C1B59959  40.516  24.567   6.464
 4686POPC   C2B59960  40.614  24.592   6.764
 4686POPC   C3B59961  40.586  24.633   7.064
 4686POPC   C4B59962  40.558  24.562   7.364
 4687POPC   NC359963   2.743   7.450   5.564
 4687POPC   PO459964   2.786   7.450   5.864
 4687POPC   GL159965   2.759   7.462   6.164
 4687POPC   GL259966   2.758   7.268   6.164
 4687POPC   C1A59967   2.811   7.408   6.464
 4687POPC   D2A59968   2.716   7.426   6.764
 4687POPC   C3A59969   2.730   7.450   7.064
 4687POPC   C4A59970   2.781   7.434   7.364
 4687POPC   C1B59971   2.737   7.213   6.464
 4687POPC   C2B59972   2.752   7.140   6.764
 4687POPC   C3B59973   2.777   7.150   7.064
 4687POPC   C4B59974   2.695   7.135   7.364
 4688POPC   NC359975   5.127   2.808   5.564
 4688POPC   PO459976   5.072   2.811   5.864
 4688POPC   GL159977   5.098   2.762   6.164
 4688POPC   GL259978   4.965   2.715   6.164
 4688POPC   C1A59979   5.134   2.794   6.464
 4688POPC   D2A59980   5.089   2.724   6.764
 4688POPC   C3A59981   5.070   2.765   7.064
 4688POPC   C4A59982   5.055   2.799   7.364
 4688POPC   C1B59983   4.804   2.682   6.464
 4688POPC   C2B59984   4.856   2.700   6.764
 4688POPC   C3B59985   4.821   2.766   7.064
 4688POPC   C4B59986   4.896   2.764   7.364
 4689POPC   NC359987  42.310  22.208   5.564
 4689POPC   PO459988  42.352  22.206   5.864
 4689POPC   GL159989  42.304  22.131   6.164
 4689POPC   GL259990  42.358  22.013   6.164
 4689POPC   C1A59991  42.337  22.207   6.464
 4689POPC   D2A59992  42.375  22.152   6.764
 4689POPC   C3A59993  42.296  22.179   7.064
 4689POPC   C4A59994  42.299  22.185   7.364
 4689POPC   C1B59995  42.400  21.920   6.464
 4689POPC   C2B59996  42.332  21.950   6.764
 4689POPC   C3B59997  42.386  21.926   7.064
 4689POPC   C4B59998  42.401  21.902   7.364
 4690POPC   NC359999  15.933  20.575   5.564
 4690POPC   PO460000  16.000  20.655   5.864
 4690POPC   GL160001  15.974  20.618   6.164
 4690POPC   GL260002  16.116  20.607   6.164
 4690POPC   C1A60003  15.951  20.630   6.464
 4690POPC   D2A60004  15.965  20.567   6.764
 4690POPC   C3A60005  15.972  20.561   7.064
 4690POPC   C4A60006  16.001  20.578   7.364
 4690POPC   C1B60007  16.232  20.505   6.464
 4690POPC   C2B60008  16.173  20.554   6.764
 4690POPC   C3B60009  16.215  20.485   7.064
 4690POPC   C4B60010  16.219  20.507   7.364
 4691POPC   NC360011  14.440  43.854   5.564
 4691POPC   PO460012  14.403  43.852   5.864
 4691POPC   GL160013  14.440  43.925   6.164
 4691POPC   GL260014  14.269  43.775   6.164
 4691POPC   C1A60015  14.386  43.907   6.464
 4691POPC   D2A60016  14.426  43.903   6.764
 4691POPC   C3A60017  14.392  43.869   7.064
 4691POPC   C4A60018  14.383  43.929   7.364
 4691POPC   C1B60019  14.160  43.781   6.464
 4691POPC   C2B60020  14.245  43.732   6.764
 4691POPC   C3B60021  14.165  43.699   7.064
 4691POPC   C4B60022  14.175  43.738   7.364
 4692POPC   NC360023  37.703  44.656   5.564
 4692POPC   PO460024  37.633  44.677   5.864
 4692POPC   GL160025  37.651  44.640   6.164
 4692POPC   GL260026  37.733  44.763   6.164
 4692POPC   C1A60027  37.645  44.671   6.464
 4692POPC   D2A60028  37.664  44.627   6.764
 4692POPC   C3A60029  37.694  44.706   7.064
 4692POPC   C4A60030  37.693  44.688   7.364
 4692POPC   C1B60031  37.787  44.888   6.464
 4692POPC   C2B60032  37.760  44.876   6.764
 4692POPC   C3B60033  37.786  44.942   7.064
 4692POPC   C4B60034  37.796  44.856   7.364
 4693POPC   NC360035  29.949  34.621   5.564
 4693POPC   PO460036  29.955  34.592   5.864
 4693POPC   GL160037  29.970  34.622   6.164
 4693POPC   GL260038  29.997  34.598   6.164
 4693POPC   C1A60039  29.898  34.571   6.464
 4693POPC   D2A60040  29.922  34.526   6.764
 4693POPC   C3A60041  29.947  34.596   7.064
 4693POPC   C4A60042  29.934  34.566   7.364
 4693POPC   C1B60043  30.158  34.601   6.464
 4693POPC   C2B60044  30.192  34.631   6.764
 4693POPC   C3B60045  30.189  34.550   7.064
 4693POPC   C4B60046  30.189  34.628   7.364
 4694POPC   NC360047  15.941  36.130   5.564
 4694POPC   PO460048  15.967  36.174   5.864
 4694POPC   GL160049  15.949  36.081   6.164
 4694POPC   GL260050  15.862  35.992   6.164
 4694POPC   C1A60051  15.939  36.097   6.464
 4694POPC   D2A60052  15.926  36.137   6.764
 4694POPC   C3A60053  15.912  36.132   7.064
 4694POPC   C4A60054  15.906  36.177   7.364
 4694POPC   C1B60055  15.820  35.892   6.464
 4694POPC   C2B60056  15.845  35.954   6.764
 4694POPC   C3B60057  15.837  35.864   7.064
 4694POPC   C4B60058  15.802  35.946   7.364
 4695POPC   NC360059   2.758  43.890   5.564
 4695POPC   PO460060   2.716  43.872   5.864
 4695POPC   GL160061   2.729  43.909   6.164
 4695POPC   GL260062   2.786  43.750   6.164
 4695POPC   C1A60063   2.721  43.905   6.464
 4695POPC   D2A60064   2.716  43.905   6.764
 4695POPC   C3A60065   2.757  43.854   7.064
 4695POPC   C4A60066   2.803  43.858   7.364
 4695POPC   C1B60067   2.833  43.644   6.464
 4695POPC   C2B60068   2.891  43.640   6.764
 4695POPC   C3B60069   2.914  43.688   7.064
 4695POPC   C4B60070   2.838  43.689   7.364
 4696POPC   NC360071  11.347  17.543   5.564
 4696POPC   PO460072  11.324  17.469   5.864
 4696POPC   GL160073  11.259  17.547   6.164
 4696POPC   GL260074  11.209  17.514   6.164
 4696POPC   C1A60075  11.265  17.504   6.464
 4696POPC   D2A60076  11.269  17.479   6.764
 4696POPC   C3A60077  11.315  17.467   7.064
 4696POPC   C4A60078  11.273  17.483   7.364
 4696POPC   C1B60079  11.011  17.499   6.464
 4696POPC   C2B60080  11.035  17.504   6.764
 4696POPC   C3B60081  11.034  17.586   7.064
 4696POPC   C4B60082  11.024  17.520   7.364
 4697POPC   NC360083  38.444  19.842   5.564
 4697POPC   PO460084  38.411  19.857   5.864
 4697POPC   GL160085  38.473  19.880   6.164
 4697POPC   GL260086  38.334  19.822   6.164
 4697POPC   C1A60087  38.468  19.852   6.464
 4697POPC   D2A60088  38.425  19.806   6.764
 4697POPC   C3A60089  38.419  19.806   7.064
 4697POPC   C4A60090  38.430  19.846   7.364
 4697POPC   C1B60091  38.250  19.907   6.464
 4697POPC   C2B60092  38.167  19.931   6.764
 4697POPC   C3B60093  38.227  19.887   7.064
 4697POPC   C4B60094  38.163  19.922   7.364
 4698POPC   NC360095  43.160  20.582   5.564
 4698POPC   PO460096  43.089  20.577   5.864
 4698POPC   GL160097  43.145  20.630   6.164
 4698POPC   GL260098  43.249  20.637   6.164
 4698POPC   C1A60099  43.087  20.616   6.464
 4698POPC   D2A60100  43.125  20.594   6.764
 4698POPC   C3A60101  43.132  20.645   7.064
 4698POPC   C4A60102  43.078  20.572   7.364
 4698POPC   C1B60103  43.358  20.714   6.464
 4698POPC   C2B60104  43.320  20.713   6.764
 4698POPC   C3B60105  43.287  20.796   7.064
 4698POPC   C4B60106  43.304  20.752   7.364
 4699POPC   NC360107   9.749  19.805   5.564
 4699POPC   PO460108   9.703  19.802   5.864
 4699POPC   GL160109   9.733  19.809   6.164
 4699POPC   GL260110   9.796  19.767   6.164
 4699POPC   C1A60111   9.761  19.817   6.464
 4699POPC   D2A60112   9.756  19.823   6.764
 4699POPC   C3A60113   9.740  19.884   7.064
 4699POPC   C4A60114   9.737  19.853   7.364
 4699POPC   C1B60115   9.909  19.596   6.464
 4699POPC   C2B60116   9.918  19.604   6.764
 4699POPC   C3B60117   9.839  19.659   7.064
 4699POPC   C4B60118   9.873  19.634   7.364
 4700POPC   NC360119  11.258  35.346   5.564
 4700POPC   PO460120  11.269  35.372   5.864
 4700POPC   GL160121  11.311  35.367   6.164
 4700POPC   GL260122  11.219  35.287   6.164
 4700POPC   C1A60123  11.330  35.310   6.464
 4700POPC   D2A60124  11.255  35.400   6.764
 4700POPC   C3A60125  11.280  35.317   7.064
 4700POPC   C4A60126  11.337  35.331   7.364
 4700POPC   C1B60127  11.109  35.219   6.464
 4700POPC   C2B60128  11.086  35.224   6.764
 4700POPC   C3B60129  11.094  35.256   7.064
 4700POPC   C4B60130  11.017  35.255   7.364
 4701POPC   NC360131  25.306  39.194   5.564
 4701POPC   PO460132  25.303  39.232   5.864
 4701POPC   GL160133  25.240  39.187   6.164
 4701POPC   GL260134  25.240  39.380   6.164
 4701POPC   C1A60135  25.296  39.242   6.464
 4701POPC   D2A60136  25.238  39.201   6.764
 4701POPC   C3A60137  25.314  39.222   7.064
 4701POPC   C4A60138  25.277  39.204   7.364
 4701POPC   C1B60139  25.313  39.479   6.464
 4701POPC   C2B60140  25.300  39.527   6.764
 4701POPC   C3B60141  25.288  39.479   7.064
 4701POPC   C4B60142  25.317  39.484   7.364
 4702POPC   NC360143  19.016   5.907   5.564
 4702POPC   PO460144  19.031   5.847   5.864
 4702POPC   GL160145  19.030   5.823   6.164
 4702POPC   GL260146  19.129   5.715   6.164
 4702POPC   C1A60147  19.033   5.886   6.464
 4702POPC   D2A60148  19.079   5.874   6.764
 4702POPC   C3A60149  19.057   5.822   7.064
 4702POPC   C4A60150  19.047   5.891   7.364
 4702POPC   C1B60151  19.169   5.698   6.464
 4702POPC   C2B60152  19.140   5.618   6.764
 4702POPC   C3B60153  19.151   5.655   7.064
 4702POPC   C4B60154  19.150   5.663   7.364
 4703POPC   NC360155  20.655   2.803   5.564
 4703POPC   PO460156  20.578   2.717   5.864
 4703POPC   GL160157  20.601   2.754   6.164
 4703POPC   GL260158  20.766   2.796   6.164
 4703POPC   C1A60159  20.561   2.801   6.464
 4703POPC   D2A60160  20.567   2.766   6.764
 4703POPC   C3A60161  20.614   2.753   7.064
 4703POPC   C4A60162  20.639   2.772   7.364
 4703POPC   C1B60163  20.860   2.726   6.464
 4703POPC   C2B60164  20.891   2.706   6.764
 4703POPC   C3B60165  20.904   2.746   7.064
 4703POPC   C4B60166  20.868   2.727   7.364
 4704POPC   NC360167  41.528  24.496   5.564
 4704POPC   PO460168  41.577  24.465   5.864
 4704POPC   GL160169  41.527  24.533   6.164
 4704POPC   GL260170  41.524  24.396   6.164
 4704POPC   C1A60171  41.588  24.505   6.464
 4704POPC   D2A60172  41.555  24.441   6.764
 4704POPC   C3A60173  41.547  24.440   7.064
 4704POPC   C4A60174  41.582  24.448   7.364
 4704POPC   C1B60175  41.462  24.215   6.464
 4704POPC   C2B60176  41.499  24.264   6.764
 4704POPC   C3B60177  41.478  24.209   7.064
 4704POPC   C4B60178  41.498  24.216   7.364
 4705POPC   NC360179  39.987  17.546   5.564
 4705POPC   PO460180  40.006  17.539   5.864
 4705POPC   GL160181  40.052  17.468   6.164
 4705POPC   GL260182  40.103  17.590   6.164
 4705POPC   C1A60183  39.962  17.506   6.464
 4705POPC   D2A60184  39.966  17.543   6.764
 4705POPC   C3A60185  40.038  17.507   7.064
 4705POPC   C4A60186  39.962  17.529   7.364
 4705POPC   C1B60187  40.209  17.680   6.464
 4705POPC   C2B60188  40.180  17.679   6.764
 4705POPC   C3B60189  40.200  17.610   7.064
 4705POPC   C4B60190  40.212  17.605   7.364
 4706POPC   NC360191  19.873  17.482   5.564
 4706POPC   PO460192  19.817  17.544   5.864
 4706POPC   GL160193  19.818  17.489   6.164
 4706POPC   GL260194  19.891  17.664   6.164
 4706POPC   C1A60195  19.846  17.553   6.464
 4706POPC   D2A60196  19.825  17.507   6.764
 4706POPC   C3A60197  19.817  17.513   7.064
 4706POPC   C4A60198  19.815  17.550   7.364
 4706POPC   C1B60199  19.918  17.724   6.464
 4706POPC   C2B60200  19.988  17.770   6.764
 4706POPC   C3B60201  19.907  17.763   7.064
 4706POPC   C4B60202  19.947  17.698   7.364
 4707POPC   NC360203  29.959  32.977   5.564
 4707POPC   PO460204  29.888  33.034   5.864
 4707POPC   GL160205  29.966  33.037   6.164
 4707POPC   GL260206  29.923  32.921   6.164
 4707POPC   C1A60207  29.937  33.070   6.464
 4707POPC   D2A60208  29.961  33.036   6.764
 4707POPC   C3A60209  29.971  33.009   7.064
 4707POPC   C4A60210  29.895  33.046   7.364
 4707POPC   C1B60211  29.968  32.822   6.464
 4707POPC   C2B60212  29.954  32.739   6.764
 4707POPC   C3B60213  29.989  32.809   7.064
 4707POPC   C4B60214  29.930  32.758   7.364
 4708POPC   NC360215  22.129   0.454   5.564
 4708POPC   PO460216  22.164   0.430   5.864
 4708POPC   GL160217  22.180   0.457   6.164
 4708POPC   GL260218  22.102   0.312   6.164
 4708POPC   C1A60219  22.137   0.427   6.464
 4708POPC   D2A60220  22.199   0.392   6.764
 4708POPC   C3A60221  22.131   0.427   7.064
 4708POPC   C4A60222  22.178   0.466   7.364
 4708POPC   C1B60223  21.992   0.279   6.464
 4708POPC   C2B60224  22.034   0.226   6.764
 4708POPC   C3B60225  21.990   0.277   7.064
 4708POPC   C4B60226  21.995   0.264   7.364
 4709POPC   NC360227  41.580  36.166   5.564
 4709POPC   PO460228  41.568  36.157   5.864
 4709POPC   GL160229  41.556  36.117   6.164
 4709POPC   GL260230  41.708  36.084   6.164
 4709POPC   C1A60231  41.561  36.135   6.464
 4709POPC   D2A60232  41.585  36.155   6.764
 4709POPC   C3A60233  41.597  36.143   7.064
 4709POPC   C4A60234  41.607  36.170   7.364
 4709POPC   C1B60235  41.764  36.011   6.464
 4709POPC   C2B60236  41.751  36.019   6.764
 4709POPC   C3B60237  41.753  36.072   7.064
 4709POPC   C4B60238  41.764  36.075   7.364
 4710POPC   NC360239   2.764   6.660   5.564
 4710POPC   PO460240   2.762   6.663   5.864
 4710POPC   GL160241   2.785   6.608   6.164
 4710POPC   GL260242   2.821   6.560   6.164
 4710POPC   C1A60243   2.753   6.630   6.464
 4710POPC   D2A60244   2.763   6.624   6.764
 4710POPC   C3A60245   2.804   6.654   7.064
 4710POPC   C4A60246   2.788   6.681   7.364
 4710POPC   C1B60247   2.821   6.399   6.464
 4710POPC   C2B60248   2.849   6.439   6.764
 4710POPC   C3B60249   2.843   6.402   7.064
 4710POPC   C4B60250   2.829   6.416   7.364
 4711POPC   NC360251  40.031  29.183   5.564
 4711POPC   PO460252  39.999  29.150   5.864
 4711POPC   GL160253  40.046  29.165   6.164
 4711POPC   GL260254  39.956  29.075   6.164
 4711POPC   C1A60255  40.037  29.181   6.464
 4711POPC   D2A60256  39.985  29.106   6.764
 4711POPC   C3A60257  39.992  29.103   7.064
 4711POPC   C4A60258  39.985  29.130   7.364
 4711POPC   C1B60259  39.799  28.966   6.464
 4711POPC   C2B60260  39.803  28.961   6.764
 4711POPC   C3B60261  39.874  28.982   7.064
 4711POPC   C4B60262  39.835  28.924   7.364
 4712POPC   NC360263  28.390  16.738   5.564
 4712POPC   PO460264  28.405  16.682   5.864
 4712POPC   GL160265  28.370  16.775   6.164
 4712POPC   GL260266  28.516  16.758   6.164
 4712POPC   C1A60267  28.386  16.776   6.464
 4712POPC   D2A60268  28.320  16.765   6.764
 4712POPC   C3A60269  28.321  16.753   7.064
 4712POPC   C4A60270  28.378  16.724   7.364
 4712POPC   C1B60271  28.643  16.708   6.464
 4712POPC   C2B60272  28.650  16.679   6.764
 4712POPC   C3B60273  28.616  16.701   7.064
 4712POPC   C4B60274  28.571  16.756   7.364
 4713POPC   NC360275  34.538  34.591   5.564
 4713POPC   PO460276  34.542  34.617   5.864
 4713POPC   GL160277  34.568  34.579   6.164
 4713POPC   GL260278  34.572  34.705   6.164
 4713POPC   C1A60279  34.552  34.541   6.464
 4713POPC   D2A60280  34.586  34.603   6.764
 4713POPC   C3A60281  34.532  34.532   7.064
 4713POPC   C4A60282  34.551  34.569   7.364
 4713POPC   C1B60283  34.519  34.816   6.464
 4713POPC   C2B60284  34.561  34.816   6.764
 4713POPC   C3B60285  34.593  34.864   7.064
 4713POPC   C4B60286  34.525  34.798   7.364
 4714POPC   NC360287  40.782   2.794   5.564
 4714POPC   PO460288  40.755   2.807   5.864
 4714POPC   GL160289  40.797   2.779   6.164
 4714POPC   GL260290  40.888   2.749   6.164
 4714POPC   C1A60291  40.755   2.790   6.464
 4714POPC   D2A60292  40.758   2.811   6.764
 4714POPC   C3A60293  40.759   2.803   7.064
 4714POPC   C4A60294  40.820   2.793   7.364
 4714POPC   C1B60295  40.970   2.646   6.464
 4714POPC   C2B60296  40.960   2.654   6.764
 4714POPC   C3B60297  40.979   2.679   7.064
 4714POPC   C4B60298  41.037   2.649   7.364
 4715POPC   NC360299  18.280  10.513   5.564
 4715POPC   PO460300  18.255  10.533   5.864
 4715POPC   GL160301  18.244  10.571   6.164
 4715POPC   GL260302  18.356  10.403   6.164
 4715POPC   C1A60303  18.264  10.494   6.464
 4715POPC   D2A60304  18.239  10.475   6.764
 4715POPC   C3A60305  18.272  10.557   7.064
 4715POPC   C4A60306  18.293  10.553   7.364
 4715POPC   C1B60307  18.480  10.332   6.464
 4715POPC   C2B60308  18.508  10.326   6.764
 4715POPC   C3B60309  18.447  10.411   7.064
 4715POPC   C4B60310  18.485  10.386   7.364
 4716POPC   NC360311  14.377  33.847   5.564
 4716POPC   PO460312  14.375  33.798   5.864
 4716POPC   GL160313  14.451  33.841   6.164
 4716POPC   GL260314  14.486  33.837   6.164
 4716POPC   C1A60315  14.374  33.832   6.464
 4716POPC   D2A60316  14.416  33.825   6.764
 4716POPC   C3A60317  14.432  33.850   7.064
 4716POPC   C4A60318  14.419  33.819   7.364
 4716POPC   C1B60319  14.626  33.903   6.464
 4716POPC   C2B60320  14.638  33.903   6.764
 4716POPC   C3B60321  14.641  33.982   7.064
 4716POPC   C4B60322  14.633  34.002   7.364
 4717POPC   NC360323  29.954  31.501   5.564
 4717POPC   PO460324  29.965  31.441   5.864
 4717POPC   GL160325  29.905  31.463   6.164
 4717POPC   GL260326  29.909  31.563   6.164
 4717POPC   C1A60327  29.886  31.457   6.464
 4717POPC   D2A60328  29.925  31.490   6.764
 4717POPC   C3A60329  29.898  31.515   7.064
 4717POPC   C4A60330  29.936  31.457   7.364
 4717POPC   C1B60331  29.832  31.719   6.464
 4717POPC   C2B60332  29.870  31.694   6.764
 4717POPC   C3B60333  29.829  31.724   7.064
 4717POPC   C4B60334  29.810  31.699   7.364
 4718POPC   NC360335   8.237   4.315   5.564
 4718POPC   PO460336   8.169   4.363   5.864
 4718POPC   GL160337   8.219   4.331   6.164
 4718POPC   GL260338   8.281   4.403   6.164
 4718POPC   C1A60339   8.228   4.307   6.464
 4718POPC   D2A60340   8.180   4.273   6.764
 4718POPC   C3A60341   8.179   4.300   7.064
 4718POPC   C4A60342   8.147   4.356   7.364
 4718POPC   C1B60343   8.302   4.579   6.464
 4718POPC   C2B60344   8.369   4.525   6.764
 4718POPC   C3B60345   8.305   4.527   7.064
 4718POPC   C4B60346   8.373   4.545   7.364
 4719POPC   NC360347  18.313   4.281   5.564
 4719POPC   PO460348  18.265   4.299   5.864
 4719POPC   GL160349  18.266   4.341   6.164
 4719POPC   GL260350  18.199   4.337   6.164
 4719POPC   C1A60351  18.259   4.319   6.464
 4719POPC   D2A60352  18.320   4.276   6.764
 4719POPC   C3A60353  18.317   4.287   7.064
 4719POPC   C4A60354  18.319   4.297   7.364
 4719POPC   C1B60355  18.067   4.297   6.464
 4719POPC   C2B60356  18.081   4.354   6.764
 4719POPC   C3B60357  18.072   4.283   7.064
 4719POPC   C4B60358  17.998   4.302   7.364
 4720POPC   NC360359   1.991   8.162   5.564
 4720POPC   PO460360   1.967   8.241   5.864
 4720POPC   GL160361   1.985   8.169   6.164
 4720POPC   GL260362   2.139   8.235   6.164
 4720POPC   C1A60363   2.006   8.207   6.464
 4720POPC   D2A60364   1.976   8.199   6.764
 4720POPC   C3A60365   1.990   8.182   7.064
 4720POPC   C4A60366   1.977   8.159   7.364
 4720POPC   C1B60367   2.241   8.226   6.464
 4720POPC   C2B60368   2.281   8.213   6.764
 4720POPC   C3B60369   2.209   8.232   7.064
 4720POPC   C4B60370   2.221   8.290   7.364
 4721POPC   NC360371  14.388  25.218   5.564
 4721POPC   PO460372  14.429  25.310   5.864
 4721POPC   GL160373  14.424  25.233   6.164
 4721POPC   GL260374  14.257  25.262   6.164
 4721POPC   C1A60375  14.377  25.291   6.464
 4721POPC   D2A60376  14.423  25.231   6.764
 4721POPC   C3A60377  14.362  25.304   7.064
 4721POPC   C4A60378  14.431  25.261   7.364
 4721POPC   C1B60379  14.149  25.157   6.464
 4721POPC   C2B60380  14.198  25.209   6.764
 4721POPC   C3B60381  14.168  25.158   7.064
 4721POPC   C4B60382  14.161  25.216   7.364
 4722POPC   NC360383  13.615  36.159   5.564
 4722POPC   PO460384  13.596  36.157   5.864
 4722POPC   GL160385  13.587  36.100   6.164
 4722POPC   GL260386  13.645  36.265   6.164
 4722POPC   C1A60387  13.628  36.118   6.464
 4722POPC   D2A60388  13.624  36.086   6.764
 4722POPC   C3A60389  13.617  36.113   7.064
 4722POPC   C4A60390  13.660  36.136   7.364
 4722POPC   C1B60391  13.611  36.377   6.464
 4722POPC   C2B60392  13.562  36.356   6.764
 4722POPC   C3B60393  13.545  36.410   7.064
 4722POPC   C4B60394  13.561  36.388   7.364
 4723POPC   NC360395  33.823  28.344   5.564
 4723POPC   PO460396  33.809  28.352   5.864
 4723POPC   GL160397  33.804  28.376   6.164
 4723POPC   GL260398  33.687  28.329   6.164
 4723POPC   C1A60399  33.763  28.350   6.464
 4723POPC   D2A60400  33.761  28.322   6.764
 4723POPC   C3A60401  33.817  28.346   7.064
 4723POPC   C4A60402  33.839  28.339   7.364
 4723POPC   C1B60403  33.576  28.239   6.464
 4723POPC   C2B60404  33.621  28.279   6.764
 4723POPC   C3B60405  33.547  28.254   7.064
 4723POPC   C4B60406  33.634  28.213   7.364
 4724POPC   NC360407  42.344  43.093   5.564
 4724POPC   PO460408  42.317  43.114   5.864
 4724POPC   GL160409  42.345  43.137   6.164
 4724POPC   GL260410  42.244  43.247   6.164
 4724POPC   C1A60411  42.298  43.115   6.464
 4724POPC   D2A60412  42.300  43.108   6.764
 4724POPC   C3A60413  42.327  43.074   7.064
 4724POPC   C4A60414  42.332  43.061   7.364
 4724POPC   C1B60415  42.242  43.375   6.464
 4724POPC   C2B60416  42.223  43.373   6.764
 4724POPC   C3B60417  42.211  43.334   7.064
 4724POPC   C4B60418  42.214  43.346   7.364
 4725POPC   NC360419  42.290  37.706   5.564
 4725POPC   PO460420  42.370  37.681   5.864
 4725POPC   GL160421  42.331  37.656   6.164
 4725POPC   GL260422  42.407  37.650   6.164
 4725POPC   C1A60423  42.287  37.674   6.464
 4725POPC   D2A60424  42.370  37.681   6.764
 4725POPC   C3A60425  42.363  37.724   7.064
 4725POPC   C4A60426  42.285  37.639   7.364
 4725POPC   C1B60427  42.517  37.527   6.464
 4725POPC   C2B60428  42.542  37.499   6.764
 4725POPC   C3B60429  42.498  37.516   7.064
 4725POPC   C4B60430  42.509  37.481   7.364
 4726POPC   NC360431  29.968  20.645   5.564
 4726POPC   PO460432  29.968  20.626   5.864
 4726POPC   GL160433  29.906  20.624   6.164
 4726POPC   GL260434  29.836  20.541   6.164
 4726POPC   C1A60435  29.881  20.626   6.464
 4726POPC   D2A60436  29.947  20.576   6.764
 4726POPC   C3A60437  29.964  20.639   7.064
 4726POPC   C4A60438  29.918  20.619   7.364
 4726POPC   C1B60439  29.829  20.344   6.464
 4726POPC   C2B60440  29.753  20.381   6.764
 4726POPC   C3B60441  29.762  20.344   7.064
 4726POPC   C4B60442  29.822  20.423   7.364
 4727POPC   NC360443   3.584  35.377   5.564
 4727POPC   PO460444   3.576  35.331   5.864
 4727POPC   GL160445   3.570  35.338   6.164
 4727POPC   GL260446   3.674  35.324   6.164
 4727POPC   C1A60447   3.518  35.350   6.464
 4727POPC   D2A60448   3.584  35.361   6.764
 4727POPC   C3A60449   3.583  35.325   7.064
 4727POPC   C4A60450   3.564  35.348   7.364
 4727POPC   C1B60451   3.796  35.375   6.464
 4727POPC   C2B60452   3.816  35.398   6.764
 4727POPC   C3B60453   3.774  35.340   7.064
 4727POPC   C4B60454   3.769  35.357   7.364
 4728POPC   NC360455  23.734  35.304   5.564
 4728POPC   PO460456  23.704  35.386   5.864
 4728POPC   GL160457  23.707  35.331   6.164
 4728POPC   GL260458  23.593  35.297   6.164
 4728POPC   C1A60459  23.688  35.306   6.464
 4728POPC   D2A60460  23.761  35.331   6.764
 4728POPC   C3A60461  23.744  35.384   7.064
 4728POPC   C4A60462  23.732  35.339   7.364
 4728POPC   C1B60463  23.525  35.183   6.464
 4728POPC   C2B60464  23.514  35.199   6.764
 4728POPC   C3B60465  23.567  35.183   7.064
 4728POPC   C4B60466  23.576  35.209   7.364
 4729POPC   NC360467  19.852   3.555   5.564
 4729POPC   PO460468  19.788   3.514   5.864
 4729POPC   GL160469  19.825   3.504   6.164
 4729POPC   GL260470  19.865   3.466   6.164
 4729POPC   C1A60471  19.873   3.507   6.464
 4729POPC   D2A60472  19.847   3.507   6.764
 4729POPC   C3A60473  19.796   3.503   7.064
 4729POPC   C4A60474  19.793   3.553   7.364
 4729POPC   C1B60475  19.893   3.280   6.464
 4729POPC   C2B60476  19.839   3.291   6.764
 4729POPC   C3B60477  19.914   3.301   7.064
 4729POPC   C4B60478  19.901   3.312   7.364
 4730POPC   NC360479  19.074   7.384   5.564
 4730POPC   PO460480  19.074   7.459   5.864
 4730POPC   GL160481  19.041   7.443   6.164
 4730POPC   GL260482  19.075   7.513   6.164
 4730POPC   C1A60483  19.080   7.426   6.464
 4730POPC   D2A60484  19.101   7.437   6.764
 4730POPC   C3A60485  19.091   7.407   7.064
 4730POPC   C4A60486  19.097   7.464   7.364
 4730POPC   C1B60487  19.174   7.658   6.464
 4730POPC   C2B60488  19.198   7.659   6.764
 4730POPC   C3B60489  19.192   7.596   7.064
 4730POPC   C4B60490  19.196   7.637   7.364
 4731POPC   NC360491  40.009  21.366   5.564
 4731POPC   PO460492  40.041  21.353   5.864
 4731POPC   GL160493  40.006  21.359   6.164
 4731POPC   GL260494  39.984  21.531   6.164
 4731POPC   C1A60495  40.002  21.351   6.464
 4731POPC   D2A60496  39.984  21.344   6.764
 4731POPC   C3A60497  40.027  21.340   7.064
 4731POPC   C4A60498  40.015  21.416   7.364
 4731POPC   C1B60499  39.855  21.649   6.464
 4731POPC   C2B60500  39.944  21.652   6.764
 4731POPC   C3B60501  39.871  21.567   7.064
 4731POPC   C4B60502  39.868  21.566   7.364
 4732POPC   NC360503  35.306  19.845   5.564
 4732POPC   PO460504  35.325  19.785   5.864
 4732POPC   GL160505  35.315  19.838   6.164
 4732POPC   GL260506  35.287  19.809   6.164
 4732POPC   C1A60507  35.313  19.883   6.464
 4732POPC   D2A60508  35.374  19.840   6.764
 4732POPC   C3A60509  35.368  19.880   7.064
 4732POPC   C4A60510  35.372  19.862   7.364
 4732POPC   C1B60511  35.125  19.730   6.464
 4732POPC   C2B60512  35.139  19.760   6.764
 4732POPC   C3B60513  35.121  19.718   7.064
 4732POPC   C4B60514  35.151  19.716   7.364
 4733POPC   NC360515  27.629  10.533   5.564
 4733POPC   PO460516  27.554  10.539   5.864
 4733POPC   GL160517  27.599  10.489   6.164
 4733POPC   GL260518  27.420  10.496   6.164
 4733POPC   C1A60519  27.636  10.549   6.464
 4733POPC   D2A60520  27.629  10.506   6.764
 4733POPC   C3A60521  27.624  10.559   7.064
 4733POPC   C4A60522  27.600  10.497   7.364
 4733POPC   C1B60523  27.360  10.486   6.464
 4733POPC   C2B60524  27.363  10.541   6.764
 4733POPC   C3B60525  27.367  10.499   7.064
 4733POPC   C4B60526  27.320  10.491   7.364
 4734POPC   NC360527   8.986  23.724   5.564
 4734POPC   PO460528   8.951  23.665   5.864
 4734POPC   GL160529   8.951  23.699   6.164
 4734POPC   GL260530   8.866  23.746   6.164
 4734POPC   C1A60531   9.001  23.719   6.464
 4734POPC   D2A60532   8.964  23.681   6.764
 4734POPC   C3A60533   9.016  23.668   7.064
 4734POPC   C4A60534   8.983  23.738   7.364
 4734POPC   C1B60535   8.747  23.879   6.464
 4734POPC   C2B60536   8.768  23.870   6.764
 4734POPC   C3B60537   8.718  23.804   7.064
 4734POPC   C4B60538   8.770  23.864   7.364
 4735POPC   NC360539  33.804   9.740   5.564
 4735POPC   PO460540  33.785   9.761   5.864
 4735POPC   GL160541  33.762   9.795   6.164
 4735POPC   GL260542  33.820   9.607   6.164
 4735POPC   C1A60543  33.831   9.782   6.464
 4735POPC   D2A60544  33.768   9.726   6.764
 4735POPC   C3A60545  33.810   9.779   7.064
 4735POPC   C4A60546  33.774   9.759   7.364
 4735POPC   C1B60547  33.764   9.499   6.464
 4735POPC   C2B60548  33.823   9.518   6.764
 4735POPC   C3B60549  33.781   9.472   7.064
 4735POPC   C4B60550  33.783   9.511   7.364
 4736POPC   NC360551  18.251  28.406   5.564
 4736POPC   PO460552  18.293  28.416   5.864
 4736POPC   GL160553  18.238  28.389   6.164
 4736POPC   GL260554  18.384  28.294   6.164
 4736POPC   C1A60555  18.324  28.368   6.464
 4736POPC   D2A60556  18.263  28.366   6.764
 4736POPC   C3A60557  18.248  28.403   7.064
 4736POPC   C4A60558  18.282  28.384   7.364
 4736POPC   C1B60559  18.502  28.351   6.464
 4736POPC   C2B60560  18.575  28.279   6.764
 4736POPC   C3B60561  18.485  28.346   7.064
 4736POPC   C4B60562  18.496  28.357   7.364
 4737POPC   NC360563  25.300  26.861   5.564
 4737POPC   PO460564  25.256  26.796   5.864
 4737POPC   GL160565  25.225  26.800   6.164
 4737POPC   GL260566  25.237  26.945   6.164
 4737POPC   C1A60567  25.261  26.862   6.464
 4737POPC   D2A60568  25.251  26.779   6.764
 4737POPC   C3A60569  25.288  26.770   7.064
 4737POPC   C4A60570  25.243  26.780   7.364
 4737POPC   C1B60571  25.166  27.061   6.464
 4737POPC   C2B60572  25.072  27.045   6.764
 4737POPC   C3B60573  25.099  27.003   7.064
 4737POPC   C4B60574  25.093  27.040   7.364
 4738POPC   NC360575  12.808  11.259   5.564
 4738POPC   PO460576  12.807  11.290   5.864
 4738POPC   GL160577  12.862  11.307   6.164
 4738POPC   GL260578  12.719  11.252   6.164
 4738POPC   C1A60579  12.888  11.293   6.464
 4738POPC   D2A60580  12.814  11.325   6.764
 4738POPC   C3A60581  12.811  11.294   7.064
 4738POPC   C4A60582  12.889  11.274   7.364
 4738POPC   C1B60583  12.633  11.236   6.464
 4738POPC   C2B60584  12.577  11.328   6.764
 4738POPC   C3B60585  12.611  11.255   7.064
 4738POPC   C4B60586  12.628  11.234   7.364
 4739POPC   NC360587  32.232  29.877   5.564
 4739POPC   PO460588  32.207  29.872   5.864
 4739POPC   GL160589  32.226  29.914   6.164
 4739POPC   GL260590  32.414  29.937   6.164
 4739POPC   C1A60591  32.209  29.892   6.464
 4739POPC   D2A60592  32.227  29.887   6.764
 4739POPC   C3A60593  32.294  29.873   7.064
 4739POPC   C4A60594  32.261  29.914   7.364
 4739POPC   C1B60595  32.485  29.869   6.464
 4739POPC   C2B60596  32.507  29.870   6.764
 4739POPC   C3B60597  32.511  29.883   7.064
 4739POPC   C4B60598  32.518  29.910   7.364
 4740POPC   NC360599   5.055  18.308   5.564
 4740POPC   PO460600   5.064  18.268   5.864
 4740POPC   GL160601   5.104  18.291   6.164
 4740POPC   GL260602   5.079  18.156   6.164
 4740POPC   C1A60603   5.089  18.253   6.464
 4740POPC   D2A60604   5.058  18.304   6.764
 4740POPC   C3A60605   5.123  18.257   7.064
 4740POPC   C4A60606   5.097  18.324   7.364
 4740POPC   C1B60607   5.018  18.019   6.464
 4740POPC   C2B60608   4.986  18.091   6.764
 4740POPC   C3B60609   4.969  18.015   7.064
 4740POPC   C4B60610   5.023  18.075   7.364
 4741POPC   NC360611  35.365  14.422   5.564
 4741POPC   PO460612  35.320  14.380   5.864
 4741POPC   GL160613  35.396  14.423   6.164
 4741POPC   GL260614  35.293  14.369   6.164
 4741POPC   C1A60615  35.328  14.443   6.464
 4741POPC   D2A60616  35.308  14.387   6.764
 4741POPC   C3A60617  35.323  14.402   7.064
 4741POPC   C4A60618  35.356  14.413   7.364
 4741POPC   C1B60619  35.093  14.229   6.464
 4741POPC   C2B60620  35.130  14.300   6.764
 4741POPC   C3B60621  35.171  14.275   7.064
 4741POPC   C4B60622  35.107  14.287   7.364
 4742POPC   NC360623   1.207   9.700   5.564
 4742POPC   PO460624   1.201   9.782   5.864
 4742POPC   GL160625   1.192   9.741   6.164
 4742POPC   GL260626   1.339   9.864   6.164
 4742POPC   C1A60627   1.213   9.773   6.464
 4742POPC   D2A60628   1.252   9.758   6.764
 4742POPC   C3A60629   1.185   9.702   7.064
 4742POPC   C4A60630   1.190   9.792   7.364
 4742POPC   C1B60631   1.450   9.853   6.464
 4742POPC   C2B60632   1.459   9.915   6.764
 4742POPC   C3B60633   1.423   9.913   7.064
 4742POPC   C4B60634   1.432   9.909   7.364
 4743POPC   NC360635  11.336  42.320   5.564
 4743POPC   PO460636  11.323  42.339   5.864
 4743POPC   GL160637  11.322  42.305   6.164
 4743POPC   GL260638  11.394  42.313   6.164
 4743POPC   C1A60639  11.278  42.330   6.464
 4743POPC   D2A60640  11.279  42.340   6.764
 4743POPC   C3A60641  11.300  42.378   7.064
 4743POPC   C4A60642  11.293  42.355   7.364
 4743POPC   C1B60643  11.564  42.283   6.464
 4743POPC   C2B60644  11.547  42.302   6.764
 4743POPC   C3B60645  11.528  42.257   7.064
 4743POPC   C4B60646  11.512  42.315   7.364
 4744POPC   NC360647  32.974  36.883   5.564
 4744POPC   PO460648  33.044  36.938   5.864
 4744POPC   GL160649  32.998  36.886   6.164
 4744POPC   GL260650  32.953  36.735   6.164
 4744POPC   C1A60651  33.005  36.905   6.464
 4744POPC   D2A60652  33.005  36.946   6.764
 4744POPC   C3A60653  32.984  36.898   7.064
 4744POPC   C4A60654  33.007  36.942   7.364
 4744POPC   C1B60655  32.916  36.674   6.464
 4744POPC   C2B60656  32.988  36.669   6.764
 4744POPC   C3B60657  32.936  36.685   7.064
 4744POPC   C4B60658  32.995  36.679   7.364
 4745POPC   NC360659  36.855  41.516   5.564
 4745POPC   PO460660  36.898  41.589   5.864
 4745POPC   GL160661  36.949  41.587   6.164
 4745POPC   GL260662  36.910  41.652   6.164
 4745POPC   C1A60663  36.925  41.516   6.464
 4745POPC   D2A60664  36.920  41.528   6.764
 4745POPC   C3A60665  36.953  41.515   7.064
 4745POPC   C4A60666  36.953  41.590   7.364
 4745POPC   C1B60667  36.847  41.800   6.464
 4745POPC   C2B60668  36.853  41.797   6.764
 4745POPC   C3B60669  36.828  41.823   7.064
 4745POPC   C4B60670  36.881  41.751   7.364
 4746POPC   NC360671  19.800  22.899   5.564
 4746POPC   PO460672  19.834  22.932   5.864
 4746POPC   GL160673  19.811  22.969   6.164
 4746POPC   GL260674  19.704  22.927   6.164
 4746POPC   C1A60675  19.847  22.964   6.464
 4746POPC   D2A60676  19.860  22.960   6.764
 4746POPC   C3A60677  19.796  22.909   7.064
 4746POPC   C4A60678  19.789  22.916   7.364
 4746POPC   C1B60679  19.591  22.868   6.464
 4746POPC   C2B60680  19.615  22.888   6.764
 4746POPC   C3B60681  19.552  22.897   7.064
 4746POPC   C4B60682  19.551  22.807   7.364
 4747POPC   NC360683  44.631  39.204   5.564
 4747POPC   PO460684  44.654  39.232   5.864
 4747POPC   GL160685  44.688  39.279   6.164
 4747POPC   GL260686  44.748  39.318   6.164
 4747POPC   C1A60687  44.679  39.220   6.464
 4747POPC   D2A60688  44.657  39.223   6.764
 4747POPC   C3A60689  44.691  39.233   7.064
 4747POPC   C4A60690  44.688  39.192   7.364
 4747POPC   C1B60691  44.878  39.394   6.464
 4747POPC   C2B60692  44.868  39.445   6.764
 4747POPC   C3B60693  44.804  39.389   7.064
 4747POPC   C4B60694  44.838  39.405   7.364
 4748POPC   NC360695  26.855  30.708   5.564
 4748POPC   PO460696  26.864  30.648   5.864
 4748POPC   GL160697  26.823  30.679   6.164
 4748POPC   GL260698  26.741  30.853   6.164
 4748POPC   C1A60699  26.817  30.725   6.464
 4748POPC   D2A60700  26.847  30.713   6.764
 4748POPC   C3A60701  26.788  30.673   7.064
 4748POPC   C4A60702  26.813  30.699   7.364
 4748POPC   C1B60703  26.726  30.911   6.464
 4748POPC   C2B60704  26.716  30.903   6.764
 4748POPC   C3B60705  26.712  30.887   7.064
 4748POPC   C4B60706  26.672  30.961   7.364
 4749POPC   NC360707  11.344  26.784   5.564
 4749POPC   PO460708  11.270  26.843   5.864
 4749POPC   GL160709  11.349  26.801   6.164
 4749POPC   GL260710  11.444  26.772   6.164
 4749POPC   C1A60711  11.345  26.821   6.464
 4749POPC   D2A60712  11.278  26.797   6.764
 4749POPC   C3A60713  11.250  26.837   7.064
 4749POPC   C4A60714  11.334  26.780   7.364
 4749POPC   C1B60715  11.596  26.824   6.464
 4749POPC   C2B60716  11.534  26.771   6.764
 4749POPC   C3B60717  11.532  26.791   7.064
 4749POPC   C4B60718  11.515  26.829   7.364
 4750POPC   NC360719   7.417  32.277   5.564
 4750POPC   PO460720   7.385  32.258   5.864
 4750POPC   GL160721   7.427  32.231   6.164
 4750POPC   GL260722   7.500  32.294   6.164
 4750POPC   C1A60723   7.388  32.277   6.464
 4750POPC   D2A60724   7.408  32.259   6.764
 4750POPC   C3A60725   7.390  32.273   7.064
 4750POPC   C4A60726   7.413  32.212   7.364
 4750POPC   C1B60727   7.665  32.260   6.464
 4750POPC   C2B60728   7.651  32.244   6.764
 4750POPC   C3B60729   7.664  32.269   7.064
 4750POPC   C4B60730   7.632  32.248   7.364
 4751POPC   NC360731   9.728  12.848   5.564
 4751POPC   PO460732   9.713  12.806   5.864
 4751POPC   GL160733   9.741  12.892   6.164
 4751POPC   GL260734   9.827  12.715   6.164
 4751POPC   C1A60735   9.701  12.804   6.464
 4751POPC   D2A60736   9.790  12.852   6.764
 4751POPC   C3A60737   9.733  12.860   7.064
 4751POPC   C4A60738   9.717  12.851   7.364
 4751POPC   C1B60739   9.818  12.606   6.464
 4751POPC   C2B60740   9.776  12.630   6.764
 4751POPC   C3B60741   9.777  12.597   7.064
 4751POPC   C4B60742   9.849  12.586   7.364
 4752POPC   NC360743   6.679   5.917   5.564
 4752POPC   PO460744   6.680   5.855   5.864
 4752POPC   GL160745   6.602   5.913   6.164
 4752POPC   GL260746   6.509   5.976   6.164
 4752POPC   C1A60747   6.617   5.911   6.464
 4752POPC   D2A60748   6.633   5.903   6.764
 4752POPC   C3A60749   6.642   5.876   7.064
 4752POPC   C4A60750   6.596   5.848   7.364
 4752POPC   C1B60751   6.445   6.026   6.464
 4752POPC   C2B60752   6.426   6.058   6.764
 4752POPC   C3B60753   6.491   6.073   7.064
 4752POPC   C4B60754   6.455   6.009   7.364
 4753POPC   NC360755  17.525  40.775   5.564
 4753POPC   PO460756  17.509  40.770   5.864
 4753POPC   GL160757  17.462  40.768   6.164
 4753POPC   GL260758  17.453  40.706   6.164
 4753POPC   C1A60759  17.526  40.788   6.464
 4753POPC   D2A60760  17.556  40.832   6.764
 4753POPC   C3A60761  17.530  40.789   7.064
 4753POPC   C4A60762  17.527  40.742   7.364
 4753POPC   C1B60763  17.399  40.609   6.464
 4753POPC   C2B60764  17.353  40.531   6.764
 4753POPC   C3B60765  17.404  40.608   7.064
 4753POPC   C4B60766  17.402  40.580   7.364
 4754POPC   NC360767  29.957   5.095   5.564
 4754POPC   PO460768  29.966   5.136   5.864
 4754POPC   GL160769  29.916   5.072   6.164
 4754POPC   GL260770  29.997   5.245   6.164
 4754POPC   C1A60771  29.905   5.076   6.464
 4754POPC   D2A60772  29.933   5.123   6.764
 4754POPC   C3A60773  29.872   5.060   7.064
 4754POPC   C4A60774  29.942   5.127   7.364
 4754POPC   C1B60775  30.016   5.313   6.464
 4754POPC   C2B60776  30.076   5.340   6.764
 4754POPC   C3B60777  30.100   5.317   7.064
 4754POPC   C4B60778  30.026   5.278   7.364
 4755POPC   NC360779  31.493  15.992   5.564
 4755POPC   PO460780  31.505  15.983   5.864
 4755POPC   GL160781  31.470  15.933   6.164
 4755POPC   GL260782  31.336  16.061   6.164
 4755POPC   C1A60783  31.464  15.922   6.464
 4755POPC   D2A60784  31.456  15.909   6.764
 4755POPC   C3A60785  31.445  15.979   7.064
 4755POPC   C4A60786  31.509  15.982   7.364
 4755POPC   C1B60787  31.278  16.072   6.464
 4755POPC   C2B60788  31.209  16.030   6.764
 4755POPC   C3B60789  31.228  16.050   7.064
 4755POPC   C4B60790  31.301  16.074   7.364
 4756POPC   NC360791  21.352  43.156   5.564
 4756POPC   PO460792  21.417  43.149   5.864
 4756POPC   GL160793  21.352  43.077   6.164
 4756POPC   GL260794  21.325  43.207   6.164
 4756POPC   C1A60795  21.413  43.077   6.464
 4756POPC   D2A60796  21.404  43.129   6.764
 4756POPC   C3A60797  21.419  43.063   7.064
 4756POPC   C4A60798  21.377  43.132   7.364
 4756POPC   C1B60799  21.402  43.364   6.464
 4756POPC   C2B60800  21.326  43.321   6.764
 4756POPC   C3B60801  21.396  43.310   7.064
 4756POPC   C4B60802  21.333  43.391   7.364
 4757POPC   NC360803  31.446  35.316   5.564
 4757POPC   PO460804  31.516  35.389   5.864
 4757POPC   GL160805  31.478  35.317   6.164
 4757POPC   GL260806  31.584  35.286   6.164
 4757POPC   C1A60807  31.463  35.325   6.464
 4757POPC   D2A60808  31.473  35.307   6.764
 4757POPC   C3A60809  31.456  35.326   7.064
 4757POPC   C4A60810  31.440  35.320   7.364
 4757POPC   C1B60811  31.687  35.179   6.464
 4757POPC   C2B60812  31.712  35.257   6.764
 4757POPC   C3B60813  31.733  35.184   7.064
 4757POPC   C4B60814  31.697  35.245   7.364
 4758POPC   NC360815   8.928  13.645   5.564
 4758POPC   PO460816   8.927  13.606   5.864
 4758POPC   GL160817   8.935  13.674   6.164
 4758POPC   GL260818   8.826  13.691   6.164
 4758POPC   C1A60819   9.016  13.675   6.464
 4758POPC   D2A60820   9.007  13.676   6.764
 4758POPC   C3A60821   9.011  13.617   7.064
 4758POPC   C4A60822   9.016  13.642   7.364
 4758POPC   C1B60823   8.733  13.786   6.464
 4758POPC   C2B60824   8.760  13.772   6.764
 4758POPC   C3B60825   8.729  13.732   7.064
 4758POPC   C4B60826   8.775  13.789   7.364
 4759POPC   NC360827  22.123  27.641   5.564
 4759POPC   PO460828  22.116  27.551   5.864
 4759POPC   GL160829  22.167  27.578   6.164
 4759POPC   GL260830  22.296  27.547   6.164
 4759POPC   C1A60831  22.144  27.601   6.464
 4759POPC   D2A60832  22.212  27.612   6.764
 4759POPC   C3A60833  22.173  27.595   7.064
 4759POPC   C4A60834  22.125  27.629   7.364
 4759POPC   C1B60835  22.336  27.451   6.464
 4759POPC   C2B60836  22.407  27.496   6.764
 4759POPC   C3B60837  22.359  27.442   7.064
 4759POPC   C4B60838  22.347  27.447   7.364
 4760POPC   NC360839  44.655  26.060   5.564
 4760POPC   PO460840  44.668  26.015   5.864
 4760POPC   GL160841  44.687  25.992   6.164
 4760POPC   GL260842  44.613  26.162   6.164
 4760POPC   C1A60843  44.684  26.069   6.464
 4760POPC   D2A60844  44.699  26.066   6.764
 4760POPC   C3A60845  44.622  26.072   7.064
 4760POPC   C4A60846  44.669  26.006   7.364
 4760POPC   C1B60847  44.555  26.321   6.464
 4760POPC   C2B60848  44.517  26.248   6.764
 4760POPC   C3B60849  44.602  26.283   7.064
 4760POPC   C4B60850  44.611  26.270   7.364
 4761POPC   NC360851  41.515  38.428   5.564
 4761POPC   PO460852  41.528  38.428   5.864
 4761POPC   GL160853  41.549  38.498   6.164
 4761POPC   GL260854  41.518  38.612   6.164
 4761POPC   C1A60855  41.599  38.501   6.464
 4761POPC   D2A60856  41.575  38.410   6.764
 4761POPC   C3A60857  41.559  38.435   7.064
 4761POPC   C4A60858  41.531  38.416   7.364
 4761POPC   C1B60859  41.567  38.749   6.464
 4761POPC   C2B60860  41.524  38.713   6.764
 4761POPC   C3B60861  41.527  38.739   7.064
 4761POPC   C4B60862  41.532  38.685   7.364
 4762POPC   NC360863   2.037  15.201   5.564
 4762POPC   PO460864   1.970  15.190   5.864
 4762POPC   GL160865   1.941  15.156   6.164
 4762POPC   GL260866   1.869  15.105   6.164
 4762POPC   C1A60867   1.985  15.220   6.464
 4762POPC   D2A60868   2.012  15.206   6.764
 4762POPC   C3A60869   2.009  15.210   7.064
 4762POPC   C4A60870   1.956  15.209   7.364
 4762POPC   C1B60871   1.765  15.041   6.464
 4762POPC   C2B60872   1.793  15.048   6.764
 4762POPC   C3B60873   1.762  15.024   7.064
 4762POPC   C4B60874   1.796  15.022   7.364
 4763POPC   NC360875   3.525   8.194   5.564
 4763POPC   PO460876   3.516   8.194   5.864
 4763POPC   GL160877   3.555   8.215   6.164
 4763POPC   GL260878   3.570   8.124   6.164
 4763POPC   C1A60879   3.500   8.237   6.464
 4763POPC   D2A60880   3.526   8.207   6.764
 4763POPC   C3A60881   3.583   8.203   7.064
 4763POPC   C4A60882   3.552   8.186   7.364
 4763POPC   C1B60883   3.614   7.947   6.464
 4763POPC   C2B60884   3.634   7.933   6.764
 4763POPC   C3B60885   3.609   7.999   7.064
 4763POPC   C4B60886   3.592   7.922   7.364
 4764POPC   NC360887  15.142  25.243   5.564
 4764POPC   PO460888  15.229  25.276   5.864
 4764POPC   GL160889  15.224  25.234   6.164
 4764POPC   GL260890  15.115  25.191   6.164
 4764POPC   C1A60891  15.219  25.230   6.464
 4764POPC   D2A60892  15.135  25.298   6.764
 4764POPC   C3A60893  15.188  25.295   7.064
 4764POPC   C4A60894  15.196  25.272   7.364
 4764POPC   C1B60895  14.977  25.094   6.464
 4764POPC   C2B60896  14.989  25.144   6.764
 4764POPC   C3B60897  14.920  25.103   7.064
 4764POPC   C4B60898  14.965  25.153   7.364
 4765POPC   NC360899  29.173   4.354   5.564
 4765POPC   PO460900  29.161   4.343   5.864
 4765POPC   GL160901  29.122   4.267   6.164
 4765POPC   GL260902  29.125   4.182   6.164
 4765POPC   C1A60903  29.165   4.330   6.464
 4765POPC   D2A60904  29.194   4.364   6.764
 4765POPC   C3A60905  29.176   4.333   7.064
 4765POPC   C4A60906  29.173   4.304   7.364
 4765POPC   C1B60907  29.066   4.100   6.464
 4765POPC   C2B60908  29.090   4.027   6.764
 4765POPC   C3B60909  29.052   4.054   7.064
 4765POPC   C4B60910  29.067   4.052   7.364
 4766POPC   NC360911  43.101  41.524   5.564
 4766POPC   PO460912  43.096  41.579   5.864
 4766POPC   GL160913  43.062  41.602   6.164
 4766POPC   GL260914  43.081  41.405   6.164
 4766POPC   C1A60915  43.093  41.585   6.464
 4766POPC   D2A60916  43.113  41.563   6.764
 4766POPC   C3A60917  43.079  41.524   7.064
 4766POPC   C4A60918  43.072  41.555   7.364
 4766POPC   C1B60919  42.944  41.352   6.464
 4766POPC   C2B60920  43.011  41.336   6.764
 4766POPC   C3B60921  42.942  41.307   7.064
 4766POPC   C4B60922  42.931  41.345   7.364
 4767POPC   NC360923  26.085  29.961   5.564
 4767POPC   PO460924  26.080  29.917   5.864
 4767POPC   GL160925  26.077  29.957   6.164
 4767POPC   GL260926  26.109  29.773   6.164
 4767POPC   C1A60927  26.033  29.878   6.464
 4767POPC   D2A60928  26.037  29.905   6.764
 4767POPC   C3A60929  26.021  29.954   7.064
 4767POPC   C4A60930  26.086  29.889   7.364
 4767POPC   C1B60931  26.154  29.685   6.464
 4767POPC   C2B60932  26.116  29.640   6.764
 4767POPC   C3B60933  26.107  29.707   7.064
 4767POPC   C4B60934  26.134  29.710   7.364
 4768POPC   NC360935  18.274  19.107   5.564
 4768POPC   PO460936  18.258  19.015   5.864
 4768POPC   GL160937  18.307  19.037   6.164
 4768POPC   GL260938  18.176  19.157   6.164
 4768POPC   C1A60939  18.271  19.019   6.464
 4768POPC   D2A60940  18.316  19.065   6.764
 4768POPC   C3A60941  18.331  19.068   7.064
 4768POPC   C4A60942  18.265  19.105   7.364
 4768POPC   C1B60943  18.098  19.241   6.464
 4768POPC   C2B60944  18.151  19.274   6.764
 4768POPC   C3B60945  18.157  19.261   7.064
 4768POPC   C4B60946  18.113  19.299   7.364
 4769POPC   NC360947   6.650   7.413   5.564
 4769POPC   PO460948   6.640   7.428   5.864
 4769POPC   GL160949   6.611   7.396   6.164
 4769POPC   GL260950   6.506   7.473   6.164
 4769POPC   C1A60951   6.611   7.390   6.464
 4769POPC   D2A60952   6.633   7.407   6.764
 4769POPC   C3A60953   6.657   7.423   7.064
 4769POPC   C4A60954   6.688   7.407   7.364
 4769POPC   C1B60955   6.361   7.479   6.464
 4769POPC   C2B60956   6.390   7.521   6.764
 4769POPC   C3B60957   6.442   7.478   7.064
 4769POPC   C4B60958   6.376   7.451   7.364
 4770POPC   NC360959  34.555  26.041   5.564
 4770POPC   PO460960  34.578  26.085   5.864
 4770POPC   GL160961  34.588  26.082   6.164
 4770POPC   GL260962  34.485  26.160   6.164
 4770POPC   C1A60963  34.583  26.076   6.464
 4770POPC   D2A60964  34.597  26.083   6.764
 4770POPC   C3A60965  34.565  26.065   7.064
 4770POPC   C4A60966  34.541  26.028   7.364
 4770POPC   C1B60967  34.456  26.308   6.464
 4770POPC   C2B60968  34.523  26.238   6.764
 4770POPC   C3B60969  34.517  26.311   7.064
 4770POPC   C4B60970  34.513  26.230   7.364
 4771POPC   NC360971  15.935  32.988   5.564
 4771POPC   PO460972  15.988  33.064   5.864
 4771POPC   GL160973  15.927  33.005   6.164
 4771POPC   GL260974  15.880  33.026   6.164
 4771POPC   C1A60975  15.994  33.021   6.464
 4771POPC   D2A60976  15.986  33.018   6.764
 4771POPC   C3A60977  15.991  33.002   7.064
 4771POPC   C4A60978  15.986  33.006   7.364
 4771POPC   C1B60979  15.664  33.023   6.464
 4771POPC   C2B60980  15.661  33.092   6.764
 4771POPC   C3B60981  15.687  33.073   7.064
 4771POPC   C4B60982  15.680  33.114   7.364
 4772POPC   NC360983  12.898  12.848   5.564
 4772POPC   PO460984  12.826  12.895   5.864
 4772POPC   GL160985  12.887  12.884   6.164
 4772POPC   GL260986  12.997  12.828   6.164
 4772POPC   C1A60987  12.885  12.883   6.464
 4772POPC   D2A60988  12.828  12.891   6.764
 4772POPC   C3A60989  12.855  12.897   7.064
 4772POPC   C4A60990  12.882  12.871   7.364
 4772POPC   C1B60991  13.030  12.754   6.464
 4772POPC   C2B60992  13.054  12.734   6.764
 4772POPC   C3B60993  13.029  12.693   7.064
 4772POPC   C4B60994  13.094  12.734   7.364
 4773POPC   NC360995  10.540  33.819   5.564
 4773POPC   PO460996  10.527  33.803   5.864
 4773POPC   GL160997  10.480  33.811   6.164
 4773POPC   GL260998  10.561  33.961   6.164
 4773POPC   C1A60999  10.551  33.825   6.464
 4773POPC   D2A61000  10.479  33.780   6.764
 4773POPC   C3A61001  10.536  33.783   7.064
 4773POPC   C4A61002  10.476  33.760   7.364
 4773POPC   C1B61003  10.571  34.038   6.464
 4773POPC   C2B61004  10.582  34.067   6.764
 4773POPC   C3B61005  10.643  34.034   7.064
 4773POPC   C4B61006  10.576  33.991   7.364
 4774POPC   NC361007  16.770  41.533   5.564
 4774POPC   PO461008  16.714  41.578   5.864
 4774POPC   GL161009  16.735  41.519   6.164
 4774POPC   GL261010  16.683  41.497   6.164
 4774POPC   C1A61011  16.731  41.530   6.464
 4774POPC   D2A61012  16.707  41.560   6.764
 4774POPC   C3A61013  16.713  41.544   7.064
 4774POPC   C4A61014  16.781  41.562   7.364
 4774POPC   C1B61015  16.585  41.372   6.464
 4774POPC   C2B61016  16.540  41.327   6.764
 4774POPC   C3B61017  16.625  41.320   7.064
 4774POPC   C4B61018  16.560  41.342   7.364
 4775POPC   NC361019  27.592  27.617   5.564
 4775POPC   PO461020  27.573  27.573   5.864
 4775POPC   GL161021  27.634  27.583   6.164
 4775POPC   GL261022  27.424  27.620   6.164
 4775POPC   C1A61023  27.640  27.554   6.464
 4775POPC   D2A61024  27.582  27.595   6.764
 4775POPC   C3A61025  27.614  27.553   7.064
 4775POPC   C4A61026  27.635  27.624   7.364
 4775POPC   C1B61027  27.380  27.543   6.464
 4775POPC   C2B61028  27.343  27.597   6.764
 4775POPC   C3B61029  27.314  27.541   7.064
 4775POPC   C4B61030  27.297  27.559   7.364
 4776POPC   NC361031  23.697  26.818   5.564
 4776POPC   PO461032  23.676  26.852   5.864
 4776POPC   GL161033  23.706  26.802   6.164
 4776POPC   GL261034  23.793  26.846   6.164
 4776POPC   C1A61035  23.693  26.810   6.464
 4776POPC   D2A61036  23.692  26.813   6.764
 4776POPC   C3A61037  23.713  26.773   7.064
 4776POPC   C4A61038  23.692  26.862   7.364
 4776POPC   C1B61039  23.948  26.917   6.464
 4776POPC   C2B61040  23.977  26.886   6.764
 4776POPC   C3B61041  23.978  26.911   7.064
 4776POPC   C4B61042  23.980  26.906   7.364
 4777POPC   NC361043  29.965  19.105   5.564
 4777POPC   PO461044  29.958  19.048   5.864
 4777POPC   GL161045  29.912  19.021   6.164
 4777POPC   GL261046  29.758  19.091   6.164
 4777POPC   C1A61047  29.884  19.028   6.464
 4777POPC   D2A61048  29.924  19.026   6.764
 4777POPC   C3A61049  29.947  19.108   7.064
 4777POPC   C4A61050  29.911  19.080   7.364
 4777POPC   C1B61051  29.650  19.132   6.464
 4777POPC   C2B61052  29.665  19.123   6.764
 4777POPC   C3B61053  29.701  19.090   7.064
 4777POPC   C4B61054  29.667  19.057   7.364
 4778POPC   NC361055  42.334   6.631   5.564
 4778POPC   PO461056  42.322   6.644   5.864
 4778POPC   GL161057  42.379   6.661   6.164
 4778POPC   GL261058  42.214   6.726   6.164
 4778POPC   C1A61059  42.382   6.620   6.464
 4778POPC   D2A61060  42.357   6.652   6.764
 4778POPC   C3A61061  42.304   6.612   7.064
 4778POPC   C4A61062  42.328   6.667   7.364
 4778POPC   C1B61063  42.077   6.800   6.464
 4778POPC   C2B61064  42.149   6.747   6.764
 4778POPC   C3B61065  42.167   6.830   7.064
 4778POPC   C4B61066  42.135   6.759   7.364
 4779POPC   NC361067   5.114   7.402   5.564
 4779POPC   PO461068   5.075   7.379   5.864
 4779POPC   GL161069   5.065   7.395   6.164
 4779POPC   GL261070   5.046   7.509   6.164
 4779POPC   C1A61071   5.117   7.393   6.464
 4779POPC   D2A61072   5.083   7.383   6.764
 4779POPC   C3A61073   5.067   7.424   7.064
 4779POPC   C4A61074   5.116   7.378   7.364
 4779POPC   C1B61075   4.973   7.613   6.464
 4779POPC   C2B61076   4.950   7.629   6.764
 4779POPC   C3B61077   4.918   7.583   7.064
 4779POPC   C4B61078   4.927   7.569   7.364
 4780POPC   NC361079  39.204  44.678   5.564
 4780POPC   PO461080  39.229  44.615   5.864
 4780POPC   GL161081  39.273  44.616   6.164
 4780POPC   GL261082  39.322  44.614   6.164
 4780POPC   C1A61083  39.232  44.618   6.464
 4780POPC   D2A61084  39.248  44.663   6.764
 4780POPC   C3A61085  39.223  44.685   7.064
 4780POPC   C4A61086  39.216  44.690   7.364
 4780POPC   C1B61087  39.425  44.609   6.464
 4780POPC   C2B61088  39.454  44.582   6.764
 4780POPC   C3B61089  39.440  44.596   7.064
 4780POPC   C4B61090  39.465  44.610   7.364
 4781POPC   NC361091  27.577  37.714   5.564
 4781POPC   PO461092  27.590  37.632   5.864
 4781POPC   GL161093  27.639  37.655   6.164
 4781POPC   GL261094  27.750  37.648   6.164
 4781POPC   C1A61095  27.640  37.702   6.464
 4781POPC   D2A61096  27.553  37.723   6.764
 4781POPC   C3A61097  27.618  37.697   7.064
 4781POPC   C4A61098  27.596  37.695   7.364
 4781POPC   C1B61099  27.877  37.705   6.464
 4781POPC   C2B61100  27.833  37.683   6.764
 4781POPC   C3B61101  27.816  37.676   7.064
 4781POPC   C4B61102  27.855  37.644   7.364
 4782POPC   NC361103  36.078  39.991   5.564
 4782POPC   PO461104  36.090  40.015   5.864
 4782POPC   GL161105  36.168  39.967   6.164
 4782POPC   GL261106  36.172  40.173   6.164
 4782POPC   C1A61107  36.102  40.039   6.464
 4782POPC   D2A61108  36.122  39.960   6.764
 4782POPC   C3A61109  36.151  40.030   7.064
 4782POPC   C4A61110  36.112  39.975   7.364
 4782POPC   C1B61111  36.189  40.264   6.464
 4782POPC   C2B61112  36.190  40.259   6.764
 4782POPC   C3B61113  36.224  40.290   7.064
 4782POPC   C4B61114  36.148  40.285   7.364
 4783POPC   NC361115  19.837  25.255   5.564
 4783POPC   PO461116  19.855  25.237   5.864
 4783POPC   GL161117  19.845  25.220   6.164
 4783POPC   GL261118  19.788  25.396   6.164
 4783POPC   C1A61119  19.822  25.243   6.464
 4783POPC   D2A61120  19.801  25.249   6.764
 4783POPC   C3A61121  19.852  25.255   7.064
 4783POPC   C4A61122  19.852  25.301   7.364
 4783POPC   C1B61123  19.775  25.481   6.464
 4783POPC   C2B61124  19.681  25.451   6.764
 4783POPC   C3B61125  19.766  25.513   7.064
 4783POPC   C4B61126  19.680  25.458   7.364
 4784POPC   NC361127   0.471  40.819   5.564
 4784POPC   PO461128   0.415  40.748   5.864
 4784POPC   GL161129   0.458  40.827   6.164
 4784POPC   GL261130   0.543  40.781   6.164
 4784POPC   C1A61131   0.471  40.770   6.464
 4784POPC   D2A61132   0.488  40.803   6.764
 4784POPC   C3A61133   0.478  40.822   7.064
 4784POPC   C4A61134   0.428  40.781   7.364
 4784POPC   C1B61135   0.678  40.703   6.464
 4784POPC   C2B61136   0.698  40.757   6.764
 4784POPC   C3B61137   0.674  40.696   7.064
 4784POPC   C4B61138   0.682  40.772   7.364
 4785POPC   NC361139   5.054   5.139   5.564
 4785POPC   PO461140   5.051   5.117   5.864
 4785POPC   GL161141   5.059   5.128   6.164
 4785POPC   GL261142   5.230   5.163   6.164
 4785POPC   C1A61143   5.089   5.121   6.464
 4785POPC   D2A61144   5.137   5.130   6.764
 4785POPC   C3A61145   5.056   5.046   7.064
 4785POPC   C4A61146   5.053   5.105   7.364
 4785POPC   C1B61147   5.240   5.278   6.464
 4785POPC   C2B61148   5.257   5.259   6.764
 4785POPC   C3B61149   5.281   5.248   7.064
 4785POPC   C4B61150   5.287   5.237   7.364
 4786POPC   NC361151  20.640  40.008   5.564
 4786POPC   PO461152  20.624  40.022   5.864
 4786POPC   GL161153  20.603  40.032   6.164
 4786POPC   GL261154  20.655  40.155   6.164
 4786POPC   C1A61155  20.593  39.982   6.464
 4786POPC   D2A61156  20.567  40.046   6.764
 4786POPC   C3A61157  20.578  39.971   7.064
 4786POPC   C4A61158  20.611  39.960   7.364
 4786POPC   C1B61159  20.670  40.277   6.464
 4786POPC   C2B61160  20.725  40.233   6.764
 4786POPC   C3B61161  20.745  40.258   7.064
 4786POPC   C4B61162  20.694  40.277   7.364
 4787POPC   NC361163  38.488  25.295   5.564
 4787POPC   PO461164  38.434  25.296   5.864
 4787POPC   GL161165  38.445  25.299   6.164
 4787POPC   GL261166  38.558  25.236   6.164
 4787POPC   C1A61167  38.459  25.255   6.464
 4787POPC   D2A61168  38.412  25.291   6.764
 4787POPC   C3A61169  38.480  25.267   7.064
 4787POPC   C4A61170  38.467  25.227   7.364
 4787POPC   C1B61171  38.698  25.268   6.464
 4787POPC   C2B61172  38.746  25.303   6.764
 4787POPC   C3B61173  38.742  25.287   7.064
 4787POPC   C4B61174  38.744  25.321   7.364
 4788POPC   NC361175   7.442   9.722   5.564
 4788POPC   PO461176   7.434   9.733   5.864
 4788POPC   GL161177   7.434   9.704   6.164
 4788POPC   GL261178   7.357   9.587   6.164
 4788POPC   C1A61179   7.450   9.738   6.464
 4788POPC   D2A61180   7.438   9.777   6.764
 4788POPC   C3A61181   7.461   9.751   7.064
 4788POPC   C4A61182   7.468   9.787   7.364
 4788POPC   C1B61183   7.389   9.510   6.464
 4788POPC   C2B61184   7.334   9.500   6.764
 4788POPC   C3B61185   7.411   9.537   7.064
 4788POPC   C4B61186   7.343   9.531   7.364
 4789POPC   NC361187  11.290  15.954   5.564
 4789POPC   PO461188  11.286  15.965   5.864
 4789POPC   GL161189  11.300  15.946   6.164
 4789POPC   GL261190  11.201  16.080   6.164
 4789POPC   C1A61191  11.343  15.963   6.464
 4789POPC   D2A61192  11.266  15.931   6.764
 4789POPC   C3A61193  11.346  15.965   7.064
 4789POPC   C4A61194  11.337  15.930   7.364
 4789POPC   C1B61195  11.185  16.224   6.464
 4789POPC   C2B61196  11.158  16.224   6.764
 4789POPC   C3B61197  11.182  16.137   7.064
 4789POPC   C4B61198  11.137  16.162   7.364
 4790POPC   NC361199  26.815   6.619   5.564
 4790POPC   PO461200  26.810   6.636   5.864
 4790POPC   GL161201  26.793   6.681   6.164
 4790POPC   GL261202  26.933   6.706   6.164
 4790POPC   C1A61203  26.814   6.668   6.464
 4790POPC   D2A61204  26.862   6.693   6.764
 4790POPC   C3A61205  26.852   6.597   7.064
 4790POPC   C4A61206  26.775   6.645   7.364
 4790POPC   C1B61207  27.015   6.775   6.464
 4790POPC   C2B61208  27.067   6.734   6.764
 4790POPC   C3B61209  27.049   6.743   7.064
 4790POPC   C4B61210  27.009   6.803   7.364
 4791POPC   NC361211  27.582  23.747   5.564
 4791POPC   PO461212  27.629  23.716   5.864
 4791POPC   GL161213  27.544  23.730   6.164
 4791POPC   GL261214  27.581  23.584   6.164
 4791POPC   C1A61215  27.552  23.742   6.464
 4791POPC   D2A61216  27.577  23.731   6.764
 4791POPC   C3A61217  27.606  23.717   7.064
 4791POPC   C4A61218  27.640  23.664   7.364
 4791POPC   C1B61219  27.602  23.468   6.464
 4791POPC   C2B61220  27.511  23.496   6.764
 4791POPC   C3B61221  27.523  23.479   7.064
 4791POPC   C4B61222  27.530  23.445   7.364
 4792POPC   NC361223   8.989  44.708   5.564
 4792POPC   PO461224   9.002  44.679   5.864
 4792POPC   GL161225   9.004  44.695   6.164
 4792POPC   GL261226   8.893  44.605   6.164
 4792POPC   C1A61227   8.933  44.648   6.464
 4792POPC   D2A61228   8.939  44.622   6.764
 4792POPC   C3A61229   8.994  44.690   7.064
 4792POPC   C4A61230   8.973  44.613   7.364
 4792POPC   C1B61231   8.838  44.410   6.464
 4792POPC   C2B61232   8.834  44.495   6.764
 4792POPC   C3B61233   8.799  44.494   7.064
 4792POPC   C4B61234   8.787  44.447   7.364
 4793POPC   NC361235   5.081   4.293   5.564
 4793POPC   PO461236   5.126   4.284   5.864
 4793POPC   GL161237   5.067   4.300   6.164
 4793POPC   GL261238   5.116   4.408   6.164
 4793POPC   C1A61239   5.138   4.350   6.464
 4793POPC   D2A61240   5.134   4.310   6.764
 4793POPC   C3A61241   5.062   4.290   7.064
 4793POPC   C4A61242   5.084   4.367   7.364
 4793POPC   C1B61243   5.082   4.525   6.464
 4793POPC   C2B61244   5.140   4.595   6.764
 4793POPC   C3B61245   5.109   4.564   7.064
 4793POPC   C4B61246   5.142   4.572   7.364
 4794POPC   NC361247  31.423  32.988   5.564
 4794POPC   PO461248  31.465  32.992   5.864
 4794POPC   GL161249  31.482  32.994   6.164
 4794POPC   GL261250  31.375  32.991   6.164
 4794POPC   C1A61251  31.427  32.975   6.464
 4794POPC   D2A61252  31.480  33.031   6.764
 4794POPC   C3A61253  31.496  33.000   7.064
 4794POPC   C4A61254  31.482  32.989   7.364
 4794POPC   C1B61255  31.235  32.951   6.464
 4794POPC   C2B61256  31.187  32.991   6.764
 4794POPC   C3B61257  31.178  33.016   7.064
 4794POPC   C4B61258  31.201  32.981   7.364
 4795POPC   NC361259  39.978  26.794   5.564
 4795POPC   PO461260  39.982  26.810   5.864
 4795POPC   GL161261  39.976  26.839   6.164
 4795POPC   GL261262  40.115  26.861   6.164
 4795POPC   C1A61263  40.008  26.793   6.464
 4795POPC   D2A61264  39.974  26.809   6.764
 4795POPC   C3A61265  40.053  26.848   7.064
 4795POPC   C4A61266  39.990  26.800   7.364
 4795POPC   C1B61267  40.237  26.893   6.464
 4795POPC   C2B61268  40.207  26.858   6.764
 4795POPC   C3B61269  40.237  26.865   7.064
 4795POPC   C4B61270  40.206  26.930   7.364
 4796POPC   NC361271  29.963  32.292   5.564
 4796POPC   PO461272  29.966  32.227   5.864
 4796POPC   GL161273  29.902  32.263   6.164
 4796POPC   GL261274  30.074  32.270   6.164
 4796POPC   C1A61275  29.899  32.253   6.464
 4796POPC   D2A61276  29.881  32.275   6.764
 4796POPC   C3A61277  29.953  32.278   7.064
 4796POPC   C4A61278  29.943  32.281   7.364
 4796POPC   C1B61279  30.188  32.307   6.464
 4796POPC   C2B61280  30.134  32.268   6.764
 4796POPC   C3B61281  30.155  32.316   7.064
 4796POPC   C4B61282  30.117  32.284   7.364
 4797POPC   NC361283  44.644  26.789   5.564
 4797POPC   PO461284  44.684  26.805   5.864
 4797POPC   GL161285  44.631  26.838   6.164
 4797POPC   GL261286  44.732  26.700   6.164
 4797POPC   C1A61287  44.623  26.771   6.464
 4797POPC   D2A61288  44.625  26.829   6.764
 4797POPC   C3A61289  44.661  26.827   7.064
 4797POPC   C4A61290  44.702  26.815   7.364
 4797POPC   C1B61291  44.876  26.644   6.464
 4797POPC   C2B61292  44.870  26.657   6.764
 4797POPC   C3B61293  44.788  26.607   7.064
 4797POPC   C4B61294  44.843  26.653   7.364
 4798POPC   NC361295   8.202   2.000   5.564
 4798POPC   PO461296   8.168   2.023   5.864
 4798POPC   GL161297   8.181   1.991   6.164
 4798POPC   GL261298   8.120   1.932   6.164
 4798POPC   C1A61299   8.175   1.979   6.464
 4798POPC   D2A61300   8.205   1.959   6.764
 4798POPC   C3A61301   8.236   1.963   7.064
 4798POPC   C4A61302   8.149   1.967   7.364
 4798POPC   C1B61303   8.041   1.752   6.464
 4798POPC   C2B61304   8.078   1.732   6.764
 4798POPC   C3B61305   8.097   1.822   7.064
 4798POPC   C4B61306   8.037   1.785   7.364
 4799POPC   NC361307  22.208  12.124   5.564
 4799POPC   PO461308  22.121  12.080   5.864
 4799POPC   GL161309  22.212  12.041   6.164
 4799POPC   GL261310  22.059  12.191   6.164
 4799POPC   C1A61311  22.208  12.114   6.464
 4799POPC   D2A61312  22.208  12.047   6.764
 4799POPC   C3A61313  22.180  12.103   7.064
 4799POPC   C4A61314  22.139  12.070   7.364
 4799POPC   C1B61315  21.915  12.217   6.464
 4799POPC   C2B61316  21.911  12.247   6.764
 4799POPC   C3B61317  21.932  12.169   7.064
 4799POPC   C4B61318  21.986  12.244   7.364
 4800POPC   NC361319   3.560   5.863   5.564
 4800POPC   PO461320   3.515   5.915   5.864
 4800POPC   GL161321   3.494   5.838   6.164
 4800POPC   GL261322   3.608   5.927   6.164
 4800POPC   C1A61323   3.580   5.833   6.464
 4800POPC   D2A61324   3.550   5.821   6.764
 4800POPC   C3A61325   3.500   5.883   7.064
 4800POPC   C4A61326   3.552   5.904   7.364
 4800POPC   C1B61327   3.750   6.060   6.464
 4800POPC   C2B61328   3.760   6.036   6.764
 4800POPC   C3B61329   3.718   6.012   7.064
 4800POPC   C4B61330   3.717   6.009   7.364
 4801POPC   NC361331   6.630  19.816   5.564
 4801POPC   PO461332   6.607  19.871   5.864
 4801POPC   GL161333   6.628  19.846   6.164
 4801POPC   GL261334   6.539  19.874   6.164
 4801POPC   C1A61335   6.656  19.849   6.464
 4801POPC   D2A61336   6.597  19.883   6.764
 4801POPC   C3A61337   6.639  19.829   7.064
 4801POPC   C4A61338   6.601  19.844   7.364
 4801POPC   C1B61339   6.367  19.811   6.464
 4801POPC   C2B61340   6.407  19.830   6.764
 4801POPC   C3B61341   6.383  19.780   7.064
 4801POPC   C4B61342   6.442  19.835   7.364
 4802POPC   NC361343  20.627  26.023   5.564
 4802POPC   PO461344  20.569  26.064   5.864
 4802POPC   GL161345  20.599  26.025   6.164
 4802POPC   GL261346  20.672  26.132   6.164
 4802POPC   C1A61347  20.565  26.043   6.464
 4802POPC   D2A61348  20.601  26.080   6.764
 4802POPC   C3A61349  20.569  26.017   7.064
 4802POPC   C4A61350  20.596  26.057   7.364
 4802POPC   C1B61351  20.771  26.182   6.464
 4802POPC   C2B61352  20.747  26.209   6.764
 4802POPC   C3B61353  20.806  26.200   7.064
 4802POPC   C4B61354  20.741  26.253   7.364
 4803POPC   NC361355   2.787   1.181   5.564
 4803POPC   PO461356   2.802   1.257   5.864
 4803POPC   GL161357   2.756   1.234   6.164
 4803POPC   GL261358   2.877   1.270   6.164
 4803POPC   C1A61359   2.725   1.166   6.464
 4803POPC   D2A61360   2.726   1.229   6.764
 4803POPC   C3A61361   2.736   1.256   7.064
 4803POPC   C4A61362   2.759   1.204   7.364
 4803POPC   C1B61363   3.000   1.291   6.464
 4803POPC   C2B61364   3.060   1.300   6.764
 4803POPC   C3B61365   3.013   1.233   7.064
 4803POPC   C4B61366   2.981   1.213   7.364
 4804POPC   NC361367  38.486  36.081   5.564
 4804POPC   PO461368  38.481  36.160   5.864
 4804POPC   GL161369  38.449  36.134   6.164
 4804POPC   GL261370  38.339  36.060   6.164
 4804POPC   C1A61371  38.503  36.097   6.464
 4804POPC   D2A61372  38.412  36.102   6.764
 4804POPC   C3A61373  38.439  36.086   7.064
 4804POPC   C4A61374  38.487  36.166   7.364
 4804POPC   C1B61375  38.258  35.988   6.464
 4804POPC   C2B61376  38.260  35.921   6.764
 4804POPC   C3B61377  38.325  35.960   7.064
 4804POPC   C4B61378  38.325  35.913   7.364
 4805POPC   NC361379   5.083  37.723   5.564
 4805POPC   PO461380   5.101  37.648   5.864
 4805POPC   GL161381   5.073  37.684   6.164
 4805POPC   GL261382   5.145  37.581   6.164
 4805POPC   C1A61383   5.058  37.664   6.464
 4805POPC   D2A61384   5.115  37.725   6.764
 4805POPC   C3A61385   5.097  37.689   7.064
 4805POPC   C4A61386   5.051  37.666   7.364
 4805POPC   C1B61387   5.245  37.514   6.464
 4805POPC   C2B61388   5.185  37.497   6.764
 4805POPC   C3B61389   5.266  37.436   7.064
 4805POPC   C4B61390   5.228  37.434   7.364
 4806POPC   NC361391  22.988  15.132   5.564
 4806POPC   PO461392  22.891  15.178   5.864
 4806POPC   GL161393  22.910  15.155   6.164
 4806POPC   GL261394  23.036  15.276   6.164
 4806POPC   C1A61395  22.959  15.179   6.464
 4806POPC   D2A61396  22.937  15.165   6.764
 4806POPC   C3A61397  22.899  15.208   7.064
 4806POPC   C4A61398  22.956  15.166   7.364
 4806POPC   C1B61399  23.035  15.422   6.464
 4806POPC   C2B61400  23.022  15.351   6.764
 4806POPC   C3B61401  23.105  15.347   7.064
 4806POPC   C4B61402  23.120  15.342   7.364
 4807POPC   NC361403  41.522   7.403   5.564
 4807POPC   PO461404  41.525   7.463   5.864
 4807POPC   GL161405  41.527   7.440   6.164
 4807POPC   GL261406  41.527   7.533   6.164
 4807POPC   C1A61407  41.514   7.455   6.464
 4807POPC   D2A61408  41.599   7.456   6.764
 4807POPC   C3A61409  41.560   7.439   7.064
 4807POPC   C4A61410  41.604   7.461   7.364
 4807POPC   C1B61411  41.423   7.642   6.464
 4807POPC   C2B61412  41.474   7.622   6.764
 4807POPC   C3B61413  41.420   7.665   7.064
 4807POPC   C4B61414  41.417   7.626   7.364
 4808POPC   NC361415  16.761  34.596   5.564
 4808POPC   PO461416  16.775  34.580   5.864
 4808POPC   GL161417  16.685  34.536   6.164
 4808POPC   GL261418  16.804  34.444   6.164
 4808POPC   C1A61419  16.685  34.563   6.464
 4808POPC   D2A61420  16.721  34.577   6.764
 4808POPC   C3A61421  16.692  34.547   7.064
 4808POPC   C4A61422  16.738  34.544   7.364
 4808POPC   C1B61423  16.872  34.366   6.464
 4808POPC   C2B61424  16.894  34.374   6.764
 4808POPC   C3B61425  16.852  34.346   7.064
 4808POPC   C4B61426  16.887  34.376   7.364
 4809POPC   NC361427  31.522  22.147   5.564
 4809POPC   PO461428  31.514  22.128   5.864
 4809POPC   GL161429  31.521  22.193   6.164
 4809POPC   GL261430  31.581  22.172   6.164
 4809POPC   C1A61431  31.506  22.113   6.464
 4809POPC   D2A61432  31.453  22.140   6.764
 4809POPC   C3A61433  31.476  22.114   7.064
 4809POPC   C4A61434  31.479  22.168   7.364
 4809POPC   C1B61435  31.743  22.253   6.464
 4809POPC   C2B61436  31.747  22.205   6.764
 4809POPC   C3B61437  31.729  22.209   7.064
 4809POPC   C4B61438  31.747  22.233   7.364
 4810POPC   NC361439  26.866  20.651   5.564
 4810POPC   PO461440  26.816  20.610   5.864
 4810POPC   GL161441  26.828  20.588   6.164
 4810POPC   GL261442  26.791  20.702   6.164
 4810POPC   C1A61443  26.817  20.636   6.464
 4810POPC   D2A61444  26.776  20.584   6.764
 4810POPC   C3A61445  26.826  20.613   7.064
 4810POPC   C4A61446  26.784  20.568   7.364
 4810POPC   C1B61447  26.748  20.883   6.464
 4810POPC   C2B61448  26.785  20.902   6.764
 4810POPC   C3B61449  26.745  20.830   7.064
 4810POPC   C4B61450  26.751  20.879   7.364
 4811POPC   NC361451   2.811   0.440   5.564
 4811POPC   PO461452   2.747   0.449   5.864
 4811POPC   GL161453   2.739   0.406   6.164
 4811POPC   GL261454   2.874   0.410   6.164
 4811POPC   C1A61455   2.784   0.428   6.464
 4811POPC   D2A61456   2.760   0.465   6.764
 4811POPC   C3A61457   2.749   0.410   7.064
 4811POPC   C4A61458   2.792   0.466   7.364
 4811POPC   C1B61459   3.062   0.442   6.464
 4811POPC   C2B61460   2.966   0.395   6.764
 4811POPC   C3B61461   3.059   0.452   7.064
 4811POPC   C4B61462   3.061   0.386   7.364
 4812POPC   NC361463   0.391  22.154   5.564
 4812POPC   PO461464   0.463  22.143   5.864
 4812POPC   GL161465   0.395  22.146   6.164
 4812POPC   GL261466   0.412  22.040   6.164
 4812POPC   C1A61467   0.486  22.160   6.464
 4812POPC   D2A61468   0.415  22.176   6.764
 4812POPC   C3A61469   0.452  22.207   7.064
 4812POPC   C4A61470   0.418  22.113   7.364
 4812POPC   C1B61471   0.297  21.916   6.464
 4812POPC   C2B61472   0.341  21.973   6.764
 4812POPC   C3B61473   0.343  21.935   7.064
 4812POPC   C4B61474   0.340  21.936   7.364
 4813POPC   NC361475  43.154  26.788   5.564
 4813POPC   PO461476  43.155  26.813   5.864
 4813POPC   GL161477  43.065  26.810   6.164
 4813POPC   GL261478  43.099  26.896   6.164
 4813POPC   C1A61479  43.107  26.774   6.464
 4813POPC   D2A61480  43.125  26.803   6.764
 4813POPC   C3A61481  43.069  26.777   7.064
 4813POPC   C4A61482  43.136  26.833   7.364
 4813POPC   C1B61483  43.154  27.032   6.464
 4813POPC   C2B61484  43.211  27.037   6.764
 4813POPC   C3B61485  43.175  27.087   7.064
 4813POPC   C4B61486  43.182  27.010   7.364
 4814POPC   NC361487  43.925  24.510   5.564
 4814POPC   PO461488  43.867  24.454   5.864
 4814POPC   GL161489  43.897  24.464   6.164
 4814POPC   GL261490  43.884  24.661   6.164
 4814POPC   C1A61491  43.844  24.479   6.464
 4814POPC   D2A61492  43.910  24.513   6.764
 4814POPC   C3A61493  43.853  24.491   7.064
 4814POPC   C4A61494  43.859  24.506   7.364
 4814POPC   C1B61495  43.917  24.710   6.464
 4814POPC   C2B61496  43.845  24.756   6.764
 4814POPC   C3B61497  43.912  24.729   7.064
 4814POPC   C4B61498  43.861  24.744   7.364
 4815POPC   NC361499   9.791   0.483   5.564
 4815POPC   PO461500   9.727   0.482   5.864
 4815POPC   GL161501   9.704   0.412   6.164
 4815POPC   GL261502   9.759   0.284   6.164
 4815POPC   C1A61503   9.797   0.423   6.464
 4815POPC   D2A61504   9.723   0.400   6.764
 4815POPC   C3A61505   9.776   0.459   7.064
 4815POPC   C4A61506   9.725   0.450   7.364
 4815POPC   C1B61507   9.713   0.168   6.464
 4815POPC   C2B61508   9.673   0.197   6.764
 4815POPC   C3B61509   9.710   0.189   7.064
 4815POPC   C4B61510   9.673   0.167   7.364
 4816POPC   NC361511  40.781  39.250   5.564
 4816POPC   PO461512  40.757  39.187   5.864
 4816POPC   GL161513  40.771  39.235   6.164
 4816POPC   GL261514  40.646  39.273   6.164
 4816POPC   C1A61515  40.756  39.261   6.464
 4816POPC   D2A61516  40.786  39.229   6.764
 4816POPC   C3A61517  40.796  39.252   7.064
 4816POPC   C4A61518  40.760  39.223   7.364
 4816POPC   C1B61519  40.542  39.269   6.464
 4816POPC   C2B61520  40.540  39.321   6.764
 4816POPC   C3B61521  40.505  39.319   7.064
 4816POPC   C4B61522  40.514  39.320   7.364
 4817POPC   NC361523   4.336   8.196   5.564
 4817POPC   PO461524   4.326   8.148   5.864
 4817POPC   GL161525   4.318   8.222   6.164
 4817POPC   GL261526   4.395   8.359   6.164
 4817POPC   C1A61527   4.360   8.241   6.464
 4817POPC   D2A61528   4.318   8.245   6.764
 4817POPC   C3A61529   4.291   8.168   7.064
 4817POPC   C4A61530   4.277   8.178   7.364
 4817POPC   C1B61531   4.472   8.427   6.464
 4817POPC   C2B61532   4.418   8.393   6.764
 4817POPC   C3B61533   4.461   8.459   7.064
 4817POPC   C4B61534   4.416   8.375   7.364
 4818POPC   NC361535  26.081  12.894   5.564
 4818POPC   PO461536  25.995  12.858   5.864
 4818POPC   GL161537  26.035  12.829   6.164
 4818POPC   GL261538  25.881  12.866   6.164
 4818POPC   C1A61539  26.075  12.881   6.464
 4818POPC   D2A61540  26.088  12.804   6.764
 4818POPC   C3A61541  26.072  12.865   7.064
 4818POPC   C4A61542  25.992  12.823   7.364
 4818POPC   C1B61543  25.768  12.957   6.464
 4818POPC   C2B61544  25.810  12.889   6.764
 4818POPC   C3B61545  25.766  12.941   7.064
 4818POPC   C4B61546  25.777  12.940   7.364
 4819POPC   NC361547  29.964  39.207   5.564
 4819POPC   PO461548  29.934  39.253   5.864
 4819POPC   GL161549  29.911  39.239   6.164
 4819POPC   GL261550  29.774  39.213   6.164
 4819POPC   C1A61551  29.888  39.246   6.464
 4819POPC   D2A61552  29.889  39.270   6.764
 4819POPC   C3A61553  29.898  39.182   7.064
 4819POPC   C4A61554  29.936  39.275   7.364
 4819POPC   C1B61555  29.624  39.233   6.464
 4819POPC   C2B61556  29.694  39.295   6.764
 4819POPC   C3B61557  29.719  39.290   7.064
 4819POPC   C4B61558  29.716  39.257   7.364
 4820POPC   NC361559  12.085  39.269   5.564
 4820POPC   PO461560  12.026  39.267   5.864
 4820POPC   GL161561  12.102  39.224   6.164
 4820POPC   GL261562  11.983  39.298   6.164
 4820POPC   C1A61563  12.033  39.263   6.464
 4820POPC   D2A61564  12.125  39.265   6.764
 4820POPC   C3A61565  12.096  39.259   7.064
 4820POPC   C4A61566  12.042  39.225   7.364
 4820POPC   C1B61567  11.893  39.376   6.464
 4820POPC   C2B61568  11.901  39.360   6.764
 4820POPC   C3B61569  11.844  39.384   7.064
 4820POPC   C4B61570  11.877  39.427   7.364
 4821POPC   NC361571  10.565  24.465   5.564
 4821POPC   PO461572  10.486  24.450   5.864
 4821POPC   GL161573  10.508  24.510   6.164
 4821POPC   GL261574  10.432  24.521   6.164
 4821POPC   C1A61575  10.500  24.494   6.464
 4821POPC   D2A61576  10.490  24.448   6.764
 4821POPC   C3A61577  10.515  24.457   7.064
 4821POPC   C4A61578  10.506  24.470   7.364
 4821POPC   C1B61579  10.242  24.566   6.464
 4821POPC   C2B61580  10.327  24.539   6.764
 4821POPC   C3B61581  10.329  24.536   7.064
 4821POPC   C4B61582  10.315  24.509   7.364
 4822POPC   NC361583   9.003  11.313   5.564
 4822POPC   PO461584   8.990  11.317   5.864
 4822POPC   GL161585   8.978  11.349   6.164
 4822POPC   GL261586   8.874  11.226   6.164
 4822POPC   C1A61587   8.965  11.311   6.464
 4822POPC   D2A61588   8.994  11.309   6.764
 4822POPC   C3A61589   8.958  11.252   7.064
 4822POPC   C4A61590   9.016  11.309   7.364
 4822POPC   C1B61591   8.877  11.116   6.464
 4822POPC   C2B61592   8.859  11.093   6.764
 4822POPC   C3B61593   8.858  11.101   7.064
 4822POPC   C4B61594   8.814  11.032   7.364
 4823POPC   NC361595  40.772  25.260   5.564
 4823POPC   PO461596  40.795  25.307   5.864
 4823POPC   GL161597  40.803  25.227   6.164
 4823POPC   GL261598  40.940  25.295   6.164
 4823POPC   C1A61599  40.750  25.310   6.464
 4823POPC   D2A61600  40.743  25.294   6.764
 4823POPC   C3A61601  40.762  25.275   7.064
 4823POPC   C4A61602  40.808  25.266   7.364
 4823POPC   C1B61603  40.993  25.312   6.464
 4823POPC   C2B61604  41.072  25.349   6.764
 4823POPC   C3B61605  41.037  25.294   7.064
 4823POPC   C4B61606  41.043  25.294   7.364
 4824POPC   NC361607  39.234  39.187   5.564
 4824POPC   PO461608  39.232  39.264   5.864
 4824POPC   GL161609  39.181  39.188   6.164
 4824POPC   GL261610  39.312  39.113   6.164
 4824POPC   C1A61611  39.268  39.220   6.464
 4824POPC   D2A61612  39.235  39.189   6.764
 4824POPC   C3A61613  39.231  39.197   7.064
 4824POPC   C4A61614  39.264  39.235   7.364
 4824POPC   C1B61615  39.418  39.087   6.464
 4824POPC   C2B61616  39.423  39.120   6.764
 4824POPC   C3B61617  39.459  39.095   7.064
 4824POPC   C4B61618  39.476  39.096   7.364
 4825POPC   NC361619  33.023  43.883   5.564
 4825POPC   PO461620  33.023  43.842   5.864
 4825POPC   GL161621  33.015  43.865   6.164
 4825POPC   GL261622  32.870  43.919   6.164
 4825POPC   C1A61623  32.980  43.844   6.464
 4825POPC   D2A61624  33.069  43.867   6.764
 4825POPC   C3A61625  33.047  43.837   7.064
 4825POPC   C4A61626  33.050  43.897   7.364
 4825POPC   C1B61627  32.775  44.006   6.464
 4825POPC   C2B61628  32.778  43.991   6.764
 4825POPC   C3B61629  32.767  43.913   7.064
 4825POPC   C4B61630  32.831  43.999   7.364
 4826POPC   NC361631   0.478  19.075   5.564
 4826POPC   PO461632   0.443  19.085   5.864
 4826POPC   GL161633   0.464  19.049   6.164
 4826POPC   GL261634   0.268  19.046   6.164
 4826POPC   C1A61635   0.449  19.074   6.464
 4826POPC   D2A61636   0.421  19.086   6.764
 4826POPC   C3A61637   0.483  19.021   7.064
 4826POPC   C4A61638   0.455  19.025   7.364
 4826POPC   C1B61639   0.220  19.155   6.464
 4826POPC   C2B61640   0.184  19.114   6.764
 4826POPC   C3B61641   0.205  19.142   7.064
 4826POPC   C4B61642   0.219  19.135   7.364
 4827POPC   NC361643  11.314   1.260   5.564
 4827POPC   PO461644  11.315   1.220   5.864
 4827POPC   GL161645  11.335   1.187   6.164
 4827POPC   GL261646  11.200   1.245   6.164
 4827POPC   C1A61647  11.350   1.245   6.464
 4827POPC   D2A61648  11.261   1.235   6.764
 4827POPC   C3A61649  11.292   1.194   7.064
 4827POPC   C4A61650  11.271   1.169   7.364
 4827POPC   C1B61651  11.103   1.223   6.464
 4827POPC   C2B61652  11.052   1.241   6.764
 4827POPC   C3B61653  11.078   1.271   7.064
 4827POPC   C4B61654  11.087   1.290   7.364
 4828POPC   NC361655  26.035   8.218   5.564
 4828POPC   PO461656  26.088   8.165   5.864
 4828POPC   GL161657  25.998   8.207   6.164
 4828POPC   GL261658  26.012   8.115   6.164
 4828POPC   C1A61659  25.992   8.172   6.464
 4828POPC   D2A61660  26.001   8.201   6.764
 4828POPC   C3A61661  26.058   8.223   7.064
 4828POPC   C4A61662  26.068   8.241   7.364
 4828POPC   C1B61663  26.037   7.931   6.464
 4828POPC   C2B61664  26.027   7.934   6.764
 4828POPC   C3B61665  26.083   7.934   7.064
 4828POPC   C4B61666  26.059   7.932   7.364
 4829POPC   NC361667  38.481  21.407   5.564
 4829POPC   PO461668  38.428  21.433   5.864
 4829POPC   GL161669  38.488  21.429   6.164
 4829POPC   GL261670  38.614  21.435   6.164
 4829POPC   C1A61671  38.428  21.388   6.464
 4829POPC   D2A61672  38.492  21.380   6.764
 4829POPC   C3A61673  38.495  21.406   7.064
 4829POPC   C4A61674  38.463  21.424   7.364
 4829POPC   C1B61675  38.678  21.412   6.464
 4829POPC   C2B61676  38.668  21.425   6.764
 4829POPC   C3B61677  38.721  21.420   7.064
 4829POPC   C4B61678  38.743  21.403   7.364
 4830POPC   NC361679  29.126  26.785   5.564
 4830POPC   PO461680  29.179  26.783   5.864
 4830POPC   GL161681  29.134  26.817   6.164
 4830POPC   GL261682  29.046  26.967   6.164
 4830POPC   C1A61683  29.120  26.842   6.464
 4830POPC   D2A61684  29.177  26.803   6.764
 4830POPC   C3A61685  29.099  26.845   7.064
 4830POPC   C4A61686  29.111  26.852   7.364
 4830POPC   C1B61687  29.010  27.056   6.464
 4830POPC   C2B61688  29.028  27.036   6.764
 4830POPC   C3B61689  29.041  27.039   7.064
 4830POPC   C4B61690  29.057  27.027   7.364
 4831POPC   NC361691   6.623   0.416   5.564
 4831POPC   PO461692   6.603   0.485   5.864
 4831POPC   GL161693   6.667   0.428   6.164
 4831POPC   GL261694   6.788   0.391   6.164
 4831POPC   C1A61695   6.688   0.430   6.464
 4831POPC   D2A61696   6.616   0.473   6.764
 4831POPC   C3A61697   6.686   0.436   7.064
 4831POPC   C4A61698   6.596   0.417   7.364
 4831POPC   C1B61699   6.909   0.362   6.464
 4831POPC   C2B61700   6.863   0.352   6.764
 4831POPC   C3B61701   6.879   0.436   7.064
 4831POPC   C4B61702   6.848   0.375   7.364
 4832POPC   NC361703  32.200   7.405   5.564
 4832POPC   PO461704  32.267   7.470   5.864
 4832POPC   GL161705  32.238   7.406   6.164
 4832POPC   GL261706  32.206   7.546   6.164
 4832POPC   C1A61707  32.259   7.380   6.464
 4832POPC   D2A61708  32.228   7.388   6.764
 4832POPC   C3A61709  32.202   7.457   7.064
 4832POPC   C4A61710  32.221   7.374   7.364
 4832POPC   C1B61711  32.159   7.630   6.464
 4832POPC   C2B61712  32.219   7.693   6.764
 4832POPC   C3B61713  32.232   7.646   7.064
 4832POPC   C4B61714  32.175   7.666   7.364
 4833POPC   NC361715  30.714  26.830   5.564
 4833POPC   PO461716  30.670  26.782   5.864
 4833POPC   GL161717  30.668  26.857   6.164
 4833POPC   GL261718  30.772  26.762   6.164
 4833POPC   C1A61719  30.739  26.863   6.464
 4833POPC   D2A61720  30.732  26.819   6.764
 4833POPC   C3A61721  30.676  26.843   7.064
 4833POPC   C4A61722  30.727  26.814   7.364
 4833POPC   C1B61723  30.949  26.680   6.464
 4833POPC   C2B61724  30.914  26.723   6.764
 4833POPC   C3B61725  30.920  26.694   7.064
 4833POPC   C4B61726  30.858  26.696   7.364
 4834POPC   NC361727  14.420  21.413   5.564
 4834POPC   PO461728  14.375  21.368   5.864
 4834POPC   GL161729  14.452  21.424   6.164
 4834POPC   GL261730  14.248  21.358   6.164
 4834POPC   C1A61731  14.406  21.374   6.464
 4834POPC   D2A61732  14.381  21.406   6.764
 4834POPC   C3A61733  14.357  21.412   7.064
 4834POPC   C4A61734  14.361  21.391   7.364
 4834POPC   C1B61735  14.168  21.333   6.464
 4834POPC   C2B61736  14.166  21.299   6.764
 4834POPC   C3B61737  14.210  21.238   7.064
 4834POPC   C4B61738  14.153  21.282   7.364
 4835POPC   NC361739  29.943  17.557   5.564
 4835POPC   PO461740  29.938  17.464   5.864
 4835POPC   GL161741  29.947  17.485   6.164
 4835POPC   GL261742  29.974  17.589   6.164
 4835POPC   C1A61743  29.938  17.486   6.464
 4835POPC   D2A61744  29.907  17.497   6.764
 4835POPC   C3A61745  29.947  17.545   7.064
 4835POPC   C4A61746  29.932  17.546   7.364
 4835POPC   C1B61747  30.087  17.666   6.464
 4835POPC   C2B61748  30.113  17.718   6.764
 4835POPC   C3B61749  30.145  17.676   7.064
 4835POPC   C4B61750  30.158  17.659   7.364
 4836POPC   NC361751  19.854   5.853   5.564
 4836POPC   PO461752  19.839   5.854   5.864
 4836POPC   GL161753  19.806   5.826   6.164
 4836POPC   GL261754  19.906   5.878   6.164
 4836POPC   C1A61755  19.803   5.878   6.464
 4836POPC   D2A61756  19.878   5.848   6.764
 4836POPC   C3A61757  19.805   5.827   7.064
 4836POPC   C4A61758  19.862   5.902   7.364
 4836POPC   C1B61759  20.092   5.944   6.464
 4836POPC   C2B61760  20.030   5.982   6.764
 4836POPC   C3B61761  20.013   5.974   7.064
 4836POPC   C4B61762  20.098   6.003   7.364
 4837POPC   NC361763   6.657   6.620   5.564
 4837POPC   PO461764   6.620   6.598   5.864
 4837POPC   GL161765   6.638   6.642   6.164
 4837POPC   GL261766   6.699   6.499   6.164
 4837POPC   C1A61767   6.612   6.655   6.464
 4837POPC   D2A61768   6.638   6.670   6.764
 4837POPC   C3A61769   6.663   6.644   7.064
 4837POPC   C4A61770   6.637   6.637   7.364
 4837POPC   C1B61771   6.640   6.372   6.464
 4837POPC   C2B61772   6.622   6.396   6.764
 4837POPC   C3B61773   6.626   6.390   7.064
 4837POPC   C4B61774   6.670   6.408   7.364
 4838POPC   NC361775  10.482  35.400   5.564
 4838POPC   PO461776  10.498  35.374   5.864
 4838POPC   GL161777  10.561  35.387   6.164
 4838POPC   GL261778  10.680  35.365   6.164
 4838POPC   C1A61779  10.560  35.319   6.464
 4838POPC   D2A61780  10.563  35.376   6.764
 4838POPC   C3A61781  10.545  35.388   7.064
 4838POPC   C4A61782  10.558  35.340   7.364
 4838POPC   C1B61783  10.806  35.321   6.464
 4838POPC   C2B61784  10.732  35.290   6.764
 4838POPC   C3B61785  10.795  35.331   7.064
 4838POPC   C4B61786  10.786  35.306   7.364
 4839POPC   NC361787   4.278   4.275   5.564
 4839POPC   PO461788   4.337   4.304   5.864
 4839POPC   GL161789   4.277   4.322   6.164
 4839POPC   GL261790   4.207   4.224   6.164
 4839POPC   C1A61791   4.318   4.316   6.464
 4839POPC   D2A61792   4.280   4.292   6.764
 4839POPC   C3A61793   4.352   4.275   7.064
 4839POPC   C4A61794   4.286   4.271   7.364
 4839POPC   C1B61795   4.040   4.182   6.464
 4839POPC   C2B61796   4.039   4.245   6.764
 4839POPC   C3B61797   4.068   4.254   7.064
 4839POPC   C4B61798   4.090   4.220   7.364
 4840POPC   NC361799  27.563  16.756   5.564
 4840POPC   PO461800  27.617  16.752   5.864
 4840POPC   GL161801  27.561  16.725   6.164
 4840POPC   GL261802  27.532  16.801   6.164
 4840POPC   C1A61803  27.635  16.704   6.464
 4840POPC   D2A61804  27.601  16.726   6.764
 4840POPC   C3A61805  27.556  16.719   7.064
 4840POPC   C4A61806  27.604  16.699   7.364
 4840POPC   C1B61807  27.369  16.857   6.464
 4840POPC   C2B61808  27.404  16.862   6.764
 4840POPC   C3B61809  27.368  16.861   7.064
 4840POPC   C4B61810  27.426  16.877   7.364
 4841POPC   NC361811  10.475   4.280   5.564
 4841POPC   PO461812  10.536   4.359   5.864
 4841POPC   GL161813  10.505   4.297   6.164
 4841POPC   GL261814  10.536   4.224   6.164
 4841POPC   C1A61815  10.537   4.308   6.464
 4841POPC   D2A61816  10.527   4.338   6.764
 4841POPC   C3A61817  10.557   4.357   7.064
 4841POPC   C4A61818  10.498   4.327   7.364
 4841POPC   C1B61819  10.516   4.027   6.464
 4841POPC   C2B61820  10.553   4.093   6.764
 4841POPC   C3B61821  10.547   4.019   7.064
 4841POPC   C4B61822  10.526   4.102   7.364
 4842POPC   NC361823  22.924  35.303   5.564
 4842POPC   PO461824  22.966  35.395   5.864
 4842POPC   GL161825  22.907  35.361   6.164
 4842POPC   GL261826  22.939  35.213   6.164
 4842POPC   C1A61827  22.930  35.399   6.464
 4842POPC   D2A61828  22.911  35.367   6.764
 4842POPC   C3A61829  22.933  35.381   7.064
 4842POPC   C4A61830  22.965  35.363   7.364
 4842POPC   C1B61831  22.986  35.153   6.464
 4842POPC   C2B61832  22.996  35.091   6.764
 4842POPC   C3B61833  23.016  35.077   7.064
 4842POPC   C4B61834  23.014  35.090   7.364
 4843POPC   NC361835  33.771  16.718   5.564
 4843POPC   PO461836  33.809  16.716   5.864
 4843POPC   GL161837  33.789  16.755   6.164
 4843POPC   GL261838  33.770  16.634   6.164
 4843POPC   C1A61839  33.756  16.773   6.464
 4843POPC   D2A61840  33.824  16.701   6.764
 4843POPC   C3A61841  33.835  16.711   7.064
 4843POPC   C4A61842  33.813  16.777   7.364
 4843POPC   C1B61843  33.689  16.464   6.464
 4843POPC   C2B61844  33.686  16.508   6.764
 4843POPC   C3B61845  33.709  16.506   7.064
 4843POPC   C4B61846  33.665  16.518   7.364
 4844POPC   NC361847  35.361  29.174   5.564
 4844POPC   PO461848  35.373  29.144   5.864
 4844POPC   GL161849  35.373  29.142   6.164
 4844POPC   GL261850  35.326  29.059   6.164
 4844POPC   C1A61851  35.387  29.120   6.464
 4844POPC   D2A61852  35.308  29.095   6.764
 4844POPC   C3A61853  35.315  29.168   7.064
 4844POPC   C4A61854  35.349  29.168   7.364
 4844POPC   C1B61855  35.284  28.884   6.464
 4844POPC   C2B61856  35.230  28.872   6.764
 4844POPC   C3B61857  35.283  28.956   7.064
 4844POPC   C4B61858  35.268  28.915   7.364
 4845POPC   NC361859  41.547  13.593   5.564
 4845POPC   PO461860  41.558  13.587   5.864
 4845POPC   GL161861  41.576  13.663   6.164
 4845POPC   GL261862  41.539  13.475   6.164
 4845POPC   C1A61863  41.578  13.581   6.464
 4845POPC   D2A61864  41.542  13.649   6.764
 4845POPC   C3A61865  41.518  13.588   7.064
 4845POPC   C4A61866  41.579  13.673   7.364
 4845POPC   C1B61867  41.510  13.410   6.464
 4845POPC   C2B61868  41.530  13.360   6.764
 4845POPC   C3B61869  41.512  13.357   7.064
 4845POPC   C4B61870  41.478  13.361   7.364
 4846POPC   NC361871  12.118  26.821   5.564
 4846POPC   PO461872  12.055  26.806   5.864
 4846POPC   GL161873  12.049  26.860   6.164
 4846POPC   GL261874  12.193  26.751   6.164
 4846POPC   C1A61875  12.040  26.794   6.464
 4846POPC   D2A61876  12.122  26.840   6.764
 4846POPC   C3A61877  12.093  26.853   7.064
 4846POPC   C4A61878  12.109  26.846   7.364
 4846POPC   C1B61879  12.256  26.627   6.464
 4846POPC   C2B61880  12.238  26.660   6.764
 4846POPC   C3B61881  12.206  26.665   7.064
 4846POPC   C4B61882  12.251  26.636   7.364
 4847POPC   NC361883  10.492   3.541   5.564
 4847POPC   PO461884  10.559   3.523   5.864
 4847POPC   GL161885  10.549   3.547   6.164
 4847POPC   GL261886  10.613   3.531   6.164
 4847POPC   C1A61887  10.564   3.517   6.464
 4847POPC   D2A61888  10.566   3.569   6.764
 4847POPC   C3A61889  10.515   3.552   7.064
 4847POPC   C4A61890  10.517   3.585   7.364
 4847POPC   C1B61891  10.722   3.409   6.464
 4847POPC   C2B61892  10.773   3.471   6.764
 4847POPC   C3B61893  10.788   3.418   7.064
 4847POPC   C4B61894  10.755   3.400   7.364
 4848POPC   NC361895  33.811  35.338   5.564
 4848POPC   PO461896  33.784  35.350   5.864
 4848POPC   GL161897  33.841  35.314   6.164
 4848POPC   GL261898  33.898  35.290   6.164
 4848POPC   C1A61899  33.768  35.348   6.464
 4848POPC   D2A61900  33.845  35.372   6.764
 4848POPC   C3A61901  33.804  35.383   7.064
 4848POPC   C4A61902  33.801  35.375   7.364
 4848POPC   C1B61903  34.055  35.325   6.464
 4848POPC   C2B61904  34.072  35.330   6.764
 4848POPC   C3B61905  34.091  35.370   7.064
 4848POPC   C4B61906  34.058  35.308   7.364
 4849POPC   NC361907  44.671  29.096   5.564
 4849POPC   PO461908  44.680  29.123   5.864
 4849POPC   GL161909  44.623  29.143   6.164
 4849POPC   GL261910  44.668  28.981   6.164
 4849POPC   C1A61911  44.655  29.165   6.464
 4849POPC   D2A61912  44.656  29.126   6.764
 4849POPC   C3A61913  44.703  29.099   7.064
 4849POPC   C4A61914  44.652  29.183   7.364
 4849POPC   C1B61915  44.622  28.912   6.464
 4849POPC   C2B61916  44.681  28.918   6.764
 4849POPC   C3B61917  44.635  28.870   7.064
 4849POPC   C4B61918  44.616  28.911   7.364
 4850POPC   NC361919  12.047  12.044   5.564
 4850POPC   PO461920  12.080  12.031   5.864
 4850POPC   GL161921  12.108  12.086   6.164
 4850POPC   GL261922  12.106  11.932   6.164
 4850POPC   C1A61923  12.084  12.041   6.464
 4850POPC   D2A61924  12.104  12.061   6.764
 4850POPC   C3A61925  12.069  12.068   7.064
 4850POPC   C4A61926  12.048  12.078   7.364
 4850POPC   C1B61927  12.239  11.838   6.464
 4850POPC   C2B61928  12.173  11.862   6.764
 4850POPC   C3B61929  12.212  11.891   7.064
 4850POPC   C4B61930  12.239  11.805   7.364
 4851POPC   NC361931  35.359  43.096   5.564
 4851POPC   PO461932  35.313  43.104   5.864
 4851POPC   GL161933  35.390  43.080   6.164
 4851POPC   GL261934  35.511  43.100   6.164
 4851POPC   C1A61935  35.385  43.061   6.464
 4851POPC   D2A61936  35.367  43.099   6.764
 4851POPC   C3A61937  35.318  43.065   7.064
 4851POPC   C4A61938  35.377  43.129   7.364
 4851POPC   C1B61939  35.585  42.995   6.464
 4851POPC   C2B61940  35.563  43.003   6.764
 4851POPC   C3B61941  35.619  42.999   7.064
 4851POPC   C4B61942  35.548  42.991   7.364
 4852POPC   NC361943   8.204  40.763   5.564
 4852POPC   PO461944   8.220  40.812   5.864
 4852POPC   GL161945   8.227  40.771   6.164
 4852POPC   GL261946   8.346  40.845   6.164
 4852POPC   C1A61947   8.186  40.814   6.464
 4852POPC   D2A61948   8.222  40.742   6.764
 4852POPC   C3A61949   8.173  40.819   7.064
 4852POPC   C4A61950   8.181  40.803   7.364
 4852POPC   C1B61951   8.456  40.826   6.464
 4852POPC   C2B61952   8.400  40.867   6.764
 4852POPC   C3B61953   8.395  40.860   7.064
 4852POPC   C4B61954   8.467  40.838   7.364
 4853POPC   NC361955  16.715   2.723   5.564
 4853POPC   PO461956  16.741   2.722   5.864
 4853POPC   GL161957  16.713   2.766   6.164
 4853POPC   GL261958  16.699   2.624   6.164
 4853POPC   C1A61959  16.700   2.808   6.464
 4853POPC   D2A61960  16.773   2.815   6.764
 4853POPC   C3A61961  16.725   2.739   7.064
 4853POPC   C4A61962  16.693   2.760   7.364
 4853POPC   C1B61963  16.612   2.568   6.464
 4853POPC   C2B61964  16.613   2.528   6.764
 4853POPC   C3B61965  16.700   2.564   7.064
 4853POPC   C4B61966  16.613   2.569   7.364
 4854POPC   NC361967  40.784  12.041   5.564
 4854POPC   PO461968  40.767  12.103   5.864
 4854POPC   GL161969  40.789  12.040   6.164
 4854POPC   GL261970  40.631  12.078   6.164
 4854POPC   C1A61971  40.804  12.088   6.464
 4854POPC   D2A61972  40.742  12.100   6.764
 4854POPC   C3A61973  40.738  12.091   7.064
 4854POPC   C4A61974  40.787  12.093   7.364
 4854POPC   C1B61975  40.585  12.184   6.464
 4854POPC   C2B61976  40.516  12.206   6.764
 4854POPC   C3B61977  40.549  12.216   7.064
 4854POPC   C4B61978  40.550  12.155   7.364
 4855POPC   NC361979  33.051  31.490   5.564
 4855POPC   PO461980  33.050  31.517   5.864
 4855POPC   GL161981  33.055  31.436   6.164
 4855POPC   GL261982  32.991  31.405   6.164
 4855POPC   C1A61983  33.014  31.476   6.464
 4855POPC   D2A61984  32.995  31.491   6.764
 4855POPC   C3A61985  33.047  31.463   7.064
 4855POPC   C4A61986  33.038  31.479   7.364
 4855POPC   C1B61987  32.879  31.289   6.464
 4855POPC   C2B61988  32.855  31.287   6.764
 4855POPC   C3B61989  32.903  31.252   7.064
 4855POPC   C4B61990  32.908  31.276   7.364
 4856POPC   NC361991  37.650   4.362   5.564
 4856POPC   PO461992  37.665   4.350   5.864
 4856POPC   GL161993  37.713   4.283   6.164
 4856POPC   GL261994  37.800   4.389   6.164
 4856POPC   C1A61995  37.688   4.322   6.464
 4856POPC   D2A61996  37.657   4.333   6.764
 4856POPC   C3A61997  37.727   4.336   7.064
 4856POPC   C4A61998  37.707   4.354   7.364
 4856POPC   C1B61999  37.838   4.483   6.464
 4856POPC   C2B62000  37.889   4.482   6.764
 4856POPC   C3B62001  37.851   4.511   7.064
 4856POPC   C4B62002  37.842   4.477   7.364
 4857POPC   NC362003   8.165  32.260   5.564
 4857POPC   PO462004   8.179  32.223   5.864
 4857POPC   GL162005   8.230  32.260   6.164
 4857POPC   GL262006   8.227  32.369   6.164
 4857POPC   C1A62007   8.203  32.262   6.464
 4857POPC   D2A62008   8.172  32.221   6.764
 4857POPC   C3A62009   8.170  32.266   7.064
 4857POPC   C4A62010   8.167  32.260   7.364
 4857POPC   C1B62011   8.275  32.427   6.464
 4857POPC   C2B62012   8.256  32.520   6.764
 4857POPC   C3B62013   8.313  32.506   7.064
 4857POPC   C4B62014   8.270  32.477   7.364
 4858POPC   NC362015  29.949   9.764   5.564
 4858POPC   PO462016  29.887   9.728   5.864
 4858POPC   GL162017  29.934   9.701   6.164
 4858POPC   GL262018  29.946   9.873   6.164
 4858POPC   C1A62019  29.899   9.767   6.464
 4858POPC   D2A62020  29.937   9.749   6.764
 4858POPC   C3A62021  29.871   9.731   7.064
 4858POPC   C4A62022  29.882   9.781   7.364
 4858POPC   C1B62023  29.941  10.030   6.464
 4858POPC   C2B62024  30.013  10.042   6.764
 4858POPC   C3B62025  29.929  10.036   7.064
 4858POPC   C4B62026  29.933  10.021   7.364
 4859POPC   NC362027  21.401  14.398   5.564
 4859POPC   PO462028  21.409  14.449   5.864
 4859POPC   GL162029  21.421  14.439   6.164
 4859POPC   GL262030  21.374  14.316   6.164
 4859POPC   C1A62031  21.338  14.383   6.464
 4859POPC   D2A62032  21.361  14.437   6.764
 4859POPC   C3A62033  21.405  14.374   7.064
 4859POPC   C4A62034  21.393  14.420   7.364
 4859POPC   C1B62035  21.361  14.132   6.464
 4859POPC   C2B62036  21.369  14.160   6.764
 4859POPC   C3B62037  21.413  14.104   7.064
 4859POPC   C4B62038  21.416  14.199   7.364
 4860POPC   NC362039  19.859  25.993   5.564
 4860POPC   PO462040  19.802  26.067   5.864
 4860POPC   GL162041  19.794  26.002   6.164
 4860POPC   GL262042  19.958  25.999   6.164
 4860POPC   C1A62043  19.824  26.001   6.464
 4860POPC   D2A62044  19.816  25.998   6.764
 4860POPC   C3A62045  19.786  26.030   7.064
 4860POPC   C4A62046  19.868  25.999   7.364
 4860POPC   C1B62047  20.120  26.032   6.464
 4860POPC   C2B62048  20.090  25.992   6.764
 4860POPC   C3B62049  20.070  25.962   7.064
 4860POPC   C4B62050  20.098  25.957   7.364
 4861POPC   NC362051  28.329  37.688   5.564
 4861POPC   PO462052  28.371  37.720   5.864
 4861POPC   GL162053  28.402  37.650   6.164
 4861POPC   GL262054  28.340  37.819   6.164
 4861POPC   C1A62055  28.359  37.700   6.464
 4861POPC   D2A62056  28.411  37.679   6.764
 4861POPC   C3A62057  28.368  37.645   7.064
 4861POPC   C4A62058  28.338  37.652   7.364
 4861POPC   C1B62059  28.161  37.872   6.464
 4861POPC   C2B62060  28.251  37.918   6.764
 4861POPC   C3B62061  28.166  37.893   7.064
 4861POPC   C4B62062  28.247  37.885   7.364
 4862POPC   NC362063  19.069  22.916   5.564
 4862POPC   PO462064  19.020  22.903   5.864
 4862POPC   GL162065  19.022  22.911   6.164
 4862POPC   GL262066  19.196  22.988   6.164
 4862POPC   C1A62067  19.019  22.951   6.464
 4862POPC   D2A62068  19.041  22.907   6.764
 4862POPC   C3A62069  19.099  22.983   7.064
 4862POPC   C4A62070  19.100  22.936   7.364
 4862POPC   C1B62071  19.222  23.112   6.464
 4862POPC   C2B62072  19.261  23.118   6.764
 4862POPC   C3B62073  19.251  23.067   7.064
 4862POPC   C4B62074  19.316  23.105   7.364
 4863POPC   NC362075  20.577  10.504   5.564
 4863POPC   PO462076  20.605  10.475   5.864
 4863POPC   GL162077  20.578  10.558   6.164
 4863POPC   GL262078  20.535  10.478   6.164
 4863POPC   C1A62079  20.657  10.552   6.464
 4863POPC   D2A62080  20.570  10.563   6.764
 4863POPC   C3A62081  20.601  10.557   7.064
 4863POPC   C4A62082  20.609  10.475   7.364
 4863POPC   C1B62083  20.355  10.396   6.464
 4863POPC   C2B62084  20.361  10.477   6.764
 4863POPC   C3B62085  20.366  10.400   7.064
 4863POPC   C4B62086  20.327  10.492   7.364
 4864POPC   NC362087  33.832  31.452   5.564
 4864POPC   PO462088  33.786  31.476   5.864
 4864POPC   GL162089  33.798  31.464   6.164
 4864POPC   GL262090  33.898  31.481   6.164
 4864POPC   C1A62091  33.757  31.458   6.464
 4864POPC   D2A62092  33.776  31.516   6.764
 4864POPC   C3A62093  33.798  31.506   7.064
 4864POPC   C4A62094  33.850  31.445   7.364
 4864POPC   C1B62095  34.033  31.445   6.464
 4864POPC   C2B62096  34.096  31.465   6.764
 4864POPC   C3B62097  34.010  31.485   7.064
 4864POPC   C4B62098  34.089  31.417   7.364
 4865POPC   NC362099  37.695   7.404   5.564
 4865POPC   PO462100  37.661   7.373   5.864
 4865POPC   GL162101  37.665   7.421   6.164
 4865POPC   GL262102  37.526   7.388   6.164
 4865POPC   C1A62103  37.669   7.445   6.464
 4865POPC   D2A62104  37.700   7.448   6.764
 4865POPC   C3A62105  37.726   7.381   7.064
 4865POPC   C4A62106  37.651   7.385   7.364
 4865POPC   C1B62107  37.430   7.407   6.464
 4865POPC   C2B62108  37.415   7.413   6.764
 4865POPC   C3B62109  37.433   7.467   7.064
 4865POPC   C4B62110  37.446   7.428   7.364
 4866POPC   NC362111  38.443  13.661   5.564
 4866POPC   PO462112  38.462  13.636   5.864
 4866POPC   GL162113  38.480  13.658   6.164
 4866POPC   GL262114  38.406  13.786   6.164
 4866POPC   C1A62115  38.428  13.607   6.464
 4866POPC   D2A62116  38.492  13.608   6.764
 4866POPC   C3A62117  38.469  13.644   7.064
 4866POPC   C4A62118  38.482  13.590   7.364
 4866POPC   C1B62119  38.459  13.826   6.464
 4866POPC   C2B62120  38.389  13.850   6.764
 4866POPC   C3B62121  38.370  13.866   7.064
 4866POPC   C4B62122  38.384  13.848   7.364
 4867POPC   NC362123  10.514  14.435   5.564
 4867POPC   PO462124  10.533  14.419   5.864
 4867POPC   GL162125  10.508  14.419   6.164
 4867POPC   GL262126  10.367  14.346   6.164
 4867POPC   C1A62127  10.556  14.370   6.464
 4867POPC   D2A62128  10.542  14.423   6.764
 4867POPC   C3A62129  10.479  14.402   7.064
 4867POPC   C4A62130  10.500  14.405   7.364
 4867POPC   C1B62131  10.236  14.346   6.464
 4867POPC   C2B62132  10.322  14.394   6.764
 4867POPC   C3B62133  10.284  14.341   7.064
 4867POPC   C4B62134  10.242  14.362   7.364
 4868POPC   NC362135  41.579  32.976   5.564
 4868POPC   PO462136  41.558  33.060   5.864
 4868POPC   GL162137  41.545  33.036   6.164
 4868POPC   GL262138  41.666  32.907   6.164
 4868POPC   C1A62139  41.581  33.055   6.464
 4868POPC   D2A62140  41.523  32.997   6.764
 4868POPC   C3A62141  41.607  33.026   7.064
 4868POPC   C4A62142  41.601  33.024   7.364
 4868POPC   C1B62143  41.703  32.806   6.464
 4868POPC   C2B62144  41.733  32.836   6.764
 4868POPC   C3B62145  41.751  32.779   7.064
 4868POPC   C4B62146  41.712  32.785   7.364
 4869POPC   NC362147   3.563  24.448   5.564
 4869POPC   PO462148   3.568  24.535   5.864
 4869POPC   GL162149   3.505  24.488   6.164
 4869POPC   GL262150   3.646  24.616   6.164
 4869POPC   C1A62151   3.495  24.467   6.464
 4869POPC   D2A62152   3.491  24.465   6.764
 4869POPC   C3A62153   3.496  24.525   7.064
 4869POPC   C4A62154   3.549  24.532   7.364
 4869POPC   C1B62155   3.709  24.675   6.464
 4869POPC   C2B62156   3.754  24.717   6.764
 4869POPC   C3B62157   3.671  24.691   7.064
 4869POPC   C4B62158   3.692  24.700   7.364
 4870POPC   NC362159  30.744   5.115   5.564
 4870POPC   PO462160  30.681   5.044   5.864
 4870POPC   GL162161  30.705   5.088   6.164
 4870POPC   GL262162  30.613   5.112   6.164
 4870POPC   C1A62163  30.732   5.050   6.464
 4870POPC   D2A62164  30.673   5.072   6.764
 4870POPC   C3A62165  30.667   5.054   7.064
 4870POPC   C4A62166  30.664   5.069   7.364
 4870POPC   C1B62167  30.418   5.119   6.464
 4870POPC   C2B62168  30.410   5.100   6.764
 4870POPC   C3B62169  30.468   5.074   7.064
 4870POPC   C4B62170  30.470   5.088   7.364
 4871POPC   NC362171  37.689  40.830   5.564
 4871POPC   PO462172  37.660  40.828   5.864
 4871POPC   GL162173  37.662  40.800   6.164
 4871POPC   GL262174  37.587  40.692   6.164
 4871POPC   C1A62175  37.658  40.791   6.464
 4871POPC   D2A62176  37.721  40.815   6.764
 4871POPC   C3A62177  37.681  40.762   7.064
 4871POPC   C4A62178  37.643  40.798   7.364
 4871POPC   C1B62179  37.516  40.588   6.464
 4871POPC   C2B62180  37.516  40.606   6.764
 4871POPC   C3B62181  37.602  40.605   7.064
 4871POPC   C4B62182  37.568  40.552   7.364
 4872POPC   NC362183  32.280  40.805   5.564
 4872POPC   PO462184  32.284  40.799   5.864
 4872POPC   GL162185  32.292  40.808   6.164
 4872POPC   GL262186  32.169  40.791   6.164
 4872POPC   C1A62187  32.226  40.779   6.464
 4872POPC   D2A62188  32.208  40.767   6.764
 4872POPC   C3A62189  32.240  40.747   7.064
 4872POPC   C4A62190  32.289  40.768   7.364
 4872POPC   C1B62191  31.975  40.861   6.464
 4872POPC   C2B62192  32.029  40.873   6.764
 4872POPC   C3B62193  32.038  40.894   7.064
 4872POPC   C4B62194  32.037  40.891   7.364
 4873POPC   NC362195  41.537   8.941   5.564
 4873POPC   PO462196  41.522   8.995   5.864
 4873POPC   GL162197  41.606   8.958   6.164
 4873POPC   GL262198  41.426   8.992   6.164
 4873POPC   C1A62199  41.547   8.949   6.464
 4873POPC   D2A62200  41.511   8.933   6.764
 4873POPC   C3A62201  41.526   8.988   7.064
 4873POPC   C4A62202  41.584   9.014   7.364
 4873POPC   C1B62203  41.334   8.985   6.464
 4873POPC   C2B62204  41.347   8.949   6.764
 4873POPC   C3B62205  41.335   8.980   7.064
 4873POPC   C4B62206  41.288   8.968   7.364
 4874POPC   NC362207  26.070   8.965   5.564
 4874POPC   PO462208  26.062   8.942   5.864
 4874POPC   GL162209  26.056   9.015   6.164
 4874POPC   GL262210  25.968   9.017   6.164
 4874POPC   C1A62211  26.072   8.944   6.464
 4874POPC   D2A62212  26.048   8.941   6.764
 4874POPC   C3A62213  26.020   9.021   7.064
 4874POPC   C4A62214  26.010   9.010   7.364
 4874POPC   C1B62215  25.827   9.089   6.464
 4874POPC   C2B62216  25.835   9.034   6.764
 4874POPC   C3B62217  25.839   9.087   7.064
 4874POPC   C4B62218  25.809   9.089   7.364
 4875POPC   NC362219  12.042  25.998   5.564
 4875POPC   PO462220  12.054  26.078   5.864
 4875POPC   GL162221  12.108  26.028   6.164
 4875POPC   GL262222  11.996  26.119   6.164
 4875POPC   C1A62223  12.034  26.010   6.464
 4875POPC   D2A62224  12.114  26.072   6.764
 4875POPC   C3A62225  12.082  26.085   7.064
 4875POPC   C4A62226  12.108  26.013   7.364
 4875POPC   C1B62227  11.882  26.086   6.464
 4875POPC   C2B62228  11.826  26.099   6.764
 4875POPC   C3B62229  11.820  26.154   7.064
 4875POPC   C4B62230  11.862  26.095   7.364
 4876POPC   NC362231  37.697  18.256   5.564
 4876POPC   PO462232  37.675  18.296   5.864
 4876POPC   GL162233  37.689  18.237   6.164
 4876POPC   GL262234  37.582  18.214   6.164
 4876POPC   C1A62235  37.693  18.280   6.464
 4876POPC   D2A62236  37.684  18.300   6.764
 4876POPC   C3A62237  37.724  18.288   7.064
 4876POPC   C4A62238  37.693  18.278   7.364
 4876POPC   C1B62239  37.409  18.135   6.464
 4876POPC   C2B62240  37.488  18.173   6.764
 4876POPC   C3B62241  37.496  18.166   7.064
 4876POPC   C4B62242  37.469  18.172   7.364
 4877POPC   NC362243  15.971  34.539   5.564
 4877POPC   PO462244  15.977  34.530   5.864
 4877POPC   GL162245  15.910  34.584   6.164
 4877POPC   GL262246  15.987  34.427   6.164
 4877POPC   C1A62247  15.934  34.573   6.464
 4877POPC   D2A62248  16.003  34.574   6.764
 4877POPC   C3A62249  15.936  34.570   7.064
 4877POPC   C4A62250  15.977  34.591   7.364
 4877POPC   C1B62251  16.009  34.302   6.464
 4877POPC   C2B62252  16.015  34.290   6.764
 4877POPC   C3B62253  15.998  34.377   7.064
 4877POPC   C4B62254  16.027  34.306   7.364
 4878POPC   NC362255   1.961  42.379   5.564
 4878POPC   PO462256   2.003  42.381   5.864
 4878POPC   GL162257   1.990  42.349   6.164
 4878POPC   GL262258   1.876  42.263   6.164
 4878POPC   C1A62259   1.989  42.303   6.464
 4878POPC   D2A62260   1.950  42.380   6.764
 4878POPC   C3A62261   2.032  42.301   7.064
 4878POPC   C4A62262   2.035  42.301   7.364
 4878POPC   C1B62263   1.805  42.134   6.464
 4878POPC   C2B62264   1.861  42.094   6.764
 4878POPC   C3B62265   1.799  42.110   7.064
 4878POPC   C4B62266   1.872  42.102   7.364
 4879POPC   NC362267   0.424  12.097   5.564
 4879POPC   PO462268   0.482  12.043   5.864
 4879POPC   GL162269   0.414  12.045   6.164
 4879POPC   GL262270   0.353  11.964   6.164
 4879POPC   C1A62271   0.449  12.080   6.464
 4879POPC   D2A62272   0.415  12.039   6.764
 4879POPC   C3A62273   0.477  12.028   7.064
 4879POPC   C4A62274   0.440  12.054   7.364
 4879POPC   C1B62275   0.254  11.916   6.464
 4879POPC   C2B62276   0.244  11.942   6.764
 4879POPC   C3B62277   0.208  11.864   7.064
 4879POPC   C4B62278   0.281  11.890   7.364
 4880POPC   NC362279  20.637  22.139   5.564
 4880POPC   PO462280  20.588  22.132   5.864
 4880POPC   GL162281  20.620  22.132   6.164
 4880POPC   GL262282  20.679  22.223   6.164
 4880POPC   C1A62283  20.606  22.132   6.464
 4880POPC   D2A62284  20.580  22.165   6.764
 4880POPC   C3A62285  20.582  22.140   7.064
 4880POPC   C4A62286  20.615  22.195   7.364
 4880POPC   C1B62287  20.871  22.234   6.464
 4880POPC   C2B62288  20.888  22.218   6.764
 4880POPC   C3B62289  20.807  22.269   7.064
 4880POPC   C4B62290  20.837  22.240   7.364
 4881POPC   NC362291  43.105  16.724   5.564
 4881POPC   PO462292  43.149  16.737   5.864
 4881POPC   GL162293  43.099  16.772   6.164
 4881POPC   GL262294  43.223  16.810   6.164
 4881POPC   C1A62295  43.116  16.726   6.464
 4881POPC   D2A62296  43.083  16.761   6.764
 4881POPC   C3A62297  43.095  16.777   7.064
 4881POPC   C4A62298  43.099  16.759   7.364
 4881POPC   C1B62299  43.316  16.909   6.464
 4881POPC   C2B62300  43.280  16.867   6.764
 4881POPC   C3B62301  43.273  16.904   7.064
 4881POPC   C4B62302  43.275  16.898   7.364
 4882POPC   NC362303  12.877  30.678   5.564
 4882POPC   PO462304  12.863  30.698   5.864
 4882POPC   GL162305  12.845  30.744   6.164
 4882POPC   GL262306  12.734  30.650   6.164
 4882POPC   C1A62307  12.816  30.698   6.464
 4882POPC   D2A62308  12.899  30.718   6.764
 4882POPC   C3A62309  12.857  30.667   7.064
 4882POPC   C4A62310  12.809  30.713   7.364
 4882POPC   C1B62311  12.633  30.604   6.464
 4882POPC   C2B62312  12.617  30.628   6.764
 4882POPC   C3B62313  12.618  30.633   7.064
 4882POPC   C4B62314  12.616  30.616   7.364
 4883POPC   NC362315  41.547  11.263   5.564
 4883POPC   PO462316  41.559  11.344   5.864
 4883POPC   GL162317  41.539  11.331   6.164
 4883POPC   GL262318  41.538  11.429   6.164
 4883POPC   C1A62319  41.563  11.290   6.464
 4883POPC   D2A62320  41.547  11.253   6.764
 4883POPC   C3A62321  41.575  11.321   7.064
 4883POPC   C4A62322  41.512  11.321   7.364
 4883POPC   C1B62323  41.524  11.586   6.464
 4883POPC   C2B62324  41.549  11.532   6.764
 4883POPC   C3B62325  41.557  11.594   7.064
 4883POPC   C4B62326  41.510  11.592   7.364
 4884POPC   NC362327   5.821  13.612   5.564
 4884POPC   PO462328   5.874  13.586   5.864
 4884POPC   GL162329   5.887  13.607   6.164
 4884POPC   GL262330   6.028  13.544   6.164
 4884POPC   C1A62331   5.836  13.628   6.464
 4884POPC   D2A62332   5.865  13.594   6.764
 4884POPC   C3A62333   5.861  13.638   7.064
 4884POPC   C4A62334   5.897  13.605   7.364
 4884POPC   C1B62335   6.147  13.557   6.464
 4884POPC   C2B62336   6.158  13.565   6.764
 4884POPC   C3B62337   6.153  13.542   7.064
 4884POPC   C4B62338   6.140  13.557   7.364
 4885POPC   NC362339  22.138  14.413   5.564
 4885POPC   PO462340  22.188  14.378   5.864
 4885POPC   GL162341  22.205  14.443   6.164
 4885POPC   GL262342  22.248  14.396   6.164
 4885POPC   C1A62343  22.200  14.453   6.464
 4885POPC   D2A62344  22.206  14.444   6.764
 4885POPC   C3A62345  22.114  14.438   7.064
 4885POPC   C4A62346  22.135  14.365   7.364
 4885POPC   C1B62347  22.448  14.447   6.464
 4885POPC   C2B62348  22.390  14.394   6.764
 4885POPC   C3B62349  22.367  14.417   7.064
 4885POPC   C4B62350  22.437  14.415   7.364
 4886POPC   NC362351  22.933   2.749   5.564
 4886POPC   PO462352  22.928   2.754   5.864
 4886POPC   GL162353  22.903   2.728   6.164
 4886POPC   GL262354  22.942   2.601   6.164
 4886POPC   C1A62355  22.953   2.727   6.464
 4886POPC   D2A62356  22.968   2.767   6.764
 4886POPC   C3A62357  22.920   2.738   7.064
 4886POPC   C4A62358  22.928   2.788   7.364
 4886POPC   C1B62359  22.970   2.516   6.464
 4886POPC   C2B62360  22.936   2.560   6.764
 4886POPC   C3B62361  22.955   2.563   7.064
 4886POPC   C4B62362  22.934   2.498   7.364
 4887POPC   NC362363  11.349   3.584   5.564
 4887POPC   PO462364  11.288   3.504   5.864
 4887POPC   GL162365  11.330   3.550   6.164
 4887POPC   GL262366  11.203   3.609   6.164
 4887POPC   C1A62367  11.297   3.530   6.464
 4887POPC   D2A62368  11.344   3.550   6.764
 4887POPC   C3A62369  11.336   3.564   7.064
 4887POPC   C4A62370  11.298   3.500   7.364
 4887POPC   C1B62371  11.177   3.733   6.464
 4887POPC   C2B62372  11.166   3.745   6.764
 4887POPC   C3B62373  11.181   3.728   7.064
 4887POPC   C4B62374  11.163   3.787   7.364
 4888POPC   NC362375  25.240   7.439   5.564
 4888POPC   PO462376  25.255   7.444   5.864
 4888POPC   GL162377  25.315   7.448   6.164
 4888POPC   GL262378  25.183   7.490   6.164
 4888POPC   C1A62379  25.261   7.439   6.464
 4888POPC   D2A62380  25.310   7.395   6.764
 4888POPC   C3A62381  25.221   7.410   7.064
 4888POPC   C4A62382  25.313   7.470   7.364
 4888POPC   C1B62383  25.193   7.597   6.464
 4888POPC   C2B62384  25.168   7.597   6.764
 4888POPC   C3B62385  25.119   7.632   7.064
 4888POPC   C4B62386  25.191   7.627   7.364
 4889POPC   NC362387  19.083   2.741   5.564
 4889POPC   PO462388  19.060   2.803   5.864
 4889POPC   GL162389  19.026   2.802   6.164
 4889POPC   GL262390  19.051   2.669   6.164
 4889POPC   C1A62391  19.047   2.741   6.464
 4889POPC   D2A62392  19.066   2.754   6.764
 4889POPC   C3A62393  19.014   2.751   7.064
 4889POPC   C4A62394  19.047   2.761   7.364
 4889POPC   C1B62395  18.981   2.520   6.464
 4889POPC   C2B62396  19.002   2.514   6.764
 4889POPC   C3B62397  19.056   2.505   7.064
 4889POPC   C4B62398  19.000   2.520   7.364
 4890POPC   NC362399  12.047  14.405   5.564
 4890POPC   PO462400  12.124  14.452   5.864
 4890POPC   GL162401  12.042  14.427   6.164
 4890POPC   GL262402  12.011  14.526   6.164
 4890POPC   C1A62403  12.097  14.365   6.464
 4890POPC   D2A62404  12.075  14.444   6.764
 4890POPC   C3A62405  12.123  14.429   7.064
 4890POPC   C4A62406  12.064  14.364   7.364
 4890POPC   C1B62407  11.942  14.637   6.464
 4890POPC   C2B62408  11.953  14.614   6.764
 4890POPC   C3B62409  11.930  14.606   7.064
 4890POPC   C4B62410  11.895  14.600   7.364
 4891POPC   NC362411  32.243  15.961   5.564
 4891POPC   PO462412  32.215  15.969   5.864
 4891POPC   GL162413  32.226  15.957   6.164
 4891POPC   GL262414  32.387  15.920   6.164
 4891POPC   C1A62415  32.224  15.956   6.464
 4891POPC   D2A62416  32.243  15.965   6.764
 4891POPC   C3A62417  32.242  15.951   7.064
 4891POPC   C4A62418  32.284  15.964   7.364
 4891POPC   C1B62419  32.507  15.974   6.464
 4891POPC   C2B62420  32.514  15.979   6.764
 4891POPC   C3B62421  32.544  15.978   7.064
 4891POPC   C4B62422  32.542  15.981   7.364
 4892POPC   NC362423  18.258  12.070   5.564
 4892POPC   PO462424  18.315  12.117   5.864
 4892POPC   GL162425  18.251  12.041   6.164
 4892POPC   GL262426  18.267  12.173   6.164
 4892POPC   C1A62427  18.268  12.058   6.464
 4892POPC   D2A62428  18.299  12.036   6.764
 4892POPC   C3A62429  18.306  12.050   7.064
 4892POPC   C4A62430  18.258  12.091   7.364
 4892POPC   C1B62431  18.107  12.250   6.464
 4892POPC   C2B62432  18.182  12.293   6.764
 4892POPC   C3B62433  18.134  12.282   7.064
 4892POPC   C4B62434  18.136  12.252   7.364
 4893POPC   NC362435   7.400  26.852   5.564
 4893POPC   PO462436   7.397  26.832   5.864
 4893POPC   GL162437   7.433  26.845   6.164
 4893POPC   GL262438   7.525  26.959   6.164
 4893POPC   C1A62439   7.424  26.863   6.464
 4893POPC   D2A62440   7.402  26.772   6.764
 4893POPC   C3A62441   7.386  26.803   7.064
 4893POPC   C4A62442   7.452  26.780   7.364
 4893POPC   C1B62443   7.581  26.994   6.464
 4893POPC   C2B62444   7.586  27.004   6.764
 4893POPC   C3B62445   7.568  27.012   7.064
 4893POPC   C4B62446   7.559  27.001   7.364
 4894POPC   NC362447  29.959  36.098   5.564
 4894POPC   PO462448  29.930  36.133   5.864
 4894POPC   GL162449  29.873  36.160   6.164
 4894POPC   GL262450  29.840  36.035   6.164
 4894POPC   C1A62451  29.914  36.122   6.464
 4894POPC   D2A62452  29.962  36.127   6.764
 4894POPC   C3A62453  29.963  36.086   7.064
 4894POPC   C4A62454  29.955  36.090   7.364
 4894POPC   C1B62455  29.756  35.960   6.464
 4894POPC   C2B62456  29.838  35.889   6.764
 4894POPC   C3B62457  29.825  35.911   7.064
 4894POPC   C4B62458  29.831  35.881   7.364
 4895POPC   NC362459  31.426   1.183   5.564
 4895POPC   PO462460  31.472   1.212   5.864
 4895POPC   GL162461  31.467   1.243   6.164
 4895POPC   GL262462  31.433   1.365   6.164
 4895POPC   C1A62463  31.423   1.260   6.464
 4895POPC   D2A62464  31.462   1.191   6.764
 4895POPC   C3A62465  31.428   1.259   7.064
 4895POPC   C4A62466  31.463   1.196   7.364
 4895POPC   C1B62467  31.356   1.412   6.464
 4895POPC   C2B62468  31.337   1.432   6.764
 4895POPC   C3B62469  31.334   1.457   7.064
 4895POPC   C4B62470  31.405   1.443   7.364
 4896POPC   NC362471   1.263   8.965   5.564
 4896POPC   PO462472   1.169   8.924   5.864
 4896POPC   GL162473   1.235   8.925   6.164
 4896POPC   GL262474   1.174   9.087   6.164
 4896POPC   C1A62475   1.229   9.013   6.464
 4896POPC   D2A62476   1.186   9.010   6.764
 4896POPC   C3A62477   1.207   8.923   7.064
 4896POPC   C4A62478   1.177   8.964   7.364
 4896POPC   C1B62479   1.086   9.202   6.464
 4896POPC   C2B62480   1.159   9.215   6.764
 4896POPC   C3B62481   1.094   9.161   7.064
 4896POPC   C4B62482   1.136   9.208   7.364
 4897POPC   NC362483   7.438   4.342   5.564
 4897POPC   PO462484   7.447   4.360   5.864
 4897POPC   GL162485   7.461   4.304   6.164
 4897POPC   GL262486   7.368   4.258   6.164
 4897POPC   C1A62487   7.401   4.340   6.464
 4897POPC   D2A62488   7.401   4.343   6.764
 4897POPC   C3A62489   7.436   4.312   7.064
 4897POPC   C4A62490   7.379   4.279   7.364
 4897POPC   C1B62491   7.230   4.175   6.464
 4897POPC   C2B62492   7.197   4.154   6.764
 4897POPC   C3B62493   7.191   4.208   7.064
 4897POPC   C4B62494   7.197   4.154   7.364
 4898POPC   NC362495  35.335  42.300   5.564
 4898POPC   PO462496  35.380  42.363   5.864
 4898POPC   GL162497  35.355  42.363   6.164
 4898POPC   GL262498  35.390  42.453   6.164
 4898POPC   C1A62499  35.367  42.343   6.464
 4898POPC   D2A62500  35.394  42.346   6.764
 4898POPC   C3A62501  35.304  42.345   7.064
 4898POPC   C4A62502  35.357  42.298   7.364
 4898POPC   C1B62503  35.345  42.553   6.464
 4898POPC   C2B62504  35.393  42.587   6.764
 4898POPC   C3B62505  35.323  42.576   7.064
 4898POPC   C4B62506  35.380  42.629   7.364
 4899POPC   NC362507   6.644  12.875   5.564
 4899POPC   PO462508   6.630  12.880   5.864
 4899POPC   GL162509   6.644  12.899   6.164
 4899POPC   GL262510   6.747  12.970   6.164
 4899POPC   C1A62511   6.645  12.874   6.464
 4899POPC   D2A62512   6.624  12.826   6.764
 4899POPC   C3A62513   6.656  12.885   7.064
 4899POPC   C4A62514   6.643  12.895   7.364
 4899POPC   C1B62515   6.840  13.034   6.464
 4899POPC   C2B62516   6.877  12.979   6.764
 4899POPC   C3B62517   6.891  13.034   7.064
 4899POPC   C4B62518   6.800  12.995   7.364
 4900POPC   NC362519   5.854  39.215   5.564
 4900POPC   PO462520   5.856  39.205   5.864
 4900POPC   GL162521   5.891  39.243   6.164
 4900POPC   GL262522   5.867  39.374   6.164
 4900POPC   C1A62523   5.887  39.273   6.464
 4900POPC   D2A62524   5.882  39.211   6.764
 4900POPC   C3A62525   5.864  39.198   7.064
 4900POPC   C4A62526   5.916  39.236   7.364
 4900POPC   C1B62527   5.807  39.429   6.464
 4900POPC   C2B62528   5.787  39.463   6.764
 4900POPC   C3B62529   5.837  39.456   7.064
 4900POPC   C4B62530   5.831  39.491   7.364
 4901POPC   NC362531  27.608   0.474   5.564
 4901POPC   PO462532  27.587   0.479   5.864
 4901POPC   GL162533  27.616   0.477   6.164
 4901POPC   GL262534  27.607   0.540   6.164
 4901POPC   C1A62535  27.578   0.407   6.464
 4901POPC   D2A62536  27.604   0.463   6.764
 4901POPC   C3A62537  27.641   0.415   7.064
 4901POPC   C4A62538  27.558   0.430   7.364
 4901POPC   C1B62539  27.517   0.727   6.464
 4901POPC   C2B62540  27.520   0.724   6.764
 4901POPC   C3B62541  27.567   0.641   7.064
 4901POPC   C4B62542  27.516   0.720   7.364
 4902POPC   NC362543  32.290  33.039   5.564
 4902POPC   PO462544  32.231  33.038   5.864
 4902POPC   GL162545  32.271  33.049   6.164
 4902POPC   GL262546  32.150  33.071   6.164
 4902POPC   C1A62547  32.253  33.011   6.464
 4902POPC   D2A62548  32.260  33.062   6.764
 4902POPC   C3A62549  32.233  33.024   7.064
 4902POPC   C4A62550  32.212  33.068   7.364
 4902POPC   C1B62551  32.044  33.262   6.464
 4902POPC   C2B62552  32.071  33.193   6.764
 4902POPC   C3B62553  32.070  33.190   7.064
 4902POPC   C4B62554  32.128  33.175   7.364
 4903POPC   NC362555  39.239  37.728   5.564
 4903POPC   PO462556  39.199  37.673   5.864
 4903POPC   GL162557  39.252  37.695   6.164
 4903POPC   GL262558  39.358  37.579   6.164
 4903POPC   C1A62559  39.258  37.671   6.464
 4903POPC   D2A62560  39.265  37.695   6.764
 4903POPC   C3A62561  39.249  37.639   7.064
 4903POPC   C4A62562  39.230  37.639   7.364
 4903POPC   C1B62563  39.411  37.575   6.464
 4903POPC   C2B62564  39.437  37.567   6.764
 4903POPC   C3B62565  39.490  37.523   7.064
 4903POPC   C4B62566  39.426  37.584   7.364
 4904POPC   NC362567  43.885   2.013   5.564
 4904POPC   PO462568  43.926   1.955   5.864
 4904POPC   GL162569  43.895   2.018   6.164
 4904POPC   GL262570  43.778   2.107   6.164
 4904POPC   C1A62571  43.838   2.014   6.464
 4904POPC   D2A62572  43.848   2.025   6.764
 4904POPC   C3A62573  43.898   2.026   7.064
 4904POPC   C4A62574  43.929   1.948   7.364
 4904POPC   C1B62575  43.746   2.229   6.464
 4904POPC   C2B62576  43.746   2.220   6.764
 4904POPC   C3B62577  43.746   2.226   7.064
 4904POPC   C4B62578  43.749   2.218   7.364
 4905POPC   NC362579   2.797  36.096   5.564
 4905POPC   PO462580   2.813  36.175   5.864
 4905POPC   GL162581   2.726  36.122   6.164
 4905POPC   GL262582   2.727  36.076   6.164
 4905POPC   C1A62583   2.733  36.133   6.464
 4905POPC   D2A62584   2.732  36.135   6.764
 4905POPC   C3A62585   2.719  36.161   7.064
 4905POPC   C4A62586   2.729  36.108   7.364
 4905POPC   C1B62587   2.656  35.911   6.464
 4905POPC   C2B62588   2.614  35.951   6.764
 4905POPC   C3B62589   2.594  35.962   7.064
 4905POPC   C4B62590   2.577  35.881   7.364
 4906POPC   NC362591  13.642  43.109   5.564
 4906POPC   PO462592  13.599  43.148   5.864
 4906POPC   GL162593  13.604  43.089   6.164
 4906POPC   GL262594  13.632  43.022   6.164
 4906POPC   C1A62595  13.611  43.091   6.464
 4906POPC   D2A62596  13.632  43.101   6.764
 4906POPC   C3A62597  13.664  43.158   7.064
 4906POPC   C4A62598  13.668  43.124   7.364
 4906POPC   C1B62599  13.590  42.867   6.464
 4906POPC   C2B62600  13.630  42.870   6.764
 4906POPC   C3B62601  13.643  42.834   7.064
 4906POPC   C4B62602  13.580  42.815   7.364
 4907POPC   NC362603  23.728  32.254   5.564
 4907POPC   PO462604  23.737  32.247   5.864
 4907POPC   GL162605  23.755  32.260   6.164
 4907POPC   GL262606  23.783  32.121   6.164
 4907POPC   C1A62607  23.730  32.246   6.464
 4907POPC   D2A62608  23.744  32.264   6.764
 4907POPC   C3A62609  23.754  32.252   7.064
 4907POPC   C4A62610  23.724  32.246   7.364
 4907POPC   C1B62611  23.882  32.022   6.464
 4907POPC   C2B62612  23.856  32.038   6.764
 4907POPC   C3B62613  23.886  32.094   7.064
 4907POPC   C4B62614  23.831  32.079   7.364
 4908POPC   NC362615  36.122  26.851   5.564
 4908POPC   PO462616  36.133  26.792   5.864
 4908POPC   GL162617  36.118  26.774   6.164
 4908POPC   GL262618  36.200  26.694   6.164
 4908POPC   C1A62619  36.108  26.864   6.464
 4908POPC   D2A62620  36.091  26.784   6.764
 4908POPC   C3A62621  36.158  26.818   7.064
 4908POPC   C4A62622  36.123  26.848   7.364
 4908POPC   C1B62623  36.213  26.596   6.464
 4908POPC   C2B62624  36.249  26.565   6.764
 4908POPC   C3B62625  36.164  26.604   7.064
 4908POPC   C4B62626  36.204  26.574   7.364
 4909POPC   NC362627  11.339  12.899   5.564
 4909POPC   PO462628  11.311  12.802   5.864
 4909POPC   GL162629  11.303  12.843   6.164
 4909POPC   GL262630  11.243  12.714   6.164
 4909POPC   C1A62631  11.319  12.831   6.464
 4909POPC   D2A62632  11.306  12.808   6.764
 4909POPC   C3A62633  11.340  12.826   7.064
 4909POPC   C4A62634  11.322  12.886   7.364
 4909POPC   C1B62635  11.296  12.563   6.464
 4909POPC   C2B62636  11.308  12.600   6.764
 4909POPC   C3B62637  11.245  12.603   7.064
 4909POPC   C4B62638  11.229  12.599   7.364
 4910POPC   NC362639  36.915  38.435   5.564
 4910POPC   PO462640  36.886  38.464   5.864
 4910POPC   GL162641  36.948  38.435   6.164
 4910POPC   GL262642  36.806  38.493   6.164
 4910POPC   C1A62643  36.935  38.489   6.464
 4910POPC   D2A62644  36.931  38.491   6.764
 4910POPC   C3A62645  36.941  38.482   7.064
 4910POPC   C4A62646  36.928  38.472   7.364
 4910POPC   C1B62647  36.724  38.590   6.464
 4910POPC   C2B62648  36.670  38.552   6.764
 4910POPC   C3B62649  36.709  38.555   7.064
 4910POPC   C4B62650  36.640  38.569   7.364
 4911POPC   NC362651  15.199  27.617   5.564
 4911POPC   PO462652  15.198  27.545   5.864
 4911POPC   GL162653  15.150  27.612   6.164
 4911POPC   GL262654  15.121  27.491   6.164
 4911POPC   C1A62655  15.148  27.619   6.464
 4911POPC   D2A62656  15.176  27.564   6.764
 4911POPC   C3A62657  15.205  27.598   7.064
 4911POPC   C4A62658  15.198  27.550   7.364
 4911POPC   C1B62659  15.058  27.388   6.464
 4911POPC   C2B62660  15.076  27.394   6.764
 4911POPC   C3B62661  15.071  27.335   7.064
 4911POPC   C4B62662  15.088  27.426   7.364
 4912POPC   NC362663  33.065   7.404   5.564
 4912POPC   PO462664  33.039   7.443   5.864
 4912POPC   GL162665  33.056   7.415   6.164
 4912POPC   GL262666  33.082   7.543   6.164
 4912POPC   C1A62667  33.058   7.400   6.464
 4912POPC   D2A62668  32.998   7.456   6.764
 4912POPC   C3A62669  33.031   7.396   7.064
 4912POPC   C4A62670  33.034   7.454   7.364
 4912POPC   C1B62671  33.225   7.631   6.464
 4912POPC   C2B62672  33.141   7.591   6.764
 4912POPC   C3B62673  33.174   7.656   7.064
 4912POPC   C4B62674  33.193   7.575   7.364
 4913POPC   NC362675  37.689  26.862   5.564
 4913POPC   PO462676  37.667  26.839   5.864
 4913POPC   GL162677  37.640  26.768   6.164
 4913POPC   GL262678  37.760  26.931   6.164
 4913POPC   C1A62679  37.640  26.863   6.464
 4913POPC   D2A62680  37.647  26.865   6.764
 4913POPC   C3A62681  37.667  26.795   7.064
 4913POPC   C4A62682  37.652  26.799   7.364
 4913POPC   C1B62683  37.821  27.000   6.464
 4913POPC   C2B62684  37.792  27.060   6.764
 4913POPC   C3B62685  37.778  26.996   7.064
 4913POPC   C4B62686  37.796  27.062   7.364
 4914POPC   NC362687  42.338  32.289   5.564
 4914POPC   PO462688  42.297  32.216   5.864
 4914POPC   GL162689  42.366  32.204   6.164
 4914POPC   GL262690  42.438  32.212   6.164
 4914POPC   C1A62691  42.370  32.293   6.464
 4914POPC   D2A62692  42.306  32.262   6.764
 4914POPC   C3A62693  42.302  32.296   7.064
 4914POPC   C4A62694  42.333  32.242   7.364
 4914POPC   C1B62695  42.576  32.225   6.464
 4914POPC   C2B62696  42.633  32.193   6.764
 4914POPC   C3B62697  42.575  32.248   7.064
 4914POPC   C4B62698  42.572  32.213   7.364
 4915POPC   NC362699   8.950  20.618   5.564
 4915POPC   PO462700   8.953  20.647   5.864
 4915POPC   GL162701   8.926  20.565   6.164
 4915POPC   GL262702   8.880  20.466   6.164
 4915POPC   C1A62703   9.008  20.635   6.464
 4915POPC   D2A62704   8.943  20.609   6.764
 4915POPC   C3A62705   8.995  20.627   7.064
 4915POPC   C4A62706   8.950  20.581   7.364
 4915POPC   C1B62707   8.867  20.386   6.464
 4915POPC   C2B62708   8.852  20.408   6.764
 4915POPC   C3B62709   8.879  20.378   7.064
 4915POPC   C4B62710   8.900  20.336   7.364
 4916POPC   NC362711  12.120   2.716   5.564
 4916POPC   PO462712  12.049   2.787   5.864
 4916POPC   GL162713  12.033   2.795   6.164
 4916POPC   GL262714  12.003   2.805   6.164
 4916POPC   C1A62715  12.093   2.814   6.464
 4916POPC   D2A62716  12.043   2.727   6.764
 4916POPC   C3A62717  12.067   2.775   7.064
 4916POPC   C4A62718  12.098   2.726   7.364
 4916POPC   C1B62719  11.933   2.930   6.464
 4916POPC   C2B62720  11.931   2.988   6.764
 4916POPC   C3B62721  11.871   2.984   7.064
 4916POPC   C4B62722  11.903   2.909   7.364
 4917POPC   NC362723  19.016  19.102   5.564
 4917POPC   PO462724  19.087  19.105   5.864
 4917POPC   GL162725  19.029  19.042   6.164
 4917POPC   GL262726  18.951  19.052   6.164
 4917POPC   C1A62727  19.026  19.045   6.464
 4917POPC   D2A62728  19.021  19.096   6.764
 4917POPC   C3A62729  19.028  19.014   7.064
 4917POPC   C4A62730  19.011  19.047   7.364
 4917POPC   C1B62731  18.763  19.079   6.464
 4917POPC   C2B62732  18.798  19.003   6.764
 4917POPC   C3B62733  18.810  19.021   7.064
 4917POPC   C4B62734  18.774  19.027   7.364
 4918POPC   NC362735   0.477  29.108   5.564
 4918POPC   PO462736   0.415  29.167   5.864
 4918POPC   GL162737   0.474  29.178   6.164
 4918POPC   GL262738   0.464  29.018   6.164
 4918POPC   C1A62739   0.400  29.194   6.464
 4918POPC   D2A62740   0.480  29.174   6.764
 4918POPC   C3A62741   0.424  29.160   7.064
 4918POPC   C4A62742   0.406  29.178   7.364
 4918POPC   C1B62743   0.583  28.922   6.464
 4918POPC   C2B62744   0.589  28.877   6.764
 4918POPC   C3B62745   0.584  28.933   7.064
 4918POPC   C4B62746   0.556  28.887   7.364
 4919POPC   NC362747   6.670  41.543   5.564
 4919POPC   PO462748   6.651  41.562   5.864
 4919POPC   GL162749   6.665  41.598   6.164
 4919POPC   GL262750   6.491  41.535   6.164
 4919POPC   C1A62751   6.602  41.590   6.464
 4919POPC   D2A62752   6.622  41.569   6.764
 4919POPC   C3A62753   6.676  41.596   7.064
 4919POPC   C4A62754   6.629  41.585   7.364
 4919POPC   C1B62755   6.386  41.504   6.464
 4919POPC   C2B62756   6.445  41.524   6.764
 4919POPC   C3B62757   6.363  41.442   7.064
 4919POPC   C4B62758   6.381  41.526   7.364
 4920POPC   NC362759  20.576   4.296   5.564
 4920POPC   PO462760  20.643   4.330   5.864
 4920POPC   GL162761  20.627   4.276   6.164
 4920POPC   GL262762  20.495   4.460   6.164
 4920POPC   C1A62763  20.621   4.269   6.464
 4920POPC   D2A62764  20.603   4.271   6.764
 4920POPC   C3A62765  20.591   4.349   7.064
 4920POPC   C4A62766  20.610   4.348   7.364
 4920POPC   C1B62767  20.495   4.554   6.464
 4920POPC   C2B62768  20.430   4.483   6.764
 4920POPC   C3B62769  20.488   4.520   7.064
 4920POPC   C4B62770  20.428   4.501   7.364
 4921POPC   NC362771  12.041  37.646   5.564
 4921POPC   PO462772  12.064  37.632   5.864
 4921POPC   GL162773  12.033  37.702   6.164
 4921POPC   GL262774  12.218  37.753   6.164
 4921POPC   C1A62775  12.106  37.717   6.464
 4921POPC   D2A62776  12.032  37.703   6.764
 4921POPC   C3A62777  12.030  37.701   7.064
 4921POPC   C4A62778  12.081  37.727   7.364
 4921POPC   C1B62779  12.334  37.798   6.464
 4921POPC   C2B62780  12.343  37.746   6.764
 4921POPC   C3B62781  12.271  37.764   7.064
 4921POPC   C4B62782  12.335  37.738   7.364
 4922POPC   NC362783  16.720  37.714   5.564
 4922POPC   PO462784  16.701  37.637   5.864
 4922POPC   GL162785  16.744  37.631   6.164
 4922POPC   GL262786  16.819  37.672   6.164
 4922POPC   C1A62787  16.776  37.725   6.464
 4922POPC   D2A62788  16.693  37.717   6.764
 4922POPC   C3A62789  16.779  37.678   7.064
 4922POPC   C4A62790  16.760  37.729   7.364
 4922POPC   C1B62791  16.990  37.606   6.464
 4922POPC   C2B62792  16.945  37.623   6.764
 4922POPC   C3B62793  16.961  37.686   7.064
 4922POPC   C4B62794  17.016  37.649   7.364
 4923POPC   NC362795  22.137  38.455   5.564
 4923POPC   PO462796  22.189  38.431   5.864
 4923POPC   GL162797  22.135  38.449   6.164
 4923POPC   GL262798  22.238  38.418   6.164
 4923POPC   C1A62799  22.171  38.468   6.464
 4923POPC   D2A62800  22.130  38.484   6.764
 4923POPC   C3A62801  22.212  38.408   7.064
 4923POPC   C4A62802  22.145  38.496   7.364
 4923POPC   C1B62803  22.446  38.416   6.464
 4923POPC   C2B62804  22.409  38.350   6.764
 4923POPC   C3B62805  22.352  38.422   7.064
 4923POPC   C4B62806  22.439  38.424   7.364
 4924POPC   NC362807  18.266   2.772   5.564
 4924POPC   PO462808  18.303   2.727   5.864
 4924POPC   GL162809  18.279   2.769   6.164
 4924POPC   GL262810  18.174   2.641   6.164
 4924POPC   C1A62811  18.280   2.775   6.464
 4924POPC   D2A62812  18.332   2.727   6.764
 4924POPC   C3A62813  18.325   2.780   7.064
 4924POPC   C4A62814  18.290   2.815   7.364
 4924POPC   C1B62815  18.199   2.564   6.464
 4924POPC   C2B62816  18.198   2.553   6.764
 4924POPC   C3B62817  18.175   2.567   7.064
 4924POPC   C4B62818  18.143   2.500   7.364
 4925POPC   NC362819  42.365  35.320   5.564
 4925POPC   PO462820  42.326  35.366   5.864
 4925POPC   GL162821  42.312  35.307   6.164
 4925POPC   GL262822  42.248  35.344   6.164
 4925POPC   C1A62823  42.371  35.324   6.464
 4925POPC   D2A62824  42.334  35.324   6.764
 4925POPC   C3A62825  42.286  35.313   7.064
 4925POPC   C4A62826  42.344  35.339   7.364
 4925POPC   C1B62827  42.132  35.291   6.464
 4925POPC   C2B62828  42.129  35.275   6.764
 4925POPC   C3B62829  42.058  35.273   7.064
 4925POPC   C4B62830  42.091  35.312   7.364
 4926POPC   NC362831   8.992  26.782   5.564
 4926POPC   PO462832   9.001  26.769   5.864
 4926POPC   GL162833   8.951  26.822   6.164
 4926POPC   GL262834   8.831  26.782   6.164
 4926POPC   C1A62835   8.923  26.768   6.464
 4926POPC   D2A62836   9.016  26.785   6.764
 4926POPC   C3A62837   8.965  26.858   7.064
 4926POPC   C4A62838   8.976  26.801   7.364
 4926POPC   C1B62839   8.765  26.780   6.464
 4926POPC   C2B62840   8.691  26.775   6.764
 4926POPC   C3B62841   8.726  26.819   7.064
 4926POPC   C4B62842   8.687  26.851   7.364
 4927POPC   NC362843  41.573   0.466   5.564
 4927POPC   PO462844  41.598   0.445   5.864
 4927POPC   GL162845  41.516   0.473   6.164
 4927POPC   GL262846  41.472   0.375   6.164
 4927POPC   C1A62847  41.578   0.480   6.464
 4927POPC   D2A62848  41.581   0.453   6.764
 4927POPC   C3A62849  41.592   0.398   7.064
 4927POPC   C4A62850  41.528   0.455   7.364
 4927POPC   C1B62851  41.374   0.386   6.464
 4927POPC   C2B62852  41.287   0.313   6.764
 4927POPC   C3B62853  41.378   0.317   7.064
 4927POPC   C4B62854  41.308   0.335   7.364
 4928POPC   NC362855  11.261  33.795   5.564
 4928POPC   PO462856  11.316  33.837   5.864
 4928POPC   GL162857  11.276  33.842   6.164
 4928POPC   GL262858  11.196  33.803   6.164
 4928POPC   C1A62859  11.272  33.842   6.464
 4928POPC   D2A62860  11.327  33.772   6.764
 4928POPC   C3A62861  11.334  33.775   7.064
 4928POPC   C4A62862  11.331  33.845   7.364
 4928POPC   C1B62863  11.087  33.780   6.464
 4928POPC   C2B62864  11.004  33.821   6.764
 4928POPC   C3B62865  11.036  33.830   7.064
 4928POPC   C4B62866  11.059  33.764   7.364
 4929POPC   NC362867  11.288  33.004   5.564
 4929POPC   PO462868  11.297  33.056   5.864
 4929POPC   GL162869  11.330  33.069   6.164
 4929POPC   GL262870  11.386  32.968   6.164
 4929POPC   C1A62871  11.292  33.028   6.464
 4929POPC   D2A62872  11.296  33.035   6.764
 4929POPC   C3A62873  11.279  33.048   7.064
 4929POPC   C4A62874  11.325  33.073   7.364
 4929POPC   C1B62875  11.442  32.798   6.464
 4929POPC   C2B62876  11.467  32.830   6.764
 4929POPC   C3B62877  11.479  32.830   7.064
 4929POPC   C4B62878  11.401  32.774   7.364
 4930POPC   NC362879   9.000   3.565   5.564
 4930POPC   PO462880   8.983   3.565   5.864
 4930POPC   GL162881   8.998   3.556   6.164
 4930POPC   GL262882   8.809   3.550   6.164
 4930POPC   C1A62883   8.987   3.510   6.464
 4930POPC   D2A62884   8.959   3.539   6.764
 4930POPC   C3A62885   9.005   3.514   7.064
 4930POPC   C4A62886   8.994   3.535   7.364
 4930POPC   C1B62887   8.693   3.519   6.464
 4930POPC   C2B62888   8.677   3.540   6.764
 4930POPC   C3B62889   8.704   3.513   7.064
 4930POPC   C4B62890   8.744   3.486   7.364
 4931POPC   NC362891  38.439  24.508   5.564
 4931POPC   PO462892  38.485  24.466   5.864
 4931POPC   GL162893  38.432  24.449   6.164
 4931POPC   GL262894  38.532  24.585   6.164
 4931POPC   C1A62895  38.411  24.508   6.464
 4931POPC   D2A62896  38.418  24.441   6.764
 4931POPC   C3A62897  38.425  24.495   7.064
 4931POPC   C4A62898  38.432  24.483   7.364
 4931POPC   C1B62899  38.521  24.725   6.464
 4931POPC   C2B62900  38.498  24.722   6.764
 4931POPC   C3B62901  38.505  24.731   7.064
 4931POPC   C4B62902  38.560  24.743   7.364
 4932POPC   NC362903  24.540  28.363   5.564
 4932POPC   PO462904  24.513  28.334   5.864
 4932POPC   GL162905  24.499  28.406   6.164
 4932POPC   GL262906  24.353  28.352   6.164
 4932POPC   C1A62907  24.496  28.353   6.464
 4932POPC   D2A62908  24.457  28.371   6.764
 4932POPC   C3A62909  24.477  28.390   7.064
 4932POPC   C4A62910  24.480  28.405   7.364
 4932POPC   C1B62911  24.209  28.428   6.464
 4932POPC   C2B62912  24.194  28.429   6.764
 4932POPC   C3B62913  24.270  28.412   7.064
 4932POPC   C4B62914  24.255  28.405   7.364
 4933POPC   NC362915   7.470  20.630   5.564
 4933POPC   PO462916   7.443  20.627   5.864
 4933POPC   GL162917   7.437  20.569   6.164
 4933POPC   GL262918   7.425  20.752   6.164
 4933POPC   C1A62919   7.403  20.623   6.464
 4933POPC   D2A62920   7.462  20.576   6.764
 4933POPC   C3A62921   7.372  20.597   7.064
 4933POPC   C4A62922   7.380  20.651   7.364
 4933POPC   C1B62923   7.361  20.867   6.464
 4933POPC   C2B62924   7.336  20.905   6.764
 4933POPC   C3B62925   7.331  20.904   7.064
 4933POPC   C4B62926   7.356  20.885   7.364
 4934POPC   NC362927   6.600  40.735   5.564
 4934POPC   PO462928   6.598  40.803   5.864
 4934POPC   GL162929   6.641  40.738   6.164
 4934POPC   GL262930   6.632  40.682   6.164
 4934POPC   C1A62931   6.630  40.764   6.464
 4934POPC   D2A62932   6.654  40.832   6.764
 4934POPC   C3A62933   6.642  40.746   7.064
 4934POPC   C4A62934   6.611  40.792   7.364
 4934POPC   C1B62935   6.543  40.530   6.464
 4934POPC   C2B62936   6.578  40.536   6.764
 4934POPC   C3B62937   6.530  40.548   7.064
 4934POPC   C4B62938   6.554  40.583   7.364
 4935POPC   NC362939  27.599  43.124   5.564
 4935POPC   PO462940  27.623  43.102   5.864
 4935POPC   GL162941  27.597  43.082   6.164
 4935POPC   GL262942  27.678  43.074   6.164
 4935POPC   C1A62943  27.558  43.120   6.464
 4935POPC   D2A62944  27.615  43.083   6.764
 4935POPC   C3A62945  27.610  43.151   7.064
 4935POPC   C4A62946  27.557  43.151   7.364
 4935POPC   C1B62947  27.829  43.105   6.464
 4935POPC   C2B62948  27.878  43.018   6.764
 4935POPC   C3B62949  27.848  43.062   7.064
 4935POPC   C4B62950  27.802  43.104   7.364
 4936POPC   NC362951  34.537   9.720   5.564
 4936POPC   PO462952  34.556   9.742   5.864
 4936POPC   GL162953  34.581   9.764   6.164
 4936POPC   GL262954  34.540   9.847   6.164
 4936POPC   C1A62955  34.606   9.703   6.464
 4936POPC   D2A62956  34.621   9.773   6.764
 4936POPC   C3A62957  34.577   9.779   7.064
 4936POPC   C4A62958  34.576   9.729   7.364
 4936POPC   C1B62959  34.462   9.979   6.464
 4936POPC   C2B62960  34.449   9.979   6.764
 4936POPC   C3B62961  34.459   9.994   7.064
 4936POPC   C4B62962  34.502   9.952   7.364
 4937POPC   NC362963  41.598  41.525   5.564
 4937POPC   PO462964  41.570  41.561   5.864
 4937POPC   GL162965  41.555  41.573   6.164
 4937POPC   GL262966  41.675  41.488   6.164
 4937POPC   C1A62967  41.526  41.534   6.464
 4937POPC   D2A62968  41.538  41.528   6.764
 4937POPC   C3A62969  41.569  41.590   7.064
 4937POPC   C4A62970  41.523  41.555   7.364
 4937POPC   C1B62971  41.675  41.346   6.464
 4937POPC   C2B62972  41.736  41.324   6.764
 4937POPC   C3B62973  41.739  41.410   7.064
 4937POPC   C4B62974  41.669  41.331   7.364
 4938POPC   NC362975  16.736  30.650   5.564
 4938POPC   PO462976  16.759  30.726   5.864
 4938POPC   GL162977  16.696  30.687   6.164
 4938POPC   GL262978  16.640  30.766   6.164
 4938POPC   C1A62979  16.683  30.704   6.464
 4938POPC   D2A62980  16.683  30.728   6.764
 4938POPC   C3A62981  16.749  30.699   7.064
 4938POPC   C4A62982  16.736  30.701   7.364
 4938POPC   C1B62983  16.617  30.907   6.464
 4938POPC   C2B62984  16.611  30.897   6.764
 4938POPC   C3B62985  16.582  30.923   7.064
 4938POPC   C4B62986  16.571  30.915   7.364
 4939POPC   NC362987  17.481  26.057   5.564
 4939POPC   PO462988  17.546  26.052   5.864
 4939POPC   GL162989  17.554  26.027   6.164
 4939POPC   GL262990  17.358  26.118   6.164
 4939POPC   C1A62991  17.545  26.036   6.464
 4939POPC   D2A62992  17.524  26.057   6.764
 4939POPC   C3A62993  17.543  26.053   7.064
 4939POPC   C4A62994  17.480  26.030   7.364
 4939POPC   C1B62995  17.321  26.130   6.464
 4939POPC   C2B62996  17.271  26.156   6.764
 4939POPC   C3B62997  17.314  26.147   7.064
 4939POPC   C4B62998  17.273  26.139   7.364
 4940POPC   NC362999  44.641  22.180   5.564
 4940POPC   PO463000  44.619  22.162   5.864
 4940POPC   GL163001  44.662  22.191   6.164
 4940POPC   GL263002  44.712  22.084   6.164
 4940POPC   C1A63003  44.693  22.162   6.464
 4940POPC   D2A63004  44.700  22.210   6.764
 4940POPC   C3A63005  44.673  22.189   7.064
 4940POPC   C4A63006  44.637  22.203   7.364
 4940POPC   C1B63007  44.699  21.880   6.464
 4940POPC   C2B63008  44.686  21.963   6.764
 4940POPC   C3B63009  44.740  21.896   7.064
 4940POPC   C4B63010  44.699  21.900   7.364
 4941POPC   NC363011  31.497  13.632   5.564
 4941POPC   PO463012  31.506  13.650   5.864
 4941POPC   GL163013  31.453  13.622   6.164
 4941POPC   GL263014  31.538  13.531   6.164
 4941POPC   C1A63015  31.507  13.620   6.464
 4941POPC   D2A63016  31.489  13.618   6.764
 4941POPC   C3A63017  31.490  13.677   7.064
 4941POPC   C4A63018  31.430  13.588   7.364
 4941POPC   C1B63019  31.557  13.354   6.464
 4941POPC   C2B63020  31.506  13.341   6.764
 4941POPC   C3B63021  31.475  13.333   7.064
 4941POPC   C4B63022  31.486  13.333   7.364
 4942POPC   NC363023  42.347   7.424   5.564
 4942POPC   PO463024  42.316   7.415   5.864
 4942POPC   GL163025  42.327   7.390   6.164
 4942POPC   GL263026  42.498   7.349   6.164
 4942POPC   C1A63027  42.360   7.409   6.464
 4942POPC   D2A63028  42.378   7.374   6.764
 4942POPC   C3A63029  42.365   7.387   7.064
 4942POPC   C4A63030  42.337   7.380   7.364
 4942POPC   C1B63031  42.608   7.318   6.464
 4942POPC   C2B63032  42.598   7.356   6.764
 4942POPC   C3B63033  42.592   7.352   7.064
 4942POPC   C4B63034  42.565   7.350   7.364
 4943POPC   NC363035  19.031   5.074   5.564
 4943POPC   PO463036  19.046   5.068   5.864
 4943POPC   GL163037  19.067   5.113   6.164
 4943POPC   GL263038  18.978   4.978   6.164
 4943POPC   C1A63039  19.097   5.106   6.464
 4943POPC   D2A63040  19.091   5.056   6.764
 4943POPC   C3A63041  19.035   5.074   7.064
 4943POPC   C4A63042  19.011   5.068   7.364
 4943POPC   C1B63043  18.927   4.907   6.464
 4943POPC   C2B63044  18.856   4.938   6.764
 4943POPC   C3B63045  18.864   4.873   7.064
 4943POPC   C4B63046  18.871   4.904   7.364
 4944POPC   NC363047  17.547  28.325   5.564
 4944POPC   PO463048  17.547  28.380   5.864
 4944POPC   GL163049  17.535  28.332   6.164
 4944POPC   GL263050  17.566  28.261   6.164
 4944POPC   C1A63051  17.525  28.364   6.464
 4944POPC   D2A63052  17.481  28.359   6.764
 4944POPC   C3A63053  17.491  28.346   7.064
 4944POPC   C4A63054  17.461  28.418   7.364
 4944POPC   C1B63055  17.676  28.160   6.464
 4944POPC   C2B63056  17.677  28.186   6.764
 4944POPC   C3B63057  17.670  28.243   7.064
 4944POPC   C4B63058  17.691  28.187   7.364
 4945POPC   NC363059   3.516  17.486   5.564
 4945POPC   PO463060   3.532  17.517   5.864
 4945POPC   GL163061   3.502  17.495   6.164
 4945POPC   GL263062   3.427  17.468   6.164
 4945POPC   C1A63063   3.588  17.508   6.464
 4945POPC   D2A63064   3.569  17.499   6.764
 4945POPC   C3A63065   3.512  17.470   7.064
 4945POPC   C4A63066   3.495  17.503   7.364
 4945POPC   C1B63067   3.346  17.400   6.464
 4945POPC   C2B63068   3.334  17.342   6.764
 4945POPC   C3B63069   3.377  17.363   7.064
 4945POPC   C4B63070   3.333  17.404   7.364
 4946POPC   NC363071  40.777   1.165   5.564
 4946POPC   PO463072  40.736   1.240   5.864
 4946POPC   GL163073  40.784   1.208   6.164
 4946POPC   GL263074  40.682   1.138   6.164
 4946POPC   C1A63075  40.789   1.244   6.464
 4946POPC   D2A63076  40.796   1.194   6.764
 4946POPC   C3A63077  40.828   1.192   7.064
 4946POPC   C4A63078  40.832   1.202   7.364
 4946POPC   C1B63079  40.577   1.142   6.464
 4946POPC   C2B63080  40.520   1.163   6.764
 4946POPC   C3B63081  40.575   1.098   7.064
 4946POPC   C4B63082  40.533   1.139   7.364
 4947POPC   NC363083  29.930  28.379   5.564
 4947POPC   PO463084  29.952  28.366   5.864
 4947POPC   GL163085  29.905  28.412   6.164
 4947POPC   GL263086  29.908  28.235   6.164
 4947POPC   C1A63087  29.900  28.398   6.464
 4947POPC   D2A63088  29.965  28.362   6.764
 4947POPC   C3A63089  29.905  28.404   7.064
 4947POPC   C4A63090  29.897  28.333   7.364
 4947POPC   C1B63091  29.827  28.140   6.464
 4947POPC   C2B63092  29.855  28.163   6.764
 4947POPC   C3B63093  29.840  28.177   7.064
 4947POPC   C4B63094  29.803  28.182   7.364
 4948POPC   NC363095  16.730  27.602   5.564
 4948POPC   PO463096  16.692  27.593   5.864
 4948POPC   GL163097  16.746  27.626   6.164
 4948POPC   GL263098  16.663  27.750   6.164
 4948POPC   C1A63099  16.751  27.627   6.464
 4948POPC   D2A63100  16.753  27.623   6.764
 4948POPC   C3A63101  16.725  27.577   7.064
 4948POPC   C4A63102  16.689  27.590   7.364
 4948POPC   C1B63103  16.627  27.789   6.464
 4948POPC   C2B63104  16.677  27.810   6.764
 4948POPC   C3B63105  16.679  27.874   7.064
 4948POPC   C4B63106  16.669  27.842   7.364
 4949POPC   NC363107  29.959  40.801   5.564
 4949POPC   PO463108  29.876  40.801   5.864
 4949POPC   GL163109  29.967  40.827   6.164
 4949POPC   GL263110  30.071  40.880   6.164
 4949POPC   C1A63111  29.952  40.757   6.464
 4949POPC   D2A63112  29.913  40.741   6.764
 4949POPC   C3A63113  29.949  40.767   7.064
 4949POPC   C4A63114  29.892  40.831   7.364
 4949POPC   C1B63115  30.106  40.872   6.464
 4949POPC   C2B63116  30.134  40.899   6.764
 4949POPC   C3B63117  30.189  40.884   7.064
 4949POPC   C4B63118  30.186  40.908   7.364
 4950POPC   NC363119   1.166  13.676   5.564
 4950POPC   PO463120   1.170  13.644   5.864
 4950POPC   GL163121   1.262  13.587   6.164
 4950POPC   GL263122   1.211  13.732   6.164
 4950POPC   C1A63123   1.250  13.614   6.464
 4950POPC   D2A63124   1.202  13.587   6.764
 4950POPC   C3A63125   1.221  13.608   7.064
 4950POPC   C4A63126   1.165  13.649   7.364
 4950POPC   C1B63127   1.237  13.877   6.464
 4950POPC   C2B63128   1.240  13.836   6.764
 4950POPC   C3B63129   1.292  13.893   7.064
 4950POPC   C4B63130   1.216  13.841   7.364
 4951POPC   NC363131  30.743  31.509   5.564
 4951POPC   PO463132  30.660  31.431   5.864
 4951POPC   GL163133  30.721  31.470   6.164
 4951POPC   GL263134  30.852  31.424   6.164
 4951POPC   C1A63135  30.737  31.434   6.464
 4951POPC   D2A63136  30.736  31.516   6.764
 4951POPC   C3A63137  30.725  31.499   7.064
 4951POPC   C4A63138  30.662  31.437   7.364
 4951POPC   C1B63139  30.985  31.466   6.464
 4951POPC   C2B63140  30.976  31.392   6.764
 4951POPC   C3B63141  30.898  31.415   7.064
 4951POPC   C4B63142  30.968  31.417   7.364
 4952POPC   NC363143   5.887  33.070   5.564
 4952POPC   PO463144   5.884  33.021   5.864
 4952POPC   GL163145   5.905  33.050   6.164
 4952POPC   GL263146   5.986  33.109   6.164
 4952POPC   C1A63147   5.835  33.050   6.464
 4952POPC   D2A63148   5.861  33.074   6.764
 4952POPC   C3A63149   5.839  32.978   7.064
 4952POPC   C4A63150   5.886  33.016   7.364
 4952POPC   C1B63151   5.975  33.227   6.464
 4952POPC   C2B63152   5.995  33.237   6.764
 4952POPC   C3B63153   6.004  33.235   7.064
 4952POPC   C4B63154   6.061  33.264   7.364
 4953POPC   NC363155  43.112  25.295   5.564
 4953POPC   PO463156  43.109  25.269   5.864
 4953POPC   GL163157  43.142  25.243   6.164
 4953POPC   GL263158  42.966  25.274   6.164
 4953POPC   C1A63159  43.086  25.257   6.464
 4953POPC   D2A63160  43.102  25.244   6.764
 4953POPC   C3A63161  43.147  25.301   7.064
 4953POPC   C4A63162  43.097  25.278   7.364
 4953POPC   C1B63163  42.893  25.365   6.464
 4953POPC   C2B63164  42.849  25.320   6.764
 4953POPC   C3B63165  42.874  25.352   7.064
 4953POPC   C4B63166  42.910  25.285   7.364
 4954POPC   NC363167   4.334  18.264   5.564
 4954POPC   PO463168   4.311  18.234   5.864
 4954POPC   GL163169   4.282  18.303   6.164
 4954POPC   GL263170   4.413  18.439   6.164
 4954POPC   C1A63171   4.319  18.288   6.464
 4954POPC   D2A63172   4.288  18.254   6.764
 4954POPC   C3A63173   4.279  18.271   7.064
 4954POPC   C4A63174   4.286  18.312   7.364
 4954POPC   C1B63175   4.460  18.478   6.464
 4954POPC   C2B63176   4.411  18.466   6.764
 4954POPC   C3B63177   4.477  18.504   7.064
 4954POPC   C4B63178   4.488  18.469   7.364
 4955POPC   NC363179  22.910  43.077   5.564
 4955POPC   PO463180  22.905  43.111   5.864
 4955POPC   GL163181  22.893  43.072   6.164
 4955POPC   GL263182  22.896  42.956   6.164
 4955POPC   C1A63183  22.905  43.096   6.464
 4955POPC   D2A63184  22.906  43.101   6.764
 4955POPC   C3A63185  22.899  43.142   7.064
 4955POPC   C4A63186  22.987  43.132   7.364
 4955POPC   C1B63187  22.835  42.857   6.464
 4955POPC   C2B63188  22.805  42.884   6.764
 4955POPC   C3B63189  22.830  42.843   7.064
 4955POPC   C4B63190  22.804  42.887   7.364
 4956POPC   NC363191   4.308  10.518   5.564
 4956POPC   PO463192   4.291  10.490   5.864
 4956POPC   GL163193   4.350  10.546   6.164
 4956POPC   GL263194   4.363  10.394   6.164
 4956POPC   C1A63195   4.309  10.498   6.464
 4956POPC   D2A63196   4.350  10.571   6.764
 4956POPC   C3A63197   4.364  10.516   7.064
 4956POPC   C4A63198   4.346  10.509   7.364
 4956POPC   C1B63199   4.392  10.314   6.464
 4956POPC   C2B63200   4.364  10.314   6.764
 4956POPC   C3B63201   4.360  10.313   7.064
 4956POPC   C4B63202   4.350  10.278   7.364
 4957POPC   NC363203   2.759   4.311   5.564
 4957POPC   PO463204   2.808   4.362   5.864
 4957POPC   GL163205   2.749   4.341   6.164
 4957POPC   GL263206   2.705   4.459   6.164
 4957POPC   C1A63207   2.787   4.327   6.464
 4957POPC   D2A63208   2.795   4.367   6.764
 4957POPC   C3A63209   2.779   4.362   7.064
 4957POPC   C4A63210   2.736   4.366   7.364
 4957POPC   C1B63211   2.654   4.501   6.464
 4957POPC   C2B63212   2.614   4.521   6.764
 4957POPC   C3B63213   2.663   4.543   7.064
 4957POPC   C4B63214   2.625   4.549   7.364
 4958POPC   NC363215  22.974   3.492   5.564
 4958POPC   PO463216  22.912   3.524   5.864
 4958POPC   GL163217  22.958   3.519   6.164
 4958POPC   GL263218  22.831   3.493   6.164
 4958POPC   C1A63219  22.897   3.543   6.464
 4958POPC   D2A63220  22.968   3.575   6.764
 4958POPC   C3A63221  22.955   3.500   7.064
 4958POPC   C4A63222  22.912   3.580   7.364
 4958POPC   C1B63223  22.735   3.540   6.464
 4958POPC   C2B63224  22.645   3.520   6.764
 4958POPC   C3B63225  22.657   3.484   7.064
 4958POPC   C4B63226  22.734   3.535   7.364
 4959POPC   NC363227  39.200  19.822   5.564
 4959POPC   PO463228  39.233  19.833   5.864
 4959POPC   GL163229  39.229  19.845   6.164
 4959POPC   GL263230  39.283  19.897   6.164
 4959POPC   C1A63231  39.239  19.828   6.464
 4959POPC   D2A63232  39.257  19.882   6.764
 4959POPC   C3A63233  39.201  19.828   7.064
 4959POPC   C4A63234  39.196  19.814   7.364
 4959POPC   C1B63235  39.419  20.068   6.464
 4959POPC   C2B63236  39.416  19.995   6.764
 4959POPC   C3B63237  39.412  20.024   7.064
 4959POPC   C4B63238  39.386  20.029   7.364
 4960POPC   NC363239  31.474  20.635   5.564
 4960POPC   PO463240  31.521  20.617   5.864
 4960POPC   GL163241  31.517  20.639   6.164
 4960POPC   GL263242  31.431  20.514   6.164
 4960POPC   C1A63243  31.481  20.652   6.464
 4960POPC   D2A63244  31.507  20.594   6.764
 4960POPC   C3A63245  31.485  20.597   7.064
 4960POPC   C4A63246  31.453  20.572   7.364
 4960POPC   C1B63247  31.376  20.414   6.464
 4960POPC   C2B63248  31.327  20.373   6.764
 4960POPC   C3B63249  31.330  20.436   7.064
 4960POPC   C4B63250  31.348  20.385   7.364
 4961POPC   NC363251  10.565  15.979   5.564
 4961POPC   PO463252  10.555  15.945   5.864
 4961POPC   GL163253  10.507  15.938   6.164
 4961POPC   GL263254  10.403  16.011   6.164
 4961POPC   C1A63255  10.552  16.001   6.464
 4961POPC   D2A63256  10.571  15.994   6.764
 4961POPC   C3A63257  10.545  15.955   7.064
 4961POPC   C4A63258  10.555  15.945   7.364
 4961POPC   C1B63259  10.276  16.074   6.464
 4961POPC   C2B63260  10.298  16.142   6.764
 4961POPC   C3B63261  10.338  16.123   7.064
 4961POPC   C4B63262  10.349  16.045   7.364
 4962POPC   NC363263  44.636  40.742   5.564
 4962POPC   PO463264  44.623  40.747   5.864
 4962POPC   GL163265  44.699  40.816   6.164
 4962POPC   GL263266  44.514  40.760   6.164
 4962POPC   C1A63267  44.646  40.816   6.464
 4962POPC   D2A63268  44.705  40.755   6.764
 4962POPC   C3A63269  44.704  40.759   7.064
 4962POPC   C4A63270  44.631  40.830   7.364
 4962POPC   C1B63271  44.424  40.775   6.464
 4962POPC   C2B63272  44.378  40.783   6.764
 4962POPC   C3B63273  44.366  40.826   7.064
 4962POPC   C4B63274  44.377  40.832   7.364
 4963POPC   NC363275  14.398  26.058   5.564
 4963POPC   PO463276  14.357  26.003   5.864
 4963POPC   GL163277  14.354  26.083   6.164
 4963POPC   GL263278  14.471  26.196   6.164
 4963POPC   C1A63279  14.358  25.996   6.464
 4963POPC   D2A63280  14.363  26.011   6.764
 4963POPC   C3A63281  14.364  26.013   7.064
 4963POPC   C4A63282  14.407  26.060   7.364
 4963POPC   C1B63283  14.502  26.242   6.464
 4963POPC   C2B63284  14.463  26.258   6.764
 4963POPC   C3B63285  14.486  26.265   7.064
 4963POPC   C4B63286  14.457  26.223   7.364
 4964POPC   NC363287  19.856  27.621   5.564
 4964POPC   PO463288  19.804  27.561   5.864
 4964POPC   GL163289  19.858  27.622   6.164
 4964POPC   GL263290  19.758  27.474   6.164
 4964POPC   C1A63291  19.862  27.553   6.464
 4964POPC   D2A63292  19.814  27.546   6.764
 4964POPC   C3A63293  19.828  27.642   7.064
 4964POPC   C4A63294  19.836  27.559   7.364
 4964POPC   C1B63295  19.598  27.464   6.464
 4964POPC   C2B63296  19.599  27.468   6.764
 4964POPC   C3B63297  19.613  27.461   7.064
 4964POPC   C4B63298  19.687  27.466   7.364
 4965POPC   NC363299  29.930  43.157   5.564
 4965POPC   PO463300  29.907  43.105   5.864
 4965POPC   GL163301  29.941  43.096   6.164
 4965POPC   GL263302  30.049  43.138   6.164
 4965POPC   C1A63303  29.872  43.099   6.464
 4965POPC   D2A63304  29.875  43.130   6.764
 4965POPC   C3A63305  29.893  43.140   7.064
 4965POPC   C4A63306  29.887  43.159   7.364
 4965POPC   C1B63307  30.153  43.246   6.464
 4965POPC   C2B63308  30.108  43.178   6.764
 4965POPC   C3B63309  30.182  43.221   7.064
 4965POPC   C4B63310  30.136  43.227   7.364
 4966POPC   NC363311  28.414  36.928   5.564
 4966POPC   PO463312  28.408  36.890   5.864
 4966POPC   GL163313  28.325  36.900   6.164
 4966POPC   GL263314  28.285  36.993   6.164
 4966POPC   C1A63315  28.363  36.934   6.464
 4966POPC   D2A63316  28.376  36.887   6.764
 4966POPC   C3A63317  28.396  36.881   7.064
 4966POPC   C4A63318  28.324  36.890   7.364
 4966POPC   C1B63319  28.293  37.177   6.464
 4966POPC   C2B63320  28.249  37.163   6.764
 4966POPC   C3B63321  28.247  37.185   7.064
 4966POPC   C4B63322  28.246  37.114   7.364
 4967POPC   NC363323  18.319   1.991   5.564
 4967POPC   PO463324  18.311   2.035   5.864
 4967POPC   GL163325  18.291   2.029   6.164
 4967POPC   GL263326  18.228   1.895   6.164
 4967POPC   C1A63327  18.272   1.951   6.464
 4967POPC   D2A63328  18.280   1.982   6.764
 4967POPC   C3A63329  18.254   2.026   7.064
 4967POPC   C4A63330  18.256   1.981   7.364
 4967POPC   C1B63331  18.123   1.803   6.464
 4967POPC   C2B63332  18.190   1.819   6.764
 4967POPC   C3B63333  18.176   1.781   7.064
 4967POPC   C4B63334  18.137   1.759   7.364
 4968POPC   NC363335  31.442  39.268   5.564
 4968POPC   PO463336  31.514  39.194   5.864
 4968POPC   GL163337  31.463  39.248   6.164
 4968POPC   GL263338  31.400  39.364   6.164
 4968POPC   C1A63339  31.461  39.196   6.464
 4968POPC   D2A63340  31.514  39.192   6.764
 4968POPC   C3A63341  31.498  39.263   7.064
 4968POPC   C4A63342  31.501  39.204   7.364
 4968POPC   C1B63343  31.411  39.442   6.464
 4968POPC   C2B63344  31.404  39.467   6.764
 4968POPC   C3B63345  31.357  39.496   7.064
 4968POPC   C4B63346  31.355  39.483   7.364
 4969POPC   NC363347  19.081  36.087   5.564
 4969POPC   PO463348  19.105  36.149   5.864
 4969POPC   GL163349  19.083  36.095   6.164
 4969POPC   GL263350  19.071  36.238   6.164
 4969POPC   C1A63351  19.020  36.141   6.464
 4969POPC   D2A63352  19.013  36.136   6.764
 4969POPC   C3A63353  19.095  36.172   7.064
 4969POPC   C4A63354  19.052  36.128   7.364
 4969POPC   C1B63355  19.107  36.352   6.464
 4969POPC   C2B63356  19.118  36.388   6.764
 4969POPC   C3B63357  19.106  36.332   7.064
 4969POPC   C4B63358  19.100  36.394   7.364
 4970POPC   NC363359  40.020   3.554   5.564
 4970POPC   PO463360  39.988   3.572   5.864
 4970POPC   GL163361  39.996   3.571   6.164
 4970POPC   GL263362  39.963   3.622   6.164
 4970POPC   C1A63363  39.988   3.499   6.464
 4970POPC   D2A63364  40.015   3.566   6.764
 4970POPC   C3A63365  40.026   3.516   7.064
 4970POPC   C4A63366  39.972   3.517   7.364
 4970POPC   C1B63367  39.867   3.746   6.464
 4970POPC   C2B63368  39.903   3.729   6.764
 4970POPC   C3B63369  39.906   3.741   7.064
 4970POPC   C4B63370  39.877   3.784   7.364
 4971POPC   NC363371  30.701  41.536   5.564
 4971POPC   PO463372  30.746  41.568   5.864
 4971POPC   GL163373  30.722  41.592   6.164
 4971POPC   GL263374  30.655  41.667   6.164
 4971POPC   C1A63375  30.670  41.607   6.464
 4971POPC   D2A63376  30.654  41.607   6.764
 4971POPC   C3A63377  30.708  41.537   7.064
 4971POPC   C4A63378  30.704  41.523   7.364
 4971POPC   C1B63379  30.635  41.763   6.464
 4971POPC   C2B63380  30.562  41.796   6.764
 4971POPC   C3B63381  30.612  41.800   7.064
 4971POPC   C4B63382  30.643  41.816   7.364
 4972POPC   NC363383   1.974  33.807   5.564
 4972POPC   PO463384   1.999  33.843   5.864
 4972POPC   GL163385   1.995  33.794   6.164
 4972POPC   GL263386   1.906  33.728   6.164
 4972POPC   C1A63387   1.945  33.802   6.464
 4972POPC   D2A63388   1.968  33.765   6.764
 4972POPC   C3A63389   2.033  33.847   7.064
 4972POPC   C4A63390   1.944  33.823   7.364
 4972POPC   C1B63391   1.769  33.695   6.464
 4972POPC   C2B63392   1.802  33.610   6.764
 4972POPC   C3B63393   1.777  33.607   7.064
 4972POPC   C4B63394   1.774  33.686   7.364
 4973POPC   NC363395  16.753   4.306   5.564
 4973POPC   PO463396  16.770   4.306   5.864
 4973POPC   GL163397  16.775   4.308   6.164
 4973POPC   GL263398  16.745   4.487   6.164
 4973POPC   C1A63399  16.684   4.267   6.464
 4973POPC   D2A63400  16.760   4.361   6.764
 4973POPC   C3A63401  16.719   4.356   7.064
 4973POPC   C4A63402  16.743   4.340   7.364
 4973POPC   C1B63403  16.657   4.563   6.464
 4973POPC   C2B63404  16.724   4.572   6.764
 4973POPC   C3B63405  16.671   4.570   7.064
 4973POPC   C4B63406  16.713   4.526   7.364
 4974POPC   NC363407   3.564   6.682   5.564
 4974POPC   PO463408   3.542   6.612   5.864
 4974POPC   GL163409   3.589   6.655   6.164
 4974POPC   GL263410   3.476   6.491   6.164
 4974POPC   C1A63411   3.545   6.689   6.464
 4974POPC   D2A63412   3.585   6.596   6.764
 4974POPC   C3A63413   3.518   6.599   7.064
 4974POPC   C4A63414   3.517   6.683   7.364
 4974POPC   C1B63415   3.526   6.438   6.464
 4974POPC   C2B63416   3.527   6.392   6.764
 4974POPC   C3B63417   3.462   6.363   7.064
 4974POPC   C4B63418   3.514   6.365   7.364
 4975POPC   NC363419   0.442  16.001   5.564
 4975POPC   PO463420   0.480  15.961   5.864
 4975POPC   GL163421   0.478  15.980   6.164
 4975POPC   GL263422   0.338  16.048   6.164
 4975POPC   C1A63423   0.468  16.004   6.464
 4975POPC   D2A63424   0.435  15.924   6.764
 4975POPC   C3A63425   0.442  15.937   7.064
 4975POPC   C4A63426   0.405  15.925   7.364
 4975POPC   C1B63427   0.239  16.162   6.464
 4975POPC   C2B63428   0.300  16.170   6.764
 4975POPC   C3B63429   0.306  16.190   7.064
 4975POPC   C4B63430   0.251  16.170   7.364
 4976POPC   NC363431  36.097   8.220   5.564
 4976POPC   PO463432  36.093   8.185   5.864
 4976POPC   GL163433  36.133   8.176   6.164
 4976POPC   GL263434  36.124   8.274   6.164
 4976POPC   C1A63435  36.119   8.162   6.464
 4976POPC   D2A63436  36.144   8.241   6.764
 4976POPC   C3A63437  36.148   8.187   7.064
 4976POPC   C4A63438  36.099   8.172   7.364
 4976POPC   C1B63439  36.139   8.467   6.464
 4976POPC   C2B63440  36.085   8.443   6.764
 4976POPC   C3B63441  36.090   8.440   7.064
 4976POPC   C4B63442  36.128   8.476   7.364
 4977POPC   NC363443   1.253  33.797   5.564
 4977POPC   PO463444   1.192  33.777   5.864
 4977POPC   GL163445   1.246  33.795   6.164
 4977POPC   GL263446   1.070  33.676   6.164
 4977POPC   C1A63447   1.246  33.798   6.464
 4977POPC   D2A63448   1.169  33.787   6.764
 4977POPC   C3A63449   1.239  33.787   7.064
 4977POPC   C4A63450   1.254  33.764   7.364
 4977POPC   C1B63451   1.046  33.668   6.464
 4977POPC   C2B63452   0.980  33.628   6.764
 4977POPC   C3B63453   1.006  33.660   7.064
 4977POPC   C4B63454   1.034  33.613   7.364
 4978POPC   NC363455  31.450  37.700   5.564
 4978POPC   PO463456  31.435  37.712   5.864
 4978POPC   GL163457  31.497  37.659   6.164
 4978POPC   GL263458  31.428  37.782   6.164
 4978POPC   C1A63459  31.512  37.673   6.464
 4978POPC   D2A63460  31.451  37.689   6.764
 4978POPC   C3A63461  31.437  37.669   7.064
 4978POPC   C4A63462  31.520  37.668   7.364
 4978POPC   C1B63463  31.344  37.874   6.464
 4978POPC   C2B63464  31.307  37.865   6.764
 4978POPC   C3B63465  31.318  37.915   7.064
 4978POPC   C4B63466  31.361  37.923   7.364
 4979POPC   NC363467  32.987   3.563   5.564
 4979POPC   PO463468  32.999   3.569   5.864
 4979POPC   GL163469  32.991   3.502   6.164
 4979POPC   GL263470  33.149   3.517   6.164
 4979POPC   C1A63471  33.055   3.559   6.464
 4979POPC   D2A63472  33.072   3.548   6.764
 4979POPC   C3A63473  32.977   3.528   7.064
 4979POPC   C4A63474  33.037   3.590   7.364
 4979POPC   C1B63475  33.217   3.392   6.464
 4979POPC   C2B63476  33.190   3.465   6.764
 4979POPC   C3B63477  33.214   3.379   7.064
 4979POPC   C4B63478  33.286   3.396   7.364
 4980POPC   NC363479  12.111  22.166   5.564
 4980POPC   PO463480  12.108  22.151   5.864
 4980POPC   GL163481  12.066  22.114   6.164
 4980POPC   GL263482  12.153  22.065   6.164
 4980POPC   C1A63483  12.113  22.141   6.464
 4980POPC   D2A63484  12.045  22.117   6.764
 4980POPC   C3A63485  12.093  22.158   7.064
 4980POPC   C4A63486  12.120  22.118   7.364
 4980POPC   C1B63487  12.190  21.919   6.464
 4980POPC   C2B63488  12.174  21.925   6.764
 4980POPC   C3B63489  12.177  21.927   7.064
 4980POPC   C4B63490  12.187  21.928   7.364
 4981POPC   NC363491  34.590  19.830   5.564
 4981POPC   PO463492  34.599  19.860   5.864
 4981POPC   GL163493  34.615  19.786   6.164
 4981POPC   GL263494  34.543  19.692   6.164
 4981POPC   C1A63495  34.533  19.881   6.464
 4981POPC   D2A63496  34.547  19.862   6.764
 4981POPC   C3A63497  34.530  19.791   7.064
 4981POPC   C4A63498  34.622  19.804   7.364
 4981POPC   C1B63499  34.393  19.621   6.464
 4981POPC   C2B63500  34.401  19.662   6.764
 4981POPC   C3B63501  34.431  19.604   7.064
 4981POPC   C4B63502  34.399  19.615   7.364
 4982POPC   NC363503  29.185  22.935   5.564
 4982POPC   PO463504  29.146  22.967   5.864
 4982POPC   GL163505  29.156  22.956   6.164
 4982POPC   GL263506  29.177  22.825   6.164
 4982POPC   C1A63507  29.179  22.948   6.464
 4982POPC   D2A63508  29.125  22.898   6.764
 4982POPC   C3A63509  29.106  22.964   7.064
 4982POPC   C4A63510  29.169  22.890   7.364
 4982POPC   C1B63511  29.240  22.739   6.464
 4982POPC   C2B63512  29.177  22.704   6.764
 4982POPC   C3B63513  29.216  22.645   7.064
 4982POPC   C4B63514  29.200  22.739   7.364
 4983POPC   NC363515  14.435  11.342   5.564
 4983POPC   PO463516  14.378  11.254   5.864
 4983POPC   GL163517  14.371  11.301   6.164
 4983POPC   GL263518  14.529  11.314   6.164
 4983POPC   C1A63519  14.416  11.251   6.464
 4983POPC   D2A63520  14.389  11.342   6.764
 4983POPC   C3A63521  14.356  11.311   7.064
 4983POPC   C4A63522  14.443  11.339   7.364
 4983POPC   C1B63523  14.583  11.433   6.464
 4983POPC   C2B63524  14.644  11.411   6.764
 4983POPC   C3B63525  14.622  11.453   7.064
 4983POPC   C4B63526  14.608  11.392   7.364
 4984POPC   NC363527   9.782  31.520   5.564
 4984POPC   PO463528   9.757  31.495   5.864
 4984POPC   GL163529   9.733  31.486   6.164
 4984POPC   GL263530   9.625  31.468   6.164
 4984POPC   C1A63531   9.739  31.485   6.464
 4984POPC   D2A63532   9.728  31.466   6.764
 4984POPC   C3A63533   9.739  31.480   7.064
 4984POPC   C4A63534   9.729  31.457   7.364
 4984POPC   C1B63535   9.486  31.384   6.464
 4984POPC   C2B63536   9.473  31.472   6.764
 4984POPC   C3B63537   9.459  31.411   7.064
 4984POPC   C4B63538   9.481  31.475   7.364
 4985POPC   NC363539   2.723  19.852   5.564
 4985POPC   PO463540   2.812  19.807   5.864
 4985POPC   GL163541   2.749  19.844   6.164
 4985POPC   GL263542   2.725  19.763   6.164
 4985POPC   C1A63543   2.812  19.805   6.464
 4985POPC   D2A63544   2.746  19.819   6.764
 4985POPC   C3A63545   2.802  19.864   7.064
 4985POPC   C4A63546   2.797  19.862   7.364
 4985POPC   C1B63547   2.635  19.618   6.464
 4985POPC   C2B63548   2.718  19.597   6.764
 4985POPC   C3B63549   2.632  19.649   7.064
 4985POPC   C4B63550   2.673  19.599   7.364
 4986POPC   NC363551  42.359  22.912   5.564
 4986POPC   PO463552  42.310  22.897   5.864
 4986POPC   GL163553  42.348  22.955   6.164
 4986POPC   GL263554  42.250  22.903   6.164
 4986POPC   C1A63555  42.313  22.943   6.464
 4986POPC   D2A63556  42.357  22.968   6.764
 4986POPC   C3A63557  42.360  22.901   7.064
 4986POPC   C4A63558  42.295  22.943   7.364
 4986POPC   C1B63559  42.110  22.908   6.464
 4986POPC   C2B63560  42.117  22.849   6.764
 4986POPC   C3B63561  42.070  22.848   7.064
 4986POPC   C4B63562  42.141  22.912   7.364
 4987POPC   NC363563  22.909  42.341   5.564
 4987POPC   PO463564  22.944  42.319   5.864
 4987POPC   GL163565  22.903  42.313   6.164
 4987POPC   GL263566  23.014  42.245   6.164
 4987POPC   C1A63567  22.916  42.344   6.464
 4987POPC   D2A63568  22.930  42.367   6.764
 4987POPC   C3A63569  22.896  42.372   7.064
 4987POPC   C4A63570  22.950  42.321   7.364
 4987POPC   C1B63571  23.096  42.100   6.464
 4987POPC   C2B63572  23.059  42.118   6.764
 4987POPC   C3B63573  23.096  42.089   7.064
 4987POPC   C4B63574  23.082  42.144   7.364
 4988POPC   NC363575  31.480  27.593   5.564
 4988POPC   PO463576  31.435  27.603   5.864
 4988POPC   GL163577  31.511  27.602   6.164
 4988POPC   GL263578  31.407  27.738   6.164
 4988POPC   C1A63579  31.473  27.598   6.464
 4988POPC   D2A63580  31.499  27.560   6.764
 4988POPC   C3A63581  31.489  27.554   7.064
 4988POPC   C4A63582  31.440  27.567   7.364
 4988POPC   C1B63583  31.356  27.835   6.464
 4988POPC   C2B63584  31.309  27.763   6.764
 4988POPC   C3B63585  31.391  27.784   7.064
 4988POPC   C4B63586  31.350  27.819   7.364
 4989POPC   NC363587  38.476   3.568   5.564
 4989POPC   PO463588  38.423   3.582   5.864
 4989POPC   GL163589  38.406   3.509   6.164
 4989POPC   GL263590  38.579   3.522   6.164
 4989POPC   C1A63591  38.501   3.579   6.464
 4989POPC   D2A63592  38.478   3.492   6.764
 4989POPC   C3A63593  38.424   3.516   7.064
 4989POPC   C4A63594  38.479   3.561   7.364
 4989POPC   C1B63595  38.670   3.496   6.464
 4989POPC   C2B63596  38.657   3.493   6.764
 4989POPC   C3B63597  38.701   3.463   7.064
 4989POPC   C4B63598  38.668   3.496   7.364
 4990POPC   NC363599   6.626  44.689   5.564
 4990POPC   PO463600   6.664  44.707   5.864
 4990POPC   GL163601   6.606  44.646   6.164
 4990POPC   GL263602   6.557  44.581   6.164
 4990POPC   C1A63603   6.635  44.665   6.464
 4990POPC   D2A63604   6.631  44.642   6.764
 4990POPC   C3A63605   6.653  44.617   7.064
 4990POPC   C4A63606   6.626  44.684   7.364
 4990POPC   C1B63607   6.421  44.598   6.464
 4990POPC   C2B63608   6.448  44.536   6.764
 4990POPC   C3B63609   6.381  44.578   7.064
 4990POPC   C4B63610   6.432  44.537   7.364
 4991POPC   NC363611   5.853  36.903   5.564
 4991POPC   PO463612   5.892  36.904   5.864
 4991POPC   GL163613   5.819  36.947   6.164
 4991POPC   GL263614   5.940  36.793   6.164
 4991POPC   C1A63615   5.907  36.943   6.464
 4991POPC   D2A63616   5.824  36.913   6.764
 4991POPC   C3A63617   5.843  36.907   7.064
 4991POPC   C4A63618   5.871  36.873   7.364
 4991POPC   C1B63619   5.983  36.691   6.464
 4991POPC   C2B63620   5.959  36.643   6.764
 4991POPC   C3B63621   6.015  36.690   7.064
 4991POPC   C4B63622   6.021  36.712   7.364
 4992POPC   NC363623  44.627   4.285   5.564
 4992POPC   PO463624  44.661   4.302   5.864
 4992POPC   GL163625  44.615   4.362   6.164
 4992POPC   GL263626  44.714   4.408   6.164
 4992POPC   C1A63627  44.641   4.296   6.464
 4992POPC   D2A63628  44.643   4.302   6.764
 4992POPC   C3A63629  44.665   4.358   7.064
 4992POPC   C4A63630  44.706   4.290   7.364
 4992POPC   C1B63631  44.811   4.566   6.464
 4992POPC   C2B63632  44.726   4.580   6.764
 4992POPC   C3B63633  44.804   4.514   7.064
 4992POPC   C4B63634  44.775   4.543   7.364
 4993POPC   NC363635  13.619  31.454   5.564
 4993POPC   PO463636  13.586  31.465   5.864
 4993POPC   GL163637  13.588  31.503   6.164
 4993POPC   GL263638  13.605  31.327   6.164
 4993POPC   C1A63639  13.589  31.466   6.464
 4993POPC   D2A63640  13.624  31.478   6.764
 4993POPC   C3A63641  13.653  31.454   7.064
 4993POPC   C4A63642  13.644  31.481   7.364
 4993POPC   C1B63643  13.517  31.252   6.464
 4993POPC   C2B63644  13.450  31.216   6.764
 4993POPC   C3B63645  13.533  31.224   7.064
 4993POPC   C4B63646  13.503  31.278   7.364
 4994POPC   NC363647  32.295   9.791   5.564
 4994POPC   PO463648  32.235   9.718   5.864
 4994POPC   GL163649  32.204   9.706   6.164
 4994POPC   GL263650  32.389   9.679   6.164
 4994POPC   C1A63651  32.253   9.702   6.464
 4994POPC   D2A63652  32.233   9.761   6.764
 4994POPC   C3A63653  32.272   9.712   7.064
 4994POPC   C4A63654  32.262   9.726   7.364
 4994POPC   C1B63655  32.448   9.625   6.464
 4994POPC   C2B63656  32.496   9.614   6.764
 4994POPC   C3B63657  32.460   9.650   7.064
 4994POPC   C4B63658  32.412   9.574   7.364
 4995POPC   NC363659   0.452  42.368   5.564
 4995POPC   PO463660   0.481  42.341   5.864
 4995POPC   GL163661   0.467  42.286   6.164
 4995POPC   GL263662   0.419  42.183   6.164
 4995POPC   C1A63663   0.467  42.343   6.464
 4995POPC   D2A63664   0.476  42.369   6.764
 4995POPC   C3A63665   0.401  42.301   7.064
 4995POPC   C4A63666   0.474  42.345   7.364
 4995POPC   C1B63667   0.376  42.088   6.464
 4995POPC   C2B63668   0.372  42.062   6.764
 4995POPC   C3B63669   0.358  42.116   7.064
 4995POPC   C4B63670   0.317  42.100   7.364
 4996POPC   NC363671  28.331  43.923   5.564
 4996POPC   PO463672  28.353  43.922   5.864
 4996POPC   GL163673  28.400  43.892   6.164
 4996POPC   GL263674  28.441  43.783   6.164
 4996POPC   C1A63675  28.356  43.925   6.464
 4996POPC   D2A63676  28.394  43.886   6.764
 4996POPC   C3A63677  28.324  43.898   7.064
 4996POPC   C4A63678  28.401  43.895   7.364
 4996POPC   C1B63679  28.545  43.701   6.464
 4996POPC   C2B63680  28.520  43.691   6.764
 4996POPC   C3B63681  28.535  43.699   7.064
 4996POPC   C4B63682  28.503  43.690   7.364
 4997POPC   NC363683  30.690  17.487   5.564
 4997POPC   PO463684  30.716  17.510   5.864
 4997POPC   GL163685  30.726  17.474   6.164
 4997POPC   GL263686  30.566  17.541   6.164
 4997POPC   C1A63687  30.694  17.519   6.464
 4997POPC   D2A63688  30.689  17.556   6.764
 4997POPC   C3A63689  30.672  17.542   7.064
 4997POPC   C4A63690  30.746  17.555   7.364
 4997POPC   C1B63691  30.439  17.610   6.464
 4997POPC   C2B63692  30.487  17.632   6.764
 4997POPC   C3B63693  30.497  17.616   7.064
 4997POPC   C4B63694  30.419  17.639   7.364
 4998POPC   NC363695  30.732  12.083   5.564
 4998POPC   PO463696  30.684  12.126   5.864
 4998POPC   GL163697  30.735  12.083   6.164
 4998POPC   GL263698  30.841  12.165   6.164
 4998POPC   C1A63699  30.698  12.063   6.464
 4998POPC   D2A63700  30.696  12.084   6.764
 4998POPC   C3A63701  30.679  12.090   7.064
 4998POPC   C4A63702  30.700  12.033   7.364
 4998POPC   C1B63703  30.931  12.133   6.464
 4998POPC   C2B63704  30.877  12.197   6.764
 4998POPC   C3B63705  30.902  12.174   7.064
 4998POPC   C4B63706  30.939  12.191   7.364
 4999POPC   NC363707  15.133   9.719   5.564
 4999POPC   PO463708  15.148   9.792   5.864
 4999POPC   GL163709  15.222   9.780   6.164
 4999POPC   GL263710  15.284   9.666   6.164
 4999POPC   C1A63711  15.148   9.722   6.464
 4999POPC   D2A63712  15.140   9.749   6.764
 4999POPC   C3A63713  15.222   9.763   7.064
 4999POPC   C4A63714  15.138   9.791   7.364
 4999POPC   C1B63715  15.463   9.677   6.464
 4999POPC   C2B63716  15.456   9.664   6.764
 4999POPC   C3B63717  15.382   9.651   7.064
 4999POPC   C4B63718  15.416   9.715   7.364
 5000POPC   NC363719  43.887  19.060   5.564
 5000POPC   PO463720  43.848  19.019   5.864
 5000POPC   GL163721  43.865  19.050   6.164
 5000POPC   GL263722  43.957  18.991   6.164
 5000POPC   C1A63723  43.849  19.040   6.464
 5000POPC   D2A63724  43.879  19.010   6.764
 5000POPC   C3A63725  43.852  19.042   7.064
 5000POPC   C4A63726  43.894  19.009   7.364
 5000POPC   C1B63727  44.073  18.854   6.464
 5000POPC   C2B63728  44.063  18.880   6.764
 5000POPC   C3B63729  44.045  18.860   7.064
 5000POPC   C4B63730  44.084  18.845   7.364
 5001POPC   NC363731  16.686  12.873   5.564
 5001POPC   PO463732  16.747  12.834   5.864
 5001POPC   GL163733  16.690  12.851   6.164
 5001POPC   GL263734  16.657  12.867   6.164
 5001POPC   C1A63735  16.773  12.804   6.464
 5001POPC   D2A63736  16.773  12.876   6.764
 5001POPC   C3A63737  16.746  12.831   7.064
 5001POPC   C4A63738  16.722  12.864   7.364
 5001POPC   C1B63739  16.526  12.902   6.464
 5001POPC   C2B63740  16.473  12.946   6.764
 5001POPC   C3B63741  16.478  12.911   7.064
 5001POPC   C4B63742  16.495  12.958   7.364
 5002POPC   NC363743  31.428  43.906   5.564
 5002POPC   PO463744  31.458  43.851   5.864
 5002POPC   GL163745  31.441  43.924   6.164
 5002POPC   GL263746  31.558  43.778   6.164
 5002POPC   C1A63747  31.484  43.841   6.464
 5002POPC   D2A63748  31.505  43.845   6.764
 5002POPC   C3A63749  31.476  43.924   7.064
 5002POPC   C4A63750  31.468  43.848   7.364
 5002POPC   C1B63751  31.678  43.684   6.464
 5002POPC   C2B63752  31.637  43.694   6.764
 5002POPC   C3B63753  31.654  43.686   7.064
 5002POPC   C4B63754  31.708  43.685   7.364
 5003POPC   NC363755  33.777  17.541   5.564
 5003POPC   PO463756  33.807  17.460   5.864
 5003POPC   GL163757  33.837  17.464   6.164
 5003POPC   GL263758  33.729  17.666   6.164
 5003POPC   C1A63759  33.808  17.511   6.464
 5003POPC   D2A63760  33.795  17.530   6.764
 5003POPC   C3A63761  33.810  17.530   7.064
 5003POPC   C4A63762  33.848  17.489   7.364
 5003POPC   C1B63763  33.692  17.678   6.464
 5003POPC   C2B63764  33.709  17.724   6.764
 5003POPC   C3B63765  33.706  17.728   7.064
 5003POPC   C4B63766  33.671  17.698   7.364
 5004POPC   NC363767  31.465   2.732   5.564
 5004POPC   PO463768  31.469   2.732   5.864
 5004POPC   GL163769  31.496   2.800   6.164
 5004POPC   GL263770  31.559   2.668   6.164
 5004POPC   C1A63771  31.510   2.770   6.464
 5004POPC   D2A63772  31.512   2.783   6.764
 5004POPC   C3A63773  31.450   2.804   7.064
 5004POPC   C4A63774  31.495   2.739   7.364
 5004POPC   C1B63775  31.641   2.579   6.464
 5004POPC   C2B63776  31.657   2.532   6.764
 5004POPC   C3B63777  31.629   2.590   7.064
 5004POPC   C4B63778  31.574   2.611   7.364
 5005POPC   NC363779  35.338   8.984   5.564
 5005POPC   PO463780  35.335   8.959   5.864
 5005POPC   GL163781  35.345   8.991   6.164
 5005POPC   GL263782  35.243   9.102   6.164
 5005POPC   C1A63783  35.344   8.940   6.464
 5005POPC   D2A63784  35.337   8.949   6.764
 5005POPC   C3A63785  35.320   8.942   7.064
 5005POPC   C4A63786  35.353   8.998   7.364
 5005POPC   C1B63787  35.223   9.200   6.464
 5005POPC   C2B63788  35.213   9.144   6.764
 5005POPC   C3B63789  35.163   9.186   7.064
 5005POPC   C4B63790  35.209   9.218   7.364
 5006POPC   NC363791  30.697   6.657   5.564
 5006POPC   PO463792  30.685   6.615   5.864
 5006POPC   GL163793  30.741   6.689   6.164
 5006POPC   GL263794  30.602   6.795   6.164
 5006POPC   C1A63795  30.744   6.630   6.464
 5006POPC   D2A63796  30.660   6.620   6.764
 5006POPC   C3A63797  30.651   6.596   7.064
 5006POPC   C4A63798  30.653   6.632   7.364
 5006POPC   C1B63799  30.521   6.863   6.464
 5006POPC   C2B63800  30.531   6.854   6.764
 5006POPC   C3B63801  30.600   6.865   7.064
 5006POPC   C4B63802  30.526   6.875   7.364
 5007POPC   NC363803  11.329  43.120   5.564
 5007POPC   PO463804  11.288  43.093   5.864
 5007POPC   GL163805  11.319  43.098   6.164
 5007POPC   GL263806  11.227  42.998   6.164
 5007POPC   C1A63807  11.330  43.141   6.464
 5007POPC   D2A63808  11.304  43.134   6.764
 5007POPC   C3A63809  11.291  43.060   7.064
 5007POPC   C4A63810  11.251  43.144   7.364
 5007POPC   C1B63811  11.165  42.942   6.464
 5007POPC   C2B63812  11.188  42.890   6.764
 5007POPC   C3B63813  11.155  42.892   7.064
 5007POPC   C4B63814  11.204  42.932   7.364
 5008POPC   NC363815   3.502   1.941   5.564
 5008POPC   PO463816   3.588   2.017   5.864
 5008POPC   GL163817   3.528   1.998   6.164
 5008POPC   GL263818   3.374   1.953   6.164
 5008POPC   C1A63819   3.588   1.989   6.464
 5008POPC   D2A63820   3.494   2.014   6.764
 5008POPC   C3A63821   3.498   1.965   7.064
 5008POPC   C4A63822   3.542   2.028   7.364
 5008POPC   C1B63823   3.293   2.022   6.464
 5008POPC   C2B63824   3.277   1.995   6.764
 5008POPC   C3B63825   3.338   2.009   7.064
 5008POPC   C4B63826   3.249   2.015   7.364
 5009POPC   NC363827  15.151  26.062   5.564
 5009POPC   PO463828  15.157  26.033   5.864
 5009POPC   GL163829  15.151  26.060   6.164
 5009POPC   GL263830  15.130  26.125   6.164
 5009POPC   C1A63831  15.155  26.083   6.464
 5009POPC   D2A63832  15.190  26.047   6.764
 5009POPC   C3A63833  15.139  26.061   7.064
 5009POPC   C4A63834  15.130  26.034   7.364
 5009POPC   C1B63835  15.074  26.276   6.464
 5009POPC   C2B63836  15.093  26.238   6.764
 5009POPC   C3B63837  15.069  26.225   7.064
 5009POPC   C4B63838  15.065  26.265   7.364
 5010POPC   NC363839  15.145  29.964   5.564
 5010POPC   PO463840  15.178  29.908   5.864
 5010POPC   GL163841  15.147  29.896   6.164
 5010POPC   GL263842  15.284  29.988   6.164
 5010POPC   C1A63843  15.184  29.876   6.464
 5010POPC   D2A63844  15.229  29.951   6.764
 5010POPC   C3A63845  15.163  29.960   7.064
 5010POPC   C4A63846  15.207  29.936   7.364
 5010POPC   C1B63847  15.366  30.096   6.464
 5010POPC   C2B63848  15.317  30.091   6.764
 5010POPC   C3B63849  15.366  30.147   7.064
 5010POPC   C4B63850  15.376  30.144   7.364
 5011POPC   NC363851  22.916   9.003   5.564
 5011POPC   PO463852  22.932   8.923   5.864
 5011POPC   GL163853  22.972   8.971   6.164
 5011POPC   GL263854  22.910   8.871   6.164
 5011POPC   C1A63855  22.911   8.963   6.464
 5011POPC   D2A63856  22.896   8.965   6.764
 5011POPC   C3A63857  22.892   9.017   7.064
 5011POPC   C4A63858  22.899   8.938   7.364
 5011POPC   C1B63859  22.819   8.714   6.464
 5011POPC   C2B63860  22.817   8.725   6.764
 5011POPC   C3B63861  22.844   8.760   7.064
 5011POPC   C4B63862  22.874   8.725   7.364
 5012POPC   NC363863  10.484  10.506   5.564
 5012POPC   PO463864  10.488  10.525   5.864
 5012POPC   GL163865  10.561  10.511   6.164
 5012POPC   GL263866  10.667  10.482   6.164
 5012POPC   C1A63867  10.514  10.505   6.464
 5012POPC   D2A63868  10.556  10.554   6.764
 5012POPC   C3A63869  10.508  10.483   7.064
 5012POPC   C4A63870  10.532  10.518   7.364
 5012POPC   C1B63871  10.701  10.378   6.464
 5012POPC   C2B63872  10.694  10.444   6.764
 5012POPC   C3B63873  10.727  10.412   7.064
 5012POPC   C4B63874  10.780  10.443   7.364
 5013POPC   NC363875   9.700  32.211   5.564
 5013POPC   PO463876   9.730  32.244   5.864
 5013POPC   GL163877   9.746  32.223   6.164
 5013POPC   GL263878   9.678  32.186   6.164
 5013POPC   C1A63879   9.745  32.278   6.464
 5013POPC   D2A63880   9.766  32.242   6.764
 5013POPC   C3A63881   9.785  32.260   7.064
 5013POPC   C4A63882   9.759  32.271   7.364
 5013POPC   C1B63883   9.560  32.165   6.464
 5013POPC   C2B63884   9.554  32.130   6.764
 5013POPC   C3B63885   9.548  32.102   7.064
 5013POPC   C4B63886   9.496  32.129   7.364
 5014POPC   NC363887  41.516   6.646   5.564
 5014POPC   PO463888  41.516   6.670   5.864
 5014POPC   GL163889  41.567   6.601   6.164
 5014POPC   GL263890  41.630   6.578   6.164
 5014POPC   C1A63891  41.603   6.637   6.464
 5014POPC   D2A63892  41.514   6.681   6.764
 5014POPC   C3A63893  41.607   6.672   7.064
 5014POPC   C4A63894  41.571   6.603   7.364
 5014POPC   C1B63895  41.660   6.395   6.464
 5014POPC   C2B63896  41.650   6.426   6.764
 5014POPC   C3B63897  41.694   6.465   7.064
 5014POPC   C4B63898  41.706   6.454   7.364
 5015POPC   NC363899  39.201  11.319   5.564
 5015POPC   PO463900  39.252  11.318   5.864
 5015POPC   GL163901  39.268  11.265   6.164
 5015POPC   GL263902  39.266  11.194   6.164
 5015POPC   C1A63903  39.185  11.305   6.464
 5015POPC   D2A63904  39.261  11.267   6.764
 5015POPC   C3A63905  39.190  11.308   7.064
 5015POPC   C4A63906  39.182  11.297   7.364
 5015POPC   C1B63907  39.258  11.054   6.464
 5015POPC   C2B63908  39.248  11.101   6.764
 5015POPC   C3B63909  39.330  11.100   7.064
 5015POPC   C4B63910  39.299  11.025   7.364
 5016POPC   NC363911  16.724  13.630   5.564
 5016POPC   PO463912  16.775  13.663   5.864
 5016POPC   GL163913  16.724  13.614   6.164
 5016POPC   GL263914  16.761  13.481   6.164
 5016POPC   C1A63915  16.727  13.603   6.464
 5016POPC   D2A63916  16.688  13.638   6.764
 5016POPC   C3A63917  16.683  13.644   7.064
 5016POPC   C4A63918  16.768  13.663   7.364
 5016POPC   C1B63919  16.743  13.366   6.464
 5016POPC   C2B63920  16.762  13.409   6.764
 5016POPC   C3B63921  16.750  13.397   7.064
 5016POPC   C4B63922  16.738  13.379   7.364
 5017POPC   NC363923   5.883  31.492   5.564
 5017POPC   PO463924   5.850  31.427   5.864
 5017POPC   GL163925   5.825  31.515   6.164
 5017POPC   GL263926   5.863  31.584   6.164
 5017POPC   C1A63927   5.859  31.491   6.464
 5017POPC   D2A63928   5.890  31.453   6.764
 5017POPC   C3A63929   5.875  31.451   7.064
 5017POPC   C4A63930   5.871  31.457   7.364
 5017POPC   C1B63931   5.883  31.723   6.464
 5017POPC   C2B63932   5.821  31.759   6.764
 5017POPC   C3B63933   5.829  31.716   7.064
 5017POPC   C4B63934   5.862  31.729   7.364
 5018POPC   NC363935  11.327  28.353   5.564
 5018POPC   PO463936  11.292  28.415   5.864
 5018POPC   GL163937  11.338  28.386   6.164
 5018POPC   GL263938  11.170  28.426   6.164
 5018POPC   C1A63939  11.317  28.355   6.464
 5018POPC   D2A63940  11.309  28.365   6.764
 5018POPC   C3A63941  11.345  28.324   7.064
 5018POPC   C4A63942  11.346  28.369   7.364
 5018POPC   C1B63943  11.086  28.577   6.464
 5018POPC   C2B63944  11.141  28.565   6.764
 5018POPC   C3B63945  11.124  28.535   7.064
 5018POPC   C4B63946  11.120  28.553   7.364
 5019POPC   NC363947  33.765  44.687   5.564
 5019POPC   PO463948  33.762  44.649   5.864
 5019POPC   GL163949  33.821  44.651   6.164
 5019POPC   GL263950  33.737  44.535   6.164
 5019POPC   C1A63951  33.784  44.651   6.464
 5019POPC   D2A63952  33.813  44.708   6.764
 5019POPC   C3A63953  33.837  44.686   7.064
 5019POPC   C4A63954  33.843  44.622   7.364
 5019POPC   C1B63955  33.664  44.464   6.464
 5019POPC   C2B63956  33.624  44.475   6.764
 5019POPC   C3B63957  33.661  44.426   7.064
 5019POPC   C4B63958  33.624  44.436   7.364
 5020POPC   NC363959  11.317  39.232   5.564
 5020POPC   PO463960  11.312  39.198   5.864
 5020POPC   GL163961  11.286  39.265   6.164
 5020POPC   GL263962  11.157  39.162   6.164
 5020POPC   C1A63963  11.307  39.194   6.464
 5020POPC   D2A63964  11.320  39.197   6.764
 5020POPC   C3A63965  11.275  39.193   7.064
 5020POPC   C4A63966  11.250  39.261   7.364
 5020POPC   C1B63967  11.104  39.115   6.464
 5020POPC   C2B63968  11.143  39.082   6.764
 5020POPC   C3B63969  11.141  39.036   7.064
 5020POPC   C4B63970  11.137  39.115   7.364
 5021POPC   NC363971  37.648   5.132   5.564
 5021POPC   PO463972  37.691   5.089   5.864
 5021POPC   GL163973  37.689   5.053   6.164
 5021POPC   GL263974  37.512   5.141   6.164
 5021POPC   C1A63975  37.644   5.062   6.464
 5021POPC   D2A63976  37.721   5.054   6.764
 5021POPC   C3A63977  37.636   5.065   7.064
 5021POPC   C4A63978  37.675   5.085   7.364
 5021POPC   C1B63979  37.453   5.191   6.464
 5021POPC   C2B63980  37.394   5.134   6.764
 5021POPC   C3B63981  37.456   5.150   7.064
 5021POPC   C4B63982  37.473   5.141   7.364
 5022POPC   NC363983  40.788  37.685   5.564
 5022POPC   PO463984  40.752  37.637   5.864
 5022POPC   GL163985  40.771  37.647   6.164
 5022POPC   GL263986  40.743  37.613   6.164
 5022POPC   C1A63987  40.743  37.710   6.464
 5022POPC   D2A63988  40.751  37.696   6.764
 5022POPC   C3A63989  40.816  37.663   7.064
 5022POPC   C4A63990  40.742  37.644   7.364
 5022POPC   C1B63991  40.668  37.498   6.464
 5022POPC   C2B63992  40.595  37.466   6.764
 5022POPC   C3B63993  40.622  37.488   7.064
 5022POPC   C4B63994  40.654  37.507   7.364
 5023POPC   NC363995  23.680  38.428   5.564
 5023POPC   PO463996  23.690  38.447   5.864
 5023POPC   GL163997  23.746  38.477   6.164
 5023POPC   GL263998  23.832  38.400   6.164
 5023POPC   C1A63999  23.680  38.467   6.464
 5023POPC   D2A64000  23.666  38.503   6.764
 5023POPC   C3A64001  23.712  38.489   7.064
 5023POPC   C4A64002  23.751  38.489   7.364
 5023POPC   C1B64003  24.005  38.435   6.464
 5023POPC   C2B64004  23.959  38.436   6.764
 5023POPC   C3B64005  23.911  38.383   7.064
 5023POPC   C4B64006  23.942  38.376   7.364
 5024POPC   NC364007  40.050  36.934   5.564
 5024POPC   PO464008  40.027  36.905   5.864
 5024POPC   GL164009  39.979  36.883   6.164
 5024POPC   GL264010  39.888  36.855   6.164
 5024POPC   C1A64011  39.990  36.902   6.464
 5024POPC   D2A64012  40.024  36.910   6.764
 5024POPC   C3A64013  39.980  36.948   7.064
 5024POPC   C4A64014  39.999  36.919   7.364
 5024POPC   C1B64015  39.761  36.763   6.464
 5024POPC   C2B64016  39.829  36.735   6.764
 5024POPC   C3B64017  39.811  36.765   7.064
 5024POPC   C4B64018  39.783  36.801   7.364
 5025POPC   NC364019  12.055  13.658   5.564
 5025POPC   PO464020  12.122  13.627   5.864
 5025POPC   GL164021  12.050  13.603   6.164
 5025POPC   GL264022  12.174  13.695   6.164
 5025POPC   C1A64023  12.088  13.625   6.464
 5025POPC   D2A64024  12.076  13.670   6.764
 5025POPC   C3A64025  12.105  13.654   7.064
 5025POPC   C4A64026  12.108  13.675   7.364
 5025POPC   C1B64027  12.317  13.695   6.464
 5025POPC   C2B64028  12.291  13.635   6.764
 5025POPC   C3B64029  12.276  13.636   7.064
 5025POPC   C4B64030  12.278  13.628   7.364
 5026POPC   NC364031  26.852   9.742   5.564
 5026POPC   PO464032  26.785   9.713   5.864
 5026POPC   GL164033  26.802   9.783   6.164
 5026POPC   GL264034  26.659   9.707   6.164
 5026POPC   C1A64035  26.861   9.750   6.464
 5026POPC   D2A64036  26.773   9.758   6.764
 5026POPC   C3A64037  26.861   9.705   7.064
 5026POPC   C4A64038  26.824   9.722   7.364
 5026POPC   C1B64039  26.618   9.690   6.464
 5026POPC   C2B64040  26.537   9.684   6.764
 5026POPC   C3B64041  26.568   9.665   7.064
 5026POPC   C4B64042  26.566   9.662   7.364
 5027POPC   NC364043  20.640  22.926   5.564
 5027POPC   PO464044  20.619  22.970   5.864
 5027POPC   GL164045  20.635  22.963   6.164
 5027POPC   GL264046  20.671  22.867   6.164
 5027POPC   C1A64047  20.572  22.940   6.464
 5027POPC   D2A64048  20.605  22.896   6.764
 5027POPC   C3A64049  20.572  22.937   7.064
 5027POPC   C4A64050  20.561  22.954   7.364
 5027POPC   C1B64051  20.777  22.855   6.464
 5027POPC   C2B64052  20.847  22.814   6.764
 5027POPC   C3B64053  20.797  22.826   7.064
 5027POPC   C4B64054  20.811  22.844   7.364
 5028POPC   NC364055   9.715  39.189   5.564
 5028POPC   PO464056   9.725  39.192   5.864
 5028POPC   GL164057   9.731  39.238   6.164
 5028POPC   GL264058   9.817  39.119   6.164
 5028POPC   C1A64059   9.743  39.204   6.464
 5028POPC   D2A64060   9.708  39.270   6.764
 5028POPC   C3A64061   9.776  39.206   7.064
 5028POPC   C4A64062   9.771  39.187   7.364
 5028POPC   C1B64063   9.998  39.056   6.464
 5028POPC   C2B64064   9.993  39.077   6.764
 5028POPC   C3B64065   9.935  39.069   7.064
 5028POPC   C4B64066   9.958  39.130   7.364
 5029POPC   NC364067  35.316  16.692   5.564
 5029POPC   PO464068  35.378  16.772   5.864
 5029POPC   GL164069  35.377  16.714   6.164
 5029POPC   GL264070  35.229  16.774   6.164
 5029POPC   C1A64071  35.345  16.778   6.464
 5029POPC   D2A64072  35.397  16.682   6.764
 5029POPC   C3A64073  35.384  16.699   7.064
 5029POPC   C4A64074  35.393  16.764   7.364
 5029POPC   C1B64075  35.160  16.927   6.464
 5029POPC   C2B64076  35.161  16.861   6.764
 5029POPC   C3B64077  35.154  16.868   7.064
 5029POPC   C4B64078  35.140  16.888   7.364
 5030POPC   NC364079  23.752  15.130   5.564
 5030POPC   PO464080  23.728  15.197   5.864
 5030POPC   GL164081  23.708  15.187   6.164
 5030POPC   GL264082  23.611  15.130   6.164
 5030POPC   C1A64083  23.664  15.144   6.464
 5030POPC   D2A64084  23.684  15.181   6.764
 5030POPC   C3A64085  23.723  15.180   7.064
 5030POPC   C4A64086  23.723  15.207   7.364
 5030POPC   C1B64087  23.439  15.122   6.464
 5030POPC   C2B64088  23.451  15.195   6.764
 5030POPC   C3B64089  23.460  15.175   7.064
 5030POPC   C4B64090  23.476  15.116   7.364
 5031POPC   NC364091  29.961  24.484   5.564
 5031POPC   PO464092  29.917  24.531   5.864
 5031POPC   GL164093  29.895  24.459   6.164
 5031POPC   GL264094  29.933  24.358   6.164
 5031POPC   C1A64095  29.968  24.487   6.464
 5031POPC   D2A64096  29.927  24.538   6.764
 5031POPC   C3A64097  29.904  24.442   7.064
 5031POPC   C4A64098  29.897  24.464   7.364
 5031POPC   C1B64099  29.835  24.235   6.464
 5031POPC   C2B64100  29.931  24.252   6.764
 5031POPC   C3B64101  29.880  24.213   7.064
 5031POPC   C4B64102  29.891  24.213   7.364
 5032POPC   NC364103  13.640  29.175   5.564
 5032POPC   PO464104  13.589  29.127   5.864
 5032POPC   GL164105  13.578  29.161   6.164
 5032POPC   GL264106  13.793  29.115   6.164
 5032POPC   C1A64107  13.638  29.182   6.464
 5032POPC   D2A64108  13.635  29.126   6.764
 5032POPC   C3A64109  13.671  29.107   7.064
 5032POPC   C4A64110  13.652  29.113   7.364
 5032POPC   C1B64111  13.909  29.173   6.464
 5032POPC   C2B64112  13.885  29.162   6.764
 5032POPC   C3B64113  13.866  29.183   7.064
 5032POPC   C4B64114  13.842  29.138   7.364
 5033POPC   NC364115  12.874  29.176   5.564
 5033POPC   PO464116  12.854  29.136   5.864
 5033POPC   GL164117  12.893  29.165   6.164
 5033POPC   GL264118  12.967  29.178   6.164
 5033POPC   C1A64119  12.888  29.154   6.464
 5033POPC   D2A64120  12.898  29.143   6.764
 5033POPC   C3A64121  12.887  29.116   7.064
 5033POPC   C4A64122  12.894  29.101   7.364
 5033POPC   C1B64123  13.057  29.192   6.464
 5033POPC   C2B64124  13.083  29.155   6.764
 5033POPC   C3B64125  13.053  29.227   7.064
 5033POPC   C4B64126  13.075  29.228   7.364
 5034POPC   NC364127   4.282  29.140   5.564
 5034POPC   PO464128   4.316  29.102   5.864
 5034POPC   GL164129   4.304  29.174   6.164
 5034POPC   GL264130   4.455  29.210   6.164
 5034POPC   C1A64131   4.289  29.132   6.464
 5034POPC   D2A64132   4.292  29.159   6.764
 5034POPC   C3A64133   4.322  29.112   7.064
 5034POPC   C4A64134   4.335  29.120   7.364
 5034POPC   C1B64135   4.531  29.191   6.464
 5034POPC   C2B64136   4.535  29.249   6.764
 5034POPC   C3B64137   4.506  29.251   7.064
 5034POPC   C4B64138   4.532  29.244   7.364
 5035POPC   NC364139  40.736  28.322   5.564
 5035POPC   PO464140  40.744  28.406   5.864
 5035POPC   GL164141  40.736  28.389   6.164
 5035POPC   GL264142  40.872  28.292   6.164
 5035POPC   C1A64143  40.758  28.393   6.464
 5035POPC   D2A64144  40.829  28.330   6.764
 5035POPC   C3A64145  40.794  28.384   7.064
 5035POPC   C4A64146  40.766  28.401   7.364
 5035POPC   C1B64147  40.888  28.138   6.464
 5035POPC   C2B64148  40.822  28.123   6.764
 5035POPC   C3B64149  40.870  28.106   7.064
 5035POPC   C4B64150  40.902  28.124   7.364
 5036POPC   NC364151  36.875  25.994   5.564
 5036POPC   PO464152  36.861  26.007   5.864
 5036POPC   GL164153  36.952  26.073   6.164
 5036POPC   GL264154  37.037  26.069   6.164
 5036POPC   C1A64155  36.945  26.061   6.464
 5036POPC   D2A64156  36.867  25.997   6.764
 5036POPC   C3A64157  36.926  26.082   7.064
 5036POPC   C4A64158  36.877  25.996   7.364
 5036POPC   C1B64159  37.176  26.098   6.464
 5036POPC   C2B64160  37.127  26.086   6.764
 5036POPC   C3B64161  37.157  26.036   7.064
 5036POPC   C4B64162  37.110  26.049   7.364
 5037POPC   NC364163   1.945  19.831   5.564
 5037POPC   PO464164   1.983  19.871   5.864
 5037POPC   GL164165   1.974  19.789   6.164
 5037POPC   GL264166   2.082  19.944   6.164
 5037POPC   C1A64167   1.986  19.785   6.464
 5037POPC   D2A64168   2.033  19.866   6.764
 5037POPC   C3A64169   1.974  19.871   7.064
 5037POPC   C4A64170   1.986  19.811   7.364
 5037POPC   C1B64171   2.090  20.081   6.464
 5037POPC   C2B64172   2.131  20.005   6.764
 5037POPC   C3B64173   2.085  20.006   7.064
 5037POPC   C4B64174   2.097  20.043   7.364
 5038POPC   NC364175  24.494  26.788   5.564
 5038POPC   PO464176  24.479  26.771   5.864
 5038POPC   GL164177  24.483  26.778   6.164
 5038POPC   GL264178  24.480  26.911   6.164
 5038POPC   C1A64179  24.484  26.866   6.464
 5038POPC   D2A64180  24.459  26.816   6.764
 5038POPC   C3A64181  24.440  26.780   7.064
 5038POPC   C4A64182  24.504  26.795   7.364
 5038POPC   C1B64183  24.519  27.111   6.464
 5038POPC   C2B64184  24.559  27.046   6.764
 5038POPC   C3B64185  24.498  27.081   7.064
 5038POPC   C4B64186  24.506  27.100   7.364
 5039POPC   NC364187  30.654  15.223   5.564
 5039POPC   PO464188  30.741  15.216   5.864
 5039POPC   GL164189  30.709  15.223   6.164
 5039POPC   GL264190  30.571  15.206   6.164
 5039POPC   C1A64191  30.694  15.181   6.464
 5039POPC   D2A64192  30.738  15.185   6.764
 5039POPC   C3A64193  30.742  15.166   7.064
 5039POPC   C4A64194  30.656  15.138   7.364
 5039POPC   C1B64195  30.409  15.171   6.464
 5039POPC   C2B64196  30.452  15.220   6.764
 5039POPC   C3B64197  30.426  15.198   7.064
 5039POPC   C4B64198  30.440  15.225   7.364
 5040POPC   NC364199  12.817  43.072   5.564
 5040POPC   PO464200  12.879  43.088   5.864
 5040POPC   GL164201  12.867  43.109   6.164
 5040POPC   GL264202  12.799  43.225   6.164
 5040POPC   C1A64203  12.879  43.065   6.464
 5040POPC   D2A64204  12.813  43.071   6.764
 5040POPC   C3A64205  12.874  43.098   7.064
 5040POPC   C4A64206  12.828  43.129   7.364
 5040POPC   C1B64207  12.822  43.333   6.464
 5040POPC   C2B64208  12.778  43.315   6.764
 5040POPC   C3B64209  12.777  43.365   7.064
 5040POPC   C4B64210  12.779  43.334   7.364
 5041POPC   NC364211  14.400  34.600   5.564
 5041POPC   PO464212  14.412  34.550   5.864
 5041POPC   GL164213  14.385  34.543   6.164
 5041POPC   GL264214  14.272  34.500   6.164
 5041POPC   C1A64215  14.419  34.604   6.464
 5041POPC   D2A64216  14.355  34.564   6.764
 5041POPC   C3A64217  14.358  34.548   7.064
 5041POPC   C4A64218  14.426  34.544   7.364
 5041POPC   C1B64219  14.208  34.451   6.464
 5041POPC   C2B64220  14.224  34.461   6.764
 5041POPC   C3B64221  14.159  34.479   7.064
 5041POPC   C4B64222  14.167  34.484   7.364
 5042POPC   NC364223  38.477  12.862   5.564
 5042POPC   PO464224  38.429  12.829   5.864
 5042POPC   GL164225  38.407  12.848   6.164
 5042POPC   GL264226  38.305  12.836   6.164
 5042POPC   C1A64227  38.441  12.896   6.464
 5042POPC   D2A64228  38.476  12.808   6.764
 5042POPC   C3A64229  38.453  12.878   7.064
 5042POPC   C4A64230  38.467  12.884   7.364
 5042POPC   C1B64231  38.173  12.907   6.464
 5042POPC   C2B64232  38.226  12.857   6.764
 5042POPC   C3B64233  38.158  12.893   7.064
 5042POPC   C4B64234  38.184  12.911   7.364
 5043POPC   NC364235  30.737  37.635   5.564
 5043POPC   PO464236  30.711  37.722   5.864
 5043POPC   GL164237  30.695  37.691   6.164
 5043POPC   GL264238  30.834  37.616   6.164
 5043POPC   C1A64239  30.728  37.671   6.464
 5043POPC   D2A64240  30.737  37.709   6.764
 5043POPC   C3A64241  30.674  37.659   7.064
 5043POPC   C4A64242  30.671  37.718   7.364
 5043POPC   C1B64243  30.901  37.658   6.464
 5043POPC   C2B64244  30.907  37.621   6.764
 5043POPC   C3B64245  30.929  37.624   7.064
 5043POPC   C4B64246  30.930  37.640   7.364
 5044POPC   NC364247  29.121   1.214   5.564
 5044POPC   PO464248  29.180   1.259   5.864
 5044POPC   GL164249  29.157   1.183   6.164
 5044POPC   GL264250  28.994   1.221   6.164
 5044POPC   C1A64251  29.150   1.171   6.464
 5044POPC   D2A64252  29.179   1.200   6.764
 5044POPC   C3A64253  29.153   1.170   7.064
 5044POPC   C4A64254  29.101   1.176   7.364
 5044POPC   C1B64255  28.936   1.323   6.464
 5044POPC   C2B64256  28.946   1.263   6.764
 5044POPC   C3B64257  28.908   1.313   7.064
 5044POPC   C4B64258  28.908   1.275   7.364
 5045POPC   NC364259  32.214  25.295   5.564
 5045POPC   PO464260  32.236  25.263   5.864
 5045POPC   GL164261  32.241  25.233   6.164
 5045POPC   GL264262  32.184  25.207   6.164
 5045POPC   C1A64263  32.200  25.217   6.464
 5045POPC   D2A64264  32.274  25.294   6.764
 5045POPC   C3A64265  32.221  25.260   7.064
 5045POPC   C4A64266  32.293  25.294   7.364
 5045POPC   C1B64267  32.049  25.096   6.464
 5045POPC   C2B64268  32.046  25.068   6.764
 5045POPC   C3B64269  32.060  25.086   7.064
 5045POPC   C4B64270  32.092  25.157   7.364
 5046POPC   NC364271   0.407   5.086   5.564
 5046POPC   PO464272   0.401   5.127   5.864
 5046POPC   GL164273   0.428   5.138   6.164
 5046POPC   GL264274   0.483   4.945   6.164
 5046POPC   C1A64275   0.476   5.126   6.464
 5046POPC   D2A64276   0.390   5.139   6.764
 5046POPC   C3A64277   0.395   5.141   7.064
 5046POPC   C4A64278   0.480   5.127   7.364
 5046POPC   C1B64279   0.557   4.878   6.464
 5046POPC   C2B64280   0.594   4.848   6.764
 5046POPC   C3B64281   0.610   4.850   7.064
 5046POPC   C4B64282   0.611   4.846   7.364
 5047POPC   NC364283  29.903   4.294   5.564
 5047POPC   PO464284  29.953   4.342   5.864
 5047POPC   GL164285  29.898   4.298   6.164
 5047POPC   GL264286  29.915   4.234   6.164
 5047POPC   C1A64287  29.898   4.348   6.464
 5047POPC   D2A64288  29.914   4.335   6.764
 5047POPC   C3A64289  29.928   4.332   7.064
 5047POPC   C4A64290  29.936   4.354   7.364
 5047POPC   C1B64291  29.957   4.093   6.464
 5047POPC   C2B64292  29.968   4.025   6.764
 5047POPC   C3B64293  29.986   4.058   7.064
 5047POPC   C4B64294  29.943   4.035   7.364
 5048POPC   NC364295  10.510  39.244   5.564
 5048POPC   PO464296  10.490  39.209   5.864
 5048POPC   GL164297  10.493  39.195   6.164
 5048POPC   GL264298  10.627  39.318   6.164
 5048POPC   C1A64299  10.506  39.266   6.464
 5048POPC   D2A64300  10.481  39.217   6.764
 5048POPC   C3A64301  10.559  39.229   7.064
 5048POPC   C4A64302  10.547  39.234   7.364
 5048POPC   C1B64303  10.693  39.356   6.464
 5048POPC   C2B64304  10.764  39.343   6.764
 5048POPC   C3B64305  10.759  39.410   7.064
 5048POPC   C4B64306  10.698  39.426   7.364
 5049POPC   NC364307  12.864  23.675   5.564
 5049POPC   PO464308  12.808  23.739   5.864
 5049POPC   GL164309  12.862  23.699   6.164
 5049POPC   GL264310  12.803  23.616   6.164
 5049POPC   C1A64311  12.822  23.695   6.464
 5049POPC   D2A64312  12.870  23.690   6.764
 5049POPC   C3A64313  12.889  23.753   7.064
 5049POPC   C4A64314  12.856  23.708   7.364
 5049POPC   C1B64315  12.808  23.491   6.464
 5049POPC   C2B64316  12.775  23.457   6.764
 5049POPC   C3B64317  12.731  23.430   7.064
 5049POPC   C4B64318  12.804  23.511   7.364
 5050POPC   NC364319   5.833   4.278   5.564
 5050POPC   PO464320   5.906   4.288   5.864
 5050POPC   GL164321   5.874   4.307   6.164
 5050POPC   GL264322   5.749   4.259   6.164
 5050POPC   C1A64323   5.866   4.330   6.464
 5050POPC   D2A64324   5.901   4.336   6.764
 5050POPC   C3A64325   5.868   4.298   7.064
 5050POPC   C4A64326   5.880   4.323   7.364
 5050POPC   C1B64327   5.692   4.163   6.464
 5050POPC   C2B64328   5.724   4.116   6.764
 5050POPC   C3B64329   5.742   4.127   7.064
 5050POPC   C4B64330   5.718   4.082   7.364
 5051POPC   NC364331  29.916  23.722   5.564
 5051POPC   PO464332  29.895  23.684   5.864
 5051POPC   GL164333  29.947  23.679   6.164
 5051POPC   GL264334  30.016  23.584   6.164
 5051POPC   C1A64335  29.959  23.760   6.464
 5051POPC   D2A64336  29.927  23.708   6.764
 5051POPC   C3A64337  29.910  23.702   7.064
 5051POPC   C4A64338  29.965  23.744   7.364
 5051POPC   C1B64339  30.072  23.519   6.464
 5051POPC   C2B64340  30.047  23.508   6.764
 5051POPC   C3B64341  30.142  23.574   7.064
 5051POPC   C4B64342  30.046  23.494   7.364
 5052POPC   NC364343  26.782   1.949   5.564
 5052POPC   PO464344  26.782   2.017   5.864
 5052POPC   GL164345  26.779   1.988   6.164
 5052POPC   GL264346  26.726   2.049   6.164
 5052POPC   C1A64347  26.792   1.992   6.464
 5052POPC   D2A64348  26.853   1.976   6.764
 5052POPC   C3A64349  26.781   1.954   7.064
 5052POPC   C4A64350  26.840   2.017   7.364
 5052POPC   C1B64351  26.588   2.123   6.464
 5052POPC   C2B64352  26.613   2.147   6.764
 5052POPC   C3B64353  26.581   2.101   7.064
 5052POPC   C4B64354  26.577   2.103   7.364
 5053POPC   NC364355  19.022  39.974   5.564
 5053POPC   PO464356  19.045  40.012   5.864
 5053POPC   GL164357  19.022  40.026   6.164
 5053POPC   GL264358  19.026  39.916   6.164
 5053POPC   C1A64359  19.023  39.976   6.464
 5053POPC   D2A64360  19.049  40.030   6.764
 5053POPC   C3A64361  19.091  40.017   7.064
 5053POPC   C4A64362  19.061  40.005   7.364
 5053POPC   C1B64363  18.885  39.753   6.464
 5053POPC   C2B64364  18.914  39.816   6.764
 5053POPC   C3B64365  18.904  39.831   7.064
 5053POPC   C4B64366  18.920  39.789   7.364
 5054POPC   NC364367  37.635  42.300   5.564
 5054POPC   PO464368  37.704  42.356   5.864
 5054POPC   GL164369  37.720  42.307   6.164
 5054POPC   GL264370  37.637  42.263   6.164
 5054POPC   C1A64371  37.701  42.383   6.464
 5054POPC   D2A64372  37.678  42.303   6.764
 5054POPC   C3A64373  37.660  42.296   7.064
 5054POPC   C4A64374  37.633  42.370   7.364
 5054POPC   C1B64375  37.547  42.151   6.464
 5054POPC   C2B64376  37.554  42.130   6.764
 5054POPC   C3B64377  37.495  42.101   7.064
 5054POPC   C4B64378  37.482  42.133   7.364
 5055POPC   NC364379  29.138   3.500   5.564
 5055POPC   PO464380  29.132   3.561   5.864
 5055POPC   GL164381  29.172   3.509   6.164
 5055POPC   GL264382  29.202   3.494   6.164
 5055POPC   C1A64383  29.181   3.518   6.464
 5055POPC   D2A64384  29.146   3.584   6.764
 5055POPC   C3A64385  29.189   3.551   7.064
 5055POPC   C4A64386  29.150   3.587   7.364
 5055POPC   C1B64387  29.271   3.373   6.464
 5055POPC   C2B64388  29.318   3.398   6.764
 5055POPC   C3B64389  29.274   3.408   7.064
 5055POPC   C4B64390  29.284   3.330   7.364
 5056POPC   NC364391   5.849  15.947   5.564
 5056POPC   PO464392   5.846  15.907   5.864
 5056POPC   GL164393   5.864  15.949   6.164
 5056POPC   GL264394   5.770  15.844   6.164
 5056POPC   C1A64395   5.885  16.004   6.464
 5056POPC   D2A64396   5.881  15.910   6.764
 5056POPC   C3A64397   5.845  15.944   7.064
 5056POPC   C4A64398   5.902  15.939   7.364
 5056POPC   C1B64399   5.709  15.707   6.464
 5056POPC   C2B64400   5.707  15.734   6.764
 5056POPC   C3B64401   5.732  15.749   7.064
 5056POPC   C4B64402   5.753  15.764   7.364
 5057POPC   NC364403  18.293  14.420   5.564
 5057POPC   PO464404  18.287  14.404   5.864
 5057POPC   GL164405  18.240  14.370   6.164
 5057POPC   GL264406  18.288  14.324   6.164
 5057POPC   C1A64407  18.252  14.400   6.464
 5057POPC   D2A64408  18.298  14.435   6.764
 5057POPC   C3A64409  18.271  14.441   7.064
 5057POPC   C4A64410  18.274  14.387   7.364
 5057POPC   C1B64411  18.357  14.187   6.464
 5057POPC   C2B64412  18.333  14.149   6.764
 5057POPC   C3B64413  18.380  14.143   7.064
 5057POPC   C4B64414  18.393  14.198   7.364
 5058POPC   NC364415  43.879   2.790   5.564
 5058POPC   PO464416  43.908   2.720   5.864
 5058POPC   GL164417  43.888   2.807   6.164
 5058POPC   GL264418  43.972   2.824   6.164
 5058POPC   C1A64419  43.898   2.807   6.464
 5058POPC   D2A64420  43.913   2.728   6.764
 5058POPC   C3A64421  43.883   2.721   7.064
 5058POPC   C4A64422  43.932   2.745   7.364
 5058POPC   C1B64423  44.098   2.910   6.464
 5058POPC   C2B64424  44.068   2.879   6.764
 5058POPC   C3B64425  44.065   2.906   7.064
 5058POPC   C4B64426  44.048   2.970   7.364
 5059POPC   NC364427  37.663  31.465   5.564
 5059POPC   PO464428  37.655  31.439   5.864
 5059POPC   GL164429  37.637  31.456   6.164
 5059POPC   GL264430  37.697  31.596   6.164
 5059POPC   C1A64431  37.710  31.495   6.464
 5059POPC   D2A64432  37.709  31.479   6.764
 5059POPC   C3A64433  37.680  31.466   7.064
 5059POPC   C4A64434  37.724  31.475   7.364
 5059POPC   C1B64435  37.765  31.738   6.464
 5059POPC   C2B64436  37.835  31.640   6.764
 5059POPC   C3B64437  37.780  31.727   7.064
 5059POPC   C4B64438  37.835  31.670   7.364
 5060POPC   NC364439  27.640  14.357   5.564
 5060POPC   PO464440  27.591  14.356   5.864
 5060POPC   GL164441  27.592  14.384   6.164
 5060POPC   GL264442  27.674  14.321   6.164
 5060POPC   C1A64443  27.622  14.412   6.464
 5060POPC   D2A64444  27.548  14.395   6.764
 5060POPC   C3A64445  27.622  14.405   7.064
 5060POPC   C4A64446  27.608  14.397   7.364
 5060POPC   C1B64447  27.677  14.188   6.464
 5060POPC   C2B64448  27.734  14.153   6.764
 5060POPC   C3B64449  27.678  14.141   7.064
 5060POPC   C4B64450  27.662  14.135   7.364
 5061POPC   NC364451   8.999  17.487   5.564
 5061POPC   PO464452   8.926  17.497   5.864
 5061POPC   GL164453   8.978  17.505   6.164
 5061POPC   GL264454   8.898  17.425   6.164
 5061POPC   C1A64455   8.989  17.476   6.464
 5061POPC   D2A64456   9.021  17.540   6.764
 5061POPC   C3A64457   8.941  17.545   7.064
 5061POPC   C4A64458   8.966  17.465   7.364
 5061POPC   C1B64459   8.792  17.341   6.464
 5061POPC   C2B64460   8.802  17.411   6.764
 5061POPC   C3B64461   8.751  17.346   7.064
 5061POPC   C4B64462   8.710  17.346   7.364
 5062POPC   NC364463   8.228   5.117   5.564
 5062POPC   PO464464   8.241   5.141   5.864
 5062POPC   GL164465   8.196   5.072   6.164
 5062POPC   GL264466   8.130   5.055   6.164
 5062POPC   C1A64467   8.176   5.056   6.464
 5062POPC   D2A64468   8.234   5.123   6.764
 5062POPC   C3A64469   8.197   5.044   7.064
 5062POPC   C4A64470   8.181   5.115   7.364
 5062POPC   C1B64471   8.039   4.894   6.464
 5062POPC   C2B64472   7.968   4.929   6.764
 5062POPC   C3B64473   7.958   4.918   7.064
 5062POPC   C4B64474   7.973   4.906   7.364
 5063POPC   NC364475  38.425  27.574   5.564
 5063POPC   PO464476  38.500  27.590   5.864
 5063POPC   GL164477  38.448  27.549   6.164
 5063POPC   GL264478  38.552  27.475   6.164
 5063POPC   C1A64479  38.458  27.548   6.464
 5063POPC   D2A64480  38.481  27.622   6.764
 5063POPC   C3A64481  38.482  27.585   7.064
 5063POPC   C4A64482  38.498  27.601   7.364
 5063POPC   C1B64483  38.612  27.337   6.464
 5063POPC   C2B64484  38.555  27.328   6.764
 5063POPC   C3B64485  38.572  27.417   7.064
 5063POPC   C4B64486  38.541  27.420   7.364
 5064POPC   NC364487   1.244  11.348   5.564
 5064POPC   PO464488   1.253  11.267   5.864
 5064POPC   GL164489   1.248  11.261   6.164
 5064POPC   GL264490   1.222  11.169   6.164
 5064POPC   C1A64491   1.181  11.345   6.464
 5064POPC   D2A64492   1.202  11.319   6.764
 5064POPC   C3A64493   1.185  11.267   7.064
 5064POPC   C4A64494   1.227  11.308   7.364
 5064POPC   C1B64495   1.325  11.036   6.464
 5064POPC   C2B64496   1.280  11.023   6.764
 5064POPC   C3B64497   1.284  11.022   7.064
 5064POPC   C4B64498   1.309  11.078   7.364
 5065POPC   NC364499  38.436  19.024   5.564
 5065POPC   PO464500  38.461  19.093   5.864
 5065POPC   GL164501  38.437  19.056   6.164
 5065POPC   GL264502  38.540  18.965   6.164
 5065POPC   C1A64503  38.490  19.078   6.464
 5065POPC   D2A64504  38.411  19.054   6.764
 5065POPC   C3A64505  38.482  19.072   7.064
 5065POPC   C4A64506  38.419  19.082   7.364
 5065POPC   C1B64507  38.590  18.874   6.464
 5065POPC   C2B64508  38.589  18.806   6.764
 5065POPC   C3B64509  38.586  18.806   7.064
 5065POPC   C4B64510  38.544  18.837   7.364
 5066POPC   NC364511   6.645   8.171   5.564
 5066POPC   PO464512   6.694   8.190   5.864
 5066POPC   GL164513   6.652   8.166   6.164
 5066POPC   GL264514   6.777   8.141   6.164
 5066POPC   C1A64515   6.659   8.189   6.464
 5066POPC   D2A64516   6.668   8.238   6.764
 5066POPC   C3A64517   6.600   8.195   7.064
 5066POPC   C4A64518   6.620   8.217   7.364
 5066POPC   C1B64519   6.860   8.186   6.464
 5066POPC   C2B64520   6.926   8.226   6.764
 5066POPC   C3B64521   6.942   8.198   7.064
 5066POPC   C4B64522   6.901   8.230   7.364
 5067POPC   NC364523  22.945  37.670   5.564
 5067POPC   PO464524  22.917  37.665   5.864
 5067POPC   GL164525  22.909  37.670   6.164
 5067POPC   GL264526  22.846  37.764   6.164
 5067POPC   C1A64527  22.976  37.672   6.464
 5067POPC   D2A64528  22.930  37.672   6.764
 5067POPC   C3A64529  22.923  37.708   7.064
 5067POPC   C4A64530  22.905  37.667   7.364
 5067POPC   C1B64531  22.739  37.850   6.464
 5067POPC   C2B64532  22.746  37.817   6.764
 5067POPC   C3B64533  22.709  37.891   7.064
 5067POPC   C4B64534  22.706  37.807   7.364
 5068POPC   NC364535  34.542  44.631   5.564
 5068POPC   PO464536  34.622  44.712   5.864
 5068POPC   GL164537  34.617  44.699   6.164
 5068POPC   GL264538  34.636  44.768   6.164
 5068POPC   C1A64539  34.555  44.645   6.464
 5068POPC   D2A64540  34.571  44.653   6.764
 5068POPC   C3A64541  34.583  44.620   7.064
 5068POPC   C4A64542  34.561  44.690   7.364
 5068POPC   C1B64543  34.629  44.865   6.464
 5068POPC   C2B64544  34.710  44.856   6.764
 5068POPC   C3B64545  34.673  44.861   7.064
 5068POPC   C4B64546  34.642  44.911   7.364
 5069POPC   NC364547   5.053  31.477   5.564
 5069POPC   PO464548   5.081  31.434   5.864
 5069POPC   GL164549   5.069  31.445   6.164
 5069POPC   GL264550   5.177  31.546   6.164
 5069POPC   C1A64551   5.060  31.475   6.464
 5069POPC   D2A64552   5.127  31.474   6.764
 5069POPC   C3A64553   5.054  31.517   7.064
 5069POPC   C4A64554   5.132  31.451   7.364
 5069POPC   C1B64555   5.273  31.650   6.464
 5069POPC   C2B64556   5.246  31.688   6.764
 5069POPC   C3B64557   5.232  31.705   7.064
 5069POPC   C4B64558   5.200  31.651   7.364
 5070POPC   NC364559   6.635  15.214   5.564
 5070POPC   PO464560   6.632  15.190   5.864
 5070POPC   GL164561   6.635  15.171   6.164
 5070POPC   GL264562   6.596  15.254   6.164
 5070POPC   C1A64563   6.612  15.198   6.464
 5070POPC   D2A64564   6.603  15.186   6.764
 5070POPC   C3A64565   6.671  15.161   7.064
 5070POPC   C4A64566   6.658  15.177   7.364
 5070POPC   C1B64567   6.523  15.380   6.464
 5070POPC   C2B64568   6.550  15.374   6.764
 5070POPC   C3B64569   6.556  15.386   7.064
 5070POPC   C4B64570   6.550  15.364   7.364
 5071POPC   NC364571  35.376  36.090   5.564
 5071POPC   PO464572  35.369  36.079   5.864
 5071POPC   GL164573  35.346  36.172   6.164
 5071POPC   GL264574  35.277  36.127   6.164
 5071POPC   C1A64575  35.343  36.122   6.464
 5071POPC   D2A64576  35.350  36.139   6.764
 5071POPC   C3A64577  35.388  36.101   7.064
 5071POPC   C4A64578  35.329  36.092   7.364
 5071POPC   C1B64579  35.118  36.200   6.464
 5071POPC   C2B64580  35.124  36.169   6.764
 5071POPC   C3B64581  35.146  36.197   7.064
 5071POPC   C4B64582  35.091  36.168   7.364
 5072POPC   NC364583   1.205   5.046   5.564
 5072POPC   PO464584   1.221   5.095   5.864
 5072POPC   GL164585   1.168   5.074   6.164
 5072POPC   GL264586   1.321   5.127   6.164
 5072POPC   C1A64587   1.190   5.107   6.464
 5072POPC   D2A64588   1.237   5.085   6.764
 5072POPC   C3A64589   1.183   5.136   7.064
 5072POPC   C4A64590   1.217   5.076   7.364
 5072POPC   C1B64591   1.458   5.186   6.464
 5072POPC   C2B64592   1.484   5.104   6.764
 5072POPC   C3B64593   1.458   5.103   7.064
 5072POPC   C4B64594   1.453   5.162   7.364
 5073POPC   NC364595  30.727  25.304   5.564
 5073POPC   PO464596  30.717  25.286   5.864
 5073POPC   GL164597  30.699  25.303   6.164
 5073POPC   GL264598  30.692  25.157   6.164
 5073POPC   C1A64599  30.739  25.283   6.464
 5073POPC   D2A64600  30.691  25.255   6.764
 5073POPC   C3A64601  30.684  25.263   7.064
 5073POPC   C4A64602  30.656  25.279   7.364
 5073POPC   C1B64603  30.595  24.993   6.464
 5073POPC   C2B64604  30.631  25.044   6.764
 5073POPC   C3B64605  30.623  25.069   7.064
 5073POPC   C4B64606  30.642  25.016   7.364
 5074POPC   NC364607  23.712  39.965   5.564
 5074POPC   PO464608  23.736  39.992   5.864
 5074POPC   GL164609  23.701  39.978   6.164
 5074POPC   GL264610  23.655  39.958   6.164
 5074POPC   C1A64611  23.752  39.986   6.464
 5074POPC   D2A64612  23.759  39.998   6.764
 5074POPC   C3A64613  23.689  40.001   7.064
 5074POPC   C4A64614  23.749  39.957   7.364
 5074POPC   C1B64615  23.527  39.904   6.464
 5074POPC   C2B64616  23.554  39.863   6.764
 5074POPC   C3B64617  23.540  39.881   7.064
 5074POPC   C4B64618  23.529  39.883   7.364
 5075POPC   NC364619  30.679  12.843   5.564
 5075POPC   PO464620  30.671  12.818   5.864
 5075POPC   GL164621  30.672  12.898   6.164
 5075POPC   GL264622  30.822  12.986   6.164
 5075POPC   C1A64623  30.650  12.805   6.464
 5075POPC   D2A64624  30.733  12.894   6.764
 5075POPC   C3A64625  30.746  12.883   7.064
 5075POPC   C4A64626  30.711  12.813   7.364
 5075POPC   C1B64627  30.921  13.018   6.464
 5075POPC   C2B64628  30.824  13.067   6.764
 5075POPC   C3B64629  30.896  13.055   7.064
 5075POPC   C4B64630  30.894  13.018   7.364
 5076POPC   NC364631  34.596  41.529   5.564
 5076POPC   PO464632  34.559  41.596   5.864
 5076POPC   GL164633  34.590  41.556   6.164
 5076POPC   GL264634  34.430  41.664   6.164
 5076POPC   C1A64635  34.601  41.558   6.464
 5076POPC   D2A64636  34.526  41.595   6.764
 5076POPC   C3A64637  34.565  41.590   7.064
 5076POPC   C4A64638  34.564  41.549   7.364
 5076POPC   C1B64639  34.405  41.654   6.464
 5076POPC   C2B64640  34.385  41.723   6.764
 5076POPC   C3B64641  34.380  41.746   7.064
 5076POPC   C4B64642  34.407  41.654   7.364
 5077POPC   NC364643  43.117  19.073   5.564
 5077POPC   PO464644  43.104  19.011   5.864
 5077POPC   GL164645  43.066  19.108   6.164
 5077POPC   GL264646  42.985  19.044   6.164
 5077POPC   C1A64647  43.075  19.056   6.464
 5077POPC   D2A64648  43.154  19.038   6.764
 5077POPC   C3A64649  43.079  19.083   7.064
 5077POPC   C4A64650  43.083  19.088   7.364
 5077POPC   C1B64651  42.887  19.076   6.464
 5077POPC   C2B64652  42.858  19.110   6.764
 5077POPC   C3B64653  42.888  19.152   7.064
 5077POPC   C4B64654  42.868  19.072   7.364
 5078POPC   NC364655  27.616   8.167   5.564
 5078POPC   PO464656  27.556   8.174   5.864
 5078POPC   GL164657  27.621   8.220   6.164
 5078POPC   GL264658  27.645   8.274   6.164
 5078POPC   C1A64659  27.570   8.205   6.464
 5078POPC   D2A64660  27.598   8.202   6.764
 5078POPC   C3A64661  27.601   8.170   7.064
 5078POPC   C4A64662  27.624   8.200   7.364
 5078POPC   C1B64663  27.763   8.387   6.464
 5078POPC   C2B64664  27.748   8.449   6.764
 5078POPC   C3B64665  27.780   8.370   7.064
 5078POPC   C4B64666  27.760   8.385   7.364
 5079POPC   NC364667   7.457  30.735   5.564
 5079POPC   PO464668   7.451  30.652   5.864
 5079POPC   GL164669   7.419  30.717   6.164
 5079POPC   GL264670   7.307  30.597   6.164
 5079POPC   C1A64671   7.469  30.665   6.464
 5079POPC   D2A64672   7.418  30.697   6.764
 5079POPC   C3A64673   7.375  30.694   7.064
 5079POPC   C4A64674   7.451  30.691   7.364
 5079POPC   C1B64675   7.324  30.457   6.464
 5079POPC   C2B64676   7.273  30.535   6.764
 5079POPC   C3B64677   7.308  30.456   7.064
 5079POPC   C4B64678   7.291  30.468   7.364
 5080POPC   NC364679  15.963  16.701   5.564
 5080POPC   PO464680  15.963  16.753   5.864
 5080POPC   GL164681  15.989  16.692   6.164
 5080POPC   GL264682  16.044  16.619   6.164
 5080POPC   C1A64683  15.912  16.729   6.464
 5080POPC   D2A64684  15.945  16.732   6.764
 5080POPC   C3A64685  15.944  16.778   7.064
 5080POPC   C4A64686  15.907  16.778   7.364
 5080POPC   C1B64687  16.135  16.585   6.464
 5080POPC   C2B64688  16.165  16.563   6.764
 5080POPC   C3B64689  16.155  16.571   7.064
 5080POPC   C4B64690  16.187  16.585   7.364
 5081POPC   NC364691  31.426  30.675   5.564
 5081POPC   PO464692  31.522  30.667   5.864
 5081POPC   GL164693  31.458  30.679   6.164
 5081POPC   GL264694  31.435  30.819   6.164
 5081POPC   C1A64695  31.512  30.678   6.464
 5081POPC   D2A64696  31.496  30.669   6.764
 5081POPC   C3A64697  31.455  30.673   7.064
 5081POPC   C4A64698  31.487  30.730   7.364
 5081POPC   C1B64699  31.492  30.983   6.464
 5081POPC   C2B64700  31.439  30.952   6.764
 5081POPC   C3B64701  31.439  30.956   7.064
 5081POPC   C4B64702  31.472  30.989   7.364
 5082POPC   NC364703  29.939   0.392   5.564
 5082POPC   PO464704  29.937   0.391   5.864
 5082POPC   GL164705  29.969   0.414   6.164
 5082POPC   GL264706  30.036   0.494   6.164
 5082POPC   C1A64707  29.946   0.398   6.464
 5082POPC   D2A64708  29.956   0.425   6.764
 5082POPC   C3A64709  29.885   0.456   7.064
 5082POPC   C4A64710  29.911   0.445   7.364
 5082POPC   C1B64711  30.156   0.622   6.464
 5082POPC   C2B64712  30.122   0.569   6.764
 5082POPC   C3B64713  30.136   0.543   7.064
 5082POPC   C4B64714  30.125   0.634   7.364
 5083POPC   NC364715  12.109   3.532   5.564
 5083POPC   PO464716  12.082   3.504   5.864
 5083POPC   GL164717  12.032   3.494   6.164
 5083POPC   GL264718  12.010   3.401   6.164
 5083POPC   C1A64719  12.107   3.544   6.464
 5083POPC   D2A64720  12.030   3.531   6.764
 5083POPC   C3A64721  12.043   3.547   7.064
 5083POPC   C4A64722  12.092   3.512   7.364
 5083POPC   C1B64723  12.018   3.326   6.464
 5083POPC   C2B64724  11.984   3.352   6.764
 5083POPC   C3B64725  11.951   3.314   7.064
 5083POPC   C4B64726  12.016   3.290   7.364
 5084POPC   NC364727  15.131  39.197   5.564
 5084POPC   PO464728  15.145  39.238   5.864
 5084POPC   GL164729  15.157  39.226   6.164
 5084POPC   GL264730  15.261  39.240   6.164
 5084POPC   C1A64731  15.190  39.224   6.464
 5084POPC   D2A64732  15.206  39.225   6.764
 5084POPC   C3A64733  15.191  39.273   7.064
 5084POPC   C4A64734  15.191  39.184   7.364
 5084POPC   C1B64735  15.443  39.308   6.464
 5084POPC   C2B64736  15.358  39.377   6.764
 5084POPC   C3B64737  15.430  39.361   7.064
 5084POPC   C4B64738  15.422  39.380   7.364
 5085POPC   NC364739  39.181   5.915   5.564
 5085POPC   PO464740  39.209   5.842   5.864
 5085POPC   GL164741  39.196   5.857   6.164
 5085POPC   GL264742  39.125   5.832   6.164
 5085POPC   C1A64743  39.189   5.895   6.464
 5085POPC   D2A64744  39.211   5.913   6.764
 5085POPC   C3A64745  39.215   5.850   7.064
 5085POPC   C4A64746  39.188   5.884   7.364
 5085POPC   C1B64747  38.979   5.836   6.464
 5085POPC   C2B64748  39.026   5.839   6.764
 5085POPC   C3B64749  38.992   5.837   7.064
 5085POPC   C4B64750  38.961   5.809   7.364
 5086POPC   NC364751  21.356   0.431   5.564
 5086POPC   PO464752  21.345   0.442   5.864
 5086POPC   GL164753  21.430   0.409   6.164
 5086POPC   GL264754  21.326   0.297   6.164
 5086POPC   C1A64755  21.433   0.416   6.464
 5086POPC   D2A64756  21.340   0.476   6.764
 5086POPC   C3A64757  21.399   0.482   7.064
 5086POPC   C4A64758  21.384   0.423   7.364
 5086POPC   C1B64759  21.306   0.184   6.464
 5086POPC   C2B64760  21.301   0.215   6.764
 5086POPC   C3B64761  21.377   0.202   7.064
 5086POPC   C4B64762  21.383   0.211   7.364
 5087POPC   NC364763   9.792  43.070   5.564
 5087POPC   PO464764   9.711  43.072   5.864
 5087POPC   GL164765   9.776  43.137   6.164
 5087POPC   GL264766   9.617  43.113   6.164
 5087POPC   C1A64767   9.767  43.140   6.464
 5087POPC   D2A64768   9.730  43.069   6.764
 5087POPC   C3A64769   9.787  43.160   7.064
 5087POPC   C4A64770   9.718  43.142   7.364
 5087POPC   C1B64771   9.494  43.046   6.464
 5087POPC   C2B64772   9.518  43.094   6.764
 5087POPC   C3B64773   9.457  43.040   7.064
 5087POPC   C4B64774   9.483  43.084   7.364
 5088POPC   NC364775   8.211  22.958   5.564
 5088POPC   PO464776   8.198  22.951   5.864
 5088POPC   GL164777   8.210  22.912   6.164
 5088POPC   GL264778   8.130  23.097   6.164
 5088POPC   C1A64779   8.188  22.925   6.464
 5088POPC   D2A64780   8.241  22.978   6.764
 5088POPC   C3A64781   8.173  22.945   7.064
 5088POPC   C4A64782   8.154  22.914   7.364
 5088POPC   C1B64783   8.130  23.126   6.464
 5088POPC   C2B64784   8.074  23.182   6.764
 5088POPC   C3B64785   8.146  23.121   7.064
 5088POPC   C4B64786   8.139  23.194   7.364
 5089POPC   NC364787  37.642  15.937   5.564
 5089POPC   PO464788  37.720  15.940   5.864
 5089POPC   GL164789  37.709  15.937   6.164
 5089POPC   GL264790  37.741  16.053   6.164
 5089POPC   C1A64791  37.715  15.916   6.464
 5089POPC   D2A64792  37.645  15.967   6.764
 5089POPC   C3A64793  37.674  15.967   7.064
 5089POPC   C4A64794  37.657  15.931   7.364
 5089POPC   C1B64795  37.764  16.189   6.464
 5089POPC   C2B64796  37.801  16.208   6.764
 5089POPC   C3B64797  37.822  16.143   7.064
 5089POPC   C4B64798  37.782  16.133   7.364
 5090POPC   NC364799  13.654  22.188   5.564
 5090POPC   PO464800  13.617  22.135   5.864
 5090POPC   GL164801  13.650  22.132   6.164
 5090POPC   GL264802  13.719  22.225   6.164
 5090POPC   C1A64803  13.667  22.180   6.464
 5090POPC   D2A64804  13.642  22.190   6.764
 5090POPC   C3A64805  13.582  22.189   7.064
 5090POPC   C4A64806  13.583  22.153   7.364
 5090POPC   C1B64807  13.862  22.249   6.464
 5090POPC   C2B64808  13.878  22.187   6.764
 5090POPC   C3B64809  13.884  22.232   7.064
 5090POPC   C4B64810  13.829  22.184   7.364
 5091POPC   NC364811  21.345  19.828   5.564
 5091POPC   PO464812  21.384  19.864   5.864
 5091POPC   GL164813  21.408  19.877   6.164
 5091POPC   GL264814  21.401  19.755   6.164
 5091POPC   C1A64815  21.396  19.844   6.464
 5091POPC   D2A64816  21.340  19.840   6.764
 5091POPC   C3A64817  21.336  19.808   7.064
 5091POPC   C4A64818  21.344  19.788   7.364
 5091POPC   C1B64819  21.419  19.619   6.464
 5091POPC   C2B64820  21.371  19.570   6.764
 5091POPC   C3B64821  21.419  19.625   7.064
 5091POPC   C4B64822  21.359  19.551   7.364
 5092POPC   NC364823  10.574  36.863   5.564
 5092POPC   PO464824  10.553  36.930   5.864
 5092POPC   GL164825  10.513  36.861   6.164
 5092POPC   GL264826  10.408  36.878   6.164
 5092POPC   C1A64827  10.555  36.914   6.464
 5092POPC   D2A64828  10.525  36.912   6.764
 5092POPC   C3A64829  10.506  36.865   7.064
 5092POPC   C4A64830  10.549  36.894   7.364
 5092POPC   C1B64831  10.285  36.921   6.464
 5092POPC   C2B64832  10.256  36.851   6.764
 5092POPC   C3B64833  10.289  36.903   7.064
 5092POPC   C4B64834  10.264  36.909   7.364
 5093POPC   NC364835  28.362  40.010   5.564
 5093POPC   PO464836  28.328  39.977   5.864
 5093POPC   GL164837  28.339  39.965   6.164
 5093POPC   GL264838  28.404  39.860   6.164
 5093POPC   C1A64839  28.388  39.996   6.464
 5093POPC   D2A64840  28.406  39.983   6.764
 5093POPC   C3A64841  28.371  39.993   7.064
 5093POPC   C4A64842  28.410  39.963   7.364
 5093POPC   C1B64843  28.488  39.815   6.464
 5093POPC   C2B64844  28.533  39.816   6.764
 5093POPC   C3B64845  28.454  39.841   7.064
 5093POPC   C4B64846  28.471  39.820   7.364
 5094POPC   NC364847  12.125   8.210   5.564
 5094POPC   PO464848  12.080   8.207   5.864
 5094POPC   GL164849  12.049   8.240   6.164
 5094POPC   GL264850  12.032   8.061   6.164
 5094POPC   C1A64851  12.033   8.214   6.464
 5094POPC   D2A64852  12.032   8.193   6.764
 5094POPC   C3A64853  12.026   8.238   7.064
 5094POPC   C4A64854  12.068   8.206   7.364
 5094POPC   C1B64855  11.990   7.999   6.464
 5094POPC   C2B64856  12.003   7.952   6.764
 5094POPC   C3B64857  12.018   7.914   7.064
 5094POPC   C4B64858  11.965   7.963   7.364
 5095POPC   NC364859  23.677  37.698   5.564
 5095POPC   PO464860  23.737  37.697   5.864
 5095POPC   GL164861  23.733  37.665   6.164
 5095POPC   GL264862  23.561  37.729   6.164
 5095POPC   C1A64863  23.704  37.647   6.464
 5095POPC   D2A64864  23.670  37.660   6.764
 5095POPC   C3A64865  23.697  37.687   7.064
 5095POPC   C4A64866  23.759  37.696   7.364
 5095POPC   C1B64867  23.429  37.721   6.464
 5095POPC   C2B64868  23.463  37.774   6.764
 5095POPC   C3B64869  23.451  37.727   7.064
 5095POPC   C4B64870  23.483  37.736   7.364
 5096POPC   NC364871   9.755  36.159   5.564
 5096POPC   PO464872   9.756  36.151   5.864
 5096POPC   GL164873   9.733  36.150   6.164
 5096POPC   GL264874   9.756  35.963   6.164
 5096POPC   C1A64875   9.773  36.092   6.464
 5096POPC   D2A64876   9.708  36.174   6.764
 5096POPC   C3A64877   9.768  36.102   7.064
 5096POPC   C4A64878   9.790  36.112   7.364
 5096POPC   C1B64879   9.801  35.934   6.464
 5096POPC   C2B64880   9.852  35.935   6.764
 5096POPC   C3B64881   9.820  35.907   7.064
 5096POPC   C4B64882   9.842  35.849   7.364
 5097POPC   NC364883  34.602   2.021   5.564
 5097POPC   PO464884  34.540   1.971   5.864
 5097POPC   GL164885  34.553   2.008   6.164
 5097POPC   GL264886  34.618   2.063   6.164
 5097POPC   C1A64887  34.537   1.940   6.464
 5097POPC   D2A64888  34.543   1.991   6.764
 5097POPC   C3A64889  34.591   2.017   7.064
 5097POPC   C4A64890  34.604   1.946   7.364
 5097POPC   C1B64891  34.695   2.222   6.464
 5097POPC   C2B64892  34.718   2.221   6.764
 5097POPC   C3B64893  34.637   2.219   7.064
 5097POPC   C4B64894  34.684   2.165   7.364
 5098POPC   NC364895  12.086  35.378   5.564
 5098POPC   PO464896  12.090  35.318   5.864
 5098POPC   GL164897  12.095  35.392   6.164
 5098POPC   GL264898  11.927  35.340   6.164
 5098POPC   C1A64899  12.061  35.387   6.464
 5098POPC   D2A64900  12.123  35.334   6.764
 5098POPC   C3A64901  12.055  35.391   7.064
 5098POPC   C4A64902  12.044  35.316   7.364
 5098POPC   C1B64903  11.853  35.398   6.464
 5098POPC   C2B64904  11.814  35.405   6.764
 5098POPC   C3B64905  11.804  35.367   7.064
 5098POPC   C4B64906  11.853  35.366   7.364
 5099POPC   NC364907  13.647  33.768   5.564
 5099POPC   PO464908  13.676  33.793   5.864
 5099POPC   GL164909  13.624  33.822   6.164
 5099POPC   GL264910  13.475  33.826   6.164
 5099POPC   C1A64911  13.663  33.768   6.464
 5099POPC   D2A64912  13.639  33.814   6.764
 5099POPC   C3A64913  13.650  33.774   7.064
 5099POPC   C4A64914  13.661  33.815   7.364
 5099POPC   C1B64915  13.415  33.774   6.464
 5099POPC   C2B64916  13.382  33.757   6.764
 5099POPC   C3B64917  13.404  33.794   7.064
 5099POPC   C4B64918  13.407  33.769   7.364
 5100POPC   NC364919  28.332  23.745   5.564
 5100POPC   PO464920  28.401  23.704   5.864
 5100POPC   GL164921  28.412  23.695   6.164
 5100POPC   GL264922  28.377  23.829   6.164
 5100POPC   C1A64923  28.367  23.701   6.464
 5100POPC   D2A64924  28.393  23.672   6.764
 5100POPC   C3A64925  28.402  23.704   7.064
 5100POPC   C4A64926  28.337  23.672   7.364
 5100POPC   C1B64927  28.466  23.982   6.464
 5100POPC   C2B64928  28.434  23.990   6.764
 5100POPC   C3B64929  28.474  23.945   7.064
 5100POPC   C4B64930  28.414  23.986   7.364
 5101POPC   NC364931  19.811  24.520   5.564
 5101POPC   PO464932  19.861  24.532   5.864
 5101POPC   GL164933  19.866  24.514   6.164
 5101POPC   GL264934  19.956  24.571   6.164
 5101POPC   C1A64935  19.879  24.498   6.464
 5101POPC   D2A64936  19.832  24.467   6.764
 5101POPC   C3A64937  19.863  24.493   7.064
 5101POPC   C4A64938  19.806  24.521   7.364
 5101POPC   C1B64939  20.037  24.606   6.464
 5101POPC   C2B64940  20.023  24.603   6.764
 5101POPC   C3B64941  19.997  24.646   7.064
 5101POPC   C4B64942  20.078  24.679   7.364
 5102POPC   NC364943  21.394  35.385   5.564
 5102POPC   PO464944  21.421  35.336   5.864
 5102POPC   GL164945  21.422  35.325   6.164
 5102POPC   GL264946  21.327  35.457   6.164
 5102POPC   C1A64947  21.359  35.371   6.464
 5102POPC   D2A64948  21.361  35.310   6.764
 5102POPC   C3A64949  21.342  35.353   7.064
 5102POPC   C4A64950  21.356  35.312   7.364
 5102POPC   C1B64951  21.224  35.495   6.464
 5102POPC   C2B64952  21.200  35.563   6.764
 5102POPC   C3B64953  21.212  35.494   7.064
 5102POPC   C4B64954  21.231  35.480   7.364
 5103POPC   NC364955   4.328  16.759   5.564
 5103POPC   PO464956   4.335  16.693   5.864
 5103POPC   GL164957   4.364  16.717   6.164
 5103POPC   GL264958   4.238  16.758   6.164
 5103POPC   C1A64959   4.276  16.715   6.464
 5103POPC   D2A64960   4.316  16.692   6.764
 5103POPC   C3A64961   4.354  16.719   7.064
 5103POPC   C4A64962   4.310  16.724   7.364
 5103POPC   C1B64963   4.041  16.811   6.464
 5103POPC   C2B64964   4.123  16.813   6.764
 5103POPC   C3B64965   4.037  16.783   7.064
 5103POPC   C4B64966   4.065  16.840   7.364
 5104POPC   NC364967  19.042   8.954   5.564
 5104POPC   PO464968  19.071   8.931   5.864
 5104POPC   GL164969  19.041   8.954   6.164
 5104POPC   GL264970  18.952   8.951   6.164
 5104POPC   C1A64971  19.040   8.993   6.464
 5104POPC   D2A64972  19.101   8.995   6.764
 5104POPC   C3A64973  19.011   8.968   7.064
 5104POPC   C4A64974  19.053   8.930   7.364
 5104POPC   C1B64975  18.820   9.006   6.464
 5104POPC   C2B64976  18.829   9.033   6.764
 5104POPC   C3B64977  18.801   9.024   7.064
 5104POPC   C4B64978  18.824   9.021   7.364
 5105POPC   NC364979  19.054  26.829   5.564
 5105POPC   PO464980  19.025  26.772   5.864
 5105POPC   GL164981  19.030  26.836   6.164
 5105POPC   GL264982  18.980  26.842   6.164
 5105POPC   C1A64983  19.086  26.863   6.464
 5105POPC   D2A64984  19.036  26.783   6.764
 5105POPC   C3A64985  19.035  26.781   7.064
 5105POPC   C4A64986  19.046  26.860   7.364
 5105POPC   C1B64987  18.867  26.962   6.464
 5105POPC   C2B64988  18.875  26.964   6.764
 5105POPC   C3B64989  18.794  26.899   7.064
 5105POPC   C4B64990  18.869  26.897   7.364
 5106POPC   NC364991  12.829  38.473   5.564
 5106POPC   PO464992  12.842  38.449   5.864
 5106POPC   GL164993  12.838  38.477   6.164
 5106POPC   GL264994  12.904  38.544   6.164
 5106POPC   C1A64995  12.873  38.413   6.464
 5106POPC   D2A64996  12.861  38.411   6.764
 5106POPC   C3A64997  12.888  38.412   7.064
 5106POPC   C4A64998  12.829  38.425   7.364
 5106POPC   C1B64999  13.030  38.684   6.464
 5106POPC   C2B65000  13.027  38.615   6.764
 5106POPC   C3B65001  13.028  38.667   7.064
 5106POPC   C4B65002  13.055  38.605   7.364
 5107POPC   NC365003   4.359   2.815   5.564
 5107POPC   PO465004   4.302   2.799   5.864
 5107POPC   GL165005   4.366   2.716   6.164
 5107POPC   GL265006   4.192   2.812   6.164
 5107POPC   C1A65007   4.351   2.775   6.464
 5107POPC   D2A65008   4.350   2.769   6.764
 5107POPC   C3A65009   4.353   2.809   7.064
 5107POPC   C4A65010   4.307   2.774   7.364
 5107POPC   C1B65011   4.135   2.840   6.464
 5107POPC   C2B65012   4.111   2.860   6.764
 5107POPC   C3B65013   4.115   2.911   7.064
 5107POPC   C4B65014   4.076   2.861   7.364
 5108POPC   NC365015   1.213  28.342   5.564
 5108POPC   PO465016   1.213  28.358   5.864
 5108POPC   GL165017   1.201  28.392   6.164
 5108POPC   GL265018   1.159  28.422   6.164
 5108POPC   C1A65019   1.204  28.361   6.464
 5108POPC   D2A65020   1.169  28.331   6.764
 5108POPC   C3A65021   1.218  28.404   7.064
 5108POPC   C4A65022   1.170  28.419   7.364
 5108POPC   C1B65023   1.000  28.549   6.464
 5108POPC   C2B65024   0.971  28.549   6.764
 5108POPC   C3B65025   0.986  28.516   7.064
 5108POPC   C4B65026   1.024  28.493   7.364
 5109POPC   NC365027  13.659   1.999   5.564
 5109POPC   PO465028  13.598   1.940   5.864
 5109POPC   GL165029  13.588   2.016   6.164
 5109POPC   GL265030  13.549   2.086   6.164
 5109POPC   C1A65031  13.631   2.036   6.464
 5109POPC   D2A65032  13.673   1.955   6.764
 5109POPC   C3A65033  13.582   2.024   7.064
 5109POPC   C4A65034  13.621   2.019   7.364
 5109POPC   C1B65035  13.440   2.193   6.464
 5109POPC   C2B65036  13.463   2.218   6.764
 5109POPC   C3B65037  13.479   2.205   7.064
 5109POPC   C4B65038  13.475   2.213   7.364
 5110POPC   NC365039  36.882   3.551   5.564
 5110POPC   PO465040  36.953   3.513   5.864
 5110POPC   GL165041  36.909   3.532   6.164
 5110POPC   GL265042  36.981   3.610   6.164
 5110POPC   C1A65043  36.882   3.495   6.464
 5110POPC   D2A65044  36.870   3.507   6.764
 5110POPC   C3A65045  36.902   3.535   7.064
 5110POPC   C4A65046  36.921   3.575   7.364
 5110POPC   C1B65047  37.119   3.624   6.464
 5110POPC   C2B65048  37.181   3.646   6.764
 5110POPC   C3B65049  37.140   3.596   7.064
 5110POPC   C4B65050  37.135   3.612   7.364
 5111POPC   NC365051  32.992  12.089   5.564
 5111POPC   PO465052  32.987  12.056   5.864
 5111POPC   GL165053  33.051  12.028   6.164
 5111POPC   GL265054  33.183  12.093   6.164
 5111POPC   C1A65055  32.984  12.084   6.464
 5111POPC   D2A65056  33.009  12.034   6.764
 5111POPC   C3A65057  33.059  12.084   7.064
 5111POPC   C4A65058  33.031  12.080   7.364
 5111POPC   C1B65059  33.238  12.229   6.464
 5111POPC   C2B65060  33.219  12.213   6.764
 5111POPC   C3B65061  33.242  12.211   7.064
 5111POPC   C4B65062  33.205  12.169   7.364
 5112POPC   NC365063  32.979  33.843   5.564
 5112POPC   PO465064  32.983  33.845   5.864
 5112POPC   GL165065  32.996  33.798   6.164
 5112POPC   GL265066  33.106  33.667   6.164
 5112POPC   C1A65067  33.027  33.817   6.464
 5112POPC   D2A65068  33.027  33.754   6.764
 5112POPC   C3A65069  33.016  33.800   7.064
 5112POPC   C4A65070  32.990  33.818   7.364
 5112POPC   C1B65071  33.162  33.625   6.464
 5112POPC   C2B65072  33.177  33.584   6.764
 5112POPC   C3B65073  33.169  33.608   7.064
 5112POPC   C4B65074  33.102  33.601   7.364
 5113POPC   NC365075  33.817  12.071   5.564
 5113POPC   PO465076  33.775  12.111   5.864
 5113POPC   GL165077  33.786  12.047   6.164
 5113POPC   GL265078  33.701  12.210   6.164
 5113POPC   C1A65079  33.815  12.110   6.464
 5113POPC   D2A65080  33.795  12.080   6.764
 5113POPC   C3A65081  33.823  12.055   7.064
 5113POPC   C4A65082  33.780  12.048   7.364
 5113POPC   C1B65083  33.604  12.200   6.464
 5113POPC   C2B65084  33.635  12.221   6.764
 5113POPC   C3B65085  33.601  12.249   7.064
 5113POPC   C4B65086  33.659  12.244   7.364
 5114POPC   NC365087  19.045  21.418   5.564
 5114POPC   PO465088  19.042  21.433   5.864
 5114POPC   GL165089  19.019  21.395   6.164
 5114POPC   GL265090  19.058  21.525   6.164
 5114POPC   C1A65091  19.107  21.433   6.464
 5114POPC   D2A65092  19.093  21.353   6.764
 5114POPC   C3A65093  19.051  21.375   7.064
 5114POPC   C4A65094  19.044  21.414   7.364
 5114POPC   C1B65095  19.063  21.600   6.464
 5114POPC   C2B65096  19.044  21.671   6.764
 5114POPC   C3B65097  19.091  21.596   7.064
 5114POPC   C4B65098  19.020  21.629   7.364
 5115POPC   NC365099  33.070  43.151   5.564
 5115POPC   PO465100  33.005  43.062   5.864
 5115POPC   GL165101  33.043  43.121   6.164
 5115POPC   GL265102  33.047  43.019   6.164
 5115POPC   C1A65103  32.981  43.120   6.464
 5115POPC   D2A65104  32.977  43.077   6.764
 5115POPC   C3A65105  33.066  43.108   7.064
 5115POPC   C4A65106  33.050  43.110   7.364
 5115POPC   C1B65107  33.049  42.860   6.464
 5115POPC   C2B65108  33.046  42.837   6.764
 5115POPC   C3B65109  33.129  42.874   7.064
 5115POPC   C4B65110  33.076  42.902   7.364
 5116POPC   NC365111  13.650   9.723   5.564
 5116POPC   PO465112  13.588   9.788   5.864
 5116POPC   GL165113  13.619   9.742   6.164
 5116POPC   GL265114  13.670   9.584   6.164
 5116POPC   C1A65115  13.611   9.716   6.464
 5116POPC   D2A65116  13.607   9.726   6.764
 5116POPC   C3A65117  13.633   9.717   7.064
 5116POPC   C4A65118  13.587   9.751   7.364
 5116POPC   C1B65119  13.636   9.479   6.464
 5116POPC   C2B65120  13.616   9.501   6.764
 5116POPC   C3B65121  13.608   9.455   7.064
 5116POPC   C4B65122  13.601   9.474   7.364
 5117POPC   NC365123  29.940   2.788   5.564
 5117POPC   PO465124  29.925   2.769   5.864
 5117POPC   GL165125  29.894   2.731   6.164
 5117POPC   GL265126  30.056   2.777   6.164
 5117POPC   C1A65127  29.929   2.760   6.464
 5117POPC   D2A65128  29.944   2.766   6.764
 5117POPC   C3A65129  29.898   2.727   7.064
 5117POPC   C4A65130  29.937   2.756   7.364
 5117POPC   C1B65131  30.187   2.727   6.464
 5117POPC   C2B65132  30.149   2.660   6.764
 5117POPC   C3B65133  30.211   2.746   7.064
 5117POPC   C4B65134  30.186   2.726   7.364
 5118POPC   NC365135  38.421  42.328   5.564
 5118POPC   PO465136  38.426  42.377   5.864
 5118POPC   GL165137  38.458  42.288   6.164
 5118POPC   GL265138  38.283  42.335   6.164
 5118POPC   C1A65139  38.474  42.374   6.464
 5118POPC   D2A65140  38.492  42.379   6.764
 5118POPC   C3A65141  38.431  42.370   7.064
 5118POPC   C4A65142  38.471  42.377   7.364
 5118POPC   C1B65143  38.158  42.345   6.464
 5118POPC   C2B65144  38.203  42.278   6.764
 5118POPC   C3B65145  38.161  42.293   7.064
 5118POPC   C4B65146  38.166  42.290   7.364
 5119POPC   NC365147  15.999  22.209   5.564
 5119POPC   PO465148  15.931  22.207   5.864
 5119POPC   GL165149  15.983  22.156   6.164
 5119POPC   GL265150  15.848  22.264   6.164
 5119POPC   C1A65151  15.951  22.150   6.464
 5119POPC   D2A65152  15.921  22.161   6.764
 5119POPC   C3A65153  15.945  22.137   7.064
 5119POPC   C4A65154  15.965  22.128   7.364
 5119POPC   C1B65155  15.709  22.302   6.464
 5119POPC   C2B65156  15.801  22.298   6.764
 5119POPC   C3B65157  15.731  22.341   7.064
 5119POPC   C4B65158  15.745  22.294   7.364
 5120POPC   NC365159  33.808   5.881   5.564
 5120POPC   PO465160  33.819   5.916   5.864
 5120POPC   GL165161  33.806   5.834   6.164
 5120POPC   GL265162  33.790   5.964   6.164
 5120POPC   C1A65163  33.784   5.851   6.464
 5120POPC   D2A65164  33.818   5.915   6.764
 5120POPC   C3A65165  33.756   5.899   7.064
 5120POPC   C4A65166  33.795   5.875   7.364
 5120POPC   C1B65167  33.698   6.115   6.464
 5120POPC   C2B65168  33.664   6.104   6.764
 5120POPC   C3B65169  33.692   6.081   7.064
 5120POPC   C4B65170  33.739   6.068   7.364
 5121POPC   NC365171   5.874  43.879   5.564
 5121POPC   PO465172   5.831  43.866   5.864
 5121POPC   GL165173   5.821  43.935   6.164
 5121POPC   GL265174   5.946  43.809   6.164
 5121POPC   C1A65175   5.837  43.879   6.464
 5121POPC   D2A65176   5.890  43.901   6.764
 5121POPC   C3A65177   5.898  43.849   7.064
 5121POPC   C4A65178   5.871  43.906   7.364
 5121POPC   C1B65179   5.965  43.650   6.464
 5121POPC   C2B65180   5.935  43.680   6.764
 5121POPC   C3B65181   5.920  43.647   7.064
 5121POPC   C4B65182   5.969  43.641   7.364
 5122POPC   NC365183  18.296  15.217   5.564
 5122POPC   PO465184  18.282  15.220   5.864
 5122POPC   GL165185  18.309  15.218   6.164
 5122POPC   GL265186  18.296  15.298   6.164
 5122POPC   C1A65187  18.296  15.170   6.464
 5122POPC   D2A65188  18.270  15.206   6.764
 5122POPC   C3A65189  18.259  15.228   7.064
 5122POPC   C4A65190  18.301  15.139   7.364
 5122POPC   C1B65191  18.238  15.451   6.464
 5122POPC   C2B65192  18.271  15.468   6.764
 5122POPC   C3B65193  18.295  15.406   7.064
 5122POPC   C4B65194  18.229  15.449   7.364
 5123POPC   NC365195  24.524  36.161   5.564
 5123POPC   PO465196  24.478  36.128   5.864
 5123POPC   GL165197  24.501  36.090   6.164
 5123POPC   GL265198  24.573  36.120   6.164
 5123POPC   C1A65199  24.527  36.120   6.464
 5123POPC   D2A65200  24.482  36.081   6.764
 5123POPC   C3A65201  24.523  36.162   7.064
 5123POPC   C4A65202  24.505  36.173   7.364
 5123POPC   C1B65203  24.672  36.052   6.464
 5123POPC   C2B65204  24.719  35.987   6.764
 5123POPC   C3B65205  24.734  36.014   7.064
 5123POPC   C4B65206  24.737  35.999   7.364
 5124POPC   NC365207   3.493  19.865   5.564
 5124POPC   PO465208   3.518  19.841   5.864
 5124POPC   GL165209   3.564  19.844   6.164
 5124POPC   GL265210   3.468  19.973   6.164
 5124POPC   C1A65211   3.527  19.882   6.464
 5124POPC   D2A65212   3.499  19.869   6.764
 5124POPC   C3A65213   3.527  19.875   7.064
 5124POPC   C4A65214   3.556  19.821   7.364
 5124POPC   C1B65215   3.401  20.015   6.464
 5124POPC   C2B65216   3.434  20.081   6.764
 5124POPC   C3B65217   3.400  20.075   7.064
 5124POPC   C4B65218   3.408  20.009   7.364
 5125POPC   NC365219  29.887  29.927   5.564
 5125POPC   PO465220  29.965  29.907   5.864
 5125POPC   GL165221  29.965  29.875   6.164
 5125POPC   GL265222  29.836  30.022   6.164
 5125POPC   C1A65223  29.917  29.908   6.464
 5125POPC   D2A65224  29.951  29.878   6.764
 5125POPC   C3A65225  29.875  29.886   7.064
 5125POPC   C4A65226  29.888  29.872   7.364
 5125POPC   C1B65227  29.689  30.058   6.464
 5125POPC   C2B65228  29.766  30.102   6.764
 5125POPC   C3B65229  29.754  30.016   7.064
 5125POPC   C4B65230  29.757  30.100   7.364
 5126POPC   NC365231  14.376  22.154   5.564
 5126POPC   PO465232  14.363  22.191   5.864
 5126POPC   GL165233  14.359  22.162   6.164
 5126POPC   GL265234  14.446  22.297   6.164
 5126POPC   C1A65235  14.354  22.198   6.464
 5126POPC   D2A65236  14.398  22.141   6.764
 5126POPC   C3A65237  14.434  22.163   7.064
 5126POPC   C4A65238  14.406  22.202   7.364
 5126POPC   C1B65239  14.594  22.389   6.464
 5126POPC   C2B65240  14.577  22.320   6.764
 5126POPC   C3B65241  14.587  22.380   7.064
 5126POPC   C4B65242  14.570  22.334   7.364
 5127POPC   NC365243   6.601  29.970   5.564
 5127POPC   PO465244   6.607  29.938   5.864
 5127POPC   GL165245   6.605  29.887   6.164
 5127POPC   GL265246   6.628  29.788   6.164
 5127POPC   C1A65247   6.614  29.950   6.464
 5127POPC   D2A65248   6.602  29.935   6.764
 5127POPC   C3A65249   6.659  29.908   7.064
 5127POPC   C4A65250   6.628  29.966   7.364
 5127POPC   C1B65251   6.627  29.636   6.464
 5127POPC   C2B65252   6.646  29.715   6.764
 5127POPC   C3B65253   6.660  29.678   7.064
 5127POPC   C4B65254   6.697  29.625   7.364
 5128POPC   NC365255   7.381  19.087   5.564
 5128POPC   PO465256   7.428  19.107   5.864
 5128POPC   GL165257   7.444  19.039   6.164
 5128POPC   GL265258   7.479  18.926   6.164
 5128POPC   C1A65259   7.452  19.105   6.464
 5128POPC   D2A65260   7.420  19.052   6.764
 5128POPC   C3A65261   7.392  19.066   7.064
 5128POPC   C4A65262   7.422  19.086   7.364
 5128POPC   C1B65263   7.618  18.896   6.464
 5128POPC   C2B65264   7.567  18.850   6.764
 5128POPC   C3B65265   7.638  18.907   7.064
 5128POPC   C4B65266   7.642  18.850   7.364
 5129POPC   NC365267  40.792  36.103   5.564
 5129POPC   PO465268  40.779  36.153   5.864
 5129POPC   GL165269  40.825  36.092   6.164
 5129POPC   GL265270  40.700  36.090   6.164
 5129POPC   C1A65271  40.770  36.088   6.464
 5129POPC   D2A65272  40.747  36.144   6.764
 5129POPC   C3A65273  40.755  36.160   7.064
 5129POPC   C4A65274  40.783  36.104   7.364
 5129POPC   C1B65275  40.518  36.041   6.464
 5129POPC   C2B65276  40.508  36.025   6.764
 5129POPC   C3B65277  40.527  36.040   7.064
 5129POPC   C4B65278  40.564  36.028   7.364
 5130POPC   NC365279  11.306  36.098   5.564
 5130POPC   PO465280  11.341  36.078   5.864
 5130POPC   GL165281  11.329  36.149   6.164
 5130POPC   GL265282  11.265  35.988   6.164
 5130POPC   C1A65283  11.283  36.158   6.464
 5130POPC   D2A65284  11.304  36.167   6.764
 5130POPC   C3A65285  11.319  36.109   7.064
 5130POPC   C4A65286  11.251  36.087   7.364
 5130POPC   C1B65287  11.211  35.944   6.464
 5130POPC   C2B65288  11.148  35.869   6.764
 5130POPC   C3B65289  11.212  35.896   7.064
 5130POPC   C4B65290  11.149  35.901   7.364
 5131POPC   NC365291  25.994  42.335   5.564
 5131POPC   PO465292  26.040  42.365   5.864
 5131POPC   GL165293  26.021  42.339   6.164
 5131POPC   GL265294  26.192  42.243   6.164
 5131POPC   C1A65295  26.057  42.310   6.464
 5131POPC   D2A65296  26.091  42.319   6.764
 5131POPC   C3A65297  25.993  42.303   7.064
 5131POPC   C4A65298  26.002  42.325   7.364
 5131POPC   C1B65299  26.230  42.179   6.464
 5131POPC   C2B65300  26.249  42.178   6.764
 5131POPC   C3B65301  26.301  42.186   7.064
 5131POPC   C4B65302  26.273  42.184   7.364
 5132POPC   NC365303  19.022  10.525   5.564
 5132POPC   PO465304  19.029  10.545   5.864
 5132POPC   GL165305  19.094  10.475   6.164
 5132POPC   GL265306  19.081  10.593   6.164
 5132POPC   C1A65307  19.077  10.546   6.464
 5132POPC   D2A65308  19.035  10.528   6.764
 5132POPC   C3A65309  19.009  10.493   7.064
 5132POPC   C4A65310  19.028  10.511   7.364
 5132POPC   C1B65311  19.196  10.737   6.464
 5132POPC   C2B65312  19.224  10.714   6.764
 5132POPC   C3B65313  19.215  10.773   7.064
 5132POPC   C4B65314  19.200  10.740   7.364
 5133POPC   NC365315  27.612  40.003   5.564
 5133POPC   PO465316  27.594  40.056   5.864
 5133POPC   GL165317  27.550  40.014   6.164
 5133POPC   GL265318  27.617  40.096   6.164
 5133POPC   C1A65319  27.584  40.046   6.464
 5133POPC   D2A65320  27.630  40.008   6.764
 5133POPC   C3A65321  27.642  39.961   7.064
 5133POPC   C4A65322  27.613  40.036   7.364
 5133POPC   C1B65323  27.512  40.247   6.464
 5133POPC   C2B65324  27.508  40.217   6.764
 5133POPC   C3B65325  27.543  40.221   7.064
 5133POPC   C4B65326  27.589  40.206   7.364
 5134POPC   NC365327  13.673   2.731   5.564
 5134POPC   PO465328  13.614   2.791   5.864
 5134POPC   GL165329  13.600   2.724   6.164
 5134POPC   GL265330  13.780   2.789   6.164
 5134POPC   C1A65331  13.673   2.804   6.464
 5134POPC   D2A65332  13.630   2.754   6.764
 5134POPC   C3A65333  13.622   2.743   7.064
 5134POPC   C4A65334  13.631   2.743   7.364
 5134POPC   C1B65335  13.895   2.835   6.464
 5134POPC   C2B65336  13.855   2.831   6.764
 5134POPC   C3B65337  13.855   2.817   7.064
 5134POPC   C4B65338  13.903   2.899   7.364
 5135POPC   NC365339  22.187  19.091   5.564
 5135POPC   PO465340  22.201  19.061   5.864
 5135POPC   GL165341  22.186  19.088   6.164
 5135POPC   GL265342  22.094  19.141   6.164
 5135POPC   C1A65343  22.121  19.098   6.464
 5135POPC   D2A65344  22.206  19.044   6.764
 5135POPC   C3A65345  22.154  19.094   7.064
 5135POPC   C4A65346  22.149  19.108   7.364
 5135POPC   C1B65347  21.984  19.219   6.464
 5135POPC   C2B65348  21.961  19.217   6.764
 5135POPC   C3B65349  22.026  19.190   7.064
 5135POPC   C4B65350  22.009  19.227   7.364
 5136POPC   NC365351  30.731  28.402   5.564
 5136POPC   PO465352  30.717  28.346   5.864
 5136POPC   GL165353  30.725  28.331   6.164
 5136POPC   GL265354  30.802  28.416   6.164
 5136POPC   C1A65355  30.676  28.400   6.464
 5136POPC   D2A65356  30.649  28.341   6.764
 5136POPC   C3A65357  30.665  28.384   7.064
 5136POPC   C4A65358  30.661  28.404   7.364
 5136POPC   C1B65359  30.914  28.408   6.464
 5136POPC   C2B65360  30.944  28.417   6.764
 5136POPC   C3B65361  30.970  28.464   7.064
 5136POPC   C4B65362  30.947  28.379   7.364
 5137POPC   NC365363  18.240  29.951   5.564
 5137POPC   PO465364  18.274  29.893   5.864
 5137POPC   GL165365  18.304  29.908   6.164
 5137POPC   GL265366  18.205  29.845   6.164
 5137POPC   C1A65367  18.299  29.969   6.464
 5137POPC   D2A65368  18.289  29.926   6.764
 5137POPC   C3A65369  18.258  29.932   7.064
 5137POPC   C4A65370  18.256  29.926   7.364
 5137POPC   C1B65371  18.078  29.764   6.464
 5137POPC   C2B65372  18.125  29.752   6.764
 5137POPC   C3B65373  18.157  29.739   7.064
 5137POPC   C4B65374  18.106  29.725   7.364
 5138POPC   NC365375   1.246  22.176   5.564
 5138POPC   PO465376   1.249  22.172   5.864
 5138POPC   GL165377   1.174  22.173   6.164
 5138POPC   GL265378   1.221  22.063   6.164
 5138POPC   C1A65379   1.211  22.188   6.464
 5138POPC   D2A65380   1.177  22.163   6.764
 5138POPC   C3A65381   1.191  22.174   7.064
 5138POPC   C4A65382   1.172  22.122   7.364
 5138POPC   C1B65383   1.254  21.948   6.464
 5138POPC   C2B65384   1.251  21.890   6.764
 5138POPC   C3B65385   1.249  21.941   7.064
 5138POPC   C4B65386   1.184  21.902   7.364
 5139POPC   NC365387  36.131  37.663   5.564
 5139POPC   PO465388  36.131  37.644   5.864
 5139POPC   GL165389  36.152  37.689   6.164
 5139POPC   GL265390  36.257  37.650   6.164
 5139POPC   C1A65391  36.098  37.691   6.464
 5139POPC   D2A65392  36.128  37.699   6.764
 5139POPC   C3A65393  36.174  37.690   7.064
 5139POPC   C4A65394  36.174  37.684   7.364
 5139POPC   C1B65395  36.343  37.591   6.464
 5139POPC   C2B65396  36.347  37.578   6.764
 5139POPC   C3B65397  36.389  37.616   7.064
 5139POPC   C4B65398  36.349  37.602   7.364
 5140POPC   NC365399  12.033   9.717   5.564
 5140POPC   PO465400  12.054   9.761   5.864
 5140POPC   GL165401  12.040   9.779   6.164
 5140POPC   GL265402  12.141   9.760   6.164
 5140POPC   C1A65403  12.118   9.736   6.464
 5140POPC   D2A65404  12.115   9.797   6.764
 5140POPC   C3A65405  12.043   9.716   7.064
 5140POPC   C4A65406  12.028   9.711   7.364
 5140POPC   C1B65407  12.260   9.842   6.464
 5140POPC   C2B65408  12.305   9.820   6.764
 5140POPC   C3B65409  12.308   9.846   7.064
 5140POPC   C4B65410  12.257   9.828   7.364
 5141POPC   NC365411  17.535  33.058   5.564
 5141POPC   PO465412  17.480  32.989   5.864
 5141POPC   GL165413  17.554  33.004   6.164
 5141POPC   GL265414  17.510  32.915   6.164
 5141POPC   C1A65415  17.550  33.022   6.464
 5141POPC   D2A65416  17.521  33.018   6.764
 5141POPC   C3A65417  17.507  33.041   7.064
 5141POPC   C4A65418  17.535  33.044   7.364
 5141POPC   C1B65419  17.554  32.766   6.464
 5141POPC   C2B65420  17.481  32.798   6.764
 5141POPC   C3B65421  17.495  32.796   7.064
 5141POPC   C4B65422  17.555  32.759   7.364
 5142POPC   NC365423  14.406  12.107   5.564
 5142POPC   PO465424  14.437  12.066   5.864
 5142POPC   GL165425  14.359  12.041   6.164
 5142POPC   GL265426  14.282  11.973   6.164
 5142POPC   C1A65427  14.399  12.101   6.464
 5142POPC   D2A65428  14.417  12.031   6.764
 5142POPC   C3A65429  14.402  12.114   7.064
 5142POPC   C4A65430  14.425  12.037   7.364
 5142POPC   C1B65431  14.170  11.993   6.464
 5142POPC   C2B65432  14.230  11.946   6.764
 5142POPC   C3B65433  14.210  11.982   7.064
 5142POPC   C4B65434  14.201  11.919   7.364
 5143POPC   NC365435  36.135  41.571   5.564
 5143POPC   PO465436  36.092  41.509   5.864
 5143POPC   GL165437  36.164  41.530   6.164
 5143POPC   GL265438  36.243  41.485   6.164
 5143POPC   C1A65439  36.131  41.536   6.464
 5143POPC   D2A65440  36.133  41.595   6.764
 5143POPC   C3A65441  36.177  41.579   7.064
 5143POPC   C4A65442  36.164  41.511   7.364
 5143POPC   C1B65443  36.332  41.482   6.464
 5143POPC   C2B65444  36.374  41.438   6.764
 5143POPC   C3B65445  36.310  41.447   7.064
 5143POPC   C4B65446  36.393  41.506   7.364
 5144POPC   NC365447  15.149  29.182   5.564
 5144POPC   PO465448  15.183  29.152   5.864
 5144POPC   GL165449  15.154  29.167   6.164
 5144POPC   GL265450  15.287  29.034   6.164
 5144POPC   C1A65451  15.147  29.106   6.464
 5144POPC   D2A65452  15.187  29.195   6.764
 5144POPC   C3A65453  15.225  29.170   7.064
 5144POPC   C4A65454  15.186  29.173   7.364
 5144POPC   C1B65455  15.414  28.941   6.464
 5144POPC   C2B65456  15.331  28.994   6.764
 5144POPC   C3B65457  15.372  29.025   7.064
 5144POPC   C4B65458  15.335  28.975   7.364
 5145POPC   NC365459   6.639  12.083   5.564
 5145POPC   PO465460   6.600  12.118   5.864
 5145POPC   GL165461   6.652  12.115   6.164
 5145POPC   GL265462   6.714  12.116   6.164
 5145POPC   C1A65463   6.636  12.033   6.464
 5145POPC   D2A65464   6.681  12.107   6.764
 5145POPC   C3A65465   6.659  12.070   7.064
 5145POPC   C4A65466   6.597  12.047   7.364
 5145POPC   C1B65467   6.866  12.190   6.464
 5145POPC   C2B65468   6.864  12.157   6.764
 5145POPC   C3B65469   6.903  12.217   7.064
 5145POPC   C4B65470   6.853  12.149   7.364
 5146POPC   NC365471  18.315  24.504   5.564
 5146POPC   PO465472  18.234  24.509   5.864
 5146POPC   GL165473  18.258  24.512   6.164
 5146POPC   GL265474  18.258  24.614   6.164
 5146POPC   C1A65475  18.311  24.448   6.464
 5146POPC   D2A65476  18.248  24.509   6.764
 5146POPC   C3A65477  18.262  24.441   7.064
 5146POPC   C4A65478  18.297  24.453   7.364
 5146POPC   C1B65479  18.329  24.768   6.464
 5146POPC   C2B65480  18.361  24.688   6.764
 5146POPC   C3B65481  18.351  24.748   7.064
 5146POPC   C4B65482  18.299  24.726   7.364
 5147POPC   NC365483  40.811  36.910   5.564
 5147POPC   PO465484  40.799  36.856   5.864
 5147POPC   GL165485  40.823  36.862   6.164
 5147POPC   GL265486  40.823  36.769   6.164
 5147POPC   C1A65487  40.740  36.907   6.464
 5147POPC   D2A65488  40.771  36.900   6.764
 5147POPC   C3A65489  40.804  36.923   7.064
 5147POPC   C4A65490  40.765  36.935   7.364
 5147POPC   C1B65491  40.937  36.719   6.464
 5147POPC   C2B65492  40.982  36.763   6.764
 5147POPC   C3B65493  40.909  36.712   7.064
 5147POPC   C4B65494  40.926  36.691   7.364
 5148POPC   NC365495  26.085  19.086   5.564
 5148POPC   PO465496  26.016  19.057   5.864
 5148POPC   GL165497  26.036  19.073   6.164
 5148POPC   GL265498  26.197  19.045   6.164
 5148POPC   C1A65499  26.055  19.024   6.464
 5148POPC   D2A65500  26.011  19.070   6.764
 5148POPC   C3A65501  26.082  19.016   7.064
 5148POPC   C4A65502  26.026  19.010   7.364
 5148POPC   C1B65503  26.323  19.024   6.464
 5148POPC   C2B65504  26.338  19.056   6.764
 5148POPC   C3B65505  26.255  19.066   7.064
 5148POPC   C4B65506  26.258  19.011   7.364
 5149POPC   NC365507  18.310  42.368   5.564
 5149POPC   PO465508  18.262  42.379   5.864
 5149POPC   GL165509  18.251  42.355   6.164
 5149POPC   GL265510  18.316  42.236   6.164
 5149POPC   C1A65511  18.303  42.331   6.464
 5149POPC   D2A65512  18.317  42.350   6.764
 5149POPC   C3A65513  18.279  42.329   7.064
 5149POPC   C4A65514  18.235  42.351   7.364
 5149POPC   C1B65515  18.486  42.099   6.464
 5149POPC   C2B65516  18.489  42.189   6.764
 5149POPC   C3B65517  18.471  42.182   7.064
 5149POPC   C4B65518  18.440  42.159   7.364
 5150POPC   NC365519  18.300   8.242   5.564
 5150POPC   PO465520  18.256   8.153   5.864
 5150POPC   GL165521  18.266   8.234   6.164
 5150POPC   GL265522  18.143   8.287   6.164
 5150POPC   C1A65523  18.287   8.158   6.464
 5150POPC   D2A65524  18.234   8.159   6.764
 5150POPC   C3A65525  18.258   8.224   7.064
 5150POPC   C4A65526  18.236   8.181   7.364
 5150POPC   C1B65527  18.041   8.369   6.464
 5150POPC   C2B65528  18.055   8.303   6.764
 5150POPC   C3B65529  18.062   8.352   7.064
 5150POPC   C4B65530  18.091   8.342   7.364
 5151POPC   NC365531   4.297  21.416   5.564
 5151POPC   PO465532   4.315  21.424   5.864
 5151POPC   GL165533   4.340  21.405   6.164
 5151POPC   GL265534   4.225  21.461   6.164
 5151POPC   C1A65535   4.344  21.414   6.464
 5151POPC   D2A65536   4.302  21.366   6.764
 5151POPC   C3A65537   4.341  21.427   7.064
 5151POPC   C4A65538   4.334  21.402   7.364
 5151POPC   C1B65539   4.201  21.576   6.464
 5151POPC   C2B65540   4.108  21.587   6.764
 5151POPC   C3B65541   4.133  21.615   7.064
 5151POPC   C4B65542   4.159  21.618   7.364
 5152POPC   NC365543  32.983  16.692   5.564
 5152POPC   PO465544  33.068  16.722   5.864
 5152POPC   GL165545  32.996  16.701   6.164
 5152POPC   GL265546  32.926  16.738   6.164
 5152POPC   C1A65547  33.049  16.732   6.464
 5152POPC   D2A65548  33.036  16.704   6.764
 5152POPC   C3A65549  33.046  16.700   7.064
 5152POPC   C4A65550  33.021  16.710   7.364
 5152POPC   C1B65551  32.783  16.709   6.464
 5152POPC   C2B65552  32.797  16.721   6.764
 5152POPC   C3B65553  32.774  16.681   7.064
 5152POPC   C4B65554  32.768  16.673   7.364
 5153POPC   NC365555  24.510   8.952   5.564
 5153POPC   PO465556  24.461   8.947   5.864
 5153POPC   GL165557  24.533   8.994   6.164
 5153POPC   GL265558  24.404   8.903   6.164
 5153POPC   C1A65559  24.499   8.941   6.464
 5153POPC   D2A65560  24.497   8.939   6.764
 5153POPC   C3A65561  24.444   8.986   7.064
 5153POPC   C4A65562  24.534   8.997   7.364
 5153POPC   C1B65563  24.310   8.788   6.464
 5153POPC   C2B65564  24.344   8.776   6.764
 5153POPC   C3B65565  24.367   8.801   7.064
 5153POPC   C4B65566  24.347   8.735   7.364
 5154POPC   NC365567  23.685  21.337   5.564
 5154POPC   PO465568  23.727  21.414   5.864
 5154POPC   GL165569  23.759  21.380   6.164
 5154POPC   GL265570  23.756  21.557   6.164
 5154POPC   C1A65571  23.698  21.405   6.464
 5154POPC   D2A65572  23.763  21.412   6.764
 5154POPC   C3A65573  23.693  21.431   7.064
 5154POPC   C4A65574  23.709  21.349   7.364
 5154POPC   C1B65575  23.751  21.599   6.464
 5154POPC   C2B65576  23.675  21.588   6.764
 5154POPC   C3B65577  23.711  21.643   7.064
 5154POPC   C4B65578  23.708  21.639   7.364
 5155POPC   NC365579  26.836  19.050   5.564
 5155POPC   PO465580  26.841  19.083   5.864
 5155POPC   GL165581  26.853  19.090   6.164
 5155POPC   GL265582  26.962  18.950   6.164
 5155POPC   C1A65583  26.842  19.039   6.464
 5155POPC   D2A65584  26.855  19.036   6.764
 5155POPC   C3A65585  26.816  19.058   7.064
 5155POPC   C4A65586  26.842  19.015   7.364
 5155POPC   C1B65587  27.050  18.855   6.464
 5155POPC   C2B65588  27.008  18.943   6.764
 5155POPC   C3B65589  27.007  18.849   7.064
 5155POPC   C4B65590  26.976  18.873   7.364
 5156POPC   NC365591  22.916  43.869   5.564
 5156POPC   PO465592  22.949  43.869   5.864
 5156POPC   GL165593  22.948  43.932   6.164
 5156POPC   GL265594  22.986  43.795   6.164
 5156POPC   C1A65595  22.907  43.908   6.464
 5156POPC   D2A65596  22.940  43.934   6.764
 5156POPC   C3A65597  22.952  43.861   7.064
 5156POPC   C4A65598  22.917  43.892   7.364
 5156POPC   C1B65599  23.025  43.680   6.464
 5156POPC   C2B65600  23.026  43.627   6.764
 5156POPC   C3B65601  22.995  43.635   7.064
 5156POPC   C4B65602  22.988  43.611   7.364
 5157POPC   NC365603   8.932   5.061   5.564
 5157POPC   PO465604   8.949   5.085   5.864
 5157POPC   GL165605   9.009   5.104   6.164
 5157POPC   GL265606   8.900   5.057   6.164
 5157POPC   C1A65607   8.958   5.045   6.464
 5157POPC   D2A65608   9.018   5.085   6.764
 5157POPC   C3A65609   8.940   5.131   7.064
 5157POPC   C4A65610   8.926   5.075   7.364
 5157POPC   C1B65611   8.739   4.997   6.464
 5157POPC   C2B65612   8.704   4.989   6.764
 5157POPC   C3B65613   8.704   5.011   7.064
 5157POPC   C4B65614   8.760   5.030   7.364
 5158POPC   NC365615  15.925  27.627   5.564
 5158POPC   PO465616  15.996  27.624   5.864
 5158POPC   GL165617  16.002  27.547   6.164
 5158POPC   GL265618  16.046  27.671   6.164
 5158POPC   C1A65619  15.991  27.626   6.464
 5158POPC   D2A65620  15.943  27.598   6.764
 5158POPC   C3A65621  15.953  27.555   7.064
 5158POPC   C4A65622  15.935  27.614   7.364
 5158POPC   C1B65623  16.091  27.844   6.464
 5158POPC   C2B65624  16.133  27.832   6.764
 5158POPC   C3B65625  16.053  27.843   7.064
 5158POPC   C4B65626  16.115  27.777   7.364
 5159POPC   NC365627  33.760  36.946   5.564
 5159POPC   PO465628  33.829  36.898   5.864
 5159POPC   GL165629  33.772  36.948   6.164
 5159POPC   GL265630  33.682  36.899   6.164
 5159POPC   C1A65631  33.802  36.924   6.464
 5159POPC   D2A65632  33.780  36.933   6.764
 5159POPC   C3A65633  33.778  36.906   7.064
 5159POPC   C4A65634  33.782  36.944   7.364
 5159POPC   C1B65635  33.563  36.790   6.464
 5159POPC   C2B65636  33.601  36.793   6.764
 5159POPC   C3B65637  33.596  36.811   7.064
 5159POPC   C4B65638  33.580  36.846   7.364
 5160POPC   NC365639  11.329  32.282   5.564
 5160POPC   PO465640  11.342  32.212   5.864
 5160POPC   GL165641  11.259  32.257   6.164
 5160POPC   GL265642  11.219  32.144   6.164
 5160POPC   C1A65643  11.333  32.283   6.464
 5160POPC   D2A65644  11.270  32.244   6.764
 5160POPC   C3A65645  11.276  32.254   7.064
 5160POPC   C4A65646  11.250  32.280   7.364
 5160POPC   C1B65647  11.171  32.100   6.464
 5160POPC   C2B65648  11.097  32.080   6.764
 5160POPC   C3B65649  11.083  32.103   7.064
 5160POPC   C4B65650  11.123  32.083   7.364
 5161POPC   NC365651   6.620  32.291   5.564
 5161POPC   PO465652   6.692  32.281   5.864
 5161POPC   GL165653   6.660  32.235   6.164
 5161POPC   GL265654   6.570  32.159   6.164
 5161POPC   C1A65655   6.648  32.266   6.464
 5161POPC   D2A65656   6.675  32.235   6.764
 5161POPC   C3A65657   6.632  32.213   7.064
 5161POPC   C4A65658   6.619  32.227   7.364
 5161POPC   C1B65659   6.517  32.055   6.464
 5161POPC   C2B65660   6.561  32.047   6.764
 5161POPC   C3B65661   6.539  32.059   7.064
 5161POPC   C4B65662   6.566  32.071   7.364
 5162POPC   NC365663  12.887  14.379   5.564
 5162POPC   PO465664  12.880  14.388   5.864
 5162POPC   GL165665  12.805  14.391   6.164
 5162POPC   GL265666  12.777  14.473   6.164
 5162POPC   C1A65667  12.829  14.360   6.464
 5162POPC   D2A65668  12.806  14.403   6.764
 5162POPC   C3A65669  12.877  14.358   7.064
 5162POPC   C4A65670  12.820  14.389   7.364
 5162POPC   C1B65671  12.634  14.523   6.464
 5162POPC   C2B65672  12.652  14.601   6.764
 5162POPC   C3B65673  12.644  14.524   7.064
 5162POPC   C4B65674  12.644  14.525   7.364
 5163POPC   NC365675  11.314  19.091   5.564
 5163POPC   PO465676  11.333  19.064   5.864
 5163POPC   GL165677  11.287  19.075   6.164
 5163POPC   GL265678  11.302  19.149   6.164
 5163POPC   C1A65679  11.282  19.065   6.464
 5163POPC   D2A65680  11.258  19.063   6.764
 5163POPC   C3A65681  11.320  19.016   7.064
 5163POPC   C4A65682  11.296  19.028   7.364
 5163POPC   C1B65683  11.244  19.309   6.464
 5163POPC   C2B65684  11.283  19.282   6.764
 5163POPC   C3B65685  11.220  19.327   7.064
 5163POPC   C4B65686  11.305  19.308   7.364
 5164POPC   NC365687  38.440   1.211   5.564
 5164POPC   PO465688  38.428   1.178   5.864
 5164POPC   GL165689  38.491   1.177   6.164
 5164POPC   GL265690  38.602   1.211   6.164
 5164POPC   C1A65691  38.483   1.229   6.464
 5164POPC   D2A65692  38.499   1.252   6.764
 5164POPC   C3A65693  38.406   1.238   7.064
 5164POPC   C4A65694  38.476   1.228   7.364
 5164POPC   C1B65695  38.658   1.173   6.464
 5164POPC   C2B65696  38.675   1.091   6.764
 5164POPC   C3B65697  38.667   1.096   7.064
 5164POPC   C4B65698  38.681   1.135   7.364
 5165POPC   NC365699   8.170  33.834   5.564
 5165POPC   PO465700   8.148  33.787   5.864
 5165POPC   GL165701   8.168  33.845   6.164
 5165POPC   GL265702   8.065  33.738   6.164
 5165POPC   C1A65703   8.236  33.789   6.464
 5165POPC   D2A65704   8.209  33.774   6.764
 5165POPC   C3A65705   8.225  33.846   7.064
 5165POPC   C4A65706   8.187  33.822   7.364
 5165POPC   C1B65707   7.979  33.687   6.464
 5165POPC   C2B65708   7.991  33.746   6.764
 5165POPC   C3B65709   7.996  33.703   7.064
 5165POPC   C4B65710   7.959  33.711   7.364
 5166POPC   NC365711   9.719  15.201   5.564
 5166POPC   PO465712   9.775  15.225   5.864
 5166POPC   GL165713   9.781  15.203   6.164
 5166POPC   GL265714   9.581  15.152   6.164
 5166POPC   C1A65715   9.739  15.140   6.464
 5166POPC   D2A65716   9.750  15.197   6.764
 5166POPC   C3A65717   9.703  15.222   7.064
 5166POPC   C4A65718   9.717  15.206   7.364
 5166POPC   C1B65719   9.503  15.080   6.464
 5166POPC   C2B65720   9.522  15.083   6.764
 5166POPC   C3B65721   9.550  15.133   7.064
 5166POPC   C4B65722   9.494  15.087   7.364
 5167POPC   NC365723  38.463   8.931   5.564
 5167POPC   PO465724  38.498   8.991   5.864
 5167POPC   GL165725  38.476   8.961   6.164
 5167POPC   GL265726  38.602   8.903   6.164
 5167POPC   C1A65727  38.445   9.001   6.464
 5167POPC   D2A65728  38.430   8.939   6.764
 5167POPC   C3A65729  38.410   8.958   7.064
 5167POPC   C4A65730  38.500   9.006   7.364
 5167POPC   C1B65731  38.751   8.885   6.464
 5167POPC   C2B65732  38.688   8.970   6.764
 5167POPC   C3B65733  38.747   8.955   7.064
 5167POPC   C4B65734  38.691   8.915   7.364
 5168POPC   NC365735  16.771  10.487   5.564
 5168POPC   PO465736  16.710  10.483   5.864
 5168POPC   GL165737  16.734  10.537   6.164
 5168POPC   GL265738  16.730  10.401   6.164
 5168POPC   C1A65739  16.684  10.572   6.464
 5168POPC   D2A65740  16.760  10.551   6.764
 5168POPC   C3A65741  16.704  10.522   7.064
 5168POPC   C4A65742  16.746  10.513   7.364
 5168POPC   C1B65743  16.733  10.227   6.464
 5168POPC   C2B65744  16.678  10.305   6.764
 5168POPC   C3B65745  16.666  10.303   7.064
 5168POPC   C4B65746  16.722  10.303   7.364
 5169POPC   NC365747  42.360  42.368   5.564
 5169POPC   PO465748  42.345  42.310   5.864
 5169POPC   GL165749  42.375  42.358   6.164
 5169POPC   GL265750  42.252  42.486   6.164
 5169POPC   C1A65751  42.362  42.366   6.464
 5169POPC   D2A65752  42.347  42.324   6.764
 5169POPC   C3A65753  42.308  42.292   7.064
 5169POPC   C4A65754  42.296  42.320   7.364
 5169POPC   C1B65755  42.205  42.591   6.464
 5169POPC   C2B65756  42.180  42.549   6.764
 5169POPC   C3B65757  42.235  42.574   7.064
 5169POPC   C4B65758  42.185  42.601   7.364
 5170POPC   NC365759  20.646  37.646   5.564
 5170POPC   PO465760  20.580  37.635   5.864
 5170POPC   GL165761  20.591  37.701   6.164
 5170POPC   GL265762  20.737  37.785   6.164
 5170POPC   C1A65763  20.620  37.635   6.464
 5170POPC   D2A65764  20.657  37.705   6.764
 5170POPC   C3A65765  20.609  37.726   7.064
 5170POPC   C4A65766  20.653  37.697   7.364
 5170POPC   C1B65767  20.758  37.835   6.464
 5170POPC   C2B65768  20.808  37.906   6.764
 5170POPC   C3B65769  20.798  37.837   7.064
 5170POPC   C4B65770  20.816  37.812   7.364
 5171POPC   NC365771   6.654  35.319   5.564
 5171POPC   PO465772   6.640  35.394   5.864
 5171POPC   GL165773   6.608  35.332   6.164
 5171POPC   GL265774   6.623  35.510   6.164
 5171POPC   C1A65775   6.600  35.358   6.464
 5171POPC   D2A65776   6.600  35.343   6.764
 5171POPC   C3A65777   6.631  35.304   7.064
 5171POPC   C4A65778   6.610  35.367   7.364
 5171POPC   C1B65779   6.659  35.614   6.464
 5171POPC   C2B65780   6.668  35.621   6.764
 5171POPC   C3B65781   6.723  35.637   7.064
 5171POPC   C4B65782   6.672  35.577   7.364
 5172POPC   NC365783  44.691   3.532   5.564
 5172POPC   PO465784  44.655   3.531   5.864
 5172POPC   GL165785  44.707   3.518   6.164
 5172POPC   GL265786  44.739   3.509   6.164
 5172POPC   C1A65787  44.625   3.568   6.464
 5172POPC   D2A65788  44.614   3.530   6.764
 5172POPC   C3A65789  44.615   3.505   7.064
 5172POPC   C4A65790  44.622   3.577   7.364
 5172POPC   C1B65791  44.903   3.517   6.464
 5172POPC   C2B65792  44.917   3.559   6.764
 5172POPC   C3B65793  44.877   3.504   7.064
 5172POPC   C4B65794  44.884   3.511   7.364
 5173POPC   NC365795  39.205  32.234   5.564
 5173POPC   PO465796  39.275  32.244   5.864
 5173POPC   GL165797  39.222  32.295   6.164
 5173POPC   GL265798  39.368  32.168   6.164
 5173POPC   C1A65799  39.221  32.289   6.464
 5173POPC   D2A65800  39.188  32.260   6.764
 5173POPC   C3A65801  39.233  32.263   7.064
 5173POPC   C4A65802  39.233  32.234   7.364
 5173POPC   C1B65803  39.422  32.049   6.464
 5173POPC   C2B65804  39.389  32.087   6.764
 5173POPC   C3B65805  39.428  32.027   7.064
 5173POPC   C4B65806  39.405  32.098   7.364
 5174POPC   NC365807  16.696  11.316   5.564
 5174POPC   PO465808  16.689  11.303   5.864
 5174POPC   GL165809  16.693  11.288   6.164
 5174POPC   GL265810  16.680  11.418   6.164
 5174POPC   C1A65811  16.756  11.325   6.464
 5174POPC   D2A65812  16.734  11.280   6.764
 5174POPC   C3A65813  16.705  11.279   7.064
 5174POPC   C4A65814  16.704  11.290   7.364
 5174POPC   C1B65815  16.663  11.512   6.464
 5174POPC   C2B65816  16.633  11.508   6.764
 5174POPC   C3B65817  16.609  11.473   7.064
 5174POPC   C4B65818  16.649  11.491   7.364
 5175POPC   NC365819  12.033  32.268   5.564
 5175POPC   PO465820  12.088  32.213   5.864
 5175POPC   GL165821  12.076  32.293   6.164
 5175POPC   GL265822  11.913  32.282   6.164
 5175POPC   C1A65823  12.111  32.262   6.464
 5175POPC   D2A65824  12.046  32.282   6.764
 5175POPC   C3A65825  12.124  32.214   7.064
 5175POPC   C4A65826  12.044  32.219   7.364
 5175POPC   C1B65827  11.870  32.241   6.464
 5175POPC   C2B65828  11.793  32.246   6.764
 5175POPC   C3B65829  11.807  32.255   7.064
 5175POPC   C4B65830  11.860  32.221   7.364
 5176POPC   NC365831   0.484   8.988   5.564
 5176POPC   PO465832   0.433   8.974   5.864
 5176POPC   GL165833   0.415   8.961   6.164
 5176POPC   GL265834   0.340   9.104   6.164
 5176POPC   C1A65835   0.398   8.973   6.464
 5176POPC   D2A65836   0.470   9.017   6.764
 5176POPC   C3A65837   0.434   8.960   7.064
 5176POPC   C4A65838   0.484   8.942   7.364
 5176POPC   C1B65839   0.306   9.181   6.464
 5176POPC   C2B65840   0.275   9.185   6.764
 5176POPC   C3B65841   0.316   9.216   7.064
 5176POPC   C4B65842   0.313   9.152   7.364
 5177POPC   NC365843  12.101  12.813   5.564
 5177POPC   PO465844  12.067  12.879   5.864
 5177POPC   GL165845  12.093  12.810   6.164
 5177POPC   GL265846  12.045  12.911   6.164
 5177POPC   C1A65847  12.094  12.896   6.464
 5177POPC   D2A65848  12.047  12.834   6.764
 5177POPC   C3A65849  12.094  12.809   7.064
 5177POPC   C4A65850  12.087  12.883   7.364
 5177POPC   C1B65851  11.952  13.033   6.464
 5177POPC   C2B65852  11.899  13.019   6.764
 5177POPC   C3B65853  11.945  13.036   7.064
 5177POPC   C4B65854  11.940  13.055   7.364
 5178POPC   NC365855  34.576  39.185   5.564
 5178POPC   PO465856  34.561  39.201   5.864
 5178POPC   GL165857  34.569  39.267   6.164
 5178POPC   GL265858  34.658  39.231   6.164
 5178POPC   C1A65859  34.617  39.245   6.464
 5178POPC   D2A65860  34.600  39.278   6.764
 5178POPC   C3A65861  34.580  39.231   7.064
 5178POPC   C4A65862  34.603  39.204   7.364
 5178POPC   C1B65863  34.794  39.233   6.464
 5178POPC   C2B65864  34.846  39.172   6.764
 5178POPC   C3B65865  34.874  39.242   7.064
 5178POPC   C4B65866  34.871  39.239   7.364
 5179POPC   NC365867  38.475  44.698   5.564
 5179POPC   PO465868  38.447  44.701   5.864
 5179POPC   GL165869  38.471  44.616   6.164
 5179POPC   GL265870  38.299  44.692   6.164
 5179POPC   C1A65871  38.465  44.642   6.464
 5179POPC   D2A65872  38.476  44.627   6.764
 5179POPC   C3A65873  38.450  44.660   7.064
 5179POPC   C4A65874  38.444  44.664   7.364
 5179POPC   C1B65875  38.158  44.645   6.464
 5179POPC   C2B65876  38.189  44.663   6.764
 5179POPC   C3B65877  38.163  44.645   7.064
 5179POPC   C4B65878  38.231  44.628   7.364
 5180POPC   NC365879  36.865  29.156   5.564
 5180POPC   PO465880  36.913  29.145   5.864
 5180POPC   GL165881  36.899  29.102   6.164
 5180POPC   GL265882  36.917  29.274   6.164
 5180POPC   C1A65883  36.922  29.145   6.464
 5180POPC   D2A65884  36.884  29.186   6.764
 5180POPC   C3A65885  36.888  29.178   7.064
 5180POPC   C4A65886  36.872  29.168   7.364
 5180POPC   C1B65887  36.962  29.434   6.464
 5180POPC   C2B65888  36.966  29.389   6.764
 5180POPC   C3B65889  36.902  29.400   7.064
 5180POPC   C4B65890  36.925  29.355   7.364
 5181POPC   NC365891  33.770  11.265   5.564
 5181POPC   PO465892  33.838  11.313   5.864
 5181POPC   GL165893  33.818  11.275   6.164
 5181POPC   GL265894  33.957  11.316   6.164
 5181POPC   C1A65895  33.815  11.262   6.464
 5181POPC   D2A65896  33.757  11.313   6.764
 5181POPC   C3A65897  33.805  11.283   7.064
 5181POPC   C4A65898  33.769  11.272   7.364
 5181POPC   C1B65899  33.987  11.414   6.464
 5181POPC   C2B65900  34.070  11.430   6.764
 5181POPC   C3B65901  33.979  11.375   7.064
 5181POPC   C4B65902  34.055  11.377   7.364
 5182POPC   NC365903  42.352  12.090   5.564
 5182POPC   PO465904  42.294  12.065   5.864
 5182POPC   GL165905  42.378  12.031   6.164
 5182POPC   GL265906  42.468  12.023   6.164
 5182POPC   C1A65907  42.294  12.087   6.464
 5182POPC   D2A65908  42.321  12.082   6.764
 5182POPC   C3A65909  42.296  12.088   7.064
 5182POPC   C4A65910  42.345  12.059   7.364
 5182POPC   C1B65911  42.574  12.028   6.464
 5182POPC   C2B65912  42.569  11.992   6.764
 5182POPC   C3B65913  42.540  11.971   7.064
 5182POPC   C4B65914  42.572  12.015   7.364
 5183POPC   NC365915  15.194  44.710   5.564
 5183POPC   PO465916  15.170  44.613   5.864
 5183POPC   GL165917  15.221  44.661   6.164
 5183POPC   GL265918  15.178  44.768   6.164
 5183POPC   C1A65919  15.228  44.703   6.464
 5183POPC   D2A65920  15.136  44.700   6.764
 5183POPC   C3A65921  15.160  44.654   7.064
 5183POPC   C4A65922  15.159  44.624   7.364
 5183POPC   C1B65923  15.201  44.927   6.464
 5183POPC   C2B65924  15.212  44.896   6.764
 5183POPC   C3B65925  15.225  44.865   7.064
 5183POPC   C4B65926  15.225  44.935   7.364
 5184POPC   NC365927  39.212  13.656   5.564
 5184POPC   PO465928  39.261  13.649   5.864
 5184POPC   GL165929  39.184  13.627   6.164
 5184POPC   GL265930  39.193  13.533   6.164
 5184POPC   C1A65931  39.215  13.617   6.464
 5184POPC   D2A65932  39.202  13.640   6.764
 5184POPC   C3A65933  39.224  13.639   7.064
 5184POPC   C4A65934  39.245  13.640   7.364
 5184POPC   C1B65935  39.130  13.462   6.464
 5184POPC   C2B65936  39.141  13.443   6.764
 5184POPC   C3B65937  39.151  13.364   7.064
 5184POPC   C4B65938  39.054  13.423   7.364
 5185POPC   NC365939  20.613  26.827   5.564
 5185POPC   PO465940  20.595  26.828   5.864
 5185POPC   GL165941  20.564  26.831   6.164
 5185POPC   GL265942  20.671  26.924   6.164
 5185POPC   C1A65943  20.573  26.847   6.464
 5185POPC   D2A65944  20.658  26.794   6.764
 5185POPC   C3A65945  20.642  26.784   7.064
 5185POPC   C4A65946  20.642  26.771   7.364
 5185POPC   C1B65947  20.757  27.032   6.464
 5185POPC   C2B65948  20.702  26.995   6.764
 5185POPC   C3B65949  20.756  27.028   7.064
 5185POPC   C4B65950  20.682  27.051   7.364
 5186POPC   NC365951  12.047  40.046   5.564
 5186POPC   PO465952  12.095  39.996   5.864
 5186POPC   GL165953  12.042  40.036   6.164
 5186POPC   GL265954  12.152  39.991   6.164
 5186POPC   C1A65955  12.086  40.035   6.464
 5186POPC   D2A65956  12.065  39.962   6.764
 5186POPC   C3A65957  12.032  40.014   7.064
 5186POPC   C4A65958  12.053  39.999   7.364
 5186POPC   C1B65959  12.290  39.947   6.464
 5186POPC   C2B65960  12.292  39.891   6.764
 5186POPC   C3B65961  12.300  39.896   7.064
 5186POPC   C4B65962  12.360  39.919   7.364
 5187POPC   NC365963   1.257  17.531   5.564
 5187POPC   PO465964   1.181  17.459   5.864
 5187POPC   GL165965   1.180  17.509   6.164
 5187POPC   GL265966   1.280  17.639   6.164
 5187POPC   C1A65967   1.230  17.519   6.464
 5187POPC   D2A65968   1.228  17.547   6.764
 5187POPC   C3A65969   1.173  17.521   7.064
 5187POPC   C4A65970   1.260  17.475   7.364
 5187POPC   C1B65971   1.324  17.712   6.464
 5187POPC   C2B65972   1.371  17.715   6.764
 5187POPC   C3B65973   1.346  17.681   7.064
 5187POPC   C4B65974   1.314  17.675   7.364
 5188POPC   NC365975  10.517  34.560   5.564
 5188POPC   PO465976  10.523  34.562   5.864
 5188POPC   GL165977  10.500  34.545   6.164
 5188POPC   GL265978  10.677  34.658   6.164
 5188POPC   C1A65979  10.529  34.541   6.464
 5188POPC   D2A65980  10.499  34.546   6.764
 5188POPC   C3A65981  10.531  34.592   7.064
 5188POPC   C4A65982  10.523  34.600   7.364
 5188POPC   C1B65983  10.777  34.717   6.464
 5188POPC   C2B65984  10.711  34.715   6.764
 5188POPC   C3B65985  10.719  34.705   7.064
 5188POPC   C4B65986  10.730  34.635   7.364
 5189POPC   NC365987  37.685   5.824   5.564
 5189POPC   PO465988  37.706   5.876   5.864
 5189POPC   GL165989  37.728   5.885   6.164
 5189POPC   GL265990  37.660   5.949   6.164
 5189POPC   C1A65991  37.692   5.838   6.464
 5189POPC   D2A65992  37.710   5.893   6.764
 5189POPC   C3A65993  37.694   5.876   7.064
 5189POPC   C4A65994  37.656   5.882   7.364
 5189POPC   C1B65995  37.612   6.124   6.464
 5189POPC   C2B65996  37.659   6.130   6.764
 5189POPC   C3B65997  37.585   6.093   7.064
 5189POPC   C4B65998  37.583   6.081   7.364
 5190POPC   NC365999  11.323  15.164   5.564
 5190POPC   PO466000  11.291  15.197   5.864
 5190POPC   GL166001  11.303  15.199   6.164
 5190POPC   GL266002  11.383  15.089   6.164
 5190POPC   C1A66003  11.253  15.134   6.464
 5190POPC   D2A66004  11.263  15.133   6.764
 5190POPC   C3A66005  11.341  15.200   7.064
 5190POPC   C4A66006  11.329  15.132   7.364
 5190POPC   C1B66007  11.430  15.006   6.464
 5190POPC   C2B66008  11.416  14.954   6.764
 5190POPC   C3B66009  11.444  14.962   7.064
 5190POPC   C4B66010  11.483  14.925   7.364
 5191POPC   NC366011   0.396   0.426   5.564
 5191POPC   PO466012   0.474   0.465   5.864
 5191POPC   GL166013   0.400   0.422   6.164
 5191POPC   GL266014   0.466   0.517   6.164
 5191POPC   C1A66015   0.449   0.485   6.464
 5191POPC   D2A66016   0.449   0.396   6.764
 5191POPC   C3A66017   0.416   0.453   7.064
 5191POPC   C4A66018   0.445   0.451   7.364
 5191POPC   C1B66019   0.545   0.689   6.464
 5191POPC   C2B66020   0.570   0.690   6.764
 5191POPC   C3B66021   0.540   0.678   7.064
 5191POPC   C4B66022   0.522   0.689   7.364
 5192POPC   NC366023  21.375   8.184   5.564
 5192POPC   PO466024  21.433   8.163   5.864
 5192POPC   GL166025  21.354   8.214   6.164
 5192POPC   GL266026  21.472   8.233   6.164
 5192POPC   C1A66027  21.403   8.194   6.464
 5192POPC   D2A66028  21.422   8.153   6.764
 5192POPC   C3A66029  21.417   8.222   7.064
 5192POPC   C4A66030  21.338   8.170   7.364
 5192POPC   C1B66031  21.603   8.383   6.464
 5192POPC   C2B66032  21.591   8.312   6.764
 5192POPC   C3B66033  21.617   8.308   7.064
 5192POPC   C4B66034  21.577   8.302   7.364
 5193POPC   NC366035  10.546  12.122   5.564
 5193POPC   PO466036  10.531  12.052   5.864
 5193POPC   GL166037  10.484  12.120   6.164
 5193POPC   GL266038  10.667  12.182   6.164
 5193POPC   C1A66039  10.551  12.111   6.464
 5193POPC   D2A66040  10.481  12.073   6.764
 5193POPC   C3A66041  10.546  12.098   7.064
 5193POPC   C4A66042  10.548  12.063   7.364
 5193POPC   C1B66043  10.701  12.211   6.464
 5193POPC   C2B66044  10.763  12.238   6.764
 5193POPC   C3B66045  10.674  12.226   7.064
 5193POPC   C4B66046  10.689  12.252   7.364
 5194POPC   NC366047  22.191  39.217   5.564
 5194POPC   PO466048  22.192  39.280   5.864
 5194POPC   GL166049  22.127  39.210   6.164
 5194POPC   GL266050  22.287  39.365   6.164
 5194POPC   C1A66051  22.188  39.269   6.464
 5194POPC   D2A66052  22.172  39.271   6.764
 5194POPC   C3A66053  22.153  39.196   7.064
 5194POPC   C4A66054  22.115  39.198   7.364
 5194POPC   C1B66055  22.370  39.371   6.464
 5194POPC   C2B66056  22.288  39.411   6.764
 5194POPC   C3B66057  22.311  39.410   7.064
 5194POPC   C4B66058  22.376  39.432   7.364
 5195POPC   NC366059  43.096  29.896   5.564
 5195POPC   PO466060  43.092  29.934   5.864
 5195POPC   GL166061  43.083  29.906   6.164
 5195POPC   GL266062  43.213  29.892   6.164
 5195POPC   C1A66063  43.154  29.946   6.464
 5195POPC   D2A66064  43.078  29.910   6.764
 5195POPC   C3A66065  43.140  29.872   7.064
 5195POPC   C4A66066  43.105  29.941   7.364
 5195POPC   C1B66067  43.384  29.833   6.464
 5195POPC   C2B66068  43.377  29.928   6.764
 5195POPC   C3B66069  43.365  29.851   7.064
 5195POPC   C4B66070  43.309  29.837   7.364
 5196POPC   NC366071  17.485  24.534   5.564
 5196POPC   PO466072  17.488  24.487   5.864
 5196POPC   GL166073  17.527  24.465   6.164
 5196POPC   GL266074  17.519  24.375   6.164
 5196POPC   C1A66075  17.472  24.469   6.464
 5196POPC   D2A66076  17.490  24.504   6.764
 5196POPC   C3A66077  17.508  24.505   7.064
 5196POPC   C4A66078  17.524  24.453   7.364
 5196POPC   C1B66079  17.577  24.235   6.464
 5196POPC   C2B66080  17.636  24.258   6.764
 5196POPC   C3B66081  17.647  24.257   7.064
 5196POPC   C4B66082  17.619  24.259   7.364
 5197POPC   NC366083  19.017  27.546   5.564
 5197POPC   PO466084  19.022  27.578   5.864
 5197POPC   GL166085  19.033  27.581   6.164
 5197POPC   GL266086  19.122  27.674   6.164
 5197POPC   C1A66087  19.045  27.554   6.464
 5197POPC   D2A66088  19.064  27.593   6.764
 5197POPC   C3A66089  19.099  27.555   7.064
 5197POPC   C4A66090  19.030  27.625   7.364
 5197POPC   C1B66091  19.318  27.773   6.464
 5197POPC   C2B66092  19.300  27.703   6.764
 5197POPC   C3B66093  19.250  27.711   7.064
 5197POPC   C4B66094  19.311  27.729   7.364
 5198POPC   NC366095  43.907  32.210   5.564
 5198POPC   PO466096  43.872  32.271   5.864
 5198POPC   GL166097  43.929  32.201   6.164
 5198POPC   GL266098  43.854  32.385   6.164
 5198POPC   C1A66099  43.883  32.216   6.464
 5198POPC   D2A66100  43.909  32.282   6.764
 5198POPC   C3A66101  43.884  32.277   7.064
 5198POPC   C4A66102  43.927  32.295   7.364
 5198POPC   C1B66103  43.707  32.448   6.464
 5198POPC   C2B66104  43.728  32.460   6.764
 5198POPC   C3B66105  43.769  32.462   7.064
 5198POPC   C4B66106  43.701  32.443   7.364
 5199POPC   NC366107   2.039  11.286   5.564
 5199POPC   PO466108   1.963  11.316   5.864
 5199POPC   GL166109   1.943  11.300   6.164
 5199POPC   GL266110   2.131  11.238   6.164
 5199POPC   C1A66111   2.039  11.278   6.464
 5199POPC   D2A66112   1.956  11.253   6.764
 5199POPC   C3A66113   1.994  11.341   7.064
 5199POPC   C4A66114   2.028  11.265   7.364
 5199POPC   C1B66115   2.188  11.164   6.464
 5199POPC   C2B66116   2.218  11.188   6.764
 5199POPC   C3B66117   2.240  11.206   7.064
 5199POPC   C4B66118   2.185  11.208   7.364
 5200POPC   NC366119   3.566   8.942   5.564
 5200POPC   PO466120   3.492   8.985   5.864
 5200POPC   GL166121   3.513   8.928   6.164
 5200POPC   GL266122   3.691   8.891   6.164
 5200POPC   C1A66123   3.516   8.989   6.464
 5200POPC   D2A66124   3.495   9.001   6.764
 5200POPC   C3A66125   3.508   8.960   7.064
 5200POPC   C4A66126   3.567   8.941   7.364
 5200POPC   C1B66127   3.710   8.832   6.464
 5200POPC   C2B66128   3.745   8.810   6.764
 5200POPC   C3B66129   3.727   8.845   7.064
 5200POPC   C4B66130   3.726   8.878   7.364
 5201POPC   NC366131  41.515  43.088   5.564
 5201POPC   PO466132  41.595  43.065   5.864
 5201POPC   GL166133  41.585  43.067   6.164
 5201POPC   GL266134  41.645  43.247   6.164
 5201POPC   C1A66135  41.579  43.102   6.464
 5201POPC   D2A66136  41.512  43.105   6.764
 5201POPC   C3A66137  41.605  43.120   7.064
 5201POPC   C4A66138  41.569  43.154   7.364
 5201POPC   C1B66139  41.716  43.291   6.464
 5201POPC   C2B66140  41.717  43.344   6.764
 5201POPC   C3B66141  41.720  43.262   7.064
 5201POPC   C4B66142  41.738  43.272   7.364
 5202POPC   NC366143  43.089  23.697   5.564
 5202POPC   PO466144  43.159  23.734   5.864
 5202POPC   GL166145  43.129  23.758   6.164
 5202POPC   GL266146  42.957  23.754   6.164
 5202POPC   C1A66147  43.083  23.742   6.464
 5202POPC   D2A66148  43.061  23.714   6.764
 5202POPC   C3A66149  43.116  23.722   7.064
 5202POPC   C4A66150  43.106  23.729   7.364
 5202POPC   C1B66151  42.846  23.780   6.464
 5202POPC   C2B66152  42.861  23.817   6.764
 5202POPC   C3B66153  42.871  23.796   7.064
 5202POPC   C4B66154  42.885  23.850   7.364
 5203POPC   NC366155  12.840  31.486   5.564
 5203POPC   PO466156  12.824  31.467   5.864
 5203POPC   GL166157  12.835  31.452   6.164
 5203POPC   GL266158  12.852  31.550   6.164
 5203POPC   C1A66159  12.820  31.445   6.464
 5203POPC   D2A66160  12.844  31.455   6.764
 5203POPC   C3A66161  12.809  31.482   7.064
 5203POPC   C4A66162  12.881  31.471   7.364
 5203POPC   C1B66163  12.977  31.746   6.464
 5203POPC   C2B66164  12.946  31.714   6.764
 5203POPC   C3B66165  12.970  31.733   7.064
 5203POPC   C4B66166  12.960  31.681   7.364
 5204POPC   NC366167  39.986  30.696   5.564
 5204POPC   PO466168  40.003  30.696   5.864
 5204POPC   GL166169  40.023  30.741   6.164
 5204POPC   GL266170  40.110  30.832   6.164
 5204POPC   C1A66171  40.002  30.725   6.464
 5204POPC   D2A66172  39.998  30.660   6.764
 5204POPC   C3A66173  40.050  30.680   7.064
 5204POPC   C4A66174  39.968  30.700   7.364
 5204POPC   C1B66175  40.143  30.850   6.464
 5204POPC   C2B66176  40.177  30.882   6.764
 5204POPC   C3B66177  40.160  30.872   7.064
 5204POPC   C4B66178  40.139  30.844   7.364
 5205POPC   NC366179  26.772   4.354   5.564
 5205POPC   PO466180  26.786   4.350   5.864
 5205POPC   GL166181  26.824   4.366   6.164
 5205POPC   GL266182  26.762   4.188   6.164
 5205POPC   C1A66183  26.779   4.354   6.464
 5205POPC   D2A66184  26.778   4.314   6.764
 5205POPC   C3A66185  26.839   4.364   7.064
 5205POPC   C4A66186  26.820   4.325   7.364
 5205POPC   C1B66187  26.689   4.036   6.464
 5205POPC   C2B66188  26.687   4.037   6.764
 5205POPC   C3B66189  26.771   4.113   7.064
 5205POPC   C4B66190  26.742   4.036   7.364
 5206POPC   NC366191  29.118  36.089   5.564
 5206POPC   PO466192  29.107  36.106   5.864
 5206POPC   GL166193  29.143  36.155   6.164
 5206POPC   GL266194  29.085  36.235   6.164
 5206POPC   C1A66195  29.109  36.113   6.464
 5206POPC   D2A66196  29.178  36.080   6.764
 5206POPC   C3A66197  29.150  36.170   7.064
 5206POPC   C4A66198  29.130  36.158   7.364
 5206POPC   C1B66199  29.031  36.389   6.464
 5206POPC   C2B66200  29.040  36.304   6.764
 5206POPC   C3B66201  29.039  36.388   7.064
 5206POPC   C4B66202  29.002  36.375   7.364
 5207POPC   NC366203  11.304  19.837   5.564
 5207POPC   PO466204  11.267  19.803   5.864
 5207POPC   GL166205  11.298  19.830   6.164
 5207POPC   GL266206  11.253  19.671   6.164
 5207POPC   C1A66207  11.340  19.875   6.464
 5207POPC   D2A66208  11.337  19.872   6.764
 5207POPC   C3A66209  11.296  19.849   7.064
 5207POPC   C4A66210  11.266  19.849   7.364
 5207POPC   C1B66211  11.230  19.570   6.464
 5207POPC   C2B66212  11.181  19.610   6.764
 5207POPC   C3B66213  11.213  19.591   7.064
 5207POPC   C4B66214  11.209  19.571   7.364
 5208POPC   NC366215  39.960   8.246   5.564
 5208POPC   PO466216  39.995   8.227   5.864
 5208POPC   GL166217  39.992   8.158   6.164
 5208POPC   GL266218  39.985   8.350   6.164
 5208POPC   C1A66219  40.025   8.151   6.464
 5208POPC   D2A66220  39.966   8.208   6.764
 5208POPC   C3A66221  40.029   8.229   7.064
 5208POPC   C4A66222  39.984   8.200   7.364
 5208POPC   C1B66223  39.987   8.451   6.464
 5208POPC   C2B66224  39.971   8.492   6.764
 5208POPC   C3B66225  39.990   8.487   7.064
 5208POPC   C4B66226  40.015   8.404   7.364
 5209POPC   NC366227   8.184  18.277   5.564
 5209POPC   PO466228   8.168  18.245   5.864
 5209POPC   GL166229   8.240  18.327   6.164
 5209POPC   GL266230   8.269  18.402   6.164
 5209POPC   C1A66231   8.173  18.291   6.464
 5209POPC   D2A66232   8.184  18.260   6.764
 5209POPC   C3A66233   8.148  18.237   7.064
 5209POPC   C4A66234   8.216  18.239   7.364
 5209POPC   C1B66235   8.245  18.529   6.464
 5209POPC   C2B66236   8.261  18.532   6.764
 5209POPC   C3B66237   8.279  18.567   7.064
 5209POPC   C4B66238   8.291  18.539   7.364
 5210POPC   NC366239   9.708  12.029   5.564
 5210POPC   PO466240   9.716  12.079   5.864
 5210POPC   GL166241   9.785  12.082   6.164
 5210POPC   GL266242   9.679  12.133   6.164
 5210POPC   C1A66243   9.699  12.073   6.464
 5210POPC   D2A66244   9.790  12.064   6.764
 5210POPC   C3A66245   9.744  12.063   7.064
 5210POPC   C4A66246   9.770  12.072   7.364
 5210POPC   C1B66247   9.597  12.310   6.464
 5210POPC   C2B66248   9.636  12.274   6.764
 5210POPC   C3B66249   9.616  12.289   7.064
 5210POPC   C4B66250   9.625  12.310   7.364
 5211POPC   NC366251  23.696  24.488   5.564
 5211POPC   PO466252  23.761  24.446   5.864
 5211POPC   GL166253  23.704  24.442   6.164
 5211POPC   GL266254  23.609  24.430   6.164
 5211POPC   C1A66255  23.743  24.515   6.464
 5211POPC   D2A66256  23.717  24.502   6.764
 5211POPC   C3A66257  23.741  24.529   7.064
 5211POPC   C4A66258  23.704  24.445   7.364
 5211POPC   C1B66259  23.432  24.486   6.464
 5211POPC   C2B66260  23.429  24.471   6.764
 5211POPC   C3B66261  23.443  24.419   7.064
 5211POPC   C4B66262  23.454  24.410   7.364
 5212POPC   NC366263  27.573   7.422   5.564
 5212POPC   PO466264  27.566   7.407   5.864
 5212POPC   GL166265  27.543   7.470   6.164
 5212POPC   GL266266  27.598   7.546   6.164
 5212POPC   C1A66267  27.584   7.458   6.464
 5212POPC   D2A66268  27.627   7.392   6.764
 5212POPC   C3A66269  27.621   7.377   7.064
 5212POPC   C4A66270  27.549   7.459   7.364
 5212POPC   C1B66271  27.649   7.646   6.464
 5212POPC   C2B66272  27.686   7.690   6.764
 5212POPC   C3B66273  27.712   7.647   7.064
 5212POPC   C4B66274  27.650   7.625   7.364
 5213POPC   NC366275  26.070  13.618   5.564
 5213POPC   PO466276  26.034  13.586   5.864
 5213POPC   GL166277  26.084  13.651   6.164
 5213POPC   GL266278  26.123  13.633   6.164
 5213POPC   C1A66279  26.055  13.609   6.464
 5213POPC   D2A66280  26.000  13.617   6.764
 5213POPC   C3A66281  26.039  13.631   7.064
 5213POPC   C4A66282  26.060  13.612   7.364
 5213POPC   C1B66283  26.227  13.507   6.464
 5213POPC   C2B66284  26.295  13.492   6.764
 5213POPC   C3B66285  26.292  13.571   7.064
 5213POPC   C4B66286  26.292  13.498   7.364
 5214POPC   NC366287  44.661  15.985   5.564
 5214POPC   PO466288  44.669  15.978   5.864
 5214POPC   GL166289  44.705  15.936   6.164
 5214POPC   GL266290  44.643  16.085   6.164
 5214POPC   C1A66291  44.624  15.926   6.464
 5214POPC   D2A66292  44.658  15.979   6.764
 5214POPC   C3A66293  44.683  15.972   7.064
 5214POPC   C4A66294  44.681  15.983   7.364
 5214POPC   C1B66295  44.633  16.216   6.464
 5214POPC   C2B66296  44.625  16.225   6.764
 5214POPC   C3B66297  44.627  16.204   7.064
 5214POPC   C4B66298  44.613  16.216   7.364
 5215POPC   NC366299  32.216  30.718   5.564
 5215POPC   PO466300  32.236  30.708   5.864
 5215POPC   GL166301  32.205  30.742   6.164
 5215POPC   GL266302  32.194  30.786   6.164
 5215POPC   C1A66303  32.235  30.666   6.464
 5215POPC   D2A66304  32.274  30.666   6.764
 5215POPC   C3A66305  32.219  30.670   7.064
 5215POPC   C4A66306  32.245  30.662   7.364
 5215POPC   C1B66307  32.141  30.951   6.464
 5215POPC   C2B66308  32.138  30.952   6.764
 5215POPC   C3B66309  32.118  30.887   7.064
 5215POPC   C4B66310  32.129  30.878   7.364
 5216POPC   NC366311  36.129  17.474   5.564
 5216POPC   PO466312  36.170  17.520   5.864
 5216POPC   GL166313  36.141  17.520   6.164
 5216POPC   GL266314  36.098  17.641   6.164
 5216POPC   C1A66315  36.091  17.478   6.464
 5216POPC   D2A66316  36.085  17.527   6.764
 5216POPC   C3A66317  36.099  17.521   7.064
 5216POPC   C4A66318  36.096  17.551   7.364
 5216POPC   C1B66319  35.959  17.667   6.464
 5216POPC   C2B66320  36.012  17.694   6.764
 5216POPC   C3B66321  35.978  17.724   7.064
 5216POPC   C4B66322  36.020  17.740   7.364
 5217POPC   NC366323  34.580  29.138   5.564
 5217POPC   PO466324  34.583  29.190   5.864
 5217POPC   GL166325  34.591  29.140   6.164
 5217POPC   GL266326  34.685  29.135   6.164
 5217POPC   C1A66327  34.543  29.118   6.464
 5217POPC   D2A66328  34.543  29.096   6.764
 5217POPC   C3A66329  34.595  29.141   7.064
 5217POPC   C4A66330  34.602  29.133   7.364
 5217POPC   C1B66331  34.794  29.117   6.464
 5217POPC   C2B66332  34.798  29.119   6.764
 5217POPC   C3B66333  34.833  29.154   7.064
 5217POPC   C4B66334  34.778  29.089   7.364
 5218POPC   NC366335  41.523  39.221   5.564
 5218POPC   PO466336  41.598  39.252   5.864
 5218POPC   GL166337  41.557  39.243   6.164
 5218POPC   GL266338  41.598  39.362   6.164
 5218POPC   C1A66339  41.583  39.190   6.464
 5218POPC   D2A66340  41.509  39.218   6.764
 5218POPC   C3A66341  41.546  39.206   7.064
 5218POPC   C4A66342  41.608  39.281   7.364
 5218POPC   C1B66343  41.752  39.449   6.464
 5218POPC   C2B66344  41.756  39.450   6.764
 5218POPC   C3B66345  41.684  39.367   7.064
 5218POPC   C4B66346  41.744  39.436   7.364
 5219POPC   NC366347  20.643  12.029   5.564
 5219POPC   PO466348  20.604  12.083   5.864
 5219POPC   GL166349  20.575  12.118   6.164
 5219POPC   GL266350  20.525  11.972   6.164
 5219POPC   C1A66351  20.655  12.112   6.464
 5219POPC   D2A66352  20.570  12.099   6.764
 5219POPC   C3A66353  20.630  12.103   7.064
 5219POPC   C4A66354  20.626  12.115   7.364
 5219POPC   C1B66355  20.456  11.878   6.464
 5219POPC   C2B66356  20.409  11.917   6.764
 5219POPC   C3B66357  20.410  11.931   7.064
 5219POPC   C4B66358  20.469  11.938   7.364
 5220POPC   NC366359  36.127  25.255   5.564
 5220POPC   PO466360  36.117  25.245   5.864
 5220POPC   GL166361  36.172  25.256   6.164
 5220POPC   GL266362  36.158  25.182   6.164
 5220POPC   C1A66363  36.098  25.274   6.464
 5220POPC   D2A66364  36.125  25.292   6.764
 5220POPC   C3A66365  36.147  25.272   7.064
 5220POPC   C4A66366  36.093  25.265   7.364
 5220POPC   C1B66367  36.208  25.075   6.464
 5220POPC   C2B66368  36.197  25.042   6.764
 5220POPC   C3B66369  36.198  25.063   7.064
 5220POPC   C4B66370  36.217  24.987   7.364
 5221POPC   NC366371  25.230  40.750   5.564
 5221POPC   PO466372  25.248  40.822   5.864
 5221POPC   GL166373  25.255  40.793   6.164
 5221POPC   GL266374  25.288  40.891   6.164
 5221POPC   C1A66375  25.250  40.781   6.464
 5221POPC   D2A66376  25.280  40.827   6.764
 5221POPC   C3A66377  25.313  40.806   7.064
 5221POPC   C4A66378  25.288  40.767   7.364
 5221POPC   C1B66379  25.340  41.064   6.464
 5221POPC   C2B66380  25.371  41.063   6.764
 5221POPC   C3B66381  25.384  41.000   7.064
 5221POPC   C4B66382  25.372  41.009   7.364
 5222POPC   NC366383  26.813  35.374   5.564
 5222POPC   PO466384  26.774  35.302   5.864
 5222POPC   GL166385  26.848  35.378   6.164
 5222POPC   GL266386  26.654  35.362   6.164
 5222POPC   C1A66387  26.773  35.308   6.464
 5222POPC   D2A66388  26.841  35.354   6.764
 5222POPC   C3A66389  26.800  35.371   7.064
 5222POPC   C4A66390  26.859  35.390   7.364
 5222POPC   C1B66391  26.573  35.283   6.464
 5222POPC   C2B66392  26.544  35.343   6.764
 5222POPC   C3B66393  26.579  35.345   7.064
 5222POPC   C4B66394  26.578  35.353   7.364
 5223POPC   NC366395  25.295  33.750   5.564
 5223POPC   PO466396  25.274  33.818   5.864
 5223POPC   GL166397  25.246  33.827   6.164
 5223POPC   GL266398  25.168  33.742   6.164
 5223POPC   C1A66399  25.310  33.836   6.464
 5223POPC   D2A66400  25.295  33.778   6.764
 5223POPC   C3A66401  25.296  33.811   7.064
 5223POPC   C4A66402  25.231  33.779   7.364
 5223POPC   C1B66403  25.043  33.725   6.464
 5223POPC   C2B66404  24.987  33.697   6.764
 5223POPC   C3B66405  24.985  33.685   7.064
 5223POPC   C4B66406  24.990  33.701   7.364
 5224POPC   NC366407  19.053  38.463   5.564
 5224POPC   PO466408  19.047  38.449   5.864
 5224POPC   GL166409  19.050  38.430   6.164
 5224POPC   GL266410  19.085  38.588   6.164
 5224POPC   C1A66411  19.030  38.457   6.464
 5224POPC   D2A66412  19.102  38.470   6.764
 5224POPC   C3A66413  19.079  38.454   7.064
 5224POPC   C4A66414  19.027  38.442   7.364
 5224POPC   C1B66415  19.172  38.657   6.464
 5224POPC   C2B66416  19.131  38.671   6.764
 5224POPC   C3B66417  19.088  38.666   7.064
 5224POPC   C4B66418  19.186  38.675   7.364
 5225POPC   NC366419  17.480   7.456   5.564
 5225POPC   PO466420  17.503   7.402   5.864
 5225POPC   GL166421  17.512   7.424   6.164
 5225POPC   GL266422  17.498   7.509   6.164
 5225POPC   C1A66423  17.551   7.383   6.464
 5225POPC   D2A66424  17.516   7.377   6.764
 5225POPC   C3A66425  17.486   7.460   7.064
 5225POPC   C4A66426  17.499   7.447   7.364
 5225POPC   C1B66427  17.476   7.658   6.464
 5225POPC   C2B66428  17.457   7.668   6.764
 5225POPC   C3B66429  17.489   7.720   7.064
 5225POPC   C4B66430  17.461   7.663   7.364
 5226POPC   NC366431  27.566  12.108   5.564
 5226POPC   PO466432  27.592  12.047   5.864
 5226POPC   GL166433  27.582  12.080   6.164
 5226POPC   GL266434  27.516  12.167   6.164
 5226POPC   C1A66435  27.575  12.053   6.464
 5226POPC   D2A66436  27.575  12.028   6.764
 5226POPC   C3A66437  27.598  12.058   7.064
 5226POPC   C4A66438  27.552  12.040   7.364
 5226POPC   C1B66439  27.466  12.300   6.464
 5226POPC   C2B66440  27.533  12.293   6.764
 5226POPC   C3B66441  27.460  12.357   7.064
 5226POPC   C4B66442  27.529  12.264   7.364
 5227POPC   NC366443  40.783  13.650   5.564
 5227POPC   PO466444  40.735  13.611   5.864
 5227POPC   GL166445  40.768  13.609   6.164
 5227POPC   GL266446  40.866  13.627   6.164
 5227POPC   C1A66447  40.751  13.653   6.464
 5227POPC   D2A66448  40.766  13.614   6.764
 5227POPC   C3A66449  40.766  13.660   7.064
 5227POPC   C4A66450  40.768  13.617   7.364
 5227POPC   C1B66451  41.004  13.585   6.464
 5227POPC   C2B66452  41.046  13.552   6.764
 5227POPC   C3B66453  40.998  13.568   7.064
 5227POPC   C4B66454  41.059  13.581   7.364
 5228POPC   NC366455  11.282  22.919   5.564
 5228POPC   PO466456  11.270  22.921   5.864
 5228POPC   GL166457  11.307  22.981   6.164
 5228POPC   GL266458  11.210  23.019   6.164
 5228POPC   C1A66459  11.267  22.914   6.464
 5228POPC   D2A66460  11.303  22.972   6.764
 5228POPC   C3A66461  11.255  22.898   7.064
 5228POPC   C4A66462  11.274  22.937   7.364
 5228POPC   C1B66463  11.067  22.970   6.464
 5228POPC   C2B66464  11.070  22.977   6.764
 5228POPC   C3B66465  11.035  22.977   7.064
 5228POPC   C4B66466  11.012  22.985   7.364
 5229POPC   NC366467  32.285  12.842   5.564
 5229POPC   PO466468  32.244  12.856   5.864
 5229POPC   GL166469  32.219  12.875   6.164
 5229POPC   GL266470  32.132  12.777   6.164
 5229POPC   C1A66471  32.204  12.803   6.464
 5229POPC   D2A66472  32.206  12.851   6.764
 5229POPC   C3A66473  32.291  12.883   7.064
 5229POPC   C4A66474  32.244  12.884   7.364
 5229POPC   C1B66475  32.030  12.739   6.464
 5229POPC   C2B66476  32.072  12.766   6.764
 5229POPC   C3B66477  32.067  12.712   7.064
 5229POPC   C4B66478  32.005  12.715   7.364
 5230POPC   NC366479  27.558  29.885   5.564
 5230POPC   PO466480  27.556  29.957   5.864
 5230POPC   GL166481  27.569  29.968   6.164
 5230POPC   GL266482  27.628  30.072   6.164
 5230POPC   C1A66483  27.566  29.947   6.464
 5230POPC   D2A66484  27.548  29.871   6.764
 5230POPC   C3A66485  27.559  29.905   7.064
 5230POPC   C4A66486  27.546  29.948   7.364
 5230POPC   C1B66487  27.536  30.153   6.464
 5230POPC   C2B66488  27.612  30.197   6.764
 5230POPC   C3B66489  27.621  30.158   7.064
 5230POPC   C4B66490  27.609  30.194   7.364
 5231POPC   NC366491  27.576  35.309   5.564
 5231POPC   PO466492  27.639  35.359   5.864
 5231POPC   GL166493  27.556  35.368   6.164
 5231POPC   GL266494  27.702  35.281   6.164
 5231POPC   C1A66495  27.579  35.383   6.464
 5231POPC   D2A66496  27.583  35.302   6.764
 5231POPC   C3A66497  27.557  35.317   7.064
 5231POPC   C4A66498  27.601  35.351   7.364
 5231POPC   C1B66499  27.818  35.304   6.464
 5231POPC   C2B66500  27.859  35.263   6.764
 5231POPC   C3B66501  27.802  35.301   7.064
 5231POPC   C4B66502  27.817  35.338   7.364
 5232POPC   NC366503  43.846  32.995   5.564
 5232POPC   PO466504  43.920  32.992   5.864
 5232POPC   GL166505  43.874  33.009   6.164
 5232POPC   GL266506  43.735  32.951   6.164
 5232POPC   C1A66507  43.841  32.976   6.464
 5232POPC   D2A66508  43.924  33.014   6.764
 5232POPC   C3A66509  43.916  33.046   7.064
 5232POPC   C4A66510  43.922  33.072   7.364
 5232POPC   C1B66511  43.630  32.914   6.464
 5232POPC   C2B66512  43.678  32.998   6.764
 5232POPC   C3B66513  43.621  32.959   7.064
 5232POPC   C4B66514  43.638  32.962   7.364
 5233POPC   NC366515  40.755  40.050   5.564
 5233POPC   PO466516  40.749  40.030   5.864
 5233POPC   GL166517  40.817  39.982   6.164
 5233POPC   GL266518  40.852  40.084   6.164
 5233POPC   C1A66519  40.768  40.014   6.464
 5233POPC   D2A66520  40.804  40.010   6.764
 5233POPC   C3A66521  40.798  39.982   7.064
 5233POPC   C4A66522  40.779  39.978   7.364
 5233POPC   C1B66523  40.832  40.290   6.464
 5233POPC   C2B66524  40.803  40.241   6.764
 5233POPC   C3B66525  40.833  40.208   7.064
 5233POPC   C4B66526  40.783  40.230   7.364
 5234POPC   NC366527   5.137   3.538   5.564
 5234POPC   PO466528   5.088   3.509   5.864
 5234POPC   GL166529   5.071   3.514   6.164
 5234POPC   GL266530   5.017   3.491   6.164
 5234POPC   C1A66531   5.123   3.536   6.464
 5234POPC   D2A66532   5.084   3.521   6.764
 5234POPC   C3A66533   5.086   3.576   7.064
 5234POPC   C4A66534   5.091   3.580   7.364
 5234POPC   C1B66535   4.890   3.507   6.464
 5234POPC   C2B66536   4.861   3.509   6.764
 5234POPC   C3B66537   4.816   3.522   7.064
 5234POPC   C4B66538   4.861   3.489   7.364
 5235POPC   NC366539  35.381  24.518   5.564
 5235POPC   PO466540  35.340  24.530   5.864
 5235POPC   GL166541  35.348  24.453   6.164
 5235POPC   GL266542  35.491  24.505   6.164
 5235POPC   C1A66543  35.344  24.536   6.464
 5235POPC   D2A66544  35.347  24.516   6.764
 5235POPC   C3A66545  35.302  24.449   7.064
 5235POPC   C4A66546  35.392  24.508   7.364
 5235POPC   C1B66547  35.633  24.569   6.464
 5235POPC   C2B66548  35.580  24.577   6.764
 5235POPC   C3B66549  35.601  24.549   7.064
 5235POPC   C4B66550  35.628  24.584   7.364
 5236POPC   NC366551  18.283   3.529   5.564
 5236POPC   PO466552  18.239   3.560   5.864
 5236POPC   GL166553  18.292   3.530   6.164
 5236POPC   GL266554  18.283   3.684   6.164
 5236POPC   C1A66555  18.318   3.508   6.464
 5236POPC   D2A66556  18.244   3.565   6.764
 5236POPC   C3A66557  18.256   3.560   7.064
 5236POPC   C4A66558  18.255   3.497   7.364
 5236POPC   C1B66559  18.357   3.767   6.464
 5236POPC   C2B66560  18.335   3.772   6.764
 5236POPC   C3B66561  18.338   3.745   7.064
 5236POPC   C4B66562  18.394   3.794   7.364
 5237POPC   NC366563  12.114   5.904   5.564
 5237POPC   PO466564  12.119   5.873   5.864
 5237POPC   GL166565  12.042   5.850   6.164
 5237POPC   GL266566  12.138   5.794   6.164
 5237POPC   C1A66567  12.096   5.850   6.464
 5237POPC   D2A66568  12.082   5.917   6.764
 5237POPC   C3A66569  12.040   5.898   7.064
 5237POPC   C4A66570  12.037   5.859   7.364
 5237POPC   C1B66571  12.220   5.681   6.464
 5237POPC   C2B66572  12.167   5.675   6.764
 5237POPC   C3B66573  12.218   5.634   7.064
 5237POPC   C4B66574  12.219   5.688   7.364
 5238POPC   NC366575  41.603  17.534   5.564
 5238POPC   PO466576  41.512  17.526   5.864
 5238POPC   GL166577  41.566  17.471   6.164
 5238POPC   GL266578  41.705  17.550   6.164
 5238POPC   C1A66579  41.538  17.520   6.464
 5238POPC   D2A66580  41.581  17.532   6.764
 5238POPC   C3A66581  41.559  17.529   7.064
 5238POPC   C4A66582  41.530  17.467   7.364
 5238POPC   C1B66583  41.809  17.569   6.464
 5238POPC   C2B66584  41.784  17.540   6.764
 5238POPC   C3B66585  41.826  17.558   7.064
 5238POPC   C4B66586  41.792  17.570   7.364
 5239POPC   NC366587  36.914   2.024   5.564
 5239POPC   PO466588  36.931   2.000   5.864
 5239POPC   GL166589  36.890   1.962   6.164
 5239POPC   GL266590  36.805   1.947   6.164
 5239POPC   C1A66591  36.863   1.949   6.464
 5239POPC   D2A66592  36.902   2.026   6.764
 5239POPC   C3A66593  36.884   2.027   7.064
 5239POPC   C4A66594  36.909   2.037   7.364
 5239POPC   C1B66595  36.712   1.888   6.464
 5239POPC   C2B66596  36.636   1.888   6.764
 5239POPC   C3B66597  36.678   1.938   7.064
 5239POPC   C4B66598  36.719   1.902   7.364
 5240POPC   NC366599  26.808  31.475   5.564
 5240POPC   PO466600  26.856  31.486   5.864
 5240POPC   GL166601  26.838  31.459   6.164
 5240POPC   GL266602  26.788  31.343   6.164
 5240POPC   C1A66603  26.773  31.455   6.464
 5240POPC   D2A66604  26.859  31.428   6.764
 5240POPC   C3A66605  26.773  31.436   7.064
 5240POPC   C4A66606  26.809  31.461   7.364
 5240POPC   C1B66607  26.740  31.226   6.464
 5240POPC   C2B66608  26.660  31.292   6.764
 5240POPC   C3B66609  26.703  31.212   7.064
 5240POPC   C4B66610  26.689  31.236   7.364
 5241POPC   NC366611   1.180   6.652   5.564
 5241POPC   PO466612   1.219   6.675   5.864
 5241POPC   GL166613   1.250   6.624   6.164
 5241POPC   GL266614   1.258   6.535   6.164
 5241POPC   C1A66615   1.254   6.624   6.464
 5241POPC   D2A66616   1.166   6.669   6.764
 5241POPC   C3A66617   1.253   6.679   7.064
 5241POPC   C4A66618   1.186   6.687   7.364
 5241POPC   C1B66619   1.383   6.509   6.464
 5241POPC   C2B66620   1.406   6.493   6.764
 5241POPC   C3B66621   1.371   6.460   7.064
 5241POPC   C4B66622   1.381   6.435   7.364
 5242POPC   NC366623   1.954  44.689   5.564
 5242POPC   PO466624   2.013  44.686   5.864
 5242POPC   GL166625   2.019  44.624   6.164
 5242POPC   GL266626   2.127  44.713   6.164
 5242POPC   C1A66627   2.025  44.615   6.464
 5242POPC   D2A66628   1.988  44.698   6.764
 5242POPC   C3A66629   2.034  44.638   7.064
 5242POPC   C4A66630   2.005  44.692   7.364
 5242POPC   C1B66631   2.264  44.642   6.464
 5242POPC   C2B66632   2.203  44.642   6.764
 5242POPC   C3B66633   2.262  44.689   7.064
 5242POPC   C4B66634   2.266  44.706   7.364
 5243POPC   NC366635  40.022   6.668   5.564
 5243POPC   PO466636  40.004   6.619   5.864
 5243POPC   GL166637  39.967   6.611   6.164
 5243POPC   GL266638  39.853   6.667   6.164
 5243POPC   C1A66639  39.982   6.599   6.464
 5243POPC   D2A66640  40.005   6.671   6.764
 5243POPC   C3A66641  40.020   6.690   7.064
 5243POPC   C4A66642  39.963   6.662   7.364
 5243POPC   C1B66643  39.731   6.689   6.464
 5243POPC   C2B66644  39.724   6.773   6.764
 5243POPC   C3B66645  39.748   6.763   7.064
 5243POPC   C4B66646  39.740   6.757   7.364
 5244POPC   NC366647  12.047  44.701   5.564
 5244POPC   PO466648  12.060  44.691   5.864
 5244POPC   GL166649  12.117  44.682   6.164
 5244POPC   GL266650  11.952  44.605   6.164
 5244POPC   C1A66651  12.050  44.658   6.464
 5244POPC   D2A66652  12.035  44.628   6.764
 5244POPC   C3A66653  12.049  44.666   7.064
 5244POPC   C4A66654  12.113  44.679   7.364
 5244POPC   C1B66655  11.925  44.485   6.464
 5244POPC   C2B66656  11.905  44.543   6.764
 5244POPC   C3B66657  11.906  44.526   7.064
 5244POPC   C4B66658  11.844  44.535   7.364
 5245POPC   NC366659  29.936  29.194   5.564
 5245POPC   PO466660  29.901  29.119   5.864
 5245POPC   GL166661  29.957  29.152   6.164
 5245POPC   GL266662  29.920  29.030   6.164
 5245POPC   C1A66663  29.896  29.163   6.464
 5245POPC   D2A66664  29.876  29.095   6.764
 5245POPC   C3A66665  29.893  29.177   7.064
 5245POPC   C4A66666  29.880  29.096   7.364
 5245POPC   C1B66667  29.946  28.908   6.464
 5245POPC   C2B66668  29.948  28.874   6.764
 5245POPC   C3B66669  29.936  28.849   7.064
 5245POPC   C4B66670  29.908  28.866   7.364
 5246POPC   NC366671  14.396  44.627   5.564
 5246POPC   PO466672  14.449  44.681   5.864
 5246POPC   GL166673  14.392  44.671   6.164
 5246POPC   GL266674  14.408  44.509   6.164
 5246POPC   C1A66675  14.407  44.643   6.464
 5246POPC   D2A66676  14.421  44.687   6.764
 5246POPC   C3A66677  14.357  44.642   7.064
 5246POPC   C4A66678  14.420  44.661   7.364
 5246POPC   C1B66679  14.482  44.434   6.464
 5246POPC   C2B66680  14.508  44.473   6.764
 5246POPC   C3B66681  14.525  44.388   7.064
 5246POPC   C4B66682  14.509  44.440   7.364
 5247POPC   NC366683   3.576  11.320   5.564
 5247POPC   PO466684   3.513  11.285   5.864
 5247POPC   GL166685   3.494  11.340   6.164
 5247POPC   GL266686   3.382  11.219   6.164
 5247POPC   C1A66687   3.542  11.321   6.464
 5247POPC   D2A66688   3.495  11.262   6.764
 5247POPC   C3A66689   3.538  11.323   7.064
 5247POPC   C4A66690   3.545  11.263   7.364
 5247POPC   C1B66691   3.314  11.211   6.464
 5247POPC   C2B66692   3.311  11.263   6.764
 5247POPC   C3B66693   3.266  11.192   7.064
 5247POPC   C4B66694   3.322  11.252   7.364
 5248POPC   NC366695  19.097  35.357   5.564
 5248POPC   PO466696  19.053  35.316   5.864
 5248POPC   GL166697  19.026  35.378   6.164
 5248POPC   GL266698  19.022  35.488   6.164
 5248POPC   C1A66699  19.072  35.365   6.464
 5248POPC   D2A66700  19.036  35.361   6.764
 5248POPC   C3A66701  19.079  35.349   7.064
 5248POPC   C4A66702  19.046  35.363   7.364
 5248POPC   C1B66703  19.109  35.586   6.464
 5248POPC   C2B66704  19.055  35.578   6.764
 5248POPC   C3B66705  19.093  35.621   7.064
 5248POPC   C4B66706  19.032  35.638   7.364
 5249POPC   NC366707  24.468   8.179   5.564
 5249POPC   PO466708  24.521   8.159   5.864
 5249POPC   GL166709  24.457   8.228   6.164
 5249POPC   GL266710  24.414   8.102   6.164
 5249POPC   C1A66711  24.469   8.241   6.464
 5249POPC   D2A66712  24.538   8.192   6.764
 5249POPC   C3A66713  24.536   8.238   7.064
 5249POPC   C4A66714  24.487   8.195   7.364
 5249POPC   C1B66715  24.283   8.068   6.464
 5249POPC   C2B66716  24.323   8.048   6.764
 5249POPC   C3B66717  24.270   8.042   7.064
 5249POPC   C4B66718  24.263   8.028   7.364
 5250POPC   NC366719  31.499  25.245   5.564
 5250POPC   PO466720  31.492  25.278   5.864
 5250POPC   GL166721  31.461  25.227   6.164
 5250POPC   GL266722  31.479  25.410   6.164
 5250POPC   C1A66723  31.466  25.222   6.464
 5250POPC   D2A66724  31.444  25.284   6.764
 5250POPC   C3A66725  31.503  25.255   7.064
 5250POPC   C4A66726  31.450  25.223   7.364
 5250POPC   C1B66727  31.483  25.535   6.464
 5250POPC   C2B66728  31.480  25.550   6.764
 5250POPC   C3B66729  31.488  25.509   7.064
 5250POPC   C4B66730  31.447  25.473   7.364
 5251POPC   NC366731  29.116  16.722   5.564
 5251POPC   PO466732  29.168  16.744   5.864
 5251POPC   GL166733  29.192  16.699   6.164
 5251POPC   GL266734  29.212  16.819   6.164
 5251POPC   C1A66735  29.158  16.685   6.464
 5251POPC   D2A66736  29.175  16.685   6.764
 5251POPC   C3A66737  29.140  16.772   7.064
 5251POPC   C4A66738  29.131  16.695   7.364
 5251POPC   C1B66739  29.290  16.914   6.464
 5251POPC   C2B66740  29.324  16.877   6.764
 5251POPC   C3B66741  29.331  16.907   7.064
 5251POPC   C4B66742  29.317  16.869   7.364
 5252POPC   NC366743  43.841  43.146   5.564
 5252POPC   PO466744  43.839  43.150   5.864
 5252POPC   GL166745  43.895  43.132   6.164
 5252POPC   GL266746  43.826  43.226   6.164
 5252POPC   C1A66747  43.854  43.103   6.464
 5252POPC   D2A66748  43.919  43.118   6.764
 5252POPC   C3A66749  43.883  43.132   7.064
 5252POPC   C4A66750  43.887  43.136   7.364
 5252POPC   C1B66751  43.741  43.319   6.464
 5252POPC   C2B66752  43.739  43.343   6.764
 5252POPC   C3B66753  43.725  43.346   7.064
 5252POPC   C4B66754  43.784  43.298   7.364
 5253POPC   NC366755   7.406  25.233   5.564
 5253POPC   PO466756   7.375  25.227   5.864
 5253POPC   GL166757   7.381  25.227   6.164
 5253POPC   GL266758   7.532  25.341   6.164
 5253POPC   C1A66759   7.382  25.222   6.464
 5253POPC   D2A66760   7.380  25.267   6.764
 5253POPC   C3A66761   7.394  25.229   7.064
 5253POPC   C4A66762   7.389  25.289   7.364
 5253POPC   C1B66763   7.628  25.304   6.464
 5253POPC   C2B66764   7.641  25.345   6.764
 5253POPC   C3B66765   7.610  25.313   7.064
 5253POPC   C4B66766   7.643  25.341   7.364
 5254POPC   NC366767   3.545  32.274   5.564
 5254POPC   PO466768   3.543  32.280   5.864
 5254POPC   GL166769   3.525  32.234   6.164
 5254POPC   GL266770   3.423  32.227   6.164
 5254POPC   C1A66771   3.501  32.255   6.464
 5254POPC   D2A66772   3.551  32.298   6.764
 5254POPC   C3A66773   3.535  32.203   7.064
 5254POPC   C4A66774   3.493  32.255   7.364
 5254POPC   C1B66775   3.300  32.088   6.464
 5254POPC   C2B66776   3.284  32.100   6.764
 5254POPC   C3B66777   3.332  32.144   7.064
 5254POPC   C4B66778   3.314  32.102   7.364
 5255POPC   NC366779   2.733   9.713   5.564
 5255POPC   PO466780   2.798   9.787   5.864
 5255POPC   GL166781   2.781   9.761   6.164
 5255POPC   GL266782   2.886   9.621   6.164
 5255POPC   C1A66783   2.743   9.722   6.464
 5255POPC   D2A66784   2.719   9.770   6.764
 5255POPC   C3A66785   2.743   9.792   7.064
 5255POPC   C4A66786   2.754   9.758   7.364
 5255POPC   C1B66787   2.993   9.590   6.464
 5255POPC   C2B66788   2.982   9.622   6.764
 5255POPC   C3B66789   2.904   9.546   7.064
 5255POPC   C4B66790   2.972   9.563   7.364
 5256POPC   NC366791  43.929  35.351   5.564
 5256POPC   PO466792  43.888  35.349   5.864
 5256POPC   GL166793  43.890  35.314   6.164
 5256POPC   GL266794  44.002  35.396   6.164
 5256POPC   C1A66795  43.877  35.321   6.464
 5256POPC   D2A66796  43.901  35.358   6.764
 5256POPC   C3A66797  43.904  35.392   7.064
 5256POPC   C4A66798  43.865  35.384   7.364
 5256POPC   C1B66799  44.171  35.429   6.464
 5256POPC   C2B66800  44.102  35.384   6.764
 5256POPC   C3B66801  44.131  35.444   7.064
 5256POPC   C4B66802  44.135  35.415   7.364
 5257POPC   NC366803  27.565   6.636   5.564
 5257POPC   PO466804  27.603   6.675   5.864
 5257POPC   GL166805  27.601   6.633   6.164
 5257POPC   GL266806  27.508   6.789   6.164
 5257POPC   C1A66807  27.584   6.629   6.464
 5257POPC   D2A66808  27.595   6.629   6.764
 5257POPC   C3A66809  27.553   6.686   7.064
 5257POPC   C4A66810  27.545   6.606   7.364
 5257POPC   C1B66811  27.443   6.809   6.464
 5257POPC   C2B66812  27.478   6.840   6.764
 5257POPC   C3B66813  27.488   6.868   7.064
 5257POPC   C4B66814  27.404   6.851   7.364
 5258POPC   NC366815  23.696  30.654   5.564
 5258POPC   PO466816  23.696  30.702   5.864
 5258POPC   GL166817  23.738  30.680   6.164
 5258POPC   GL266818  23.596  30.625   6.164
 5258POPC   C1A66819  23.690  30.713   6.464
 5258POPC   D2A66820  23.742  30.722   6.764
 5258POPC   C3A66821  23.724  30.691   7.064
 5258POPC   C4A66822  23.724  30.689   7.364
 5258POPC   C1B66823  23.456  30.551   6.464
 5258POPC   C2B66824  23.451  30.604   6.764
 5258POPC   C3B66825  23.508  30.532   7.064
 5258POPC   C4B66826  23.454  30.533   7.364
 5259POPC   NC366827  29.905  41.580   5.564
 5259POPC   PO466828  29.917  41.558   5.864
 5259POPC   GL166829  29.883  41.573   6.164
 5259POPC   GL266830  29.797  41.670   6.164
 5259POPC   C1A66831  29.882  41.526   6.464
 5259POPC   D2A66832  29.873  41.592   6.764
 5259POPC   C3A66833  29.878  41.586   7.064
 5259POPC   C4A66834  29.933  41.555   7.364
 5259POPC   C1B66835  29.752  41.698   6.464
 5259POPC   C2B66836  29.740  41.691   6.764
 5259POPC   C3B66837  29.715  41.723   7.064
 5259POPC   C4B66838  29.740  41.714   7.364
 5260POPC   NC366839  25.296   8.166   5.564
 5260POPC   PO466840  25.243   8.239   5.864
 5260POPC   GL166841  25.305   8.213   6.164
 5260POPC   GL266842  25.349   8.169   6.164
 5260POPC   C1A66843  25.264   8.151   6.464
 5260POPC   D2A66844  25.262   8.189   6.764
 5260POPC   C3A66845  25.230   8.217   7.064
 5260POPC   C4A66846  25.291   8.150   7.364
 5260POPC   C1B66847  25.512   8.216   6.464
 5260POPC   C2B66848  25.465   8.277   6.764
 5260POPC   C3B66849  25.552   8.205   7.064
 5260POPC   C4B66850  25.485   8.289   7.364
 5261POPC   NC366851   1.261  10.547   5.564
 5261POPC   PO466852   1.236  10.482   5.864
 5261POPC   GL166853   1.180  10.526   6.164
 5261POPC   GL266854   1.176  10.351   6.164
 5261POPC   C1A66855   1.246  10.539   6.464
 5261POPC   D2A66856   1.220  10.558   6.764
 5261POPC   C3A66857   1.240  10.547   7.064
 5261POPC   C4A66858   1.203  10.496   7.364
 5261POPC   C1B66859   1.220  10.297   6.464
 5261POPC   C2B66860   1.155  10.325   6.764
 5261POPC   C3B66861   1.202  10.279   7.064
 5261POPC   C4B66862   1.201  10.317   7.364
 5262POPC   NC366863  41.570   5.823   5.564
 5262POPC   PO466864  41.540   5.885   5.864
 5262POPC   GL166865  41.604   5.869   6.164
 5262POPC   GL266866  41.674   5.791   6.164
 5262POPC   C1A66867  41.537   5.850   6.464
 5262POPC   D2A66868  41.541   5.832   6.764
 5262POPC   C3A66869  41.574   5.890   7.064
 5262POPC   C4A66870  41.566   5.820   7.364
 5262POPC   C1B66871  41.661   5.651   6.464
 5262POPC   C2B66872  41.669   5.699   6.764
 5262POPC   C3B66873  41.674   5.624   7.064
 5262POPC   C4B66874  41.698   5.679   7.364
 5263POPC   NC366875  42.295  17.552   5.564
 5263POPC   PO466876  42.368  17.478   5.864
 5263POPC   GL166877  42.328  17.538   6.164
 5263POPC   GL266878  42.328  17.422   6.164
 5263POPC   C1A66879  42.373  17.534   6.464
 5263POPC   D2A66880  42.342  17.484   6.764
 5263POPC   C3A66881  42.307  17.508   7.064
 5263POPC   C4A66882  42.366  17.459   7.364
 5263POPC   C1B66883  42.371  17.229   6.464
 5263POPC   C2B66884  42.404  17.241   6.764
 5263POPC   C3B66885  42.404  17.210   7.064
 5263POPC   C4B66886  42.325  17.214   7.364
 5264POPC   NC366887  28.385  42.353   5.564
 5264POPC   PO466888  28.371  42.368   5.864
 5264POPC   GL166889  28.400  42.347   6.164
 5264POPC   GL266890  28.440  42.216   6.164
 5264POPC   C1A66891  28.335  42.313   6.464
 5264POPC   D2A66892  28.404  42.362   6.764
 5264POPC   C3A66893  28.403  42.367   7.064
 5264POPC   C4A66894  28.340  42.311   7.364
 5264POPC   C1B66895  28.515  42.115   6.464
 5264POPC   C2B66896  28.570  42.149   6.764
 5264POPC   C3B66897  28.586  42.175   7.064
 5264POPC   C4B66898  28.560  42.155   7.364
 5265POPC   NC366899   4.298  22.890   5.564
 5265POPC   PO466900   4.328  22.946   5.864
 5265POPC   GL166901   4.319  22.889   6.164
 5265POPC   GL266902   4.232  22.788   6.164
 5265POPC   C1A66903   4.295  22.970   6.464
 5265POPC   D2A66904   4.358  22.952   6.764
 5265POPC   C3A66905   4.283  22.915   7.064
 5265POPC   C4A66906   4.319  22.939   7.364
 5265POPC   C1B66907   4.201  22.711   6.464
 5265POPC   C2B66908   4.205  22.662   6.764
 5265POPC   C3B66909   4.249  22.737   7.064
 5265POPC   C4B66910   4.220  22.718   7.364
 5266POPC   NC366911  12.896  27.592   5.564
 5266POPC   PO466912  12.888  27.634   5.864
 5266POPC   GL166913  12.887  27.638   6.164
 5266POPC   GL266914  12.993  27.524   6.164
 5266POPC   C1A66915  12.812  27.605   6.464
 5266POPC   D2A66916  12.820  27.571   6.764
 5266POPC   C3A66917  12.833  27.595   7.064
 5266POPC   C4A66918  12.882  27.603   7.364
 5266POPC   C1B66919  13.068  27.557   6.464
 5266POPC   C2B66920  13.060  27.569   6.764
 5266POPC   C3B66921  13.138  27.563   7.064
 5266POPC   C4B66922  13.060  27.508   7.364
 5267POPC   NC366923  27.611   4.307   5.564
 5267POPC   PO466924  27.626   4.344   5.864
 5267POPC   GL166925  27.572   4.361   6.164
 5267POPC   GL266926  27.761   4.311   6.164
 5267POPC   C1A66927  27.624   4.298   6.464
 5267POPC   D2A66928  27.606   4.288   6.764
 5267POPC   C3A66929  27.639   4.311   7.064
 5267POPC   C4A66930  27.590   4.293   7.364
 5267POPC   C1B66931  27.815   4.286   6.464
 5267POPC   C2B66932  27.804   4.307   6.764
 5267POPC   C3B66933  27.883   4.352   7.064
 5267POPC   C4B66934  27.888   4.360   7.364
 5268POPC   NC366935   3.538  15.961   5.564
 5268POPC   PO466936   3.575  15.963   5.864
 5268POPC   GL166937   3.527  15.950   6.164
 5268POPC   GL266938   3.702  15.924   6.164
 5268POPC   C1A66939   3.585  15.995   6.464
 5268POPC   D2A66940   3.536  15.918   6.764
 5268POPC   C3A66941   3.553  15.973   7.064
 5268POPC   C4A66942   3.503  15.921   7.364
 5268POPC   C1B66943   3.810  15.901   6.464
 5268POPC   C2B66944   3.829  15.927   6.764
 5268POPC   C3B66945   3.807  15.908   7.064
 5268POPC   C4B66946   3.795  15.953   7.364
 5269POPC   NC366947  19.060  40.796   5.564
 5269POPC   PO466948  19.057  40.787   5.864
 5269POPC   GL166949  19.021  40.760   6.164
 5269POPC   GL266950  19.050  40.627   6.164
 5269POPC   C1A66951  19.047  40.771   6.464
 5269POPC   D2A66952  19.059  40.774   6.764
 5269POPC   C3A66953  19.062  40.794   7.064
 5269POPC   C4A66954  19.061  40.786   7.364
 5269POPC   C1B66955  19.039  40.555   6.464
 5269POPC   C2B66956  18.973  40.515   6.764
 5269POPC   C3B66957  19.035  40.498   7.064
 5269POPC   C4B66958  19.035  40.525   7.364
 5270POPC   NC366959  23.733  43.121   5.564
 5270POPC   PO466960  23.739  43.151   5.864
 5270POPC   GL166961  23.736  43.127   6.164
 5270POPC   GL266962  23.852  43.089   6.164
 5270POPC   C1A66963  23.700  43.094   6.464
 5270POPC   D2A66964  23.756  43.126   6.764
 5270POPC   C3A66965  23.686  43.092   7.064
 5270POPC   C4A66966  23.682  43.076   7.364
 5270POPC   C1B66967  23.965  43.059   6.464
 5270POPC   C2B66968  23.970  43.067   6.764
 5270POPC   C3B66969  23.976  43.095   7.064
 5270POPC   C4B66970  23.992  43.045   7.364
 5271POPC   NC366971  25.271  23.680   5.564
 5271POPC   PO466972  25.279  23.704   5.864
 5271POPC   GL166973  25.283  23.749   6.164
 5271POPC   GL266974  25.313  23.814   6.164
 5271POPC   C1A66975  25.246  23.707   6.464
 5271POPC   D2A66976  25.235  23.743   6.764
 5271POPC   C3A66977  25.309  23.706   7.064
 5271POPC   C4A66978  25.223  23.726   7.364
 5271POPC   C1B66979  25.339  23.988   6.464
 5271POPC   C2B66980  25.323  23.912   6.764
 5271POPC   C3B66981  25.312  23.968   7.064
 5271POPC   C4B66982  25.377  23.963   7.364
 5272POPC   NC366983  25.248  12.858   5.564
 5272POPC   PO466984  25.309  12.831   5.864
 5272POPC   GL166985  25.221  12.829   6.164
 5272POPC   GL266986  25.233  12.906   6.164
 5272POPC   C1A66987  25.229  12.818   6.464
 5272POPC   D2A66988  25.301  12.826   6.764
 5272POPC   C3A66989  25.313  12.849   7.064
 5272POPC   C4A66990  25.254  12.871   7.364
 5272POPC   C1B66991  25.060  13.061   6.464
 5272POPC   C2B66992  25.096  13.029   6.764
 5272POPC   C3B66993  25.079  13.025   7.064
 5272POPC   C4B66994  25.072  13.051   7.364
 5273POPC   NC366995  36.858  11.342   5.564
 5273POPC   PO466996  36.938  11.256   5.864
 5273POPC   GL166997  36.939  11.256   6.164
 5273POPC   GL266998  36.970  11.424   6.164
 5273POPC   C1A66999  36.876  11.308   6.464
 5273POPC   D2A67000  36.941  11.267   6.764
 5273POPC   C3A67001  36.912  11.273   7.064
 5273POPC   C4A67002  36.940  11.348   7.364
 5273POPC   C1B67003  37.034  11.495   6.464
 5273POPC   C2B67004  36.988  11.483   6.764
 5273POPC   C3B67005  37.048  11.498   7.064
 5273POPC   C4B67006  37.010  11.549   7.364
 5274POPC   NC367007  36.089  32.206   5.564
 5274POPC   PO467008  36.168  32.269   5.864
 5274POPC   GL167009  36.167  32.232   6.164
 5274POPC   GL267010  36.217  32.211   6.164
 5274POPC   C1A67011  36.111  32.291   6.464
 5274POPC   D2A67012  36.154  32.204   6.764
 5274POPC   C3A67013  36.080  32.212   7.064
 5274POPC   C4A67014  36.080  32.248   7.364
 5274POPC   C1B67015  36.304  32.143   6.464
 5274POPC   C2B67016  36.357  32.059   6.764
 5274POPC   C3B67017  36.303  32.147   7.064
 5274POPC   C4B67018  36.301  32.095   7.364
 5275POPC   NC367019  34.564  14.384   5.564
 5275POPC   PO467020  34.623  14.408   5.864
 5275POPC   GL167021  34.581  14.396   6.164
 5275POPC   GL267022  34.667  14.514   6.164
 5275POPC   C1A67023  34.569  14.421   6.464
 5275POPC   D2A67024  34.555  14.406   6.764
 5275POPC   C3A67025  34.558  14.362   7.064
 5275POPC   C4A67026  34.619  14.436   7.364
 5275POPC   C1B67027  34.631  14.630   6.464
 5275POPC   C2B67028  34.670  14.648   6.764
 5275POPC   C3B67029  34.674  14.651   7.064
 5275POPC   C4B67030  34.688  14.636   7.364
 5276POPC   NC367031  36.154  43.122   5.564
 5276POPC   PO467032  36.152  43.091   5.864
 5276POPC   GL167033  36.084  43.142   6.164
 5276POPC   GL267034  36.253  43.193   6.164
 5276POPC   C1A67035  36.093  43.143   6.464
 5276POPC   D2A67036  36.120  43.103   6.764
 5276POPC   C3A67037  36.152  43.106   7.064
 5276POPC   C4A67038  36.171  43.081   7.364
 5276POPC   C1B67039  36.269  43.316   6.464
 5276POPC   C2B67040  36.348  43.333   6.764
 5276POPC   C3B67041  36.332  43.329   7.064
 5276POPC   C4B67042  36.287  43.243   7.364
 5277POPC   NC367043  31.502   4.293   5.564
 5277POPC   PO467044  31.437   4.332   5.864
 5277POPC   GL167045  31.444   4.355   6.164
 5277POPC   GL267046  31.531   4.162   6.164
 5277POPC   C1A67047  31.521   4.355   6.464
 5277POPC   D2A67048  31.447   4.367   6.764
 5277POPC   C3A67049  31.502   4.303   7.064
 5277POPC   C4A67050  31.429   4.311   7.364
 5277POPC   C1B67051  31.583   4.086   6.464
 5277POPC   C2B67052  31.637   4.112   6.764
 5277POPC   C3B67053  31.606   4.071   7.064
 5277POPC   C4B67054  31.568   4.066   7.364
 5278POPC   NC367055   0.464  21.374   5.564
 5278POPC   PO467056   0.400  21.381   5.864
 5278POPC   GL167057   0.407  21.370   6.164
 5278POPC   GL267058   0.484  21.529   6.164
 5278POPC   C1A67059   0.469  21.423   6.464
 5278POPC   D2A67060   0.420  21.377   6.764
 5278POPC   C3A67061   0.440  21.398   7.064
 5278POPC   C4A67062   0.487  21.428   7.364
 5278POPC   C1B67063   0.592  21.595   6.464
 5278POPC   C2B67064   0.552  21.596   6.764
 5278POPC   C3B67065   0.567  21.593   7.064
 5278POPC   C4B67066   0.582  21.588   7.364
 5279POPC   NC367067  10.555  15.188   5.564
 5279POPC   PO467068  10.522  15.179   5.864
 5279POPC   GL167069  10.523  15.138   6.164
 5279POPC   GL267070  10.591  15.077   6.164
 5279POPC   C1A67071  10.563  15.141   6.464
 5279POPC   D2A67072  10.505  15.221   6.764
 5279POPC   C3A67073  10.533  15.159   7.064
 5279POPC   C4A67074  10.556  15.155   7.364
 5279POPC   C1B67075  10.741  15.015   6.464
 5279POPC   C2B67076  10.729  15.007   6.764
 5279POPC   C3B67077  10.700  14.992   7.064
 5279POPC   C4B67078  10.717  15.042   7.364
 5280POPC   NC367079  42.383  33.819   5.564
 5280POPC   PO467080  42.298  33.767   5.864
 5280POPC   GL167081  42.363  33.765   6.164
 5280POPC   GL267082  42.415  33.781   6.164
 5280POPC   C1A67083  42.306  33.756   6.464
 5280POPC   D2A67084  42.292  33.800   6.764
 5280POPC   C3A67085  42.357  33.798   7.064
 5280POPC   C4A67086  42.308  33.841   7.364
 5280POPC   C1B67087  42.575  33.842   6.464
 5280POPC   C2B67088  42.575  33.753   6.764
 5280POPC   C3B67089  42.593  33.764   7.064
 5280POPC   C4B67090  42.553  33.824   7.364
 5281POPC   NC367091  15.158  32.977   5.564
 5281POPC   PO467092  15.163  32.980   5.864
 5281POPC   GL167093  15.168  33.052   6.164
 5281POPC   GL267094  15.040  33.141   6.164
 5281POPC   C1A67095  15.169  32.988   6.464
 5281POPC   D2A67096  15.149  33.008   6.764
 5281POPC   C3A67097  15.169  32.987   7.064
 5281POPC   C4A67098  15.136  32.980   7.364
 5281POPC   C1B67099  14.980  33.240   6.464
 5281POPC   C2B67100  15.025  33.203   6.764
 5281POPC   C3B67101  14.959  33.198   7.064
 5281POPC   C4B67102  15.045  33.156   7.364
 5282POPC   NC367103  12.872   4.332   5.564
 5282POPC   PO467104  12.872   4.339   5.864
 5282POPC   GL167105  12.813   4.340   6.164
 5282POPC   GL267106  12.821   4.376   6.164
 5282POPC   C1A67107  12.827   4.269   6.464
 5282POPC   D2A67108  12.873   4.280   6.764
 5282POPC   C3A67109  12.860   4.327   7.064
 5282POPC   C4A67110  12.873   4.365   7.364
 5282POPC   C1B67111  12.762   4.572   6.464
 5282POPC   C2B67112  12.757   4.530   6.764
 5282POPC   C3B67113  12.696   4.562   7.064
 5282POPC   C4B67114  12.726   4.497   7.364
 5283POPC   NC367115  25.273  36.862   5.564
 5283POPC   PO467116  25.256  36.936   5.864
 5283POPC   GL167117  25.271  36.863   6.164
 5283POPC   GL267118  25.351  36.980   6.164
 5283POPC   C1A67119  25.230  36.908   6.464
 5283POPC   D2A67120  25.266  36.875   6.764
 5283POPC   C3A67121  25.240  36.932   7.064
 5283POPC   C4A67122  25.244  36.857   7.364
 5283POPC   C1B67123  25.405  37.169   6.464
 5283POPC   C2B67124  25.343  37.093   6.764
 5283POPC   C3B67125  25.377  37.157   7.064
 5283POPC   C4B67126  25.393  37.091   7.364
 5284POPC   NC367127  22.962  39.185   5.564
 5284POPC   PO467128  22.957  39.222   5.864
 5284POPC   GL167129  22.906  39.210   6.164
 5284POPC   GL267130  23.088  39.138   6.164
 5284POPC   C1A67131  22.954  39.277   6.464
 5284POPC   D2A67132  22.901  39.182   6.764
 5284POPC   C3A67133  22.979  39.234   7.064
 5284POPC   C4A67134  22.968  39.270   7.364
 5284POPC   C1B67135  23.124  39.160   6.464
 5284POPC   C2B67136  23.197  39.115   6.764
 5284POPC   C3B67137  23.124  39.169   7.064
 5284POPC   C4B67138  23.177  39.134   7.364
 5285POPC   NC367139  29.136  39.974   5.564
 5285POPC   PO467140  29.160  39.991   5.864
 5285POPC   GL167141  29.109  40.029   6.164
 5285POPC   GL267142  29.235  40.063   6.164
 5285POPC   C1A67143  29.128  40.011   6.464
 5285POPC   D2A67144  29.184  40.015   6.764
 5285POPC   C3A67145  29.182  40.022   7.064
 5285POPC   C4A67146  29.137  40.017   7.364
 5285POPC   C1B67147  29.383  40.006   6.464
 5285POPC   C2B67148  29.357  39.998   6.764
 5285POPC   C3B67149  29.371  39.995   7.064
 5285POPC   C4B67150  29.413  40.029   7.364
 5286POPC   NC367151  31.441  44.681   5.564
 5286POPC   PO467152  31.467  44.704   5.864
 5286POPC   GL167153  31.496  44.670   6.164
 5286POPC   GL267154  31.354  44.588   6.164
 5286POPC   C1A67155  31.475  44.668   6.464
 5286POPC   D2A67156  31.474  44.638   6.764
 5286POPC   C3A67157  31.462  44.627   7.064
 5286POPC   C4A67158  31.458  44.690   7.364
 5286POPC   C1B67159  31.183  44.643   6.464
 5286POPC   C2B67160  31.272  44.624   6.764
 5286POPC   C3B67161  31.221  44.576   7.064
 5286POPC   C4B67162  31.224  44.566   7.364
 5287POPC   NC367163  15.913  33.758   5.564
 5287POPC   PO467164  15.923  33.801   5.864
 5287POPC   GL167165  15.987  33.780   6.164
 5287POPC   GL267166  15.885  33.897   6.164
 5287POPC   C1A67167  15.953  33.800   6.464
 5287POPC   D2A67168  15.950  33.825   6.764
 5287POPC   C3A67169  15.911  33.751   7.064
 5287POPC   C4A67170  15.942  33.832   7.364
 5287POPC   C1B67171  15.821  34.005   6.464
 5287POPC   C2B67172  15.812  33.963   6.764
 5287POPC   C3B67173  15.767  33.999   7.064
 5287POPC   C4B67174  15.819  33.964   7.364
 5288POPC   NC367175   8.953  29.158   5.564
 5288POPC   PO467176   9.003  29.130   5.864
 5288POPC   GL167177   8.934  29.134   6.164
 5288POPC   GL267178   8.860  29.028   6.164
 5288POPC   C1A67179   8.997  29.161   6.464
 5288POPC   D2A67180   8.963  29.193   6.764
 5288POPC   C3A67181   9.014  29.155   7.064
 5288POPC   C4A67182   8.933  29.132   7.364
 5288POPC   C1B67183   8.781  28.946   6.464
 5288POPC   C2B67184   8.791  29.039   6.764
 5288POPC   C3B67185   8.814  29.040   7.064
 5288POPC   C4B67186   8.766  28.949   7.364
 5289POPC   NC367187  32.979   0.399   5.564
 5289POPC   PO467188  33.063   0.409   5.864
 5289POPC   GL167189  32.977   0.482   6.164
 5289POPC   GL267190  32.966   0.304   6.164
 5289POPC   C1A67191  32.974   0.451   6.464
 5289POPC   D2A67192  33.060   0.443   6.764
 5289POPC   C3A67193  33.058   0.473   7.064
 5289POPC   C4A67194  32.980   0.438   7.364
 5289POPC   C1B67195  32.931   0.201   6.464
 5289POPC   C2B67196  32.882   0.195   6.764
 5289POPC   C3B67197  32.906   0.217   7.064
 5289POPC   C4B67198  32.869   0.241   7.364
 5290POPC   NC367199  20.577  28.338   5.564
 5290POPC   PO467200  20.564  28.418   5.864
 5290POPC   GL167201  20.656  28.368   6.164
 5290POPC   GL267202  20.453  28.346   6.164
 5290POPC   C1A67203  20.649  28.355   6.464
 5290POPC   D2A67204  20.585  28.335   6.764
 5290POPC   C3A67205  20.648  28.336   7.064
 5290POPC   C4A67206  20.586  28.392   7.364
 5290POPC   C1B67207  20.329  28.323   6.464
 5290POPC   C2B67208  20.395  28.322   6.764
 5290POPC   C3B67209  20.379  28.268   7.064
 5290POPC   C4B67210  20.357  28.309   7.364
 5291POPC   NC367211  34.575   0.456   5.564
 5291POPC   PO467212  34.537   0.455   5.864
 5291POPC   GL167213  34.537   0.447   6.164
 5291POPC   GL267214  34.448   0.416   6.164
 5291POPC   C1A67215  34.578   0.469   6.464
 5291POPC   D2A67216  34.548   0.449   6.764
 5291POPC   C3A67217  34.540   0.448   7.064
 5291POPC   C4A67218  34.605   0.420   7.364
 5291POPC   C1B67219  34.369   0.337   6.464
 5291POPC   C2B67220  34.378   0.349   6.764
 5291POPC   C3B67221  34.331   0.315   7.064
 5291POPC   C4B67222  34.322   0.386   7.364
 5292POPC   NC367223   9.021  12.870   5.564
 5292POPC   PO467224   8.988  12.845   5.864
 5292POPC   GL167225   8.947  12.882   6.164
 5292POPC   GL267226   8.948  12.966   6.164
 5292POPC   C1A67227   8.966  12.896   6.464
 5292POPC   D2A67228   9.015  12.870   6.764
 5292POPC   C3A67229   8.992  12.823   7.064
 5292POPC   C4A67230   8.948  12.887   7.364
 5292POPC   C1B67231   8.961  13.062   6.464
 5292POPC   C2B67232   8.904  13.089   6.764
 5292POPC   C3B67233   8.991  13.118   7.064
 5292POPC   C4B67234   8.956  13.051   7.364
 5293POPC   NC367235  18.261  26.067   5.564
 5293POPC   PO467236  18.240  25.998   5.864
 5293POPC   GL167237  18.295  26.040   6.164
 5293POPC   GL267238  18.381  26.112   6.164
 5293POPC   C1A67239  18.307  26.055   6.464
 5293POPC   D2A67240  18.332  26.062   6.764
 5293POPC   C3A67241  18.259  26.038   7.064
 5293POPC   C4A67242  18.307  26.082   7.364
 5293POPC   C1B67243  18.390  26.306   6.464
 5293POPC   C2B67244  18.348  26.268   6.764
 5293POPC   C3B67245  18.363  26.251   7.064
 5293POPC   C4B67246  18.376  26.223   7.364
 5294POPC   NC367247  16.704   9.771   5.564
 5294POPC   PO467248  16.695   9.718   5.864
 5294POPC   GL167249  16.772   9.796   6.164
 5294POPC   GL267250  16.808   9.814   6.164
 5294POPC   C1A67251  16.701   9.717   6.464
 5294POPC   D2A67252  16.780   9.742   6.764
 5294POPC   C3A67253  16.757   9.708   7.064
 5294POPC   C4A67254  16.682   9.755   7.364
 5294POPC   C1B67255  16.996   9.816   6.464
 5294POPC   C2B67256  16.987   9.811   6.764
 5294POPC   C3B67257  16.954   9.803   7.064
 5294POPC   C4B67258  16.935   9.786   7.364
 5295POPC   NC367259  37.701  19.090   5.564
 5295POPC   PO467260  37.690  19.104   5.864
 5295POPC   GL167261  37.725  19.056   6.164
 5295POPC   GL267262  37.591  19.117   6.164
 5295POPC   C1A67263  37.691  19.080   6.464
 5295POPC   D2A67264  37.688  19.088   6.764
 5295POPC   C3A67265  37.670  19.049   7.064
 5295POPC   C4A67266  37.631  19.086   7.364
 5295POPC   C1B67267  37.406  19.090   6.464
 5295POPC   C2B67268  37.453  19.069   6.764
 5295POPC   C3B67269  37.418  19.082   7.064
 5295POPC   C4B67270  37.449  19.050   7.364
 5296POPC   NC367271  28.379  44.672   5.564
 5296POPC   PO467272  28.334  44.712   5.864
 5296POPC   GL167273  28.365  44.699   6.164
 5296POPC   GL267274  28.441  44.791   6.164
 5296POPC   C1A67275  28.336  44.667   6.464
 5296POPC   D2A67276  28.383  44.618   6.764
 5296POPC   C3A67277  28.325  44.619   7.064
 5296POPC   C4A67278  28.352  44.629   7.364
 5296POPC   C1B67279  28.453  44.889   6.464
 5296POPC   C2B67280  28.481  44.895   6.764
 5296POPC   C3B67281  28.451  44.933   7.064
 5296POPC   C4B67282  28.467  44.865   7.364
 5297POPC   NC367283  26.061   9.705   5.564
 5297POPC   PO467284  26.010   9.775   5.864
 5297POPC   GL167285  26.008   9.702   6.164
 5297POPC   GL267286  25.933   9.666   6.164
 5297POPC   C1A67287  26.079   9.775   6.464
 5297POPC   D2A67288  26.036   9.746   6.764
 5297POPC   C3A67289  26.032   9.730   7.064
 5297POPC   C4A67290  26.064   9.735   7.364
 5297POPC   C1B67291  25.819   9.665   6.464
 5297POPC   C2B67292  25.848   9.625   6.764
 5297POPC   C3B67293  25.807   9.669   7.064
 5297POPC   C4B67294  25.832   9.582   7.364
 5298POPC   NC367295  15.988   9.751   5.564
 5298POPC   PO467296  15.943   9.716   5.864
 5298POPC   GL167297  15.997   9.757   6.164
 5298POPC   GL267298  15.875   9.862   6.164
 5298POPC   C1A67299  15.906   9.723   6.464
 5298POPC   D2A67300  15.950   9.770   6.764
 5298POPC   C3A67301  15.995   9.699   7.064
 5298POPC   C4A67302  15.916   9.749   7.364
 5298POPC   C1B67303  15.849  10.015   6.464
 5298POPC   C2B67304  15.811   9.934   6.764
 5298POPC   C3B67305  15.871   9.940   7.064
 5298POPC   C4B67306  15.845   9.965   7.364
 5299POPC   NC367307   8.954  21.372   5.564
 5299POPC   PO467308   9.016  21.387   5.864
 5299POPC   GL167309   8.925  21.423   6.164
 5299POPC   GL267310   9.101  21.345   6.164
 5299POPC   C1A67311   8.959  21.423   6.464
 5299POPC   D2A67312   8.973  21.396   6.764
 5299POPC   C3A67313   8.938  21.399   7.064
 5299POPC   C4A67314   8.937  21.389   7.364
 5299POPC   C1B67315   9.209  21.374   6.464
 5299POPC   C2B67316   9.263  21.308   6.764
 5299POPC   C3B67317   9.198  21.394   7.064
 5299POPC   C4B67318   9.197  21.349   7.364
 5300POPC   NC367319   2.783  44.628   5.564
 5300POPC   PO467320   2.726  44.624   5.864
 5300POPC   GL167321   2.757  44.694   6.164
 5300POPC   GL267322   2.666  44.662   6.164
 5300POPC   C1A67323   2.813  44.695   6.464
 5300POPC   D2A67324   2.725  44.698   6.764
 5300POPC   C3A67325   2.731  44.675   7.064
 5300POPC   C4A67326   2.723  44.711   7.364
 5300POPC   C1B67327   2.540  44.678   6.464
 5300POPC   C2B67328   2.475  44.675   6.764
 5300POPC   C3B67329   2.495  44.674   7.064
 5300POPC   C4B67330   2.472  44.721   7.364
 5301POPC   NC367331  23.707   9.728   5.564
 5301POPC   PO467332  23.674   9.753   5.864
 5301POPC   GL167333  23.750   9.743   6.164
 5301POPC   GL267334  23.759   9.677   6.164
 5301POPC   C1A67335  23.690   9.702   6.464
 5301POPC   D2A67336  23.680   9.757   6.764
 5301POPC   C3A67337  23.753   9.773   7.064
 5301POPC   C4A67338  23.673   9.796   7.364
 5301POPC   C1B67339  23.825   9.490   6.464
 5301POPC   C2B67340  23.846   9.533   6.764
 5301POPC   C3B67341  23.875   9.492   7.064
 5301POPC   C4B67342  23.887   9.514   7.364
 5302POPC   NC367343  43.093  28.365   5.564
 5302POPC   PO467344  43.066  28.365   5.864
 5302POPC   GL167345  43.141  28.380   6.164
 5302POPC   GL267346  42.951  28.329   6.164
 5302POPC   C1A67347  43.073  28.406   6.464
 5302POPC   D2A67348  43.068  28.381   6.764
 5302POPC   C3A67349  43.144  28.354   7.064
 5302POPC   C4A67350  43.128  28.403   7.364
 5302POPC   C1B67351  42.821  28.386   6.464
 5302POPC   C2B67352  42.832  28.347   6.764
 5302POPC   C3B67353  42.899  28.346   7.064
 5302POPC   C4B67354  42.844  28.341   7.364
 5303POPC   NC367355   0.445  27.629   5.564
 5303POPC   PO467356   0.405  27.640   5.864
 5303POPC   GL167357   0.484  27.589   6.164
 5303POPC   GL267358   0.339  27.685   6.164
 5303POPC   C1A67359   0.439  27.584   6.464
 5303POPC   D2A67360   0.391  27.621   6.764
 5303POPC   C3A67361   0.449  27.623   7.064
 5303POPC   C4A67362   0.459  27.551   7.364
 5303POPC   C1B67363   0.228  27.766   6.464
 5303POPC   C2B67364   0.262  27.805   6.764
 5303POPC   C3B67365   0.303  27.737   7.064
 5303POPC   C4B67366   0.286  27.728   7.364
 5304POPC   NC367367  36.927  10.530   5.564
 5304POPC   PO467368  36.905  10.492   5.864
 5304POPC   GL167369  36.932  10.550   6.164
 5304POPC   GL267370  36.784  10.446   6.164
 5304POPC   C1A67371  36.912  10.524   6.464
 5304POPC   D2A67372  36.874  10.515   6.764
 5304POPC   C3A67373  36.882  10.547   7.064
 5304POPC   C4A67374  36.951  10.483   7.364
 5304POPC   C1B67375  36.776  10.363   6.464
 5304POPC   C2B67376  36.742  10.369   6.764
 5304POPC   C3B67377  36.776  10.333   7.064
 5304POPC   C4B67378  36.709  10.364   7.364
 5305POPC   NC367379   3.506   1.194   5.564
 5305POPC   PO467380   3.585   1.172   5.864
 5305POPC   GL167381   3.586   1.203   6.164
 5305POPC   GL267382   3.683   1.289   6.164
 5305POPC   C1A67383   3.591   1.248   6.464
 5305POPC   D2A67384   3.576   1.253   6.764
 5305POPC   C3A67385   3.534   1.254   7.064
 5305POPC   C4A67386   3.496   1.183   7.364
 5305POPC   C1B67387   3.741   1.333   6.464
 5305POPC   C2B67388   3.818   1.260   6.764
 5305POPC   C3B67389   3.744   1.331   7.064
 5305POPC   C4B67390   3.783   1.303   7.364
 5306POPC   NC367391  19.834  19.859   5.564
 5306POPC   PO467392  19.874  19.844   5.864
 5306POPC   GL167393  19.841  19.816   6.164
 5306POPC   GL267394  19.699  19.815   6.164
 5306POPC   C1A67395  19.878  19.850   6.464
 5306POPC   D2A67396  19.820  19.843   6.764
 5306POPC   C3A67397  19.817  19.844   7.064
 5306POPC   C4A67398  19.792  19.840   7.364
 5306POPC   C1B67399  19.572  19.731   6.464
 5306POPC   C2B67400  19.636  19.673   6.764
 5306POPC   C3B67401  19.638  19.690   7.064
 5306POPC   C4B67402  19.671  19.707   7.364
 5307POPC   NC367403  13.611   4.361   5.564
 5307POPC   PO467404  13.623   4.339   5.864
 5307POPC   GL167405  13.618   4.332   6.164
 5307POPC   GL267406  13.478   4.278   6.164
 5307POPC   C1A67407  13.656   4.305   6.464
 5307POPC   D2A67408  13.655   4.270   6.764
 5307POPC   C3A67409  13.661   4.294   7.064
 5307POPC   C4A67410  13.582   4.314   7.364
 5307POPC   C1B67411  13.379   4.194   6.464
 5307POPC   C2B67412  13.376   4.146   6.764
 5307POPC   C3B67413  13.395   4.131   7.064
 5307POPC   C4B67414  13.403   4.213   7.364
 5308POPC   NC367415  41.526  18.291   5.564
 5308POPC   PO467416  41.542  18.247   5.864
 5308POPC   GL167417  41.515  18.273   6.164
 5308POPC   GL267418  41.539  18.145   6.164
 5308POPC   C1A67419  41.549  18.275   6.464
 5308POPC   D2A67420  41.543  18.241   6.764
 5308POPC   C3A67421  41.594  18.253   7.064
 5308POPC   C4A67422  41.608  18.238   7.364
 5308POPC   C1B67423  41.466  18.006   6.464
 5308POPC   C2B67424  41.470  18.001   6.764
 5308POPC   C3B67425  41.481  18.042   7.064
 5308POPC   C4B67426  41.531  18.018   7.364
 5309POPC   NC367427  44.633  21.399   5.564
 5309POPC   PO467428  44.652  21.346   5.864
 5309POPC   GL167429  44.705  21.428   6.164
 5309POPC   GL267430  44.566  21.460   6.164
 5309POPC   C1A67431  44.708  21.389   6.464
 5309POPC   D2A67432  44.652  21.432   6.764
 5309POPC   C3A67433  44.621  21.390   7.064
 5309POPC   C4A67434  44.686  21.368   7.364
 5309POPC   C1B67435  44.514  21.541   6.464
 5309POPC   C2B67436  44.513  21.625   6.764
 5309POPC   C3B67437  44.544  21.534   7.064
 5309POPC   C4B67438  44.501  21.610   7.364
 5310POPC   NC367439  10.552  38.459   5.564
 5310POPC   PO467440  10.507  38.450   5.864
 5310POPC   GL167441  10.516  38.412   6.164
 5310POPC   GL267442  10.493  38.547   6.164
 5310POPC   C1A67443  10.535  38.497   6.464
 5310POPC   D2A67444  10.529  38.418   6.764
 5310POPC   C3A67445  10.482  38.406   7.064
 5310POPC   C4A67446  10.485  38.498   7.364
 5310POPC   C1B67447  10.449  38.702   6.464
 5310POPC   C2B67448  10.405  38.724   6.764
 5310POPC   C3B67449  10.471  38.733   7.064
 5310POPC   C4B67450  10.392  38.735   7.364
 5311POPC   NC367451  32.219   5.106   5.564
 5311POPC   PO467452  32.284   5.123   5.864
 5311POPC   GL167453  32.282   5.044   6.164
 5311POPC   GL267454  32.185   4.987   6.164
 5311POPC   C1A67455  32.217   5.115   6.464
 5311POPC   D2A67456  32.271   5.075   6.764
 5311POPC   C3A67457  32.245   5.097   7.064
 5311POPC   C4A67458  32.234   5.116   7.364
 5311POPC   C1B67459  32.191   4.861   6.464
 5311POPC   C2B67460  32.179   4.824   6.764
 5311POPC   C3B67461  32.199   4.882   7.064
 5311POPC   C4B67462  32.191   4.856   7.364
 5312POPC   NC367463  35.366   2.017   5.564
 5312POPC   PO467464  35.375   1.973   5.864
 5312POPC   GL167465  35.324   2.000   6.164
 5312POPC   GL267466  35.453   1.901   6.164
 5312POPC   C1A67467  35.372   1.976   6.464
 5312POPC   D2A67468  35.316   1.941   6.764
 5312POPC   C3A67469  35.380   2.029   7.064
 5312POPC   C4A67470  35.333   2.007   7.364
 5312POPC   C1B67471  35.573   1.887   6.464
 5312POPC   C2B67472  35.567   1.916   6.764
 5312POPC   C3B67473  35.579   1.921   7.064
 5312POPC   C4B67474  35.587   1.858   7.364
 5313POPC   NC367475  41.564   1.201   5.564
 5313POPC   PO467476  41.556   1.221   5.864
 5313POPC   GL167477  41.519   1.239   6.164
 5313POPC   GL267478  41.655   1.204   6.164
 5313POPC   C1A67479  41.606   1.234   6.464
 5313POPC   D2A67480  41.563   1.223   6.764
 5313POPC   C3A67481  41.520   1.229   7.064
 5313POPC   C4A67482  41.583   1.245   7.364
 5313POPC   C1B67483  41.765   1.271   6.464
 5313POPC   C2B67484  41.853   1.284   6.764
 5313POPC   C3B67485  41.758   1.286   7.064
 5313POPC   C4B67486  41.802   1.235   7.364
 5314POPC   NC367487  12.038  24.503   5.564
 5314POPC   PO467488  12.059  24.539   5.864
 5314POPC   GL167489  12.063  24.482   6.164
 5314POPC   GL267490  12.036  24.410   6.164
 5314POPC   C1A67491  12.040  24.495   6.464
 5314POPC   D2A67492  12.109  24.474   6.764
 5314POPC   C3A67493  12.106  24.524   7.064
 5314POPC   C4A67494  12.066  24.534   7.364
 5314POPC   C1B67495  12.094  24.262   6.464
 5314POPC   C2B67496  12.089  24.247   6.764
 5314POPC   C3B67497  12.111  24.240   7.064
 5314POPC   C4B67498  12.061  24.230   7.364
 5315POPC   NC367499   6.647  26.001   5.564
 5315POPC   PO467500   6.694  26.059   5.864
 5315POPC   GL167501   6.690  26.051   6.164
 5315POPC   GL267502   6.620  26.188   6.164
 5315POPC   C1A67503   6.610  26.061   6.464
 5315POPC   D2A67504   6.689  26.052   6.764
 5315POPC   C3A67505   6.602  26.072   7.064
 5315POPC   C4A67506   6.595  26.085   7.364
 5315POPC   C1B67507   6.577  26.266   6.464
 5315POPC   C2B67508   6.634  26.245   6.764
 5315POPC   C3B67509   6.648  26.265   7.064
 5315POPC   C4B67510   6.591  26.242   7.364
 5316POPC   NC367511   9.708  27.639   5.564
 5316POPC   PO467512   9.784  27.599   5.864
 5316POPC   GL167513   9.780  27.563   6.164
 5316POPC   GL267514   9.595  27.535   6.164
 5316POPC   C1A67515   9.780  27.635   6.464
 5316POPC   D2A67516   9.707  27.588   6.764
 5316POPC   C3A67517   9.792  27.608   7.064
 5316POPC   C4A67518   9.742  27.555   7.364
 5316POPC   C1B67519   9.491  27.464   6.464
 5316POPC   C2B67520   9.561  27.455   6.764
 5316POPC   C3B67521   9.524  27.452   7.064
 5316POPC   C4B67522   9.505  27.423   7.364
 5317POPC   NC367523  29.960  44.661   5.564
 5317POPC   PO467524  29.907  44.703   5.864
 5317POPC   GL167525  29.881  44.623   6.164
 5317POPC   GL267526  30.064  44.715   6.164
 5317POPC   C1A67527  29.894  44.680   6.464
 5317POPC   D2A67528  29.889  44.674   6.764
 5317POPC   C3A67529  29.950  44.680   7.064
 5317POPC   C4A67530  29.902  44.645   7.364
 5317POPC   C1B67531  30.141  44.780   6.464
 5317POPC   C2B67532  30.138  44.790   6.764
 5317POPC   C3B67533  30.093  44.851   7.064
 5317POPC   C4B67534  30.130  44.854   7.364
 5318POPC   NC367535   2.004   1.990   5.564
 5318POPC   PO467536   2.011   2.024   5.864
 5318POPC   GL167537   1.986   1.953   6.164
 5318POPC   GL267538   1.839   1.976   6.164
 5318POPC   C1A67539   1.961   2.006   6.464
 5318POPC   D2A67540   1.953   1.943   6.764
 5318POPC   C3A67541   1.996   2.035   7.064
 5318POPC   C4A67542   1.968   2.011   7.364
 5318POPC   C1B67543   1.772   2.041   6.464
 5318POPC   C2B67544   1.732   1.992   6.764
 5318POPC   C3B67545   1.770   2.082   7.064
 5318POPC   C4B67546   1.765   2.000   7.364
 5319POPC   NC367547  36.909  25.216   5.564
 5319POPC   PO467548  36.860  25.278   5.864
 5319POPC   GL167549  36.870  25.223   6.164
 5319POPC   GL267550  36.785  25.261   6.164
 5319POPC   C1A67551  36.923  25.270   6.464
 5319POPC   D2A67552  36.953  25.221   6.764
 5319POPC   C3A67553  36.924  25.240   7.064
 5319POPC   C4A67554  36.902  25.219   7.364
 5319POPC   C1B67555  36.703  25.253   6.464
 5319POPC   C2B67556  36.702  25.328   6.764
 5319POPC   C3B67557  36.635  25.266   7.064
 5319POPC   C4B67558  36.654  25.276   7.364
 5320POPC   NC367559  39.237  24.533   5.564
 5320POPC   PO467560  39.213  24.536   5.864
 5320POPC   GL167561  39.188  24.533   6.164
 5320POPC   GL267562  39.289  24.628   6.164
 5320POPC   C1A67563  39.254  24.529   6.464
 5320POPC   D2A67564  39.257  24.507   6.764
 5320POPC   C3A67565  39.281  24.470   7.064
 5320POPC   C4A67566  39.217  24.483   7.364
 5320POPC   C1B67567  39.426  24.660   6.464
 5320POPC   C2B67568  39.387  24.671   6.764
 5320POPC   C3B67569  39.424  24.657   7.064
 5320POPC   C4B67570  39.421  24.628   7.364
 5321POPC   NC367571   6.632  13.638   5.564
 5321POPC   PO467572   6.600  13.589   5.864
 5321POPC   GL167573   6.610  13.613   6.164
 5321POPC   GL267574   6.565  13.699   6.164
 5321POPC   C1A67575   6.682  13.657   6.464
 5321POPC   D2A67576   6.667  13.645   6.764
 5321POPC   C3A67577   6.637  13.602   7.064
 5321POPC   C4A67578   6.688  13.643   7.364
 5321POPC   C1B67579   6.506  13.834   6.464
 5321POPC   C2B67580   6.565  13.843   6.764
 5321POPC   C3B67581   6.538  13.874   7.064
 5321POPC   C4B67582   6.504  13.821   7.364
 5322POPC   NC367583  39.225  42.302   5.564
 5322POPC   PO467584  39.264  42.377   5.864
 5322POPC   GL167585  39.202  42.342   6.164
 5322POPC   GL267586  39.358  42.413   6.164
 5322POPC   C1A67587  39.209  42.325   6.464
 5322POPC   D2A67588  39.272  42.336   6.764
 5322POPC   C3A67589  39.214  42.289   7.064
 5322POPC   C4A67590  39.216  42.320   7.364
 5322POPC   C1B67591  39.513  42.401   6.464
 5322POPC   C2B67592  39.472  42.364   6.764
 5322POPC   C3B67593  39.430  42.383   7.064
 5322POPC   C4B67594  39.511  42.433   7.364
 5323POPC   NC367595  26.020  19.883   5.564
 5323POPC   PO467596  26.042  19.798   5.864
 5323POPC   GL167597  25.993  19.805   6.164
 5323POPC   GL267598  26.095  19.756   6.164
 5323POPC   C1A67599  26.012  19.823   6.464
 5323POPC   D2A67600  26.075  19.848   6.764
 5323POPC   C3A67601  26.006  19.865   7.064
 5323POPC   C4A67602  26.004  19.785   7.364
 5323POPC   C1B67603  26.096  19.551   6.464
 5323POPC   C2B67604  26.098  19.599   6.764
 5323POPC   C3B67605  26.060  19.592   7.064
 5323POPC   C4B67606  26.083  19.573   7.364
 5324POPC   NC367607   8.160   8.956   5.564
 5324POPC   PO467608   8.231   8.945   5.864
 5324POPC   GL167609   8.243   9.019   6.164
 5324POPC   GL267610   8.278   8.983   6.164
 5324POPC   C1A67611   8.201   9.010   6.464
 5324POPC   D2A67612   8.191   8.945   6.764
 5324POPC   C3A67613   8.150   8.946   7.064
 5324POPC   C4A67614   8.230   8.933   7.364
 5324POPC   C1B67615   8.403   9.014   6.464
 5324POPC   C2B67616   8.410   9.037   6.764
 5324POPC   C3B67617   8.490   9.037   7.064
 5324POPC   C4B67618   8.402   9.000   7.364
 5325POPC   NC367619  43.872  26.789   5.564
 5325POPC   PO467620  43.838  26.774   5.864
 5325POPC   GL167621  43.860  26.820   6.164
 5325POPC   GL267622  43.733  26.820   6.164
 5325POPC   C1A67623  43.905  26.849   6.464
 5325POPC   D2A67624  43.878  26.842   6.764
 5325POPC   C3A67625  43.859  26.789   7.064
 5325POPC   C4A67626  43.844  26.782   7.364
 5325POPC   C1B67627  43.668  26.787   6.464
 5325POPC   C2B67628  43.678  26.817   6.764
 5325POPC   C3B67629  43.639  26.783   7.064
 5325POPC   C4B67630  43.651  26.770   7.364
 5326POPC   NC367631  16.707   5.844   5.564
 5326POPC   PO467632  16.758   5.827   5.864
 5326POPC   GL167633  16.699   5.917   6.164
 5326POPC   GL267634  16.846   5.963   6.164
 5326POPC   C1A67635  16.702   5.885   6.464
 5326POPC   D2A67636  16.723   5.824   6.764
 5326POPC   C3A67637  16.693   5.850   7.064
 5326POPC   C4A67638  16.742   5.909   7.364
 5326POPC   C1B67639  16.977   5.951   6.464
 5326POPC   C2B67640  16.995   5.951   6.764
 5326POPC   C3B67641  16.917   5.930   7.064
 5326POPC   C4B67642  17.008   6.004   7.364
 5327POPC   NC367643   9.716  38.495   5.564
 5327POPC   PO467644   9.751  38.436   5.864
 5327POPC   GL167645   9.716  38.411   6.164
 5327POPC   GL267646   9.785  38.509   6.164
 5327POPC   C1A67647   9.758  38.419   6.464
 5327POPC   D2A67648   9.774  38.500   6.764
 5327POPC   C3A67649   9.723  38.411   7.064
 5327POPC   C4A67650   9.722  38.505   7.364
 5327POPC   C1B67651   9.960  38.663   6.464
 5327POPC   C2B67652   9.911  38.676   6.764
 5327POPC   C3B67653   9.883  38.667   7.064
 5327POPC   C4B67654   9.944  38.630   7.364
 5328POPC   NC367655  43.064  22.904   5.564
 5328POPC   PO467656  43.087  22.950   5.864
 5328POPC   GL167657  43.112  22.950   6.164
 5328POPC   GL267658  43.237  22.951   6.164
 5328POPC   C1A67659  43.061  22.955   6.464
 5328POPC   D2A67660  43.064  22.966   6.764
 5328POPC   C3A67661  43.122  22.978   7.064
 5328POPC   C4A67662  43.124  22.979   7.364
 5328POPC   C1B67663  43.345  22.954   6.464
 5328POPC   C2B67664  43.382  22.943   6.764
 5328POPC   C3B67665  43.349  22.966   7.064
 5328POPC   C4B67666  43.369  23.010   7.364
 5329POPC   NC367667  36.092  38.408   5.564
 5329POPC   PO467668  36.126  38.431   5.864
 5329POPC   GL167669  36.166  38.413   6.164
 5329POPC   GL267670  36.012  38.396   6.164
 5329POPC   C1A67671  36.091  38.421   6.464
 5329POPC   D2A67672  36.168  38.446   6.764
 5329POPC   C3A67673  36.098  38.411   7.064
 5329POPC   C4A67674  36.160  38.489   7.364
 5329POPC   C1B67675  35.838  38.372   6.464
 5329POPC   C2B67676  35.903  38.456   6.764
 5329POPC   C3B67677  35.909  38.437   7.064
 5329POPC   C4B67678  35.837  38.381   7.364
 5330POPC   NC367679  23.744  33.036   5.564
 5330POPC   PO467680  23.732  33.068   5.864
 5330POPC   GL167681  23.758  33.004   6.164
 5330POPC   GL267682  23.666  32.947   6.164
 5330POPC   C1A67683  23.673  32.983   6.464
 5330POPC   D2A67684  23.676  33.019   6.764
 5330POPC   C3A67685  23.698  33.050   7.064
 5330POPC   C4A67686  23.704  33.010   7.364
 5330POPC   C1B67687  23.638  32.801   6.464
 5330POPC   C2B67688  23.641  32.835   6.764
 5330POPC   C3B67689  23.615  32.799   7.064
 5330POPC   C4B67690  23.615  32.799   7.364
 5331POPC   NC367691  19.787  16.693   5.564
 5331POPC   PO467692  19.795  16.703   5.864
 5331POPC   GL167693  19.840  16.709   6.164
 5331POPC   GL267694  19.969  16.821   6.164
 5331POPC   C1A67695  19.873  16.721   6.464
 5331POPC   D2A67696  19.838  16.765   6.764
 5331POPC   C3A67697  19.809  16.747   7.064
 5331POPC   C4A67698  19.836  16.694   7.364
 5331POPC   C1B67699  20.092  16.831   6.464
 5331POPC   C2B67700  20.067  16.844   6.764
 5331POPC   C3B67701  20.098  16.835   7.064
 5331POPC   C4B67702  20.108  16.764   7.364
 5332POPC   NC367703  11.301   5.118   5.564
 5332POPC   PO467704  11.295   5.113   5.864
 5332POPC   GL167705  11.269   5.099   6.164
 5332POPC   GL267706  11.241   5.156   6.164
 5332POPC   C1A67707  11.283   5.055   6.464
 5332POPC   D2A67708  11.251   5.132   6.764
 5332POPC   C3A67709  11.277   5.043   7.064
 5332POPC   C4A67710  11.347   5.108   7.364
 5332POPC   C1B67711  11.034   5.250   6.464
 5332POPC   C2B67712  11.062   5.198   6.764
 5332POPC   C3B67713  11.061   5.248   7.064
 5332POPC   C4B67714  11.121   5.192   7.364
 5333POPC   NC367715  24.485  22.114   5.564
 5333POPC   PO467716  24.501  22.166   5.864
 5333POPC   GL167717  24.531  22.212   6.164
 5333POPC   GL267718  24.567  22.280   6.164
 5333POPC   C1A67719  24.459  22.113   6.464
 5333POPC   D2A67720  24.466  22.183   6.764
 5333POPC   C3A67721  24.485  22.173   7.064
 5333POPC   C4A67722  24.500  22.150   7.364
 5333POPC   C1B67723  24.721  22.349   6.464
 5333POPC   C2B67724  24.653  22.315   6.764
 5333POPC   C3B67725  24.730  22.274   7.064
 5333POPC   C4B67726  24.657  22.272   7.364
 5334POPC   NC367727  10.551  23.706   5.564
 5334POPC   PO467728  10.574  23.763   5.864
 5334POPC   GL167729  10.560  23.735   6.164
 5334POPC   GL267730  10.362  23.788   6.164
 5334POPC   C1A67731  10.569  23.724   6.464
 5334POPC   D2A67732  10.510  23.689   6.764
 5334POPC   C3A67733  10.497  23.726   7.064
 5334POPC   C4A67734  10.540  23.674   7.364
 5334POPC   C1B67735  10.245  23.801   6.464
 5334POPC   C2B67736  10.327  23.786   6.764
 5334POPC   C3B67737  10.291  23.749   7.064
 5334POPC   C4B67738  10.239  23.761   7.364
 5335POPC   NC367739  23.760  27.579   5.564
 5335POPC   PO467740  23.753  27.567   5.864
 5335POPC   GL167741  23.738  27.544   6.164
 5335POPC   GL267742  23.583  27.720   6.164
 5335POPC   C1A67743  23.763  27.606   6.464
 5335POPC   D2A67744  23.707  27.599   6.764
 5335POPC   C3A67745  23.710  27.625   7.064
 5335POPC   C4A67746  23.691  27.616   7.364
 5335POPC   C1B67747  23.569  27.785   6.464
 5335POPC   C2B67748  23.508  27.768   6.764
 5335POPC   C3B67749  23.582  27.737   7.064
 5335POPC   C4B67750  23.540  27.739   7.364
 5336POPC   NC367751  34.593  15.992   5.564
 5336POPC   PO467752  34.608  15.924   5.864
 5336POPC   GL167753  34.560  15.996   6.164
 5336POPC   GL267754  34.433  15.912   6.164
 5336POPC   C1A67755  34.554  15.977   6.464
 5336POPC   D2A67756  34.596  15.928   6.764
 5336POPC   C3A67757  34.616  15.943   7.064
 5336POPC   C4A67758  34.533  15.911   7.364
 5336POPC   C1B67759  34.319  15.909   6.464
 5336POPC   C2B67760  34.369  15.920   6.764
 5336POPC   C3B67761  34.319  15.914   7.064
 5336POPC   C4B67762  34.355  15.885   7.364
 5337POPC   NC367763   9.763  22.893   5.564
 5337POPC   PO467764   9.762  22.913   5.864
 5337POPC   GL167765   9.796  22.950   6.164
 5337POPC   GL267766   9.717  22.867   6.164
 5337POPC   C1A67767   9.737  22.957   6.464
 5337POPC   D2A67768   9.735  22.964   6.764
 5337POPC   C3A67769   9.763  22.956   7.064
 5337POPC   C4A67770   9.719  22.907   7.364
 5337POPC   C1B67771   9.630  22.749   6.464
 5337POPC   C2B67772   9.604  22.699   6.764
 5337POPC   C3B67773   9.635  22.734   7.064
 5337POPC   C4B67774   9.623  22.666   7.364
 5338POPC   NC367775  44.658  34.531   5.564
 5338POPC   PO467776  44.625  34.625   5.864
 5338POPC   GL167777  44.698  34.533   6.164
 5338POPC   GL267778  44.568  34.719   6.164
 5338POPC   C1A67779  44.624  34.544   6.464
 5338POPC   D2A67780  44.689  34.527   6.764
 5338POPC   C3A67781  44.629  34.533   7.064
 5338POPC   C4A67782  44.663  34.607   7.364
 5338POPC   C1B67783  44.514  34.752   6.464
 5338POPC   C2B67784  44.491  34.753   6.764
 5338POPC   C3B67785  44.466  34.817   7.064
 5338POPC   C4B67786  44.484  34.720   7.364
 5339POPC   NC367787  22.188  36.876   5.564
 5339POPC   PO467788  22.176  36.916   5.864
 5339POPC   GL167789  22.118  36.939   6.164
 5339POPC   GL267790  22.063  36.947   6.164
 5339POPC   C1A67791  22.203  36.953   6.464
 5339POPC   D2A67792  22.169  36.895   6.764
 5339POPC   C3A67793  22.140  36.921   7.064
 5339POPC   C4A67794  22.155  36.943   7.364
 5339POPC   C1B67795  21.946  37.043   6.464
 5339POPC   C2B67796  21.923  37.018   6.764
 5339POPC   C3B67797  21.907  37.051   7.064
 5339POPC   C4B67798  21.947  37.026   7.364
 5340POPC   NC367799  11.286   9.781   5.564
 5340POPC   PO467800  11.284   9.741   5.864
 5340POPC   GL167801  11.332   9.758   6.164
 5340POPC   GL267802  11.179   9.686   6.164
 5340POPC   C1A67803  11.276   9.730   6.464
 5340POPC   D2A67804  11.275   9.749   6.764
 5340POPC   C3A67805  11.272   9.748   7.064
 5340POPC   C4A67806  11.276   9.741   7.364
 5340POPC   C1B67807  11.175   9.588   6.464
 5340POPC   C2B67808  11.189   9.525   6.764
 5340POPC   C3B67809  11.101   9.559   7.064
 5340POPC   C4B67810  11.153   9.551   7.364
 5341POPC   NC367811  43.067  43.850   5.564
 5341POPC   PO467812  43.087  43.891   5.864
 5341POPC   GL167813  43.077  43.842   6.164
 5341POPC   GL267814  42.945  43.886   6.164
 5341POPC   C1A67815  43.091  43.916   6.464
 5341POPC   D2A67816  43.086  43.897   6.764
 5341POPC   C3A67817  43.140  43.932   7.064
 5341POPC   C4A67818  43.135  43.839   7.364
 5341POPC   C1B67819  42.835  43.944   6.464
 5341POPC   C2B67820  42.849  43.947   6.764
 5341POPC   C3B67821  42.839  43.974   7.064
 5341POPC   C4B67822  42.853  44.011   7.364
 5342POPC   NC367823  44.669   8.162   5.564
 5342POPC   PO467824  44.679   8.158   5.864
 5342POPC   GL167825  44.702   8.154   6.164
 5342POPC   GL267826  44.689   8.327   6.164
 5342POPC   C1A67827  44.677   8.182   6.464
 5342POPC   D2A67828  44.633   8.205   6.764
 5342POPC   C3A67829  44.685   8.173   7.064
 5342POPC   C4A67830  44.620   8.178   7.364
 5342POPC   C1B67831  44.726   8.458   6.464
 5342POPC   C2B67832  44.723   8.402   6.764
 5342POPC   C3B67833  44.760   8.421   7.064
 5342POPC   C4B67834  44.788   8.421   7.364
 5343POPC   NC367835  32.208   8.980   5.564
 5343POPC   PO467836  32.248   9.006   5.864
 5343POPC   GL167837  32.279   8.938   6.164
 5343POPC   GL267838  32.367   9.017   6.164
 5343POPC   C1A67839  32.287   9.011   6.464
 5343POPC   D2A67840  32.240   8.930   6.764
 5343POPC   C3A67841  32.240   8.979   7.064
 5343POPC   C4A67842  32.221   8.936   7.364
 5343POPC   C1B67843  32.431   9.107   6.464
 5343POPC   C2B67844  32.502   9.061   6.764
 5343POPC   C3B67845  32.433   9.082   7.064
 5343POPC   C4B67846  32.452   9.126   7.364
 5344POPC   NC367847   1.187   2.748   5.564
 5344POPC   PO467848   1.193   2.780   5.864
 5344POPC   GL167849   1.250   2.758   6.164
 5344POPC   GL267850   1.314   2.706   6.164
 5344POPC   C1A67851   1.198   2.760   6.464
 5344POPC   D2A67852   1.238   2.720   6.764
 5344POPC   C3A67853   1.203   2.809   7.064
 5344POPC   C4A67854   1.229   2.744   7.364
 5344POPC   C1B67855   1.394   2.638   6.464
 5344POPC   C2B67856   1.426   2.643   6.764
 5344POPC   C3B67857   1.433   2.618   7.064
 5344POPC   C4B67858   1.443   2.667   7.364
 5345POPC   NC367859  25.229   3.509   5.564
 5345POPC   PO467860  25.231   3.540   5.864
 5345POPC   GL167861  25.249   3.530   6.164
 5345POPC   GL267862  25.339   3.441   6.164
 5345POPC   C1A67863  25.289   3.579   6.464
 5345POPC   D2A67864  25.226   3.557   6.764
 5345POPC   C3A67865  25.287   3.545   7.064
 5345POPC   C4A67866  25.299   3.506   7.364
 5345POPC   C1B67867  25.453   3.460   6.464
 5345POPC   C2B67868  25.513   3.405   6.764
 5345POPC   C3B67869  25.516   3.449   7.064
 5345POPC   C4B67870  25.530   3.427   7.364
 5346POPC   NC367871  20.660  24.445   5.564
 5346POPC   PO467872  20.573  24.498   5.864
 5346POPC   GL167873  20.573  24.466   6.164
 5346POPC   GL267874  20.783  24.461   6.164
 5346POPC   C1A67875  20.598  24.522   6.464
 5346POPC   D2A67876  20.586  24.441   6.764
 5346POPC   C3A67877  20.567  24.466   7.064
 5346POPC   C4A67878  20.616  24.466   7.364
 5346POPC   C1B67879  20.859  24.476   6.464
 5346POPC   C2B67880  20.900  24.461   6.764
 5346POPC   C3B67881  20.812  24.448   7.064
 5346POPC   C4B67882  20.868  24.471   7.364
 5347POPC   NC367883  31.499  11.263   5.564
 5347POPC   PO467884  31.477  11.270   5.864
 5347POPC   GL167885  31.497  11.337   6.164
 5347POPC   GL267886  31.628  11.306   6.164
 5347POPC   C1A67887  31.431  11.317   6.464
 5347POPC   D2A67888  31.519  11.311   6.764
 5347POPC   C3A67889  31.429  11.331   7.064
 5347POPC   C4A67890  31.521  11.283   7.364
 5347POPC   C1B67891  31.718  11.361   6.464
 5347POPC   C2B67892  31.680  11.337   6.764
 5347POPC   C3B67893  31.721  11.423   7.064
 5347POPC   C4B67894  31.674  11.338   7.364
 5348POPC   NC367895  34.582  38.417   5.564
 5348POPC   PO467896  34.625  38.487   5.864
 5348POPC   GL167897  34.563  38.425   6.164
 5348POPC   GL267898  34.519  38.347   6.164
 5348POPC   C1A67899  34.622  38.441   6.464
 5348POPC   D2A67900  34.539  38.417   6.764
 5348POPC   C3A67901  34.608  38.462   7.064
 5348POPC   C4A67902  34.588  38.501   7.364
 5348POPC   C1B67903  34.502  38.174   6.464
 5348POPC   C2B67904  34.523  38.185   6.764
 5348POPC   C3B67905  34.508  38.268   7.064
 5348POPC   C4B67906  34.517  38.202   7.364
 5349POPC   NC367907  26.079  31.426   5.564
 5349POPC   PO467908  26.050  31.459   5.864
 5349POPC   GL167909  26.079  31.462   6.164
 5349POPC   GL267910  26.145  31.459   6.164
 5349POPC   C1A67911  26.083  31.423   6.464
 5349POPC   D2A67912  26.045  31.424   6.764
 5349POPC   C3A67913  25.995  31.424   7.064
 5349POPC   C4A67914  26.056  31.520   7.364
 5349POPC   C1B67915  26.286  31.455   6.464
 5349POPC   C2B67916  26.262  31.392   6.764
 5349POPC   C3B67917  26.259  31.467   7.064
 5349POPC   C4B67918  26.280  31.460   7.364
 5350POPC   NC367919  15.921  11.267   5.564
 5350POPC   PO467920  15.924  11.259   5.864
 5350POPC   GL167921  15.992  11.260   6.164
 5350POPC   GL267922  15.796  11.287   6.164
 5350POPC   C1A67923  15.988  11.261   6.464
 5350POPC   D2A67924  15.998  11.321   6.764
 5350POPC   C3A67925  15.992  11.339   7.064
 5350POPC   C4A67926  15.954  11.303   7.364
 5350POPC   C1B67927  15.673  11.283   6.464
 5350POPC   C2B67928  15.714  11.214   6.764
 5350POPC   C3B67929  15.685  11.291   7.064
 5350POPC   C4B67930  15.676  11.257   7.364
 5351POPC   NC367931  43.116  43.128   5.564
 5351POPC   PO467932  43.064  43.075   5.864
 5351POPC   GL167933  43.097  43.138   6.164
 5351POPC   GL267934  43.030  43.005   6.164
 5351POPC   C1A67935  43.078  43.062   6.464
 5351POPC   D2A67936  43.154  43.144   6.764
 5351POPC   C3A67937  43.118  43.143   7.064
 5351POPC   C4A67938  43.140  43.157   7.364
 5351POPC   C1B67939  42.952  42.877   6.464
 5351POPC   C2B67940  43.027  42.852   6.764
 5351POPC   C3B67941  42.943  42.916   7.064
 5351POPC   C4B67942  43.026  42.851   7.364
 5352POPC   NC367943  17.471  18.262   5.564
 5352POPC   PO467944  17.552  18.295   5.864
 5352POPC   GL167945  17.514  18.289   6.164
 5352POPC   GL267946  17.469  18.139   6.164
 5352POPC   C1A67947  17.461  18.271   6.464
 5352POPC   D2A67948  17.555  18.253   6.764
 5352POPC   C3A67949  17.485  18.246   7.064
 5352POPC   C4A67950  17.541  18.321   7.364
 5352POPC   C1B67951  17.338  18.100   6.464
 5352POPC   C2B67952  17.316  18.129   6.764
 5352POPC   C3B67953  17.342  18.102   7.064
 5352POPC   C4B67954  17.353  18.067   7.364
 5353POPC   NC367955  30.665  19.851   5.564
 5353POPC   PO467956  30.694  19.847   5.864
 5353POPC   GL167957  30.677  19.868   6.164
 5353POPC   GL267958  30.759  19.668   6.164
 5353POPC   C1A67959  30.664  19.796   6.464
 5353POPC   D2A67960  30.692  19.839   6.764
 5353POPC   C3A67961  30.647  19.788   7.064
 5353POPC   C4A67962  30.676  19.841   7.364
 5353POPC   C1B67963  30.682  19.629   6.464
 5353POPC   C2B67964  30.687  19.558   6.764
 5353POPC   C3B67965  30.769  19.593   7.064
 5353POPC   C4B67966  30.712  19.606   7.364
 5354POPC   NC367967  17.515   8.237   5.564
 5354POPC   PO467968  17.499   8.216   5.864
 5354POPC   GL167969  17.527   8.206   6.164
 5354POPC   GL267970  17.535   8.080   6.164
 5354POPC   C1A67971  17.549   8.239   6.464
 5354POPC   D2A67972  17.461   8.147   6.764
 5354POPC   C3A67973  17.472   8.203   7.064
 5354POPC   C4A67974  17.485   8.199   7.364
 5354POPC   C1B67975  17.629   7.993   6.464
 5354POPC   C2B67976  17.613   7.939   6.764
 5354POPC   C3B67977  17.665   7.943   7.064
 5354POPC   C4B67978  17.677   7.942   7.364
 5355POPC   NC367979  44.689  12.869   5.564
 5355POPC   PO467980  44.677  12.824   5.864
 5355POPC   GL167981  44.647  12.900   6.164
 5355POPC   GL267982  44.803  12.936   6.164
 5355POPC   C1A67983  44.679  12.855   6.464
 5355POPC   D2A67984  44.671  12.858   6.764
 5355POPC   C3A67985  44.689  12.821   7.064
 5355POPC   C4A67986  44.668  12.839   7.364
 5355POPC   C1B67987  44.859  12.995   6.464
 5355POPC   C2B67988  44.913  12.906   6.764
 5355POPC   C3B67989  44.884  12.993   7.064
 5355POPC   C4B67990  44.881  12.957   7.364
 5356POPC   NC367991  28.397  22.971   5.564
 5356POPC   PO467992  28.340  22.948   5.864
 5356POPC   GL167993  28.324  22.890   6.164
 5356POPC   GL267994  28.468  22.943   6.164
 5356POPC   C1A67995  28.388  22.941   6.464
 5356POPC   D2A67996  28.326  22.940   6.764
 5356POPC   C3A67997  28.339  22.904   7.064
 5356POPC   C4A67998  28.408  22.933   7.364
 5356POPC   C1B67999  28.589  22.898   6.464
 5356POPC   C2B68000  28.599  22.917   6.764
 5356POPC   C3B68001  28.580  22.930   7.064
 5356POPC   C4B68002  28.600  22.947   7.364
 5357POPC   NC368003  17.498  17.469   5.564
 5357POPC   PO468004  17.541  17.460   5.864
 5357POPC   GL168005  17.531  17.464   6.164
 5357POPC   GL268006  17.481  17.595   6.164
 5357POPC   C1A68007  17.472  17.552   6.464
 5357POPC   D2A68008  17.533  17.489   6.764
 5357POPC   C3A68009  17.464  17.538   7.064
 5357POPC   C4A68010  17.530  17.510   7.364
 5357POPC   C1B68011  17.511  17.802   6.464
 5357POPC   C2B68012  17.485  17.780   6.764
 5357POPC   C3B68013  17.520  17.727   7.064
 5357POPC   C4B68014  17.487  17.709   7.364
 5358POPC   NC368015  32.266  38.406   5.564
 5358POPC   PO468016  32.263  38.476   5.864
 5358POPC   GL168017  32.284  38.474   6.164
 5358POPC   GL268018  32.378  38.490   6.164
 5358POPC   C1A68019  32.271  38.453   6.464
 5358POPC   D2A68020  32.282  38.476   6.764
 5358POPC   C3A68021  32.221  38.437   7.064
 5358POPC   C4A68022  32.219  38.430   7.364
 5358POPC   C1B68023  32.516  38.585   6.464
 5358POPC   C2B68024  32.530  38.527   6.764
 5358POPC   C3B68025  32.474  38.525   7.064
 5358POPC   C4B68026  32.467  38.524   7.364
 5359POPC   NC368027  10.538  22.986   5.564
 5359POPC   PO468028  10.527  22.964   5.864
 5359POPC   GL168029  10.502  22.964   6.164
 5359POPC   GL268030  10.463  23.031   6.164
 5359POPC   C1A68031  10.514  22.901   6.464
 5359POPC   D2A68032  10.490  22.959   6.764
 5359POPC   C3A68033  10.560  22.954   7.064
 5359POPC   C4A68034  10.531  22.948   7.364
 5359POPC   C1B68035  10.455  23.137   6.464
 5359POPC   C2B68036  10.497  23.162   6.764
 5359POPC   C3B68037  10.465  23.131   7.064
 5359POPC   C4B68038  10.459  23.205   7.364
 5360POPC   NC368039   9.721  16.705   5.564
 5360POPC   PO468040   9.746  16.742   5.864
 5360POPC   GL168041   9.788  16.730   6.164
 5360POPC   GL268042   9.603  16.749   6.164
 5360POPC   C1A68043   9.715  16.732   6.464
 5360POPC   D2A68044   9.769  16.696   6.764
 5360POPC   C3A68045   9.738  16.711   7.064
 5360POPC   C4A68046   9.709  16.768   7.364
 5360POPC   C1B68047   9.456  16.703   6.464
 5360POPC   C2B68048   9.534  16.752   6.764
 5360POPC   C3B68049   9.512  16.741   7.064
 5360POPC   C4B68050   9.485  16.719   7.364
 5361POPC   NC368051   5.819  37.685   5.564
 5361POPC   PO468052   5.884  37.663   5.864
 5361POPC   GL168053   5.828  37.654   6.164
 5361POPC   GL268054   5.919  37.743   6.164
 5361POPC   C1A68055   5.894  37.671   6.464
 5361POPC   D2A68056   5.832  37.726   6.764
 5361POPC   C3A68057   5.917  37.728   7.064
 5361POPC   C4A68058   5.904  37.699   7.364
 5361POPC   C1B68059   6.027  37.876   6.464
 5361POPC   C2B68060   5.963  37.874   6.764
 5361POPC   C3B68061   5.994  37.895   7.064
 5361POPC   C4B68062   5.971  37.894   7.364
 5362POPC   NC368063   7.389  34.553   5.564
 5362POPC   PO468064   7.418  34.606   5.864
 5362POPC   GL168065   7.381  34.620   6.164
 5362POPC   GL268066   7.263  34.572   6.164
 5362POPC   C1A68067   7.413  34.554   6.464
 5362POPC   D2A68068   7.417  34.623   6.764
 5362POPC   C3A68069   7.455  34.616   7.064
 5362POPC   C4A68070   7.431  34.616   7.364
 5362POPC   C1B68071   7.133  34.592   6.464
 5362POPC   C2B68072   7.197  34.613   6.764
 5362POPC   C3B68073   7.153  34.567   7.064
 5362POPC   C4B68074   7.128  34.615   7.364
 5363POPC   NC368075  40.047   7.425   5.564
 5363POPC   PO468076  40.037   7.445   5.864
 5363POPC   GL168077  40.008   7.399   6.164
 5363POPC   GL268078  40.051   7.590   6.164
 5363POPC   C1A68079  39.991   7.438   6.464
 5363POPC   D2A68080  40.037   7.375   6.764
 5363POPC   C3A68081  40.017   7.387   7.064
 5363POPC   C4A68082  39.960   7.429   7.364
 5363POPC   C1B68083  40.040   7.628   6.464
 5363POPC   C2B68084  40.050   7.632   6.764
 5363POPC   C3B68085  39.999   7.626   7.064
 5363POPC   C4B68086  40.045   7.651   7.364
 5364POPC   NC368087  20.623  30.726   5.564
 5364POPC   PO468088  20.575  30.703   5.864
 5364POPC   GL168089  20.622  30.682   6.164
 5364POPC   GL268090  20.741  30.594   6.164
 5364POPC   C1A68091  20.648  30.710   6.464
 5364POPC   D2A68092  20.616  30.732   6.764
 5364POPC   C3A68093  20.620  30.671   7.064
 5364POPC   C4A68094  20.652  30.680   7.364
 5364POPC   C1B68095  20.867  30.600   6.464
 5364POPC   C2B68096  20.774  30.607   6.764
 5364POPC   C3B68097  20.776  30.528   7.064
 5364POPC   C4B68098  20.802  30.609   7.364
 5365POPC   NC368099  19.080  29.872   5.564
 5365POPC   PO468100  19.082  29.956   5.864
 5365POPC   GL168101  19.039  29.942   6.164
 5365POPC   GL268102  19.204  30.004   6.164
 5365POPC   C1A68103  19.089  29.882   6.464
 5365POPC   D2A68104  19.061  29.894   6.764
 5365POPC   C3A68105  19.082  29.880   7.064
 5365POPC   C4A68106  19.046  29.969   7.364
 5365POPC   C1B68107  19.217  30.035   6.464
 5365POPC   C2B68108  19.226  30.111   6.764
 5365POPC   C3B68109  19.268  30.110   7.064
 5365POPC   C4B68110  19.270  30.020   7.364
 5366POPC   NC368111  26.810  13.587   5.564
 5366POPC   PO468112  26.822  13.646   5.864
 5366POPC   GL168113  26.821  13.677   6.164
 5366POPC   GL268114  26.917  13.646   6.164
 5366POPC   C1A68115  26.816  13.639   6.464
 5366POPC   D2A68116  26.815  13.640   6.764
 5366POPC   C3A68117  26.777  13.641   7.064
 5366POPC   C4A68118  26.790  13.596   7.364
 5366POPC   C1B68119  27.094  13.589   6.464
 5366POPC   C2B68120  27.035  13.609   6.764
 5366POPC   C3B68121  27.087  13.574   7.064
 5366POPC   C4B68122  27.087  13.626   7.364
 5367POPC   NC368123   5.910   6.668   5.564
 5367POPC   PO468124   5.879   6.629   5.864
 5367POPC   GL168125   5.862   6.659   6.164
 5367POPC   GL268126   5.985   6.608   6.164
 5367POPC   C1A68127   5.881   6.642   6.464
 5367POPC   D2A68128   5.856   6.661   6.764
 5367POPC   C3A68129   5.840   6.678   7.064
 5367POPC   C4A68130   5.862   6.639   7.364
 5367POPC   C1B68131   6.078   6.660   6.464
 5367POPC   C2B68132   6.142   6.631   6.764
 5367POPC   C3B68133   6.080   6.623   7.064
 5367POPC   C4B68134   6.120   6.626   7.364
 5368POPC   NC368135  20.597   5.084   5.564
 5368POPC   PO468136  20.592   5.057   5.864
 5368POPC   GL168137  20.648   5.126   6.164
 5368POPC   GL268138  20.605   5.011   6.164
 5368POPC   C1A68139  20.597   5.128   6.464
 5368POPC   D2A68140  20.628   5.085   6.764
 5368POPC   C3A68141  20.594   5.128   7.064
 5368POPC   C4A68142  20.626   5.069   7.364
 5368POPC   C1B68143  20.495   4.830   6.464
 5368POPC   C2B68144  20.551   4.817   6.764
 5368POPC   C3B68145  20.498   4.813   7.064
 5368POPC   C4B68146  20.562   4.856   7.364
 5369POPC   NC368147  22.908  24.471   5.564
 5369POPC   PO468148  22.927  24.498   5.864
 5369POPC   GL168149  22.942  24.479   6.164
 5369POPC   GL268150  22.942  24.327   6.164
 5369POPC   C1A68151  22.977  24.525   6.464
 5369POPC   D2A68152  22.899  24.445   6.764
 5369POPC   C3A68153  22.979  24.490   7.064
 5369POPC   C4A68154  22.919  24.468   7.364
 5369POPC   C1B68155  22.930  24.196   6.464
 5369POPC   C2B68156  23.017  24.220   6.764
 5369POPC   C3B68157  23.027  24.256   7.064
 5369POPC   C4B68158  22.941  24.276   7.364
 5370POPC   NC368159  19.814   2.010   5.564
 5370POPC   PO468160  19.838   2.029   5.864
 5370POPC   GL168161  19.795   1.958   6.164
 5370POPC   GL268162  19.886   2.102   6.164
 5370POPC   C1A68163  19.808   2.033   6.464
 5370POPC   D2A68164  19.793   2.027   6.764
 5370POPC   C3A68165  19.880   2.018   7.064
 5370POPC   C4A68166  19.810   2.031   7.364
 5370POPC   C1B68167  20.071   2.108   6.464
 5370POPC   C2B68168  20.037   2.175   6.764
 5370POPC   C3B68169  20.065   2.124   7.064
 5370POPC   C4B68170  19.984   2.109   7.364
 5371POPC   NC368171   9.773  28.390   5.564
 5371POPC   PO468172   9.767  28.356   5.864
 5371POPC   GL168173   9.704  28.406   6.164
 5371POPC   GL268174   9.748  28.514   6.164
 5371POPC   C1A68175   9.704  28.376   6.464
 5371POPC   D2A68176   9.770  28.373   6.764
 5371POPC   C3A68177   9.739  28.416   7.064
 5371POPC   C4A68178   9.777  28.412   7.364
 5371POPC   C1B68179   9.728  28.657   6.464
 5371POPC   C2B68180   9.788  28.604   6.764
 5371POPC   C3B68181   9.740  28.585   7.064
 5371POPC   C4B68182   9.725  28.617   7.364
 5372POPC   NC368183  25.241  19.838   5.564
 5372POPC   PO468184  25.244  19.787   5.864
 5372POPC   GL168185  25.284  19.882   6.164
 5372POPC   GL268186  25.368  19.817   6.164
 5372POPC   C1A68187  25.236  19.866   6.464
 5372POPC   D2A68188  25.301  19.797   6.764
 5372POPC   C3A68189  25.228  19.806   7.064
 5372POPC   C4A68190  25.231  19.799   7.364
 5372POPC   C1B68191  25.544  19.770   6.464
 5372POPC   C2B68192  25.452  19.706   6.764
 5372POPC   C3B68193  25.509  19.759   7.064
 5372POPC   C4B68194  25.492  19.757   7.364
 5373POPC   NC368195  15.950  12.835   5.564
 5373POPC   PO468196  15.970  12.826   5.864
 5373POPC   GL168197  15.934  12.829   6.164
 5373POPC   GL268198  15.829  12.857   6.164
 5373POPC   C1A68199  15.925  12.844   6.464
 5373POPC   D2A68200  15.955  12.844   6.764
 5373POPC   C3A68201  15.924  12.809   7.064
 5373POPC   C4A68202  15.995  12.881   7.364
 5373POPC   C1B68203  15.679  12.901   6.464
 5373POPC   C2B68204  15.685  12.874   6.764
 5373POPC   C3B68205  15.734  12.921   7.064
 5373POPC   C4B68206  15.721  12.959   7.364
 5374POPC   NC368207  22.934  10.521   5.564
 5374POPC   PO468208  22.975  10.510   5.864
 5374POPC   GL168209  22.930  10.543   6.164
 5374POPC   GL268210  22.954  10.670   6.164
 5374POPC   C1A68211  22.941  10.565   6.464
 5374POPC   D2A68212  22.970  10.489   6.764
 5374POPC   C3A68213  22.929  10.548   7.064
 5374POPC   C4A68214  22.941  10.562   7.364
 5374POPC   C1B68215  22.935  10.762   6.464
 5374POPC   C2B68216  23.016  10.785   6.764
 5374POPC   C3B68217  22.950  10.728   7.064
 5374POPC   C4B68218  22.974  10.749   7.364
 5375POPC   NC368219  42.377   3.547   5.564
 5375POPC   PO468220  42.351   3.542   5.864
 5375POPC   GL168221  42.351   3.550   6.164
 5375POPC   GL268222  42.472   3.555   6.164
 5375POPC   C1A68223  42.303   3.543   6.464
 5375POPC   D2A68224  42.375   3.494   6.764
 5375POPC   C3A68225  42.316   3.554   7.064
 5375POPC   C4A68226  42.288   3.500   7.364
 5375POPC   C1B68227  42.544   3.468   6.464
 5375POPC   C2B68228  42.603   3.512   6.764
 5375POPC   C3B68229  42.547   3.542   7.064
 5375POPC   C4B68230  42.605   3.548   7.364
 5376POPC   NC368231  12.075  38.486   5.564
 5376POPC   PO468232  12.089  38.412   5.864
 5376POPC   GL168233  12.035  38.480   6.164
 5376POPC   GL268234  12.003  38.421   6.164
 5376POPC   C1A68235  12.085  38.418   6.464
 5376POPC   D2A68236  12.110  38.467   6.764
 5376POPC   C3A68237  12.117  38.501   7.064
 5376POPC   C4A68238  12.075  38.433   7.364
 5376POPC   C1B68239  11.862  38.308   6.464
 5376POPC   C2B68240  11.840  38.349   6.764
 5376POPC   C3B68241  11.845  38.293   7.064
 5376POPC   C4B68242  11.869  38.328   7.364
 5377POPC   NC368243  41.544  32.276   5.564
 5377POPC   PO468244  41.590  32.267   5.864
 5377POPC   GL168245  41.583  32.211   6.164
 5377POPC   GL268246  41.436  32.277   6.164
 5377POPC   C1A68247  41.512  32.224   6.464
 5377POPC   D2A68248  41.525  32.234   6.764
 5377POPC   C3A68249  41.544  32.283   7.064
 5377POPC   C4A68250  41.564  32.207   7.364
 5377POPC   C1B68251  41.387  32.386   6.464
 5377POPC   C2B68252  41.411  32.444   6.764
 5377POPC   C3B68253  41.360  32.420   7.064
 5377POPC   C4B68254  41.367  32.443   7.364
 5378POPC   NC368255   8.222  37.636   5.564
 5378POPC   PO468256   8.151  37.693   5.864
 5378POPC   GL168257   8.161  37.688   6.164
 5378POPC   GL268258   8.267  37.838   6.164
 5378POPC   C1A68259   8.192  37.719   6.464
 5378POPC   D2A68260   8.172  37.692   6.764
 5378POPC   C3A68261   8.236  37.668   7.064
 5378POPC   C4A68262   8.177  37.667   7.364
 5378POPC   C1B68263   8.250  37.922   6.464
 5378POPC   C2B68264   8.287  37.905   6.764
 5378POPC   C3B68265   8.258  37.882   7.064
 5378POPC   C4B68266   8.245  37.965   7.364
 5379POPC   NC368267  38.466  38.448   5.564
 5379POPC   PO468268  38.466  38.407   5.864
 5379POPC   GL168269  38.473  38.480   6.164
 5379POPC   GL268270  38.473  38.606   6.164
 5379POPC   C1A68271  38.419  38.434   6.464
 5379POPC   D2A68272  38.434  38.485   6.764
 5379POPC   C3A68273  38.490  38.408   7.064
 5379POPC   C4A68274  38.436  38.483   7.364
 5379POPC   C1B68275  38.441  38.703   6.464
 5379POPC   C2B68276  38.442  38.730   6.764
 5379POPC   C3B68277  38.500  38.722   7.064
 5379POPC   C4B68278  38.436  38.690   7.364
 5380POPC   NC368279  18.318  31.445   5.564
 5380POPC   PO468280  18.270  31.459   5.864
 5380POPC   GL168281  18.303  31.438   6.164
 5380POPC   GL268282  18.275  31.566   6.164
 5380POPC   C1A68283  18.257  31.519   6.464
 5380POPC   D2A68284  18.319  31.506   6.764
 5380POPC   C3A68285  18.310  31.457   7.064
 5380POPC   C4A68286  18.247  31.423   7.364
 5380POPC   C1B68287  18.177  31.672   6.464
 5380POPC   C2B68288  18.167  31.688   6.764
 5380POPC   C3B68289  18.202  31.668   7.064
 5380POPC   C4B68290  18.201  31.682   7.364
 5381POPC   NC368291  24.507   5.823   5.564
 5381POPC   PO468292  24.461   5.821   5.864
 5381POPC   GL168293  24.458   5.829   6.164
 5381POPC   GL268294  24.596   5.928   6.164
 5381POPC   C1A68295  24.464   5.880   6.464
 5381POPC   D2A68296  24.533   5.871   6.764
 5381POPC   C3A68297  24.504   5.892   7.064
 5381POPC   C4A68298  24.463   5.914   7.364
 5381POPC   C1B68299  24.646   5.975   6.464
 5381POPC   C2B68300  24.649   5.980   6.764
 5381POPC   C3B68301  24.737   6.068   7.064
 5381POPC   C4B68302  24.734   6.069   7.364
 5382POPC   NC368303  33.015  26.783   5.564
 5382POPC   PO468304  33.027  26.831   5.864
 5382POPC   GL168305  33.035  26.777   6.164
 5382POPC   GL268306  33.117  26.821   6.164
 5382POPC   C1A68307  33.005  26.776   6.464
 5382POPC   D2A68308  33.000  26.830   6.764
 5382POPC   C3A68309  33.005  26.813   7.064
 5382POPC   C4A68310  33.008  26.780   7.364
 5382POPC   C1B68311  33.221  26.905   6.464
 5382POPC   C2B68312  33.244  26.845   6.764
 5382POPC   C3B68313  33.300  26.862   7.064
 5382POPC   C4B68314  33.229  26.862   7.364
 5383POPC   NC368315  43.074  36.098   5.564
 5383POPC   PO468316  43.103  36.105   5.864
 5383POPC   GL168317  43.125  36.092   6.164
 5383POPC   GL268318  43.067  35.986   6.164
 5383POPC   C1A68319  43.060  36.123   6.464
 5383POPC   D2A68320  43.135  36.104   6.764
 5383POPC   C3A68321  43.084  36.140   7.064
 5383POPC   C4A68322  43.124  36.146   7.364
 5383POPC   C1B68323  43.115  35.863   6.464
 5383POPC   C2B68324  43.109  35.831   6.764
 5383POPC   C3B68325  43.081  35.921   7.064
 5383POPC   C4B68326  43.160  35.890   7.364
 5384POPC   NC368327  29.145  40.755   5.564
 5384POPC   PO468328  29.149  40.733   5.864
 5384POPC   GL168329  29.111  40.812   6.164
 5384POPC   GL268330  29.299  40.835   6.164
 5384POPC   C1A68331  29.128  40.770   6.464
 5384POPC   D2A68332  29.144  40.743   6.764
 5384POPC   C3A68333  29.176  40.800   7.064
 5384POPC   C4A68334  29.186  40.822   7.364
 5384POPC   C1B68335  29.409  40.834   6.464
 5384POPC   C2B68336  29.374  40.901   6.764
 5384POPC   C3B68337  29.368  40.846   7.064
 5384POPC   C4B68338  29.422  40.885   7.364
 5385POPC   NC368339   0.458   2.800   5.564
 5385POPC   PO468340   0.441   2.759   5.864
 5385POPC   GL168341   0.402   2.732   6.164
 5385POPC   GL268342   0.314   2.787   6.164
 5385POPC   C1A68343   0.418   2.741   6.464
 5385POPC   D2A68344   0.472   2.732   6.764
 5385POPC   C3A68345   0.467   2.798   7.064
 5385POPC   C4A68346   0.477   2.747   7.364
 5385POPC   C1B68347   0.162   2.914   6.464
 5385POPC   C2B68348   0.221   2.850   6.764
 5385POPC   C3B68349   0.191   2.830   7.064
 5385POPC   C4B68350   0.210   2.914   7.364
 5386POPC   NC368351   0.396  17.530   5.564
 5386POPC   PO468352   0.433  17.498   5.864
 5386POPC   GL168353   0.402  17.465   6.164
 5386POPC   GL268354   0.448  17.604   6.164
 5386POPC   C1A68355   0.407  17.547   6.464
 5386POPC   D2A68356   0.483  17.490   6.764
 5386POPC   C3A68357   0.436  17.530   7.064
 5386POPC   C4A68358   0.463  17.478   7.364
 5386POPC   C1B68359   0.561  17.738   6.464
 5386POPC   C2B68360   0.485  17.759   6.764
 5386POPC   C3B68361   0.527  17.744   7.064
 5386POPC   C4B68362   0.510  17.723   7.364
 5387POPC   NC368363  12.852  39.991   5.564
 5387POPC   PO468364  12.898  40.048   5.864
 5387POPC   GL168365  12.854  39.958   6.164
 5387POPC   GL268366  12.750  39.929   6.164
 5387POPC   C1A68367  12.900  39.958   6.464
 5387POPC   D2A68368  12.897  40.008   6.764
 5387POPC   C3A68369  12.847  40.007   7.064
 5387POPC   C4A68370  12.866  40.048   7.364
 5387POPC   C1B68371  12.633  39.984   6.464
 5387POPC   C2B68372  12.590  39.899   6.764
 5387POPC   C3B68373  12.606  39.949   7.064
 5387POPC   C4B68374  12.627  39.965   7.364
 5388POPC   NC368375  34.545   6.658   5.564
 5388POPC   PO468376  34.538   6.631   5.864
 5388POPC   GL168377  34.527   6.688   6.164
 5388POPC   GL268378  34.543   6.512   6.164
 5388POPC   C1A68379  34.592   6.650   6.464
 5388POPC   D2A68380  34.604   6.675   6.764
 5388POPC   C3A68381  34.595   6.632   7.064
 5388POPC   C4A68382  34.527   6.617   7.364
 5388POPC   C1B68383  34.635   6.349   6.464
 5388POPC   C2B68384  34.620   6.398   6.764
 5388POPC   C3B68385  34.599   6.390   7.064
 5388POPC   C4B68386  34.558   6.367   7.364
 5389POPC   NC368387  41.541  19.052   5.564
 5389POPC   PO468388  41.509  19.019   5.864
 5389POPC   GL168389  41.509  19.024   6.164
 5389POPC   GL268390  41.644  19.099   6.164
 5389POPC   C1A68391  41.558  19.054   6.464
 5389POPC   D2A68392  41.600  19.096   6.764
 5389POPC   C3A68393  41.578  19.011   7.064
 5389POPC   C4A68394  41.588  19.050   7.364
 5389POPC   C1B68395  41.827  19.005   6.464
 5389POPC   C2B68396  41.856  19.050   6.764
 5389POPC   C3B68397  41.850  19.079   7.064
 5389POPC   C4B68398  41.822  19.014   7.364
 5390POPC   NC368399  21.376  27.567   5.564
 5390POPC   PO468400  21.374  27.573   5.864
 5390POPC   GL168401  21.339  27.557   6.164
 5390POPC   GL268402  21.465  27.698   6.164
 5390POPC   C1A68403  21.356  27.569   6.464
 5390POPC   D2A68404  21.360  27.594   6.764
 5390POPC   C3A68405  21.391  27.581   7.064
 5390POPC   C4A68406  21.426  27.561   7.364
 5390POPC   C1B68407  21.578  27.814   6.464
 5390POPC   C2B68408  21.600  27.772   6.764
 5390POPC   C3B68409  21.539  27.765   7.064
 5390POPC   C4B68410  21.547  27.745   7.364
 5391POPC   NC368411  12.821  42.326   5.564
 5391POPC   PO468412  12.890  42.308   5.864
 5391POPC   GL168413  12.826  42.338   6.164
 5391POPC   GL268414  12.827  42.249   6.164
 5391POPC   C1A68415  12.851  42.305   6.464
 5391POPC   D2A68416  12.862  42.292   6.764
 5391POPC   C3A68417  12.871  42.310   7.064
 5391POPC   C4A68418  12.821  42.354   7.364
 5391POPC   C1B68419  12.817  42.068   6.464
 5391POPC   C2B68420  12.736  42.058   6.764
 5391POPC   C3B68421  12.746  42.081   7.064
 5391POPC   C4B68422  12.826  42.122   7.364
 5392POPC   NC368423  28.364  15.965   5.564
 5392POPC   PO468424  28.341  15.957   5.864
 5392POPC   GL168425  28.360  15.957   6.164
 5392POPC   GL268426  28.307  15.836   6.164
 5392POPC   C1A68427  28.390  15.911   6.464
 5392POPC   D2A68428  28.376  15.999   6.764
 5392POPC   C3A68429  28.387  16.000   7.064
 5392POPC   C4A68430  28.383  15.996   7.364
 5392POPC   C1B68431  28.256  15.741   6.464
 5392POPC   C2B68432  28.297  15.685   6.764
 5392POPC   C3B68433  28.335  15.704   7.064
 5392POPC   C4B68434  28.327  15.689   7.364
 5393POPC   NC368435  19.884  31.504   5.564
 5393POPC   PO468436  19.818  31.440   5.864
 5393POPC   GL168437  19.874  31.516   6.164
 5393POPC   GL268438  19.957  31.476   6.164
 5393POPC   C1A68439  19.856  31.503   6.464
 5393POPC   D2A68440  19.867  31.493   6.764
 5393POPC   C3A68441  19.812  31.452   7.064
 5393POPC   C4A68442  19.802  31.479   7.364
 5393POPC   C1B68443  20.058  31.462   6.464
 5393POPC   C2B68444  20.041  31.458   6.764
 5393POPC   C3B68445  20.080  31.514   7.064
 5393POPC   C4B68446  20.098  31.482   7.364
 5394POPC   NC368447   2.814  33.838   5.564
 5394POPC   PO468448   2.726  33.836   5.864
 5394POPC   GL168449   2.722  33.838   6.164
 5394POPC   GL268450   2.712  33.628   6.164
 5394POPC   C1A68451   2.742  33.774   6.464
 5394POPC   D2A68452   2.777  33.824   6.764
 5394POPC   C3A68453   2.740  33.845   7.064
 5394POPC   C4A68454   2.734  33.797   7.364
 5394POPC   C1B68455   2.706  33.509   6.464
 5394POPC   C2B68456   2.704  33.530   6.764
 5394POPC   C3B68457   2.770  33.577   7.064
 5394POPC   C4B68458   2.733  33.558   7.364
 5395POPC   NC368459  21.356  44.678   5.564
 5395POPC   PO468460  21.347  44.635   5.864
 5395POPC   GL168461  21.392  44.647   6.164
 5395POPC   GL268462  21.218  44.735   6.164
 5395POPC   C1A68463  21.369  44.689   6.464
 5395POPC   D2A68464  21.423  44.695   6.764
 5395POPC   C3A68465  21.371  44.616   7.064
 5395POPC   C4A68466  21.409  44.617   7.364
 5395POPC   C1B68467  21.171  44.682   6.464
 5395POPC   C2B68468  21.138  44.766   6.764
 5395POPC   C3B68469  21.184  44.727   7.064
 5395POPC   C4B68470  21.094  44.749   7.364
 5396POPC   NC368471   8.934   7.436   5.564
 5396POPC   PO468472   8.939   7.431   5.864
 5396POPC   GL168473   9.021   7.429   6.164
 5396POPC   GL268474   9.060   7.330   6.164
 5396POPC   C1A68475   8.990   7.420   6.464
 5396POPC   D2A68476   8.939   7.426   6.764
 5396POPC   C3A68477   8.999   7.386   7.064
 5396POPC   C4A68478   8.950   7.424   7.364
 5396POPC   C1B68479   9.121   7.158   6.464
 5396POPC   C2B68480   9.123   7.213   6.764
 5396POPC   C3B68481   9.068   7.174   7.064
 5396POPC   C4B68482   9.117   7.200   7.364
 5397POPC   NC368483  15.906  44.702   5.564
 5397POPC   PO468484  15.920  44.708   5.864
 5397POPC   GL168485  15.982  44.612   6.164
 5397POPC   GL268486  15.828  44.581   6.164
 5397POPC   C1A68487  15.940  44.630   6.464
 5397POPC   D2A68488  15.978  44.659   6.764
 5397POPC   C3A68489  15.905  44.641   7.064
 5397POPC   C4A68490  15.928  44.710   7.364
 5397POPC   C1B68491  15.741  44.555   6.464
 5397POPC   C2B68492  15.756  44.561   6.764
 5397POPC   C3B68493  15.745  44.569   7.064
 5397POPC   C4B68494  15.741  44.529   7.364
 5398POPC   NC368495   7.407  36.925   5.564
 5398POPC   PO468496   7.387  36.882   5.864
 5398POPC   GL168497   7.462  36.935   6.164
 5398POPC   GL268498   7.430  37.030   6.164
 5398POPC   C1A68499   7.394  36.903   6.464
 5398POPC   D2A68500   7.451  36.949   6.764
 5398POPC   C3A68501   7.452  36.919   7.064
 5398POPC   C4A68502   7.417  36.897   7.364
 5398POPC   C1B68503   7.557  37.096   6.464
 5398POPC   C2B68504   7.554  37.111   6.764
 5398POPC   C3B68505   7.562  37.126   7.064
 5398POPC   C4B68506   7.553  37.133   7.364
 5399POPC   NC368507  13.636  15.986   5.564
 5399POPC   PO468508  13.664  15.932   5.864
 5399POPC   GL168509  13.663  15.950   6.164
 5399POPC   GL268510  13.750  15.850   6.164
 5399POPC   C1A68511  13.663  15.970   6.464
 5399POPC   D2A68512  13.588  15.934   6.764
 5399POPC   C3A68513  13.675  15.996   7.064
 5399POPC   C4A68514  13.593  15.990   7.364
 5399POPC   C1B68515  13.793  15.730   6.464
 5399POPC   C2B68516  13.800  15.807   6.764
 5399POPC   C3B68517  13.824  15.742   7.064
 5399POPC   C4B68518  13.789  15.771   7.364
 5400POPC   NC368519  40.040  13.665   5.564
 5400POPC   PO468520  40.043  13.641   5.864
 5400POPC   GL168521  40.010  13.667   6.164
 5400POPC   GL268522  39.949  13.517   6.164
 5400POPC   C1A68523  39.996  13.586   6.464
 5400POPC   D2A68524  40.049  13.625   6.764
 5400POPC   C3A68525  39.967  13.674   7.064
 5400POPC   C4A68526  40.033  13.579   7.364
 5400POPC   C1B68527  39.884  13.391   6.464
 5400POPC   C2B68528  39.893  13.456   6.764
 5400POPC   C3B68529  39.824  13.396   7.064
 5400POPC   C4B68530  39.908  13.406   7.364
 5401POPC   NC368531  15.996   1.167   5.564
 5401POPC   PO468532  15.912   1.239   5.864
 5401POPC   GL168533  15.972   1.204   6.164
 5401POPC   GL268534  15.852   1.330   6.164
 5401POPC   C1A68535  15.940   1.220   6.464
 5401POPC   D2A68536  15.992   1.237   6.764
 5401POPC   C3A68537  15.920   1.208   7.064
 5401POPC   C4A68538  15.985   1.238   7.364
 5401POPC   C1B68539  15.813   1.333   6.464
 5401POPC   C2B68540  15.775   1.424   6.764
 5401POPC   C3B68541  15.733   1.416   7.064
 5401POPC   C4B68542  15.766   1.372   7.364
 5402POPC   NC368543  40.786  26.849   5.564
 5402POPC   PO468544  40.827  26.785   5.864
 5402POPC   GL168545  40.826  26.843   6.164
 5402POPC   GL268546  40.624  26.789   6.164
 5402POPC   C1A68547  40.821  26.831   6.464
 5402POPC   D2A68548  40.765  26.821   6.764
 5402POPC   C3A68549  40.765  26.863   7.064
 5402POPC   C4A68550  40.755  26.844   7.364
 5402POPC   C1B68551  40.541  26.822   6.464
 5402POPC   C2B68552  40.492  26.816   6.764
 5402POPC   C3B68553  40.492  26.807   7.064
 5402POPC   C4B68554  40.566  26.844   7.364
 5403POPC   NC368555  11.277   6.624   5.564
 5403POPC   PO468556  11.321   6.691   5.864
 5403POPC   GL168557  11.256   6.601   6.164
 5403POPC   GL268558  11.297   6.517   6.164
 5403POPC   C1A68559  11.292   6.605   6.464
 5403POPC   D2A68560  11.336   6.684   6.764
 5403POPC   C3A68561  11.318   6.679   7.064
 5403POPC   C4A68562  11.328   6.678   7.364
 5403POPC   C1B68563  11.298   6.412   6.464
 5403POPC   C2B68564  11.303   6.354   6.764
 5403POPC   C3B68565  11.286   6.429   7.064
 5403POPC   C4B68566  11.253   6.398   7.364
 5404POPC   NC368567  12.076  15.936   5.564
 5404POPC   PO468568  12.076  15.921   5.864
 5404POPC   GL168569  12.105  15.979   6.164
 5404POPC   GL268570  12.104  16.045   6.164
 5404POPC   C1A68571  12.103  15.990   6.464
 5404POPC   D2A68572  12.096  15.961   6.764
 5404POPC   C3A68573  12.068  15.972   7.064
 5404POPC   C4A68574  12.053  15.982   7.364
 5404POPC   C1B68575  12.201  16.171   6.464
 5404POPC   C2B68576  12.172  16.130   6.764
 5404POPC   C3B68577  12.228  16.207   7.064
 5404POPC   C4B68578  12.165  16.215   7.364
 5405POPC   NC368579   0.477  14.361   5.564
 5405POPC   PO468580   0.438  14.398   5.864
 5405POPC   GL168581   0.405  14.395   6.164
 5405POPC   GL268582   0.323  14.422   6.164
 5405POPC   C1A68583   0.392  14.381   6.464
 5405POPC   D2A68584   0.451  14.453   6.764
 5405POPC   C3A68585   0.468  14.411   7.064
 5405POPC   C4A68586   0.435  14.401   7.364
 5405POPC   C1B68587   0.187  14.546   6.464
 5405POPC   C2B68588   0.203  14.510   6.764
 5405POPC   C3B68589   0.252  14.520   7.064
 5405POPC   C4B68590   0.209  14.486   7.364
 5406POPC   NC368591   1.983  32.251   5.564
 5406POPC   PO468592   1.986  32.281   5.864
 5406POPC   GL168593   2.024  32.232   6.164
 5406POPC   GL268594   2.096  32.256   6.164
 5406POPC   C1A68595   2.038  32.287   6.464
 5406POPC   D2A68596   2.025  32.208   6.764
 5406POPC   C3A68597   2.026  32.234   7.064
 5406POPC   C4A68598   2.024  32.265   7.364
 5406POPC   C1B68599   2.227  32.182   6.464
 5406POPC   C2B68600   2.261  32.182   6.764
 5406POPC   C3B68601   2.248  32.229   7.064
 5406POPC   C4B68602   2.212  32.252   7.364
 5407POPC   NC368603  12.845  34.547   5.564
 5407POPC   PO468604  12.831  34.623   5.864
 5407POPC   GL168605  12.895  34.574   6.164
 5407POPC   GL268606  12.709  34.665   6.164
 5407POPC   C1A68607  12.851  34.582   6.464
 5407POPC   D2A68608  12.823  34.585   6.764
 5407POPC   C3A68609  12.812  34.540   7.064
 5407POPC   C4A68610  12.820  34.598   7.364
 5407POPC   C1B68611  12.624  34.633   6.464
 5407POPC   C2B68612  12.627  34.701   6.764
 5407POPC   C3B68613  12.609  34.691   7.064
 5407POPC   C4B68614  12.608  34.643   7.364
 5408POPC   NC368615  33.756  33.836   5.564
 5408POPC   PO468616  33.760  33.775   5.864
 5408POPC   GL168617  33.757  33.821   6.164
 5408POPC   GL268618  33.643  33.762   6.164
 5408POPC   C1A68619  33.771  33.766   6.464
 5408POPC   D2A68620  33.765  33.814   6.764
 5408POPC   C3A68621  33.830  33.831   7.064
 5408POPC   C4A68622  33.821  33.797   7.364
 5408POPC   C1B68623  33.585  33.672   6.464
 5408POPC   C2B68624  33.594  33.683   6.764
 5408POPC   C3B68625  33.588  33.689   7.064
 5408POPC   C4B68626  33.588  33.681   7.364
 5409POPC   NC368627  16.722  31.481   5.564
 5409POPC   PO468628  16.725  31.425   5.864
 5409POPC   GL168629  16.745  31.469   6.164
 5409POPC   GL268630  16.605  31.517   6.164
 5409POPC   C1A68631  16.712  31.424   6.464
 5409POPC   D2A68632  16.702  31.433   6.764
 5409POPC   C3A68633  16.777  31.473   7.064
 5409POPC   C4A68634  16.722  31.487   7.364
 5409POPC   C1B68635  16.514  31.596   6.464
 5409POPC   C2B68636  16.484  31.585   6.764
 5409POPC   C3B68637  16.496  31.593   7.064
 5409POPC   C4B68638  16.526  31.600   7.364
 5410POPC   NC368639  22.964  12.892   5.564
 5410POPC   PO468640  22.931  12.889   5.864
 5410POPC   GL168641  22.931  12.866   6.164
 5410POPC   GL268642  22.826  12.798   6.164
 5410POPC   C1A68643  22.931  12.873   6.464
 5410POPC   D2A68644  22.952  12.837   6.764
 5410POPC   C3A68645  22.949  12.855   7.064
 5410POPC   C4A68646  22.948  12.824   7.364
 5410POPC   C1B68647  22.696  12.852   6.464
 5410POPC   C2B68648  22.644  12.794   6.764
 5410POPC   C3B68649  22.641  12.840   7.064
 5410POPC   C4B68650  22.675  12.812   7.364
 5411POPC   NC368651  34.548  13.634   5.564
 5411POPC   PO468652  34.545  13.668   5.864
 5411POPC   GL168653  34.596  13.641   6.164
 5411POPC   GL268654  34.694  13.566   6.164
 5411POPC   C1A68655  34.618  13.610   6.464
 5411POPC   D2A68656  34.550  13.582   6.764
 5411POPC   C3A68657  34.591  13.655   7.064
 5411POPC   C4A68658  34.602  13.624   7.364
 5411POPC   C1B68659  34.752  13.452   6.464
 5411POPC   C2B68660  34.777  13.490   6.764
 5411POPC   C3B68661  34.799  13.462   7.064
 5411POPC   C4B68662  34.751  13.514   7.364
 5412POPC   NC368663  14.399  15.167   5.564
 5412POPC   PO468664  14.372  15.158   5.864
 5412POPC   GL168665  14.415  15.205   6.164
 5412POPC   GL268666  14.334  15.153   6.164
 5412POPC   C1A68667  14.362  15.218   6.464
 5412POPC   D2A68668  14.390  15.207   6.764
 5412POPC   C3A68669  14.405  15.217   7.064
 5412POPC   C4A68670  14.434  15.195   7.364
 5412POPC   C1B68671  14.215  15.090   6.464
 5412POPC   C2B68672  14.193  15.054   6.764
 5412POPC   C3B68673  14.148  15.016   7.064
 5412POPC   C4B68674  14.183  15.089   7.364
 5413POPC   NC368675  40.011  12.094   5.564
 5413POPC   PO468676  39.997  12.103   5.864
 5413POPC   GL168677  40.018  12.026   6.164
 5413POPC   GL268678  39.906  12.085   6.164
 5413POPC   C1A68679  40.011  12.056   6.464
 5413POPC   D2A68680  40.003  12.125   6.764
 5413POPC   C3A68681  40.018  12.111   7.064
 5413POPC   C4A68682  40.018  12.069   7.364
 5413POPC   C1B68683  39.787  12.171   6.464
 5413POPC   C2B68684  39.801  12.173   6.764
 5413POPC   C3B68685  39.750  12.148   7.064
 5413POPC   C4B68686  39.781  12.175   7.364
 5414POPC   NC368687  28.374  33.796   5.564
 5414POPC   PO468688  28.343  33.782   5.864
 5414POPC   GL168689  28.381  33.796   6.164
 5414POPC   GL268690  28.491  33.851   6.164
 5414POPC   C1A68691  28.379  33.780   6.464
 5414POPC   D2A68692  28.379  33.754   6.764
 5414POPC   C3A68693  28.343  33.822   7.064
 5414POPC   C4A68694  28.383  33.799   7.364
 5414POPC   C1B68695  28.580  33.955   6.464
 5414POPC   C2B68696  28.529  33.919   6.764
 5414POPC   C3B68697  28.538  33.943   7.064
 5414POPC   C4B68698  28.609  33.918   7.364
 5415POPC   NC368699   9.761  14.417   5.564
 5415POPC   PO468700   9.709  14.434   5.864
 5415POPC   GL168701   9.784  14.386   6.164
 5415POPC   GL268702   9.861  14.364   6.164
 5415POPC   C1A68703   9.782  14.369   6.464
 5415POPC   D2A68704   9.776  14.388   6.764
 5415POPC   C3A68705   9.750  14.415   7.064
 5415POPC   C4A68706   9.779  14.413   7.364
 5415POPC   C1B68707   9.907  14.220   6.464
 5415POPC   C2B68708   9.995  14.277   6.764
 5415POPC   C3B68709   9.929  14.250   7.064
 5415POPC   C4B68710   9.980  14.262   7.364
 5416POPC   NC368711  23.697  34.537   5.564
 5416POPC   PO468712  23.746  34.526   5.864
 5416POPC   GL168713  23.701  34.530   6.164
 5416POPC   GL268714  23.784  34.449   6.164
 5416POPC   C1A68715  23.717  34.544   6.464
 5416POPC   D2A68716  23.711  34.571   6.764
 5416POPC   C3A68717  23.744  34.565   7.064
 5416POPC   C4A68718  23.739  34.584   7.364
 5416POPC   C1B68719  23.788  34.291   6.464
 5416POPC   C2B68720  23.783  34.368   6.764
 5416POPC   C3B68721  23.803  34.372   7.064
 5416POPC   C4B68722  23.799  34.359   7.364
 5417POPC   NC368723  36.884  43.120   5.564
 5417POPC   PO468724  36.866  43.087   5.864
 5417POPC   GL168725  36.876  43.108   6.164
 5417POPC   GL268726  36.829  43.055   6.164
 5417POPC   C1A68727  36.885  43.125   6.464
 5417POPC   D2A68728  36.862  43.142   6.764
 5417POPC   C3A68729  36.881  43.145   7.064
 5417POPC   C4A68730  36.942  43.067   7.364
 5417POPC   C1B68731  36.632  43.048   6.464
 5417POPC   C2B68732  36.681  43.026   6.764
 5417POPC   C3B68733  36.659  43.096   7.064
 5417POPC   C4B68734  36.658  43.076   7.364
 5418POPC   NC368735  33.052  19.054   5.564
 5418POPC   PO468736  33.047  19.084   5.864
 5418POPC   GL168737  33.060  19.045   6.164
 5418POPC   GL268738  32.903  18.980   6.164
 5418POPC   C1A68739  33.015  19.093   6.464
 5418POPC   D2A68740  33.068  19.108   6.764
 5418POPC   C3A68741  33.045  19.033   7.064
 5418POPC   C4A68742  33.010  19.048   7.364
 5418POPC   C1B68743  32.818  18.963   6.464
 5418POPC   C2B68744  32.763  18.989   6.764
 5418POPC   C3B68745  32.760  18.976   7.064
 5418POPC   C4B68746  32.749  18.969   7.364
 5419POPC   NC368747  40.781  32.981   5.564
 5419POPC   PO468748  40.813  33.055   5.864
 5419POPC   GL168749  40.760  32.978   6.164
 5419POPC   GL268750  40.866  32.942   6.164
 5419POPC   C1A68751  40.810  33.015   6.464
 5419POPC   D2A68752  40.752  33.054   6.764
 5419POPC   C3A68753  40.802  33.067   7.064
 5419POPC   C4A68754  40.766  33.027   7.364
 5419POPC   C1B68755  40.957  32.851   6.464
 5419POPC   C2B68756  40.950  32.887   6.764
 5419POPC   C3B68757  40.997  32.805   7.064
 5419POPC   C4B68758  40.938  32.816   7.364
 5420POPC   NC368759  17.504  15.147   5.564
 5420POPC   PO468760  17.471  15.165   5.864
 5420POPC   GL168761  17.518  15.205   6.164
 5420POPC   GL268762  17.566  15.336   6.164
 5420POPC   C1A68763  17.524  15.220   6.464
 5420POPC   D2A68764  17.532  15.185   6.764
 5420POPC   C3A68765  17.473  15.181   7.064
 5420POPC   C4A68766  17.511  15.161   7.364
 5420POPC   C1B68767  17.556  15.443   6.464
 5420POPC   C2B68768  17.583  15.404   6.764
 5420POPC   C3B68769  17.607  15.447   7.064
 5420POPC   C4B68770  17.592  15.474   7.364
 5421POPC   NC368771   9.783  17.553   5.564
 5421POPC   PO468772   9.723  17.493   5.864
 5421POPC   GL168773   9.699  17.475   6.164
 5421POPC   GL268774   9.856  17.534   6.164
 5421POPC   C1A68775   9.711  17.479   6.464
 5421POPC   D2A68776   9.728  17.526   6.764
 5421POPC   C3A68777   9.764  17.512   7.064
 5421POPC   C4A68778   9.765  17.537   7.364
 5421POPC   C1B68779   9.976  17.585   6.464
 5421POPC   C2B68780  10.002  17.574   6.764
 5421POPC   C3B68781   9.967  17.573   7.064
 5421POPC   C4B68782  10.010  17.558   7.364
 5422POPC   NC368783  20.588  20.606   5.564
 5422POPC   PO468784  20.653  20.582   5.864
 5422POPC   GL168785  20.632  20.659   6.164
 5422POPC   GL268786  20.530  20.618   6.164
 5422POPC   C1A68787  20.621  20.620   6.464
 5422POPC   D2A68788  20.593  20.640   6.764
 5422POPC   C3A68789  20.621  20.655   7.064
 5422POPC   C4A68790  20.587  20.611   7.364
 5422POPC   C1B68791  20.420  20.556   6.464
 5422POPC   C2B68792  20.354  20.547   6.764
 5422POPC   C3B68793  20.395  20.564   7.064
 5422POPC   C4B68794  20.411  20.518   7.364
 5423POPC   NC368795   8.218  30.731   5.564
 5423POPC   PO468796   8.175  30.684   5.864
 5423POPC   GL168797   8.198  30.680   6.164
 5423POPC   GL268798   8.068  30.694   6.164
 5423POPC   C1A68799   8.170  30.718   6.464
 5423POPC   D2A68800   8.147  30.704   6.764
 5423POPC   C3A68801   8.246  30.707   7.064
 5423POPC   C4A68802   8.217  30.655   7.364
 5423POPC   C1B68803   7.904  30.736   6.464
 5423POPC   C2B68804   7.975  30.679   6.764
 5423POPC   C3B68805   7.985  30.700   7.064
 5423POPC   C4B68806   7.944  30.742   7.364
 5424POPC   NC368807  36.104  40.734   5.564
 5424POPC   PO468808  36.114  40.758   5.864
 5424POPC   GL168809  36.128  40.831   6.164
 5424POPC   GL268810  36.099  40.625   6.164
 5424POPC   C1A68811  36.120  40.753   6.464
 5424POPC   D2A68812  36.172  40.798   6.764
 5424POPC   C3A68813  36.177  40.815   7.064
 5424POPC   C4A68814  36.167  40.775   7.364
 5424POPC   C1B68815  36.079  40.567   6.464
 5424POPC   C2B68816  36.051  40.568   6.764
 5424POPC   C3B68817  36.123  40.540   7.064
 5424POPC   C4B68818  36.054  40.536   7.364
 5425POPC   NC368819  34.576  26.839   5.564
 5425POPC   PO468820  34.542  26.835   5.864
 5425POPC   GL168821  34.538  26.781   6.164
 5425POPC   GL268822  34.551  26.903   6.164
 5425POPC   C1A68823  34.579  26.841   6.464
 5425POPC   D2A68824  34.567  26.817   6.764
 5425POPC   C3A68825  34.555  26.820   7.064
 5425POPC   C4A68826  34.561  26.808   7.364
 5425POPC   C1B68827  34.495  27.074   6.464
 5425POPC   C2B68828  34.497  27.031   6.764
 5425POPC   C3B68829  34.476  27.085   7.064
 5425POPC   C4B68830  34.477  27.033   7.364
 5426POPC   NC368831  39.978  44.649   5.564
 5426POPC   PO468832  40.047  44.696   5.864
 5426POPC   GL168833  39.959  44.630   6.164
 5426POPC   GL268834  39.907  44.608   6.164
 5426POPC   C1A68835  39.973  44.707   6.464
 5426POPC   D2A68836  39.966  44.641   6.764
 5426POPC   C3A68837  40.037  44.625   7.064
 5426POPC   C4A68838  40.020  44.625   7.364
 5426POPC   C1B68839  39.786  44.615   6.464
 5426POPC   C2B68840  39.733  44.655   6.764
 5426POPC   C3B68841  39.796  44.629   7.064
 5426POPC   C4B68842  39.739  44.603   7.364
 5427POPC   NC368843  32.269  42.296   5.564
 5427POPC   PO468844  32.225  42.334   5.864
 5427POPC   GL168845  32.294  42.314   6.164
 5427POPC   GL268846  32.133  42.280   6.164
 5427POPC   C1A68847  32.279  42.312   6.464
 5427POPC   D2A68848  32.219  42.364   6.764
 5427POPC   C3A68849  32.293  42.373   7.064
 5427POPC   C4A68850  32.288  42.380   7.364
 5427POPC   C1B68851  32.013  42.244   6.464
 5427POPC   C2B68852  32.079  42.192   6.764
 5427POPC   C3B68853  32.018  42.195   7.064
 5427POPC   C4B68854  32.078  42.208   7.364
 5428POPC   NC368855  38.421  22.119   5.564
 5428POPC   PO468856  38.426  22.146   5.864
 5428POPC   GL168857  38.439  22.164   6.164
 5428POPC   GL268858  38.418  22.315   6.164
 5428POPC   C1A68859  38.485  22.128   6.464
 5428POPC   D2A68860  38.414  22.168   6.764
 5428POPC   C3A68861  38.499  22.117   7.064
 5428POPC   C4A68862  38.447  22.166   7.364
 5428POPC   C1B68863  38.412  22.421   6.464
 5428POPC   C2B68864  38.418  22.408   6.764
 5428POPC   C3B68865  38.392  22.399   7.064
 5428POPC   C4B68866  38.416  22.410   7.364
 5429POPC   NC368867  17.535   4.307   5.564
 5429POPC   PO468868  17.527   4.288   5.864
 5429POPC   GL168869  17.471   4.300   6.164
 5429POPC   GL268870  17.635   4.228   6.164
 5429POPC   C1A68871  17.523   4.366   6.464
 5429POPC   D2A68872  17.467   4.294   6.764
 5429POPC   C3A68873  17.477   4.283   7.064
 5429POPC   C4A68874  17.510   4.332   7.364
 5429POPC   C1B68875  17.691   4.167   6.464
 5429POPC   C2B68876  17.688   4.193   6.764
 5429POPC   C3B68877  17.661   4.147   7.064
 5429POPC   C4B68878  17.668   4.136   7.364
 5430POPC   NC368879  38.435   2.745   5.564
 5430POPC   PO468880  38.421   2.732   5.864
 5430POPC   GL168881  38.461   2.743   6.164
 5430POPC   GL268882  38.461   2.606   6.164
 5430POPC   C1A68883  38.461   2.770   6.464
 5430POPC   D2A68884  38.448   2.760   6.764
 5430POPC   C3A68885  38.460   2.763   7.064
 5430POPC   C4A68886  38.505   2.760   7.364
 5430POPC   C1B68887  38.440   2.509   6.464
 5430POPC   C2B68888  38.493   2.541   6.764
 5430POPC   C3B68889  38.465   2.490   7.064
 5430POPC   C4B68890  38.485   2.489   7.364
 5431POPC   NC368891   8.150  15.197   5.564
 5431POPC   PO468892   8.177  15.184   5.864
 5431POPC   GL168893   8.241  15.221   6.164
 5431POPC   GL268894   8.115  15.203   6.164
 5431POPC   C1A68895   8.213  15.180   6.464
 5431POPC   D2A68896   8.197  15.173   6.764
 5431POPC   C3A68897   8.203  15.164   7.064
 5431POPC   C4A68898   8.215  15.144   7.364
 5431POPC   C1B68899   8.031  15.280   6.464
 5431POPC   C2B68900   8.019  15.328   6.764
 5431POPC   C3B68901   7.954  15.356   7.064
 5431POPC   C4B68902   7.996  15.283   7.364
 5432POPC   NC368903   5.097  30.719   5.564
 5432POPC   PO468904   5.119  30.688   5.864
 5432POPC   GL168905   5.056  30.735   6.164
 5432POPC   GL268906   5.252  30.748   6.164
 5432POPC   C1A68907   5.140  30.663   6.464
 5432POPC   D2A68908   5.110  30.701   6.764
 5432POPC   C3A68909   5.111  30.701   7.064
 5432POPC   C4A68910   5.076  30.663   7.364
 5432POPC   C1B68911   5.370  30.754   6.464
 5432POPC   C2B68912   5.370  30.687   6.764
 5432POPC   C3B68913   5.375  30.736   7.064
 5432POPC   C4B68914   5.316  30.716   7.364
 5433POPC   NC368915  33.032  29.180   5.564
 5433POPC   PO468916  33.061  29.110   5.864
 5433POPC   GL168917  33.008  29.136   6.164
 5433POPC   GL268918  33.154  29.142   6.164
 5433POPC   C1A68919  32.990  29.157   6.464
 5433POPC   D2A68920  32.989  29.124   6.764
 5433POPC   C3A68921  33.035  29.144   7.064
 5433POPC   C4A68922  33.032  29.133   7.364
 5433POPC   C1B68923  33.279  29.109   6.464
 5433POPC   C2B68924  33.245  29.083   6.764
 5433POPC   C3B68925  33.247  29.155   7.064
 5433POPC   C4B68926  33.268  29.136   7.364
 5434POPC   NC368927  28.340   7.459   5.564
 5434POPC   PO468928  28.362   7.413   5.864
 5434POPC   GL168929  28.375   7.381   6.164
 5434POPC   GL268930  28.381   7.335   6.164
 5434POPC   C1A68931  28.342   7.463   6.464
 5434POPC   D2A68932  28.393   7.468   6.764
 5434POPC   C3A68933  28.397   7.431   7.064
 5434POPC   C4A68934  28.335   7.433   7.364
 5434POPC   C1B68935  28.319   7.121   6.464
 5434POPC   C2B68936  28.396   7.126   6.764
 5434POPC   C3B68937  28.377   7.182   7.064
 5434POPC   C4B68938  28.312   7.180   7.364
 5435POPC   NC368939  24.490  26.084   5.564
 5435POPC   PO468940  24.538  25.998   5.864
 5435POPC   GL168941  24.501  26.024   6.164
 5435POPC   GL268942  24.495  25.889   6.164
 5435POPC   C1A68943  24.495  26.037   6.464
 5435POPC   D2A68944  24.520  26.071   6.764
 5435POPC   C3A68945  24.504  26.053   7.064
 5435POPC   C4A68946  24.488  26.050   7.364
 5435POPC   C1B68947  24.505  25.788   6.464
 5435POPC   C2B68948  24.521  25.783   6.764
 5435POPC   C3B68949  24.484  25.744   7.064
 5435POPC   C4B68950  24.473  25.836   7.364
 5436POPC   NC368951  13.674  22.953   5.564
 5436POPC   PO468952  13.595  22.893   5.864
 5436POPC   GL168953  13.641  22.937   6.164
 5436POPC   GL268954  13.481  22.995   6.164
 5436POPC   C1A68955  13.665  22.946   6.464
 5436POPC   D2A68956  13.586  22.959   6.764
 5436POPC   C3A68957  13.599  22.934   7.064
 5436POPC   C4A68958  13.626  22.918   7.364
 5436POPC   C1B68959  13.374  23.011   6.464
 5436POPC   C2B68960  13.395  23.032   6.764
 5436POPC   C3B68961  13.409  23.072   7.064
 5436POPC   C4B68962  13.359  23.078   7.364
 5437POPC   NC368963  43.881  22.910   5.564
 5437POPC   PO468964  43.925  22.901   5.864
 5437POPC   GL168965  43.844  22.890   6.164
 5437POPC   GL268966  43.826  22.878   6.164
 5437POPC   C1A68967  43.923  22.894   6.464
 5437POPC   D2A68968  43.860  22.930   6.764
 5437POPC   C3A68969  43.873  22.923   7.064
 5437POPC   C4A68970  43.885  22.930   7.364
 5437POPC   C1B68971  43.698  22.789   6.464
 5437POPC   C2B68972  43.717  22.707   6.764
 5437POPC   C3B68973  43.772  22.786   7.064
 5437POPC   C4B68974  43.725  22.727   7.364
 5438POPC   NC368975  24.498  29.952   5.564
 5438POPC   PO468976  24.471  29.929   5.864
 5438POPC   GL168977  24.451  29.900   6.164
 5438POPC   GL268978  24.531  30.003   6.164
 5438POPC   C1A68979  24.443  29.912   6.464
 5438POPC   D2A68980  24.524  29.895   6.764
 5438POPC   C3A68981  24.520  29.963   7.064
 5438POPC   C4A68982  24.519  29.893   7.364
 5438POPC   C1B68983  24.501  30.126   6.464
 5438POPC   C2B68984  24.511  30.197   6.764
 5438POPC   C3B68985  24.523  30.181   7.064
 5438POPC   C4B68986  24.508  30.143   7.364
 5439POPC   NC368987   2.781  11.287   5.564
 5439POPC   PO468988   2.731  11.254   5.864
 5439POPC   GL168989   2.780  11.289   6.164
 5439POPC   GL268990   2.855  11.226   6.164
 5439POPC   C1A68991   2.721  11.296   6.464
 5439POPC   D2A68992   2.755  11.289   6.764
 5439POPC   C3A68993   2.813  11.308   7.064
 5439POPC   C4A68994   2.717  11.324   7.364
 5439POPC   C1B68995   2.992  11.236   6.464
 5439POPC   C2B68996   3.043  11.226   6.764
 5439POPC   C3B68997   3.003  11.244   7.064
 5439POPC   C4B68998   2.964  11.174   7.364
 5440POPC   NC368999  33.816  41.524   5.564
 5440POPC   PO469000  33.835  41.529   5.864
 5440POPC   GL169001  33.803  41.514   6.164
 5440POPC   GL269002  33.718  41.579   6.164
 5440POPC   C1A69003  33.836  41.550   6.464
 5440POPC   D2A69004  33.764  41.548   6.764
 5440POPC   C3A69005  33.792  41.549   7.064
 5440POPC   C4A69006  33.822  41.536   7.364
 5440POPC   C1B69007  33.608  41.624   6.464
 5440POPC   C2B69008  33.588  41.700   6.764
 5440POPC   C3B69009  33.522  41.635   7.064
 5440POPC   C4B69010  33.555  41.618   7.364
 5441POPC   NC369011  35.375  11.253   5.564
 5441POPC   PO469012  35.303  11.261   5.864
 5441POPC   GL169013  35.396  11.319   6.164
 5441POPC   GL269014  35.508  11.224   6.164
 5441POPC   C1A69015  35.309  11.333   6.464
 5441POPC   D2A69016  35.379  11.274   6.764
 5441POPC   C3A69017  35.373  11.308   7.064
 5441POPC   C4A69018  35.310  11.328   7.364
 5441POPC   C1B69019  35.554  11.238   6.464
 5441POPC   C2B69020  35.549  11.248   6.764
 5441POPC   C3B69021  35.602  11.252   7.064
 5441POPC   C4B69022  35.592  11.175   7.364
 5442POPC   NC369023   0.436  11.272   5.564
 5442POPC   PO469024   0.389  11.271   5.864
 5442POPC   GL169025   0.411  11.273   6.164
 5442POPC   GL269026   0.502  11.392   6.164
 5442POPC   C1A69027   0.402  11.272   6.464
 5442POPC   D2A69028   0.447  11.330   6.764
 5442POPC   C3A69029   0.451  11.340   7.064
 5442POPC   C4A69030   0.469  11.307   7.364
 5442POPC   C1B69031   0.637  11.457   6.464
 5442POPC   C2B69032   0.647  11.492   6.764
 5442POPC   C3B69033   0.599  11.493   7.064
 5442POPC   C4B69034   0.670  11.477   7.364
 5443POPC   NC369035  12.088  41.546   5.564
 5443POPC   PO469036  12.049  41.536   5.864
 5443POPC   GL169037  12.047  41.604   6.164
 5443POPC   GL269038  12.148  41.481   6.164
 5443POPC   C1A69039  12.047  41.519   6.464
 5443POPC   D2A69040  12.041  41.546   6.764
 5443POPC   C3A69041  12.108  41.545   7.064
 5443POPC   C4A69042  12.064  41.601   7.364
 5443POPC   C1B69043  12.218  41.387   6.464
 5443POPC   C2B69044  12.177  41.382   6.764
 5443POPC   C3B69045  12.241  41.398   7.064
 5443POPC   C4B69046  12.176  41.363   7.364
 5444POPC   NC369047  40.758  14.407   5.564
 5444POPC   PO469048  40.765  14.392   5.864
 5444POPC   GL169049  40.771  14.389   6.164
 5444POPC   GL269050  40.695  14.531   6.164
 5444POPC   C1A69051  40.758  14.390   6.464
 5444POPC   D2A69052  40.830  14.427   6.764
 5444POPC   C3A69053  40.792  14.416   7.064
 5444POPC   C4A69054  40.767  14.370   7.364
 5444POPC   C1B69055  40.642  14.524   6.464
 5444POPC   C2B69056  40.621  14.520   6.764
 5444POPC   C3B69057  40.565  14.524   7.064
 5444POPC   C4B69058  40.563  14.518   7.364
 5445POPC   NC369059   5.092  43.151   5.564
 5445POPC   PO469060   5.067  43.062   5.864
 5445POPC   GL169061   5.080  43.063   6.164
 5445POPC   GL269062   4.963  43.149   6.164
 5445POPC   C1A69063   5.111  43.084   6.464
 5445POPC   D2A69064   5.058  43.154   6.764
 5445POPC   C3A69065   5.059  43.094   7.064
 5445POPC   C4A69066   5.093  43.123   7.364
 5445POPC   C1B69067   4.859  43.124   6.464
 5445POPC   C2B69068   4.861  43.191   6.764
 5445POPC   C3B69069   4.800  43.192   7.064
 5445POPC   C4B69070   4.899  43.172   7.364
 5446POPC   NC369071  32.203  44.621   5.564
 5446POPC   PO469072  32.199  44.613   5.864
 5446POPC   GL169073  32.269  44.676   6.164
 5446POPC   GL269074  32.204  44.555   6.164
 5446POPC   C1A69075  32.270  44.659   6.464
 5446POPC   D2A69076  32.247  44.701   6.764
 5446POPC   C3A69077  32.251  44.701   7.064
 5446POPC   C4A69078  32.278  44.673   7.364
 5446POPC   C1B69079  32.235  44.376   6.464
 5446POPC   C2B69080  32.262  44.394   6.764
 5446POPC   C3B69081  32.247  44.385   7.064
 5446POPC   C4B69082  32.201  44.397   7.364
 5447POPC   NC369083   2.001   5.888   5.564
 5447POPC   PO469084   1.952   5.882   5.864
 5447POPC   GL169085   1.977   5.857   6.164
 5447POPC   GL269086   2.057   5.951   6.164
 5447POPC   C1A69087   2.008   5.860   6.464
 5447POPC   D2A69088   1.971   5.880   6.764
 5447POPC   C3A69089   1.955   5.850   7.064
 5447POPC   C4A69090   1.970   5.838   7.364
 5447POPC   C1B69091   2.066   6.121   6.464
 5447POPC   C2B69092   2.101   6.127   6.764
 5447POPC   C3B69093   2.100   6.083   7.064
 5447POPC   C4B69094   2.138   6.078   7.364
 5448POPC   NC369095  21.390  10.554   5.564
 5448POPC   PO469096  21.338  10.482   5.864
 5448POPC   GL169097  21.363  10.506   6.164
 5448POPC   GL269098  21.510  10.501   6.164
 5448POPC   C1A69099  21.431  10.540   6.464
 5448POPC   D2A69100  21.391  10.499   6.764
 5448POPC   C3A69101  21.412  10.518   7.064
 5448POPC   C4A69102  21.403  10.542   7.364
 5448POPC   C1B69103  21.617  10.528   6.464
 5448POPC   C2B69104  21.629  10.543   6.764
 5448POPC   C3B69105  21.645  10.489   7.064
 5448POPC   C4B69106  21.640  10.515   7.364
 5449POPC   NC369107   8.182  19.100   5.564
 5449POPC   PO469108   8.184  19.030   5.864
 5449POPC   GL169109   8.175  19.064   6.164
 5449POPC   GL269110   8.230  18.936   6.164
 5449POPC   C1A69111   8.246  19.057   6.464
 5449POPC   D2A69112   8.188  19.066   6.764
 5449POPC   C3A69113   8.176  19.028   7.064
 5449POPC   C4A69114   8.192  19.027   7.364
 5449POPC   C1B69115   8.316  18.867   6.464
 5449POPC   C2B69116   8.239  18.863   6.764
 5449POPC   C3B69117   8.228  18.793   7.064
 5449POPC   C4B69118   8.240  18.796   7.364
 5450POPC   NC369119  18.304  32.279   5.564
 5450POPC   PO469120  18.300  32.221   5.864
 5450POPC   GL169121  18.242  32.266   6.164
 5450POPC   GL269122  18.162  32.223   6.164
 5450POPC   C1A69123  18.269  32.297   6.464
 5450POPC   D2A69124  18.243  32.254   6.764
 5450POPC   C3A69125  18.308  32.290   7.064
 5450POPC   C4A69126  18.308  32.250   7.364
 5450POPC   C1B69127  17.992  32.302   6.464
 5450POPC   C2B69128  18.034  32.221   6.764
 5450POPC   C3B69129  17.988  32.222   7.064
 5450POPC   C4B69130  18.035  32.233   7.364
 5451POPC   NC369131  22.176  33.032   5.564
 5451POPC   PO469132  22.201  33.064   5.864
 5451POPC   GL169133  22.138  33.038   6.164
 5451POPC   GL269134  22.253  32.986   6.164
 5451POPC   C1A69135  22.148  33.073   6.464
 5451POPC   D2A69136  22.206  32.997   6.764
 5451POPC   C3A69137  22.126  33.005   7.064
 5451POPC   C4A69138  22.185  32.978   7.364
 5451POPC   C1B69139  22.434  32.907   6.464
 5451POPC   C2B69140  22.378  32.975   6.764
 5451POPC   C3B69141  22.376  32.926   7.064
 5451POPC   C4B69142  22.373  32.935   7.364
 5452POPC   NC369143  24.515  31.508   5.564
 5452POPC   PO469144  24.466  31.463   5.864
 5452POPC   GL169145  24.498  31.467   6.164
 5452POPC   GL269146  24.562  31.562   6.164
 5452POPC   C1A69147  24.488  31.505   6.464
 5452POPC   D2A69148  24.497  31.505   6.764
 5452POPC   C3A69149  24.465  31.501   7.064
 5452POPC   C4A69150  24.469  31.462   7.364
 5452POPC   C1B69151  24.644  31.651   6.464
 5452POPC   C2B69152  24.725  31.613   6.764
 5452POPC   C3B69153  24.643  31.628   7.064
 5452POPC   C4B69154  24.706  31.660   7.364
 5453POPC   NC369155  11.310  43.872   5.564
 5453POPC   PO469156  11.282  43.865   5.864
 5453POPC   GL169157  11.259  43.924   6.164
 5453POPC   GL269158  11.437  43.965   6.164
 5453POPC   C1A69159  11.312  43.892   6.464
 5453POPC   D2A69160  11.257  43.903   6.764
 5453POPC   C3A69161  11.281  43.904   7.064
 5453POPC   C4A69162  11.343  43.852   7.364
 5453POPC   C1B69163  11.563  43.957   6.464
 5453POPC   C2B69164  11.523  43.925   6.764
 5453POPC   C3B69165  11.501  43.928   7.064
 5453POPC   C4B69166  11.556  43.944   7.364
 5454POPC   NC369167  43.084  35.395   5.564
 5454POPC   PO469168  43.159  35.342   5.864
 5454POPC   GL169169  43.066  35.331   6.164
 5454POPC   GL269170  43.046  35.213   6.164
 5454POPC   C1A69171  43.079  35.386   6.464
 5454POPC   D2A69172  43.112  35.326   6.764
 5454POPC   C3A69173  43.110  35.308   7.064
 5454POPC   C4A69174  43.062  35.321   7.364
 5454POPC   C1B69175  43.062  35.095   6.464
 5454POPC   C2B69176  43.027  35.077   6.764
 5454POPC   C3B69177  42.985  35.097   7.064
 5454POPC   C4B69178  42.976  35.095   7.364
 5455POPC   NC369179  43.117  10.475   5.564
 5455POPC   PO469180  43.093  10.545   5.864
 5455POPC   GL169181  43.082  10.486   6.164
 5455POPC   GL269182  43.260  10.517   6.164
 5455POPC   C1A69183  43.129  10.480   6.464
 5455POPC   D2A69184  43.085  10.514   6.764
 5455POPC   C3A69185  43.072  10.496   7.064
 5455POPC   C4A69186  43.086  10.488   7.364
 5455POPC   C1B69187  43.321  10.541   6.464
 5455POPC   C2B69188  43.320  10.573   6.764
 5455POPC   C3B69189  43.348  10.498   7.064
 5455POPC   C4B69190  43.376  10.558   7.364
 5456POPC   NC369191   1.168   5.894   5.564
 5456POPC   PO469192   1.178   5.847   5.864
 5456POPC   GL169193   1.204   5.846   6.164
 5456POPC   GL269194   1.061   5.829   6.164
 5456POPC   C1A69195   1.248   5.901   6.464
 5456POPC   D2A69196   1.244   5.870   6.764
 5456POPC   C3A69197   1.244   5.874   7.064
 5456POPC   C4A69198   1.177   5.901   7.364
 5456POPC   C1B69199   1.010   5.800   6.464
 5456POPC   C2B69200   0.982   5.745   6.764
 5456POPC   C3B69201   1.004   5.710   7.064
 5456POPC   C4B69202   1.001   5.742   7.364
 5457POPC   NC369203  33.822  10.485   5.564
 5457POPC   PO469204  33.829  10.526   5.864
 5457POPC   GL169205  33.763  10.569   6.164
 5457POPC   GL269206  33.934  10.527   6.164
 5457POPC   C1A69207  33.810  10.483   6.464
 5457POPC   D2A69208  33.755  10.534   6.764
 5457POPC   C3A69209  33.840  10.513   7.064
 5457POPC   C4A69210  33.792  10.559   7.364
 5457POPC   C1B69211  33.979  10.602   6.464
 5457POPC   C2B69212  33.979  10.579   6.764
 5457POPC   C3B69213  34.002  10.610   7.064
 5457POPC   C4B69214  34.061  10.588   7.364
 5458POPC   NC369215  38.501  15.961   5.564
 5458POPC   PO469216  38.447  15.969   5.864
 5458POPC   GL169217  38.482  15.914   6.164
 5458POPC   GL269218  38.423  16.054   6.164
 5458POPC   C1A69219  38.496  15.962   6.464
 5458POPC   D2A69220  38.489  15.985   6.764
 5458POPC   C3A69221  38.490  15.944   7.064
 5458POPC   C4A69222  38.413  15.920   7.364
 5458POPC   C1B69223  38.321  16.156   6.464
 5458POPC   C2B69224  38.345  16.126   6.764
 5458POPC   C3B69225  38.344  16.159   7.064
 5458POPC   C4B69226  38.316  16.130   7.364
 5459POPC   NC369227  22.169  22.130   5.564
 5459POPC   PO469228  22.196  22.149   5.864
 5459POPC   GL169229  22.186  22.202   6.164
 5459POPC   GL269230  22.280  22.041   6.164
 5459POPC   C1A69231  22.201  22.210   6.464
 5459POPC   D2A69232  22.179  22.180   6.764
 5459POPC   C3A69233  22.197  22.133   7.064
 5459POPC   C4A69234  22.170  22.126   7.364
 5459POPC   C1B69235  22.338  21.947   6.464
 5459POPC   C2B69236  22.258  21.989   6.764
 5459POPC   C3B69237  22.321  21.972   7.064
 5459POPC   C4B69238  22.263  21.944   7.364
 5460POPC   NC369239  43.911  15.184   5.564
 5460POPC   PO469240  43.850  15.168   5.864
 5460POPC   GL169241  43.919  15.219   6.164
 5460POPC   GL269242  43.929  15.110   6.164
 5460POPC   C1A69243  43.871  15.143   6.464
 5460POPC   D2A69244  43.909  15.205   6.764
 5460POPC   C3A69245  43.858  15.226   7.064
 5460POPC   C4A69246  43.904  15.170   7.364
 5460POPC   C1B69247  43.999  14.939   6.464
 5460POPC   C2B69248  44.060  14.933   6.764
 5460POPC   C3B69249  43.996  15.005   7.064
 5460POPC   C4B69250  44.011  15.033   7.364
 5461POPC   NC369251  26.036  22.906   5.564
 5461POPC   PO469252  26.023  22.923   5.864
 5461POPC   GL169253  26.032  22.943   6.164
 5461POPC   GL269254  25.994  23.043   6.164
 5461POPC   C1A69255  26.074  22.903   6.464
 5461POPC   D2A69256  26.077  22.934   6.764
 5461POPC   C3A69257  26.067  22.970   7.064
 5461POPC   C4A69258  26.035  22.962   7.364
 5461POPC   C1B69259  25.869  23.091   6.464
 5461POPC   C2B69260  25.912  23.100   6.764
 5461POPC   C3B69261  25.857  23.171   7.064
 5461POPC   C4B69262  25.914  23.089   7.364
 5462POPC   NC369263  15.224  28.409   5.564
 5462POPC   PO469264  15.143  28.321   5.864
 5462POPC   GL169265  15.146  28.384   6.164
 5462POPC   GL269266  15.093  28.260   6.164
 5462POPC   C1A69267  15.220  28.331   6.464
 5462POPC   D2A69268  15.217  28.361   6.764
 5462POPC   C3A69269  15.171  28.340   7.064
 5462POPC   C4A69270  15.173  28.405   7.364
 5462POPC   C1B69271  15.041  28.106   6.464
 5462POPC   C2B69272  15.106  28.121   6.764
 5462POPC   C3B69273  15.066  28.182   7.064
 5462POPC   C4B69274  15.051  28.108   7.364
 5463POPC   NC369275  32.220  33.775   5.564
 5463POPC   PO469276  32.246  33.799   5.864
 5463POPC   GL169277  32.286  33.796   6.164
 5463POPC   GL269278  32.208  33.649   6.164
 5463POPC   C1A69279  32.269  33.796   6.464
 5463POPC   D2A69280  32.219  33.766   6.764
 5463POPC   C3A69281  32.268  33.761   7.064
 5463POPC   C4A69282  32.244  33.768   7.364
 5463POPC   C1B69283  32.178  33.597   6.464
 5463POPC   C2B69284  32.122  33.587   6.764
 5463POPC   C3B69285  32.146  33.551   7.064
 5463POPC   C4B69286  32.089  33.526   7.364
 5464POPC   NC369287  43.926  29.170   5.564
 5464POPC   PO469288  43.886  29.160   5.864
 5464POPC   GL169289  43.895  29.123   6.164
 5464POPC   GL269290  44.005  29.132   6.164
 5464POPC   C1A69291  43.920  29.171   6.464
 5464POPC   D2A69292  43.908  29.156   6.764
 5464POPC   C3A69293  43.882  29.180   7.064
 5464POPC   C4A69294  43.868  29.112   7.364
 5464POPC   C1B69295  44.181  29.193   6.464
 5464POPC   C2B69296  44.083  29.144   6.764
 5464POPC   C3B69297  44.096  29.208   7.064
 5464POPC   C4B69298  44.177  29.197   7.364
 5465POPC   NC369299   5.902  32.268   5.564
 5465POPC   PO469300   5.856  32.266   5.864
 5465POPC   GL169301   5.879  32.265   6.164
 5465POPC   GL269302   6.014  32.175   6.164
 5465POPC   C1A69303   5.866  32.221   6.464
 5465POPC   D2A69304   5.863  32.282   6.764
 5465POPC   C3A69305   5.845  32.228   7.064
 5465POPC   C4A69306   5.864  32.283   7.364
 5465POPC   C1B69307   6.096  32.148   6.464
 5465POPC   C2B69308   6.125  32.107   6.764
 5465POPC   C3B69309   6.092  32.125   7.064
 5465POPC   C4B69310   6.113  32.072   7.364
 5466POPC   NC369311  22.171  21.421   5.564
 5466POPC   PO469312  22.153  21.413   5.864
 5466POPC   GL169313  22.147  21.417   6.164
 5466POPC   GL269314  22.200  21.256   6.164
 5466POPC   C1A69315  22.117  21.381   6.464
 5466POPC   D2A69316  22.192  21.415   6.764
 5466POPC   C3A69317  22.178  21.430   7.064
 5466POPC   C4A69318  22.168  21.418   7.364
 5466POPC   C1B69319  22.217  21.182   6.464
 5466POPC   C2B69320  22.229  21.146   6.764
 5466POPC   C3B69321  22.269  21.189   7.064
 5466POPC   C4B69322  22.289  21.122   7.364
 5467POPC   NC369323  13.605  13.587   5.564
 5467POPC   PO469324  13.600  13.677   5.864
 5467POPC   GL169325  13.663  13.620   6.164
 5467POPC   GL269326  13.730  13.665   6.164
 5467POPC   C1A69327  13.588  13.606   6.464
 5467POPC   D2A69328  13.660  13.634   6.764
 5467POPC   C3A69329  13.636  13.605   7.064
 5467POPC   C4A69330  13.637  13.652   7.364
 5467POPC   C1B69331  13.889  13.636   6.464
 5467POPC   C2B69332  13.910  13.559   6.764
 5467POPC   C3B69333  13.866  13.599   7.064
 5467POPC   C4B69334  13.829  13.614   7.364
 5468POPC   NC369335  10.531   7.419   5.564
 5468POPC   PO469336  10.534   7.391   5.864
 5468POPC   GL169337  10.524   7.434   6.164
 5468POPC   GL269338  10.629   7.271   6.164
 5468POPC   C1A69339  10.496   7.372   6.464
 5468POPC   D2A69340  10.556   7.411   6.764
 5468POPC   C3A69341  10.518   7.439   7.064
 5468POPC   C4A69342  10.523   7.449   7.364
 5468POPC   C1B69343  10.646   7.246   6.464
 5468POPC   C2B69344  10.611   7.257   6.764
 5468POPC   C3B69345  10.629   7.238   7.064
 5468POPC   C4B69346  10.702   7.226   7.364
 5469POPC   NC369347  29.970   7.387   5.564
 5469POPC   PO469348  29.880   7.443   5.864
 5469POPC   GL169349  29.871   7.392   6.164
 5469POPC   GL269350  29.909   7.489   6.164
 5469POPC   C1A69351  29.966   7.441   6.464
 5469POPC   D2A69352  29.914   7.462   6.764
 5469POPC   C3A69353  29.934   7.434   7.064
 5469POPC   C4A69354  29.947   7.379   7.364
 5469POPC   C1B69355  29.758   7.636   6.464
 5469POPC   C2B69356  29.840   7.684   6.764
 5469POPC   C3B69357  29.760   7.616   7.064
 5469POPC   C4B69358  29.794   7.639   7.364
 5470POPC   NC369359   8.164  29.931   5.564
 5470POPC   PO469360   8.177  29.875   5.864
 5470POPC   GL169361   8.212  29.959   6.164
 5470POPC   GL269362   8.077  29.880   6.164
 5470POPC   C1A69363   8.228  29.915   6.464
 5470POPC   D2A69364   8.204  29.964   6.764
 5470POPC   C3A69365   8.197  29.909   7.064
 5470POPC   C4A69366   8.246  29.915   7.364
 5470POPC   C1B69367   7.970  29.836   6.464
 5470POPC   C2B69368   7.972  29.799   6.764
 5470POPC   C3B69369   7.964  29.886   7.064
 5470POPC   C4B69370   7.928  29.828   7.364
 5471POPC   NC369371  30.737  43.865   5.564
 5471POPC   PO469372  30.742  43.901   5.864
 5471POPC   GL169373  30.745  43.897   6.164
 5471POPC   GL269374  30.819  44.029   6.164
 5471POPC   C1A69375  30.671  43.848   6.464
 5471POPC   D2A69376  30.704  43.897   6.764
 5471POPC   C3A69377  30.658  43.860   7.064
 5471POPC   C4A69378  30.695  43.869   7.364
 5471POPC   C1B69379  30.819  44.037   6.464
 5471POPC   C2B69380  30.829  44.027   6.764
 5471POPC   C3B69381  30.893  44.064   7.064
 5471POPC   C4B69382  30.836  44.070   7.364
 5472POPC   NC369383  37.691  17.550   5.564
 5472POPC   PO469384  37.674  17.541   5.864
 5472POPC   GL169385  37.656  17.474   6.164
 5472POPC   GL269386  37.659  17.669   6.164
 5472POPC   C1A69387  37.711  17.515   6.464
 5472POPC   D2A69388  37.630  17.536   6.764
 5472POPC   C3A69389  37.644  17.517   7.064
 5472POPC   C4A69390  37.686  17.536   7.364
 5472POPC   C1B69391  37.620  17.775   6.464
 5472POPC   C2B69392  37.636  17.735   6.764
 5472POPC   C3B69393  37.664  17.788   7.064
 5472POPC   C4B69394  37.710  17.727   7.364
 5473POPC   NC369395  33.026  40.014   5.564
 5473POPC   PO469396  33.069  40.039   5.864
 5473POPC   GL169397  33.018  39.986   6.164
 5473POPC   GL269398  33.093  40.168   6.164
 5473POPC   C1A69399  33.012  40.031   6.464
 5473POPC   D2A69400  33.031  39.986   6.764
 5473POPC   C3A69401  32.975  39.975   7.064
 5473POPC   C4A69402  33.038  40.007   7.364
 5473POPC   C1B69403  33.026  40.207   6.464
 5473POPC   C2B69404  33.034  40.256   6.764
 5473POPC   C3B69405  33.079  40.284   7.064
 5473POPC   C4B69406  33.035  40.249   7.364
 5474POPC   NC369407   9.714  29.110   5.564
 5474POPC   PO469408   9.756  29.176   5.864
 5474POPC   GL169409   9.747  29.129   6.164
 5474POPC   GL269410   9.809  29.048   6.164
 5474POPC   C1A69411   9.719  29.176   6.464
 5474POPC   D2A69412   9.782  29.144   6.764
 5474POPC   C3A69413   9.751  29.187   7.064
 5474POPC   C4A69414   9.771  29.152   7.364
 5474POPC   C1B69415   9.864  28.927   6.464
 5474POPC   C2B69416   9.825  28.895   6.764
 5474POPC   C3B69417   9.883  28.962   7.064
 5474POPC   C4B69418   9.848  28.959   7.364
 5475POPC   NC369419  42.324  10.479   5.564
 5475POPC   PO469420  42.294  10.526   5.864
 5475POPC   GL169421  42.322  10.537   6.164
 5475POPC   GL269422  42.411  10.654   6.164
 5475POPC   C1A69423  42.299  10.551   6.464
 5475POPC   D2A69424  42.371  10.560   6.764
 5475POPC   C3A69425  42.304  10.476   7.064
 5475POPC   C4A69426  42.314  10.548   7.364
 5475POPC   C1B69427  42.370  10.722   6.464
 5475POPC   C2B69428  42.414  10.776   6.764
 5475POPC   C3B69429  42.382  10.749   7.064
 5475POPC   C4B69430  42.379  10.787   7.364
 5476POPC   NC369431  16.723  19.794   5.564
 5476POPC   PO469432  16.722  19.817   5.864
 5476POPC   GL169433  16.778  19.831   6.164
 5476POPC   GL269434  16.639  19.824   6.164
 5476POPC   C1A69435  16.688  19.790   6.464
 5476POPC   D2A69436  16.687  19.862   6.764
 5476POPC   C3A69437  16.722  19.801   7.064
 5476POPC   C4A69438  16.733  19.865   7.364
 5476POPC   C1B69439  16.520  19.752   6.464
 5476POPC   C2B69440  16.473  19.812   6.764
 5476POPC   C3B69441  16.504  19.771   7.064
 5476POPC   C4B69442  16.459  19.824   7.364
 5477POPC   NC369443  37.650  12.885   5.564
 5477POPC   PO469444  37.720  12.847   5.864
 5477POPC   GL169445  37.729  12.851   6.164
 5477POPC   GL269446  37.613  12.987   6.164
 5477POPC   C1A69447  37.636  12.895   6.464
 5477POPC   D2A69448  37.689  12.901   6.764
 5477POPC   C3A69449  37.702  12.828   7.064
 5477POPC   C4A69450  37.682  12.888   7.364
 5477POPC   C1B69451  37.481  13.012   6.464
 5477POPC   C2B69452  37.514  13.008   6.764
 5477POPC   C3B69453  37.496  13.031   7.064
 5477POPC   C4B69454  37.474  13.063   7.364
 5478POPC   NC369455  38.495  43.070   5.564
 5478POPC   PO469456  38.462  43.097   5.864
 5478POPC   GL169457  38.432  43.065   6.164
 5478POPC   GL269458  38.401  43.191   6.164
 5478POPC   C1A69459  38.448  43.061   6.464
 5478POPC   D2A69460  38.460  43.157   6.764
 5478POPC   C3A69461  38.441  43.062   7.064
 5478POPC   C4A69462  38.455  43.073   7.364
 5478POPC   C1B69463  38.402  43.336   6.464
 5478POPC   C2B69464  38.351  43.346   6.764
 5478POPC   C3B69465  38.433  43.317   7.064
 5478POPC   C4B69466  38.432  43.352   7.364
 5479POPC   NC369467  15.203  15.986   5.564
 5479POPC   PO469468  15.170  15.921   5.864
 5479POPC   GL169469  15.221  15.947   6.164
 5479POPC   GL269470  15.205  16.118   6.164
 5479POPC   C1A69471  15.216  15.909   6.464
 5479POPC   D2A69472  15.133  15.978   6.764
 5479POPC   C3A69473  15.205  15.937   7.064
 5479POPC   C4A69474  15.184  15.980   7.364
 5479POPC   C1B69475  15.184  16.184   6.464
 5479POPC   C2B69476  15.224  16.188   6.764
 5479POPC   C3B69477  15.226  16.177   7.064
 5479POPC   C4B69478  15.257  16.164   7.364
 5480POPC   NC369479   5.048  16.727   5.564
 5480POPC   PO469480   5.055  16.710   5.864
 5480POPC   GL169481   5.124  16.682   6.164
 5480POPC   GL269482   5.048  16.836   6.164
 5480POPC   C1A69483   5.067  16.723   6.464
 5480POPC   D2A69484   5.141  16.755   6.764
 5480POPC   C3A69485   5.082  16.714   7.064
 5480POPC   C4A69486   5.053  16.737   7.364
 5480POPC   C1B69487   5.009  16.916   6.464
 5480POPC   C2B69488   4.911  16.910   6.764
 5480POPC   C3B69489   4.934  16.925   7.064
 5480POPC   C4B69490   4.912  16.981   7.364
 5481POPC   NC369491  38.407  14.411   5.564
 5481POPC   PO469492  38.479  14.396   5.864
 5481POPC   GL169493  38.477  14.409   6.164
 5481POPC   GL269494  38.503  14.512   6.164
 5481POPC   C1A69495  38.406  14.441   6.464
 5481POPC   D2A69496  38.482  14.383   6.764
 5481POPC   C3A69497  38.493  14.451   7.064
 5481POPC   C4A69498  38.494  14.370   7.364
 5481POPC   C1B69499  38.541  14.654   6.464
 5481POPC   C2B69500  38.543  14.675   6.764
 5481POPC   C3B69501  38.492  14.644   7.064
 5481POPC   C4B69502  38.453  14.667   7.364
 5482POPC   NC369503  26.857  19.802   5.564
 5482POPC   PO469504  26.774  19.860   5.864
 5482POPC   GL169505  26.823  19.841   6.164
 5482POPC   GL269506  26.802  19.951   6.164
 5482POPC   C1A69507  26.777  19.821   6.464
 5482POPC   D2A69508  26.817  19.840   6.764
 5482POPC   C3A69509  26.849  19.824   7.064
 5482POPC   C4A69510  26.770  19.877   7.364
 5482POPC   C1B69511  26.878  20.058   6.464
 5482POPC   C2B69512  26.884  20.111   6.764
 5482POPC   C3B69513  26.851  20.086   7.064
 5482POPC   C4B69514  26.898  20.057   7.364
 5483POPC   NC369515  34.612  29.895   5.564
 5483POPC   PO469516  34.597  29.900   5.864
 5483POPC   GL169517  34.618  29.914   6.164
 5483POPC   GL269518  34.452  29.827   6.164
 5483POPC   C1A69519  34.611  29.906   6.464
 5483POPC   D2A69520  34.614  29.880   6.764
 5483POPC   C3A69521  34.564  29.929   7.064
 5483POPC   C4A69522  34.585  29.890   7.364
 5483POPC   C1B69523  34.399  29.798   6.464
 5483POPC   C2B69524  34.335  29.781   6.764
 5483POPC   C3B69525  34.419  29.784   7.064
 5483POPC   C4B69526  34.379  29.787   7.364
 5484POPC   NC369527  11.266  30.724   5.564
 5484POPC   PO469528  11.335  30.671   5.864
 5484POPC   GL169529  11.289  30.709   6.164
 5484POPC   GL269530  11.398  30.642   6.164
 5484POPC   C1A69531  11.337  30.690   6.464
 5484POPC   D2A69532  11.348  30.675   6.764
 5484POPC   C3A69533  11.300  30.713   7.064
 5484POPC   C4A69534  11.258  30.685   7.364
 5484POPC   C1B69535  11.550  30.648   6.464
 5484POPC   C2B69536  11.581  30.580   6.764
 5484POPC   C3B69537  11.503  30.621   7.064
 5484POPC   C4B69538  11.526  30.670   7.364
 5485POPC   NC369539  21.344  19.070   5.564
 5485POPC   PO469540  21.349  19.067   5.864
 5485POPC   GL169541  21.418  19.012   6.164
 5485POPC   GL269542  21.320  18.920   6.164
 5485POPC   C1A69543  21.391  19.060   6.464
 5485POPC   D2A69544  21.392  19.046   6.764
 5485POPC   C3A69545  21.345  19.106   7.064
 5485POPC   C4A69546  21.344  19.044   7.364
 5485POPC   C1B69547  21.322  18.811   6.464
 5485POPC   C2B69548  21.315  18.803   6.764
 5485POPC   C3B69549  21.342  18.831   7.064
 5485POPC   C4B69550  21.256  18.829   7.364
 5486POPC   NC369551  20.623  31.450   5.564
 5486POPC   PO469552  20.651  31.509   5.864
 5486POPC   GL169553  20.640  31.482   6.164
 5486POPC   GL269554  20.596  31.313   6.164
 5486POPC   C1A69555  20.652  31.425   6.464
 5486POPC   D2A69556  20.600  31.472   6.764
 5486POPC   C3A69557  20.564  31.472   7.064
 5486POPC   C4A69558  20.602  31.497   7.364
 5486POPC   C1B69559  20.498  31.214   6.464
 5486POPC   C2B69560  20.464  31.236   6.764
 5486POPC   C3B69561  20.509  31.282   7.064
 5486POPC   C4B69562  20.449  31.224   7.364
 5487POPC   NC369563  12.877  32.296   5.564
 5487POPC   PO469564  12.861  32.275   5.864
 5487POPC   GL169565  12.805  32.203   6.164
 5487POPC   GL269566  12.848  32.345   6.164
 5487POPC   C1A69567  12.869  32.271   6.464
 5487POPC   D2A69568  12.879  32.209   6.764
 5487POPC   C3A69569  12.830  32.295   7.064
 5487POPC   C4A69570  12.861  32.222   7.364
 5487POPC   C1B69571  12.856  32.528   6.464
 5487POPC   C2B69572  12.871  32.490   6.764
 5487POPC   C3B69573  12.945  32.468   7.064
 5487POPC   C4B69574  12.896  32.532   7.364
 5488POPC   NC369575  16.738  25.249   5.564
 5488POPC   PO469576  16.756  25.271   5.864
 5488POPC   GL169577  16.762  25.257   6.164
 5488POPC   GL269578  16.718  25.158   6.164
 5488POPC   C1A69579  16.777  25.229   6.464
 5488POPC   D2A69580  16.693  25.241   6.764
 5488POPC   C3A69581  16.701  25.302   7.064
 5488POPC   C4A69582  16.741  25.262   7.364
 5488POPC   C1B69583  16.723  25.063   6.464
 5488POPC   C2B69584  16.665  25.052   6.764
 5488POPC   C3B69585  16.659  25.045   7.064
 5488POPC   C4B69586  16.744  25.044   7.364
 5489POPC   NC369587  43.884  26.013   5.564
 5489POPC   PO469588  43.932  26.025   5.864
 5489POPC   GL169589  43.898  26.007   6.164
 5489POPC   GL269590  43.984  26.028   6.164
 5489POPC   C1A69591  43.884  26.072   6.464
 5489POPC   D2A69592  43.852  26.088   6.764
 5489POPC   C3A69593  43.931  26.016   7.064
 5489POPC   C4A69594  43.840  26.079   7.364
 5489POPC   C1B69595  44.133  26.104   6.464
 5489POPC   C2B69596  44.172  26.108   6.764
 5489POPC   C3B69597  44.173  26.096   7.064
 5489POPC   C4B69598  44.144  26.029   7.364
 5490POPC   NC369599  22.201   7.383   5.564
 5490POPC   PO469600  22.145   7.378   5.864
 5490POPC   GL169601  22.131   7.420   6.164
 5490POPC   GL269602  22.221   7.339   6.164
 5490POPC   C1A69603  22.196   7.457   6.464
 5490POPC   D2A69604  22.179   7.376   6.764
 5490POPC   C3A69605  22.154   7.470   7.064
 5490POPC   C4A69606  22.158   7.461   7.364
 5490POPC   C1B69607  22.278   7.195   6.464
 5490POPC   C2B69608  22.334   7.196   6.764
 5490POPC   C3B69609  22.287   7.246   7.064
 5490POPC   C4B69610  22.338   7.221   7.364
 5491POPC   NC369611  26.018   6.604   5.564
 5491POPC   PO469612  26.054   6.668   5.864
 5491POPC   GL169613  25.995   6.665   6.164
 5491POPC   GL269614  26.089   6.507   6.164
 5491POPC   C1A69615  26.041   6.599   6.464
 5491POPC   D2A69616  26.016   6.685   6.764
 5491POPC   C3A69617  26.017   6.680   7.064
 5491POPC   C4A69618  26.012   6.645   7.364
 5491POPC   C1B69619  26.148   6.437   6.464
 5491POPC   C2B69620  26.224   6.430   6.764
 5491POPC   C3B69621  26.220   6.489   7.064
 5491POPC   C4B69622  26.144   6.396   7.364
 5492POPC   NC369623  17.500   8.946   5.564
 5492POPC   PO469624  17.525   8.944   5.864
 5492POPC   GL169625  17.494   8.972   6.164
 5492POPC   GL269626  17.362   8.874   6.164
 5492POPC   C1A69627  17.503   9.003   6.464
 5492POPC   D2A69628  17.504   8.933   6.764
 5492POPC   C3A69629  17.504   8.963   7.064
 5492POPC   C4A69630  17.515   8.926   7.364
 5492POPC   C1B69631  17.314   8.889   6.464
 5492POPC   C2B69632  17.321   8.874   6.764
 5492POPC   C3B69633  17.260   8.901   7.064
 5492POPC   C4B69634  17.336   8.866   7.364
 5493POPC   NC369635   6.647  42.321   5.564
 5493POPC   PO469636   6.678  42.348   5.864
 5493POPC   GL169637   6.690  42.357   6.164
 5493POPC   GL269638   6.623  42.399   6.164
 5493POPC   C1A69639   6.629  42.368   6.464
 5493POPC   D2A69640   6.639  42.341   6.764
 5493POPC   C3A69641   6.643  42.312   7.064
 5493POPC   C4A69642   6.655  42.339   7.364
 5493POPC   C1B69643   6.502  42.536   6.464
 5493POPC   C2B69644   6.565  42.549   6.764
 5493POPC   C3B69645   6.552  42.580   7.064
 5493POPC   C4B69646   6.554  42.524   7.364
 5494POPC   NC369647  15.194  30.655   5.564
 5494POPC   PO469648  15.138  30.698   5.864
 5494POPC   GL169649  15.133  30.671   6.164
 5494POPC   GL269650  15.214  30.562   6.164
 5494POPC   C1A69651  15.213  30.745   6.464
 5494POPC   D2A69652  15.214  30.647   6.764
 5494POPC   C3A69653  15.130  30.733   7.064
 5494POPC   C4A69654  15.166  30.744   7.364
 5494POPC   C1B69655  15.280  30.517   6.464
 5494POPC   C2B69656  15.302  30.433   6.764
 5494POPC   C3B69657  15.354  30.469   7.064
 5494POPC   C4B69658  15.277  30.479   7.364
 5495POPC   NC369659   1.199  40.036   5.564
 5495POPC   PO469660   1.238  39.961   5.864
 5495POPC   GL169661   1.252  39.974   6.164
 5495POPC   GL269662   1.231  40.128   6.164
 5495POPC   C1A69663   1.180  39.961   6.464
 5495POPC   D2A69664   1.245  39.991   6.764
 5495POPC   C3A69665   1.251  40.037   7.064
 5495POPC   C4A69666   1.229  39.980   7.364
 5495POPC   C1B69667   1.296  40.248   6.464
 5495POPC   C2B69668   1.336  40.230   6.764
 5495POPC   C3B69669   1.283  40.272   7.064
 5495POPC   C4B69670   1.296  40.209   7.364
 5496POPC   NC369671  29.147  15.195   5.564
 5496POPC   PO469672  29.099  15.212   5.864
 5496POPC   GL169673  29.156  15.199   6.164
 5496POPC   GL269674  29.252  15.312   6.164
 5496POPC   C1A69675  29.098  15.131   6.464
 5496POPC   D2A69676  29.194  15.203   6.764
 5496POPC   C3A69677  29.160  15.192   7.064
 5496POPC   C4A69678  29.172  15.193   7.364
 5496POPC   C1B69679  29.240  15.433   6.464
 5496POPC   C2B69680  29.232  15.351   6.764
 5496POPC   C3B69681  29.315  15.425   7.064
 5496POPC   C4B69682  29.312  15.431   7.364
 5497POPC   NC369683  44.662  20.618   5.564
 5497POPC   PO469684  44.675  20.569   5.864
 5497POPC   GL169685  44.690  20.603   6.164
 5497POPC   GL269686  44.633  20.704   6.164
 5497POPC   C1A69687  44.707  20.589   6.464
 5497POPC   D2A69688  44.660  20.615   6.764
 5497POPC   C3A69689  44.712  20.588   7.064
 5497POPC   C4A69690  44.650  20.581   7.364
 5497POPC   C1B69691  44.624  20.881   6.464
 5497POPC   C2B69692  44.714  20.860   6.764
 5497POPC   C3B69693  44.691  20.852   7.064
 5497POPC   C4B69694  44.694  20.888   7.364
 5498POPC   NC369695  15.938  31.513   5.564
 5498POPC   PO469696  15.962  31.454   5.864
 5498POPC   GL169697  15.934  31.463   6.164
 5498POPC   GL269698  15.842  31.482   6.164
 5498POPC   C1A69699  15.923  31.521   6.464
 5498POPC   D2A69700  15.994  31.433   6.764
 5498POPC   C3A69701  15.947  31.429   7.064
 5498POPC   C4A69702  15.975  31.519   7.364
 5498POPC   C1B69703  15.685  31.411   6.464
 5498POPC   C2B69704  15.688  31.402   6.764
 5498POPC   C3B69705  15.685  31.449   7.064
 5498POPC   C4B69706  15.689  31.420   7.364
 5499POPC   NC369707  15.169  38.442   5.564
 5499POPC   PO469708  15.178  38.427   5.864
 5499POPC   GL169709  15.162  38.438   6.164
 5499POPC   GL269710  15.194  38.381   6.164
 5499POPC   C1A69711  15.171  38.462   6.464
 5499POPC   D2A69712  15.181  38.486   6.764
 5499POPC   C3A69713  15.203  38.456   7.064
 5499POPC   C4A69714  15.192  38.437   7.364
 5499POPC   C1B69715  15.229  38.245   6.464
 5499POPC   C2B69716  15.192  38.205   6.764
 5499POPC   C3B69717  15.248  38.180   7.064
 5499POPC   C4B69718  15.243  38.207   7.364
 5500POPC   NC369719   2.734  21.378   5.564
 5500POPC   PO469720   2.800  21.383   5.864
 5500POPC   GL169721   2.813  21.349   6.164
 5500POPC   GL269722   2.755  21.278   6.164
 5500POPC   C1A69723   2.765  21.399   6.464
 5500POPC   D2A69724   2.718  21.360   6.764
 5500POPC   C3A69725   2.749  21.336   7.064
 5500POPC   C4A69726   2.757  21.372   7.364
 5500POPC   C1B69727   2.686  21.094   6.464
 5500POPC   C2B69728   2.744  21.160   6.764
 5500POPC   C3B69729   2.720  21.159   7.064
 5500POPC   C4B69730   2.762  21.133   7.364
 5501POPC   NC369731  29.180  19.875   5.564
 5501POPC   PO469732  29.114  19.809   5.864
 5501POPC   GL169733  29.151  19.795   6.164
 5501POPC   GL269734  29.247  19.812   6.164
 5501POPC   C1A69735  29.166  19.797   6.464
 5501POPC   D2A69736  29.191  19.821   6.764
 5501POPC   C3A69737  29.144  19.813   7.064
 5501POPC   C4A69738  29.102  19.882   7.364
 5501POPC   C1B69739  29.328  19.744   6.464
 5501POPC   C2B69740  29.393  19.669   6.764
 5501POPC   C3B69741  29.350  19.715   7.064
 5501POPC   C4B69742  29.382  19.693   7.364
 5502POPC   NC369743   0.412  29.950   5.564
 5502POPC   PO469744   0.456  29.891   5.864
 5502POPC   GL169745   0.464  29.954   6.164
 5502POPC   GL269746   0.295  29.873   6.164
 5502POPC   C1A69747   0.425  29.911   6.464
 5502POPC   D2A69748   0.472  29.908   6.764
 5502POPC   C3A69749   0.483  29.958   7.064
 5502POPC   C4A69750   0.408  29.935   7.364
 5502POPC   C1B69751   0.170  29.906   6.464
 5502POPC   C2B69752   0.165  29.882   6.764
 5502POPC   C3B69753   0.232  29.886   7.064
 5502POPC   C4B69754   0.239  29.886   7.364
 5503POPC   NC369755  25.267  34.527   5.564
 5503POPC   PO469756  25.217  34.609   5.864
 5503POPC   GL169757  25.277  34.612   6.164
 5503POPC   GL269758  25.163  34.583   6.164
 5503POPC   C1A69759  25.240  34.533   6.464
 5503POPC   D2A69760  25.267  34.601   6.764
 5503POPC   C3A69761  25.293  34.614   7.064
 5503POPC   C4A69762  25.273  34.622   7.364
 5503POPC   C1B69763  25.059  34.605   6.464
 5503POPC   C2B69764  24.997  34.616   6.764
 5503POPC   C3B69765  24.967  34.575   7.064
 5503POPC   C4B69766  25.051  34.623   7.364
 5504POPC   NC369767  39.211  28.378   5.564
 5504POPC   PO469768  39.193  28.339   5.864
 5504POPC   GL169769  39.198  28.347   6.164
 5504POPC   GL269770  39.228  28.522   6.164
 5504POPC   C1A69771  39.209  28.398   6.464
 5504POPC   D2A69772  39.234  28.327   6.764
 5504POPC   C3A69773  39.244  28.346   7.064
 5504POPC   C4A69774  39.201  28.369   7.364
 5504POPC   C1B69775  39.281  28.626   6.464
 5504POPC   C2B69776  39.338  28.600   6.764
 5504POPC   C3B69777  39.308  28.655   7.064
 5504POPC   C4B69778  39.293  28.594   7.364
 5505POPC   NC369779   8.229  29.155   5.564
 5505POPC   PO469780   8.196  29.107   5.864
 5505POPC   GL169781   8.225  29.135   6.164
 5505POPC   GL269782   8.105  29.118   6.164
 5505POPC   C1A69783   8.147  29.106   6.464
 5505POPC   D2A69784   8.213  29.105   6.764
 5505POPC   C3A69785   8.246  29.107   7.064
 5505POPC   C4A69786   8.224  29.182   7.364
 5505POPC   C1B69787   7.972  29.107   6.464
 5505POPC   C2B69788   7.912  29.158   6.764
 5505POPC   C3B69789   7.962  29.118   7.064
 5505POPC   C4B69790   7.944  29.077   7.364
 5506POPC   NC369791   5.866  29.912   5.564
 5506POPC   PO469792   5.906  29.966   5.864
 5506POPC   GL169793   5.850  29.888   6.164
 5506POPC   GL269794   6.003  29.991   6.164
 5506POPC   C1A69795   5.834  29.907   6.464
 5506POPC   D2A69796   5.843  29.932   6.764
 5506POPC   C3A69797   5.896  29.914   7.064
 5506POPC   C4A69798   5.905  29.932   7.364
 5506POPC   C1B69799   6.054  30.082   6.464
 5506POPC   C2B69800   6.080  30.064   6.764
 5506POPC   C3B69801   6.104  30.041   7.064
 5506POPC   C4B69802   6.089  30.067   7.364
 5507POPC   NC369803  21.400  12.118   5.564
 5507POPC   PO469804  21.394  12.041   5.864
 5507POPC   GL169805  21.423  12.089   6.164
 5507POPC   GL269806  21.356  11.929   6.164
 5507POPC   C1A69807  21.393  12.108   6.464
 5507POPC   D2A69808  21.432  12.040   6.764
 5507POPC   C3A69809  21.425  12.110   7.064
 5507POPC   C4A69810  21.405  12.029   7.364
 5507POPC   C1B69811  21.225  11.869   6.464
 5507POPC   C2B69812  21.275  11.870   6.764
 5507POPC   C3B69813  21.242  11.818   7.064
 5507POPC   C4B69814  21.234  11.817   7.364
 5508POPC   NC369815  32.291   3.564   5.564
 5508POPC   PO469816  32.290   3.498   5.864
 5508POPC   GL169817  32.285   3.512   6.164
 5508POPC   GL269818  32.126   3.459   6.164
 5508POPC   C1A69819  32.228   3.531   6.464
 5508POPC   D2A69820  32.233   3.580   6.764
 5508POPC   C3A69821  32.251   3.535   7.064
 5508POPC   C4A69822  32.274   3.492   7.364
 5508POPC   C1B69823  32.081   3.357   6.464
 5508POPC   C2B69824  32.091   3.347   6.764
 5508POPC   C3B69825  32.079   3.365   7.064
 5508POPC   C4B69826  32.075   3.344   7.364
 5509POPC   NC369827  18.328  22.120   5.564
 5509POPC   PO469828  18.281  22.173   5.864
 5509POPC   GL169829  18.306  22.114   6.164
 5509POPC   GL269830  18.336  22.276   6.164
 5509POPC   C1A69831  18.257  22.192   6.464
 5509POPC   D2A69832  18.282  22.178   6.764
 5509POPC   C3A69833  18.261  22.181   7.064
 5509POPC   C4A69834  18.242  22.202   7.364
 5509POPC   C1B69835  18.500  22.316   6.464
 5509POPC   C2B69836  18.492  22.338   6.764
 5509POPC   C3B69837  18.478  22.366   7.064
 5509POPC   C4B69838  18.465  22.314   7.364
 5510POPC   NC369839  34.560  37.668   5.564
 5510POPC   PO469840  34.552  37.729   5.864
 5510POPC   GL169841  34.539  37.683   6.164
 5510POPC   GL269842  34.670  37.700   6.164
 5510POPC   C1A69843  34.608  37.714   6.464
 5510POPC   D2A69844  34.543  37.652   6.764
 5510POPC   C3A69845  34.534  37.728   7.064
 5510POPC   C4A69846  34.546  37.669   7.364
 5510POPC   C1B69847  34.783  37.777   6.464
 5510POPC   C2B69848  34.749  37.811   6.764
 5510POPC   C3B69849  34.774  37.820   7.064
 5510POPC   C4B69850  34.775  37.777   7.364
 5511POPC   NC369851  17.486  35.353   5.564
 5511POPC   PO469852  17.524  35.363   5.864
 5511POPC   GL169853  17.521  35.330   6.164
 5511POPC   GL269854  17.431  35.270   6.164
 5511POPC   C1A69855  17.555  35.305   6.464
 5511POPC   D2A69856  17.491  35.387   6.764
 5511POPC   C3A69857  17.497  35.337   7.064
 5511POPC   C4A69858  17.467  35.369   7.364
 5511POPC   C1B69859  17.385  35.197   6.464
 5511POPC   C2B69860  17.342  35.175   6.764
 5511POPC   C3B69861  17.324  35.168   7.064
 5511POPC   C4B69862  17.306  35.173   7.364
 5512POPC   NC369863   7.394  12.813   5.564
 5512POPC   PO469864   7.460  12.895   5.864
 5512POPC   GL169865   7.376  12.863   6.164
 5512POPC   GL269866   7.306  12.789   6.164
 5512POPC   C1A69867   7.378  12.857   6.464
 5512POPC   D2A69868   7.416  12.900   6.764
 5512POPC   C3A69869   7.422  12.853   7.064
 5512POPC   C4A69870   7.443  12.820   7.364
 5512POPC   C1B69871   7.174  12.781   6.464
 5512POPC   C2B69872   7.186  12.822   6.764
 5512POPC   C3B69873   7.203  12.814   7.064
 5512POPC   C4B69874   7.152  12.841   7.364
 5513POPC   NC369875  14.404  39.197   5.564
 5513POPC   PO469876  14.369  39.210   5.864
 5513POPC   GL169877  14.449  39.212   6.164
 5513POPC   GL269878  14.567  39.298   6.164
 5513POPC   C1A69879  14.439  39.203   6.464
 5513POPC   D2A69880  14.418  39.214   6.764
 5513POPC   C3A69881  14.424  39.212   7.064
 5513POPC   C4A69882  14.422  39.216   7.364
 5513POPC   C1B69883  14.681  39.325   6.464
 5513POPC   C2B69884  14.665  39.331   6.764
 5513POPC   C3B69885  14.679  39.338   7.064
 5513POPC   C4B69886  14.628  39.281   7.364
 5514POPC   NC369887  21.417  26.013   5.564
 5514POPC   PO469888  21.401  26.075   5.864
 5514POPC   GL169889  21.364  26.027   6.164
 5514POPC   GL269890  21.293  26.112   6.164
 5514POPC   C1A69891  21.410  26.055   6.464
 5514POPC   D2A69892  21.412  26.046   6.764
 5514POPC   C3A69893  21.435  26.058   7.064
 5514POPC   C4A69894  21.426  26.088   7.364
 5514POPC   C1B69895  21.186  26.195   6.464
 5514POPC   C2B69896  21.172  26.198   6.764
 5514POPC   C3B69897  21.134  26.174   7.064
 5514POPC   C4B69898  21.190  26.209   7.364
 5515POPC   NC369899  18.321  19.795   5.564
 5515POPC   PO469900  18.329  19.849   5.864
 5515POPC   GL169901  18.245  19.836   6.164
 5515POPC   GL269902  18.265  19.728   6.164
 5515POPC   C1A69903  18.305  19.865   6.464
 5515POPC   D2A69904  18.311  19.842   6.764
 5515POPC   C3A69905  18.259  19.884   7.064
 5515POPC   C4A69906  18.243  19.816   7.364
 5515POPC   C1B69907  18.332  19.581   6.464
 5515POPC   C2B69908  18.368  19.603   6.764
 5515POPC   C3B69909  18.315  19.637   7.064
 5515POPC   C4B69910  18.328  19.567   7.364
 5516POPC   NC369911   1.951  15.930   5.564
 5516POPC   PO469912   2.027  16.002   5.864
 5516POPC   GL169913   1.990  15.997   6.164
 5516POPC   GL269914   1.903  15.898   6.164
 5516POPC   C1A69915   1.996  15.962   6.464
 5516POPC   D2A69916   2.030  15.931   6.764
 5516POPC   C3A69917   1.961  15.967   7.064
 5516POPC   C4A69918   1.985  15.929   7.364
 5516POPC   C1B69919   1.750  15.842   6.464
 5516POPC   C2B69920   1.744  15.799   6.764
 5516POPC   C3B69921   1.730  15.876   7.064
 5516POPC   C4B69922   1.763  15.884   7.364
 5517POPC   NC369923  34.545  27.633   5.564
 5517POPC   PO469924  34.533  27.635   5.864
 5517POPC   GL169925  34.603  27.573   6.164
 5517POPC   GL269926  34.484  27.539   6.164
 5517POPC   C1A69927  34.578  27.548   6.464
 5517POPC   D2A69928  34.531  27.565   6.764
 5517POPC   C3A69929  34.603  27.573   7.064
 5517POPC   C4A69930  34.569  27.627   7.364
 5517POPC   C1B69931  34.390  27.486   6.464
 5517POPC   C2B69932  34.311  27.535   6.764
 5517POPC   C3B69933  34.320  27.508   7.064
 5517POPC   C4B69934  34.326  27.518   7.364
 5518POPC   NC369935  27.587  17.489   5.564
 5518POPC   PO469936  27.598  17.543   5.864
 5518POPC   GL169937  27.619  17.494   6.164
 5518POPC   GL269938  27.535  17.564   6.164
 5518POPC   C1A69939  27.596  17.494   6.464
 5518POPC   D2A69940  27.578  17.515   6.764
 5518POPC   C3A69941  27.642  17.502   7.064
 5518POPC   C4A69942  27.552  17.528   7.364
 5518POPC   C1B69943  27.447  17.681   6.464
 5518POPC   C2B69944  27.416  17.691   6.764
 5518POPC   C3B69945  27.445  17.688   7.064
 5518POPC   C4B69946  27.479  17.719   7.364
 5519POPC   NC369947  43.077   5.896   5.564
 5519POPC   PO469948  43.148   5.843   5.864
 5519POPC   GL169949  43.129   5.881   6.164
 5519POPC   GL269950  43.077   5.744   6.164
 5519POPC   C1A69951  43.115   5.846   6.464
 5519POPC   D2A69952  43.065   5.834   6.764
 5519POPC   C3A69953  43.141   5.911   7.064
 5519POPC   C4A69954  43.110   5.877   7.364
 5519POPC   C1B69955  42.980   5.612   6.464
 5519POPC   C2B69956  43.014   5.648   6.764
 5519POPC   C3B69957  43.027   5.637   7.064
 5519POPC   C4B69958  43.002   5.687   7.364
 5520POPC   NC369959   3.519   7.417   5.564
 5520POPC   PO469960   3.560   7.457   5.864
 5520POPC   GL169961   3.556   7.379   6.164
 5520POPC   GL269962   3.448   7.425   6.164
 5520POPC   C1A69963   3.503   7.459   6.464
 5520POPC   D2A69964   3.586   7.426   6.764
 5520POPC   C3A69965   3.553   7.461   7.064
 5520POPC   C4A69966   3.584   7.379   7.364
 5520POPC   C1B69967   3.342   7.499   6.464
 5520POPC   C2B69968   3.339   7.540   6.764
 5520POPC   C3B69969   3.274   7.507   7.064
 5520POPC   C4B69970   3.277   7.506   7.364
 5521POPC   NC369971   1.206  42.339   5.564
 5521POPC   PO469972   1.229  42.379   5.864
 5521POPC   GL169973   1.198  42.307   6.164
 5521POPC   GL269974   1.276  42.188   6.164
 5521POPC   C1A69975   1.176  42.347   6.464
 5521POPC   D2A69976   1.216  42.346   6.764
 5521POPC   C3A69977   1.241  42.287   7.064
 5521POPC   C4A69978   1.207  42.370   7.364
 5521POPC   C1B69979   1.252  42.079   6.464
 5521POPC   C2B69980   1.306  42.052   6.764
 5521POPC   C3B69981   1.300  42.067   7.064
 5521POPC   C4B69982   1.287  42.073   7.364
 5522POPC   NC369983  31.509  26.860   5.564
 5522POPC   PO469984  31.478  26.798   5.864
 5522POPC   GL169985  31.428  26.823   6.164
 5522POPC   GL269986  31.427  26.730   6.164
 5522POPC   C1A69987  31.491  26.782   6.464
 5522POPC   D2A69988  31.508  26.803   6.764
 5522POPC   C3A69989  31.462  26.844   7.064
 5522POPC   C4A69990  31.475  26.779   7.364
 5522POPC   C1B69991  31.307  26.603   6.464
 5522POPC   C2B69992  31.339  26.635   6.764
 5522POPC   C3B69993  31.381  26.574   7.064
 5522POPC   C4B69994  31.382  26.652   7.364
 5523POPC   NC369995  15.927  15.949   5.564
 5523POPC   PO469996  15.980  15.948   5.864
 5523POPC   GL169997  15.915  15.942   6.164
 5523POPC   GL269998  15.827  16.024   6.164
 5523POPC   C1A69999  15.978  15.946   6.464
 5523POPC   D2A70000  15.988  15.979   6.764
 5523POPC   C3A70001  15.963  15.938   7.064
 5523POPC   C4A70002  15.934  15.937   7.364
 5523POPC   C1B70003  15.712  16.082   6.464
 5523POPC   C2B70004  15.728  16.027   6.764
 5523POPC   C3B70005  15.734  16.075   7.064
 5523POPC   C4B70006  15.750  16.070   7.364
 5524POPC   NC370007  32.206  13.622   5.564
 5524POPC   PO470008  32.279  13.606   5.864
 5524POPC   GL170009  32.259  13.594   6.164
 5524POPC   GL270010  32.097  13.589   6.164
 5524POPC   C1A70011  32.271  13.634   6.464
 5524POPC   D2A70012  32.298  13.614   6.764
 5524POPC   C3A70013  32.291  13.598   7.064
 5524POPC   C4A70014  32.271  13.600   7.364
 5524POPC   C1B70015  32.033  13.508   6.464
 5524POPC   C2B70016  32.023  13.510   6.764
 5524POPC   C3B70017  32.022  13.482   7.064
 5524POPC   C4B70018  31.984  13.535   7.364
 5525POPC   NC370019  28.334   4.333   5.564
 5525POPC   PO470020  28.378   4.282   5.864
 5525POPC   GL170021  28.363   4.268   6.164
 5525POPC   GL270022  28.288   4.436   6.164
 5525POPC   C1A70023  28.378   4.315   6.464
 5525POPC   D2A70024  28.371   4.314   6.764
 5525POPC   C3A70025  28.370   4.291   7.064
 5525POPC   C4A70026  28.335   4.275   7.364
 5525POPC   C1B70027  28.286   4.520   6.464
 5525POPC   C2B70028  28.253   4.560   6.764
 5525POPC   C3B70029  28.260   4.548   7.064
 5525POPC   C4B70030  28.219   4.562   7.364
 5526POPC   NC370031  36.155  20.595   5.564
 5526POPC   PO470032  36.086  20.605   5.864
 5526POPC   GL170033  36.090  20.588   6.164
 5526POPC   GL270034  36.200  20.522   6.164
 5526POPC   C1A70035  36.115  20.651   6.464
 5526POPC   D2A70036  36.136  20.639   6.764
 5526POPC   C3A70037  36.138  20.645   7.064
 5526POPC   C4A70038  36.084  20.568   7.364
 5526POPC   C1B70039  36.408  20.575   6.464
 5526POPC   C2B70040  36.406  20.543   6.764
 5526POPC   C3B70041  36.376  20.538   7.064
 5526POPC   C4B70042  36.384  20.576   7.364
 5527POPC   NC370043   7.446  31.437   5.564
 5527POPC   PO470044   7.428  31.444   5.864
 5527POPC   GL170045   7.441  31.521   6.164
 5527POPC   GL270046   7.453  31.603   6.164
 5527POPC   C1A70047   7.458  31.483   6.464
 5527POPC   D2A70048   7.452  31.514   6.764
 5527POPC   C3A70049   7.460  31.483   7.064
 5527POPC   C4A70050   7.375  31.500   7.364
 5527POPC   C1B70051   7.554  31.680   6.464
 5527POPC   C2B70052   7.523  31.704   6.764
 5527POPC   C3B70053   7.595  31.684   7.064
 5527POPC   C4B70054   7.549  31.661   7.364
 5528POPC   NC370055   2.767   8.244   5.564
 5528POPC   PO470056   2.728   8.190   5.864
 5528POPC   GL170057   2.781   8.160   6.164
 5528POPC   GL270058   2.807   8.069   6.164
 5528POPC   C1A70059   2.737   8.177   6.464
 5528POPC   D2A70060   2.745   8.199   6.764
 5528POPC   C3A70061   2.761   8.212   7.064
 5528POPC   C4A70062   2.809   8.160   7.364
 5528POPC   C1B70063   2.954   7.974   6.464
 5528POPC   C2B70064   2.957   8.028   6.764
 5528POPC   C3B70065   2.932   8.006   7.064
 5528POPC   C4B70066   2.933   7.985   7.364
 5529POPC   NC370067  29.936  43.867   5.564
 5529POPC   PO470068  29.889  43.882   5.864
 5529POPC   GL170069  29.940  43.887   6.164
 5529POPC   GL270070  29.778  43.916   6.164
 5529POPC   C1A70071  29.902  43.846   6.464
 5529POPC   D2A70072  29.910  43.881   6.764
 5529POPC   C3A70073  29.946  43.905   7.064
 5529POPC   C4A70074  29.922  43.921   7.364
 5529POPC   C1B70075  29.659  43.916   6.464
 5529POPC   C2B70076  29.676  43.902   6.764
 5529POPC   C3B70077  29.668  43.912   7.064
 5529POPC   C4B70078  29.628  43.916   7.364
 5530POPC   NC370079  33.061  33.048   5.564
 5530POPC   PO470080  33.033  33.040   5.864
 5530POPC   GL170081  33.019  33.004   6.164
 5530POPC   GL270082  33.171  32.942   6.164
 5530POPC   C1A70083  33.035  33.017   6.464
 5530POPC   D2A70084  33.057  33.029   6.764
 5530POPC   C3A70085  33.043  33.009   7.064
 5530POPC   C4A70086  33.017  33.007   7.364
 5530POPC   C1B70087  33.286  32.914   6.464
 5530POPC   C2B70088  33.259  32.928   6.764
 5530POPC   C3B70089  33.225  32.907   7.064
 5530POPC   C4B70090  33.278  32.930   7.364
 5531POPC   NC370091  41.591  29.872   5.564
 5531POPC   PO470092  41.608  29.966   5.864
 5531POPC   GL170093  41.571  29.896   6.164
 5531POPC   GL270094  41.535  30.046   6.164
 5531POPC   C1A70095  41.585  29.965   6.464
 5531POPC   D2A70096  41.542  29.915   6.764
 5531POPC   C3A70097  41.559  29.890   7.064
 5531POPC   C4A70098  41.577  29.953   7.364
 5531POPC   C1B70099  41.592  30.171   6.464
 5531POPC   C2B70100  41.583  30.202   6.764
 5531POPC   C3B70101  41.581  30.142   7.064
 5531POPC   C4B70102  41.596  30.156   7.364
 5532POPC   NC370103  39.184  33.777   5.564
 5532POPC   PO470104  39.205  33.787   5.864
 5532POPC   GL170105  39.280  33.765   6.164
 5532POPC   GL270106  39.117  33.747   6.164
 5532POPC   C1A70107  39.237  33.766   6.464
 5532POPC   D2A70108  39.265  33.801   6.764
 5532POPC   C3A70109  39.222  33.789   7.064
 5532POPC   C4A70110  39.259  33.791   7.364
 5532POPC   C1B70111  39.088  33.568   6.464
 5532POPC   C2B70112  39.078  33.602   6.764
 5532POPC   C3B70113  39.049  33.594   7.064
 5532POPC   C4B70114  39.040  33.622   7.364
 5533POPC   NC370115   8.926   4.293   5.564
 5533POPC   PO470116   8.924   4.301   5.864
 5533POPC   GL170117   9.015   4.340   6.164
 5533POPC   GL270118   8.835   4.267   6.164
 5533POPC   C1A70119   8.957   4.333   6.464
 5533POPC   D2A70120   8.944   4.309   6.764
 5533POPC   C3A70121   9.016   4.329   7.064
 5533POPC   C4A70122   9.022   4.269   7.364
 5533POPC   C1B70123   8.844   4.160   6.464
 5533POPC   C2B70124   8.813   4.163   6.764
 5533POPC   C3B70125   8.814   4.100   7.064
 5533POPC   C4B70126   8.821   4.105   7.364
 5534POPC   NC370127  33.834  24.444   5.564
 5534POPC   PO470128  33.765  24.475   5.864
 5534POPC   GL170129  33.768  24.490   6.164
 5534POPC   GL270130  33.914  24.523   6.164
 5534POPC   C1A70131  33.821  24.496   6.464
 5534POPC   D2A70132  33.789  24.497   6.764
 5534POPC   C3A70133  33.837  24.523   7.064
 5534POPC   C4A70134  33.832  24.452   7.364
 5534POPC   C1B70135  34.057  24.610   6.464
 5534POPC   C2B70136  33.984  24.602   6.764
 5534POPC   C3B70137  33.986  24.602   7.064
 5534POPC   C4B70138  34.009  24.638   7.364
 5535POPC   NC370139   1.953  29.873   5.564
 5535POPC   PO470140   1.971  29.883   5.864
 5535POPC   GL170141   2.020  29.924   6.164
 5535POPC   GL270142   2.018  30.073   6.164
 5535POPC   C1A70143   2.009  29.957   6.464
 5535POPC   D2A70144   1.982  29.911   6.764
 5535POPC   C3A70145   1.959  29.933   7.064
 5535POPC   C4A70146   1.943  29.907   7.364
 5535POPC   C1B70147   2.089  30.164   6.464
 5535POPC   C2B70148   2.067  30.137   6.764
 5535POPC   C3B70149   1.998  30.198   7.064
 5535POPC   C4B70150   2.004  30.123   7.364
 5536POPC   NC370151  10.530  40.817   5.564
 5536POPC   PO470152  10.524  40.824   5.864
 5536POPC   GL170153  10.481  40.780   6.164
 5536POPC   GL270154  10.468  40.682   6.164
 5536POPC   C1A70155  10.550  40.831   6.464
 5536POPC   D2A70156  10.482  40.814   6.764
 5536POPC   C3A70157  10.488  40.767   7.064
 5536POPC   C4A70158  10.566  40.791   7.364
 5536POPC   C1B70159  10.448  40.528   6.464
 5536POPC   C2B70160  10.515  40.551   6.764
 5536POPC   C3B70161  10.455  40.546   7.064
 5536POPC   C4B70162  10.500  40.530   7.364
 5537POPC   NC370163  10.487   2.747   5.564
 5537POPC   PO470164  10.543   2.733   5.864
 5537POPC   GL170165  10.489   2.747   6.164
 5537POPC   GL270166  10.496   2.640   6.164
 5537POPC   C1A70167  10.565   2.813   6.464
 5537POPC   D2A70168  10.568   2.777   6.764
 5537POPC   C3A70169  10.571   2.720   7.064
 5537POPC   C4A70170  10.574   2.737   7.364
 5537POPC   C1B70171  10.421   2.548   6.464
 5537POPC   C2B70172  10.418   2.564   6.764
 5537POPC   C3B70173  10.481   2.487   7.064
 5537POPC   C4B70174  10.498   2.528   7.364
 5538POPC   NC370175  15.957  38.501   5.564
 5538POPC   PO470176  15.983  38.458   5.864
 5538POPC   GL170177  15.945  38.460   6.164
 5538POPC   GL270178  16.093  38.440   6.164
 5538POPC   C1A70179  15.931  38.496   6.464
 5538POPC   D2A70180  15.932  38.457   6.764
 5538POPC   C3A70181  15.991  38.504   7.064
 5538POPC   C4A70182  15.918  38.451   7.364
 5538POPC   C1B70183  16.145  38.335   6.464
 5538POPC   C2B70184  16.209  38.370   6.764
 5538POPC   C3B70185  16.214  38.380   7.064
 5538POPC   C4B70186  16.232  38.320   7.364
 5539POPC   NC370187  12.846   1.981   5.564
 5539POPC   PO470188  12.895   1.996   5.864
 5539POPC   GL170189  12.870   2.027   6.164
 5539POPC   GL270190  12.812   1.879   6.164
 5539POPC   C1A70191  12.857   2.024   6.464
 5539POPC   D2A70192  12.875   2.007   6.764
 5539POPC   C3A70193  12.895   2.031   7.064
 5539POPC   C4A70194  12.902   2.037   7.364
 5539POPC   C1B70195  12.716   1.754   6.464
 5539POPC   C2B70196  12.797   1.709   6.764
 5539POPC   C3B70197  12.731   1.727   7.064
 5539POPC   C4B70198  12.801   1.748   7.364
 5540POPC   NC370199  28.326  41.604   5.564
 5540POPC   PO470200  28.377  41.594   5.864
 5540POPC   GL170201  28.332  41.549   6.164
 5540POPC   GL270202  28.424  41.616   6.164
 5540POPC   C1A70203  28.395  41.538   6.464
 5540POPC   D2A70204  28.336  41.568   6.764
 5540POPC   C3A70205  28.358  41.545   7.064
 5540POPC   C4A70206  28.400  41.596   7.364
 5540POPC   C1B70207  28.542  41.772   6.464
 5540POPC   C2B70208  28.498  41.753   6.764
 5540POPC   C3B70209  28.523  41.749   7.064
 5540POPC   C4B70210  28.541  41.750   7.364
 5541POPC   NC370211  33.803  43.148   5.564
 5541POPC   PO470212  33.806  43.127   5.864
 5541POPC   GL170213  33.777  43.135   6.164
 5541POPC   GL270214  33.768  43.234   6.164
 5541POPC   C1A70215  33.829  43.130   6.464
 5541POPC   D2A70216  33.832  43.084   6.764
 5541POPC   C3A70217  33.824  43.065   7.064
 5541POPC   C4A70218  33.768  43.116   7.364
 5541POPC   C1B70219  33.697  43.366   6.464
 5541POPC   C2B70220  33.776  43.344   6.764
 5541POPC   C3B70221  33.685  43.339   7.064
 5541POPC   C4B70222  33.747  43.355   7.364
 5542POPC   NC370223  31.476   5.064   5.564
 5542POPC   PO470224  31.432   5.080   5.864
 5542POPC   GL170225  31.477   5.049   6.164
 5542POPC   GL270226  31.620   5.117   6.164
 5542POPC   C1A70227  31.449   5.044   6.464
 5542POPC   D2A70228  31.433   5.065   6.764
 5542POPC   C3A70229  31.449   5.055   7.064
 5542POPC   C4A70230  31.451   5.114   7.364
 5542POPC   C1B70231  31.713   5.153   6.464
 5542POPC   C2B70232  31.748   5.162   6.764
 5542POPC   C3B70233  31.727   5.153   7.064
 5542POPC   C4B70234  31.683   5.188   7.364
 5543POPC   NC370235  27.634  11.307   5.564
 5543POPC   PO470236  27.588  11.274   5.864
 5543POPC   GL170237  27.572  11.284   6.164
 5543POPC   GL270238  27.435  11.329   6.164
 5543POPC   C1A70239  27.591  11.307   6.464
 5543POPC   D2A70240  27.642  11.254   6.764
 5543POPC   C3A70241  27.567  11.306   7.064
 5543POPC   C4A70242  27.628  11.295   7.364
 5543POPC   C1B70243  27.385  11.296   6.464
 5543POPC   C2B70244  27.374  11.292   6.764
 5543POPC   C3B70245  27.379  11.343   7.064
 5543POPC   C4B70246  27.334  11.301   7.364
 5544POPC   NC370247  15.907  13.593   5.564
 5544POPC   PO470248  15.951  13.649   5.864
 5544POPC   GL170249  15.934  13.621   6.164
 5544POPC   GL270250  16.042  13.540   6.164
 5544POPC   C1A70251  15.974  13.644   6.464
 5544POPC   D2A70252  16.000  13.636   6.764
 5544POPC   C3A70253  15.958  13.603   7.064
 5544POPC   C4A70254  15.977  13.677   7.364
 5544POPC   C1B70255  16.094  13.385   6.464
 5544POPC   C2B70256  16.122  13.398   6.764
 5544POPC   C3B70257  16.086  13.445   7.064
 5544POPC   C4B70258  16.146  13.418   7.364
 5545POPC   NC370259  26.863  22.150   5.564
 5545POPC   PO470260  26.860  22.189   5.864
 5545POPC   GL170261  26.819  22.169   6.164
 5545POPC   GL270262  26.836  22.292   6.164
 5545POPC   C1A70263  26.830  22.127   6.464
 5545POPC   D2A70264  26.787  22.122   6.764
 5545POPC   C3A70265  26.779  22.176   7.064
 5545POPC   C4A70266  26.769  22.136   7.364
 5545POPC   C1B70267  26.963  22.333   6.464
 5545POPC   C2B70268  26.904  22.378   6.764
 5545POPC   C3B70269  26.976  22.421   7.064
 5545POPC   C4B70270  26.919  22.353   7.364
 5546POPC   NC370271   6.617  22.940   5.564
 5546POPC   PO470272   6.623  22.967   5.864
 5546POPC   GL170273   6.600  22.931   6.164
 5546POPC   GL270274   6.731  22.787   6.164
 5546POPC   C1A70275   6.650  22.923   6.464
 5546POPC   D2A70276   6.679  22.903   6.764
 5546POPC   C3A70277   6.672  22.944   7.064
 5546POPC   C4A70278   6.693  22.916   7.364
 5546POPC   C1B70279   6.781  22.674   6.464
 5546POPC   C2B70280   6.778  22.713   6.764
 5546POPC   C3B70281   6.735  22.743   7.064
 5546POPC   C4B70282   6.792  22.715   7.364
 5547POPC   NC370283  12.119  27.574   5.564
 5547POPC   PO470284  12.053  27.557   5.864
 5547POPC   GL170285  12.056  27.608   6.164
 5547POPC   GL270286  12.200  27.641   6.164
 5547POPC   C1A70287  12.118  27.569   6.464
 5547POPC   D2A70288  12.126  27.618   6.764
 5547POPC   C3A70289  12.099  27.613   7.064
 5547POPC   C4A70290  12.075  27.565   7.364
 5547POPC   C1B70291  12.325  27.699   6.464
 5547POPC   C2B70292  12.249  27.731   6.764
 5547POPC   C3B70293  12.258  27.742   7.064
 5547POPC   C4B70294  12.294  27.720   7.364
 5548POPC   NC370295   0.462   3.569   5.564
 5548POPC   PO470296   0.433   3.553   5.864
 5548POPC   GL170297   0.431   3.503   6.164
 5548POPC   GL270298   0.279   3.573   6.164
 5548POPC   C1A70299   0.479   3.512   6.464
 5548POPC   D2A70300   0.435   3.515   6.764
 5548POPC   C3A70301   0.428   3.570   7.064
 5548POPC   C4A70302   0.430   3.543   7.364
 5548POPC   C1B70303   0.207   3.483   6.464
 5548POPC   C2B70304   0.196   3.478   6.764
 5548POPC   C3B70305   0.214   3.504   7.064
 5548POPC   C4B70306   0.225   3.524   7.364
 5549POPC   NC370307  22.934  12.092   5.564
 5549POPC   PO470308  22.941  12.119   5.864
 5549POPC   GL170309  22.909  12.093   6.164
 5549POPC   GL270310  22.964  11.968   6.164
 5549POPC   C1A70311  22.922  12.126   6.464
 5549POPC   D2A70312  22.936  12.065   6.764
 5549POPC   C3A70313  22.982  12.098   7.064
 5549POPC   C4A70314  22.982  12.058   7.364
 5549POPC   C1B70315  22.961  11.868   6.464
 5549POPC   C2B70316  22.937  11.842   6.764
 5549POPC   C3B70317  22.924  11.838   7.064
 5549POPC   C4B70318  22.893  11.846   7.364
 5550POPC   NC370319  14.388  41.566   5.564
 5550POPC   PO470320  14.394  41.510   5.864
 5550POPC   GL170321  14.377  41.517   6.164
 5550POPC   GL270322  14.354  41.723   6.164
 5550POPC   C1A70323  14.362  41.608   6.464
 5550POPC   D2A70324  14.409  41.606   6.764
 5550POPC   C3A70325  14.445  41.569   7.064
 5550POPC   C4A70326  14.399  41.528   7.364
 5550POPC   C1B70327  14.318  41.762   6.464
 5550POPC   C2B70328  14.333  41.799   6.764
 5550POPC   C3B70329  14.278  41.809   7.064
 5550POPC   C4B70330  14.268  41.818   7.364
 5551POPC   NC370331   1.203  43.080   5.564
 5551POPC   PO470332   1.216  43.132   5.864
 5551POPC   GL170333   1.239  43.110   6.164
 5551POPC   GL270334   1.089  43.160   6.164
 5551POPC   C1A70335   1.234  43.130   6.464
 5551POPC   D2A70336   1.207  43.089   6.764
 5551POPC   C3A70337   1.235  43.076   7.064
 5551POPC   C4A70338   1.262  43.138   7.364
 5551POPC   C1B70339   0.950  43.163   6.464
 5551POPC   C2B70340   1.001  43.179   6.764
 5551POPC   C3B70341   0.998  43.257   7.064
 5551POPC   C4B70342   0.944  43.213   7.364
 5552POPC   NC370343   9.781  26.853   5.564
 5552POPC   PO470344   9.765  26.781   5.864
 5552POPC   GL170345   9.790  26.788   6.164
 5552POPC   GL270346   9.875  26.880   6.164
 5552POPC   C1A70347   9.776  26.857   6.464
 5552POPC   D2A70348   9.699  26.840   6.764
 5552POPC   C3A70349   9.778  26.803   7.064
 5552POPC   C4A70350   9.708  26.786   7.364
 5552POPC   C1B70351   9.985  26.911   6.464
 5552POPC   C2B70352   9.963  26.925   6.764
 5552POPC   C3B70353   9.928  26.901   7.064
 5552POPC   C4B70354   9.959  26.958   7.364
 5553POPC   NC370355  41.561   9.753   5.564
 5553POPC   PO470356  41.509   9.770   5.864
 5553POPC   GL170357  41.546   9.776   6.164
 5553POPC   GL270358  41.435   9.767   6.164
 5553POPC   C1A70359  41.551   9.785   6.464
 5553POPC   D2A70360  41.599   9.761   6.764
 5553POPC   C3A70361  41.551   9.721   7.064
 5553POPC   C4A70362  41.553   9.780   7.364
 5553POPC   C1B70363  41.287   9.811   6.464
 5553POPC   C2B70364  41.352   9.783   6.764
 5553POPC   C3B70365  41.331   9.804   7.064
 5553POPC   C4B70366  41.348   9.797   7.364
 5554POPC   NC370367   2.779  15.968   5.564
 5554POPC   PO470368   2.791  15.976   5.864
 5554POPC   GL170369   2.802  15.905   6.164
 5554POPC   GL270370   2.939  15.926   6.164
 5554POPC   C1A70371   2.809  15.946   6.464
 5554POPC   D2A70372   2.753  15.988   6.764
 5554POPC   C3A70373   2.814  15.968   7.064
 5554POPC   C4A70374   2.733  16.003   7.364
 5554POPC   C1B70375   2.999  16.008   6.464
 5554POPC   C2B70376   3.047  15.929   6.764
 5554POPC   C3B70377   3.032  15.948   7.064
 5554POPC   C4B70378   3.010  16.023   7.364
 5555POPC   NC370379  16.705  36.920   5.564
 5555POPC   PO470380  16.738  36.916   5.864
 5555POPC   GL170381  16.698  36.937   6.164
 5555POPC   GL270382  16.784  36.739   6.164
 5555POPC   C1A70383  16.762  36.953   6.464
 5555POPC   D2A70384  16.713  36.930   6.764
 5555POPC   C3A70385  16.729  36.854   7.064
 5555POPC   C4A70386  16.710  36.915   7.364
 5555POPC   C1B70387  16.808  36.664   6.464
 5555POPC   C2B70388  16.843  36.680   6.764
 5555POPC   C3B70389  16.855  36.679   7.064
 5555POPC   C4B70390  16.764  36.672   7.364
 5556POPC   NC370391  41.584   3.589   5.564
 5556POPC   PO470392  41.549   3.526   5.864
 5556POPC   GL170393  41.565   3.522   6.164
 5556POPC   GL270394  41.549   3.698   6.164
 5556POPC   C1A70395  41.608   3.496   6.464
 5556POPC   D2A70396  41.541   3.555   6.764
 5556POPC   C3A70397  41.541   3.553   7.064
 5556POPC   C4A70398  41.554   3.522   7.364
 5556POPC   C1B70399  41.488   3.827   6.464
 5556POPC   C2B70400  41.473   3.739   6.764
 5556POPC   C3B70401  41.465   3.829   7.064
 5556POPC   C4B70402  41.488   3.791   7.364
 5557POPC   NC370403   5.115  39.192   5.564
 5557POPC   PO470404   5.123  39.219   5.864
 5557POPC   GL170405   5.127  39.252   6.164
 5557POPC   GL270406   4.990  39.231   6.164
 5557POPC   C1A70407   5.082  39.197   6.464
 5557POPC   D2A70408   5.122  39.222   6.764
 5557POPC   C3A70409   5.075  39.229   7.064
 5557POPC   C4A70410   5.135  39.258   7.364
 5557POPC   C1B70411   4.842  39.256   6.464
 5557POPC   C2B70412   4.847  39.277   6.764
 5557POPC   C3B70413   4.856  39.257   7.064
 5557POPC   C4B70414   4.821  39.280   7.364
 5558POPC   NC370415  43.077  38.486   5.564
 5558POPC   PO470416  43.142  38.411   5.864
 5558POPC   GL170417  43.063  38.446   6.164
 5558POPC   GL270418  43.016  38.577   6.164
 5558POPC   C1A70419  43.074  38.484   6.464
 5558POPC   D2A70420  43.071  38.446   6.764
 5558POPC   C3A70421  43.157  38.431   7.064
 5558POPC   C4A70422  43.146  38.411   7.364
 5558POPC   C1B70423  42.989  38.648   6.464
 5558POPC   C2B70424  43.035  38.666   6.764
 5558POPC   C3B70425  42.991  38.661   7.064
 5558POPC   C4B70426  42.961  38.649   7.364
 5559POPC   NC370427   6.653  23.695   5.564
 5559POPC   PO470428   6.678  23.693   5.864
 5559POPC   GL170429   6.665  23.730   6.164
 5559POPC   GL270430   6.796  23.773   6.164
 5559POPC   C1A70431   6.605  23.695   6.464
 5559POPC   D2A70432   6.636  23.717   6.764
 5559POPC   C3A70433   6.602  23.761   7.064
 5559POPC   C4A70434   6.619  23.709   7.364
 5559POPC   C1B70435   6.808  23.813   6.464
 5559POPC   C2B70436   6.809  23.844   6.764
 5559POPC   C3B70437   6.829  23.879   7.064
 5559POPC   C4B70438   6.808  23.802   7.364
 5560POPC   NC370439  37.681   8.970   5.564
 5560POPC   PO470440  37.629   8.957   5.864
 5560POPC   GL170441  37.644   8.925   6.164
 5560POPC   GL270442  37.696   8.803   6.164
 5560POPC   C1A70443  37.694   8.976   6.464
 5560POPC   D2A70444  37.717   9.012   6.764
 5560POPC   C3A70445  37.705   8.947   7.064
 5560POPC   C4A70446  37.657   8.975   7.364
 5560POPC   C1B70447  37.591   8.690   6.464
 5560POPC   C2B70448  37.658   8.712   6.764
 5560POPC   C3B70449  37.675   8.757   7.064
 5560POPC   C4B70450  37.683   8.680   7.364
 5561POPC   NC370451  40.764  22.153   5.564
 5561POPC   PO470452  40.823  22.190   5.864
 5561POPC   GL170453  40.757  22.186   6.164
 5561POPC   GL270454  40.638  22.169   6.164
 5561POPC   C1A70455  40.753  22.173   6.464
 5561POPC   D2A70456  40.790  22.211   6.764
 5561POPC   C3A70457  40.736  22.172   7.064
 5561POPC   C4A70458  40.736  22.193   7.364
 5561POPC   C1B70459  40.586  22.231   6.464
 5561POPC   C2B70460  40.520  22.307   6.764
 5561POPC   C3B70461  40.535  22.299   7.064
 5561POPC   C4B70462  40.522  22.214   7.364
 5562POPC   NC370463  19.044   1.992   5.564
 5562POPC   PO470464  19.039   2.030   5.864
 5562POPC   GL170465  19.076   1.994   6.164
 5562POPC   GL270466  19.204   1.969   6.164
 5562POPC   C1A70467  19.066   1.942   6.464
 5562POPC   D2A70468  19.035   1.954   6.764
 5562POPC   C3A70469  19.058   1.977   7.064
 5562POPC   C4A70470  19.077   2.020   7.364
 5562POPC   C1B70471  19.328   1.979   6.464
 5562POPC   C2B70472  19.334   1.981   6.764
 5562POPC   C3B70473  19.299   1.941   7.064
 5562POPC   C4B70474  19.315   1.934   7.364
 5563POPC   NC370475  31.502  36.938   5.564
 5563POPC   PO470476  31.441  36.896   5.864
 5563POPC   GL170477  31.488  36.870   6.164
 5563POPC   GL270478  31.463  36.746   6.164
 5563POPC   C1A70479  31.452  36.906   6.464
 5563POPC   D2A70480  31.481  36.911   6.764
 5563POPC   C3A70481  31.425  36.915   7.064
 5563POPC   C4A70482  31.518  36.951   7.364
 5563POPC   C1B70483  31.415  36.619   6.464
 5563POPC   C2B70484  31.354  36.664   6.764
 5563POPC   C3B70485  31.398  36.660   7.064
 5563POPC   C4B70486  31.415  36.670   7.364
 5564POPC   NC370487   5.862  29.142   5.564
 5564POPC   PO470488   5.832  29.124   5.864
 5564POPC   GL170489   5.831  29.195   6.164
 5564POPC   GL270490   5.759  29.014   6.164
 5564POPC   C1A70491   5.859  29.192   6.464
 5564POPC   D2A70492   5.918  29.100   6.764
 5564POPC   C3A70493   5.912  29.187   7.064
 5564POPC   C4A70494   5.904  29.106   7.364
 5564POPC   C1B70495   5.678  28.934   6.464
 5564POPC   C2B70496   5.674  28.953   6.764
 5564POPC   C3B70497   5.726  28.911   7.064
 5564POPC   C4B70498   5.711  28.923   7.364
 5565POPC   NC370499  29.159  32.215   5.564
 5565POPC   PO470500  29.182  32.235   5.864
 5565POPC   GL170501  29.186  32.198   6.164
 5565POPC   GL270502  29.222  32.194   6.164
 5565POPC   C1A70503  29.180  32.273   6.464
 5565POPC   D2A70504  29.115  32.205   6.764
 5565POPC   C3A70505  29.139  32.217   7.064
 5565POPC   C4A70506  29.099  32.275   7.364
 5565POPC   C1B70507  29.373  32.193   6.464
 5565POPC   C2B70508  29.358  32.198   6.764
 5565POPC   C3B70509  29.403  32.192   7.064
 5565POPC   C4B70510  29.357  32.155   7.364
 5566POPC   NC370511   2.794  29.133   5.564
 5566POPC   PO470512   2.782  29.134   5.864
 5566POPC   GL170513   2.726  29.120   6.164
 5566POPC   GL270514   2.722  29.006   6.164
 5566POPC   C1A70515   2.798  29.185   6.464
 5566POPC   D2A70516   2.741  29.115   6.764
 5566POPC   C3A70517   2.787  29.114   7.064
 5566POPC   C4A70518   2.756  29.110   7.364
 5566POPC   C1B70519   2.681  28.945   6.464
 5566POPC   C2B70520   2.680  28.929   6.764
 5566POPC   C3B70521   2.609  28.911   7.064
 5566POPC   C4B70522   2.641  28.928   7.364
 5567POPC   NC370523   5.055  17.489   5.564
 5567POPC   PO470524   5.107  17.543   5.864
 5567POPC   GL170525   5.091  17.554   6.164
 5567POPC   GL270526   5.223  17.568   6.164
 5567POPC   C1A70527   5.128  17.468   6.464
 5567POPC   D2A70528   5.064  17.483   6.764
 5567POPC   C3A70529   5.138  17.552   7.064
 5567POPC   C4A70530   5.104  17.496   7.364
 5567POPC   C1B70531   5.320  17.608   6.464
 5567POPC   C2B70532   5.361  17.565   6.764
 5567POPC   C3B70533   5.292  17.537   7.064
 5567POPC   C4B70534   5.360  17.534   7.364
 5568POPC   NC370535  43.090   9.699   5.564
 5568POPC   PO470536  43.089   9.718   5.864
 5568POPC   GL170537  43.123   9.711   6.164
 5568POPC   GL270538  43.033   9.708   6.164
 5568POPC   C1A70539  43.103   9.794   6.464
 5568POPC   D2A70540  43.096   9.738   6.764
 5568POPC   C3A70541  43.130   9.761   7.064
 5568POPC   C4A70542  43.082   9.744   7.364
 5568POPC   C1B70543  42.916   9.738   6.464
 5568POPC   C2B70544  42.909   9.727   6.764
 5568POPC   C3B70545  42.902   9.677   7.064
 5568POPC   C4B70546  42.908   9.715   7.364
 5569POPC   NC370547  12.056  43.905   5.564
 5569POPC   PO470548  12.071  43.876   5.864
 5569POPC   GL170549  12.074  43.926   6.164
 5569POPC   GL270550  12.037  44.053   6.164
 5569POPC   C1A70551  12.089  43.916   6.464
 5569POPC   D2A70552  12.092  43.920   6.764
 5569POPC   C3A70553  12.104  43.854   7.064
 5569POPC   C4A70554  12.027  43.919   7.364
 5569POPC   C1B70555  11.977  44.156   6.464
 5569POPC   C2B70556  11.966  44.091   6.764
 5569POPC   C3B70557  11.964  44.111   7.064
 5569POPC   C4B70558  12.029  44.174   7.364
 5570POPC   NC370559  40.753   9.729   5.564
 5570POPC   PO470560  40.803   9.729   5.864
 5570POPC   GL170561  40.807   9.761   6.164
 5570POPC   GL270562  40.693   9.884   6.164
 5570POPC   C1A70563  40.764   9.737   6.464
 5570POPC   D2A70564  40.764   9.704   6.764
 5570POPC   C3A70565  40.736   9.743   7.064
 5570POPC   C4A70566  40.756   9.711   7.364
 5570POPC   C1B70567  40.608   9.966   6.464
 5570POPC   C2B70568  40.612   9.949   6.764
 5570POPC   C3B70569  40.642   9.935   7.064
 5570POPC   C4B70570  40.643   9.967   7.364
 5571POPC   NC370571  27.589  29.162   5.564
 5571POPC   PO470572  27.585  29.144   5.864
 5571POPC   GL170573  27.613  29.119   6.164
 5571POPC   GL270574  27.632  29.069   6.164
 5571POPC   C1A70575  27.589  29.163   6.464
 5571POPC   D2A70576  27.545  29.175   6.764
 5571POPC   C3A70577  27.556  29.119   7.064
 5571POPC   C4A70578  27.622  29.178   7.364
 5571POPC   C1B70579  27.776  28.924   6.464
 5571POPC   C2B70580  27.728  28.915   6.764
 5571POPC   C3B70581  27.712  28.963   7.064
 5571POPC   C4B70582  27.731  28.999   7.364
 5572POPC   NC370583   9.731  25.249   5.564
 5572POPC   PO470584   9.711  25.251   5.864
 5572POPC   GL170585   9.762  25.242   6.164
 5572POPC   GL270586   9.637  25.368   6.164
 5572POPC   C1A70587   9.715  25.253   6.464
 5572POPC   D2A70588   9.777  25.219   6.764
 5572POPC   C3A70589   9.793  25.239   7.064
 5572POPC   C4A70590   9.766  25.245   7.364
 5572POPC   C1B70591   9.580  25.401   6.464
 5572POPC   C2B70592   9.554  25.365   6.764
 5572POPC   C3B70593   9.529  25.385   7.064
 5572POPC   C4B70594   9.514  25.370   7.364
 5573POPC   NC370595  20.589  35.379   5.564
 5573POPC   PO470596  20.642  35.323   5.864
 5573POPC   GL170597  20.583  35.356   6.164
 5573POPC   GL270598  20.502  35.359   6.164
 5573POPC   C1A70599  20.585  35.333   6.464
 5573POPC   D2A70600  20.617  35.379   6.764
 5573POPC   C3A70601  20.563  35.351   7.064
 5573POPC   C4A70602  20.583  35.385   7.364
 5573POPC   C1B70603  20.368  35.348   6.464
 5573POPC   C2B70604  20.338  35.388   6.764
 5573POPC   C3B70605  20.354  35.358   7.064
 5573POPC   C4B70606  20.395  35.332   7.364
 5574POPC   NC370607  26.811  15.225   5.564
 5574POPC   PO470608  26.777  15.164   5.864
 5574POPC   GL170609  26.776  15.226   6.164
 5574POPC   GL270610  26.828  15.275   6.164
 5574POPC   C1A70611  26.784  15.147   6.464
 5574POPC   D2A70612  26.779  15.219   6.764
 5574POPC   C3A70613  26.799  15.220   7.064
 5574POPC   C4A70614  26.770  15.166   7.364
 5574POPC   C1B70615  26.755  15.404   6.464
 5574POPC   C2B70616  26.711  15.427   6.764
 5574POPC   C3B70617  26.729  15.382   7.064
 5574POPC   C4B70618  26.792  15.383   7.364
 5575POPC   NC370619  29.934  26.049   5.564
 5575POPC   PO470620  29.969  25.999   5.864
 5575POPC   GL170621  29.946  26.091   6.164
 5575POPC   GL270622  29.829  25.944   6.164
 5575POPC   C1A70623  29.945  26.038   6.464
 5575POPC   D2A70624  29.945  26.043   6.764
 5575POPC   C3A70625  29.923  26.028   7.064
 5575POPC   C4A70626  29.905  26.045   7.364
 5575POPC   C1B70627  29.814  25.837   6.464
 5575POPC   C2B70628  29.823  25.821   6.764
 5575POPC   C3B70629  29.766  25.861   7.064
 5575POPC   C4B70630  29.813  25.794   7.364
 5576POPC   NC370631   0.464  36.926   5.564
 5576POPC   PO470632   0.439  36.858   5.864
 5576POPC   GL170633   0.404  36.922   6.164
 5576POPC   GL270634   0.330  36.983   6.164
 5576POPC   C1A70635   0.488  36.877   6.464
 5576POPC   D2A70636   0.487  36.904   6.764
 5576POPC   C3A70637   0.397  36.874   7.064
 5576POPC   C4A70638   0.395  36.908   7.364
 5576POPC   C1B70639   0.172  36.992   6.464
 5576POPC   C2B70640   0.183  37.026   6.764
 5576POPC   C3B70641   0.250  36.981   7.064
 5576POPC   C4B70642   0.232  36.972   7.364
 5577POPC   NC370643  33.842  12.848   5.564
 5577POPC   PO470644  33.805  12.839   5.864
 5577POPC   GL170645  33.755  12.898   6.164
 5577POPC   GL270646  33.681  12.764   6.164
 5577POPC   C1A70647  33.831  12.852   6.464
 5577POPC   D2A70648  33.823  12.873   6.764
 5577POPC   C3A70649  33.831  12.894   7.064
 5577POPC   C4A70650  33.798  12.889   7.364
 5577POPC   C1B70651  33.589  12.736   6.464
 5577POPC   C2B70652  33.532  12.763   6.764
 5577POPC   C3B70653  33.600  12.801   7.064
 5577POPC   C4B70654  33.586  12.754   7.364
 5578POPC   NC370655  44.652  17.552   5.564
 5578POPC   PO470656  44.674  17.529   5.864
 5578POPC   GL170657  44.678  17.526   6.164
 5578POPC   GL270658  44.599  17.458   6.164
 5578POPC   C1A70659  44.648  17.523   6.464
 5578POPC   D2A70660  44.645  17.487   6.764
 5578POPC   C3A70661  44.710  17.520   7.064
 5578POPC   C4A70662  44.655  17.476   7.364
 5578POPC   C1B70663  44.431  17.358   6.464
 5578POPC   C2B70664  44.422  17.343   6.764
 5578POPC   C3B70665  44.451  17.342   7.064
 5578POPC   C4B70666  44.438  17.405   7.364
 5579POPC   NC370667  37.703  25.995   5.564
 5579POPC   PO470668  37.683  26.018   5.864
 5579POPC   GL170669  37.719  26.022   6.164
 5579POPC   GL270670  37.545  25.978   6.164
 5579POPC   C1A70671  37.653  26.011   6.464
 5579POPC   D2A70672  37.663  26.062   6.764
 5579POPC   C3A70673  37.670  26.047   7.064
 5579POPC   C4A70674  37.651  26.091   7.364
 5579POPC   C1B70675  37.506  25.863   6.464
 5579POPC   C2B70676  37.490  25.907   6.764
 5579POPC   C3B70677  37.524  25.889   7.064
 5579POPC   C4B70678  37.479  25.884   7.364
 5580POPC   NC370679   9.742   8.232   5.564
 5580POPC   PO470680   9.740   8.241   5.864
 5580POPC   GL170681   9.783   8.207   6.164
 5580POPC   GL270682   9.869   8.291   6.164
 5580POPC   C1A70683   9.784   8.201   6.464
 5580POPC   D2A70684   9.777   8.213   6.764
 5580POPC   C3A70685   9.774   8.171   7.064
 5580POPC   C4A70686   9.751   8.179   7.364
 5580POPC   C1B70687   9.981   8.379   6.464
 5580POPC   C2B70688   9.951   8.397   6.764
 5580POPC   C3B70689   9.895   8.337   7.064
 5580POPC   C4B70690   9.909   8.374   7.364
 5581POPC   NC370691  19.856  22.201   5.564
 5581POPC   PO470692  19.828  22.193   5.864
 5581POPC   GL170693  19.845  22.126   6.164
 5581POPC   GL270694  19.731  22.258   6.164
 5581POPC   C1A70695  19.792  22.187   6.464
 5581POPC   D2A70696  19.852  22.136   6.764
 5581POPC   C3A70697  19.848  22.190   7.064
 5581POPC   C4A70698  19.835  22.131   7.364
 5581POPC   C1B70699  19.621  22.328   6.464
 5581POPC   C2B70700  19.609  22.347   6.764
 5581POPC   C3B70701  19.701  22.298   7.064
 5581POPC   C4B70702  19.664  22.339   7.364
 5582POPC   NC370703  17.509  13.586   5.564
 5582POPC   PO470704  17.536  13.607   5.864
 5582POPC   GL170705  17.519  13.668   6.164
 5582POPC   GL270706  17.556  13.511   6.164
 5582POPC   C1A70707  17.512  13.604   6.464
 5582POPC   D2A70708  17.517  13.669   6.764
 5582POPC   C3A70709  17.487  13.598   7.064
 5582POPC   C4A70710  17.475  13.599   7.364
 5582POPC   C1B70711  17.675  13.426   6.464
 5582POPC   C2B70712  17.633  13.388   6.764
 5582POPC   C3B70713  17.675  13.428   7.064
 5582POPC   C4B70714  17.659  13.429   7.364
 5583POPC   NC370715  42.344  29.159   5.564
 5583POPC   PO470716  42.304  29.123   5.864
 5583POPC   GL170717  42.340  29.154   6.164
 5583POPC   GL270718  42.339  29.317   6.164
 5583POPC   C1A70719  42.321  29.116   6.464
 5583POPC   D2A70720  42.360  29.097   6.764
 5583POPC   C3A70721  42.374  29.167   7.064
 5583POPC   C4A70722  42.308  29.187   7.364
 5583POPC   C1B70723  42.310  29.411   6.464
 5583POPC   C2B70724  42.334  29.429   6.764
 5583POPC   C3B70725  42.364  29.428   7.064
 5583POPC   C4B70726  42.324  29.428   7.364
 5584POPC   NC370727  36.084  26.073   5.564
 5584POPC   PO470728  36.089  26.077   5.864
 5584POPC   GL170729  36.080  26.002   6.164
 5584POPC   GL270730  36.030  26.109   6.164
 5584POPC   C1A70731  36.130  26.000   6.464
 5584POPC   D2A70732  36.139  26.010   6.764
 5584POPC   C3A70733  36.098  26.003   7.064
 5584POPC   C4A70734  36.122  25.999   7.364
 5584POPC   C1B70735  35.853  26.101   6.464
 5584POPC   C2B70736  35.885  26.098   6.764
 5584POPC   C3B70737  35.890  26.128   7.064
 5584POPC   C4B70738  35.913  26.170   7.364
 5585POPC   NC370739  41.561   8.195   5.564
 5585POPC   PO470740  41.520   8.218   5.864
 5585POPC   GL170741  41.554   8.215   6.164
 5585POPC   GL270742  41.467   8.314   6.164
 5585POPC   C1A70743  41.518   8.197   6.464
 5585POPC   D2A70744  41.593   8.167   6.764
 5585POPC   C3A70745  41.510   8.203   7.064
 5585POPC   C4A70746  41.560   8.174   7.364
 5585POPC   C1B70747  41.481   8.427   6.464
 5585POPC   C2B70748  41.482   8.380   6.764
 5585POPC   C3B70749  41.472   8.421   7.064
 5585POPC   C4B70750  41.440   8.385   7.364
 5586POPC   NC370751  26.079  40.768   5.564
 5586POPC   PO470752  26.062  40.748   5.864
 5586POPC   GL170753  26.090  40.797   6.164
 5586POPC   GL270754  26.056  40.626   6.164
 5586POPC   C1A70755  26.021  40.820   6.464
 5586POPC   D2A70756  25.995  40.774   6.764
 5586POPC   C3A70757  26.038  40.778   7.064
 5586POPC   C4A70758  26.088  40.749   7.364
 5586POPC   C1B70759  25.961  40.574   6.464
 5586POPC   C2B70760  25.975  40.551   6.764
 5586POPC   C3B70761  25.988  40.520   7.064
 5586POPC   C4B70762  25.959  40.571   7.364
 5587POPC   NC370763  12.824  41.537   5.564
 5587POPC   PO470764  12.840  41.546   5.864
 5587POPC   GL170765  12.845  41.587   6.164
 5587POPC   GL270766  12.785  41.622   6.164
 5587POPC   C1A70767  12.821  41.545   6.464
 5587POPC   D2A70768  12.858  41.537   6.764
 5587POPC   C3A70769  12.848  41.568   7.064
 5587POPC   C4A70770  12.875  41.545   7.364
 5587POPC   C1B70771  12.694  41.762   6.464
 5587POPC   C2B70772  12.687  41.772   6.764
 5587POPC   C3B70773  12.680  41.768   7.064
 5587POPC   C4B70774  12.682  41.776   7.364
 5588POPC   NC370775  32.209  27.569   5.564
 5588POPC   PO470776  32.282  27.581   5.864
 5588POPC   GL170777  32.287  27.639   6.164
 5588POPC   GL270778  32.359  27.479   6.164
 5588POPC   C1A70779  32.224  27.583   6.464
 5588POPC   D2A70780  32.257  27.565   6.764
 5588POPC   C3A70781  32.251  27.579   7.064
 5588POPC   C4A70782  32.206  27.555   7.364
 5588POPC   C1B70783  32.393  27.349   6.464
 5588POPC   C2B70784  32.416  27.349   6.764
 5588POPC   C3B70785  32.411  27.429   7.064
 5588POPC   C4B70786  32.393  27.401   7.364
 5589POPC   NC370787   8.167   7.406   5.564
 5589POPC   PO470788   8.245   7.371   5.864
 5589POPC   GL170789   8.167   7.388   6.164
 5589POPC   GL270790   8.115   7.483   6.164
 5589POPC   C1A70791   8.152   7.402   6.464
 5589POPC   D2A70792   8.213   7.396   6.764
 5589POPC   C3A70793   8.173   7.400   7.064
 5589POPC   C4A70794   8.237   7.434   7.364
 5589POPC   C1B70795   8.003   7.589   6.464
 5589POPC   C2B70796   7.968   7.583   6.764
 5589POPC   C3B70797   7.945   7.544   7.064
 5589POPC   C4B70798   7.960   7.575   7.364
 5590POPC   NC370799  32.224  40.004   5.564
 5590POPC   PO470800  32.227  40.033   5.864
 5590POPC   GL170801  32.254  40.057   6.164
 5590POPC   GL270802  32.115  40.032   6.164
 5590POPC   C1A70803  32.230  40.030   6.464
 5590POPC   D2A70804  32.219  40.038   6.764
 5590POPC   C3A70805  32.236  39.993   7.064
 5590POPC   C4A70806  32.283  39.967   7.364
 5590POPC   C1B70807  32.014  40.046   6.464
 5590POPC   C2B70808  32.039  39.970   6.764
 5590POPC   C3B70809  32.034  39.954   7.064
 5590POPC   C4B70810  31.982  40.044   7.364
 5591POPC   NC370811  29.897  30.687   5.564
 5591POPC   PO470812  29.882  30.684   5.864
 5591POPC   GL170813  29.874  30.729   6.164
 5591POPC   GL270814  29.979  30.806   6.164
 5591POPC   C1A70815  29.950  30.744   6.464
 5591POPC   D2A70816  29.877  30.691   6.764
 5591POPC   C3A70817  29.899  30.661   7.064
 5591POPC   C4A70818  29.906  30.725   7.364
 5591POPC   C1B70819  30.129  30.846   6.464
 5591POPC   C2B70820  30.044  30.893   6.764
 5591POPC   C3B70821  30.128  30.863   7.064
 5591POPC   C4B70822  30.116  30.893   7.364
 5592POPC   NC370823  15.937   4.354   5.564
 5592POPC   PO470824  15.986   4.314   5.864
 5592POPC   GL170825  15.925   4.353   6.164
 5592POPC   GL270826  16.017   4.407   6.164
 5592POPC   C1A70827  15.946   4.322   6.464
 5592POPC   D2A70828  15.967   4.362   6.764
 5592POPC   C3A70829  15.951   4.336   7.064
 5592POPC   C4A70830  15.954   4.329   7.364
 5592POPC   C1B70831  16.144   4.464   6.464
 5592POPC   C2B70832  16.154   4.459   6.764
 5592POPC   C3B70833  16.144   4.424   7.064
 5592POPC   C4B70834  16.193   4.487   7.364
 5593POPC   NC370835  27.641  21.416   5.564
 5593POPC   PO470836  27.602  21.382   5.864
 5593POPC   GL170837  27.571  21.406   6.164
 5593POPC   GL270838  27.578  21.245   6.164
 5593POPC   C1A70839  27.599  21.374   6.464
 5593POPC   D2A70840  27.595  21.367   6.764
 5593POPC   C3A70841  27.572  21.365   7.064
 5593POPC   C4A70842  27.580  21.353   7.364
 5593POPC   C1B70843  27.626  21.165   6.464
 5593POPC   C2B70844  27.687  21.128   6.764
 5593POPC   C3B70845  27.647  21.174   7.064
 5593POPC   C4B70846  27.669  21.131   7.364
 5594POPC   NC370847  21.370   1.221   5.564
 5594POPC   PO470848  21.341   1.234   5.864
 5594POPC   GL170849  21.359   1.206   6.164
 5594POPC   GL270850  21.272   1.254   6.164
 5594POPC   C1A70851  21.339   1.166   6.464
 5594POPC   D2A70852  21.341   1.221   6.764
 5594POPC   C3A70853  21.415   1.219   7.064
 5594POPC   C4A70854  21.423   1.209   7.364
 5594POPC   C1B70855  21.193   1.335   6.464
 5594POPC   C2B70856  21.165   1.319   6.764
 5594POPC   C3B70857  21.149   1.374   7.064
 5594POPC   C4B70858  21.114   1.302   7.364
 5595POPC   NC370859  12.120  18.237   5.564
 5595POPC   PO470860  12.038  18.313   5.864
 5595POPC   GL170861  12.063  18.270   6.164
 5595POPC   GL270862  12.165  18.372   6.164
 5595POPC   C1A70863  12.050  18.285   6.464
 5595POPC   D2A70864  12.086  18.315   6.764
 5595POPC   C3A70865  12.087  18.328   7.064
 5595POPC   C4A70866  12.087  18.298   7.364
 5595POPC   C1B70867  12.297  18.484   6.464
 5595POPC   C2B70868  12.202  18.426   6.764
 5595POPC   C3B70869  12.269  18.480   7.064
 5595POPC   C4B70870  12.274  18.430   7.364
 5596POPC   NC370871  11.317   0.443   5.564
 5596POPC   PO470872  11.267   0.455   5.864
 5596POPC   GL170873  11.273   0.463   6.164
 5596POPC   GL270874  11.426   0.358   6.164
 5596POPC   C1A70875  11.285   0.423   6.464
 5596POPC   D2A70876  11.275   0.479   6.764
 5596POPC   C3A70877  11.281   0.410   7.064
 5596POPC   C4A70878  11.348   0.407   7.364
 5596POPC   C1B70879  11.551   0.301   6.464
 5596POPC   C2B70880  11.484   0.289   6.764
 5596POPC   C3B70881  11.490   0.313   7.064
 5596POPC   C4B70882  11.517   0.276   7.364
 5597POPC   NC370883  26.804   2.721   5.564
 5597POPC   PO470884  26.779   2.800   5.864
 5597POPC   GL170885  26.786   2.793   6.164
 5597POPC   GL270886  26.748   2.904   6.164
 5597POPC   C1A70887  26.821   2.723   6.464
 5597POPC   D2A70888  26.848   2.788   6.764
 5597POPC   C3A70889  26.794   2.744   7.064
 5597POPC   C4A70890  26.860   2.725   7.364
 5597POPC   C1B70891  26.791   3.035   6.464
 5597POPC   C2B70892  26.766   2.969   6.764
 5597POPC   C3B70893  26.733   2.962   7.064
 5597POPC   C4B70894  26.737   2.961   7.364
 5598POPC   NC370895  26.785  27.632   5.564
 5598POPC   PO470896  26.786  27.567   5.864
 5598POPC   GL170897  26.865  27.639   6.164
 5598POPC   GL270898  26.734  27.684   6.164
 5598POPC   C1A70899  26.867  27.615   6.464
 5598POPC   D2A70900  26.783  27.575   6.764
 5598POPC   C3A70901  26.820  27.547   7.064
 5598POPC   C4A70902  26.773  27.580   7.364
 5598POPC   C1B70903  26.608  27.655   6.464
 5598POPC   C2B70904  26.621  27.720   6.764
 5598POPC   C3B70905  26.595  27.648   7.064
 5598POPC   C4B70906  26.571  27.676   7.364
 5599POPC   NC370907  32.262  43.836   5.564
 5599POPC   PO470908  32.261  43.908   5.864
 5599POPC   GL170909  32.201  43.842   6.164
 5599POPC   GL270910  32.317  43.987   6.164
 5599POPC   C1A70911  32.238  43.928   6.464
 5599POPC   D2A70912  32.249  43.932   6.764
 5599POPC   C3A70913  32.273  43.866   7.064
 5599POPC   C4A70914  32.215  43.900   7.364
 5599POPC   C1B70915  32.328  44.168   6.464
 5599POPC   C2B70916  32.357  44.089   6.764
 5599POPC   C3B70917  32.307  44.105   7.064
 5599POPC   C4B70918  32.276  44.167   7.364
 5600POPC   NC370919  25.283  25.266   5.564
 5600POPC   PO470920  25.314  25.257   5.864
 5600POPC   GL170921  25.271  25.268   6.164
 5600POPC   GL270922  25.297  25.152   6.164
 5600POPC   C1A70923  25.291  25.234   6.464
 5600POPC   D2A70924  25.227  25.229   6.764
 5600POPC   C3A70925  25.264  25.302   7.064
 5600POPC   C4A70926  25.304  25.263   7.364
 5600POPC   C1B70927  25.446  25.110   6.464
 5600POPC   C2B70928  25.433  25.072   6.764
 5600POPC   C3B70929  25.430  25.104   7.064
 5600POPC   C4B70930  25.374  25.052   7.364
 5601POPC   NC370931  44.638  36.143   5.564
 5601POPC   PO470932  44.689  36.136   5.864
 5601POPC   GL170933  44.626  36.094   6.164
 5601POPC   GL270934  44.693  36.274   6.164
 5601POPC   C1A70935  44.672  36.146   6.464
 5601POPC   D2A70936  44.650  36.161   6.764
 5601POPC   C3A70937  44.710  36.144   7.064
 5601POPC   C4A70938  44.689  36.145   7.364
 5601POPC   C1B70939  44.653  36.383   6.464
 5601POPC   C2B70940  44.707  36.347   6.764
 5601POPC   C3B70941  44.648  36.363   7.064
 5601POPC   C4B70942  44.672  36.338   7.364
 5602POPC   NC370943  35.388   7.415   5.564
 5602POPC   PO470944  35.339   7.445   5.864
 5602POPC   GL170945  35.318   7.454   6.164
 5602POPC   GL270946  35.338   7.358   6.164
 5602POPC   C1A70947  35.374   7.409   6.464
 5602POPC   D2A70948  35.370   7.443   6.764
 5602POPC   C3A70949  35.311   7.424   7.064
 5602POPC   C4A70950  35.397   7.419   7.364
 5602POPC   C1B70951  35.211   7.170   6.464
 5602POPC   C2B70952  35.237   7.204   6.764
 5602POPC   C3B70953  35.274   7.205   7.064
 5602POPC   C4B70954  35.240   7.246   7.364
 5603POPC   NC370955  15.930  25.308   5.564
 5603POPC   PO470956  15.932  25.247   5.864
 5603POPC   GL170957  15.956  25.282   6.164
 5603POPC   GL270958  16.056  25.201   6.164
 5603POPC   C1A70959  15.978  25.222   6.464
 5603POPC   D2A70960  15.941  25.301   6.764
 5603POPC   C3A70961  15.935  25.297   7.064
 5603POPC   C4A70962  15.936  25.229   7.364
 5603POPC   C1B70963  16.081  25.036   6.464
 5603POPC   C2B70964  16.089  25.053   6.764
 5603POPC   C3B70965  16.038  25.058   7.064
 5603POPC   C4B70966  16.038  24.995   7.364
 5604POPC   NC370967  15.133  13.634   5.564
 5604POPC   PO470968  15.166  13.660   5.864
 5604POPC   GL170969  15.191  13.665   6.164
 5604POPC   GL270970  15.267  13.582   6.164
 5604POPC   C1A70971  15.160  13.581   6.464
 5604POPC   D2A70972  15.152  13.593   6.764
 5604POPC   C3A70973  15.167  13.638   7.064
 5604POPC   C4A70974  15.211  13.654   7.364
 5604POPC   C1B70975  15.366  13.443   6.464
 5604POPC   C2B70976  15.337  13.444   6.764
 5604POPC   C3B70977  15.388  13.468   7.064
 5604POPC   C4B70978  15.321  13.445   7.364
 5605POPC   NC370979   7.409   5.892   5.564
 5605POPC   PO470980   7.374   5.855   5.864
 5605POPC   GL170981   7.437   5.913   6.164
 5605POPC   GL270982   7.397   5.792   6.164
 5605POPC   C1A70983   7.401   5.867   6.464
 5605POPC   D2A70984   7.434   5.902   6.764
 5605POPC   C3A70985   7.415   5.886   7.064
 5605POPC   C4A70986   7.394   5.907   7.364
 5605POPC   C1B70987   7.337   5.649   6.464
 5605POPC   C2B70988   7.368   5.644   6.764
 5605POPC   C3B70989   7.311   5.598   7.064
 5605POPC   C4B70990   7.324   5.619   7.364
 5606POPC   NC370991  26.064  23.670   5.564
 5606POPC   PO470992  26.080  23.749   5.864
 5606POPC   GL170993  26.032  23.736   6.164
 5606POPC   GL270994  25.921  23.593   6.164
 5606POPC   C1A70995  26.062  23.732   6.464
 5606POPC   D2A70996  26.033  23.695   6.764
 5606POPC   C3A70997  26.000  23.694   7.064
 5606POPC   C4A70998  25.995  23.741   7.364
 5606POPC   C1B70999  25.836  23.509   6.464
 5606POPC   C2B71000  25.888  23.526   6.764
 5606POPC   C3B71001  25.895  23.576   7.064
 5606POPC   C4B71002  25.891  23.588   7.364
 5607POPC   NC371003   7.414   5.067   5.564
 5607POPC   PO471004   7.415   5.112   5.864
 5607POPC   GL171005   7.466   5.063   6.164
 5607POPC   GL271006   7.525   5.200   6.164
 5607POPC   C1A71007   7.440   5.122   6.464
 5607POPC   D2A71008   7.378   5.118   6.764
 5607POPC   C3A71009   7.395   5.109   7.064
 5607POPC   C4A71010   7.392   5.103   7.364
 5607POPC   C1B71011   7.592   5.292   6.464
 5607POPC   C2B71012   7.571   5.269   6.764
 5607POPC   C3B71013   7.634   5.236   7.064
 5607POPC   C4B71014   7.605   5.230   7.364
 5608POPC   NC371015   4.281   0.444   5.564
 5608POPC   PO471016   4.331   0.393   5.864
 5608POPC   GL171017   4.301   0.431   6.164
 5608POPC   GL271018   4.316   0.368   6.164
 5608POPC   C1A71019   4.327   0.438   6.464
 5608POPC   D2A71020   4.322   0.406   6.764
 5608POPC   C3A71021   4.316   0.424   7.064
 5608POPC   C4A71022   4.290   0.454   7.364
 5608POPC   C1B71023   4.406   0.215   6.464
 5608POPC   C2B71024   4.390   0.228   6.764
 5608POPC   C3B71025   4.416   0.224   7.064
 5608POPC   C4B71026   4.417   0.154   7.364
 5609POPC   NC371027   1.980   7.440   5.564
 5609POPC   PO471028   2.031   7.461   5.864
 5609POPC   GL171029   1.965   7.467   6.164
 5609POPC   GL271030   1.964   7.551   6.164
 5609POPC   C1A71031   1.963   7.376   6.464
 5609POPC   D2A71032   2.030   7.456   6.764
 5609POPC   C3A71033   1.996   7.411   7.064
 5609POPC   C4A71034   2.004   7.405   7.364
 5609POPC   C1B71035   1.852   7.615   6.464
 5609POPC   C2B71036   1.852   7.661   6.764
 5609POPC   C3B71037   1.890   7.666   7.064
 5609POPC   C4B71038   1.877   7.687   7.364
 5610POPC   NC371039  34.592   7.460   5.564
 5610POPC   PO471040  34.595   7.420   5.864
 5610POPC   GL171041  34.531   7.380   6.164
 5610POPC   GL271042  34.536   7.319   6.164
 5610POPC   C1A71043  34.611   7.397   6.464
 5610POPC   D2A71044  34.555   7.448   6.764
 5610POPC   C3A71045  34.536   7.376   7.064
 5610POPC   C4A71046  34.529   7.427   7.364
 5610POPC   C1B71047  34.411   7.227   6.464
 5610POPC   C2B71048  34.444   7.194   6.764
 5610POPC   C3B71049  34.422   7.264   7.064
 5610POPC   C4B71050  34.443   7.281   7.364
 5611POPC   NC371051   8.934  12.079   5.564
 5611POPC   PO471052   9.000  12.110   5.864
 5611POPC   GL171053   8.970  12.119   6.164
 5611POPC   GL271054   8.883  12.013   6.164
 5611POPC   C1A71055   8.956  12.077   6.464
 5611POPC   D2A71056   8.944  12.074   6.764
 5611POPC   C3A71057   9.010  12.042   7.064
 5611POPC   C4A71058   8.929  12.074   7.364
 5611POPC   C1B71059   8.856  11.825   6.464
 5611POPC   C2B71060   8.803  11.828   6.764
 5611POPC   C3B71061   8.809  11.892   7.064
 5611POPC   C4B71062   8.832  11.914   7.364
 5612POPC   NC371063  27.621   3.560   5.564
 5612POPC   PO471064  27.579   3.529   5.864
 5612POPC   GL171065  27.628   3.503   6.164
 5612POPC   GL271066  27.674   3.484   6.164
 5612POPC   C1A71067  27.580   3.534   6.464
 5612POPC   D2A71068  27.564   3.497   6.764
 5612POPC   C3A71069  27.588   3.565   7.064
 5612POPC   C4A71070  27.553   3.573   7.364
 5612POPC   C1B71071  27.812   3.388   6.464
 5612POPC   C2B71072  27.758   3.355   6.764
 5612POPC   C3B71073  27.737   3.410   7.064
 5612POPC   C4B71074  27.791   3.398   7.364
 5613POPC   NC371075  31.433   6.682   5.564
 5613POPC   PO471076  31.465   6.614   5.864
 5613POPC   GL171077  31.494   6.687   6.164
 5613POPC   GL271078  31.543   6.583   6.164
 5613POPC   C1A71079  31.486   6.684   6.464
 5613POPC   D2A71080  31.491   6.672   6.764
 5613POPC   C3A71081  31.466   6.682   7.064
 5613POPC   C4A71082  31.476   6.675   7.364
 5613POPC   C1B71083  31.736   6.485   6.464
 5613POPC   C2B71084  31.680   6.507   6.764
 5613POPC   C3B71085  31.654   6.541   7.064
 5613POPC   C4B71086  31.688   6.546   7.364
 5614POPC   NC371087  41.524  33.830   5.564
 5614POPC   PO471088  41.566  33.845   5.864
 5614POPC   GL171089  41.578  33.809   6.164
 5614POPC   GL271090  41.580  33.908   6.164
 5614POPC   C1A71091  41.555  33.807   6.464
 5614POPC   D2A71092  41.553  33.843   6.764
 5614POPC   C3A71093  41.530  33.752   7.064
 5614POPC   C4A71094  41.539  33.835   7.364
 5614POPC   C1B71095  41.563  34.006   6.464
 5614POPC   C2B71096  41.583  34.039   6.764
 5614POPC   C3B71097  41.531  34.085   7.064
 5614POPC   C4B71098  41.582  34.010   7.364
 5615POPC   NC371099  36.886  19.863   5.564
 5615POPC   PO471100  36.857  19.884   5.864
 5615POPC   GL171101  36.857  19.848   6.164
 5615POPC   GL271102  36.855  19.754   6.164
 5615POPC   C1A71103  36.879  19.819   6.464
 5615POPC   D2A71104  36.951  19.812   6.764
 5615POPC   C3A71105  36.887  19.823   7.064
 5615POPC   C4A71106  36.884  19.879   7.364
 5615POPC   C1B71107  36.714  19.709   6.464
 5615POPC   C2B71108  36.710  19.631   6.764
 5615POPC   C3B71109  36.727  19.682   7.064
 5615POPC   C4B71110  36.760  19.717   7.364
 5616POPC   NC371111  34.581  30.675   5.564
 5616POPC   PO471112  34.581  30.715   5.864
 5616POPC   GL171113  34.572  30.692   6.164
 5616POPC   GL271114  34.642  30.819   6.164
 5616POPC   C1A71115  34.534  30.667   6.464
 5616POPC   D2A71116  34.586  30.688   6.764
 5616POPC   C3A71117  34.565  30.715   7.064
 5616POPC   C4A71118  34.558  30.656   7.364
 5616POPC   C1B71119  34.728  30.900   6.464
 5616POPC   C2B71120  34.745  30.893   6.764
 5616POPC   C3B71121  34.789  30.861   7.064
 5616POPC   C4B71122  34.710  30.864   7.364
 5617POPC   NC371123  43.105   7.373   5.564
 5617POPC   PO471124  43.136   7.421   5.864
 5617POPC   GL171125  43.118   7.389   6.164
 5617POPC   GL271126  43.148   7.372   6.164
 5617POPC   C1A71127  43.147   7.448   6.464
 5617POPC   D2A71128  43.116   7.394   6.764
 5617POPC   C3A71129  43.117   7.451   7.064
 5617POPC   C4A71130  43.097   7.398   7.364
 5617POPC   C1B71131  43.282   7.203   6.464
 5617POPC   C2B71132  43.250   7.223   6.764
 5617POPC   C3B71133  43.309   7.247   7.064
 5617POPC   C4B71134  43.242   7.261   7.364
 5618POPC   NC371135   2.754  19.051   5.564
 5618POPC   PO471136   2.795  19.026   5.864
 5618POPC   GL171137   2.779  19.075   6.164
 5618POPC   GL271138   2.617  19.037   6.164
 5618POPC   C1A71139   2.804  19.105   6.464
 5618POPC   D2A71140   2.760  19.044   6.764
 5618POPC   C3A71141   2.790  19.082   7.064
 5618POPC   C4A71142   2.734  19.102   7.364
 5618POPC   C1B71143   2.513  19.005   6.464
 5618POPC   C2B71144   2.531  18.967   6.764
 5618POPC   C3B71145   2.506  19.009   7.064
 5618POPC   C4B71146   2.484  19.037   7.364
 5619POPC   NC371147  18.273   5.092   5.564
 5619POPC   PO471148  18.249   5.097   5.864
 5619POPC   GL171149  18.273   5.123   6.164
 5619POPC   GL271150  18.244   5.189   6.164
 5619POPC   C1A71151  18.246   5.075   6.464
 5619POPC   D2A71152  18.312   5.060   6.764
 5619POPC   C3A71153  18.234   5.126   7.064
 5619POPC   C4A71154  18.326   5.112   7.364
 5619POPC   C1B71155  18.244   5.386   6.464
 5619POPC   C2B71156  18.193   5.373   6.764
 5619POPC   C3B71157  18.202   5.316   7.064
 5619POPC   C4B71158  18.201   5.343   7.364
 5620POPC   NC371159  19.022  19.882   5.564
 5620POPC   PO471160  19.016  19.802   5.864
 5620POPC   GL171161  19.034  19.831   6.164
 5620POPC   GL271162  18.935  19.744   6.164
 5620POPC   C1A71163  19.027  19.837   6.464
 5620POPC   D2A71164  19.075  19.852   6.764
 5620POPC   C3A71165  19.090  19.828   7.064
 5620POPC   C4A71166  19.048  19.862   7.364
 5620POPC   C1B71167  18.849  19.666   6.464
 5620POPC   C2B71168  18.878  19.659   6.764
 5620POPC   C3B71169  18.834  19.710   7.064
 5620POPC   C4B71170  18.833  19.706   7.364
 5621POPC   NC371171   1.941  18.311   5.564
 5621POPC   PO471172   2.022  18.240   5.864
 5621POPC   GL171173   1.956  18.283   6.164
 5621POPC   GL271174   2.068  18.392   6.164
 5621POPC   C1A71175   1.943  18.274   6.464
 5621POPC   D2A71176   2.016  18.278   6.764
 5621POPC   C3A71177   2.033  18.281   7.064
 5621POPC   C4A71178   1.979  18.266   7.364
 5621POPC   C1B71179   2.074  18.532   6.464
 5621POPC   C2B71180   2.126  18.504   6.764
 5621POPC   C3B71181   2.143  18.539   7.064
 5621POPC   C4B71182   2.099  18.525   7.364
 5622POPC   NC371183  19.033  33.758   5.564
 5622POPC   PO471184  19.025  33.781   5.864
 5622POPC   GL171185  19.101  33.782   6.164
 5622POPC   GL271186  19.028  33.920   6.164
 5622POPC   C1A71187  19.033  33.811   6.464
 5622POPC   D2A71188  19.029  33.830   6.764
 5622POPC   C3A71189  19.088  33.769   7.064
 5622POPC   C4A71190  19.100  33.835   7.364
 5622POPC   C1B71191  19.027  34.096   6.464
 5622POPC   C2B71192  19.095  34.022   6.764
 5622POPC   C3B71193  19.063  34.071   7.064
 5622POPC   C4B71194  19.080  34.062   7.364
 5623POPC   NC371195  29.922  42.350   5.564
 5623POPC   PO471196  29.955  42.330   5.864
 5623POPC   GL171197  29.934  42.350   6.164
 5623POPC   GL271198  29.817  42.375   6.164
 5623POPC   C1A71199  29.917  42.338   6.464
 5623POPC   D2A71200  29.965  42.292   6.764
 5623POPC   C3A71201  29.913  42.382   7.064
 5623POPC   C4A71202  29.882  42.324   7.364
 5623POPC   C1B71203  29.704  42.436   6.464
 5623POPC   C2B71204  29.719  42.432   6.764
 5623POPC   C3B71205  29.666  42.359   7.064
 5623POPC   C4B71206  29.697  42.373   7.364
 5624POPC   NC371207   7.426  15.999   5.564
 5624POPC   PO471208   7.388  16.000   5.864
 5624POPC   GL171209   7.408  15.981   6.164
 5624POPC   GL271210   7.314  15.824   6.164
 5624POPC   C1A71211   7.375  15.958   6.464
 5624POPC   D2A71212   7.389  15.951   6.764
 5624POPC   C3A71213   7.466  15.964   7.064
 5624POPC   C4A71214   7.409  15.922   7.364
 5624POPC   C1B71215   7.282  15.704   6.464
 5624POPC   C2B71216   7.276  15.725   6.764
 5624POPC   C3B71217   7.283  15.779   7.064
 5624POPC   C4B71218   7.331  15.707   7.364
 5625POPC   NC371219  34.578  43.913   5.564
 5625POPC   PO471220  34.604  43.911   5.864
 5625POPC   GL171221  34.569  43.846   6.164
 5625POPC   GL271222  34.643  43.966   6.164
 5625POPC   C1A71223  34.588  43.883   6.464
 5625POPC   D2A71224  34.584  43.907   6.764
 5625POPC   C3A71225  34.543  43.851   7.064
 5625POPC   C4A71226  34.618  43.843   7.364
 5625POPC   C1B71227  34.806  43.977   6.464
 5625POPC   C2B71228  34.792  44.048   6.764
 5625POPC   C3B71229  34.802  43.963   7.064
 5625POPC   C4B71230  34.776  44.002   7.364
 5626POPC   NC371231   3.551   2.776   5.564
 5626POPC   PO471232   3.522   2.739   5.864
 5626POPC   GL171233   3.588   2.779   6.164
 5626POPC   GL271234   3.460   2.760   6.164
 5626POPC   C1A71235   3.536   2.731   6.464
 5626POPC   D2A71236   3.576   2.808   6.764
 5626POPC   C3A71237   3.565   2.802   7.064
 5626POPC   C4A71238   3.515   2.799   7.364
 5626POPC   C1B71239   3.301   2.805   6.464
 5626POPC   C2B71240   3.253   2.831   6.764
 5626POPC   C3B71241   3.327   2.802   7.064
 5626POPC   C4B71242   3.319   2.850   7.364
 5627POPC   NC371243  19.856   1.174   5.564
 5627POPC   PO471244  19.823   1.230   5.864
 5627POPC   GL171245  19.842   1.211   6.164
 5627POPC   GL271246  19.723   1.259   6.164
 5627POPC   C1A71247  19.839   1.203   6.464
 5627POPC   D2A71248  19.801   1.216   6.764
 5627POPC   C3A71249  19.839   1.189   7.064
 5627POPC   C4A71250  19.838   1.165   7.364
 5627POPC   C1B71251  19.539   1.261   6.464
 5627POPC   C2B71252  19.577   1.177   6.764
 5627POPC   C3B71253  19.608   1.191   7.064
 5627POPC   C4B71254  19.543   1.255   7.364
 5628POPC   NC371255  14.400  36.917   5.564
 5628POPC   PO471256  14.414  36.878   5.864
 5628POPC   GL171257  14.432  36.934   6.164
 5628POPC   GL271258  14.322  37.012   6.164
 5628POPC   C1A71259  14.389  36.891   6.464
 5628POPC   D2A71260  14.440  36.909   6.764
 5628POPC   C3A71261  14.418  36.898   7.064
 5628POPC   C4A71262  14.431  36.866   7.364
 5628POPC   C1B71263  14.347  37.178   6.464
 5628POPC   C2B71264  14.312  37.132   6.764
 5628POPC   C3B71265  14.341  37.169   7.064
 5628POPC   C4B71266  14.293  37.097   7.364
 5629POPC   NC371267  13.643  44.656   5.564
 5629POPC   PO471268  13.628  44.638   5.864
 5629POPC   GL171269  13.611  44.625   6.164
 5629POPC   GL271270  13.648  44.826   6.164
 5629POPC   C1A71271  13.646  44.651   6.464
 5629POPC   D2A71272  13.669  44.637   6.764
 5629POPC   C3A71273  13.583  44.646   7.064
 5629POPC   C4A71274  13.648  44.706   7.364
 5629POPC   C1B71275  13.628  44.882   6.464
 5629POPC   C2B71276  13.655  44.939   6.764
 5629POPC   C3B71277  13.604  44.922   7.064
 5629POPC   C4B71278  13.614  44.923   7.364
 5630POPC   NC371279  23.703  22.932   5.564
 5630POPC   PO471280  23.680  22.899   5.864
 5630POPC   GL171281  23.712  22.904   6.164
 5630POPC   GL271282  23.773  22.839   6.164
 5630POPC   C1A71283  23.762  22.898   6.464
 5630POPC   D2A71284  23.762  22.892   6.764
 5630POPC   C3A71285  23.727  22.983   7.064
 5630POPC   C4A71286  23.736  22.954   7.364
 5630POPC   C1B71287  23.853  22.719   6.464
 5630POPC   C2B71288  23.819  22.692   6.764
 5630POPC   C3B71289  23.875  22.706   7.064
 5630POPC   C4B71290  23.821  22.760   7.364
 5631POPC   NC371291  39.965  37.663   5.564
 5631POPC   PO471292  40.027  37.696   5.864
 5631POPC   GL171293  40.000  37.668   6.164
 5631POPC   GL271294  39.977  37.540   6.164
 5631POPC   C1A71295  39.968  37.717   6.464
 5631POPC   D2A71296  40.042  37.649   6.764
 5631POPC   C3A71297  40.040  37.674   7.064
 5631POPC   C4A71298  40.002  37.689   7.364
 5631POPC   C1B71299  39.924  37.468   6.464
 5631POPC   C2B71300  39.888  37.427   6.764
 5631POPC   C3B71301  39.870  37.487   7.064
 5631POPC   C4B71302  39.868  37.473   7.364
 5632POPC   NC371303  22.159  30.731   5.564
 5632POPC   PO471304  22.178  30.649   5.864
 5632POPC   GL171305  22.187  30.676   6.164
 5632POPC   GL271306  22.179  30.540   6.164
 5632POPC   C1A71307  22.173  30.659   6.464
 5632POPC   D2A71308  22.157  30.649   6.764
 5632POPC   C3A71309  22.131  30.672   7.064
 5632POPC   C4A71310  22.147  30.737   7.364
 5632POPC   C1B71311  22.223  30.455   6.464
 5632POPC   C2B71312  22.224  30.487   6.764
 5632POPC   C3B71313  22.153  30.438   7.064
 5632POPC   C4B71314  22.152  30.454   7.364
 5633POPC   NC371315  24.442   6.603   5.564
 5633POPC   PO471316  24.482   6.661   5.864
 5633POPC   GL171317  24.524   6.666   6.164
 5633POPC   GL271318  24.362   6.551   6.164
 5633POPC   C1A71319  24.526   6.599   6.464
 5633POPC   D2A71320  24.470   6.595   6.764
 5633POPC   C3A71321  24.469   6.693   7.064
 5633POPC   C4A71322  24.502   6.648   7.364
 5633POPC   C1B71323  24.252   6.552   6.464
 5633POPC   C2B71324  24.261   6.550   6.764
 5633POPC   C3B71325  24.281   6.554   7.064
 5633POPC   C4B71326  24.302   6.555   7.364
 5634POPC   NC371327  15.159  31.461   5.564
 5634POPC   PO471328  15.222  31.475   5.864
 5634POPC   GL171329  15.204  31.468   6.164
 5634POPC   GL271330  15.040  31.488   6.164
 5634POPC   C1A71331  15.167  31.432   6.464
 5634POPC   D2A71332  15.210  31.482   6.764
 5634POPC   C3A71333  15.181  31.468   7.064
 5634POPC   C4A71334  15.198  31.423   7.364
 5634POPC   C1B71335  14.900  31.542   6.464
 5634POPC   C2B71336  14.962  31.545   6.764
 5634POPC   C3B71337  14.975  31.589   7.064
 5634POPC   C4B71338  14.967  31.520   7.364
 5635POPC   NC371339   1.961  12.849   5.564
 5635POPC   PO471340   1.966  12.857   5.864
 5635POPC   GL171341   2.010  12.836   6.164
 5635POPC   GL271342   1.862  12.803   6.164
 5635POPC   C1A71343   2.021  12.895   6.464
 5635POPC   D2A71344   2.029  12.868   6.764
 5635POPC   C3A71345   1.992  12.819   7.064
 5635POPC   C4A71346   2.011  12.811   7.364
 5635POPC   C1B71347   1.719  12.834   6.464
 5635POPC   C2B71348   1.752  12.860   6.764
 5635POPC   C3B71349   1.730  12.842   7.064
 5635POPC   C4B71350   1.770  12.868   7.364
 5636POPC   NC371351  12.864  21.338   5.564
 5636POPC   PO471352  12.849  21.346   5.864
 5636POPC   GL171353  12.902  21.364   6.164
 5636POPC   GL271354  12.791  21.244   6.164
 5636POPC   C1A71355  12.864  21.344   6.464
 5636POPC   D2A71356  12.862  21.416   6.764
 5636POPC   C3A71357  12.888  21.353   7.064
 5636POPC   C4A71358  12.810  21.358   7.364
 5636POPC   C1B71359  12.713  21.130   6.464
 5636POPC   C2B71360  12.763  21.175   6.764
 5636POPC   C3B71361  12.781  21.188   7.064
 5636POPC   C4B71362  12.770  21.149   7.364
 5637POPC   NC371363  19.837  36.080   5.564
 5637POPC   PO471364  19.792  36.165   5.864
 5637POPC   GL171365  19.786  36.098   6.164
 5637POPC   GL271366  19.865  36.254   6.164
 5637POPC   C1A71367  19.800  36.159   6.464
 5637POPC   D2A71368  19.795  36.167   6.764
 5637POPC   C3A71369  19.859  36.135   7.064
 5637POPC   C4A71370  19.872  36.150   7.364
 5637POPC   C1B71371  19.929  36.339   6.464
 5637POPC   C2B71372  19.957  36.316   6.764
 5637POPC   C3B71373  19.930  36.351   7.064
 5637POPC   C4B71374  19.971  36.327   7.364
 5638POPC   NC371375   9.772  18.320   5.564
 5638POPC   PO471376   9.764  18.282   5.864
 5638POPC   GL171377   9.722  18.254   6.164
 5638POPC   GL271378   9.644  18.249   6.164
 5638POPC   C1A71379   9.794  18.314   6.464
 5638POPC   D2A71380   9.759  18.244   6.764
 5638POPC   C3A71381   9.756  18.259   7.064
 5638POPC   C4A71382   9.785  18.260   7.364
 5638POPC   C1B71383   9.538  18.266   6.464
 5638POPC   C2B71384   9.504  18.322   6.764
 5638POPC   C3B71385   9.533  18.334   7.064
 5638POPC   C4B71386   9.519  18.268   7.364
 5639POPC   NC371387  34.600   5.138   5.564
 5639POPC   PO471388  34.566   5.141   5.864
 5639POPC   GL171389  34.579   5.093   6.164
 5639POPC   GL271390  34.456   5.071   6.164
 5639POPC   C1A71391  34.528   5.086   6.464
 5639POPC   D2A71392  34.561   5.045   6.764
 5639POPC   C3A71393  34.547   5.134   7.064
 5639POPC   C4A71394  34.579   5.045   7.364
 5639POPC   C1B71395  34.317   5.089   6.464
 5639POPC   C2B71396  34.320   5.083   6.764
 5639POPC   C3B71397  34.325   5.070   7.064
 5639POPC   C4B71398  34.368   5.023   7.364
 5640POPC   NC371399  16.715  36.103   5.564
 5640POPC   PO471400  16.752  36.142   5.864
 5640POPC   GL171401  16.776  36.098   6.164
 5640POPC   GL271402  16.755  36.287   6.164
 5640POPC   C1A71403  16.708  36.134   6.464
 5640POPC   D2A71404  16.692  36.101   6.764
 5640POPC   C3A71405  16.718  36.134   7.064
 5640POPC   C4A71406  16.735  36.078   7.364
 5640POPC   C1B71407  16.679  36.406   6.464
 5640POPC   C2B71408  16.723  36.405   6.764
 5640POPC   C3B71409  16.688  36.377   7.064
 5640POPC   C4B71410  16.667  36.390   7.364
 5641POPC   NC371411  23.708   5.076   5.564
 5641POPC   PO471412  23.712   5.082   5.864
 5641POPC   GL171413  23.687   5.118   6.164
 5641POPC   GL271414  23.745   5.031   6.164
 5641POPC   C1A71415  23.698   5.142   6.464
 5641POPC   D2A71416  23.736   5.121   6.764
 5641POPC   C3A71417  23.712   5.052   7.064
 5641POPC   C4A71418  23.712   5.115   7.364
 5641POPC   C1B71419  23.879   4.915   6.464
 5641POPC   C2B71420  23.842   4.854   6.764
 5641POPC   C3B71421  23.822   4.834   7.064
 5641POPC   C4B71422  23.799   4.868   7.364
 5642POPC   NC371423  21.386   3.540   5.564
 5642POPC   PO471424  21.431   3.551   5.864
 5642POPC   GL171425  21.403   3.536   6.164
 5642POPC   GL271426  21.483   3.531   6.164
 5642POPC   C1A71427  21.410   3.528   6.464
 5642POPC   D2A71428  21.399   3.502   6.764
 5642POPC   C3A71429  21.377   3.546   7.064
 5642POPC   C4A71430  21.379   3.506   7.364
 5642POPC   C1B71431  21.651   3.458   6.464
 5642POPC   C2B71432  21.677   3.468   6.764
 5642POPC   C3B71433  21.598   3.465   7.064
 5642POPC   C4B71434  21.601   3.539   7.364
 5643POPC   NC371435  36.164  16.691   5.564
 5643POPC   PO471436  36.160  16.750   5.864
 5643POPC   GL171437  36.100  16.683   6.164
 5643POPC   GL271438  36.164  16.618   6.164
 5643POPC   C1A71439  36.079  16.688   6.464
 5643POPC   D2A71440  36.167  16.714   6.764
 5643POPC   C3A71441  36.108  16.775   7.064
 5643POPC   C4A71442  36.162  16.718   7.364
 5643POPC   C1B71443  36.163  16.534   6.464
 5643POPC   C2B71444  36.192  16.447   6.764
 5643POPC   C3B71445  36.179  16.454   7.064
 5643POPC   C4B71446  36.172  16.475   7.364
 5644POPC   NC371447  43.065  15.134   5.564
 5644POPC   PO471448  43.086  15.133   5.864
 5644POPC   GL171449  43.109  15.195   6.164
 5644POPC   GL271450  43.104  15.102   6.164
 5644POPC   C1A71451  43.140  15.201   6.464
 5644POPC   D2A71452  43.065  15.172   6.764
 5644POPC   C3A71453  43.159  15.132   7.064
 5644POPC   C4A71454  43.122  15.225   7.364
 5644POPC   C1B71455  42.999  14.922   6.464
 5644POPC   C2B71456  43.018  14.996   6.764
 5644POPC   C3B71457  42.984  14.956   7.064
 5644POPC   C4B71458  43.063  14.961   7.364
 5645POPC   NC371459  36.913  32.249   5.564
 5645POPC   PO471460  36.887  32.248   5.864
 5645POPC   GL171461  36.878  32.206   6.164
 5645POPC   GL271462  36.794  32.168   6.164
 5645POPC   C1A71463  36.876  32.286   6.464
 5645POPC   D2A71464  36.920  32.207   6.764
 5645POPC   C3A71465  36.908  32.240   7.064
 5645POPC   C4A71466  36.857  32.293   7.364
 5645POPC   C1B71467  36.694  32.190   6.464
 5645POPC   C2B71468  36.631  32.183   6.764
 5645POPC   C3B71469  36.695  32.127   7.064
 5645POPC   C4B71470  36.698  32.182   7.364
 5646POPC   NC371471  26.021  11.315   5.564
 5646POPC   PO471472  26.009  11.272   5.864
 5646POPC   GL171473  26.080  11.319   6.164
 5646POPC   GL271474  25.972  11.178   6.164
 5646POPC   C1A71475  26.084  11.333   6.464
 5646POPC   D2A71476  26.064  11.288   6.764
 5646POPC   C3A71477  26.090  11.271   7.064
 5646POPC   C4A71478  25.996  11.322   7.364
 5646POPC   C1B71479  25.926  11.098   6.464
 5646POPC   C2B71480  25.954  11.047   6.764
 5646POPC   C3B71481  25.980  11.077   7.064
 5646POPC   C4B71482  25.989  11.111   7.364
 5647POPC   NC371483  12.115  11.346   5.564
 5647POPC   PO471484  12.119  11.325   5.864
 5647POPC   GL171485  12.035  11.264   6.164
 5647POPC   GL271486  12.154  11.263   6.164
 5647POPC   C1A71487  12.091  11.270   6.464
 5647POPC   D2A71488  12.075  11.267   6.764
 5647POPC   C3A71489  12.050  11.326   7.064
 5647POPC   C4A71490  12.101  11.346   7.364
 5647POPC   C1B71491  12.330  11.265   6.464
 5647POPC   C2B71492  12.306  11.286   6.764
 5647POPC   C3B71493  12.363  11.240   7.064
 5647POPC   C4B71494  12.306  11.277   7.364
 5648POPC   NC371495  39.229   7.405   5.564
 5648POPC   PO471496  39.281   7.392   5.864
 5648POPC   GL171497  39.262   7.438   6.164
 5648POPC   GL271498  39.166   7.463   6.164
 5648POPC   C1A71499  39.207   7.413   6.464
 5648POPC   D2A71500  39.210   7.387   6.764
 5648POPC   C3A71501  39.187   7.411   7.064
 5648POPC   C4A71502  39.189   7.462   7.364
 5648POPC   C1B71503  39.030   7.570   6.464
 5648POPC   C2B71504  38.981   7.573   6.764
 5648POPC   C3B71505  39.069   7.561   7.064
 5648POPC   C4B71506  38.986   7.572   7.364
 5649POPC   NC371507  44.660   6.671   5.564
 5649POPC   PO471508  44.689   6.638   5.864
 5649POPC   GL171509  44.627   6.682   6.164
 5649POPC   GL271510  44.533   6.743   6.164
 5649POPC   C1A71511  44.679   6.667   6.464
 5649POPC   D2A71512  44.688   6.612   6.764
 5649POPC   C3A71513  44.690   6.651   7.064
 5649POPC   C4A71514  44.701   6.642   7.364
 5649POPC   C1B71515  44.512   6.846   6.464
 5649POPC   C2B71516  44.498   6.816   6.764
 5649POPC   C3B71517  44.504   6.782   7.064
 5649POPC   C4B71518  44.478   6.817   7.364
 5650POPC   NC371519  29.132  43.132   5.564
 5650POPC   PO471520  29.132  43.070   5.864
 5650POPC   GL171521  29.190  43.142   6.164
 5650POPC   GL271522  29.157  43.024   6.164
 5650POPC   C1A71523  29.128  43.138   6.464
 5650POPC   D2A71524  29.195  43.097   6.764
 5650POPC   C3A71525  29.101  43.092   7.064
 5650POPC   C4A71526  29.141  43.094   7.364
 5650POPC   C1B71527  29.137  42.911   6.464
 5650POPC   C2B71528  29.137  42.867   6.764
 5650POPC   C3B71529  29.078  42.871   7.064
 5650POPC   C4B71530  29.118  42.898   7.364
 5651POPC   NC371531  33.766  39.198   5.564
 5651POPC   PO471532  33.832  39.231   5.864
 5651POPC   GL171533  33.769  39.251   6.164
 5651POPC   GL271534  33.930  39.315   6.164
 5651POPC   C1A71535  33.830  39.272   6.464
 5651POPC   D2A71536  33.842  39.226   6.764
 5651POPC   C3A71537  33.758  39.260   7.064
 5651POPC   C4A71538  33.809  39.232   7.364
 5651POPC   C1B71539  34.073  39.339   6.464
 5651POPC   C2B71540  33.990  39.293   6.764
 5651POPC   C3B71541  34.037  39.291   7.064
 5651POPC   C4B71542  33.979  39.292   7.364
 5652POPC   NC371543  44.699  19.836   5.564
 5652POPC   PO471544  44.689  19.841   5.864
 5652POPC   GL171545  44.616  19.857   6.164
 5652POPC   GL271546  44.657  19.907   6.164
 5652POPC   C1A71547  44.660  19.804   6.464
 5652POPC   D2A71548  44.647  19.796   6.764
 5652POPC   C3A71549  44.619  19.793   7.064
 5652POPC   C4A71550  44.656  19.803   7.364
 5652POPC   C1B71551  44.743  20.116   6.464
 5652POPC   C2B71552  44.722  20.116   6.764
 5652POPC   C3B71553  44.734  20.117   7.064
 5652POPC   C4B71554  44.699  20.100   7.364
 5653POPC   NC371555   2.726  33.043   5.564
 5653POPC   PO471556   2.740  33.005   5.864
 5653POPC   GL171557   2.783  33.019   6.164
 5653POPC   GL271558   2.850  33.157   6.164
 5653POPC   C1A71559   2.762  33.027   6.464
 5653POPC   D2A71560   2.718  33.058   6.764
 5653POPC   C3A71561   2.783  32.982   7.064
 5653POPC   C4A71562   2.783  33.040   7.364
 5653POPC   C1B71563   2.854  33.241   6.464
 5653POPC   C2B71564   2.911  33.193   6.764
 5653POPC   C3B71565   2.936  33.287   7.064
 5653POPC   C4B71566   2.873  33.242   7.364
 5654POPC   NC371567  36.887  24.489   5.564
 5654POPC   PO471568  36.883  24.475   5.864
 5654POPC   GL171569  36.874  24.467   6.164
 5654POPC   GL271570  36.794  24.409   6.164
 5654POPC   C1A71571  36.897  24.539   6.464
 5654POPC   D2A71572  36.859  24.526   6.764
 5654POPC   C3A71573  36.906  24.512   7.064
 5654POPC   C4A71574  36.855  24.523   7.364
 5654POPC   C1B71575  36.778  24.325   6.464
 5654POPC   C2B71576  36.746  24.289   6.764
 5654POPC   C3B71577  36.785  24.278   7.064
 5654POPC   C4B71578  36.796  24.277   7.364
 5655POPC   NC371579  34.582  36.100   5.564
 5655POPC   PO471580  34.615  36.089   5.864
 5655POPC   GL171581  34.625  36.159   6.164
 5655POPC   GL271582  34.737  36.130   6.164
 5655POPC   C1A71583  34.607  36.153   6.464
 5655POPC   D2A71584  34.589  36.143   6.764
 5655POPC   C3A71585  34.528  36.093   7.064
 5655POPC   C4A71586  34.614  36.177   7.364
 5655POPC   C1B71587  34.781  36.034   6.464
 5655POPC   C2B71588  34.841  36.066   6.764
 5655POPC   C3B71589  34.830  36.046   7.064
 5655POPC   C4B71590  34.773  36.021   7.364
 5656POPC   NC371591   3.569  36.155   5.564
 5656POPC   PO471592   3.591  36.100   5.864
 5656POPC   GL171593   3.531  36.140   6.164
 5656POPC   GL271594   3.621  36.108   6.164
 5656POPC   C1A71595   3.511  36.091   6.464
 5656POPC   D2A71596   3.517  36.103   6.764
 5656POPC   C3A71597   3.588  36.122   7.064
 5656POPC   C4A71598   3.570  36.119   7.364
 5656POPC   C1B71599   3.784  36.204   6.464
 5656POPC   C2B71600   3.758  36.178   6.764
 5656POPC   C3B71601   3.769  36.138   7.064
 5656POPC   C4B71602   3.790  36.178   7.364
 5657POPC   NC371603  22.940  14.385   5.564
 5657POPC   PO471604  22.973  14.395   5.864
 5657POPC   GL171605  22.889  14.371   6.164
 5657POPC   GL271606  22.834  14.415   6.164
 5657POPC   C1A71607  22.896  14.370   6.464
 5657POPC   D2A71608  22.939  14.408   6.764
 5657POPC   C3A71609  22.942  14.391   7.064
 5657POPC   C4A71610  22.919  14.391   7.364
 5657POPC   C1B71611  22.706  14.395   6.464
 5657POPC   C2B71612  22.686  14.458   6.764
 5657POPC   C3B71613  22.646  14.427   7.064
 5657POPC   C4B71614  22.662  14.438   7.364
 5658POPC   NC371615   9.018   1.991   5.564
 5658POPC   PO471616   8.995   1.967   5.864
 5658POPC   GL171617   8.989   1.991   6.164
 5658POPC   GL271618   8.926   2.122   6.164
 5658POPC   C1A71619   8.998   1.941   6.464
 5658POPC   D2A71620   9.005   1.997   6.764
 5658POPC   C3A71621   8.929   2.001   7.064
 5658POPC   C4A71622   9.013   1.997   7.364
 5658POPC   C1B71623   8.773   2.224   6.464
 5658POPC   C2B71624   8.801   2.198   6.764
 5658POPC   C3B71625   8.831   2.212   7.064
 5658POPC   C4B71626   8.820   2.206   7.364
 5659POPC   NC371627  32.294   1.179   5.564
 5659POPC   PO471628  32.297   1.233   5.864
 5659POPC   GL171629  32.256   1.246   6.164
 5659POPC   GL271630  32.269   1.376   6.164
 5659POPC   C1A71631  32.295   1.233   6.464
 5659POPC   D2A71632  32.296   1.250   6.764
 5659POPC   C3A71633  32.270   1.257   7.064
 5659POPC   C4A71634  32.288   1.216   7.364
 5659POPC   C1B71635  32.229   1.489   6.464
 5659POPC   C2B71636  32.267   1.418   6.764
 5659POPC   C3B71637  32.221   1.440   7.064
 5659POPC   C4B71638  32.292   1.493   7.364
 5660POPC   NC371639  33.843   5.048   5.564
 5660POPC   PO471640  33.761   5.126   5.864
 5660POPC   GL171641  33.812   5.074   6.164
 5660POPC   GL271642  33.714   5.091   6.164
 5660POPC   C1A71643  33.805   5.066   6.464
 5660POPC   D2A71644  33.828   5.135   6.764
 5660POPC   C3A71645  33.819   5.095   7.064
 5660POPC   C4A71646  33.752   5.078   7.364
 5660POPC   C1B71647  33.535   5.137   6.464
 5660POPC   C2B71648  33.504   5.118   6.764
 5660POPC   C3B71649  33.559   5.164   7.064
 5660POPC   C4B71650  33.564   5.099   7.364
 5661POPC   NC371651  37.687  10.568   5.564
 5661POPC   PO471652  37.722  10.536   5.864
 5661POPC   GL171653  37.721  10.541   6.164
 5661POPC   GL271654  37.746  10.630   6.164
 5661POPC   C1A71655  37.665  10.541   6.464
 5661POPC   D2A71656  37.718  10.542   6.764
 5661POPC   C3A71657  37.645  10.550   7.064
 5661POPC   C4A71658  37.707  10.521   7.364
 5661POPC   C1B71659  37.778  10.771   6.464
 5661POPC   C2B71660  37.817  10.792   6.764
 5661POPC   C3B71661  37.832  10.793   7.064
 5661POPC   C4B71662  37.761  10.778   7.364
 5662POPC   NC371663  29.133  44.681   5.564
 5662POPC   PO471664  29.141  44.675   5.864
 5662POPC   GL171665  29.111  44.659   6.164
 5662POPC   GL271666  29.185  44.768   6.164
 5662POPC   C1A71667  29.160  44.647   6.464
 5662POPC   D2A71668  29.162  44.620   6.764
 5662POPC   C3A71669  29.146  44.619   7.064
 5662POPC   C4A71670  29.121  44.681   7.364
 5662POPC   C1B71671  29.230  44.855   6.464
 5662POPC   C2B71672  29.272  44.842   6.764
 5662POPC   C3B71673  29.255  44.851   7.064
 5662POPC   C4B71674  29.220  44.864   7.364
 5663POPC   NC371675  31.453   3.502   5.564
 5663POPC   PO471676  31.423   3.498   5.864
 5663POPC   GL171677  31.424   3.537   6.164
 5663POPC   GL271678  31.331   3.594   6.164
 5663POPC   C1A71679  31.487   3.588   6.464
 5663POPC   D2A71680  31.512   3.541   6.764
 5663POPC   C3A71681  31.484   3.520   7.064
 5663POPC   C4A71682  31.517   3.546   7.364
 5663POPC   C1B71683  31.287   3.600   6.464
 5663POPC   C2B71684  31.237   3.584   6.764
 5663POPC   C3B71685  31.194   3.626   7.064
 5663POPC   C4B71686  31.250   3.627   7.364
 5664POPC   NC371687  22.964   5.854   5.564
 5664POPC   PO471688  22.977   5.849   5.864
 5664POPC   GL171689  22.917   5.851   6.164
 5664POPC   GL271690  22.907   5.750   6.164
 5664POPC   C1A71691  22.958   5.832   6.464
 5664POPC   D2A71692  22.951   5.855   6.764
 5664POPC   C3A71693  22.893   5.859   7.064
 5664POPC   C4A71694  22.949   5.843   7.364
 5664POPC   C1B71695  22.843   5.599   6.464
 5664POPC   C2B71696  22.846   5.642   6.764
 5664POPC   C3B71697  22.828   5.653   7.064
 5664POPC   C4B71698  22.876   5.634   7.364
 5665POPC   NC371699  39.201  17.554   5.564
 5665POPC   PO471700  39.212  17.465   5.864
 5665POPC   GL171701  39.280  17.517   6.164
 5665POPC   GL271702  39.166  17.360   6.164
 5665POPC   C1A71703  39.192  17.498   6.464
 5665POPC   D2A71704  39.200  17.546   6.764
 5665POPC   C3A71705  39.212  17.523   7.064
 5665POPC   C4A71706  39.203  17.524   7.364
 5665POPC   C1B71707  39.122  17.247   6.464
 5665POPC   C2B71708  39.082  17.287   6.764
 5665POPC   C3B71709  39.081  17.241   7.064
 5665POPC   C4B71710  39.116  17.290   7.364
 5666POPC   NC371711   9.772  20.592   5.564
 5666POPC   PO471712   9.768  20.647   5.864
 5666POPC   GL171713   9.722  20.635   6.164
 5666POPC   GL271714   9.714  20.460   6.164
 5666POPC   C1A71715   9.731  20.611   6.464
 5666POPC   D2A71716   9.791  20.563   6.764
 5666POPC   C3A71717   9.701  20.572   7.064
 5666POPC   C4A71718   9.702  20.642   7.364
 5666POPC   C1B71719   9.721  20.337   6.464
 5666POPC   C2B71720   9.733  20.405   6.764
 5666POPC   C3B71721   9.699  20.319   7.064
 5666POPC   C4B71722   9.724  20.360   7.364
 5667POPC   NC371723   8.245  13.644   5.564
 5667POPC   PO471724   8.178  13.595   5.864
 5667POPC   GL171725   8.208  13.614   6.164
 5667POPC   GL271726   8.099  13.652   6.164
 5667POPC   C1A71727   8.214  13.652   6.464
 5667POPC   D2A71728   8.192  13.584   6.764
 5667POPC   C3A71729   8.214  13.638   7.064
 5667POPC   C4A71730   8.218  13.673   7.364
 5667POPC   C1B71731   7.982  13.684   6.464
 5667POPC   C2B71732   7.944  13.657   6.764
 5667POPC   C3B71733   7.903  13.643   7.064
 5667POPC   C4B71734   7.902  13.669   7.364
 5668POPC   NC371735  24.463  25.232   5.564
 5668POPC   PO471736  24.478  25.235   5.864
 5668POPC   GL171737  24.459  25.270   6.164
 5668POPC   GL271738  24.643  25.330   6.164
 5668POPC   C1A71739  24.476  25.299   6.464
 5668POPC   D2A71740  24.479  25.236   6.764
 5668POPC   C3A71741  24.525  25.218   7.064
 5668POPC   C4A71742  24.460  25.291   7.364
 5668POPC   C1B71743  24.665  25.434   6.464
 5668POPC   C2B71744  24.748  25.435   6.764
 5668POPC   C3B71745  24.735  25.393   7.064
 5668POPC   C4B71746  24.692  25.401   7.364
 5669POPC   NC371747  43.070   1.203   5.564
 5669POPC   PO471748  43.160   1.254   5.864
 5669POPC   GL171749  43.152   1.239   6.164
 5669POPC   GL271750  43.115   1.084   6.164
 5669POPC   C1A71751  43.160   1.172   6.464
 5669POPC   D2A71752  43.159   1.251   6.764
 5669POPC   C3A71753  43.103   1.218   7.064
 5669POPC   C4A71754  43.112   1.180   7.364
 5669POPC   C1B71755  43.058   0.969   6.464
 5669POPC   C2B71756  43.052   0.953   6.764
 5669POPC   C3B71757  43.097   1.015   7.064
 5669POPC   C4B71758  43.086   0.989   7.364
 5670POPC   NC371759  16.002   3.502   5.564
 5670POPC   PO471760  15.960   3.556   5.864
 5670POPC   GL171761  15.982   3.591   6.164
 5670POPC   GL271762  15.838   3.543   6.164
 5670POPC   C1A71763  15.969   3.537   6.464
 5670POPC   D2A71764  15.932   3.538   6.764
 5670POPC   C3A71765  15.908   3.579   7.064
 5670POPC   C4A71766  15.960   3.552   7.364
 5670POPC   C1B71767  15.751   3.541   6.464
 5670POPC   C2B71768  15.712   3.565   6.764
 5670POPC   C3B71769  15.656   3.574   7.064
 5670POPC   C4B71770  15.695   3.511   7.364
 5671POPC   NC371771  38.480  41.524   5.564
 5671POPC   PO471772  38.498  41.514   5.864
 5671POPC   GL171773  38.431  41.575   6.164
 5671POPC   GL271774  38.381  41.701   6.164
 5671POPC   C1A71775  38.429  41.516   6.464
 5671POPC   D2A71776  38.414  41.518   6.764
 5671POPC   C3A71777  38.440  41.600   7.064
 5671POPC   C4A71778  38.485  41.528   7.364
 5671POPC   C1B71779  38.355  41.759   6.464
 5671POPC   C2B71780  38.315  41.815   6.764
 5671POPC   C3B71781  38.397  41.813   7.064
 5671POPC   C4B71782  38.384  41.762   7.364
 5672POPC   NC371783  19.862  26.854   5.564
 5672POPC   PO471784  19.848  26.826   5.864
 5672POPC   GL171785  19.809  26.861   6.164
 5672POPC   GL271786  19.713  26.828   6.164
 5672POPC   C1A71787  19.866  26.821   6.464
 5672POPC   D2A71788  19.826  26.800   6.764
 5672POPC   C3A71789  19.808  26.800   7.064
 5672POPC   C4A71790  19.878  26.810   7.364
 5672POPC   C1B71791  19.584  26.799   6.464
 5672POPC   C2B71792  19.544  26.731   6.764
 5672POPC   C3B71793  19.606  26.794   7.064
 5672POPC   C4B71794  19.599  26.726   7.364
 5673POPC   NC371795  12.804  10.530   5.564
 5673POPC   PO471796  12.871  10.502   5.864
 5673POPC   GL171797  12.896  10.482   6.164
 5673POPC   GL271798  12.819  10.427   6.164
 5673POPC   C1A71799  12.815  10.522   6.464
 5673POPC   D2A71800  12.849  10.525   6.764
 5673POPC   C3A71801  12.860  10.495   7.064
 5673POPC   C4A71802  12.890  10.487   7.364
 5673POPC   C1B71803  12.872  10.295   6.464
 5673POPC   C2B71804  12.840  10.320   6.764
 5673POPC   C3B71805  12.889  10.228   7.064
 5673POPC   C4B71806  12.879  10.225   7.364
 5674POPC   NC371807  39.266  29.917   5.564
 5674POPC   PO471808  39.190  29.957   5.864
 5674POPC   GL171809  39.209  29.920   6.164
 5674POPC   GL271810  39.321  30.036   6.164
 5674POPC   C1A71811  39.211  29.952   6.464
 5674POPC   D2A71812  39.233  29.941   6.764
 5674POPC   C3A71813  39.198  29.916   7.064
 5674POPC   C4A71814  39.183  29.878   7.364
 5674POPC   C1B71815  39.364  30.134   6.464
 5674POPC   C2B71816  39.394  30.128   6.764
 5674POPC   C3B71817  39.383  30.104   7.064
 5674POPC   C4B71818  39.372  30.142   7.364
 5675POPC   NC371819  27.600  42.324   5.564
 5675POPC   PO471820  27.543  42.365   5.864
 5675POPC   GL171821  27.597  42.348   6.164
 5675POPC   GL271822  27.527  42.274   6.164
 5675POPC   C1A71823  27.576  42.347   6.464
 5675POPC   D2A71824  27.588  42.384   6.764
 5675POPC   C3A71825  27.565  42.333   7.064
 5675POPC   C4A71826  27.553  42.374   7.364
 5675POPC   C1B71827  27.454  42.115   6.464
 5675POPC   C2B71828  27.470  42.087   6.764
 5675POPC   C3B71829  27.499  42.070   7.064
 5675POPC   C4B71830  27.444  42.165   7.364
 5676POPC   NC371831   2.025  43.861   5.564
 5676POPC   PO471832   1.973  43.840   5.864
 5676POPC   GL171833   1.957  43.858   6.164
 5676POPC   GL271834   1.883  43.888   6.164
 5676POPC   C1A71835   2.009  43.927   6.464
 5676POPC   D2A71836   2.034  43.890   6.764
 5676POPC   C3A71837   1.984  43.903   7.064
 5676POPC   C4A71838   1.999  43.894   7.364
 5676POPC   C1B71839   1.790  43.854   6.464
 5676POPC   C2B71840   1.742  43.831   6.764
 5676POPC   C3B71841   1.746  43.821   7.064
 5676POPC   C4B71842   1.742  43.876   7.364
 5677POPC   NC371843  26.054  27.609   5.564
 5677POPC   PO471844  26.057  27.619   5.864
 5677POPC   GL171845  26.035  27.638   6.164
 5677POPC   GL271846  26.140  27.518   6.164
 5677POPC   C1A71847  26.086  27.547   6.464
 5677POPC   D2A71848  25.995  27.548   6.764
 5677POPC   C3A71849  26.008  27.559   7.064
 5677POPC   C4A71850  26.024  27.587   7.364
 5677POPC   C1B71851  26.281  27.555   6.464
 5677POPC   C2B71852  26.307  27.498   6.764
 5677POPC   C3B71853  26.261  27.498   7.064
 5677POPC   C4B71854  26.309  27.521   7.364
 5678POPC   NC371855  32.976   1.971   5.564
 5678POPC   PO471856  33.061   1.974   5.864
 5678POPC   GL171857  33.072   1.967   6.164
 5678POPC   GL271858  33.140   1.957   6.164
 5678POPC   C1A71859  33.024   1.977   6.464
 5678POPC   D2A71860  33.034   2.022   6.764
 5678POPC   C3A71861  33.023   2.032   7.064
 5678POPC   C4A71862  32.992   2.003   7.364
 5678POPC   C1B71863  33.232   1.987   6.464
 5678POPC   C2B71864  33.318   1.981   6.764
 5678POPC   C3B71865  33.315   1.945   7.064
 5678POPC   C4B71866  33.261   1.950   7.364
 5679POPC   NC371867   9.756   7.428   5.564
 5679POPC   PO471868   9.730   7.401   5.864
 5679POPC   GL171869   9.797   7.439   6.164
 5679POPC   GL271870   9.823   7.360   6.164
 5679POPC   C1A71871   9.759   7.438   6.464
 5679POPC   D2A71872   9.722   7.454   6.764
 5679POPC   C3A71873   9.701   7.375   7.064
 5679POPC   C4A71874   9.741   7.441   7.364
 5679POPC   C1B71875   9.906   7.193   6.464
 5679POPC   C2B71876   9.919   7.186   6.764
 5679POPC   C3B71877   9.900   7.239   7.064
 5679POPC   C4B71878   9.867   7.189   7.364
 5680POPC   NC371879  43.861  38.445   5.564
 5680POPC   PO471880  43.853  38.489   5.864
 5680POPC   GL171881  43.933  38.406   6.164
 5680POPC   GL271882  43.954  38.393   6.164
 5680POPC   C1A71883  43.845  38.425   6.464
 5680POPC   D2A71884  43.840  38.451   6.764
 5680POPC   C3A71885  43.935  38.429   7.064
 5680POPC   C4A71886  43.840  38.474   7.364
 5680POPC   C1B71887  44.105  38.327   6.464
 5680POPC   C2B71888  44.108  38.318   6.764
 5680POPC   C3B71889  44.087  38.349   7.064
 5680POPC   C4B71890  44.055  38.346   7.364
 5681POPC   NC371891   9.726  37.729   5.564
 5681POPC   PO471892   9.708  37.640   5.864
 5681POPC   GL171893   9.702  37.657   6.164
 5681POPC   GL271894   9.639  37.608   6.164
 5681POPC   C1A71895   9.778  37.680   6.464
 5681POPC   D2A71896   9.735  37.662   6.764
 5681POPC   C3A71897   9.784  37.649   7.064
 5681POPC   C4A71898   9.720  37.699   7.364
 5681POPC   C1B71899   9.492  37.626   6.464
 5681POPC   C2B71900   9.544  37.629   6.764
 5681POPC   C3B71901   9.475  37.617   7.064
 5681POPC   C4B71902   9.548  37.605   7.364
 5682POPC   NC371903  11.278  26.005   5.564
 5682POPC   PO471904  11.336  26.057   5.864
 5682POPC   GL171905  11.260  26.091   6.164
 5682POPC   GL271906  11.357  26.077   6.164
 5682POPC   C1A71907  11.332  26.002   6.464
 5682POPC   D2A71908  11.271  26.070   6.764
 5682POPC   C3A71909  11.292  25.999   7.064
 5682POPC   C4A71910  11.334  26.048   7.364
 5682POPC   C1B71911  11.495  26.179   6.464
 5682POPC   C2B71912  11.509  26.188   6.764
 5682POPC   C3B71913  11.512  26.173   7.064
 5682POPC   C4B71914  11.546  26.156   7.364
 5683POPC   NC371915  41.575  40.825   5.564
 5683POPC   PO471916  41.602  40.825   5.864
 5683POPC   GL171917  41.530  40.832   6.164
 5683POPC   GL271918  41.524  40.725   6.164
 5683POPC   C1A71919  41.522  40.800   6.464
 5683POPC   D2A71920  41.524  40.739   6.764
 5683POPC   C3A71921  41.606  40.778   7.064
 5683POPC   C4A71922  41.510  40.740   7.364
 5683POPC   C1B71923  41.432  40.562   6.464
 5683POPC   C2B71924  41.408  40.581   6.764
 5683POPC   C3B71925  41.380  40.634   7.064
 5683POPC   C4B71926  41.399  40.636   7.364
 5684POPC   NC371927  41.593  21.432   5.564
 5684POPC   PO471928  41.543  21.340   5.864
 5684POPC   GL171929  41.527  21.398   6.164
 5684POPC   GL271930  41.461  21.307   6.164
 5684POPC   C1A71931  41.540  21.351   6.464
 5684POPC   D2A71932  41.521  21.370   6.764
 5684POPC   C3A71933  41.536  21.347   7.064
 5684POPC   C4A71934  41.573  21.433   7.364
 5684POPC   C1B71935  41.371  21.251   6.464
 5684POPC   C2B71936  41.410  21.220   6.764
 5684POPC   C3B71937  41.350  21.176   7.064
 5684POPC   C4B71938  41.327  21.227   7.364
 5685POPC   NC371939   6.632   5.075   5.564
 5685POPC   PO471940   6.607   5.104   5.864
 5685POPC   GL171941   6.640   5.113   6.164
 5685POPC   GL271942   6.534   5.161   6.164
 5685POPC   C1A71943   6.684   5.089   6.464
 5685POPC   D2A71944   6.679   5.072   6.764
 5685POPC   C3A71945   6.629   5.055   7.064
 5685POPC   C4A71946   6.690   5.121   7.364
 5685POPC   C1B71947   6.474   5.304   6.464
 5685POPC   C2B71948   6.509   5.339   6.764
 5685POPC   C3B71949   6.519   5.334   7.064
 5685POPC   C4B71950   6.507   5.272   7.364
 5686POPC   NC371951  43.868  21.380   5.564
 5686POPC   PO471952  43.838  21.413   5.864
 5686POPC   GL171953  43.900  21.341   6.164
 5686POPC   GL271954  43.819  21.471   6.164
 5686POPC   C1A71955  43.901  21.397   6.464
 5686POPC   D2A71956  43.892  21.395   6.764
 5686POPC   C3A71957  43.912  21.416   7.064
 5686POPC   C4A71958  43.931  21.379   7.364
 5686POPC   C1B71959  43.799  21.588   6.464
 5686POPC   C2B71960  43.839  21.636   6.764
 5686POPC   C3B71961  43.773  21.609   7.064
 5686POPC   C4B71962  43.774  21.588   7.364
 5687POPC   NC371963   7.435  23.727   5.564
 5687POPC   PO471964   7.418  23.709   5.864
 5687POPC   GL171965   7.376  23.743   6.164
 5687POPC   GL271966   7.442  23.618   6.164
 5687POPC   C1A71967   7.383  23.734   6.464
 5687POPC   D2A71968   7.425  23.761   6.764
 5687POPC   C3A71969   7.396  23.673   7.064
 5687POPC   C4A71970   7.425  23.693   7.364
 5687POPC   C1B71971   7.472  23.451   6.464
 5687POPC   C2B71972   7.508  23.471   6.764
 5687POPC   C3B71973   7.440  23.478   7.064
 5687POPC   C4B71974   7.437  23.437   7.364
 5688POPC   NC371975   4.287  23.717   5.564
 5688POPC   PO471976   4.342  23.682   5.864
 5688POPC   GL171977   4.301  23.700   6.164
 5688POPC   GL271978   4.410  23.618   6.164
 5688POPC   C1A71979   4.276  23.672   6.464
 5688POPC   D2A71980   4.362  23.712   6.764
 5688POPC   C3A71981   4.361  23.747   7.064
 5688POPC   C4A71982   4.316  23.691   7.364
 5688POPC   C1B71983   4.456  23.459   6.464
 5688POPC   C2B71984   4.386  23.525   6.764
 5688POPC   C3B71985   4.416  23.469   7.064
 5688POPC   C4B71986   4.441  23.530   7.364
 5689POPC   NC371987  33.812  19.078   5.564
 5689POPC   PO471988  33.839  19.072   5.864
 5689POPC   GL171989  33.785  19.067   6.164
 5689POPC   GL271990  33.791  19.181   6.164
 5689POPC   C1A71991  33.762  19.098   6.464
 5689POPC   D2A71992  33.836  19.067   6.764
 5689POPC   C3A71993  33.753  19.052   7.064
 5689POPC   C4A71994  33.835  19.099   7.364
 5689POPC   C1B71995  33.732  19.270   6.464
 5689POPC   C2B71996  33.718  19.267   6.764
 5689POPC   C3B71997  33.721  19.309   7.064
 5689POPC   C4B71998  33.710  19.260   7.364
 5690POPC   NC371999  13.646  20.648   5.564
 5690POPC   PO472000  13.630  20.564   5.864
 5690POPC   GL172001  13.655  20.652   6.164
 5690POPC   GL272002  13.732  20.652   6.164
 5690POPC   C1A72003  13.670  20.594   6.464
 5690POPC   D2A72004  13.653  20.650   6.764
 5690POPC   C3A72005  13.601  20.612   7.064
 5690POPC   C4A72006  13.621  20.645   7.364
 5690POPC   C1B72007  13.833  20.702   6.464
 5690POPC   C2B72008  13.839  20.690   6.764
 5690POPC   C3B72009  13.873  20.680   7.064
 5690POPC   C4B72010  13.848  20.706   7.364
 5691POPC   NC372011  35.362   6.647   5.564
 5691POPC   PO472012  35.320   6.612   5.864
 5691POPC   GL172013  35.308   6.685   6.164
 5691POPC   GL272014  35.447   6.664   6.164
 5691POPC   C1A72015  35.396   6.619   6.464
 5691POPC   D2A72016  35.346   6.672   6.764
 5691POPC   C3A72017  35.383   6.617   7.064
 5691POPC   C4A72018  35.390   6.663   7.364
 5691POPC   C1B72019  35.605   6.687   6.464
 5691POPC   C2B72020  35.617   6.744   6.764
 5691POPC   C3B72021  35.546   6.663   7.064
 5691POPC   C4B72022  35.640   6.703   7.364
 5692POPC   NC372023  14.393  29.947   5.564
 5692POPC   PO472024  14.361  29.957   5.864
 5692POPC   GL172025  14.444  29.892   6.164
 5692POPC   GL272026  14.259  29.905   6.164
 5692POPC   C1A72027  14.359  29.881   6.464
 5692POPC   D2A72028  14.448  29.898   6.764
 5692POPC   C3A72029  14.385  29.924   7.064
 5692POPC   C4A72030  14.399  29.916   7.364
 5692POPC   C1B72031  14.178  29.836   6.464
 5692POPC   C2B72032  14.135  29.907   6.764
 5692POPC   C3B72033  14.144  29.916   7.064
 5692POPC   C4B72034  14.177  29.908   7.364
 5693POPC   NC372035  36.947   5.084   5.564
 5693POPC   PO472036  36.903   5.081   5.864
 5693POPC   GL172037  36.899   5.066   6.164
 5693POPC   GL272038  36.800   5.072   6.164
 5693POPC   C1A72039  36.943   5.048   6.464
 5693POPC   D2A72040  36.936   5.073   6.764
 5693POPC   C3A72041  36.897   5.086   7.064
 5693POPC   C4A72042  36.893   5.113   7.364
 5693POPC   C1B72043  36.620   5.102   6.464
 5693POPC   C2B72044  36.679   5.079   6.764
 5693POPC   C3B72045  36.693   5.076   7.064
 5693POPC   C4B72046  36.647   5.110   7.364
 5694POPC   NC372047  15.949   2.728   5.564
 5694POPC   PO472048  15.915   2.753   5.864
 5694POPC   GL172049  15.987   2.812   6.164
 5694POPC   GL272050  15.788   2.833   6.164
 5694POPC   C1A72051  15.941   2.736   6.464
 5694POPC   D2A72052  15.911   2.735   6.764
 5694POPC   C3A72053  15.943   2.748   7.064
 5694POPC   C4A72054  15.911   2.724   7.364
 5694POPC   C1B72055  15.742   2.776   6.464
 5694POPC   C2B72056  15.705   2.798   6.764
 5694POPC   C3B72057  15.703   2.847   7.064
 5694POPC   C4B72058  15.739   2.800   7.364
 5695POPC   NC372059   3.551  37.727   5.564
 5695POPC   PO472060   3.548  37.722   5.864
 5695POPC   GL172061   3.540  37.673   6.164
 5695POPC   GL272062   3.483  37.604   6.164
 5695POPC   C1A72063   3.587  37.722   6.464
 5695POPC   D2A72064   3.536  37.648   6.764
 5695POPC   C3A72065   3.556  37.658   7.064
 5695POPC   C4A72066   3.564  37.643   7.364
 5695POPC   C1B72067   3.458  37.440   6.464
 5695POPC   C2B72068   3.477  37.459   6.764
 5695POPC   C3B72069   3.474  37.450   7.064
 5695POPC   C4B72070   3.546  37.461   7.364
 5696POPC   NC372071  36.088  44.668   5.564
 5696POPC   PO472072  36.153  44.680   5.864
 5696POPC   GL172073  36.111  44.640   6.164
 5696POPC   GL272074  36.065  44.565   6.164
 5696POPC   C1A72075  36.143  44.619   6.464
 5696POPC   D2A72076  36.090  44.669   6.764
 5696POPC   C3A72077  36.095  44.700   7.064
 5696POPC   C4A72078  36.137  44.677   7.364
 5696POPC   C1B72079  36.014  44.479   6.464
 5696POPC   C2B72080  35.963  44.453   6.764
 5696POPC   C3B72081  35.944  44.504   7.064
 5696POPC   C4B72082  35.990  44.484   7.364
 5697POPC   NC372083  13.630   3.494   5.564
 5697POPC   PO472084  13.600   3.585   5.864
 5697POPC   GL172085  13.616   3.500   6.164
 5697POPC   GL272086  13.686   3.393   6.164
 5697POPC   C1A72087  13.670   3.536   6.464
 5697POPC   D2A72088  13.669   3.560   6.764
 5697POPC   C3A72089  13.672   3.576   7.064
 5697POPC   C4A72090  13.604   3.543   7.364
 5697POPC   C1B72091  13.660   3.260   6.464
 5697POPC   C2B72092  13.672   3.321   6.764
 5697POPC   C3B72093  13.716   3.255   7.064
 5697POPC   C4B72094  13.638   3.348   7.364
 5698POPC   NC372095  17.546  32.232   5.564
 5698POPC   PO472096  17.510  32.294   5.864
 5698POPC   GL172097  17.479  32.242   6.164
 5698POPC   GL272098  17.584  32.110   6.164
 5698POPC   C1A72099  17.500  32.298   6.464
 5698POPC   D2A72100  17.550  32.215   6.764
 5698POPC   C3A72101  17.494  32.207   7.064
 5698POPC   C4A72102  17.523  32.248   7.364
 5698POPC   C1B72103  17.583  32.033   6.464
 5698POPC   C2B72104  17.644  31.978   6.764
 5698POPC   C3B72105  17.653  32.050   7.064
 5698POPC   C4B72106  17.651  32.032   7.364
 5699POPC   NC372107   2.007  23.705   5.564
 5699POPC   PO472108   2.038  23.753   5.864
 5699POPC   GL172109   1.990  23.697   6.164
 5699POPC   GL272110   1.948  23.846   6.164
 5699POPC   C1A72111   2.005  23.667   6.464
 5699POPC   D2A72112   1.942  23.677   6.764
 5699POPC   C3A72113   2.038  23.666   7.064
 5699POPC   C4A72114   1.999  23.722   7.364
 5699POPC   C1B72115   1.822  23.862   6.464
 5699POPC   C2B72116   1.786  23.868   6.764
 5699POPC   C3B72117   1.767  23.854   7.064
 5699POPC   C4B72118   1.780  23.845   7.364
 5700POPC   NC372119   1.171   4.289   5.564
 5700POPC   PO472120   1.249   4.281   5.864
 5700POPC   GL172121   1.191   4.324   6.164
 5700POPC   GL272122   1.310   4.326   6.164
 5700POPC   C1A72123   1.228   4.287   6.464
 5700POPC   D2A72124   1.240   4.305   6.764
 5700POPC   C3A72125   1.181   4.315   7.064
 5700POPC   C4A72126   1.219   4.274   7.364
 5700POPC   C1B72127   1.489   4.278   6.464
 5700POPC   C2B72128   1.451   4.222   6.764
 5700POPC   C3B72129   1.488   4.286   7.064
 5700POPC   C4B72130   1.447   4.302   7.364
 5701POPC   NC372131  15.955  21.417   5.564
 5701POPC   PO472132  15.935  21.431   5.864
 5701POPC   GL172133  15.968  21.435   6.164
 5701POPC   GL272134  16.066  21.373   6.164
 5701POPC   C1A72135  15.936  21.355   6.464
 5701POPC   D2A72136  15.991  21.406   6.764
 5701POPC   C3A72137  15.912  21.352   7.064
 5701POPC   C4A72138  15.959  21.350   7.364
 5701POPC   C1B72139  16.178  21.265   6.464
 5701POPC   C2B72140  16.208  21.301   6.764
 5701POPC   C3B72141  16.203  21.348   7.064
 5701POPC   C4B72142  16.207  21.281   7.364
 5702POPC   NC372143  44.663   5.851   5.564
 5702POPC   PO472144  44.638   5.879   5.864
 5702POPC   GL172145  44.684   5.899   6.164
 5702POPC   GL272146  44.784   5.795   6.164
 5702POPC   C1A72147  44.614   5.859   6.464
 5702POPC   D2A72148  44.618   5.891   6.764
 5702POPC   C3A72149  44.615   5.880   7.064
 5702POPC   C4A72150  44.671   5.870   7.364
 5702POPC   C1B72151  44.847   5.747   6.464
 5702POPC   C2B72152  44.872   5.743   6.764
 5702POPC   C3B72153  44.888   5.753   7.064
 5702POPC   C4B72154  44.911   5.710   7.364
 5703POPC   NC372155  32.262   2.803   5.564
 5703POPC   PO472156  32.283   2.720   5.864
 5703POPC   GL172157  32.276   2.753   6.164
 5703POPC   GL272158  32.344   2.871   6.164
 5703POPC   C1A72159  32.200   2.745   6.464
 5703POPC   D2A72160  32.221   2.775   6.764
 5703POPC   C3A72161  32.213   2.756   7.064
 5703POPC   C4A72162  32.296   2.765   7.364
 5703POPC   C1B72163  32.485   2.914   6.464
 5703POPC   C2B72164  32.430   2.862   6.764
 5703POPC   C3B72165  32.497   2.918   7.064
 5703POPC   C4B72166  32.476   2.928   7.364
 5704POPC   NC372167  17.460  41.584   5.564
 5704POPC   PO472168  17.481  41.548   5.864
 5704POPC   GL172169  17.498  41.523   6.164
 5704POPC   GL272170  17.385  41.480   6.164
 5704POPC   C1A72171  17.522  41.513   6.464
 5704POPC   D2A72172  17.527  41.604   6.764
 5704POPC   C3A72173  17.480  41.535   7.064
 5704POPC   C4A72174  17.459  41.568   7.364
 5704POPC   C1B72175  17.324  41.361   6.464
 5704POPC   C2B72176  17.372  41.356   6.764
 5704POPC   C3B72177  17.359  41.365   7.064
 5704POPC   C4B72178  17.292  41.404   7.364
 5705POPC   NC372179   9.783  19.020   5.564
 5705POPC   PO472180   9.765  19.041   5.864
 5705POPC   GL172181   9.767  19.063   6.164
 5705POPC   GL272182   9.840  18.980   6.164
 5705POPC   C1A72183   9.750  19.103   6.464
 5705POPC   D2A72184   9.770  19.032   6.764
 5705POPC   C3A72185   9.707  19.010   7.064
 5705POPC   C4A72186   9.718  19.058   7.364
 5705POPC   C1B72187  10.024  19.007   6.464
 5705POPC   C2B72188  10.027  19.014   6.764
 5705POPC   C3B72189   9.951  19.010   7.064
 5705POPC   C4B72190  10.014  19.029   7.364
 5706POPC   NC372191  36.909  16.687   5.564
 5706POPC   PO472192  36.939  16.682   5.864
 5706POPC   GL172193  36.923  16.726   6.164
 5706POPC   GL272194  36.851  16.661   6.164
 5706POPC   C1A72195  36.946  16.772   6.464
 5706POPC   D2A72196  36.855  16.689   6.764
 5706POPC   C3A72197  36.878  16.779   7.064
 5706POPC   C4A72198  36.887  16.751   7.364
 5706POPC   C1B72199  36.840  16.547   6.464
 5706POPC   C2B72200  36.797  16.483   6.764
 5706POPC   C3B72201  36.835  16.539   7.064
 5706POPC   C4B72202  36.771  16.551   7.364
 5707POPC   NC372203  32.271  35.334   5.564
 5707POPC   PO472204  32.217  35.366   5.864
 5707POPC   GL172205  32.265  35.337   6.164
 5707POPC   GL272206  32.153  35.292   6.164
 5707POPC   C1A72207  32.260  35.325   6.464
 5707POPC   D2A72208  32.295  35.358   6.764
 5707POPC   C3A72209  32.199  35.332   7.064
 5707POPC   C4A72210  32.227  35.304   7.364
 5707POPC   C1B72211  32.081  35.213   6.464
 5707POPC   C2B72212  32.036  35.225   6.764
 5707POPC   C3B72213  32.004  35.194   7.064
 5707POPC   C4B72214  32.035  35.205   7.364
 5708POPC   NC372215  15.915   1.980   5.564
 5708POPC   PO472216  15.923   2.039   5.864
 5708POPC   GL172217  15.956   1.968   6.164
 5708POPC   GL272218  16.013   2.101   6.164
 5708POPC   C1A72219  15.941   2.008   6.464
 5708POPC   D2A72220  15.944   2.002   6.764
 5708POPC   C3A72221  15.911   1.985   7.064
 5708POPC   C4A72222  15.929   1.998   7.364
 5708POPC   C1B72223  16.200   2.165   6.464
 5708POPC   C2B72224  16.188   2.150   6.764
 5708POPC   C3B72225  16.202   2.105   7.064
 5708POPC   C4B72226  16.143   2.109   7.364
 5709POPC   NC372227  29.177   0.456   5.564
 5709POPC   PO472228  29.182   0.486   5.864
 5709POPC   GL172229  29.167   0.458   6.164
 5709POPC   GL272230  29.293   0.432   6.164
 5709POPC   C1A72231  29.119   0.418   6.464
 5709POPC   D2A72232  29.193   0.389   6.764
 5709POPC   C3A72233  29.180   0.419   7.064
 5709POPC   C4A72234  29.173   0.465   7.364
 5709POPC   C1B72235  29.438   0.494   6.464
 5709POPC   C2B72236  29.430   0.461   6.764
 5709POPC   C3B72237  29.405   0.495   7.064
 5709POPC   C4B72238  29.431   0.434   7.364
 5710POPC   NC372239  25.310  35.384   5.564
 5710POPC   PO472240  25.281  35.315   5.864
 5710POPC   GL172241  25.243  35.315   6.164
 5710POPC   GL272242  25.383  35.472   6.164
 5710POPC   C1A72243  25.234  35.387   6.464
 5710POPC   D2A72244  25.290  35.381   6.764
 5710POPC   C3A72245  25.301  35.356   7.064
 5710POPC   C4A72246  25.281  35.363   7.364
 5710POPC   C1B72247  25.415  35.565   6.464
 5710POPC   C2B72248  25.394  35.535   6.764
 5710POPC   C3B72249  25.416  35.529   7.064
 5710POPC   C4B72250  25.446  35.531   7.364
 5711POPC   NC372251   6.626  36.886   5.564
 5711POPC   PO472252   6.624  36.902   5.864
 5711POPC   GL172253   6.651  36.859   6.164
 5711POPC   GL272254   6.759  36.870   6.164
 5711POPC   C1A72255   6.634  36.873   6.464
 5711POPC   D2A72256   6.635  36.919   6.764
 5711POPC   C3A72257   6.674  36.908   7.064
 5711POPC   C4A72258   6.669  36.918   7.364
 5711POPC   C1B72259   6.920  36.913   6.464
 5711POPC   C2B72260   6.912  36.865   6.764
 5711POPC   C3B72261   6.931  36.881   7.064
 5711POPC   C4B72262   6.854  36.906   7.364
 5712POPC   NC372263   6.665  39.959   5.564
 5712POPC   PO472264   6.602  40.053   5.864
 5712POPC   GL172265   6.677  40.036   6.164
 5712POPC   GL272266   6.750  40.083   6.164
 5712POPC   C1A72267   6.596  39.994   6.464
 5712POPC   D2A72268   6.670  39.964   6.764
 5712POPC   C3A72269   6.633  40.023   7.064
 5712POPC   C4A72270   6.597  40.042   7.364
 5712POPC   C1B72271   6.768  40.252   6.464
 5712POPC   C2B72272   6.780  40.192   6.764
 5712POPC   C3B72273   6.801  40.258   7.064
 5712POPC   C4B72274   6.772  40.263   7.364
 5713POPC   NC372275  33.769   3.535   5.564
 5713POPC   PO472276  33.768   3.492   5.864
 5713POPC   GL172277  33.817   3.580   6.164
 5713POPC   GL272278  33.770   3.690   6.164
 5713POPC   C1A72279  33.775   3.570   6.464
 5713POPC   D2A72280  33.801   3.560   6.764
 5713POPC   C3A72281  33.767   3.550   7.064
 5713POPC   C4A72282  33.790   3.548   7.364
 5713POPC   C1B72283  33.624   3.777   6.464
 5713POPC   C2B72284  33.627   3.742   6.764
 5713POPC   C3B72285  33.638   3.718   7.064
 5713POPC   C4B72286  33.615   3.720   7.364
 5714POPC   NC372287  39.225   1.211   5.564
 5714POPC   PO472288  39.201   1.189   5.864
 5714POPC   GL172289  39.271   1.204   6.164
 5714POPC   GL272290  39.217   1.110   6.164
 5714POPC   C1A72291  39.197   1.237   6.464
 5714POPC   D2A72292  39.244   1.228   6.764
 5714POPC   C3A72293  39.278   1.194   7.064
 5714POPC   C4A72294  39.243   1.173   7.364
 5714POPC   C1B72295  39.280   0.942   6.464
 5714POPC   C2B72296  39.270   0.942   6.764
 5714POPC   C3B72297  39.288   0.947   7.064
 5714POPC   C4B72298  39.300   0.960   7.364
 5715POPC   NC372299   0.395  37.694   5.564
 5715POPC   PO472300   0.476  37.716   5.864
 5715POPC   GL172301   0.427  37.666   6.164
 5715POPC   GL272302   0.397  37.818   6.164
 5715POPC   C1A72303   0.424  37.683   6.464
 5715POPC   D2A72304   0.441  37.636   6.764
 5715POPC   C3A72305   0.401  37.667   7.064
 5715POPC   C4A72306   0.472  37.653   7.364
 5715POPC   C1B72307   0.403  37.879   6.464
 5715POPC   C2B72308   0.337  37.893   6.764
 5715POPC   C3B72309   0.394  37.950   7.064
 5715POPC   C4B72310   0.386  37.887   7.364
 5716POPC   NC372311  39.965  32.263   5.564
 5716POPC   PO472312  40.047  32.275   5.864
 5716POPC   GL172313  39.980  32.200   6.164
 5716POPC   GL272314  39.953  32.083   6.164
 5716POPC   C1A72315  40.043  32.287   6.464
 5716POPC   D2A72316  39.973  32.208   6.764
 5716POPC   C3A72317  40.052  32.285   7.064
 5716POPC   C4A72318  39.997  32.235   7.364
 5716POPC   C1B72319  39.949  32.001   6.464
 5716POPC   C2B72320  39.931  31.951   6.764
 5716POPC   C3B72321  39.966  32.046   7.064
 5716POPC   C4B72322  40.022  31.962   7.364
 5717POPC   NC372323   0.458   9.762   5.564
 5717POPC   PO472324   0.413   9.736   5.864
 5717POPC   GL172325   0.391   9.710   6.164
 5717POPC   GL272326   0.515   9.692   6.164
 5717POPC   C1A72327   0.398   9.728   6.464
 5717POPC   D2A72328   0.411   9.753   6.764
 5717POPC   C3A72329   0.405   9.729   7.064
 5717POPC   C4A72330   0.404   9.717   7.364
 5717POPC   C1B72331   0.712   9.639   6.464
 5717POPC   C2B72332   0.673   9.654   6.764
 5717POPC   C3B72333   0.630   9.662   7.064
 5717POPC   C4B72334   0.638   9.664   7.364
 5718POPC   NC372335  15.916  15.225   5.564
 5718POPC   PO472336  15.915  15.207   5.864
 5718POPC   GL172337  16.000  15.225   6.164
 5718POPC   GL272338  15.929  15.029   6.164
 5718POPC   C1A72339  15.942  15.203   6.464
 5718POPC   D2A72340  15.916  15.137   6.764
 5718POPC   C3A72341  15.955  15.157   7.064
 5718POPC   C4A72342  15.962  15.228   7.364
 5718POPC   C1B72343  15.840  14.943   6.464
 5718POPC   C2B72344  15.901  14.940   6.764
 5718POPC   C3B72345  15.895  14.985   7.064
 5718POPC   C4B72346  15.879  14.907   7.364
 5719POPC   NC372347   5.890   3.581   5.564
 5719POPC   PO472348   5.831   3.562   5.864
 5719POPC   GL172349   5.884   3.571   6.164
 5719POPC   GL272350   5.757   3.544   6.164
 5719POPC   C1A72351   5.912   3.561   6.464
 5719POPC   D2A72352   5.874   3.502   6.764
 5719POPC   C3A72353   5.824   3.577   7.064
 5719POPC   C4A72354   5.837   3.590   7.364
 5719POPC   C1B72355   5.617   3.593   6.464
 5719POPC   C2B72356   5.640   3.515   6.764
 5719POPC   C3B72357   5.662   3.573   7.064
 5719POPC   C4B72358   5.584   3.589   7.364
 5720POPC   NC372359  37.712  14.378   5.564
 5720POPC   PO472360  37.684  14.415   5.864
 5720POPC   GL172361  37.718  14.372   6.164
 5720POPC   GL272362  37.796  14.444   6.164
 5720POPC   C1A72363  37.688  14.363   6.464
 5720POPC   D2A72364  37.682  14.389   6.764
 5720POPC   C3A72365  37.704  14.386   7.064
 5720POPC   C4A72366  37.648  14.431   7.364
 5720POPC   C1B72367  37.886  14.455   6.464
 5720POPC   C2B72368  37.914  14.483   6.764
 5720POPC   C3B72369  37.934  14.454   7.064
 5720POPC   C4B72370  37.890  14.444   7.364
 5721POPC   NC372371  42.286  13.658   5.564
 5721POPC   PO472372  42.338  13.673   5.864
 5721POPC   GL172373  42.365  13.664   6.164
 5721POPC   GL272374  42.443  13.544   6.164
 5721POPC   C1A72375  42.309  13.622   6.464
 5721POPC   D2A72376  42.346  13.674   6.764
 5721POPC   C3A72377  42.350  13.631   7.064
 5721POPC   C4A72378  42.326  13.666   7.364
 5721POPC   C1B72379  42.458  13.383   6.464
 5721POPC   C2B72380  42.441  13.404   6.764
 5721POPC   C3B72381  42.421  13.387   7.064
 5721POPC   C4B72382  42.446  13.413   7.364
 5722POPC   NC372383  20.628  25.271   5.564
 5722POPC   PO472384  20.648  25.239   5.864
 5722POPC   GL172385  20.593  25.233   6.164
 5722POPC   GL272386  20.475  25.311   6.164
 5722POPC   C1A72387  20.635  25.266   6.464
 5722POPC   D2A72388  20.605  25.257   6.764
 5722POPC   C3A72389  20.614  25.226   7.064
 5722POPC   C4A72390  20.570  25.268   7.364
 5722POPC   C1B72391  20.402  25.335   6.464
 5722POPC   C2B72392  20.408  25.314   6.764
 5722POPC   C3B72393  20.412  25.358   7.064
 5722POPC   C4B72394  20.410  25.357   7.364
 5723POPC   NC372395  11.303  34.601   5.564
 5723POPC   PO472396  11.279  34.543   5.864
 5723POPC   GL172397  11.281  34.611   6.164
 5723POPC   GL272398  11.272  34.669   6.164
 5723POPC   C1A72399  11.261  34.610   6.464
 5723POPC   D2A72400  11.262  34.592   6.764
 5723POPC   C3A72401  11.283  34.597   7.064
 5723POPC   C4A72402  11.269  34.536   7.364
 5723POPC   C1B72403  11.251  34.824   6.464
 5723POPC   C2B72404  11.304  34.815   6.764
 5723POPC   C3B72405  11.242  34.827   7.064
 5723POPC   C4B72406  11.240  34.803   7.364
 5724POPC   NC372407  41.606  12.045   5.564
 5724POPC   PO472408  41.510  12.058   5.864
 5724POPC   GL172409  41.563  12.087   6.164
 5724POPC   GL272410  41.595  12.023   6.164
 5724POPC   C1A72411  41.518  12.110   6.464
 5724POPC   D2A72412  41.604  12.060   6.764
 5724POPC   C3A72413  41.588  12.095   7.064
 5724POPC   C4A72414  41.512  12.113   7.364
 5724POPC   C1B72415  41.714  11.828   6.464
 5724POPC   C2B72416  41.659  11.846   6.764
 5724POPC   C3B72417  41.690  11.916   7.064
 5724POPC   C4B72418  41.703  11.841   7.364
 5725POPC   NC372419  25.249  13.584   5.564
 5725POPC   PO472420  25.236  13.618   5.864
 5725POPC   GL172421  25.247  13.591   6.164
 5725POPC   GL272422  25.252  13.712   6.164
 5725POPC   C1A72423  25.289  13.624   6.464
 5725POPC   D2A72424  25.224  13.629   6.764
 5725POPC   C3A72425  25.273  13.589   7.064
 5725POPC   C4A72426  25.307  13.660   7.364
 5725POPC   C1B72427  25.199  13.832   6.464
 5725POPC   C2B72428  25.200  13.819   6.764
 5725POPC   C3B72429  25.170  13.875   7.064
 5725POPC   C4B72430  25.134  13.821   7.364
 5726POPC   NC372431  11.313  10.496   5.564
 5726POPC   PO472432  11.293  10.499   5.864
 5726POPC   GL172433  11.271  10.481   6.164
 5726POPC   GL272434  11.371  10.459   6.164
 5726POPC   C1A72435  11.272  10.547   6.464
 5726POPC   D2A72436  11.289  10.562   6.764
 5726POPC   C3A72437  11.317  10.539   7.064
 5726POPC   C4A72438  11.265  10.516   7.364
 5726POPC   C1B72439  11.435  10.369   6.464
 5726POPC   C2B72440  11.468  10.314   6.764
 5726POPC   C3B72441  11.445  10.366   7.064
 5726POPC   C4B72442  11.485  10.331   7.364
 5727POPC   NC372443  40.001  26.074   5.564
 5727POPC   PO472444  39.983  26.001   5.864
 5727POPC   GL172445  40.022  26.035   6.164
 5727POPC   GL272446  40.103  25.976   6.164
 5727POPC   C1A72447  40.049  26.063   6.464
 5727POPC   D2A72448  40.034  26.044   6.764
 5727POPC   C3A72449  40.048  26.039   7.064
 5727POPC   C4A72450  39.964  26.004   7.364
 5727POPC   C1B72451  40.194  25.817   6.464
 5727POPC   C2B72452  40.206  25.834   6.764
 5727POPC   C3B72453  40.194  25.821   7.064
 5727POPC   C4B72454  40.138  25.842   7.364
 5728POPC   NC372455  15.145  43.843   5.564
 5728POPC   PO472456  15.217  43.880   5.864
 5728POPC   GL172457  15.180  43.925   6.164
 5728POPC   GL272458  15.297  43.846   6.164
 5728POPC   C1A72459  15.173  43.931   6.464
 5728POPC   D2A72460  15.178  43.907   6.764
 5728POPC   C3A72461  15.181  43.922   7.064
 5728POPC   C4A72462  15.188  43.878   7.364
 5728POPC   C1B72463  15.463  43.752   6.464
 5728POPC   C2B72464  15.441  43.848   6.764
 5728POPC   C3B72465  15.393  43.806   7.064
 5728POPC   C4B72466  15.410  43.755   7.364
 5729POPC   NC372467  21.402  29.969   5.564
 5729POPC   PO472468  21.406  29.925   5.864
 5729POPC   GL172469  21.435  29.900   6.164
 5729POPC   GL272470  21.462  30.051   6.164
 5729POPC   C1A72471  21.366  29.914   6.464
 5729POPC   D2A72472  21.343  29.944   6.764
 5729POPC   C3A72473  21.382  29.911   7.064
 5729POPC   C4A72474  21.435  29.919   7.364
 5729POPC   C1B72475  21.493  30.106   6.464
 5729POPC   C2B72476  21.578  30.093   6.764
 5729POPC   C3B72477  21.524  30.113   7.064
 5729POPC   C4B72478  21.535  30.142   7.364
 5730POPC   NC372479  24.476  42.379   5.564
 5730POPC   PO472480  24.491  42.287   5.864
 5730POPC   GL172481  24.528  42.303   6.164
 5730POPC   GL272482  24.552  42.372   6.164
 5730POPC   C1A72483  24.502  42.321   6.464
 5730POPC   D2A72484  24.518  42.345   6.764
 5730POPC   C3A72485  24.502  42.350   7.064
 5730POPC   C4A72486  24.441  42.334   7.364
 5730POPC   C1B72487  24.709  42.480   6.464
 5730POPC   C2B72488  24.662  42.515   6.764
 5730POPC   C3B72489  24.737  42.443   7.064
 5730POPC   C4B72490  24.659  42.469   7.364
 5731POPC   NC372491   8.204  43.904   5.564
 5731POPC   PO472492   8.235  43.934   5.864
 5731POPC   GL172493   8.179  43.933   6.164
 5731POPC   GL272494   8.339  43.846   6.164
 5731POPC   C1A72495   8.207  43.853   6.464
 5731POPC   D2A72496   8.182  43.910   6.764
 5731POPC   C3A72497   8.203  43.877   7.064
 5731POPC   C4A72498   8.159  43.878   7.364
 5731POPC   C1B72499   8.481  43.805   6.464
 5731POPC   C2B72500   8.396  43.829   6.764
 5731POPC   C3B72501   8.463  43.784   7.064
 5731POPC   C4B72502   8.407  43.798   7.364
 5732POPC   NC372503   1.237  33.053   5.564
 5732POPC   PO472504   1.238  32.977   5.864
 5732POPC   GL172505   1.168  33.006   6.164
 5732POPC   GL272506   1.225  33.173   6.164
 5732POPC   C1A72507   1.218  32.988   6.464
 5732POPC   D2A72508   1.197  33.047   6.764
 5732POPC   C3A72509   1.208  33.023   7.064
 5732POPC   C4A72510   1.195  33.039   7.364
 5732POPC   C1B72511   1.172  33.255   6.464
 5732POPC   C2B72512   1.248  33.315   6.764
 5732POPC   C3B72513   1.170  33.234   7.064
 5732POPC   C4B72514   1.213  33.279   7.364
 5733POPC   NC372515  19.877  15.956   5.564
 5733POPC   PO472516  19.857  16.002   5.864
 5733POPC   GL172517  19.880  15.966   6.164
 5733POPC   GL272518  19.947  15.996   6.164
 5733POPC   C1A72519  19.811  15.977   6.464
 5733POPC   D2A72520  19.809  15.972   6.764
 5733POPC   C3A72521  19.812  15.948   7.064
 5733POPC   C4A72522  19.788  15.950   7.364
 5733POPC   C1B72523  20.089  16.128   6.464
 5733POPC   C2B72524  20.059  16.070   6.764
 5733POPC   C3B72525  20.021  16.110   7.064
 5733POPC   C4B72526  20.021  16.085   7.364
 5734POPC   NC372527   4.313   9.796   5.564
 5734POPC   PO472528   4.340   9.714   5.864
 5734POPC   GL172529   4.290   9.739   6.164
 5734POPC   GL272530   4.412   9.701   6.164
 5734POPC   C1A72531   4.318   9.731   6.464
 5734POPC   D2A72532   4.281   9.729   6.764
 5734POPC   C3A72533   4.280   9.723   7.064
 5734POPC   C4A72534   4.320   9.782   7.364
 5734POPC   C1B72535   4.577   9.585   6.464
 5734POPC   C2B72536   4.523   9.627   6.764
 5734POPC   C3B72537   4.511   9.583   7.064
 5734POPC   C4B72538   4.522   9.657   7.364
 5735POPC   NC372539  22.913  30.691   5.564
 5735POPC   PO472540  22.986  30.707   5.864
 5735POPC   GL172541  22.975  30.704   6.164
 5735POPC   GL272542  22.934  30.788   6.164
 5735POPC   C1A72543  22.900  30.659   6.464
 5735POPC   D2A72544  22.894  30.671   6.764
 5735POPC   C3A72545  22.903  30.666   7.064
 5735POPC   C4A72546  22.973  30.672   7.364
 5735POPC   C1B72547  22.922  30.922   6.464
 5735POPC   C2B72548  23.004  30.902   6.764
 5735POPC   C3B72549  22.970  30.928   7.064
 5735POPC   C4B72550  22.906  30.920   7.364
 5736POPC   NC372551  12.120  33.773   5.564
 5736POPC   PO472552  12.038  33.832   5.864
 5736POPC   GL172553  12.055  33.804   6.164
 5736POPC   GL272554  12.148  33.739   6.164
 5736POPC   C1A72555  12.126  33.820   6.464
 5736POPC   D2A72556  12.068  33.829   6.764
 5736POPC   C3A72557  12.120  33.838   7.064
 5736POPC   C4A72558  12.089  33.778   7.364
 5736POPC   C1B72559  12.210  33.653   6.464
 5736POPC   C2B72560  12.293  33.612   6.764
 5736POPC   C3B72561  12.244  33.629   7.064
 5736POPC   C4B72562  12.216  33.627   7.364
 5737POPC   NC372563  21.387  31.423   5.564
 5737POPC   PO472564  21.353  31.480   5.864
 5737POPC   GL172565  21.408  31.462   6.164
 5737POPC   GL272566  21.463  31.439   6.164
 5737POPC   C1A72567  21.357  31.508   6.464
 5737POPC   D2A72568  21.410  31.428   6.764
 5737POPC   C3A72569  21.347  31.440   7.064
 5737POPC   C4A72570  21.393  31.496   7.364
 5737POPC   C1B72571  21.643  31.366   6.464
 5737POPC   C2B72572  21.664  31.344   6.764
 5737POPC   C3B72573  21.636  31.389   7.064
 5737POPC   C4B72574  21.665  31.438   7.364
 5738POPC   NC372575  40.733  23.730   5.564
 5738POPC   PO472576  40.780  23.675   5.864
 5738POPC   GL172577  40.749  23.712   6.164
 5738POPC   GL272578  40.716  23.803   6.164
 5738POPC   C1A72579  40.776  23.671   6.464
 5738POPC   D2A72580  40.822  23.707   6.764
 5738POPC   C3A72581  40.772  23.696   7.064
 5738POPC   C4A72582  40.814  23.736   7.364
 5738POPC   C1B72583  40.637  23.907   6.464
 5738POPC   C2B72584  40.650  23.877   6.764
 5738POPC   C3B72585  40.630  23.956   7.064
 5738POPC   C4B72586  40.688  23.946   7.364
 5739POPC   NC372587  40.037  25.275   5.564
 5739POPC   PO472588  39.990  25.253   5.864
 5739POPC   GL172589  40.025  25.306   6.164
 5739POPC   GL272590  40.070  25.182   6.164
 5739POPC   C1A72591  40.040  25.269   6.464
 5739POPC   D2A72592  39.983  25.294   6.764
 5739POPC   C3A72593  39.979  25.236   7.064
 5739POPC   C4A72594  39.982  25.225   7.364
 5739POPC   C1B72595  40.226  25.139   6.464
 5739POPC   C2B72596  40.229  25.100   6.764
 5739POPC   C3B72597  40.152  25.132   7.064
 5739POPC   C4B72598  40.228  25.076   7.364
 5740POPC   NC372599   2.002  30.668   5.564
 5740POPC   PO472600   2.032  30.729   5.864
 5740POPC   GL172601   1.957  30.699   6.164
 5740POPC   GL272602   2.016  30.833   6.164
 5740POPC   C1A72603   1.941  30.710   6.464
 5740POPC   D2A72604   1.999  30.718   6.764
 5740POPC   C3A72605   1.984  30.735   7.064
 5740POPC   C4A72606   1.943  30.689   7.364
 5740POPC   C1B72607   1.987  30.985   6.464
 5740POPC   C2B72608   1.981  30.921   6.764
 5740POPC   C3B72609   1.936  30.984   7.064
 5740POPC   C4B72610   1.965  30.972   7.364
 5741POPC   NC372611  40.761   7.431   5.564
 5741POPC   PO472612  40.794   7.418   5.864
 5741POPC   GL172613  40.831   7.418   6.164
 5741POPC   GL272614  40.914   7.464   6.164
 5741POPC   C1A72615  40.831   7.424   6.464
 5741POPC   D2A72616  40.831   7.399   6.764
 5741POPC   C3A72617  40.759   7.375   7.064
 5741POPC   C4A72618  40.808   7.444   7.364
 5741POPC   C1B72619  41.052   7.571   6.464
 5741POPC   C2B72620  41.048   7.578   6.764
 5741POPC   C3B72621  41.041   7.510   7.064
 5741POPC   C4B72622  40.978   7.570   7.364
 5742POPC   NC372623   8.209   9.780   5.564
 5742POPC   PO472624   8.201   9.705   5.864
 5742POPC   GL172625   8.234   9.756   6.164
 5742POPC   GL272626   8.259   9.821   6.164
 5742POPC   C1A72627   8.197   9.704   6.464
 5742POPC   D2A72628   8.196   9.720   6.764
 5742POPC   C3A72629   8.238   9.788   7.064
 5742POPC   C4A72630   8.234   9.782   7.364
 5742POPC   C1B72631   8.382   9.909   6.464
 5742POPC   C2B72632   8.370   9.941   6.764
 5742POPC   C3B72633   8.397   9.952   7.064
 5742POPC   C4B72634   8.395   9.958   7.364
 5743POPC   NC372635   2.742  20.567   5.564
 5743POPC   PO472636   2.794  20.594   5.864
 5743POPC   GL172637   2.759  20.650   6.164
 5743POPC   GL272638   2.917  20.657   6.164
 5743POPC   C1A72639   2.751  20.645   6.464
 5743POPC   D2A72640   2.749  20.576   6.764
 5743POPC   C3A72641   2.750  20.568   7.064
 5743POPC   C4A72642   2.801  20.603   7.364
 5743POPC   C1B72643   3.006  20.664   6.464
 5743POPC   C2B72644   3.037  20.660   6.764
 5743POPC   C3B72645   2.991  20.634   7.064
 5743POPC   C4B72646   3.031  20.656   7.364
 5744POPC   NC372647  37.675  29.145   5.564
 5744POPC   PO472648  37.688  29.172   5.864
 5744POPC   GL172649  37.649  29.098   6.164
 5744POPC   GL272650  37.585  29.249   6.164
 5744POPC   C1A72651  37.638  29.135   6.464
 5744POPC   D2A72652  37.663  29.163   6.764
 5744POPC   C3A72653  37.633  29.125   7.064
 5744POPC   C4A72654  37.705  29.146   7.364
 5744POPC   C1B72655  37.441  29.283   6.464
 5744POPC   C2B72656  37.504  29.298   6.764
 5744POPC   C3B72657  37.468  29.263   7.064
 5744POPC   C4B72658  37.447  29.259   7.364
 5745POPC   NC372659   5.860   8.951   5.564
 5745POPC   PO472660   5.887   8.989   5.864
 5745POPC   GL172661   5.819   8.956   6.164
 5745POPC   GL272662   5.978   8.885   6.164
 5745POPC   C1A72663   5.851   8.957   6.464
 5745POPC   D2A72664   5.898   8.943   6.764
 5745POPC   C3A72665   5.847   8.950   7.064
 5745POPC   C4A72666   5.865   9.022   7.364
 5745POPC   C1B72667   6.108   8.841   6.464
 5745POPC   C2B72668   6.069   8.801   6.764
 5745POPC   C3B72669   6.064   8.817   7.064
 5745POPC   C4B72670   6.108   8.795   7.364
 5746POPC   NC372671  43.904  33.804   5.564
 5746POPC   PO472672  43.898  33.814   5.864
 5746POPC   GL172673  43.865  33.824   6.164
 5746POPC   GL272674  43.768  33.673   6.164
 5746POPC   C1A72675  43.929  33.762   6.464
 5746POPC   D2A72676  43.877  33.831   6.764
 5746POPC   C3A72677  43.846  33.829   7.064
 5746POPC   C4A72678  43.917  33.815   7.364
 5746POPC   C1B72679  43.711  33.670   6.464
 5746POPC   C2B72680  43.682  33.675   6.764
 5746POPC   C3B72681  43.747  33.614   7.064
 5746POPC   C4B72682  43.653  33.636   7.364
 5747POPC   NC372683  26.816  38.422   5.564
 5747POPC   PO472684  26.768  38.407   5.864
 5747POPC   GL172685  26.829  38.464   6.164
 5747POPC   GL272686  26.754  38.402   6.164
 5747POPC   C1A72687  26.776  38.444   6.464
 5747POPC   D2A72688  26.831  38.468   6.764
 5747POPC   C3A72689  26.805  38.474   7.064
 5747POPC   C4A72690  26.815  38.410   7.364
 5747POPC   C1B72691  26.626  38.280   6.464
 5747POPC   C2B72692  26.604  38.281   6.764
 5747POPC   C3B72693  26.587  38.273   7.064
 5747POPC   C4B72694  26.624  38.272   7.364
 5748POPC   NC372695  42.343   5.064   5.564
 5748POPC   PO472696  42.378   5.141   5.864
 5748POPC   GL172697  42.326   5.136   6.164
 5748POPC   GL272698  42.443   5.014   6.164
 5748POPC   C1A72699  42.366   5.108   6.464
 5748POPC   D2A72700  42.374   5.060   6.764
 5748POPC   C3A72701  42.354   5.112   7.064
 5748POPC   C4A72702  42.338   5.098   7.364
 5748POPC   C1B72703  42.508   4.872   6.464
 5748POPC   C2B72704  42.481   4.918   6.764
 5748POPC   C3B72705  42.490   4.887   7.064
 5748POPC   C4B72706  42.497   4.874   7.364
 5749POPC   NC372707   9.775   8.927   5.564
 5749POPC   PO472708   9.782   8.981   5.864
 5749POPC   GL172709   9.777   8.943   6.164
 5749POPC   GL272710   9.701   8.875   6.164
 5749POPC   C1A72711   9.781   8.990   6.464
 5749POPC   D2A72712   9.759   8.925   6.764
 5749POPC   C3A72713   9.719   9.003   7.064
 5749POPC   C4A72714   9.703   9.018   7.364
 5749POPC   C1B72715   9.594   8.815   6.464
 5749POPC   C2B72716   9.568   8.822   6.764
 5749POPC   C3B72717   9.571   8.807   7.064
 5749POPC   C4B72718   9.617   8.763   7.364
 5750POPC   NC372719  15.917  43.877   5.564
 5750POPC   PO472720  15.932  43.853   5.864
 5750POPC   GL172721  15.964  43.884   6.164
 5750POPC   GL272722  15.835  43.785   6.164
 5750POPC   C1A72723  15.956  43.935   6.464
 5750POPC   D2A72724  15.986  43.863   6.764
 5750POPC   C3A72725  16.004  43.925   7.064
 5750POPC   C4A72726  15.923  43.933   7.364
 5750POPC   C1B72727  15.818  43.690   6.464
 5750POPC   C2B72728  15.823  43.645   6.764
 5750POPC   C3B72729  15.766  43.706   7.064
 5750POPC   C4B72730  15.819  43.669   7.364
 5751POPC   NC372731  33.794  30.665   5.564
 5751POPC   PO472732  33.799  30.672   5.864
 5751POPC   GL172733  33.826  30.685   6.164
 5751POPC   GL272734  33.702  30.688   6.164
 5751POPC   C1A72735  33.819  30.735   6.464
 5751POPC   D2A72736  33.812  30.735   6.764
 5751POPC   C3A72737  33.762  30.721   7.064
 5751POPC   C4A72738  33.772  30.650   7.364
 5751POPC   C1B72739  33.597  30.627   6.464
 5751POPC   C2B72740  33.512  30.623   6.764
 5751POPC   C3B72741  33.560  30.624   7.064
 5751POPC   C4B72742  33.562  30.672   7.364
 5752POPC   NC372743  20.594  19.858   5.564
 5752POPC   PO472744  20.635  19.882   5.864
 5752POPC   GL172745  20.628  19.874   6.164
 5752POPC   GL272746  20.528  19.754   6.164
 5752POPC   C1A72747  20.606  19.844   6.464
 5752POPC   D2A72748  20.659  19.811   6.764
 5752POPC   C3A72749  20.623  19.809   7.064
 5752POPC   C4A72750  20.607  19.845   7.364
 5752POPC   C1B72751  20.594  19.591   6.464
 5752POPC   C2B72752  20.544  19.567   6.764
 5752POPC   C3B72753  20.499  19.614   7.064
 5752POPC   C4B72754  20.584  19.549   7.364
 5753POPC   NC372755  12.087  29.124   5.564
 5753POPC   PO472756  12.082  29.137   5.864
 5753POPC   GL172757  12.084  29.131   6.164
 5753POPC   GL272758  12.176  29.064   6.164
 5753POPC   C1A72759  12.063  29.171   6.464
 5753POPC   D2A72760  12.112  29.138   6.764
 5753POPC   C3A72761  12.124  29.166   7.064
 5753POPC   C4A72762  12.077  29.187   7.364
 5753POPC   C1B72763  12.329  29.117   6.464
 5753POPC   C2B72764  12.326  29.115   6.764
 5753POPC   C3B72765  12.284  29.087   7.064
 5753POPC   C4B72766  12.318  29.120   7.364
 5754POPC   NC372767  36.905   6.688   5.564
 5754POPC   PO472768  36.879   6.657   5.864
 5754POPC   GL172769  36.870   6.622   6.164
 5754POPC   GL272770  36.975   6.552   6.164
 5754POPC   C1A72771  36.895   6.677   6.464
 5754POPC   D2A72772  36.940   6.649   6.764
 5754POPC   C3A72773  36.889   6.642   7.064
 5754POPC   C4A72774  36.865   6.688   7.364
 5754POPC   C1B72775  36.955   6.375   6.464
 5754POPC   C2B72776  37.002   6.394   6.764
 5754POPC   C3B72777  37.021   6.394   7.064
 5754POPC   C4B72778  36.979   6.425   7.364
 5755POPC   NC372779  42.323  18.256   5.564
 5755POPC   PO472780  42.333  18.265   5.864
 5755POPC   GL172781  42.324  18.254   6.164
 5755POPC   GL272782  42.473  18.380   6.164
 5755POPC   C1A72783  42.364  18.279   6.464
 5755POPC   D2A72784  42.332  18.255   6.764
 5755POPC   C3A72785  42.377  18.279   7.064
 5755POPC   C4A72786  42.300  18.305   7.364
 5755POPC   C1B72787  42.480  18.470   6.464
 5755POPC   C2B72788  42.539  18.442   6.764
 5755POPC   C3B72789  42.529  18.432   7.064
 5755POPC   C4B72790  42.548  18.492   7.364
 5756POPC   NC372791   9.016  19.027   5.564
 5756POPC   PO472792   9.001  19.050   5.864
 5756POPC   GL172793   8.933  19.043   6.164
 5756POPC   GL272794   8.907  19.156   6.164
 5756POPC   C1A72795   8.979  19.076   6.464
 5756POPC   D2A72796   8.945  19.026   6.764
 5756POPC   C3A72797   8.924  19.074   7.064
 5756POPC   C4A72798   9.007  19.029   7.364
 5756POPC   C1B72799   8.804  19.279   6.464
 5756POPC   C2B72800   8.824  19.300   6.764
 5756POPC   C3B72801   8.851  19.263   7.064
 5756POPC   C4B72802   8.867  19.262   7.364
 5757POPC   NC372803  26.004   7.460   5.564
 5757POPC   PO472804  26.005   7.440   5.864
 5757POPC   GL172805  26.029   7.468   6.164
 5757POPC   GL272806  25.931   7.536   6.164
 5757POPC   C1A72807  25.998   7.460   6.464
 5757POPC   D2A72808  26.034   7.394   6.764
 5757POPC   C3A72809  26.007   7.415   7.064
 5757POPC   C4A72810  26.037   7.397   7.364
 5757POPC   C1B72811  25.855   7.614   6.464
 5757POPC   C2B72812  25.865   7.617   6.764
 5757POPC   C3B72813  25.844   7.573   7.064
 5757POPC   C4B72814  25.863   7.595   7.364
 5758POPC   NC372815  28.361  24.464   5.564
 5758POPC   PO472816  28.386  24.503   5.864
 5758POPC   GL172817  28.349  24.452   6.164
 5758POPC   GL272818  28.458  24.407   6.164
 5758POPC   C1A72819  28.417  24.495   6.464
 5758POPC   D2A72820  28.337  24.529   6.764
 5758POPC   C3A72821  28.384  24.461   7.064
 5758POPC   C4A72822  28.386  24.505   7.364
 5758POPC   C1B72823  28.556  24.329   6.464
 5758POPC   C2B72824  28.527  24.308   6.764
 5758POPC   C3B72825  28.489  24.244   7.064
 5758POPC   C4B72826  28.522  24.257   7.364
 5759POPC   NC372827  30.687  36.090   5.564
 5759POPC   PO472828  30.672  36.086   5.864
 5759POPC   GL172829  30.649  36.135   6.164
 5759POPC   GL272830  30.835  36.130   6.164
 5759POPC   C1A72831  30.740  36.104   6.464
 5759POPC   D2A72832  30.704  36.093   6.764
 5759POPC   C3A72833  30.662  36.162   7.064
 5759POPC   C4A72834  30.688  36.084   7.364
 5759POPC   C1B72835  30.920  36.215   6.464
 5759POPC   C2B72836  30.949  36.184   6.764
 5759POPC   C3B72837  30.894  36.167   7.064
 5759POPC   C4B72838  30.924  36.144   7.364
 5760POPC   NC372839  22.126  28.363   5.564
 5760POPC   PO472840  22.190  28.332   5.864
 5760POPC   GL172841  22.118  28.386   6.164
 5760POPC   GL272842  22.136  28.284   6.164
 5760POPC   C1A72843  22.140  28.409   6.464
 5760POPC   D2A72844  22.137  28.376   6.764
 5760POPC   C3A72845  22.201  28.332   7.064
 5760POPC   C4A72846  22.175  28.328   7.364
 5760POPC   C1B72847  22.031  28.204   6.464
 5760POPC   C2B72848  21.995  28.187   6.764
 5760POPC   C3B72849  22.038  28.153   7.064
 5760POPC   C4B72850  22.045  28.135   7.364
 5761POPC   NC372851  31.518   5.896   5.564
 5761POPC   PO472852  31.448   5.835   5.864
 5761POPC   GL172853  31.463   5.865   6.164
 5761POPC   GL272854  31.537   6.010   6.164
 5761POPC   C1A72855  31.446   5.918   6.464
 5761POPC   D2A72856  31.507   5.820   6.764
 5761POPC   C3A72857  31.480   5.907   7.064
 5761POPC   C4A72858  31.453   5.896   7.364
 5761POPC   C1B72859  31.598   6.136   6.464
 5761POPC   C2B72860  31.633   6.049   6.764
 5761POPC   C3B72861  31.603   6.069   7.064
 5761POPC   C4B72862  31.634   6.077   7.364
 5762POPC   NC372863  33.845  36.080   5.564
 5762POPC   PO472864  33.770  36.101   5.864
 5762POPC   GL172865  33.789  36.096   6.164
 5762POPC   GL272866  33.959  36.179   6.164
 5762POPC   C1A72867  33.817  36.117   6.464
 5762POPC   D2A72868  33.771  36.111   6.764
 5762POPC   C3A72869  33.783  36.101   7.064
 5762POPC   C4A72870  33.779  36.128   7.364
 5762POPC   C1B72871  34.042  36.148   6.464
 5762POPC   C2B72872  34.051  36.139   6.764
 5762POPC   C3B72873  34.088  36.223   7.064
 5762POPC   C4B72874  34.024  36.226   7.364
 5763POPC   NC372875   2.810  35.357   5.564
 5763POPC   PO472876   2.755  35.313   5.864
 5763POPC   GL172877   2.745  35.339   6.164
 5763POPC   GL272878   2.860  35.331   6.164
 5763POPC   C1A72879   2.767  35.389   6.464
 5763POPC   D2A72880   2.784  35.384   6.764
 5763POPC   C3A72881   2.779  35.317   7.064
 5763POPC   C4A72882   2.745  35.387   7.364
 5763POPC   C1B72883   2.981  35.213   6.464
 5763POPC   C2B72884   2.927  35.195   6.764
 5763POPC   C3B72885   2.962  35.219   7.064
 5763POPC   C4B72886   2.968  35.163   7.364
 5764POPC   NC372887   1.953  37.692   5.564
 5764POPC   PO472888   1.999  37.636   5.864
 5764POPC   GL172889   2.005  37.630   6.164
 5764POPC   GL272890   2.093  37.675   6.164
 5764POPC   C1A72891   1.981  37.634   6.464
 5764POPC   D2A72892   2.022  37.684   6.764
 5764POPC   C3A72893   2.019  37.718   7.064
 5764POPC   C4A72894   1.986  37.679   7.364
 5764POPC   C1B72895   2.259  37.643   6.464
 5764POPC   C2B72896   2.226  37.720   6.764
 5764POPC   C3B72897   2.256  37.720   7.064
 5764POPC   C4B72898   2.219  37.685   7.364
 5765POPC   NC372899  39.238  39.995   5.564
 5765POPC   PO472900  39.194  40.001   5.864
 5765POPC   GL172901  39.277  39.980   6.164
 5765POPC   GL272902  39.137  40.018   6.164
 5765POPC   C1A72903  39.261  39.974   6.464
 5765POPC   D2A72904  39.189  39.996   6.764
 5765POPC   C3A72905  39.212  40.042   7.064
 5765POPC   C4A72906  39.269  40.020   7.364
 5765POPC   C1B72907  38.972  39.926   6.464
 5765POPC   C2B72908  39.015  39.986   6.764
 5765POPC   C3B72909  39.000  39.998   7.064
 5765POPC   C4B72910  38.956  39.965   7.364
 5766POPC   NC372911  29.124  39.242   5.564
 5766POPC   PO472912  29.182  39.206   5.864
 5766POPC   GL172913  29.100  39.190   6.164
 5766POPC   GL272914  29.078  39.304   6.164
 5766POPC   C1A72915  29.173  39.229   6.464
 5766POPC   D2A72916  29.101  39.224   6.764
 5766POPC   C3A72917  29.190  39.279   7.064
 5766POPC   C4A72918  29.153  39.234   7.364
 5766POPC   C1B72919  28.912  39.365   6.464
 5766POPC   C2B72920  28.953  39.365   6.764
 5766POPC   C3B72921  28.976  39.425   7.064
 5766POPC   C4B72922  28.901  39.345   7.364
 5767POPC   NC372923  32.984   9.701   5.564
 5767POPC   PO472924  33.004   9.774   5.864
 5767POPC   GL172925  33.022   9.747   6.164
 5767POPC   GL272926  33.063   9.794   6.164
 5767POPC   C1A72927  32.992   9.773   6.464
 5767POPC   D2A72928  33.050   9.746   6.764
 5767POPC   C3A72929  33.026   9.781   7.064
 5767POPC   C4A72930  33.016   9.712   7.364
 5767POPC   C1B72931  33.143   9.955   6.464
 5767POPC   C2B72932  33.220   9.947   6.764
 5767POPC   C3B72933  33.217   9.904   7.064
 5767POPC   C4B72934  33.213   9.979   7.364
 5768POPC   NC372935   5.055  32.222   5.564
 5768POPC   PO472936   5.117  32.229   5.864
 5768POPC   GL172937   5.084  32.272   6.164
 5768POPC   GL272938   5.030  32.293   6.164
 5768POPC   C1A72939   5.081  32.247   6.464
 5768POPC   D2A72940   5.092  32.284   6.764
 5768POPC   C3A72941   5.071  32.259   7.064
 5768POPC   C4A72942   5.131  32.199   7.364
 5768POPC   C1B72943   4.890  32.463   6.464
 5768POPC   C2B72944   4.954  32.456   6.764
 5768POPC   C3B72945   4.889  32.459   7.064
 5768POPC   C4B72946   4.941  32.392   7.364
 5769POPC   NC372947   8.217  24.477   5.564
 5769POPC   PO472948   8.244  24.443   5.864
 5769POPC   GL172949   8.245  24.445   6.164
 5769POPC   GL272950   8.271  24.589   6.164
 5769POPC   C1A72951   8.170  24.511   6.464
 5769POPC   D2A72952   8.170  24.513   6.764
 5769POPC   C3A72953   8.156  24.511   7.064
 5769POPC   C4A72954   8.166  24.443   7.364
 5769POPC   C1B72955   8.383  24.632   6.464
 5769POPC   C2B72956   8.408  24.658   6.764
 5769POPC   C3B72957   8.430  24.674   7.064
 5769POPC   C4B72958   8.423  24.660   7.364
 5770POPC   NC372959  14.435   4.318   5.564
 5770POPC   PO472960  14.452   4.295   5.864
 5770POPC   GL172961  14.380   4.363   6.164
 5770POPC   GL272962  14.319   4.452   6.164
 5770POPC   C1A72963  14.365   4.319   6.464
 5770POPC   D2A72964  14.426   4.348   6.764
 5770POPC   C3A72965  14.431   4.307   7.064
 5770POPC   C4A72966  14.427   4.362   7.364
 5770POPC   C1B72967  14.319   4.512   6.464
 5770POPC   C2B72968  14.325   4.527   6.764
 5770POPC   C3B72969  14.278   4.529   7.064
 5770POPC   C4B72970  14.266   4.556   7.364
 5771POPC   NC372971   8.978  39.233   5.564
 5771POPC   PO472972   8.964  39.246   5.864
 5771POPC   GL172973   8.991  39.270   6.164
 5771POPC   GL272974   8.989  39.336   6.164
 5771POPC   C1A72975   9.019  39.195   6.464
 5771POPC   D2A72976   9.004  39.263   6.764
 5771POPC   C3A72977   8.990  39.219   7.064
 5771POPC   C4A72978   8.975  39.274   7.364
 5771POPC   C1B72979   8.967  39.480   6.464
 5771POPC   C2B72980   9.032  39.512   6.764
 5771POPC   C3B72981   9.025  39.524   7.064
 5771POPC   C4B72982   8.986  39.430   7.364
 5772POPC   NC372983  36.121  36.887   5.564
 5772POPC   PO472984  36.168  36.945   5.864
 5772POPC   GL172985  36.105  36.911   6.164
 5772POPC   GL272986  36.168  37.054   6.164
 5772POPC   C1A72987  36.121  36.922   6.464
 5772POPC   D2A72988  36.144  36.915   6.764
 5772POPC   C3A72989  36.175  36.884   7.064
 5772POPC   C4A72990  36.174  36.877   7.364
 5772POPC   C1B72991  36.140  37.178   6.464
 5772POPC   C2B72992  36.176  37.109   6.764
 5772POPC   C3B72993  36.137  37.164   7.064
 5772POPC   C4B72994  36.166  37.144   7.364
 5773POPC   NC372995  44.630  24.523   5.564
 5773POPC   PO472996  44.649  24.449   5.864
 5773POPC   GL172997  44.645  24.460   6.164
 5773POPC   GL272998  44.514  24.474   6.164
 5773POPC   C1A72999  44.710  24.526   6.464
 5773POPC   D2A73000  44.709  24.464   6.764
 5773POPC   C3A73001  44.662  24.440   7.064
 5773POPC   C4A73002  44.670  24.466   7.364
 5773POPC   C1B73003  44.456  24.404   6.464
 5773POPC   C2B73004  44.442  24.321   6.764
 5773POPC   C3B73005  44.470  24.407   7.064
 5773POPC   C4B73006  44.406  24.322   7.364
 5774POPC   NC373007  22.160   2.739   5.564
 5774POPC   PO473008  22.202   2.721   5.864
 5774POPC   GL173009  22.137   2.756   6.164
 5774POPC   GL273010  22.066   2.800   6.164
 5774POPC   C1A73011  22.148   2.767   6.464
 5774POPC   D2A73012  22.117   2.808   6.764
 5774POPC   C3A73013  22.189   2.718   7.064
 5774POPC   C4A73014  22.186   2.779   7.364
 5774POPC   C1B73015  21.923   2.749   6.464
 5774POPC   C2B73016  21.915   2.723   6.764
 5774POPC   C3B73017  21.941   2.710   7.064
 5774POPC   C4B73018  21.903   2.726   7.364
 5775POPC   NC373019  26.087  21.424   5.564
 5775POPC   PO473020  26.067  21.420   5.864
 5775POPC   GL173021  26.007  21.349   6.164
 5775POPC   GL273022  26.169  21.501   6.164
 5775POPC   C1A73023  26.091  21.390   6.464
 5775POPC   D2A73024  26.075  21.354   6.764
 5775POPC   C3A73025  26.085  21.385   7.064
 5775POPC   C4A73026  26.019  21.407   7.364
 5775POPC   C1B73027  26.165  21.518   6.464
 5775POPC   C2B73028  26.246  21.559   6.764
 5775POPC   C3B73029  26.237  21.565   7.064
 5775POPC   C4B73030  26.214  21.519   7.364
 5776POPC   NC373031  33.753  13.627   5.564
 5776POPC   PO473032  33.814  13.610   5.864
 5776POPC   GL173033  33.790  13.592   6.164
 5776POPC   GL273034  33.816  13.706   6.164
 5776POPC   C1A73035  33.836  13.608   6.464
 5776POPC   D2A73036  33.759  13.613   6.764
 5776POPC   C3A73037  33.785  13.666   7.064
 5776POPC   C4A73038  33.776  13.622   7.364
 5776POPC   C1B73039  33.823  13.899   6.464
 5776POPC   C2B73040  33.826  13.861   6.764
 5776POPC   C3B73041  33.840  13.892   7.064
 5776POPC   C4B73042  33.860  13.840   7.364
 5777POPC   NC373043  39.990  11.318   5.564
 5777POPC   PO473044  40.019  11.258   5.864
 5777POPC   GL173045  39.962  11.345   6.164
 5777POPC   GL273046  39.896  11.339   6.164
 5777POPC   C1A73047  39.960  11.276   6.464
 5777POPC   D2A73048  39.988  11.298   6.764
 5777POPC   C3A73049  40.003  11.253   7.064
 5777POPC   C4A73050  39.966  11.297   7.364
 5777POPC   C1B73051  39.772  11.426   6.464
 5777POPC   C2B73052  39.758  11.491   6.764
 5777POPC   C3B73053  39.768  11.406   7.064
 5777POPC   C4B73054  39.805  11.490   7.364
 5778POPC   NC373055  43.848  34.594   5.564
 5778POPC   PO473056  43.930  34.575   5.864
 5778POPC   GL173057  43.899  34.604   6.164
 5778POPC   GL273058  43.924  34.449   6.164
 5778POPC   C1A73059  43.851  34.594   6.464
 5778POPC   D2A73060  43.855  34.606   6.764
 5778POPC   C3A73061  43.907  34.581   7.064
 5778POPC   C4A73062  43.899  34.620   7.364
 5778POPC   C1B73063  44.058  34.389   6.464
 5778POPC   C2B73064  43.997  34.348   6.764
 5778POPC   C3B73065  44.047  34.332   7.064
 5778POPC   C4B73066  44.012  34.337   7.364
 5779POPC   NC373067  24.443  37.635   5.564
 5779POPC   PO473068  24.453  37.660   5.864
 5779POPC   GL173069  24.465  37.709   6.164
 5779POPC   GL273070  24.420  37.613   6.164
 5779POPC   C1A73071  24.478  37.649   6.464
 5779POPC   D2A73072  24.489  37.670   6.764
 5779POPC   C3A73073  24.538  37.707   7.064
 5779POPC   C4A73074  24.521  37.704   7.364
 5779POPC   C1B73075  24.221  37.631   6.464
 5779POPC   C2B73076  24.277  37.622   6.764
 5779POPC   C3B73077  24.295  37.634   7.064
 5779POPC   C4B73078  24.250  37.536   7.364
 5780POPC   NC373079  32.236  18.282   5.564
 5780POPC   PO473080  32.259  18.287   5.864
 5780POPC   GL173081  32.292  18.243   6.164
 5780POPC   GL273082  32.169  18.307   6.164
 5780POPC   C1A73083  32.246  18.289   6.464
 5780POPC   D2A73084  32.270  18.328   6.764
 5780POPC   C3A73085  32.275  18.237   7.064
 5780POPC   C4A73086  32.208  18.288   7.364
 5780POPC   C1B73087  31.982  18.355   6.464
 5780POPC   C2B73088  31.995  18.444   6.764
 5780POPC   C3B73089  32.054  18.377   7.064
 5780POPC   C4B73090  32.071  18.351   7.364
 5781POPC   NC373091  43.145   0.474   5.564
 5781POPC   PO473092  43.105   0.412   5.864
 5781POPC   GL173093  43.141   0.475   6.164
 5781POPC   GL273094  43.094   0.524   6.164
 5781POPC   C1A73095  43.158   0.407   6.464
 5781POPC   D2A73096  43.143   0.413   6.764
 5781POPC   C3A73097  43.069   0.417   7.064
 5781POPC   C4A73098  43.115   0.471   7.364
 5781POPC   C1B73099  43.146   0.668   6.464
 5781POPC   C2B73100  43.120   0.649   6.764
 5781POPC   C3B73101  43.181   0.715   7.064
 5781POPC   C4B73102  43.147   0.661   7.364
 5782POPC   NC373103  29.886  26.809   5.564
 5782POPC   PO473104  29.959  26.850   5.864
 5782POPC   GL173105  29.892  26.814   6.164
 5782POPC   GL273106  29.969  26.870   6.164
 5782POPC   C1A73107  29.896  26.768   6.464
 5782POPC   D2A73108  29.916  26.832   6.764
 5782POPC   C3A73109  29.878  26.805   7.064
 5782POPC   C4A73110  29.968  26.778   7.364
 5782POPC   C1B73111  30.162  26.986   6.464
 5782POPC   C2B73112  30.106  26.950   6.764
 5782POPC   C3B73113  30.136  26.997   7.064
 5782POPC   C4B73114  30.081  26.974   7.364
 5783POPC   NC373115  39.272  22.125   5.564
 5783POPC   PO473116  39.271  22.210   5.864
 5783POPC   GL173117  39.184  22.144   6.164
 5783POPC   GL273118  39.094  22.129   6.164
 5783POPC   C1A73119  39.210  22.208   6.464
 5783POPC   D2A73120  39.256  22.192   6.764
 5783POPC   C3A73121  39.195  22.161   7.064
 5783POPC   C4A73122  39.259  22.128   7.364
 5783POPC   C1B73123  38.972  22.075   6.464
 5783POPC   C2B73124  38.977  22.097   6.764
 5783POPC   C3B73125  39.013  22.034   7.064
 5783POPC   C4B73126  39.004  22.038   7.364
 5784POPC   NC373127  19.009   8.224   5.564
 5784POPC   PO473128  19.092   8.192   5.864
 5784POPC   GL173129  19.009   8.168   6.164
 5784POPC   GL273130  19.003   8.141   6.164
 5784POPC   C1A73131  19.010   8.174   6.464
 5784POPC   D2A73132  19.071   8.181   6.764
 5784POPC   C3A73133  19.085   8.194   7.064
 5784POPC   C4A73134  19.041   8.171   7.364
 5784POPC   C1B73135  18.873   8.066   6.464
 5784POPC   C2B73136  18.902   8.082   6.764
 5784POPC   C3B73137  18.845   7.990   7.064
 5784POPC   C4B73138  18.889   8.059   7.364
 5785POPC   NC373139   6.689  24.482   5.564
 5785POPC   PO473140   6.666  24.447   5.864
 5785POPC   GL173141   6.672  24.443   6.164
 5785POPC   GL273142   6.717  24.527   6.164
 5785POPC   C1A73143   6.643  24.451   6.464
 5785POPC   D2A73144   6.628  24.470   6.764
 5785POPC   C3A73145   6.602  24.467   7.064
 5785POPC   C4A73146   6.632  24.449   7.364
 5785POPC   C1B73147   6.800  24.644   6.464
 5785POPC   C2B73148   6.850  24.698   6.764
 5785POPC   C3B73149   6.847  24.656   7.064
 5785POPC   C4B73150   6.776  24.668   7.364
 5786POPC   NC373151  39.199   6.609   5.564
 5786POPC   PO473152  39.220   6.632   5.864
 5786POPC   GL173153  39.279   6.653   6.164
 5786POPC   GL273154  39.070   6.661   6.164
 5786POPC   C1A73155  39.182   6.640   6.464
 5786POPC   D2A73156  39.259   6.607   6.764
 5786POPC   C3A73157  39.277   6.630   7.064
 5786POPC   C4A73158  39.252   6.636   7.364
 5786POPC   C1B73159  38.955   6.737   6.464
 5786POPC   C2B73160  39.024   6.759   6.764
 5786POPC   C3B73161  38.968   6.738   7.064
 5786POPC   C4B73162  38.986   6.773   7.364
 5787POPC   NC373163  36.903   2.732   5.564
 5787POPC   PO473164  36.864   2.800   5.864
 5787POPC   GL173165  36.902   2.788   6.164
 5787POPC   GL273166  37.026   2.865   6.164
 5787POPC   C1A73167  36.905   2.750   6.464
 5787POPC   D2A73168  36.906   2.801   6.764
 5787POPC   C3A73169  36.948   2.729   7.064
 5787POPC   C4A73170  36.923   2.723   7.364
 5787POPC   C1B73171  37.101   2.921   6.464
 5787POPC   C2B73172  37.079   2.889   6.764
 5787POPC   C3B73173  37.127   2.861   7.064
 5787POPC   C4B73174  37.139   2.870   7.364
 5788POPC   NC373175  30.674   4.340   5.564
 5788POPC   PO473176  30.711   4.358   5.864
 5788POPC   GL173177  30.662   4.292   6.164
 5788POPC   GL273178  30.687   4.182   6.164
 5788POPC   C1A73179  30.694   4.349   6.464
 5788POPC   D2A73180  30.736   4.307   6.764
 5788POPC   C3A73181  30.663   4.337   7.064
 5788POPC   C4A73182  30.674   4.301   7.364
 5788POPC   C1B73183  30.650   4.061   6.464
 5788POPC   C2B73184  30.632   4.045   6.764
 5788POPC   C3B73185  30.628   4.075   7.064
 5788POPC   C4B73186  30.568   4.045   7.364
 5789POPC   NC373187  33.840  29.890   5.564
 5789POPC   PO473188  33.816  29.938   5.864
 5789POPC   GL173189  33.830  29.905   6.164
 5789POPC   GL273190  33.805  30.018   6.164
 5789POPC   C1A73191  33.788  29.888   6.464
 5789POPC   D2A73192  33.814  29.885   6.764
 5789POPC   C3A73193  33.792  29.901   7.064
 5789POPC   C4A73194  33.805  29.960   7.364
 5789POPC   C1B73195  33.869  30.167   6.464
 5789POPC   C2B73196  33.842  30.125   6.764
 5789POPC   C3B73197  33.820  30.213   7.064
 5789POPC   C4B73198  33.822  30.152   7.364
 5790POPC   NC373199  11.282   8.188   5.564
 5790POPC   PO473200  11.307   8.242   5.864
 5790POPC   GL173201  11.300   8.240   6.164
 5790POPC   GL273202  11.235   8.305   6.164
 5790POPC   C1A73203  11.267   8.235   6.464
 5790POPC   D2A73204  11.348   8.222   6.764
 5790POPC   C3A73205  11.326   8.148   7.064
 5790POPC   C4A73206  11.268   8.154   7.364
 5790POPC   C1B73207  11.039   8.291   6.464
 5790POPC   C2B73208  11.130   8.331   6.764
 5790POPC   C3B73209  11.118   8.352   7.064
 5790POPC   C4B73210  11.092   8.307   7.364
 5791POPC   NC373211  15.980  14.435   5.564
 5791POPC   PO473212  15.934  14.378   5.864
 5791POPC   GL173213  15.986  14.430   6.164
 5791POPC   GL273214  15.804  14.308   6.164
 5791POPC   C1A73215  15.954  14.432   6.464
 5791POPC   D2A73216  15.955  14.378   6.764
 5791POPC   C3A73217  15.966  14.394   7.064
 5791POPC   C4A73218  15.928  14.409   7.364
 5791POPC   C1B73219  15.766  14.317   6.464
 5791POPC   C2B73220  15.691  14.234   6.764
 5791POPC   C3B73221  15.779  14.312   7.064
 5791POPC   C4B73222  15.703  14.239   7.364
 5792POPC   NC373223   1.951   0.403   5.564
 5792POPC   PO473224   1.956   0.420   5.864
 5792POPC   GL173225   1.954   0.480   6.164
 5792POPC   GL273226   2.006   0.568   6.164
 5792POPC   C1A73227   1.980   0.432   6.464
 5792POPC   D2A73228   1.948   0.400   6.764
 5792POPC   C3A73229   1.953   0.421   7.064
 5792POPC   C4A73230   1.943   0.456   7.364
 5792POPC   C1B73231   2.008   0.727   6.464
 5792POPC   C2B73232   2.040   0.725   6.764
 5792POPC   C3B73233   2.073   0.709   7.064
 5792POPC   C4B73234   2.035   0.654   7.364
 5793POPC   NC373235  19.020  31.440   5.564
 5793POPC   PO473236  19.081  31.434   5.864
 5793POPC   GL173237  19.106  31.451   6.164
 5793POPC   GL273238  19.072  31.361   6.164
 5793POPC   C1A73239  19.102  31.490   6.464
 5793POPC   D2A73240  19.013  31.445   6.764
 5793POPC   C3A73241  19.041  31.434   7.064
 5793POPC   C4A73242  19.099  31.497   7.364
 5793POPC   C1B73243  19.087  31.211   6.464
 5793POPC   C2B73244  19.054  31.253   6.764
 5793POPC   C3B73245  19.134  31.266   7.064
 5793POPC   C4B73246  19.063  31.203   7.364
 5794POPC   NC373247  16.681  25.992   5.564
 5794POPC   PO473248  16.697  26.078   5.864
 5794POPC   GL173249  16.739  26.086   6.164
 5794POPC   GL273250  16.842  26.103   6.164
 5794POPC   C1A73251  16.698  26.030   6.464
 5794POPC   D2A73252  16.724  26.072   6.764
 5794POPC   C3A73253  16.733  26.010   7.064
 5794POPC   C4A73254  16.746  26.012   7.364
 5794POPC   C1B73255  16.950  26.142   6.464
 5794POPC   C2B73256  16.931  26.147   6.764
 5794POPC   C3B73257  16.935  26.102   7.064
 5794POPC   C4B73258  16.950  26.069   7.364
 5795POPC   NC373259   6.671  36.131   5.564
 5795POPC   PO473260   6.628  36.136   5.864
 5795POPC   GL173261   6.602  36.103   6.164
 5795POPC   GL273262   6.780  36.039   6.164
 5795POPC   C1A73263   6.600  36.122   6.464
 5795POPC   D2A73264   6.692  36.152   6.764
 5795POPC   C3A73265   6.626  36.080   7.064
 5795POPC   C4A73266   6.650  36.128   7.364
 5795POPC   C1B73267   6.912  36.006   6.464
 5795POPC   C2B73268   6.852  36.043   6.764
 5795POPC   C3B73269   6.853  36.036   7.064
 5795POPC   C4B73270   6.833  36.067   7.364
 5796POPC   NC373271  38.427  12.062   5.564
 5796POPC   PO473272  38.428  12.084   5.864
 5796POPC   GL173273  38.425  12.055   6.164
 5796POPC   GL273274  38.529  12.236   6.164
 5796POPC   C1A73275  38.489  12.104   6.464
 5796POPC   D2A73276  38.488  12.073   6.764
 5796POPC   C3A73277  38.416  12.120   7.064
 5796POPC   C4A73278  38.411  12.090   7.364
 5796POPC   C1B73279  38.570  12.337   6.464
 5796POPC   C2B73280  38.551  12.334   6.764
 5796POPC   C3B73281  38.588  12.276   7.064
 5796POPC   C4B73282  38.535  12.286   7.364
 5797POPC   NC373283  19.058  18.262   5.564
 5797POPC   PO473284  19.010  18.254   5.864
 5797POPC   GL173285  19.030  18.309   6.164
 5797POPC   GL273286  18.921  18.233   6.164
 5797POPC   C1A73287  19.079  18.286   6.464
 5797POPC   D2A73288  19.080  18.247   6.764
 5797POPC   C3A73289  19.067  18.316   7.064
 5797POPC   C4A73290  19.020  18.237   7.364
 5797POPC   C1B73291  18.871  18.168   6.464
 5797POPC   C2B73292  18.851  18.163   6.764
 5797POPC   C3B73293  18.875  18.153   7.064
 5797POPC   C4B73294  18.906  18.083   7.364
 5798POPC   NC373295  39.974   1.969   5.564
 5798POPC   PO473296  40.045   1.950   5.864
 5798POPC   GL173297  39.977   1.948   6.164
 5798POPC   GL273298  40.050   1.918   6.164
 5798POPC   C1A73299  40.000   1.983   6.464
 5798POPC   D2A73300  40.003   1.987   6.764
 5798POPC   C3A73301  40.027   2.023   7.064
 5798POPC   C4A73302  40.031   1.941   7.364
 5798POPC   C1B73303  40.117   1.731   6.464
 5798POPC   C2B73304  40.097   1.801   6.764
 5798POPC   C3B73305  40.146   1.791   7.064
 5798POPC   C4B73306  40.107   1.777   7.364
 5799POPC   NC373307  33.023  30.657   5.564
 5799POPC   PO473308  33.063  30.711   5.864
 5799POPC   GL173309  33.011  30.661   6.164
 5799POPC   GL273310  32.897  30.820   6.164
 5799POPC   C1A73311  33.057  30.725   6.464
 5799POPC   D2A73312  33.020  30.686   6.764
 5799POPC   C3A73313  33.067  30.687   7.064
 5799POPC   C4A73314  33.058  30.746   7.364
 5799POPC   C1B73315  32.887  30.862   6.464
 5799POPC   C2B73316  32.796  30.868   6.764
 5799POPC   C3B73317  32.874  30.886   7.064
 5799POPC   C4B73318  32.811  30.823   7.364
 5800POPC   NC373319  26.862  26.779   5.564
 5800POPC   PO473320  26.774  26.820   5.864
 5800POPC   GL173321  26.801  26.857   6.164
 5800POPC   GL273322  26.790  26.739   6.164
 5800POPC   C1A73323  26.845  26.790   6.464
 5800POPC   D2A73324  26.840  26.794   6.764
 5800POPC   C3A73325  26.840  26.781   7.064
 5800POPC   C4A73326  26.857  26.786   7.364
 5800POPC   C1B73327  26.685  26.581   6.464
 5800POPC   C2B73328  26.677  26.640   6.764
 5800POPC   C3B73329  26.707  26.583   7.064
 5800POPC   C4B73330  26.725  26.617   7.364
 5801POPC   NC373331  14.359   2.007   5.564
 5801POPC   PO473332  14.360   1.996   5.864
 5801POPC   GL173333  14.400   1.970   6.164
 5801POPC   GL273334  14.318   1.859   6.164
 5801POPC   C1A73335  14.354   1.964   6.464
 5801POPC   D2A73336  14.450   1.996   6.764
 5801POPC   C3A73337  14.390   1.950   7.064
 5801POPC   C4A73338  14.445   1.980   7.364
 5801POPC   C1B73339  14.254   1.811   6.464
 5801POPC   C2B73340  14.190   1.832   6.764
 5801POPC   C3B73341  14.238   1.817   7.064
 5801POPC   C4B73342  14.217   1.782   7.364
 5802POPC   NC373343  40.029   5.083   5.564
 5802POPC   PO473344  39.982   5.071   5.864
 5802POPC   GL173345  40.031   5.094   6.164
 5802POPC   GL273346  40.092   5.004   6.164
 5802POPC   C1A73347  39.996   5.056   6.464
 5802POPC   D2A73348  39.967   5.043   6.764
 5802POPC   C3A73349  39.969   5.078   7.064
 5802POPC   C4A73350  39.967   5.051   7.364
 5802POPC   C1B73351  40.192   4.968   6.464
 5802POPC   C2B73352  40.261   4.984   6.764
 5802POPC   C3B73353  40.190   4.962   7.064
 5802POPC   C4B73354  40.210   4.989   7.364
 5803POPC   NC373355   8.993  40.807   5.564
 5803POPC   PO473356   8.990  40.764   5.864
 5803POPC   GL173357   8.945  40.783   6.164
 5803POPC   GL273358   9.068  40.700   6.164
 5803POPC   C1A73359   9.004  40.745   6.464
 5803POPC   D2A73360   8.933  40.779   6.764
 5803POPC   C3A73361   8.978  40.762   7.064
 5803POPC   C4A73362   8.949  40.756   7.364
 5803POPC   C1B73363   9.134  40.565   6.464
 5803POPC   C2B73364   9.087  40.547   6.764
 5803POPC   C3B73365   9.085  40.564   7.064
 5803POPC   C4B73366   9.131  40.539   7.364
 5804POPC   NC373367  14.424  31.516   5.564
 5804POPC   PO473368  14.438  31.466   5.864
 5804POPC   GL173369  14.400  31.500   6.164
 5804POPC   GL273370  14.524  31.470   6.164
 5804POPC   C1A73371  14.419  31.451   6.464
 5804POPC   D2A73372  14.434  31.442   6.764
 5804POPC   C3A73373  14.447  31.486   7.064
 5804POPC   C4A73374  14.445  31.495   7.364
 5804POPC   C1B73375  14.607  31.402   6.464
 5804POPC   C2B73376  14.602  31.399   6.764
 5804POPC   C3B73377  14.656  31.325   7.064
 5804POPC   C4B73378  14.631  31.401   7.364
 5805POPC   NC373379  27.606  19.033   5.564
 5805POPC   PO473380  27.632  19.035   5.864
 5805POPC   GL173381  27.631  19.049   6.164
 5805POPC   GL273382  27.497  19.068   6.164
 5805POPC   C1A73383  27.633  19.013   6.464
 5805POPC   D2A73384  27.617  19.051   6.764
 5805POPC   C3A73385  27.586  19.105   7.064
 5805POPC   C4A73386  27.566  19.051   7.364
 5805POPC   C1B73387  27.365  19.129   6.464
 5805POPC   C2B73388  27.390  19.071   6.764
 5805POPC   C3B73389  27.385  19.130   7.064
 5805POPC   C4B73390  27.347  19.091   7.364
 5806POPC   NC373391   7.379  11.311   5.564
 5806POPC   PO473392   7.428  11.313   5.864
 5806POPC   GL173393   7.465  11.318   6.164
 5806POPC   GL273394   7.474  11.372   6.164
 5806POPC   C1A73395   7.466  11.268   6.464
 5806POPC   D2A73396   7.468  11.269   6.764
 5806POPC   C3A73397   7.392  11.298   7.064
 5806POPC   C4A73398   7.410  11.325   7.364
 5806POPC   C1B73399   7.599  11.525   6.464
 5806POPC   C2B73400   7.640  11.474   6.764
 5806POPC   C3B73401   7.566  11.498   7.064
 5806POPC   C4B73402   7.622  11.493   7.364
 5807POPC   NC373403   8.179  43.097   5.564
 5807POPC   PO473404   8.173  43.099   5.864
 5807POPC   GL173405   8.184  43.088   6.164
 5807POPC   GL273406   8.098  43.144   6.164
 5807POPC   C1A73407   8.158  43.125   6.464
 5807POPC   D2A73408   8.156  43.120   6.764
 5807POPC   C3A73409   8.204  43.074   7.064
 5807POPC   C4A73410   8.245  43.105   7.364
 5807POPC   C1B73411   7.939  43.229   6.464
 5807POPC   C2B73412   7.967  43.287   6.764
 5807POPC   C3B73413   7.973  43.220   7.064
 5807POPC   C4B73414   8.024  43.254   7.364
 5808POPC   NC373415  24.460   3.529   5.564
 5808POPC   PO473416  24.506   3.492   5.864
 5808POPC   GL173417  24.527   3.514   6.164
 5808POPC   GL273418  24.425   3.379   6.164
 5808POPC   C1A73419  24.509   3.515   6.464
 5808POPC   D2A73420  24.491   3.507   6.764
 5808POPC   C3A73421  24.498   3.505   7.064
 5808POPC   C4A73422  24.440   3.528   7.364
 5808POPC   C1B73423  24.422   3.338   6.464
 5808POPC   C2B73424  24.463   3.295   6.764
 5808POPC   C3B73425  24.497   3.282   7.064
 5808POPC   C4B73426  24.425   3.285   7.364
 5809POPC   NC373427  40.038  38.416   5.564
 5809POPC   PO473428  39.957  38.423   5.864
 5809POPC   GL173429  39.970  38.407   6.164
 5809POPC   GL273430  39.916  38.453   6.164
 5809POPC   C1A73431  40.031  38.429   6.464
 5809POPC   D2A73432  39.961  38.468   6.764
 5809POPC   C3A73433  39.969  38.475   7.064
 5809POPC   C4A73434  40.021  38.489   7.364
 5809POPC   C1B73435  39.760  38.524   6.464
 5809POPC   C2B73436  39.795  38.533   6.764
 5809POPC   C3B73437  39.748  38.567   7.064
 5809POPC   C4B73438  39.760  38.530   7.364
 5810POPC   NC373439  43.917  10.564   5.564
 5810POPC   PO473440  43.849  10.477   5.864
 5810POPC   GL173441  43.845  10.542   6.164
 5810POPC   GL273442  43.958  10.439   6.164
 5810POPC   C1A73443  43.899  10.491   6.464
 5810POPC   D2A73444  43.926  10.508   6.764
 5810POPC   C3A73445  43.896  10.558   7.064
 5810POPC   C4A73446  43.905  10.516   7.364
 5810POPC   C1B73447  44.044  10.279   6.464
 5810POPC   C2B73448  44.044  10.262   6.764
 5810POPC   C3B73449  43.995  10.344   7.064
 5810POPC   C4B73450  44.008  10.347   7.364
 5811POPC   NC373451  11.309  29.904   5.564
 5811POPC   PO473452  11.323  29.910   5.864
 5811POPC   GL173453  11.341  29.895   6.164
 5811POPC   GL273454  11.162  29.847   6.164
 5811POPC   C1A73455  11.349  29.887   6.464
 5811POPC   D2A73456  11.304  29.945   6.764
 5811POPC   C3A73457  11.307  29.904   7.064
 5811POPC   C4A73458  11.288  29.877   7.364
 5811POPC   C1B73459  11.112  29.821   6.464
 5811POPC   C2B73460  11.059  29.772   6.764
 5811POPC   C3B73461  11.076  29.746   7.064
 5811POPC   C4B73462  11.096  29.838   7.364
 5812POPC   NC373463   0.480  33.822   5.564
 5812POPC   PO473464   0.483  33.780   5.864
 5812POPC   GL173465   0.429  33.827   6.164
 5812POPC   GL273466   0.601  33.807   6.164
 5812POPC   C1A73467   0.443  33.810   6.464
 5812POPC   D2A73468   0.474  33.783   6.764
 5812POPC   C3A73469   0.438  33.783   7.064
 5812POPC   C4A73470   0.428  33.780   7.364
 5812POPC   C1B73471   0.720  33.863   6.464
 5812POPC   C2B73472   0.721  33.861   6.764
 5812POPC   C3B73473   0.646  33.800   7.064
 5812POPC   C4B73474   0.675  33.786   7.364
 5813POPC   NC373475   8.949  22.906   5.564
 5813POPC   PO473476   8.929  22.898   5.864
 5813POPC   GL173477   8.930  22.924   6.164
 5813POPC   GL273478   9.120  22.953   6.164
 5813POPC   C1A73479   9.000  22.914   6.464
 5813POPC   D2A73480   8.943  22.971   6.764
 5813POPC   C3A73481   9.016  22.985   7.064
 5813POPC   C4A73482   8.935  22.918   7.364
 5813POPC   C1B73483   9.221  22.932   6.464
 5813POPC   C2B73484   9.206  22.972   6.764
 5813POPC   C3B73485   9.208  22.972   7.064
 5813POPC   C4B73486   9.208  22.980   7.364
 5814POPC   NC373487   5.045  20.598   5.564
 5814POPC   PO473488   5.124  20.562   5.864
 5814POPC   GL173489   5.117  20.572   6.164
 5814POPC   GL273490   5.036  20.719   6.164
 5814POPC   C1A73491   5.122  20.567   6.464
 5814POPC   D2A73492   5.053  20.621   6.764
 5814POPC   C3A73493   5.088  20.585   7.064
 5814POPC   C4A73494   5.142  20.580   7.364
 5814POPC   C1B73495   5.048  20.802   6.464
 5814POPC   C2B73496   5.026  20.811   6.764
 5814POPC   C3B73497   5.048  20.838   7.064
 5814POPC   C4B73498   5.058  20.862   7.364
 5815POPC   NC373499  40.806  29.919   5.564
 5815POPC   PO473500  40.808  29.883   5.864
 5815POPC   GL173501  40.800  29.924   6.164
 5815POPC   GL273502  40.943  29.912   6.164
 5815POPC   C1A73503  40.808  29.928   6.464
 5815POPC   D2A73504  40.803  29.883   6.764
 5815POPC   C3A73505  40.736  29.893   7.064
 5815POPC   C4A73506  40.828  29.940   7.364
 5815POPC   C1B73507  41.021  29.888   6.464
 5815POPC   C2B73508  41.068  29.962   6.764
 5815POPC   C3B73509  41.010  29.972   7.064
 5815POPC   C4B73510  41.042  29.916   7.364
 5816POPC   NC373511  25.309   9.010   5.564
 5816POPC   PO473512  25.288   8.986   5.864
 5816POPC   GL173513  25.217   8.959   6.164
 5816POPC   GL273514  25.396   9.086   6.164
 5816POPC   C1A73515  25.255   8.957   6.464
 5816POPC   D2A73516  25.267   8.947   6.764
 5816POPC   C3A73517  25.216   9.019   7.064
 5816POPC   C4A73518  25.268   8.972   7.364
 5816POPC   C1B73519  25.431   9.124   6.464
 5816POPC   C2B73520  25.402   9.104   6.764
 5816POPC   C3B73521  25.430   9.121   7.064
 5816POPC   C4B73522  25.413   9.194   7.364
 5817POPC   NC373523   8.926  30.659   5.564
 5817POPC   PO473524   9.016  30.690   5.864
 5817POPC   GL173525   8.971  30.674   6.164
 5817POPC   GL273526   8.829  30.710   6.164
 5817POPC   C1A73527   8.944  30.726   6.464
 5817POPC   D2A73528   8.938  30.675   6.764
 5817POPC   C3A73529   8.926  30.683   7.064
 5817POPC   C4A73530   8.936  30.718   7.364
 5817POPC   C1B73531   8.734  30.633   6.464
 5817POPC   C2B73532   8.743  30.666   6.764
 5817POPC   C3B73533   8.756  30.697   7.064
 5817POPC   C4B73534   8.692  30.687   7.364
 5818POPC   NC373535  44.661  41.604   5.564
 5818POPC   PO473536  44.654  41.553   5.864
 5818POPC   GL173537  44.708  41.534   6.164
 5818POPC   GL273538  44.722  41.428   6.164
 5818POPC   C1A73539  44.686  41.595   6.464
 5818POPC   D2A73540  44.615  41.539   6.764
 5818POPC   C3A73541  44.662  41.532   7.064
 5818POPC   C4A73542  44.643  41.553   7.364
 5818POPC   C1B73543  44.771  41.371   6.464
 5818POPC   C2B73544  44.784  41.363   6.764
 5818POPC   C3B73545  44.748  41.305   7.064
 5818POPC   C4B73546  44.714  41.361   7.364
 5819POPC   NC373547  40.802  40.805   5.564
 5819POPC   PO473548  40.825  40.774   5.864
 5819POPC   GL173549  40.744  40.734   6.164
 5819POPC   GL273550  40.878  40.791   6.164
 5819POPC   C1A73551  40.787  40.783   6.464
 5819POPC   D2A73552  40.775  40.832   6.764
 5819POPC   C3A73553  40.782  40.772   7.064
 5819POPC   C4A73554  40.778  40.744   7.364
 5819POPC   C1B73555  41.076  40.682   6.464
 5819POPC   C2B73556  41.061  40.740   6.764
 5819POPC   C3B73557  40.977  40.756   7.064
 5819POPC   C4B73558  41.017  40.696   7.364
 5820POPC   NC373559  10.553   1.997   5.564
 5820POPC   PO473560  10.487   1.993   5.864
 5820POPC   GL173561  10.520   1.955   6.164
 5820POPC   GL273562  10.490   1.901   6.164
 5820POPC   C1A73563  10.547   1.952   6.464
 5820POPC   D2A73564  10.542   2.023   6.764
 5820POPC   C3A73565  10.546   2.013   7.064
 5820POPC   C4A73566  10.529   2.025   7.364
 5820POPC   C1B73567  10.407   1.758   6.464
 5820POPC   C2B73568  10.387   1.806   6.764
 5820POPC   C3B73569  10.370   1.801   7.064
 5820POPC   C4B73570  10.414   1.791   7.364
 5821POPC   NC373571   3.494  32.982   5.564
 5821POPC   PO473572   3.541  32.984   5.864
 5821POPC   GL173573   3.526  33.044   6.164
 5821POPC   GL273574   3.411  32.974   6.164
 5821POPC   C1A73575   3.522  33.004   6.464
 5821POPC   D2A73576   3.510  32.990   6.764
 5821POPC   C3A73577   3.529  32.992   7.064
 5821POPC   C4A73578   3.567  33.026   7.364
 5821POPC   C1B73579   3.326  32.935   6.464
 5821POPC   C2B73580   3.304  32.859   6.764
 5821POPC   C3B73581   3.320  32.864   7.064
 5821POPC   C4B73582   3.306  32.880   7.364
 5822POPC   NC373583   0.442  43.879   5.564
 5822POPC   PO473584   0.396  43.900   5.864
 5822POPC   GL173585   0.448  43.893   6.164
 5822POPC   GL273586   0.423  43.795   6.164
 5822POPC   C1A73587   0.479  43.883   6.464
 5822POPC   D2A73588   0.487  43.878   6.764
 5822POPC   C3A73589   0.454  43.858   7.064
 5822POPC   C4A73590   0.443  43.918   7.364
 5822POPC   C1B73591   0.467  43.664   6.464
 5822POPC   C2B73592   0.440  43.645   6.764
 5822POPC   C3B73593   0.491  43.599   7.064
 5822POPC   C4B73594   0.420  43.647   7.364
 5823POPC   NC373595  41.566  35.351   5.564
 5823POPC   PO473596  41.523  35.348   5.864
 5823POPC   GL173597  41.605  35.330   6.164
 5823POPC   GL273598  41.551  35.187   6.164
 5823POPC   C1A73599  41.578  35.353   6.464
 5823POPC   D2A73600  41.544  35.340   6.764
 5823POPC   C3A73601  41.533  35.363   7.064
 5823POPC   C4A73602  41.557  35.308   7.364
 5823POPC   C1B73603  41.568  35.150   6.464
 5823POPC   C2B73604  41.530  35.120   6.764
 5823POPC   C3B73605  41.551  35.104   7.064
 5823POPC   C4B73606  41.553  35.116   7.364
 5824POPC   NC373607   4.355   7.440   5.564
 5824POPC   PO473608   4.309   7.467   5.864
 5824POPC   GL173609   4.274   7.439   6.164
 5824POPC   GL273610   4.190   7.348   6.164
 5824POPC   C1A73611   4.323   7.385   6.464
 5824POPC   D2A73612   4.363   7.453   6.764
 5824POPC   C3A73613   4.312   7.377   7.064
 5824POPC   C4A73614   4.348   7.377   7.364
 5824POPC   C1B73615   4.155   7.278   6.464
 5824POPC   C2B73616   4.131   7.245   6.764
 5824POPC   C3B73617   4.128   7.279   7.064
 5824POPC   C4B73618   4.093   7.271   7.364
 5825POPC   NC373619  28.340  19.037   5.564
 5825POPC   PO473620  28.383  19.105   5.864
 5825POPC   GL173621  28.408  19.045   6.164
 5825POPC   GL273622  28.499  19.071   6.164
 5825POPC   C1A73623  28.410  19.075   6.464
 5825POPC   D2A73624  28.370  19.010   6.764
 5825POPC   C3A73625  28.320  19.073   7.064
 5825POPC   C4A73626  28.372  19.014   7.364
 5825POPC   C1B73627  28.594  19.098   6.464
 5825POPC   C2B73628  28.611  19.154   6.764
 5825POPC   C3B73629  28.637  19.113   7.064
 5825POPC   C4B73630  28.635  19.061   7.364
 5826POPC   NC373631  31.458  10.500   5.564
 5826POPC   PO473632  31.459  10.552   5.864
 5826POPC   GL173633  31.427  10.541   6.164
 5826POPC   GL273634  31.398  10.624   6.164
 5826POPC   C1A73635  31.496  10.480   6.464
 5826POPC   D2A73636  31.481  10.535   6.764
 5826POPC   C3A73637  31.431  10.568   7.064
 5826POPC   C4A73638  31.504  10.558   7.364
 5826POPC   C1B73639  31.321  10.789   6.464
 5826POPC   C2B73640  31.347  10.747   6.764
 5826POPC   C3B73641  31.334  10.697   7.064
 5826POPC   C4B73642  31.347  10.695   7.364
 5827POPC   NC373643  38.467  40.733   5.564
 5827POPC   PO473644  38.501  40.777   5.864
 5827POPC   GL173645  38.462  40.829   6.164
 5827POPC   GL273646  38.536  40.678   6.164
 5827POPC   C1A73647  38.433  40.802   6.464
 5827POPC   D2A73648  38.484  40.827   6.764
 5827POPC   C3A73649  38.483  40.790   7.064
 5827POPC   C4A73650  38.419  40.778   7.364
 5827POPC   C1B73651  38.718  40.638   6.464
 5827POPC   C2B73652  38.670  40.637   6.764
 5827POPC   C3B73653  38.728  40.674   7.064
 5827POPC   C4B73654  38.696  40.664   7.364
 5828POPC   NC373655   2.027   4.299   5.564
 5828POPC   PO473656   1.974   4.352   5.864
 5828POPC   GL173657   2.000   4.299   6.164
 5828POPC   GL273658   1.899   4.216   6.164
 5828POPC   C1A73659   2.039   4.307   6.464
 5828POPC   D2A73660   2.012   4.341   6.764
 5828POPC   C3A73661   1.993   4.289   7.064
 5828POPC   C4A73662   1.944   4.269   7.364
 5828POPC   C1B73663   1.772   4.103   6.464
 5828POPC   C2B73664   1.783   4.159   6.764
 5828POPC   C3B73665   1.818   4.118   7.064
 5828POPC   C4B73666   1.826   4.192   7.364
 5829POPC   NC373667  37.704   6.598   5.564
 5829POPC   PO473668  37.675   6.687   5.864
 5829POPC   GL173669  37.717   6.655   6.164
 5829POPC   GL273670  37.518   6.681   6.164
 5829POPC   C1A73671  37.647   6.694   6.464
 5829POPC   D2A73672  37.665   6.631   6.764
 5829POPC   C3A73673  37.685   6.637   7.064
 5829POPC   C4A73674  37.638   6.603   7.364
 5829POPC   C1B73675  37.418   6.730   6.464
 5829POPC   C2B73676  37.485   6.696   6.764
 5829POPC   C3B73677  37.401   6.707   7.064
 5829POPC   C4B73678  37.437   6.742   7.364
 5830POPC   NC373679  13.646  42.316   5.564
 5830POPC   PO473680  13.658  42.300   5.864
 5830POPC   GL173681  13.585  42.293   6.164
 5830POPC   GL273682  13.544  42.419   6.164
 5830POPC   C1A73683  13.667  42.373   6.464
 5830POPC   D2A73684  13.663  42.343   6.764
 5830POPC   C3A73685  13.635  42.331   7.064
 5830POPC   C4A73686  13.614  42.374   7.364
 5830POPC   C1B73687  13.401  42.424   6.464
 5830POPC   C2B73688  13.382  42.496   6.764
 5830POPC   C3B73689  13.393  42.445   7.064
 5830POPC   C4B73690  13.384  42.438   7.364
 5831POPC   NC373691  29.150  25.310   5.564
 5831POPC   PO473692  29.099  25.229   5.864
 5831POPC   GL173693  29.132  25.226   6.164
 5831POPC   GL273694  29.158  25.148   6.164
 5831POPC   C1A73695  29.187  25.267   6.464
 5831POPC   D2A73696  29.149  25.256   6.764
 5831POPC   C3A73697  29.123  25.279   7.064
 5831POPC   C4A73698  29.181  25.299   7.364
 5831POPC   C1B73699  29.266  25.014   6.464
 5831POPC   C2B73700  29.252  25.080   6.764
 5831POPC   C3B73701  29.270  25.030   7.064
 5831POPC   C4B73702  29.264  25.069   7.364
 5832POPC   NC373703  42.364   4.340   5.564
 5832POPC   PO473704  42.361   4.282   5.864
 5832POPC   GL173705  42.339   4.320   6.164
 5832POPC   GL273706  42.217   4.317   6.164
 5832POPC   C1A73707  42.330   4.271   6.464
 5832POPC   D2A73708  42.346   4.309   6.764
 5832POPC   C3A73709  42.300   4.331   7.064
 5832POPC   C4A73710  42.335   4.351   7.364
 5832POPC   C1B73711  42.053   4.433   6.464
 5832POPC   C2B73712  42.106   4.423   6.764
 5832POPC   C3B73713  42.124   4.352   7.064
 5832POPC   C4B73714  42.107   4.396   7.364
 5833POPC   NC373715  37.713  20.579   5.564
 5833POPC   PO473716  37.675  20.612   5.864
 5833POPC   GL173717  37.645  20.587   6.164
 5833POPC   GL273718  37.662  20.530   6.164
 5833POPC   C1A73719  37.706  20.561   6.464
 5833POPC   D2A73720  37.711  20.581   6.764
 5833POPC   C3A73721  37.662  20.581   7.064
 5833POPC   C4A73722  37.718  20.593   7.364
 5833POPC   C1B73723  37.664  20.407   6.464
 5833POPC   C2B73724  37.696  20.358   6.764
 5833POPC   C3B73725  37.684  20.348   7.064
 5833POPC   C4B73726  37.645  20.389   7.364
 5834POPC   NC373727  26.024  29.111   5.564
 5834POPC   PO473728  26.036  29.145   5.864
 5834POPC   GL173729  26.089  29.186   6.164
 5834POPC   GL273730  26.014  29.317   6.164
 5834POPC   C1A73731  26.033  29.139   6.464
 5834POPC   D2A73732  26.069  29.169   6.764
 5834POPC   C3A73733  26.000  29.103   7.064
 5834POPC   C4A73734  26.011  29.146   7.364
 5834POPC   C1B73735  26.028  29.394   6.464
 5834POPC   C2B73736  26.083  29.410   6.764
 5834POPC   C3B73737  26.096  29.386   7.064
 5834POPC   C4B73738  26.058  29.418   7.364
 5835POPC   NC373739  18.301  21.382   5.564
 5835POPC   PO473740  18.247  21.354   5.864
 5835POPC   GL173741  18.299  21.426   6.164
 5835POPC   GL273742  18.275  21.284   6.164
 5835POPC   C1A73743  18.252  21.416   6.464
 5835POPC   D2A73744  18.290  21.423   6.764
 5835POPC   C3A73745  18.319  21.412   7.064
 5835POPC   C4A73746  18.278  21.381   7.364
 5835POPC   C1B73747  18.228  21.163   6.464
 5835POPC   C2B73748  18.209  21.160   6.764
 5835POPC   C3B73749  18.207  21.115   7.064
 5835POPC   C4B73750  18.192  21.164   7.364
 5836POPC   NC373751  15.930  26.808   5.564
 5836POPC   PO473752  15.944  26.849   5.864
 5836POPC   GL173753  15.910  26.848   6.164
 5836POPC   GL273754  15.885  26.719   6.164
 5836POPC   C1A73755  15.998  26.834   6.464
 5836POPC   D2A73756  15.972  26.807   6.764
 5836POPC   C3A73757  15.948  26.772   7.064
 5836POPC   C4A73758  15.977  26.772   7.364
 5836POPC   C1B73759  15.761  26.703   6.464
 5836POPC   C2B73760  15.732  26.637   6.764
 5836POPC   C3B73761  15.777  26.673   7.064
 5836POPC   C4B73762  15.774  26.705   7.364
 5837POPC   NC373763  39.259  18.275   5.564
 5837POPC   PO473764  39.188  18.283   5.864
 5837POPC   GL173765  39.213  18.254   6.164
 5837POPC   GL273766  39.102  18.365   6.164
 5837POPC   C1A73767  39.211  18.306   6.464
 5837POPC   D2A73768  39.230  18.291   6.764
 5837POPC   C3A73769  39.224  18.253   7.064
 5837POPC   C4A73770  39.215  18.272   7.364
 5837POPC   C1B73771  38.963  18.385   6.464
 5837POPC   C2B73772  38.953  18.399   6.764
 5837POPC   C3B73773  39.018  18.342   7.064
 5837POPC   C4B73774  39.009  18.349   7.364
 5838POPC   NC373775  42.299   9.707   5.564
 5838POPC   PO473776  42.319   9.758   5.864
 5838POPC   GL173777  42.324   9.720   6.164
 5838POPC   GL273778  42.360   9.833   6.164
 5838POPC   C1A73779  42.346   9.733   6.464
 5838POPC   D2A73780  42.314   9.736   6.764
 5838POPC   C3A73781  42.365   9.763   7.064
 5838POPC   C4A73782  42.328   9.726   7.364
 5838POPC   C1B73783  42.397   9.974   6.464
 5838POPC   C2B73784  42.369   9.992   6.764
 5838POPC   C3B73785  42.392   9.975   7.064
 5838POPC   C4B73786  42.356   9.986   7.364
 5839POPC   NC373787  24.486  34.553   5.564
 5839POPC   PO473788  24.442  34.597   5.864
 5839POPC   GL173789  24.485  34.546   6.164
 5839POPC   GL273790  24.470  34.452   6.164
 5839POPC   C1A73791  24.498  34.576   6.464
 5839POPC   D2A73792  24.509  34.559   6.764
 5839POPC   C3A73793  24.507  34.608   7.064
 5839POPC   C4A73794  24.446  34.575   7.364
 5839POPC   C1B73795  24.490  34.347   6.464
 5839POPC   C2B73796  24.491  34.341   6.764
 5839POPC   C3B73797  24.565  34.364   7.064
 5839POPC   C4B73798  24.491  34.361   7.364
 5840POPC   NC373799  43.873  29.949   5.564
 5840POPC   PO473800  43.841  29.920   5.864
 5840POPC   GL173801  43.841  29.881   6.164
 5840POPC   GL273802  43.797  30.033   6.164
 5840POPC   C1A73803  43.922  29.958   6.464
 5840POPC   D2A73804  43.838  29.883   6.764
 5840POPC   C3A73805  43.895  29.931   7.064
 5840POPC   C4A73806  43.904  29.961   7.364
 5840POPC   C1B73807  43.726  30.075   6.464
 5840POPC   C2B73808  43.670  30.146   6.764
 5840POPC   C3B73809  43.678  30.097   7.064
 5840POPC   C4B73810  43.750  30.057   7.364
 5841POPC   NC373811  35.364  27.546   5.564
 5841POPC   PO473812  35.379  27.576   5.864
 5841POPC   GL173813  35.353  27.558   6.164
 5841POPC   GL273814  35.286  27.732   6.164
 5841POPC   C1A73815  35.324  27.621   6.464
 5841POPC   D2A73816  35.360  27.574   6.764
 5841POPC   C3A73817  35.308  27.625   7.064
 5841POPC   C4A73818  35.306  27.615   7.364
 5841POPC   C1B73819  35.170  27.847   6.464
 5841POPC   C2B73820  35.243  27.803   6.764
 5841POPC   C3B73821  35.178  27.778   7.064
 5841POPC   C4B73822  35.204  27.810   7.364
 5842POPC   NC373823  34.552  15.224   5.564
 5842POPC   PO473824  34.603  15.226   5.864
 5842POPC   GL173825  34.623  15.171   6.164
 5842POPC   GL273826  34.602  15.054   6.164
 5842POPC   C1A73827  34.574  15.181   6.464
 5842POPC   D2A73828  34.587  15.182   6.764
 5842POPC   C3A73829  34.533  15.219   7.064
 5842POPC   C4A73830  34.543  15.220   7.364
 5842POPC   C1B73831  34.546  14.912   6.464
 5842POPC   C2B73832  34.589  14.927   6.764
 5842POPC   C3B73833  34.605  14.930   7.064
 5842POPC   C4B73834  34.549  14.955   7.364
 5843POPC   NC373835  17.485  34.612   5.564
 5843POPC   PO473836  17.534  34.577   5.864
 5843POPC   GL173837  17.478  34.547   6.164
 5843POPC   GL273838  17.385  34.498   6.164
 5843POPC   C1A73839  17.530  34.549   6.464
 5843POPC   D2A73840  17.496  34.571   6.764
 5843POPC   C3A73841  17.486  34.587   7.064
 5843POPC   C4A73842  17.484  34.620   7.364
 5843POPC   C1B73843  17.323  34.388   6.464
 5843POPC   C2B73844  17.344  34.483   6.764
 5843POPC   C3B73845  17.317  34.451   7.064
 5843POPC   C4B73846  17.288  34.438   7.364
 5844POPC   NC373847   5.839  43.098   5.564
 5844POPC   PO473848   5.918  43.122   5.864
 5844POPC   GL173849   5.867  43.072   6.164
 5844POPC   GL273850   5.817  43.259   6.164
 5844POPC   C1A73851   5.895  43.086   6.464
 5844POPC   D2A73852   5.915  43.085   6.764
 5844POPC   C3A73853   5.846  43.078   7.064
 5844POPC   C4A73854   5.877  43.124   7.364
 5844POPC   C1B73855   5.739  43.300   6.464
 5844POPC   C2B73856   5.787  43.359   6.764
 5844POPC   C3B73857   5.715  43.340   7.064
 5844POPC   C4B73858   5.800  43.349   7.364
 5845POPC   NC373859  41.595  27.551   5.564
 5845POPC   PO473860  41.546  27.642   5.864
 5845POPC   GL173861  41.583  27.634   6.164
 5845POPC   GL273862  41.426  27.620   6.164
 5845POPC   C1A73863  41.605  27.547   6.464
 5845POPC   D2A73864  41.535  27.569   6.764
 5845POPC   C3A73865  41.582  27.628   7.064
 5845POPC   C4A73866  41.538  27.613   7.364
 5845POPC   C1B73867  41.336  27.580   6.464
 5845POPC   C2B73868  41.314  27.636   6.764
 5845POPC   C3B73869  41.293  27.622   7.064
 5845POPC   C4B73870  41.329  27.644   7.364
 5846POPC   NC373871  23.746   8.224   5.564
 5846POPC   PO473872  23.669   8.198   5.864
 5846POPC   GL173873  23.687   8.158   6.164
 5846POPC   GL273874  23.602   8.293   6.164
 5846POPC   C1A73875  23.687   8.247   6.464
 5846POPC   D2A73876  23.731   8.190   6.764
 5846POPC   C3A73877  23.735   8.173   7.064
 5846POPC   C4A73878  23.684   8.179   7.364
 5846POPC   C1B73879  23.502   8.385   6.464
 5846POPC   C2B73880  23.494   8.337   6.764
 5846POPC   C3B73881  23.540   8.349   7.064
 5846POPC   C4B73882  23.547   8.397   7.364
 5847POPC   NC373883   8.231  16.717   5.564
 5847POPC   PO473884   8.171  16.741   5.864
 5847POPC   GL173885   8.192  16.751   6.164
 5847POPC   GL273886   8.271  16.861   6.164
 5847POPC   C1A73887   8.157  16.731   6.464
 5847POPC   D2A73888   8.155  16.700   6.764
 5847POPC   C3A73889   8.181  16.749   7.064
 5847POPC   C4A73890   8.161  16.774   7.364
 5847POPC   C1B73891   8.344  16.919   6.464
 5847POPC   C2B73892   8.349  16.940   6.764
 5847POPC   C3B73893   8.371  16.918   7.064
 5847POPC   C4B73894   8.423  16.931   7.364
 5848POPC   NC373895  22.204  43.148   5.564
 5848POPC   PO473896  22.163  43.111   5.864
 5848POPC   GL173897  22.141  43.107   6.164
 5848POPC   GL273898  22.284  43.021   6.164
 5848POPC   C1A73899  22.202  43.108   6.464
 5848POPC   D2A73900  22.172  43.116   6.764
 5848POPC   C3A73901  22.153  43.090   7.064
 5848POPC   C4A73902  22.132  43.113   7.364
 5848POPC   C1B73903  22.356  42.970   6.464
 5848POPC   C2B73904  22.385  42.970   6.764
 5848POPC   C3B73905  22.424  42.977   7.064
 5848POPC   C4B73906  22.336  43.007   7.364
 5849POPC   NC373907  24.460   4.291   5.564
 5849POPC   PO473908  24.467   4.268   5.864
 5849POPC   GL173909  24.526   4.335   6.164
 5849POPC   GL273910  24.559   4.365   6.164
 5849POPC   C1A73911  24.488   4.359   6.464
 5849POPC   D2A73912  24.515   4.310   6.764
 5849POPC   C3A73913  24.441   4.304   7.064
 5849POPC   C4A73914  24.467   4.305   7.364
 5849POPC   C1B73915  24.699   4.415   6.464
 5849POPC   C2B73916  24.692   4.465   6.764
 5849POPC   C3B73917  24.752   4.428   7.064
 5849POPC   C4B73918  24.695   4.420   7.364
 5850POPC   NC373919  12.885  40.832   5.564
 5850POPC   PO473920  12.882  40.817   5.864
 5850POPC   GL173921  12.877  40.789   6.164
 5850POPC   GL273922  12.827  40.706   6.164
 5850POPC   C1A73923  12.899  40.776   6.464
 5850POPC   D2A73924  12.862  40.796   6.764
 5850POPC   C3A73925  12.899  40.765   7.064
 5850POPC   C4A73926  12.804  40.777   7.364
 5850POPC   C1B73927  12.864  40.582   6.464
 5850POPC   C2B73928  12.874  40.508   6.764
 5850POPC   C3B73929  12.864  40.519   7.064
 5850POPC   C4B73930  12.854  40.521   7.364
 5851POPC   NC373931  32.976  25.224   5.564
 5851POPC   PO473932  33.049  25.253   5.864
 5851POPC   GL173933  33.050  25.237   6.164
 5851POPC   GL273934  33.064  25.175   6.164
 5851POPC   C1A73935  32.984  25.289   6.464
 5851POPC   D2A73936  33.052  25.300   6.764
 5851POPC   C3A73937  33.071  25.270   7.064
 5851POPC   C4A73938  32.989  25.307   7.364
 5851POPC   C1B73939  33.139  25.052   6.464
 5851POPC   C2B73940  33.064  25.046   6.764
 5851POPC   C3B73941  33.062  25.074   7.064
 5851POPC   C4B73942  33.090  25.023   7.364
 5852POPC   NC373943  27.590  43.866   5.564
 5852POPC   PO473944  27.573  43.875   5.864
 5852POPC   GL173945  27.557  43.865   6.164
 5852POPC   GL273946  27.721  43.796   6.164
 5852POPC   C1A73947  27.616  43.836   6.464
 5852POPC   D2A73948  27.629  43.926   6.764
 5852POPC   C3A73949  27.613  43.879   7.064
 5852POPC   C4A73950  27.564  43.931   7.364
 5852POPC   C1B73951  27.750  43.689   6.464
 5852POPC   C2B73952  27.841  43.719   6.764
 5852POPC   C3B73953  27.814  43.740   7.064
 5852POPC   C4B73954  27.762  43.717   7.364
 5853POPC   NC373955  42.330  19.108   5.564
 5853POPC   PO473956  42.350  19.033   5.864
 5853POPC   GL173957  42.317  19.054   6.164
 5853POPC   GL273958  42.327  19.204   6.164
 5853POPC   C1A73959  42.303  19.091   6.464
 5853POPC   D2A73960  42.340  19.059   6.764
 5853POPC   C3A73961  42.366  19.096   7.064
 5853POPC   C4A73962  42.327  19.037   7.364
 5853POPC   C1B73963  42.338  19.320   6.464
 5853POPC   C2B73964  42.352  19.308   6.764
 5853POPC   C3B73965  42.288  19.310   7.064
 5853POPC   C4B73966  42.319  19.351   7.364
 5854POPC   NC373967  23.672   4.280   5.564
 5854POPC   PO473968  23.757   4.357   5.864
 5854POPC   GL173969  23.724   4.278   6.164
 5854POPC   GL273970  23.797   4.353   6.164
 5854POPC   C1A73971  23.761   4.280   6.464
 5854POPC   D2A73972  23.763   4.359   6.764
 5854POPC   C3A73973  23.763   4.366   7.064
 5854POPC   C4A73974  23.759   4.308   7.364
 5854POPC   C1B73975  23.976   4.264   6.464
 5854POPC   C2B73976  24.004   4.256   6.764
 5854POPC   C3B73977  23.936   4.317   7.064
 5854POPC   C4B73978  23.926   4.337   7.364
 5855POPC   NC373979   9.011  14.435   5.564
 5855POPC   PO473980   8.983  14.389   5.864
 5855POPC   GL173981   8.991  14.453   6.164
 5855POPC   GL273982   8.889  14.570   6.164
 5855POPC   C1A73983   8.992  14.437   6.464
 5855POPC   D2A73984   8.951  14.397   6.764
 5855POPC   C3A73985   8.970  14.379   7.064
 5855POPC   C4A73986   8.942  14.367   7.364
 5855POPC   C1B73987   8.885  14.604   6.464
 5855POPC   C2B73988   8.919  14.603   6.764
 5855POPC   C3B73989   8.950  14.603   7.064
 5855POPC   C4B73990   8.950  14.670   7.364
 5856POPC   NC373991  37.724  22.204   5.564
 5856POPC   PO473992  37.679  22.142   5.864
 5856POPC   GL173993  37.650  22.194   6.164
 5856POPC   GL273994  37.757  22.112   6.164
 5856POPC   C1A73995  37.697  22.185   6.464
 5856POPC   D2A73996  37.727  22.115   6.764
 5856POPC   C3A73997  37.658  22.189   7.064
 5856POPC   C4A73998  37.646  22.166   7.364
 5856POPC   C1B73999  37.943  22.110   6.464
 5856POPC   C2B74000  37.950  22.066   6.764
 5856POPC   C3B74001  37.911  22.095   7.064
 5856POPC   C4B74002  37.944  22.084   7.364
 5857POPC   NC374003  22.937  36.088   5.564
 5857POPC   PO474004  22.946  36.125   5.864
 5857POPC   GL174005  22.945  36.151   6.164
 5857POPC   GL274006  23.040  36.060   6.164
 5857POPC   C1A74007  22.932  36.092   6.464
 5857POPC   D2A74008  22.888  36.096   6.764
 5857POPC   C3A74009  22.900  36.158   7.064
 5857POPC   C4A74010  22.891  36.139   7.364
 5857POPC   C1B74011  23.124  35.986   6.464
 5857POPC   C2B74012  23.104  35.929   6.764
 5857POPC   C3B74013  23.111  35.937   7.064
 5857POPC   C4B74014  23.153  35.984   7.364
 5858POPC   NC374015  31.438  15.220   5.564
 5858POPC   PO474016  31.441  15.160   5.864
 5858POPC   GL174017  31.459  15.227   6.164
 5858POPC   GL274018  31.358  15.116   6.164
 5858POPC   C1A74019  31.466  15.167   6.464
 5858POPC   D2A74020  31.478  15.228   6.764
 5858POPC   C3A74021  31.484  15.131   7.064
 5858POPC   C4A74022  31.482  15.140   7.364
 5858POPC   C1B74023  31.280  14.990   6.464
 5858POPC   C2B74024  31.306  15.031   6.764
 5858POPC   C3B74025  31.232  15.022   7.064
 5858POPC   C4B74026  31.332  15.067   7.364
 5859POPC   NC374027  21.372  11.268   5.564
 5859POPC   PO474028  21.394  11.274   5.864
 5859POPC   GL174029  21.396  11.337   6.164
 5859POPC   GL274030  21.517  11.388   6.164
 5859POPC   C1A74031  21.412  11.290   6.464
 5859POPC   D2A74032  21.375  11.299   6.764
 5859POPC   C3A74033  21.382  11.349   7.064
 5859POPC   C4A74034  21.354  11.333   7.364
 5859POPC   C1B74035  21.577  11.389   6.464
 5859POPC   C2B74036  21.610  11.424   6.764
 5859POPC   C3B74037  21.596  11.431   7.064
 5859POPC   C4B74038  21.646  11.398   7.364
 5860POPC   NC374039  14.369  26.819   5.564
 5860POPC   PO474040  14.354  26.861   5.864
 5860POPC   GL174041  14.452  26.820   6.164
 5860POPC   GL274042  14.309  26.824   6.164
 5860POPC   C1A74043  14.357  26.783   6.464
 5860POPC   D2A74044  14.366  26.819   6.764
 5860POPC   C3A74045  14.447  26.820   7.064
 5860POPC   C4A74046  14.376  26.838   7.364
 5860POPC   C1B74047  14.163  26.787   6.464
 5860POPC   C2B74048  14.168  26.722   6.764
 5860POPC   C3B74049  14.194  26.743   7.064
 5860POPC   C4B74050  14.183  26.763   7.364
 5861POPC   NC374051  40.793  31.464   5.564
 5861POPC   PO474052  40.825  31.508   5.864
 5861POPC   GL174053  40.749  31.480   6.164
 5861POPC   GL274054  40.814  31.624   6.164
 5861POPC   C1A74055  40.734  31.482   6.464
 5861POPC   D2A74056  40.803  31.493   6.764
 5861POPC   C3A74057  40.742  31.434   7.064
 5861POPC   C4A74058  40.761  31.491   7.364
 5861POPC   C1B74059  40.789  31.752   6.464
 5861POPC   C2B74060  40.747  31.717   6.764
 5861POPC   C3B74061  40.804  31.709   7.064
 5861POPC   C4B74062  40.756  31.677   7.364
 5862POPC   NC374063  33.020   5.135   5.564
 5862POPC   PO474064  33.043   5.141   5.864
 5862POPC   GL174065  33.001   5.113   6.164
 5862POPC   GL274066  32.992   4.971   6.164
 5862POPC   C1A74067  32.978   5.125   6.464
 5862POPC   D2A74068  32.976   5.116   6.764
 5862POPC   C3A74069  33.029   5.063   7.064
 5862POPC   C4A74070  32.983   5.064   7.364
 5862POPC   C1B74071  33.038   4.839   6.464
 5862POPC   C2B74072  33.056   4.822   6.764
 5862POPC   C3B74073  33.075   4.885   7.064
 5862POPC   C4B74074  33.074   4.816   7.364
 5863POPC   NC374075  36.917  43.855   5.564
 5863POPC   PO474076  36.865  43.840   5.864
 5863POPC   GL174077  36.903  43.930   6.164
 5863POPC   GL274078  36.862  44.045   6.164
 5863POPC   C1A74079  36.885  43.878   6.464
 5863POPC   D2A74080  36.889  43.921   6.764
 5863POPC   C3A74081  36.905  43.900   7.064
 5863POPC   C4A74082  36.886  43.862   7.364
 5863POPC   C1B74083  36.772  44.081   6.464
 5863POPC   C2B74084  36.778  44.094   6.764
 5863POPC   C3B74085  36.764  44.126   7.064
 5863POPC   C4B74086  36.786  44.154   7.364
 5864POPC   NC374087  17.526   5.831   5.564
 5864POPC   PO474088  17.517   5.852   5.864
 5864POPC   GL174089  17.505   5.911   6.164
 5864POPC   GL274090  17.347   5.889   6.164
 5864POPC   C1A74091  17.501   5.822   6.464
 5864POPC   D2A74092  17.488   5.907   6.764
 5864POPC   C3A74093  17.458   5.896   7.064
 5864POPC   C4A74094  17.529   5.847   7.364
 5864POPC   C1B74095  17.276   5.815   6.464
 5864POPC   C2B74096  17.287   5.787   6.764
 5864POPC   C3B74097  17.284   5.816   7.064
 5864POPC   C4B74098  17.222   5.832   7.364
 5865POPC   NC374099   4.348   3.588   5.564
 5865POPC   PO474100   4.366   3.558   5.864
 5865POPC   GL174101   4.319   3.537   6.164
 5865POPC   GL274102   4.228   3.516   6.164
 5865POPC   C1A74103   4.328   3.540   6.464
 5865POPC   D2A74104   4.347   3.505   6.764
 5865POPC   C3A74105   4.344   3.553   7.064
 5865POPC   C4A74106   4.346   3.512   7.364
 5865POPC   C1B74107   4.097   3.376   6.464
 5865POPC   C2B74108   4.125   3.447   6.764
 5865POPC   C3B74109   4.107   3.388   7.064
 5865POPC   C4B74110   4.104   3.388   7.364
 5866POPC   NC374111  29.191  36.905   5.564
 5866POPC   PO474112  29.119  36.904   5.864
 5866POPC   GL174113  29.135  36.871   6.164
 5866POPC   GL274114  29.281  36.962   6.164
 5866POPC   C1A74115  29.129  36.885   6.464
 5866POPC   D2A74116  29.112  36.856   6.764
 5866POPC   C3A74117  29.185  36.904   7.064
 5866POPC   C4A74118  29.158  36.877   7.364
 5866POPC   C1B74119  29.378  37.005   6.464
 5866POPC   C2B74120  29.372  36.995   6.764
 5866POPC   C3B74121  29.387  36.942   7.064
 5866POPC   C4B74122  29.406  37.019   7.364
 5867POPC   NC374123  18.257  34.533   5.564
 5867POPC   PO474124  18.317  34.554   5.864
 5867POPC   GL174125  18.279  34.590   6.164
 5867POPC   GL274126  18.283  34.500   6.164
 5867POPC   C1A74127  18.282  34.528   6.464
 5867POPC   D2A74128  18.281  34.541   6.764
 5867POPC   C3A74129  18.297  34.623   7.064
 5867POPC   C4A74130  18.269  34.563   7.364
 5867POPC   C1B74131  18.371  34.357   6.464
 5867POPC   C2B74132  18.349  34.375   6.764
 5867POPC   C3B74133  18.345  34.382   7.064
 5867POPC   C4B74134  18.383  34.378   7.364
 5868POPC   NC374135  10.487   8.971   5.564
 5868POPC   PO474136  10.541   9.003   5.864
 5868POPC   GL174137  10.486   8.969   6.164
 5868POPC   GL274138  10.558   9.082   6.164
 5868POPC   C1A74139  10.488   8.993   6.464
 5868POPC   D2A74140  10.527   8.929   6.764
 5868POPC   C3A74141  10.476   8.957   7.064
 5868POPC   C4A74142  10.569   8.959   7.364
 5868POPC   C1B74143  10.598   9.243   6.464
 5868POPC   C2B74144  10.632   9.163   6.764
 5868POPC   C3B74145  10.670   9.241   7.064
 5868POPC   C4B74146  10.653   9.226   7.364
 5869POPC   NC374147   8.947  25.277   5.564
 5869POPC   PO474148   9.020  25.281   5.864
 5869POPC   GL174149   8.943  25.220   6.164
 5869POPC   GL274150   9.083  25.271   6.164
 5869POPC   C1A74151   8.993  25.276   6.464
 5869POPC   D2A74152   8.924  25.253   6.764
 5869POPC   C3A74153   8.970  25.295   7.064
 5869POPC   C4A74154   8.947  25.314   7.364
 5869POPC   C1B74155   9.242  25.259   6.464
 5869POPC   C2B74156   9.226  25.231   6.764
 5869POPC   C3B74157   9.224  25.266   7.064
 5869POPC   C4B74158   9.240  25.184   7.364
 5870POPC   NC374159  18.303  17.507   5.564
 5870POPC   PO474160  18.253  17.464   5.864
 5870POPC   GL174161  18.254  17.539   6.164
 5870POPC   GL274162  18.316  17.363   6.164
 5870POPC   C1A74163  18.297  17.463   6.464
 5870POPC   D2A74164  18.319  17.498   6.764
 5870POPC   C3A74165  18.285  17.537   7.064
 5870POPC   C4A74166  18.300  17.457   7.364
 5870POPC   C1B74167  18.306  17.250   6.464
 5870POPC   C2B74168  18.381  17.229   6.764
 5870POPC   C3B74169  18.322  17.291   7.064
 5870POPC   C4B74170  18.327  17.265   7.364
 5871POPC   NC374171  22.969  33.064   5.564
 5871POPC   PO474172  22.951  33.066   5.864
 5871POPC   GL174173  22.938  33.024   6.164
 5871POPC   GL274174  23.071  33.141   6.164
 5871POPC   C1A74175  22.984  32.987   6.464
 5871POPC   D2A74176  22.930  33.051   6.764
 5871POPC   C3A74177  22.930  32.980   7.064
 5871POPC   C4A74178  22.939  33.056   7.364
 5871POPC   C1B74179  23.190  33.199   6.464
 5871POPC   C2B74180  23.140  33.185   6.764
 5871POPC   C3B74181  23.154  33.147   7.064
 5871POPC   C4B74182  23.177  33.122   7.364
 5872POPC   NC374183  23.711  31.449   5.564
 5872POPC   PO474184  23.674  31.513   5.864
 5872POPC   GL174185  23.754  31.428   6.164
 5872POPC   GL274186  23.762  31.583   6.164
 5872POPC   C1A74187  23.745  31.431   6.464
 5872POPC   D2A74188  23.749  31.511   6.764
 5872POPC   C3A74189  23.761  31.443   7.064
 5872POPC   C4A74190  23.754  31.464   7.364
 5872POPC   C1B74191  23.811  31.715   6.464
 5872POPC   C2B74192  23.858  31.690   6.764
 5872POPC   C3B74193  23.787  31.683   7.064
 5872POPC   C4B74194  23.795  31.717   7.364
 5873POPC   NC374195  36.872  21.368   5.564
 5873POPC   PO474196  36.947  21.401   5.864
 5873POPC   GL174197  36.861  21.375   6.164
 5873POPC   GL274198  36.822  21.516   6.164
 5873POPC   C1A74199  36.942  21.435   6.464
 5873POPC   D2A74200  36.876  21.347   6.764
 5873POPC   C3A74201  36.927  21.420   7.064
 5873POPC   C4A74202  36.855  21.397   7.364
 5873POPC   C1B74203  36.687  21.600   6.464
 5873POPC   C2B74204  36.757  21.558   6.764
 5873POPC   C3B74205  36.713  21.612   7.064
 5873POPC   C4B74206  36.726  21.517   7.364
 5874POPC   NC374207   2.026  36.104   5.564
 5874POPC   PO474208   1.946  36.122   5.864
 5874POPC   GL174209   2.039  36.163   6.164
 5874POPC   GL274210   2.064  36.174   6.164
 5874POPC   C1A74211   2.008  36.079   6.464
 5874POPC   D2A74212   1.958  36.104   6.764
 5874POPC   C3A74213   1.940  36.104   7.064
 5874POPC   C4A74214   2.019  36.159   7.364
 5874POPC   C1B74215   2.236  36.205   6.464
 5874POPC   C2B74216   2.233  36.275   6.764
 5874POPC   C3B74217   2.254  36.296   7.064
 5874POPC   C4B74218   2.215  36.232   7.364
 5875POPC   NC374219  12.833  33.062   5.564
 5875POPC   PO474220  12.809  33.056   5.864
 5875POPC   GL174221  12.812  33.053   6.164
 5875POPC   GL274222  12.759  33.112   6.164
 5875POPC   C1A74223  12.895  33.072   6.464
 5875POPC   D2A74224  12.857  33.045   6.764
 5875POPC   C3A74225  12.835  33.031   7.064
 5875POPC   C4A74226  12.868  33.065   7.364
 5875POPC   C1B74227  12.643  33.206   6.464
 5875POPC   C2B74228  12.593  33.176   6.764
 5875POPC   C3B74229  12.593  33.129   7.064
 5875POPC   C4B74230  12.603  33.187   7.364
 5876POPC   NC374231   6.688  10.476   5.564
 5876POPC   PO474232   6.621  10.555   5.864
 5876POPC   GL174233   6.667  10.479   6.164
 5876POPC   GL274234   6.724  10.642   6.164
 5876POPC   C1A74235   6.658  10.483   6.464
 5876POPC   D2A74236   6.607  10.546   6.764
 5876POPC   C3A74237   6.624  10.489   7.064
 5876POPC   C4A74238   6.662  10.478   7.364
 5876POPC   C1B74239   6.718  10.719   6.464
 5876POPC   C2B74240   6.742  10.715   6.764
 5876POPC   C3B74241   6.715  10.742   7.064
 5876POPC   C4B74242   6.740  10.762   7.364
 5877POPC   NC374243  32.278  19.075   5.564
 5877POPC   PO474244  32.260  19.098   5.864
 5877POPC   GL174245  32.224  19.034   6.164
 5877POPC   GL274246  32.320  18.948   6.164
 5877POPC   C1A74247  32.201  19.028   6.464
 5877POPC   D2A74248  32.277  19.048   6.764
 5877POPC   C3A74249  32.282  19.071   7.064
 5877POPC   C4A74250  32.207  19.032   7.364
 5877POPC   C1B74251  32.317  18.825   6.464
 5877POPC   C2B74252  32.365  18.802   6.764
 5877POPC   C3B74253  32.379  18.794   7.064
 5877POPC   C4B74254  32.356  18.804   7.364
 5878POPC   NC374255  40.055  43.145   5.564
 5878POPC   PO474256  39.970  43.067   5.864
 5878POPC   GL174257  39.984  43.080   6.164
 5878POPC   GL274258  40.124  43.036   6.164
 5878POPC   C1A74259  40.055  43.108   6.464
 5878POPC   D2A74260  39.986  43.112   6.764
 5878POPC   C3A74261  39.976  43.130   7.064
 5878POPC   C4A74262  40.032  43.150   7.364
 5878POPC   C1B74263  40.255  42.962   6.464
 5878POPC   C2B74264  40.258  42.967   6.764
 5878POPC   C3B74265  40.278  42.971   7.064
 5878POPC   C4B74266  40.252  42.957   7.364
 5879POPC   NC374267  10.555  16.704   5.564
 5879POPC   PO474268  10.536  16.756   5.864
 5879POPC   GL174269  10.524  16.690   6.164
 5879POPC   GL274270  10.546  16.855   6.164
 5879POPC   C1A74271  10.552  16.781   6.464
 5879POPC   D2A74272  10.503  16.756   6.764
 5879POPC   C3A74273  10.502  16.759   7.064
 5879POPC   C4A74274  10.552  16.743   7.364
 5879POPC   C1B74275  10.525  16.969   6.464
 5879POPC   C2B74276  10.495  17.029   6.764
 5879POPC   C3B74277  10.493  16.978   7.064
 5879POPC   C4B74278  10.507  16.989   7.364
 5880POPC   NC374279  37.641  43.064   5.564
 5880POPC   PO474280  37.648  43.090   5.864
 5880POPC   GL174281  37.725  43.148   6.164
 5880POPC   GL274282  37.618  43.231   6.164
 5880POPC   C1A74283  37.674  43.084   6.464
 5880POPC   D2A74284  37.726  43.082   6.764
 5880POPC   C3A74285  37.685  43.133   7.064
 5880POPC   C4A74286  37.688  43.123   7.364
 5880POPC   C1B74287  37.587  43.291   6.464
 5880POPC   C2B74288  37.575  43.333   6.764
 5880POPC   C3B74289  37.543  43.347   7.064
 5880POPC   C4B74290  37.527  43.323   7.364
 5881POPC   NC374291  18.257   8.951   5.564
 5881POPC   PO474292  18.283   8.927   5.864
 5881POPC   GL174293  18.277   8.957   6.164
 5881POPC   GL274294  18.226   8.871   6.164
 5881POPC   C1A74295  18.320   8.996   6.464
 5881POPC   D2A74296  18.295   9.006   6.764
 5881POPC   C3A74297  18.311   8.951   7.064
 5881POPC   C4A74298  18.285   9.015   7.364
 5881POPC   C1B74299  18.131   8.799   6.464
 5881POPC   C2B74300  18.191   8.767   6.764
 5881POPC   C3B74301  18.179   8.780   7.064
 5881POPC   C4B74302  18.153   8.773   7.364
 5882POPC   NC374303  28.400  14.450   5.564
 5882POPC   PO474304  28.324  14.373   5.864
 5882POPC   GL174305  28.351  14.398   6.164
 5882POPC   GL274306  28.321  14.307   6.164
 5882POPC   C1A74307  28.418  14.359   6.464
 5882POPC   D2A74308  28.389  14.434   6.764
 5882POPC   C3A74309  28.374  14.384   7.064
 5882POPC   C4A74310  28.375  14.405   7.364
 5882POPC   C1B74311  28.304  14.143   6.464
 5882POPC   C2B74312  28.306  14.198   6.764
 5882POPC   C3B74313  28.346  14.112   7.064
 5882POPC   C4B74314  28.301  14.189   7.364
 5883POPC   NC374315   9.731  11.289   5.564
 5883POPC   PO474316   9.754  11.301   5.864
 5883POPC   GL174317   9.785  11.273   6.164
 5883POPC   GL274318   9.808  11.207   6.164
 5883POPC   C1A74319   9.720  11.298   6.464
 5883POPC   D2A74320   9.783  11.343   6.764
 5883POPC   C3A74321   9.752  11.325   7.064
 5883POPC   C4A74322   9.758  11.271   7.364
 5883POPC   C1B74323   9.993  11.180   6.464
 5883POPC   C2B74324   9.999  11.112   6.764
 5883POPC   C3B74325   9.978  11.160   7.064
 5883POPC   C4B74326   9.923  11.182   7.364
 5884POPC   NC374327  30.713  39.279   5.564
 5884POPC   PO474328  30.714  39.199   5.864
 5884POPC   GL174329  30.685  39.272   6.164
 5884POPC   GL274330  30.677  39.352   6.164
 5884POPC   C1A74331  30.657  39.270   6.464
 5884POPC   D2A74332  30.713  39.250   6.764
 5884POPC   C3A74333  30.683  39.235   7.064
 5884POPC   C4A74334  30.718  39.191   7.364
 5884POPC   C1B74335  30.621  39.480   6.464
 5884POPC   C2B74336  30.623  39.497   6.764
 5884POPC   C3B74337  30.607  39.492   7.064
 5884POPC   C4B74338  30.626  39.413   7.364
 5885POPC   NC374339  41.558  16.687   5.564
 5885POPC   PO474340  41.597  16.688   5.864
 5885POPC   GL174341  41.595  16.695   6.164
 5885POPC   GL274342  41.524  16.654   6.164
 5885POPC   C1A74343  41.572  16.748   6.464
 5885POPC   D2A74344  41.515  16.747   6.764
 5885POPC   C3A74345  41.566  16.736   7.064
 5885POPC   C4A74346  41.595  16.733   7.364
 5885POPC   C1B74347  41.502  16.509   6.464
 5885POPC   C2B74348  41.499  16.513   6.764
 5885POPC   C3B74349  41.511  16.509   7.064
 5885POPC   C4B74350  41.481  16.540   7.364
 5886POPC   NC374351  32.274  11.285   5.564
 5886POPC   PO474352  32.286  11.311   5.864
 5886POPC   GL174353  32.263  11.260   6.164
 5886POPC   GL274354  32.203  11.155   6.164
 5886POPC   C1A74355  32.282  11.289   6.464
 5886POPC   D2A74356  32.198  11.293   6.764
 5886POPC   C3A74357  32.231  11.331   7.064
 5886POPC   C4A74358  32.253  11.321   7.364
 5886POPC   C1B74359  32.178  11.007   6.464
 5886POPC   C2B74360  32.211  11.023   6.764
 5886POPC   C3B74361  32.185  11.064   7.064
 5886POPC   C4B74362  32.184  11.028   7.364
 5887POPC   NC374363   2.000   9.754   5.564
 5887POPC   PO474364   1.961   9.776   5.864
 5887POPC   GL174365   2.014   9.776   6.164
 5887POPC   GL274366   1.885   9.710   6.164
 5887POPC   C1A74367   2.026   9.703   6.464
 5887POPC   D2A74368   1.992   9.794   6.764
 5887POPC   C3A74369   1.957   9.728   7.064
 5887POPC   C4A74370   1.992   9.748   7.364
 5887POPC   C1B74371   1.789   9.742   6.464
 5887POPC   C2B74372   1.715   9.689   6.764
 5887POPC   C3B74373   1.740   9.745   7.064
 5887POPC   C4B74374   1.705   9.772   7.364
 5888POPC   NC374375  27.577  25.992   5.564
 5888POPC   PO474376  27.551  26.057   5.864
 5888POPC   GL174377  27.597  26.019   6.164
 5888POPC   GL274378  27.755  26.031   6.164
 5888POPC   C1A74379  27.568  26.011   6.464
 5888POPC   D2A74380  27.546  26.013   6.764
 5888POPC   C3A74381  27.553  26.023   7.064
 5888POPC   C4A74382  27.617  26.076   7.364
 5888POPC   C1B74383  27.838  26.099   6.464
 5888POPC   C2B74384  27.785  26.082   6.764
 5888POPC   C3B74385  27.830  26.106   7.064
 5888POPC   C4B74386  27.874  26.059   7.364
 5889POPC   NC374387  12.042   7.461   5.564
 5889POPC   PO474388  12.065   7.451   5.864
 5889POPC   GL174389  12.092   7.394   6.164
 5889POPC   GL274390  12.153   7.524   6.164
 5889POPC   C1A74391  12.030   7.425   6.464
 5889POPC   D2A74392  12.046   7.439   6.764
 5889POPC   C3A74393  12.091   7.391   7.064
 5889POPC   C4A74394  12.064   7.468   7.364
 5889POPC   C1B74395  12.201   7.605   6.464
 5889POPC   C2B74396  12.261   7.595   6.764
 5889POPC   C3B74397  12.274   7.661   7.064
 5889POPC   C4B74398  12.229   7.626   7.364
 5890POPC   NC374399   1.180  26.084   5.564
 5890POPC   PO474400   1.224  26.063   5.864
 5890POPC   GL174401   1.245  26.091   6.164
 5890POPC   GL274402   1.347  26.102   6.164
 5890POPC   C1A74403   1.205  26.075   6.464
 5890POPC   D2A74404   1.211  26.016   6.764
 5890POPC   C3A74405   1.259  26.007   7.064
 5890POPC   C4A74406   1.243  26.043   7.364
 5890POPC   C1B74407   1.423  26.223   6.464
 5890POPC   C2B74408   1.414  26.197   6.764
 5890POPC   C3B74409   1.356  26.160   7.064
 5890POPC   C4B74410   1.389  26.161   7.364
 5891POPC   NC374411   5.104  23.720   5.564
 5891POPC   PO474412   5.070  23.690   5.864
 5891POPC   GL174413   5.086  23.665   6.164
 5891POPC   GL274414   5.165  23.597   6.164
 5891POPC   C1A74415   5.115  23.710   6.464
 5891POPC   D2A74416   5.139  23.680   6.764
 5891POPC   C3A74417   5.056  23.696   7.064
 5891POPC   C4A74418   5.054  23.686   7.364
 5891POPC   C1B74419   5.178  23.507   6.464
 5891POPC   C2B74420   5.201  23.523   6.764
 5891POPC   C3B74421   5.176  23.524   7.064
 5891POPC   C4B74422   5.204  23.499   7.364
 5892POPC   NC374423  30.693   3.532   5.564
 5892POPC   PO474424  30.705   3.561   5.864
 5892POPC   GL174425  30.711   3.532   6.164
 5892POPC   GL274426  30.697   3.424   6.164
 5892POPC   C1A74427  30.719   3.504   6.464
 5892POPC   D2A74428  30.684   3.504   6.764
 5892POPC   C3A74429  30.695   3.518   7.064
 5892POPC   C4A74430  30.696   3.494   7.364
 5892POPC   C1B74431  30.662   3.244   6.464
 5892POPC   C2B74432  30.666   3.277   6.764
 5892POPC   C3B74433  30.726   3.316   7.064
 5892POPC   C4B74434  30.729   3.339   7.364
 5893POPC   NC374435  40.783  34.588   5.564
 5893POPC   PO474436  40.752  34.554   5.864
 5893POPC   GL174437  40.814  34.619   6.164
 5893POPC   GL274438  40.647  34.571   6.164
 5893POPC   C1A74439  40.802  34.570   6.464
 5893POPC   D2A74440  40.776  34.532   6.764
 5893POPC   C3A74441  40.799  34.615   7.064
 5893POPC   C4A74442  40.765  34.534   7.364
 5893POPC   C1B74443  40.587  34.486   6.464
 5893POPC   C2B74444  40.514  34.551   6.764
 5893POPC   C3B74445  40.542  34.499   7.064
 5893POPC   C4B74446  40.539  34.544   7.364
 5894POPC   NC374447  36.856  23.683   5.564
 5894POPC   PO474448  36.932  23.736   5.864
 5894POPC   GL174449  36.940  23.752   6.164
 5894POPC   GL274450  36.784  23.747   6.164
 5894POPC   C1A74451  36.909  23.729   6.464
 5894POPC   D2A74452  36.882  23.730   6.764
 5894POPC   C3A74453  36.916  23.710   7.064
 5894POPC   C4A74454  36.861  23.686   7.364
 5894POPC   C1B74455  36.685  23.771   6.464
 5894POPC   C2B74456  36.635  23.805   6.764
 5894POPC   C3B74457  36.627  23.751   7.064
 5894POPC   C4B74458  36.713  23.750   7.364
 5895POPC   NC374459  15.191   5.115   5.564
 5895POPC   PO474460  15.146   5.103   5.864
 5895POPC   GL174461  15.180   5.048   6.164
 5895POPC   GL274462  15.178   4.933   6.164
 5895POPC   C1A74463  15.219   5.113   6.464
 5895POPC   D2A74464  15.196   5.113   6.764
 5895POPC   C3A74465  15.186   5.100   7.064
 5895POPC   C4A74466  15.193   5.127   7.364
 5895POPC   C1B74467  15.211   4.819   6.464
 5895POPC   C2B74468  15.253   4.814   6.764
 5895POPC   C3B74469  15.278   4.804   7.064
 5895POPC   C4B74470  15.210   4.808   7.364
 5896POPC   NC374471  35.386  31.439   5.564
 5896POPC   PO474472  35.364  31.491   5.864
 5896POPC   GL174473  35.369  31.520   6.164
 5896POPC   GL274474  35.281  31.422   6.164
 5896POPC   C1A74475  35.325  31.486   6.464
 5896POPC   D2A74476  35.397  31.448   6.764
 5896POPC   C3A74477  35.364  31.497   7.064
 5896POPC   C4A74478  35.309  31.480   7.364
 5896POPC   C1B74479  35.121  31.293   6.464
 5896POPC   C2B74480  35.105  31.299   6.764
 5896POPC   C3B74481  35.147  31.359   7.064
 5896POPC   C4B74482  35.168  31.331   7.364
 5897POPC   NC374483   9.791   1.221   5.564
 5897POPC   PO474484   9.753   1.196   5.864
 5897POPC   GL174485   9.785   1.232   6.164
 5897POPC   GL274486   9.836   1.330   6.164
 5897POPC   C1A74487   9.772   1.256   6.464
 5897POPC   D2A74488   9.735   1.202   6.764
 5897POPC   C3A74489   9.731   1.176   7.064
 5897POPC   C4A74490   9.766   1.212   7.364
 5897POPC   C1B74491   9.827   1.450   6.464
 5897POPC   C2B74492   9.917   1.399   6.764
 5897POPC   C3B74493   9.858   1.459   7.064
 5897POPC   C4B74494   9.844   1.468   7.364
 5898POPC   NC374495  21.378   2.013   5.564
 5898POPC   PO474496  21.388   1.956   5.864
 5898POPC   GL174497  21.383   1.958   6.164
 5898POPC   GL274498  21.306   1.894   6.164
 5898POPC   C1A74499  21.338   1.956   6.464
 5898POPC   D2A74500  21.371   2.026   6.764
 5898POPC   C3A74501  21.369   2.006   7.064
 5898POPC   C4A74502  21.400   1.973   7.364
 5898POPC   C1B74503  21.246   1.741   6.464
 5898POPC   C2B74504  21.245   1.818   6.764
 5898POPC   C3B74505  21.301   1.735   7.064
 5898POPC   C4B74506  21.238   1.743   7.364
 5899POPC   NC374507  40.828  18.239   5.564
 5899POPC   PO474508  40.764  18.327   5.864
 5899POPC   GL174509  40.796  18.274   6.164
 5899POPC   GL274510  40.692  18.285   6.164
 5899POPC   C1A74511  40.828  18.310   6.464
 5899POPC   D2A74512  40.769  18.321   6.764
 5899POPC   C3A74513  40.797  18.266   7.064
 5899POPC   C4A74514  40.830  18.275   7.364
 5899POPC   C1B74515  40.550  18.263   6.464
 5899POPC   C2B74516  40.503  18.169   6.764
 5899POPC   C3B74517  40.526  18.204   7.064
 5899POPC   C4B74518  40.577  18.240   7.364
 5900POPC   NC374519  31.437  12.098   5.564
 5900POPC   PO474520  31.448  12.119   5.864
 5900POPC   GL174521  31.482  12.067   6.164
 5900POPC   GL274522  31.589  12.101   6.164
 5900POPC   C1A74523  31.456  12.036   6.464
 5900POPC   D2A74524  31.474  12.109   6.764
 5900POPC   C3A74525  31.489  12.073   7.064
 5900POPC   C4A74526  31.520  12.057   7.364
 5900POPC   C1B74527  31.689  12.098   6.464
 5900POPC   C2B74528  31.687  12.091   6.764
 5900POPC   C3B74529  31.746  12.115   7.064
 5900POPC   C4B74530  31.689  12.153   7.364
 5901POPC   NC374531  33.842  20.640   5.564
 5901POPC   PO474532  33.773  20.656   5.864
 5901POPC   GL174533  33.777  20.623   6.164
 5901POPC   GL274534  33.667  20.583   6.164
 5901POPC   C1A74535  33.810  20.585   6.464
 5901POPC   D2A74536  33.759  20.615   6.764
 5901POPC   C3A74537  33.778  20.596   7.064
 5901POPC   C4A74538  33.754  20.653   7.364
 5901POPC   C1B74539  33.526  20.569   6.464
 5901POPC   C2B74540  33.519  20.611   6.764
 5901POPC   C3B74541  33.521  20.652   7.064
 5901POPC   C4B74542  33.577  20.648   7.364
 5902POPC   NC374543  19.852  20.629   5.564
 5902POPC   PO474544  19.842  20.644   5.864
 5902POPC   GL174545  19.884  20.639   6.164
 5902POPC   GL274546  19.873  20.447   6.164
 5902POPC   C1A74547  19.866  20.629   6.464
 5902POPC   D2A74548  19.817  20.600   6.764
 5902POPC   C3A74549  19.795  20.571   7.064
 5902POPC   C4A74550  19.819  20.563   7.364
 5902POPC   C1B74551  19.861  20.363   6.464
 5902POPC   C2B74552  19.858  20.378   6.764
 5902POPC   C3B74553  19.851  20.388   7.064
 5902POPC   C4B74554  19.852  20.334   7.364
 5903POPC   NC374555  42.331  44.644   5.564
 5903POPC   PO474556  42.296  44.703   5.864
 5903POPC   GL174557  42.349  44.617   6.164
 5903POPC   GL274558  42.451  44.697   6.164
 5903POPC   C1A74559  42.331  44.668   6.464
 5903POPC   D2A74560  42.291  44.662   6.764
 5903POPC   C3A74561  42.309  44.615   7.064
 5903POPC   C4A74562  42.337  44.656   7.364
 5903POPC   C1B74563  42.600  44.648   6.464
 5903POPC   C2B74564  42.554  44.633   6.764
 5903POPC   C3B74565  42.540  44.632   7.064
 5903POPC   C4B74566  42.536  44.706   7.364
 5904POPC   NC374567  40.826   4.313   5.564
 5904POPC   PO474568  40.792   4.346   5.864
 5904POPC   GL174569  40.750   4.312   6.164
 5904POPC   GL274570  40.849   4.472   6.164
 5904POPC   C1A74571  40.796   4.343   6.464
 5904POPC   D2A74572  40.831   4.307   6.764
 5904POPC   C3A74573  40.754   4.317   7.064
 5904POPC   C4A74574  40.738   4.279   7.364
 5904POPC   C1B74575  40.916   4.538   6.464
 5904POPC   C2B74576  40.833   4.538   6.764
 5904POPC   C3B74577  40.873   4.592   7.064
 5904POPC   C4B74578  40.891   4.509   7.364
 5905POPC   NC374579  40.018  39.960   5.564
 5905POPC   PO474580  40.044  39.968   5.864
 5905POPC   GL174581  39.992  40.025   6.164
 5905POPC   GL274582  40.022  39.867   6.164
 5905POPC   C1A74583  39.966  40.025   6.464
 5905POPC   D2A74584  40.010  40.009   6.764
 5905POPC   C3A74585  39.991  40.029   7.064
 5905POPC   C4A74586  39.982  40.007   7.364
 5905POPC   C1B74587  40.038  39.812   6.464
 5905POPC   C2B74588  40.122  39.742   6.764
 5905POPC   C3B74589  40.053  39.804   7.064
 5905POPC   C4B74590  40.072  39.720   7.364
 5906POPC   NC374591   9.702  15.917   5.564
 5906POPC   PO474592   9.755  15.914   5.864
 5906POPC   GL174593   9.796  15.978   6.164
 5906POPC   GL274594   9.826  16.062   6.164
 5906POPC   C1A74595   9.763  15.957   6.464
 5906POPC   D2A74596   9.781  15.957   6.764
 5906POPC   C3A74597   9.743  15.916   7.064
 5906POPC   C4A74598   9.774  15.989   7.364
 5906POPC   C1B74599   9.891  16.123   6.464
 5906POPC   C2B74600   9.899  16.149   6.764
 5906POPC   C3B74601   9.955  16.085   7.064
 5906POPC   C4B74602   9.893  16.121   7.364
 5907POPC   NC374603  17.501  19.871   5.564
 5907POPC   PO474604  17.491  19.793   5.864
 5907POPC   GL174605  17.547  19.823   6.164
 5907POPC   GL274606  17.462  19.955   6.164
 5907POPC   C1A74607  17.488  19.851   6.464
 5907POPC   D2A74608  17.502  19.832   6.764
 5907POPC   C3A74609  17.539  19.830   7.064
 5907POPC   C4A74610  17.553  19.859   7.364
 5907POPC   C1B74611  17.431  20.070   6.464
 5907POPC   C2B74612  17.416  20.059   6.764
 5907POPC   C3B74613  17.361  20.106   7.064
 5907POPC   C4B74614  17.450  20.053   7.364
 5908POPC   NC374615  11.254  22.190   5.564
 5908POPC   PO474616  11.325  22.166   5.864
 5908POPC   GL174617  11.252  22.171   6.164
 5908POPC   GL274618  11.181  22.092   6.164
 5908POPC   C1A74619  11.335  22.186   6.464
 5908POPC   D2A74620  11.317  22.199   6.764
 5908POPC   C3A74621  11.305  22.173   7.064
 5908POPC   C4A74622  11.301  22.171   7.364
 5908POPC   C1B74623  11.061  22.047   6.464
 5908POPC   C2B74624  11.111  22.058   6.764
 5908POPC   C3B74625  11.117  21.998   7.064
 5908POPC   C4B74626  11.102  22.079   7.364
 5909POPC   NC374627   7.400  43.930   5.564
 5909POPC   PO474628   7.465  43.850   5.864
 5909POPC   GL174629   7.470  43.919   6.164
 5909POPC   GL274630   7.479  43.767   6.164
 5909POPC   C1A74631   7.389  43.924   6.464
 5909POPC   D2A74632   7.395  43.924   6.764
 5909POPC   C3A74633   7.458  43.863   7.064
 5909POPC   C4A74634   7.389  43.913   7.364
 5909POPC   C1B74635   7.610  43.703   6.464
 5909POPC   C2B74636   7.604  43.696   6.764
 5909POPC   C3B74637   7.633  43.754   7.064
 5909POPC   C4B74638   7.553  43.656   7.364
 5910POPC   NC374639   5.862  42.363   5.564
 5910POPC   PO474640   5.901  42.292   5.864
 5910POPC   GL174641   5.899  42.295   6.164
 5910POPC   GL274642   5.766  42.299   6.164
 5910POPC   C1A74643   5.905  42.362   6.464
 5910POPC   D2A74644   5.868  42.316   6.764
 5910POPC   C3A74645   5.861  42.309   7.064
 5910POPC   C4A74646   5.903  42.326   7.364
 5910POPC   C1B74647   5.634  42.246   6.464
 5910POPC   C2B74648   5.674  42.293   6.764
 5910POPC   C3B74649   5.632  42.239   7.064
 5910POPC   C4B74650   5.637  42.252   7.364
 5911POPC   NC374651  19.846   2.772   5.564
 5911POPC   PO474652  19.865   2.738   5.864
 5911POPC   GL174653  19.814   2.757   6.164
 5911POPC   GL274654  19.752   2.716   6.164
 5911POPC   C1A74655  19.833   2.733   6.464
 5911POPC   D2A74656  19.819   2.779   6.764
 5911POPC   C3A74657  19.838   2.771   7.064
 5911POPC   C4A74658  19.810   2.732   7.364
 5911POPC   C1B74659  19.694   2.543   6.464
 5911POPC   C2B74660  19.650   2.632   6.764
 5911POPC   C3B74661  19.636   2.562   7.064
 5911POPC   C4B74662  19.624   2.598   7.364
 5912POPC   NC374663  11.271  14.405   5.564
 5912POPC   PO474664  11.321  14.408   5.864
 5912POPC   GL174665  11.267  14.443   6.164
 5912POPC   GL274666  11.138  14.367   6.164
 5912POPC   C1A74667  11.288  14.414   6.464
 5912POPC   D2A74668  11.299  14.444   6.764
 5912POPC   C3A74669  11.307  14.440   7.064
 5912POPC   C4A74670  11.301  14.438   7.364
 5912POPC   C1B74671  11.008  14.399   6.464
 5912POPC   C2B74672  11.049  14.373   6.764
 5912POPC   C3B74673  11.051  14.397   7.064
 5912POPC   C4B74674  11.015  14.396   7.364
 5913POPC   NC374675   2.004  24.504   5.564
 5913POPC   PO474676   1.984  24.479   5.864
 5913POPC   GL174677   2.025  24.508   6.164
 5913POPC   GL274678   1.982  24.410   6.164
 5913POPC   C1A74679   2.030  24.446   6.464
 5913POPC   D2A74680   1.961  24.499   6.764
 5913POPC   C3A74681   2.000  24.497   7.064
 5913POPC   C4A74682   1.942  24.468   7.364
 5913POPC   C1B74683   1.942  24.210   6.464
 5913POPC   C2B74684   1.906  24.280   6.764
 5913POPC   C3B74685   1.934  24.276   7.064
 5913POPC   C4B74686   1.889  24.262   7.364
 5914POPC   NC374687   5.908  20.629   5.564
 5914POPC   PO474688   5.873  20.566   5.864
 5914POPC   GL174689   5.917  20.634   6.164
 5914POPC   GL274690   5.778  20.550   6.164
 5914POPC   C1A74691   5.837  20.584   6.464
 5914POPC   D2A74692   5.837  20.603   6.764
 5914POPC   C3A74693   5.909  20.611   7.064
 5914POPC   C4A74694   5.917  20.600   7.364
 5914POPC   C1B74695   5.609  20.552   6.464
 5914POPC   C2B74696   5.586  20.627   6.764
 5914POPC   C3B74697   5.623  20.537   7.064
 5914POPC   C4B74698   5.646  20.577   7.364
 5915POPC   NC374699  23.722   2.003   5.564
 5915POPC   PO474700  23.756   1.970   5.864
 5915POPC   GL174701  23.730   2.013   6.164
 5915POPC   GL274702  23.702   2.097   6.164
 5915POPC   C1A74703  23.685   2.016   6.464
 5915POPC   D2A74704  23.746   1.988   6.764
 5915POPC   C3A74705  23.754   1.941   7.064
 5915POPC   C4A74706  23.759   1.964   7.364
 5915POPC   C1B74707  23.680   2.264   6.464
 5915POPC   C2B74708  23.680   2.191   6.764
 5915POPC   C3B74709  23.630   2.263   7.064
 5915POPC   C4B74710  23.676   2.259   7.364
 5916POPC   NC374711   5.869   7.395   5.564
 5916POPC   PO474712   5.902   7.406   5.864
 5916POPC   GL174713   5.840   7.468   6.164
 5916POPC   GL274714   5.837   7.555   6.164
 5916POPC   C1A74715   5.829   7.464   6.464
 5916POPC   D2A74716   5.914   7.424   6.764
 5916POPC   C3A74717   5.841   7.414   7.064
 5916POPC   C4A74718   5.845   7.444   7.364
 5916POPC   C1B74719   5.934   7.650   6.464
 5916POPC   C2B74720   5.921   7.619   6.764
 5916POPC   C3B74721   5.892   7.711   7.064
 5916POPC   C4B74722   5.859   7.661   7.364
 5917POPC   NC374723   9.732  23.669   5.564
 5917POPC   PO474724   9.758  23.738   5.864
 5917POPC   GL174725   9.739  23.683   6.164
 5917POPC   GL274726   9.642  23.754   6.164
 5917POPC   C1A74727   9.743  23.693   6.464
 5917POPC   D2A74728   9.713  23.744   6.764
 5917POPC   C3A74729   9.765  23.669   7.064
 5917POPC   C4A74730   9.783  23.752   7.364
 5917POPC   C1B74731   9.475  23.711   6.464
 5917POPC   C2B74732   9.520  23.696   6.764
 5917POPC   C3B74733   9.501  23.683   7.064
 5917POPC   C4B74734   9.449  23.691   7.364
 5918POPC   NC374735   5.869  34.535   5.564
 5918POPC   PO474736   5.900  34.553   5.864
 5918POPC   GL174737   5.866  34.577   6.164
 5918POPC   GL274738   5.894  34.423   6.164
 5918POPC   C1A74739   5.881  34.536   6.464
 5918POPC   D2A74740   5.823  34.610   6.764
 5918POPC   C3A74741   5.909  34.572   7.064
 5918POPC   C4A74742   5.841  34.551   7.364
 5918POPC   C1B74743   5.859  34.348   6.464
 5918POPC   C2B74744   5.844  34.357   6.764
 5918POPC   C3B74745   5.824  34.279   7.064
 5918POPC   C4B74746   5.835  34.359   7.364
 5919POPC   NC374747  30.698  42.341   5.564
 5919POPC   PO474748  30.734  42.355   5.864
 5919POPC   GL174749  30.733  42.292   6.164
 5919POPC   GL274750  30.624  42.430   6.164
 5919POPC   C1A74751  30.738  42.339   6.464
 5919POPC   D2A74752  30.711  42.333   6.764
 5919POPC   C3A74753  30.708  42.323   7.064
 5919POPC   C4A74754  30.716  42.379   7.364
 5919POPC   C1B74755  30.571  42.533   6.464
 5919POPC   C2B74756  30.585  42.588   6.764
 5919POPC   C3B74757  30.579  42.593   7.064
 5919POPC   C4B74758  30.666  42.527   7.364
 5920POPC   NC374759  19.865  42.302   5.564
 5920POPC   PO474760  19.795  42.286   5.864
 5920POPC   GL174761  19.809  42.287   6.164
 5920POPC   GL274762  19.843  42.445   6.164
 5920POPC   C1A74763  19.848  42.358   6.464
 5920POPC   D2A74764  19.870  42.330   6.764
 5920POPC   C3A74765  19.806  42.328   7.064
 5920POPC   C4A74766  19.874  42.312   7.364
 5920POPC   C1B74767  19.862  42.554   6.464
 5920POPC   C2B74768  19.918  42.606   6.764
 5920POPC   C3B74769  19.890  42.578   7.064
 5920POPC   C4B74770  19.912  42.616   7.364
 5921POPC   NC374771  23.715  11.335   5.564
 5921POPC   PO474772  23.719  11.333   5.864
 5921POPC   GL174773  23.756  11.268   6.164
 5921POPC   GL274774  23.656  11.204   6.164
 5921POPC   C1A74775  23.669  11.334   6.464
 5921POPC   D2A74776  23.696  11.327   6.764
 5921POPC   C3A74777  23.750  11.260   7.064
 5921POPC   C4A74778  23.693  11.339   7.364
 5921POPC   C1B74779  23.489  11.133   6.464
 5921POPC   C2B74780  23.560  11.097   6.764
 5921POPC   C3B74781  23.557  11.170   7.064
 5921POPC   C4B74782  23.505  11.096   7.364
 5922POPC   NC374783  37.642  38.466   5.564
 5922POPC   PO474784  37.725  38.474   5.864
 5922POPC   GL174785  37.677  38.440   6.164
 5922POPC   GL274786  37.789  38.452   6.164
 5922POPC   C1A74787  37.716  38.408   6.464
 5922POPC   D2A74788  37.697  38.452   6.764
 5922POPC   C3A74789  37.720  38.431   7.064
 5922POPC   C4A74790  37.682  38.417   7.364
 5922POPC   C1B74791  37.893  38.508   6.464
 5922POPC   C2B74792  37.918  38.500   6.764
 5922POPC   C3B74793  37.957  38.522   7.064
 5922POPC   C4B74794  37.921  38.461   7.364
 5923POPC   NC374795  34.561  42.379   5.564
 5923POPC   PO474796  34.590  42.316   5.864
 5923POPC   GL174797  34.594  42.295   6.164
 5923POPC   GL274798  34.434  42.400   6.164
 5923POPC   C1A74799  34.582  42.366   6.464
 5923POPC   D2A74800  34.612  42.351   6.764
 5923POPC   C3A74801  34.543  42.350   7.064
 5923POPC   C4A74802  34.533  42.331   7.364
 5923POPC   C1B74803  34.307  42.445   6.464
 5923POPC   C2B74804  34.335  42.429   6.764
 5923POPC   C3B74805  34.354  42.425   7.064
 5923POPC   C4B74806  34.337  42.391   7.364
 5924POPC   NC374807   6.677   9.728   5.564
 5924POPC   PO474808   6.635   9.785   5.864
 5924POPC   GL174809   6.652   9.792   6.164
 5924POPC   GL274810   6.631   9.600   6.164
 5924POPC   C1A74811   6.613   9.715   6.464
 5924POPC   D2A74812   6.608   9.785   6.764
 5924POPC   C3A74813   6.603   9.772   7.064
 5924POPC   C4A74814   6.685   9.786   7.364
 5924POPC   C1B74815   6.624   9.511   6.464
 5924POPC   C2B74816   6.646   9.468   6.764
 5924POPC   C3B74817   6.634   9.480   7.064
 5924POPC   C4B74818   6.712   9.462   7.364
 5925POPC   NC374819  34.586  33.052   5.564
 5925POPC   PO474820  34.622  32.993   5.864
 5925POPC   GL174821  34.615  33.067   6.164
 5925POPC   GL274822  34.577  33.169   6.164
 5925POPC   C1A74823  34.596  33.072   6.464
 5925POPC   D2A74824  34.530  33.018   6.764
 5925POPC   C3A74825  34.616  33.008   7.064
 5925POPC   C4A74826  34.606  33.065   7.364
 5925POPC   C1B74827  34.652  33.269   6.464
 5925POPC   C2B74828  34.727  33.231   6.764
 5925POPC   C3B74829  34.702  33.271   7.064
 5925POPC   C4B74830  34.686  33.252   7.364
 5926POPC   NC374831   3.578  33.756   5.564
 5926POPC   PO474832   3.514  33.841   5.864
 5926POPC   GL174833   3.510  33.821   6.164
 5926POPC   GL274834   3.424  33.779   6.164
 5926POPC   C1A74835   3.495  33.843   6.464
 5926POPC   D2A74836   3.569  33.757   6.764
 5926POPC   C3A74837   3.516  33.846   7.064
 5926POPC   C4A74838   3.569  33.823   7.364
 5926POPC   C1B74839   3.276  33.778   6.464
 5926POPC   C2B74840   3.259  33.797   6.764
 5926POPC   C3B74841   3.305  33.842   7.064
 5926POPC   C4B74842   3.245  33.841   7.364
 5927POPC   NC374843  15.215  23.755   5.564
 5927POPC   PO474844  15.214  23.699   5.864
 5927POPC   GL174845  15.179  23.758   6.164
 5927POPC   GL274846  15.326  23.763   6.164
 5927POPC   C1A74847  15.206  23.670   6.464
 5927POPC   D2A74848  15.185  23.665   6.764
 5927POPC   C3A74849  15.140  23.732   7.064
 5927POPC   C4A74850  15.191  23.681   7.364
 5927POPC   C1B74851  15.390  23.784   6.464
 5927POPC   C2B74852  15.401  23.796   6.764
 5927POPC   C3B74853  15.368  23.837   7.064
 5927POPC   C4B74854  15.375  23.812   7.364
 5928POPC   NC374855  19.020  26.073   5.564
 5928POPC   PO474856  19.034  26.071   5.864
 5928POPC   GL174857  19.069  26.046   6.164
 5928POPC   GL274858  19.148  26.032   6.164
 5928POPC   C1A74859  19.106  26.079   6.464
 5928POPC   D2A74860  19.014  26.015   6.764
 5928POPC   C3A74861  19.067  26.085   7.064
 5928POPC   C4A74862  19.045  26.072   7.364
 5928POPC   C1B74863  19.341  26.112   6.464
 5928POPC   C2B74864  19.297  26.099   6.764
 5928POPC   C3B74865  19.308  26.049   7.064
 5928POPC   C4B74866  19.303  26.109   7.364
 5929POPC   NC374867  27.600  12.900   5.564
 5929POPC   PO474868  27.553  12.880   5.864
 5929POPC   GL174869  27.641  12.829   6.164
 5929POPC   GL274870  27.594  12.964   6.164
 5929POPC   C1A74871  27.582  12.852   6.464
 5929POPC   D2A74872  27.566  12.825   6.764
 5929POPC   C3A74873  27.546  12.834   7.064
 5929POPC   C4A74874  27.547  12.824   7.364
 5929POPC   C1B74875  27.637  13.107   6.464
 5929POPC   C2B74876  27.667  13.114   6.764
 5929POPC   C3B74877  27.593  13.147   7.064
 5929POPC   C4B74878  27.588  13.097   7.364
 5930POPC   NC374879  43.901  40.024   5.564
 5930POPC   PO474880  43.918  39.960   5.864
 5930POPC   GL174881  43.866  40.024   6.164
 5930POPC   GL274882  43.883  39.922   6.164
 5930POPC   C1A74883  43.856  40.008   6.464
 5930POPC   D2A74884  43.897  39.968   6.764
 5930POPC   C3A74885  43.847  40.044   7.064
 5930POPC   C4A74886  43.843  40.049   7.364
 5930POPC   C1B74887  43.790  39.776   6.464
 5930POPC   C2B74888  43.828  39.812   6.764
 5930POPC   C3B74889  43.838  39.784   7.064
 5930POPC   C4B74890  43.830  39.813   7.364
 5931POPC   NC374891  16.778   5.083   5.564
 5931POPC   PO474892  16.699   5.083   5.864
 5931POPC   GL174893  16.707   5.141   6.164
 5931POPC   GL274894  16.626   4.985   6.164
 5931POPC   C1A74895  16.730   5.124   6.464
 5931POPC   D2A74896  16.691   5.093   6.764
 5931POPC   C3A74897  16.733   5.056   7.064
 5931POPC   C4A74898  16.701   5.141   7.364
 5931POPC   C1B74899  16.551   4.979   6.464
 5931POPC   C2B74900  16.551   4.975   6.764
 5931POPC   C3B74901  16.516   4.898   7.064
 5931POPC   C4B74902  16.484   4.895   7.364
 5932POPC   NC374903  43.906  17.496   5.564
 5932POPC   PO474904  43.843  17.481   5.864
 5932POPC   GL174905  43.915  17.524   6.164
 5932POPC   GL274906  43.894  17.384   6.164
 5932POPC   C1A74907  43.897  17.554   6.464
 5932POPC   D2A74908  43.917  17.486   6.764
 5932POPC   C3A74909  43.837  17.457   7.064
 5932POPC   C4A74910  43.847  17.532   7.364
 5932POPC   C1B74911  43.920  17.316   6.464
 5932POPC   C2B74912  43.931  17.229   6.764
 5932POPC   C3B74913  43.919  17.312   7.064
 5932POPC   C4B74914  43.921  17.230   7.364
 5933POPC   NC374915  29.876  12.871   5.564
 5933POPC   PO474916  29.893  12.857   5.864
 5933POPC   GL174917  29.946  12.824   6.164
 5933POPC   GL274918  29.811  12.885   6.164
 5933POPC   C1A74919  29.964  12.850   6.464
 5933POPC   D2A74920  29.919  12.804   6.764
 5933POPC   C3A74921  29.926  12.844   7.064
 5933POPC   C4A74922  29.915  12.891   7.364
 5933POPC   C1B74923  29.688  12.922   6.464
 5933POPC   C2B74924  29.650  12.878   6.764
 5933POPC   C3B74925  29.659  12.845   7.064
 5933POPC   C4B74926  29.703  12.834   7.364
 5934POPC   NC374927  39.228  15.935   5.564
 5934POPC   PO474928  39.281  15.941   5.864
 5934POPC   GL174929  39.240  15.938   6.164
 5934POPC   GL274930  39.244  15.797   6.164
 5934POPC   C1A74931  39.200  15.915   6.464
 5934POPC   D2A74932  39.262  15.934   6.764
 5934POPC   C3A74933  39.219  15.953   7.064
 5934POPC   C4A74934  39.233  15.932   7.364
 5934POPC   C1B74935  39.308  15.721   6.464
 5934POPC   C2B74936  39.340  15.693   6.764
 5934POPC   C3B74937  39.308  15.713   7.064
 5934POPC   C4B74938  39.275  15.693   7.364
 5935POPC   NC374939  14.407  27.572   5.564
 5935POPC   PO474940  14.409  27.573   5.864
 5935POPC   GL174941  14.374  27.547   6.164
 5935POPC   GL274942  14.542  27.558   6.164
 5935POPC   C1A74943  14.426  27.600   6.464
 5935POPC   D2A74944  14.419  27.593   6.764
 5935POPC   C3A74945  14.377  27.620   7.064
 5935POPC   C4A74946  14.417  27.589   7.364
 5935POPC   C1B74947  14.690  27.612   6.464
 5935POPC   C2B74948  14.691  27.561   6.764
 5935POPC   C3B74949  14.640  27.593   7.064
 5935POPC   C4B74950  14.632  27.590   7.364
 5936POPC   NC374951   0.391  28.414   5.564
 5936POPC   PO474952   0.430  28.382   5.864
 5936POPC   GL174953   0.442  28.373   6.164
 5936POPC   GL274954   0.494  28.248   6.164
 5936POPC   C1A74955   0.482  28.394   6.464
 5936POPC   D2A74956   0.394  28.413   6.764
 5936POPC   C3A74957   0.421  28.406   7.064
 5936POPC   C4A74958   0.416  28.375   7.364
 5936POPC   C1B74959   0.654  28.231   6.464
 5936POPC   C2B74960   0.650  28.188   6.764
 5936POPC   C3B74961   0.660  28.216   7.064
 5936POPC   C4B74962   0.603  28.171   7.364
 5937POPC   NC374963  35.361   8.179   5.564
 5937POPC   PO474964  35.368   8.201   5.864
 5937POPC   GL174965  35.342   8.183   6.164
 5937POPC   GL274966  35.316   8.286   6.164
 5937POPC   C1A74967  35.332   8.232   6.464
 5937POPC   D2A74968  35.341   8.217   6.764
 5937POPC   C3A74969  35.343   8.184   7.064
 5937POPC   C4A74970  35.326   8.241   7.364
 5937POPC   C1B74971  35.303   8.398   6.464
 5937POPC   C2B74972  35.280   8.488   6.764
 5937POPC   C3B74973  35.357   8.444   7.064
 5937POPC   C4B74974  35.323   8.408   7.364
 5938POPC   NC374975  43.156   2.734   5.564
 5938POPC   PO474976  43.158   2.776   5.864
 5938POPC   GL174977  43.089   2.769   6.164
 5938POPC   GL274978  43.147   2.607   6.164
 5938POPC   C1A74979  43.123   2.783   6.464
 5938POPC   D2A74980  43.125   2.737   6.764
 5938POPC   C3A74981  43.145   2.747   7.064
 5938POPC   C4A74982  43.091   2.747   7.364
 5938POPC   C1B74983  43.096   2.516   6.464
 5938POPC   C2B74984  43.166   2.485   6.764
 5938POPC   C3B74985  43.092   2.468   7.064
 5938POPC   C4B74986  43.136   2.518   7.364
 5939POPC   NC374987  40.777  30.694   5.564
 5939POPC   PO474988  40.824  30.738   5.864
 5939POPC   GL174989  40.821  30.656   6.164
 5939POPC   GL274990  40.705  30.576   6.164
 5939POPC   C1A74991  40.810  30.700   6.464
 5939POPC   D2A74992  40.782  30.660   6.764
 5939POPC   C3A74993  40.789  30.733   7.064
 5939POPC   C4A74994  40.734  30.715   7.364
 5939POPC   C1B74995  40.678  30.497   6.464
 5939POPC   C2B74996  40.670  30.451   6.764
 5939POPC   C3B74997  40.692  30.485   7.064
 5939POPC   C4B74998  40.679  30.451   7.364
 5940POPC   NC374999  26.044  26.020   5.564
 5940POPC   PO475000  26.032  26.006   5.864
 5940POPC   GL175001  26.076  25.997   6.164
 5940POPC   GL275002  25.964  26.031   6.164
 5940POPC   C1A75003  26.038  25.999   6.464
 5940POPC   D2A75004  26.090  26.019   6.764
 5940POPC   C3A75005  26.014  26.024   7.064
 5940POPC   C4A75006  26.018  25.994   7.364
 5940POPC   C1B75007  25.822  25.991   6.464
 5940POPC   C2B75008  25.787  26.022   6.764
 5940POPC   C3B75009  25.842  25.960   7.064
 5940POPC   C4B75010  25.791  25.970   7.364
 5941POPC   NC375011   7.447   0.455   5.564
 5941POPC   PO475012   7.449   0.453   5.864
 5941POPC   GL175013   7.416   0.439   6.164
 5941POPC   GL275014   7.508   0.407   6.164
 5941POPC   C1A75015   7.441   0.397   6.464
 5941POPC   D2A75016   7.405   0.395   6.764
 5941POPC   C3A75017   7.392   0.468   7.064
 5941POPC   C4A75018   7.422   0.428   7.364
 5941POPC   C1B75019   7.702   0.392   6.464
 5941POPC   C2B75020   7.610   0.356   6.764
 5941POPC   C3B75021   7.630   0.371   7.064
 5941POPC   C4B75022   7.664   0.387   7.364
 5942POPC   NC375023   3.582   9.740   5.564
 5942POPC   PO475024   3.586   9.704   5.864
 5942POPC   GL175025   3.546   9.759   6.164
 5942POPC   GL275026   3.686   9.699   6.164
 5942POPC   C1A75027   3.550   9.764   6.464
 5942POPC   D2A75028   3.576   9.713   6.764
 5942POPC   C3A75029   3.539   9.723   7.064
 5942POPC   C4A75030   3.570   9.798   7.364
 5942POPC   C1B75031   3.791   9.630   6.464
 5942POPC   C2B75032   3.745   9.687   6.764
 5942POPC   C3B75033   3.786   9.641   7.064
 5942POPC   C4B75034   3.827   9.685   7.364
 5943POPC   NC375035   8.151  25.244   5.564
 5943POPC   PO475036   8.243  25.248   5.864
 5943POPC   GL175037   8.214  25.305   6.164
 5943POPC   GL275038   8.167  25.136   6.164
 5943POPC   C1A75039   8.164  25.274   6.464
 5943POPC   D2A75040   8.208  25.282   6.764
 5943POPC   C3A75041   8.233  25.228   7.064
 5943POPC   C4A75042   8.148  25.231   7.364
 5943POPC   C1B75043   8.151  25.069   6.464
 5943POPC   C2B75044   8.138  24.984   6.764
 5943POPC   C3B75045   8.130  24.986   7.064
 5943POPC   C4B75046   8.164  25.040   7.364
 5944POPC   NC375047  19.076  24.452   5.564
 5944POPC   PO475048  19.085  24.489   5.864
 5944POPC   GL175049  19.038  24.529   6.164
 5944POPC   GL275050  19.113  24.567   6.164
 5944POPC   C1A75051  19.057  24.504   6.464
 5944POPC   D2A75052  19.039  24.453   6.764
 5944POPC   C3A75053  19.083  24.459   7.064
 5944POPC   C4A75054  19.028  24.476   7.364
 5944POPC   C1B75055  19.197  24.704   6.464
 5944POPC   C2B75056  19.158  24.728   6.764
 5944POPC   C3B75057  19.156  24.716   7.064
 5944POPC   C4B75058  19.197  24.765   7.364
 5945POPC   NC375059  28.412  10.510   5.564
 5945POPC   PO475060  28.384  10.483   5.864
 5945POPC   GL175061  28.374  10.522   6.164
 5945POPC   GL275062  28.427  10.552   6.164
 5945POPC   C1A75063  28.387  10.516   6.464
 5945POPC   D2A75064  28.325  10.541   6.764
 5945POPC   C3A75065  28.372  10.566   7.064
 5945POPC   C4A75066  28.332  10.481   7.364
 5945POPC   C1B75067  28.558  10.708   6.464
 5945POPC   C2B75068  28.556  10.726   6.764
 5945POPC   C3B75069  28.602  10.651   7.064
 5945POPC   C4B75070  28.563  10.720   7.364
 5946POPC   NC375071   1.263  43.849   5.564
 5946POPC   PO475072   1.236  43.920   5.864
 5946POPC   GL175073   1.260  43.934   6.164
 5946POPC   GL275074   1.289  43.828   6.164
 5946POPC   C1A75075   1.232  43.857   6.464
 5946POPC   D2A75076   1.197  43.898   6.764
 5946POPC   C3A75077   1.210  43.904   7.064
 5946POPC   C4A75078   1.262  43.853   7.364
 5946POPC   C1B75079   1.366  43.638   6.464
 5946POPC   C2B75080   1.401  43.729   6.764
 5946POPC   C3B75081   1.353  43.664   7.064
 5946POPC   C4B75082   1.345  43.652   7.364
 5947POPC   NC375083  24.538  41.595   5.564
 5947POPC   PO475084  24.497  41.554   5.864
 5947POPC   GL175085  24.492  41.568   6.164
 5947POPC   GL275086  24.430  41.496   6.164
 5947POPC   C1A75087  24.483  41.530   6.464
 5947POPC   D2A75088  24.459  41.604   6.764
 5947POPC   C3A75089  24.505  41.522   7.064
 5947POPC   C4A75090  24.447  41.537   7.364
 5947POPC   C1B75091  24.398  41.308   6.464
 5947POPC   C2B75092  24.356  41.322   6.764
 5947POPC   C3B75093  24.374  41.381   7.064
 5947POPC   C4B75094  24.358  41.328   7.364
 5948POPC   NC375095  15.951   5.849   5.564
 5948POPC   PO475096  15.909   5.829   5.864
 5948POPC   GL175097  15.934   5.878   6.164
 5948POPC   GL275098  16.004   5.791   6.164
 5948POPC   C1A75099  15.987   5.848   6.464
 5948POPC   D2A75100  15.955   5.899   6.764
 5948POPC   C3A75101  15.966   5.900   7.064
 5948POPC   C4A75102  15.910   5.882   7.364
 5948POPC   C1B75103  16.035   5.628   6.464
 5948POPC   C2B75104  15.999   5.652   6.764
 5948POPC   C3B75105  16.014   5.616   7.064
 5948POPC   C4B75106  15.994   5.600   7.364
 5949POPC   NC375107  43.857   3.544   5.564
 5949POPC   PO475108  43.849   3.525   5.864
 5949POPC   GL175109  43.915   3.558   6.164
 5949POPC   GL275110  43.845   3.456   6.164
 5949POPC   C1A75111  43.916   3.590   6.464
 5949POPC   D2A75112  43.864   3.517   6.764
 5949POPC   C3A75113  43.888   3.511   7.064
 5949POPC   C4A75114  43.914   3.571   7.364
 5949POPC   C1B75115  43.747   3.370   6.464
 5949POPC   C2B75116  43.748   3.321   6.764
 5949POPC   C3B75117  43.690   3.368   7.064
 5949POPC   C4B75118  43.737   3.386   7.364
 5950POPC   NC375119   2.815  16.721   5.564
 5950POPC   PO475120   2.791  16.701   5.864
 5950POPC   GL175121   2.769  16.751   6.164
 5950POPC   GL275122   2.753  16.571   6.164
 5950POPC   C1A75123   2.742  16.687   6.464
 5950POPC   D2A75124   2.734  16.710   6.764
 5950POPC   C3A75125   2.783  16.733   7.064
 5950POPC   C4A75126   2.717  16.687   7.364
 5950POPC   C1B75127   2.752  16.466   6.464
 5950POPC   C2B75128   2.725  16.527   6.764
 5950POPC   C3B75129   2.684  16.447   7.064
 5950POPC   C4B75130   2.768  16.509   7.364
 5951POPC   NC375131  40.751  15.950   5.564
 5951POPC   PO475132  40.817  15.937   5.864
 5951POPC   GL175133  40.788  15.918   6.164
 5951POPC   GL275134  40.678  16.003   6.164
 5951POPC   C1A75135  40.788  16.004   6.464
 5951POPC   D2A75136  40.770  15.979   6.764
 5951POPC   C3A75137  40.805  15.991   7.064
 5951POPC   C4A75138  40.830  15.992   7.364
 5951POPC   C1B75139  40.581  16.063   6.464
 5951POPC   C2B75140  40.540  16.037   6.764
 5951POPC   C3B75141  40.578  16.083   7.064
 5951POPC   C4B75142  40.541  16.039   7.364
 5952POPC   NC375143  26.794  41.574   5.564
 5952POPC   PO475144  26.827  41.593   5.864
 5952POPC   GL175145  26.851  41.543   6.164
 5952POPC   GL275146  26.665  41.512   6.164
 5952POPC   C1A75147  26.800  41.601   6.464
 5952POPC   D2A75148  26.843  41.528   6.764
 5952POPC   C3A75149  26.830  41.597   7.064
 5952POPC   C4A75150  26.842  41.592   7.364
 5952POPC   C1B75151  26.592  41.559   6.464
 5952POPC   C2B75152  26.522  41.547   6.764
 5952POPC   C3B75153  26.585  41.581   7.064
 5952POPC   C4B75154  26.578  41.589   7.364
 5953POPC   NC375155  34.564  10.499   5.564
 5953POPC   PO475156  34.557  10.518   5.864
 5953POPC   GL175157  34.603  10.475   6.164
 5953POPC   GL275158  34.456  10.401   6.164
 5953POPC   C1A75159  34.571  10.509   6.464
 5953POPC   D2A75160  34.606  10.563   6.764
 5953POPC   C3A75161  34.546  10.492   7.064
 5953POPC   C4A75162  34.549  10.487   7.364
 5953POPC   C1B75163  34.439  10.326   6.464
 5953POPC   C2B75164  34.431  10.323   6.764
 5953POPC   C3B75165  34.344  10.322   7.064
 5953POPC   C4B75166  34.381  10.332   7.364
 5954POPC   NC375167  39.249  23.758   5.564
 5954POPC   PO475168  39.263  23.763   5.864
 5954POPC   GL175169  39.209  23.698   6.164
 5954POPC   GL275170  39.098  23.755   6.164
 5954POPC   C1A75171  39.226  23.667   6.464
 5954POPC   D2A75172  39.254  23.756   6.764
 5954POPC   C3A75173  39.206  23.707   7.064
 5954POPC   C4A75174  39.193  23.734   7.364
 5954POPC   C1B75175  38.977  23.852   6.464
 5954POPC   C2B75176  39.033  23.844   6.764
 5954POPC   C3B75177  39.040  23.830   7.064
 5954POPC   C4B75178  38.996  23.822   7.364
 5955POPC   NC375179  44.687  22.978   5.564
 5955POPC   PO475180  44.656  22.921   5.864
 5955POPC   GL175181  44.675  22.941   6.164
 5955POPC   GL275182  44.520  22.884   6.164
 5955POPC   C1A75183  44.664  22.922   6.464
 5955POPC   D2A75184  44.657  22.925   6.764
 5955POPC   C3A75185  44.708  22.927   7.064
 5955POPC   C4A75186  44.623  22.936   7.364
 5955POPC   C1B75187  44.446  22.787   6.464
 5955POPC   C2B75188  44.419  22.816   6.764
 5955POPC   C3B75189  44.500  22.808   7.064
 5955POPC   C4B75190  44.455  22.769   7.364
 5956POPC   NC375191  33.046  42.365   5.564
 5956POPC   PO475192  33.063  42.353   5.864
 5956POPC   GL175193  33.029  42.287   6.164
 5956POPC   GL275194  32.891  42.389   6.164
 5956POPC   C1A75195  33.022  42.363   6.464
 5956POPC   D2A75196  32.985  42.286   6.764
 5956POPC   C3A75197  33.054  42.369   7.064
 5956POPC   C4A75198  33.061  42.380   7.364
 5956POPC   C1B75199  32.760  42.414   6.464
 5956POPC   C2B75200  32.826  42.386   6.764
 5956POPC   C3B75201  32.818  42.470   7.064
 5956POPC   C4B75202  32.802  42.427   7.364
 5957POPC   NC375203   8.943  43.084   5.564
 5957POPC   PO475204   9.001  43.092   5.864
 5957POPC   GL175205   8.985  43.120   6.164
 5957POPC   GL275206   9.081  43.027   6.164
 5957POPC   C1A75207   9.004  43.158   6.464
 5957POPC   D2A75208   9.016  43.084   6.764
 5957POPC   C3A75209   8.963  43.109   7.064
 5957POPC   C4A75210   8.932  43.071   7.364
 5957POPC   C1B75211   9.119  42.915   6.464
 5957POPC   C2B75212   9.106  42.975   6.764
 5957POPC   C3B75213   9.113  42.920   7.064
 5957POPC   C4B75214   9.134  42.956   7.364
 5958POPC   NC375215   8.939   1.245   5.564
 5958POPC   PO475216   9.022   1.229   5.864
 5958POPC   GL175217   8.942   1.255   6.164
 5958POPC   GL275218   8.802   1.245   6.164
 5958POPC   C1A75219   9.008   1.201   6.464
 5958POPC   D2A75220   8.989   1.194   6.764
 5958POPC   C3A75221   8.979   1.189   7.064
 5958POPC   C4A75222   8.940   1.262   7.364
 5958POPC   C1B75223   8.737   1.193   6.464
 5958POPC   C2B75224   8.700   1.185   6.764
 5958POPC   C3B75225   8.686   1.212   7.064
 5958POPC   C4B75226   8.678   1.195   7.364
 5959POPC   NC375227  30.681  11.259   5.564
 5959POPC   PO475228  30.714  11.345   5.864
 5959POPC   GL175229  30.720  11.286   6.164
 5959POPC   GL275230  30.726  11.380   6.164
 5959POPC   C1A75231  30.660  11.260   6.464
 5959POPC   D2A75232  30.694  11.256   6.764
 5959POPC   C3A75233  30.658  11.259   7.064
 5959POPC   C4A75234  30.699  11.252   7.364
 5959POPC   C1B75235  30.802  11.482   6.464
 5959POPC   C2B75236  30.885  11.450   6.764
 5959POPC   C3B75237  30.809  11.453   7.064
 5959POPC   C4B75238  30.852  11.500   7.364
 5960POPC   NC375239  12.818  19.823   5.564
 5960POPC   PO475240  12.825  19.802   5.864
 5960POPC   GL175241  12.885  19.870   6.164
 5960POPC   GL275242  12.726  19.750   6.164
 5960POPC   C1A75243  12.802  19.840   6.464
 5960POPC   D2A75244  12.884  19.797   6.764
 5960POPC   C3A75245  12.853  19.795   7.064
 5960POPC   C4A75246  12.815  19.870   7.364
 5960POPC   C1B75247  12.640  19.663   6.464
 5960POPC   C2B75248  12.611  19.696   6.764
 5960POPC   C3B75249  12.678  19.642   7.064
 5960POPC   C4B75250  12.686  19.704   7.364
 5961POPC   NC375251  15.142  42.286   5.564
 5961POPC   PO475252  15.207  42.292   5.864
 5961POPC   GL175253  15.135  42.336   6.164
 5961POPC   GL275254  15.242  42.435   6.164
 5961POPC   C1A75255  15.226  42.290   6.464
 5961POPC   D2A75256  15.178  42.337   6.764
 5961POPC   C3A75257  15.168  42.323   7.064
 5961POPC   C4A75258  15.212  42.347   7.364
 5961POPC   C1B75259  15.274  42.557   6.464
 5961POPC   C2B75260  15.291  42.540   6.764
 5961POPC   C3B75261  15.292  42.597   7.064
 5961POPC   C4B75262  15.261  42.518   7.364
 5962POPC   NC375263  35.306  44.646   5.564
 5962POPC   PO475264  35.396  44.660   5.864
 5962POPC   GL175265  35.348  44.709   6.164
 5962POPC   GL275266  35.427  44.537   6.164
 5962POPC   C1A75267  35.364  44.668   6.464
 5962POPC   D2A75268  35.375  44.650   6.764
 5962POPC   C3A75269  35.316  44.639   7.064
 5962POPC   C4A75270  35.396  44.695   7.364
 5962POPC   C1B75271  35.473  44.498   6.464
 5962POPC   C2B75272  35.532  44.443   6.764
 5962POPC   C3B75273  35.543  44.442   7.064
 5962POPC   C4B75274  35.488  44.458   7.364
 5963POPC   NC375275  40.799  17.475   5.564
 5963POPC   PO475276  40.809  17.539   5.864
 5963POPC   GL175277  40.775  17.471   6.164
 5963POPC   GL275278  40.726  17.577   6.164
 5963POPC   C1A75279  40.766  17.479   6.464
 5963POPC   D2A75280  40.794  17.553   6.764
 5963POPC   C3A75281  40.774  17.501   7.064
 5963POPC   C4A75282  40.772  17.465   7.364
 5963POPC   C1B75283  40.588  17.649   6.464
 5963POPC   C2B75284  40.575  17.663   6.764
 5963POPC   C3B75285  40.636  17.647   7.064
 5963POPC   C4B75286  40.648  17.696   7.364
 5964POPC   NC375287  32.999  14.414   5.564
 5964POPC   PO475288  32.995  14.449   5.864
 5964POPC   GL175289  33.014  14.439   6.164
 5964POPC   GL275290  32.994  14.252   6.164
 5964POPC   C1A75291  33.066  14.383   6.464
 5964POPC   D2A75292  33.003  14.401   6.764
 5964POPC   C3A75293  32.998  14.445   7.064
 5964POPC   C4A75294  33.009  14.446   7.364
 5964POPC   C1B75295  33.017  14.200   6.464
 5964POPC   C2B75296  32.985  14.166   6.764
 5964POPC   C3B75297  32.984  14.170   7.064
 5964POPC   C4B75298  33.020  14.167   7.364
 5965POPC   NC375299   1.990   8.951   5.564
 5965POPC   PO475300   2.039   8.991   5.864
 5965POPC   GL175301   2.034   8.924   6.164
 5965POPC   GL275302   1.878   8.919   6.164
 5965POPC   C1A75303   2.021   8.985   6.464
 5965POPC   D2A75304   1.990   8.960   6.764
 5965POPC   C3A75305   1.957   8.934   7.064
 5965POPC   C4A75306   1.983   8.961   7.364
 5965POPC   C1B75307   1.712   8.883   6.464
 5965POPC   C2B75308   1.765   8.918   6.764
 5965POPC   C3B75309   1.758   8.872   7.064
 5965POPC   C4B75310   1.737   8.951   7.364
 5966POPC   NC375311  29.148   2.734   5.564
 5966POPC   PO475312  29.124   2.720   5.864
 5966POPC   GL175313  29.144   2.748   6.164
 5966POPC   GL275314  29.254   2.827   6.164
 5966POPC   C1A75315  29.126   2.770   6.464
 5966POPC   D2A75316  29.139   2.811   6.764
 5966POPC   C3A75317  29.103   2.765   7.064
 5966POPC   C4A75318  29.116   2.761   7.364
 5966POPC   C1B75319  29.340   2.958   6.464
 5966POPC   C2B75320  29.376   2.956   6.764
 5966POPC   C3B75321  29.305   2.955   7.064
 5966POPC   C4B75322  29.386   2.959   7.364
 5967POPC   NC375323  41.523  10.548   5.564
 5967POPC   PO475324  41.565  10.546   5.864
 5967POPC   GL175325  41.562  10.540   6.164
 5967POPC   GL275326  41.482  10.462   6.164
 5967POPC   C1A75327  41.522  10.474   6.464
 5967POPC   D2A75328  41.596  10.559   6.764
 5967POPC   C3A75329  41.515  10.494   7.064
 5967POPC   C4A75330  41.595  10.514   7.364
 5967POPC   C1B75331  41.310  10.383   6.464
 5967POPC   C2B75332  41.363  10.410   6.764
 5967POPC   C3B75333  41.321  10.364   7.064
 5967POPC   C4B75334  41.364  10.415   7.364
 5968POPC   NC375335   1.261  37.681   5.564
 5968POPC   PO475336   1.202  37.651   5.864
 5968POPC   GL175337   1.180  37.716   6.164
 5968POPC   GL275338   1.279  37.767   6.164
 5968POPC   C1A75339   1.256  37.702   6.464
 5968POPC   D2A75340   1.255  37.671   6.764
 5968POPC   C3A75341   1.194  37.708   7.064
 5968POPC   C4A75342   1.248  37.692   7.364
 5968POPC   C1B75343   1.479  37.769   6.464
 5968POPC   C2B75344   1.404  37.809   6.764
 5968POPC   C3B75345   1.454  37.815   7.064
 5968POPC   C4B75346   1.411  37.832   7.364
 5969POPC   NC375347  42.309  33.071   5.564
 5969POPC   PO475348  42.375  33.025   5.864
 5969POPC   GL175349  42.298  33.063   6.164
 5969POPC   GL275350  42.236  33.074   6.164
 5969POPC   C1A75351  42.290  33.028   6.464
 5969POPC   D2A75352  42.332  33.067   6.764
 5969POPC   C3A75353  42.343  33.019   7.064
 5969POPC   C4A75354  42.363  33.031   7.364
 5969POPC   C1B75355  42.120  33.031   6.464
 5969POPC   C2B75356  42.047  33.071   6.764
 5969POPC   C3B75357  42.132  33.091   7.064
 5969POPC   C4B75358  42.083  33.064   7.364
 5970POPC   NC375359  36.111  29.148   5.564
 5970POPC   PO475360  36.142  29.174   5.864
 5970POPC   GL175361  36.084  29.176   6.164
 5970POPC   GL275362  36.136  29.056   6.164
 5970POPC   C1A75363  36.161  29.103   6.464
 5970POPC   D2A75364  36.126  29.130   6.764
 5970POPC   C3A75365  36.162  29.132   7.064
 5970POPC   C4A75366  36.159  29.188   7.364
 5970POPC   C1B75367  36.020  28.932   6.464
 5970POPC   C2B75368  36.057  28.889   6.764
 5970POPC   C3B75369  36.035  28.945   7.064
 5970POPC   C4B75370  36.076  28.904   7.364
 5971POPC   NC375371  15.204   1.226   5.564
 5971POPC   PO475372  15.177   1.235   5.864
 5971POPC   GL175373  15.168   1.183   6.164
 5971POPC   GL275374  15.039   1.118   6.164
 5971POPC   C1A75375  15.155   1.234   6.464
 5971POPC   D2A75376  15.185   1.169   6.764
 5971POPC   C3A75377  15.152   1.223   7.064
 5971POPC   C4A75378  15.197   1.241   7.364
 5971POPC   C1B75379  14.920   1.121   6.464
 5971POPC   C2B75380  14.986   1.046   6.764
 5971POPC   C3B75381  14.937   1.091   7.064
 5971POPC   C4B75382  14.932   1.085   7.364
 5972POPC   NC375383  44.679   8.963   5.564
 5972POPC   PO475384  44.630   8.927   5.864
 5972POPC   GL175385  44.632   8.958   6.164
 5972POPC   GL275386  44.609   9.020   6.164
 5972POPC   C1A75387  44.644   8.953   6.464
 5972POPC   D2A75388  44.705   9.004   6.764
 5972POPC   C3A75389  44.673   8.925   7.064
 5972POPC   C4A75390  44.623   8.930   7.364
 5972POPC   C1B75391  44.449   9.135   6.464
 5972POPC   C2B75392  44.476   9.148   6.764
 5972POPC   C3B75393  44.480   9.134   7.064
 5972POPC   C4B75394  44.496   9.127   7.364
 5973POPC   NC375395  18.255  26.824   5.564
 5973POPC   PO475396  18.297  26.794   5.864
 5973POPC   GL175397  18.234  26.835   6.164
 5973POPC   GL275398  18.166  26.777   6.164
 5973POPC   C1A75399  18.270  26.792   6.464
 5973POPC   D2A75400  18.275  26.852   6.764
 5973POPC   C3A75401  18.281  26.831   7.064
 5973POPC   C4A75402  18.327  26.862   7.364
 5973POPC   C1B75403  18.010  26.723   6.464
 5973POPC   C2B75404  18.001  26.744   6.764
 5973POPC   C3B75405  18.015  26.719   7.064
 5973POPC   C4B75406  18.020  26.774   7.364
 5974POPC   NC375407  18.282  36.864   5.564
 5974POPC   PO475408  18.328  36.891   5.864
 5974POPC   GL175409  18.309  36.867   6.164
 5974POPC   GL275410  18.312  36.987   6.164
 5974POPC   C1A75411  18.233  36.856   6.464
 5974POPC   D2A75412  18.252  36.907   6.764
 5974POPC   C3A75413  18.327  36.904   7.064
 5974POPC   C4A75414  18.267  36.866   7.364
 5974POPC   C1B75415  18.467  37.075   6.464
 5974POPC   C2B75416  18.471  37.102   6.764
 5974POPC   C3B75417  18.457  37.159   7.064
 5974POPC   C4B75418  18.420  37.080   7.364
 5975POPC   NC375419  37.715  29.949   5.564
 5975POPC   PO475420  37.691  29.919   5.864
 5975POPC   GL175421  37.708  29.885   6.164
 5975POPC   GL275422  37.752  30.027   6.164
 5975POPC   C1A75423  37.685  29.894   6.464
 5975POPC   D2A75424  37.643  29.889   6.764
 5975POPC   C3A75425  37.700  29.893   7.064
 5975POPC   C4A75426  37.646  29.959   7.364
 5975POPC   C1B75427  37.813  30.121   6.464
 5975POPC   C2B75428  37.871  30.056   6.764
 5975POPC   C3B75429  37.855  30.113   7.064
 5975POPC   C4B75430  37.821  30.049   7.364
 5976POPC   NC375431  41.604  40.010   5.564
 5976POPC   PO475432  41.531  40.030   5.864
 5976POPC   GL175433  41.532  39.964   6.164
 5976POPC   GL275434  41.479  39.913   6.164
 5976POPC   C1A75435  41.592  40.009   6.464
 5976POPC   D2A75436  41.581  40.034   6.764
 5976POPC   C3A75437  41.549  40.051   7.064
 5976POPC   C4A75438  41.597  39.980   7.364
 5976POPC   C1B75439  41.424  39.838   6.464
 5976POPC   C2B75440  41.458  39.844   6.764
 5976POPC   C3B75441  41.404  39.788   7.064
 5976POPC   C4B75442  41.374  39.825   7.364
 5977POPC   NC375443   9.793   5.116   5.564
 5977POPC   PO475444   9.780   5.075   5.864
 5977POPC   GL175445   9.715   5.112   6.164
 5977POPC   GL275446   9.810   5.027   6.164
 5977POPC   C1A75447   9.745   5.057   6.464
 5977POPC   D2A75448   9.790   5.104   6.764
 5977POPC   C3A75449   9.798   5.065   7.064
 5977POPC   C4A75450   9.754   5.113   7.364
 5977POPC   C1B75451   9.865   4.888   6.464
 5977POPC   C2B75452   9.843   4.883   6.764
 5977POPC   C3B75453   9.828   4.844   7.064
 5977POPC   C4B75454   9.823   4.912   7.364
 5978POPC   NC375455  10.547  41.541   5.564
 5978POPC   PO475456  10.504  41.543   5.864
 5978POPC   GL175457  10.545  41.598   6.164
 5978POPC   GL275458  10.475  41.419   6.164
 5978POPC   C1A75459  10.542  41.572   6.464
 5978POPC   D2A75460  10.483  41.562   6.764
 5978POPC   C3A75461  10.538  41.578   7.064
 5978POPC   C4A75462  10.516  41.569   7.364
 5978POPC   C1B75463  10.498  41.300   6.464
 5978POPC   C2B75464  10.501  41.364   6.764
 5978POPC   C3B75465  10.423  41.350   7.064
 5978POPC   C4B75466  10.437  41.283   7.364
 5979POPC   NC375467   8.214  20.570   5.564
 5979POPC   PO475468   8.156  20.566   5.864
 5979POPC   GL175469   8.232  20.628   6.164
 5979POPC   GL275470   8.095  20.687   6.164
 5979POPC   C1A75471   8.239  20.644   6.464
 5979POPC   D2A75472   8.230  20.573   6.764
 5979POPC   C3A75473   8.214  20.593   7.064
 5979POPC   C4A75474   8.214  20.626   7.364
 5979POPC   C1B75475   8.044  20.774   6.464
 5979POPC   C2B75476   7.984  20.786   6.764
 5979POPC   C3B75477   7.980  20.771   7.064
 5979POPC   C4B75478   8.005  20.738   7.364
 5980POPC   NC375479   1.250  14.386   5.564
 5980POPC   PO475480   1.180  14.366   5.864
 5980POPC   GL175481   1.180  14.368   6.164
 5980POPC   GL275482   1.215  14.307   6.164
 5980POPC   C1A75483   1.224  14.359   6.464
 5980POPC   D2A75484   1.223  14.393   6.764
 5980POPC   C3A75485   1.192  14.453   7.064
 5980POPC   C4A75486   1.202  14.354   7.364
 5980POPC   C1B75487   1.130  14.138   6.464
 5980POPC   C2B75488   1.147  14.194   6.764
 5980POPC   C3B75489   1.193  14.111   7.064
 5980POPC   C4B75490   1.151  14.125   7.364
 5981POPC   NC375491  37.700  16.724   5.564
 5981POPC   PO475492  37.652  16.727   5.864
 5981POPC   GL175493  37.644  16.708   6.164
 5981POPC   GL275494  37.568  16.631   6.164
 5981POPC   C1A75495  37.633  16.709   6.464
 5981POPC   D2A75496  37.684  16.694   6.764
 5981POPC   C3A75497  37.679  16.691   7.064
 5981POPC   C4A75498  37.689  16.725   7.364
 5981POPC   C1B75499  37.488  16.594   6.464
 5981POPC   C2B75500  37.460  16.650   6.764
 5981POPC   C3B75501  37.454  16.646   7.064
 5981POPC   C4B75502  37.423  16.609   7.364
 5982POPC   NC375503  15.155   8.998   5.564
 5982POPC   PO475504  15.206   9.001   5.864
 5982POPC   GL175505  15.179   9.012   6.164
 5982POPC   GL275506  15.075   8.884   6.164
 5982POPC   C1A75507  15.214   9.021   6.464
 5982POPC   D2A75508  15.184   8.980   6.764
 5982POPC   C3A75509  15.197   8.984   7.064
 5982POPC   C4A75510  15.198   8.944   7.364
 5982POPC   C1B75511  15.002   8.784   6.464
 5982POPC   C2B75512  15.082   8.811   6.764
 5982POPC   C3B75513  15.062   8.772   7.064
 5982POPC   C4B75514  15.069   8.754   7.364
 5983POPC   NC375515  40.809  12.861   5.564
 5983POPC   PO475516  40.801  12.834   5.864
 5983POPC   GL175517  40.770  12.807   6.164
 5983POPC   GL275518  40.661  12.920   6.164
 5983POPC   C1A75519  40.747  12.818   6.464
 5983POPC   D2A75520  40.827  12.827   6.764
 5983POPC   C3A75521  40.748  12.881   7.064
 5983POPC   C4A75522  40.734  12.833   7.364
 5983POPC   C1B75523  40.489  12.947   6.464
 5983POPC   C2B75524  40.574  12.919   6.764
 5983POPC   C3B75525  40.517  12.916   7.064
 5983POPC   C4B75526  40.570  12.906   7.364
 5984POPC   NC375527  37.657  11.278   5.564
 5984POPC   PO475528  37.724  11.303   5.864
 5984POPC   GL175529  37.720  11.349   6.164
 5984POPC   GL275530  37.528  11.352   6.164
 5984POPC   C1A75531  37.655  11.312   6.464
 5984POPC   D2A75532  37.681  11.294   6.764
 5984POPC   C3A75533  37.681  11.327   7.064
 5984POPC   C4A75534  37.708  11.264   7.364
 5984POPC   C1B75535  37.450  11.358   6.464
 5984POPC   C2B75536  37.393  11.280   6.764
 5984POPC   C3B75537  37.413  11.321   7.064
 5984POPC   C4B75538  37.388  11.362   7.364
 5985POPC   NC375539  38.428  20.619   5.564
 5985POPC   PO475540  38.475  20.637   5.864
 5985POPC   GL175541  38.428  20.647   6.164
 5985POPC   GL275542  38.421  20.481   6.164
 5985POPC   C1A75543  38.502  20.639   6.464
 5985POPC   D2A75544  38.473  20.630   6.764
 5985POPC   C3A75545  38.505  20.578   7.064
 5985POPC   C4A75546  38.504  20.576   7.364
 5985POPC   C1B75547  38.375  20.353   6.464
 5985POPC   C2B75548  38.281  20.371   6.764
 5985POPC   C3B75549  38.287  20.441   7.064
 5985POPC   C4B75550  38.355  20.435   7.364
 5986POPC   NC375551  23.749  42.341   5.564
 5986POPC   PO475552  23.700  42.373   5.864
 5986POPC   GL175553  23.703  42.371   6.164
 5986POPC   GL275554  23.807  42.309   6.164
 5986POPC   C1A75555  23.722  42.354   6.464
 5986POPC   D2A75556  23.722  42.354   6.764
 5986POPC   C3A75557  23.665  42.381   7.064
 5986POPC   C4A75558  23.677  42.313   7.364
 5986POPC   C1B75559  23.916  42.299   6.464
 5986POPC   C2B75560  23.938  42.220   6.764
 5986POPC   C3B75561  23.920  42.294   7.064
 5986POPC   C4B75562  23.988  42.275   7.364
 5987POPC   NC375563  44.704  36.860   5.564
 5987POPC   PO475564  44.614  36.950   5.864
 5987POPC   GL175565  44.704  36.902   6.164
 5987POPC   GL275566  44.683  37.051   6.164
 5987POPC   C1A75567  44.672  36.860   6.464
 5987POPC   D2A75568  44.678  36.868   6.764
 5987POPC   C3A75569  44.623  36.915   7.064
 5987POPC   C4A75570  44.648  36.882   7.364
 5987POPC   C1B75571  44.632  37.188   6.464
 5987POPC   C2B75572  44.689  37.106   6.764
 5987POPC   C3B75573  44.654  37.183   7.064
 5987POPC   C4B75574  44.647  37.193   7.364
 5988POPC   NC375575  10.504  29.130   5.564
 5988POPC   PO475576  10.504  29.125   5.864
 5988POPC   GL175577  10.551  29.181   6.164
 5988POPC   GL275578  10.688  29.130   6.164
 5988POPC   C1A75579  10.562  29.124   6.464
 5988POPC   D2A75580  10.509  29.150   6.764
 5988POPC   C3A75581  10.514  29.113   7.064
 5988POPC   C4A75582  10.540  29.115   7.364
 5988POPC   C1B75583  10.766  29.169   6.464
 5988POPC   C2B75584  10.747  29.136   6.764
 5988POPC   C3B75585  10.763  29.072   7.064
 5988POPC   C4B75586  10.772  29.070   7.364
 5989POPC   NC375587  17.496   6.624   5.564
 5989POPC   PO475588  17.495   6.639   5.864
 5989POPC   GL175589  17.521   6.607   6.164
 5989POPC   GL275590  17.647   6.584   6.164
 5989POPC   C1A75591  17.505   6.669   6.464
 5989POPC   D2A75592  17.546   6.608   6.764
 5989POPC   C3A75593  17.537   6.658   7.064
 5989POPC   C4A75594  17.551   6.681   7.364
 5989POPC   C1B75595  17.751   6.598   6.464
 5989POPC   C2B75596  17.783   6.575   6.764
 5989POPC   C3B75597  17.712   6.624   7.064
 5989POPC   C4B75598  17.788   6.618   7.364
 5990POPC   NC375599  43.843  37.633   5.564
 5990POPC   PO475600  43.890  37.717   5.864
 5990POPC   GL175601  43.932  37.649   6.164
 5990POPC   GL275602  43.837  37.761   6.164
 5990POPC   C1A75603  43.929  37.646   6.464
 5990POPC   D2A75604  43.911  37.728   6.764
 5990POPC   C3A75605  43.901  37.675   7.064
 5990POPC   C4A75606  43.926  37.719   7.364
 5990POPC   C1B75607  43.843  37.925   6.464
 5990POPC   C2B75608  43.809  37.931   6.764
 5990POPC   C3B75609  43.850  37.925   7.064
 5990POPC   C4B75610  43.811  37.894   7.364
 5991POPC   NC375611   5.047  44.651   5.564
 5991POPC   PO475612   5.136  44.645   5.864
 5991POPC   GL175613   5.107  44.644   6.164
 5991POPC   GL275614   5.216  44.770   6.164
 5991POPC   C1A75615   5.046  44.625   6.464
 5991POPC   D2A75616   5.097  44.670   6.764
 5991POPC   C3A75617   5.116  44.657   7.064
 5991POPC   C4A75618   5.087  44.697   7.364
 5991POPC   C1B75619   5.274  44.881   6.464
 5991POPC   C2B75620   5.218  44.872   6.764
 5991POPC   C3B75621   5.216  44.887   7.064
 5991POPC   C4B75622   5.221  44.867   7.364
 5992POPC   NC375623   1.945  39.198   5.564
 5992POPC   PO475624   1.986  39.271   5.864
 5992POPC   GL175625   2.019  39.219   6.164
 5992POPC   GL275626   2.041  39.082   6.164
 5992POPC   C1A75627   2.024  39.210   6.464
 5992POPC   D2A75628   2.002  39.252   6.764
 5992POPC   C3A75629   1.983  39.270   7.064
 5992POPC   C4A75630   2.022  39.272   7.364
 5992POPC   C1B75631   2.086  39.045   6.464
 5992POPC   C2B75632   2.126  39.020   6.764
 5992POPC   C3B75633   2.098  39.038   7.064
 5992POPC   C4B75634   2.138  38.996   7.364
 5993POPC   NC375635  20.607  17.491   5.564
 5993POPC   PO475636  20.641  17.555   5.864
 5993POPC   GL175637  20.573  17.460   6.164
 5993POPC   GL275638  20.777  17.507   6.164
 5993POPC   C1A75639  20.605  17.483   6.464
 5993POPC   D2A75640  20.633  17.529   6.764
 5993POPC   C3A75641  20.615  17.495   7.064
 5993POPC   C4A75642  20.598  17.529   7.364
 5993POPC   C1B75643  20.864  17.467   6.464
 5993POPC   C2B75644  20.820  17.475   6.764
 5993POPC   C3B75645  20.893  17.518   7.064
 5993POPC   C4B75646  20.891  17.533   7.364
 5994POPC   NC375647  16.732   1.208   5.564
 5994POPC   PO475648  16.684   1.197   5.864
 5994POPC   GL175649  16.711   1.229   6.164
 5994POPC   GL275650  16.740   1.140   6.164
 5994POPC   C1A75651  16.747   1.239   6.464
 5994POPC   D2A75652  16.716   1.215   6.764
 5994POPC   C3A75653  16.714   1.179   7.064
 5994POPC   C4A75654  16.698   1.183   7.364
 5994POPC   C1B75655  16.748   0.962   6.464
 5994POPC   C2B75656  16.758   0.934   6.764
 5994POPC   C3B75657  16.764   0.980   7.064
 5994POPC   C4B75658  16.765   0.935   7.364
 5995POPC   NC375659  14.386  38.456   5.564
 5995POPC   PO475660  14.355  38.454   5.864
 5995POPC   GL175661  14.452  38.430   6.164
 5995POPC   GL275662  14.314  38.410   6.164
 5995POPC   C1A75663  14.413  38.471   6.464
 5995POPC   D2A75664  14.441  38.490   6.764
 5995POPC   C3A75665  14.362  38.487   7.064
 5995POPC   C4A75666  14.413  38.436   7.364
 5995POPC   C1B75667  14.265  38.267   6.464
 5995POPC   C2B75668  14.244  38.278   6.764
 5995POPC   C3B75669  14.199  38.316   7.064
 5995POPC   C4B75670  14.260  38.276   7.364
 5996POPC   NC375671   4.293  38.437   5.564
 5996POPC   PO475672   4.354  38.484   5.864
 5996POPC   GL175673   4.305  38.462   6.164
 5996POPC   GL275674   4.241  38.514   6.164
 5996POPC   C1A75675   4.273  38.485   6.464
 5996POPC   D2A75676   4.333  38.417   6.764
 5996POPC   C3A75677   4.304  38.442   7.064
 5996POPC   C4A75678   4.335  38.482   7.364
 5996POPC   C1B75679   4.183  38.613   6.464
 5996POPC   C2B75680   4.201  38.680   6.764
 5996POPC   C3B75681   4.164  38.676   7.064
 5996POPC   C4B75682   4.191  38.623   7.364
 5997POPC   NC375683  19.826   5.073   5.564
 5997POPC   PO475684  19.801   5.058   5.864
 5997POPC   GL175685  19.818   5.088   6.164
 5997POPC   GL275686  19.964   5.147   6.164
 5997POPC   C1A75687  19.798   5.044   6.464
 5997POPC   D2A75688  19.824   5.111   6.764
 5997POPC   C3A75689  19.844   5.123   7.064
 5997POPC   C4A75690  19.823   5.045   7.364
 5997POPC   C1B75691  20.069   5.111   6.464
 5997POPC   C2B75692  20.077   5.119   6.764
 5997POPC   C3B75693  20.037   5.185   7.064
 5997POPC   C4B75694  20.084   5.142   7.364
 5998POPC   NC375695  40.748  42.374   5.564
 5998POPC   PO475696  40.749  42.292   5.864
 5998POPC   GL175697  40.776  42.314   6.164
 5998POPC   GL275698  40.627  42.373   6.164
 5998POPC   C1A75699  40.806  42.369   6.464
 5998POPC   D2A75700  40.758  42.312   6.764
 5998POPC   C3A75701  40.744  42.366   7.064
 5998POPC   C4A75702  40.811  42.373   7.364
 5998POPC   C1B75703  40.525  42.483   6.464
 5998POPC   C2B75704  40.554  42.447   6.764
 5998POPC   C3B75705  40.571  42.430   7.064
 5998POPC   C4B75706  40.518  42.490   7.364
 5999POPC   NC375707   4.333   5.894   5.564
 5999POPC   PO475708   4.294   5.835   5.864
 5999POPC   GL175709   4.324   5.886   6.164
 5999POPC   GL275710   4.341   5.716   6.164
 5999POPC   C1A75711   4.307   5.864   6.464
 5999POPC   D2A75712   4.348   5.861   6.764
 5999POPC   C3A75713   4.313   5.838   7.064
 5999POPC   C4A75714   4.289   5.919   7.364
 5999POPC   C1B75715   4.369   5.616   6.464
 5999POPC   C2B75716   4.337   5.581   6.764
 5999POPC   C3B75717   4.350   5.616   7.064
 5999POPC   C4B75718   4.358   5.590   7.364
 6000POPC   NC375719  13.655  28.386   5.564
 6000POPC   PO475720  13.676  28.380   5.864
 6000POPC   GL175721  13.665  28.383   6.164
 6000POPC   GL275722  13.485  28.293   6.164
 6000POPC   C1A75723  13.579  28.332   6.464
 6000POPC   D2A75724  13.663  28.331   6.764
 6000POPC   C3A75725  13.583  28.349   7.064
 6000POPC   C4A75726  13.594  28.387   7.364
 6000POPC   C1B75727  13.410  28.271   6.464
 6000POPC   C2B75728  13.436  28.285   6.764
 6000POPC   C3B75729  13.380  28.206   7.064
 6000POPC   C4B75730  13.378  28.248   7.364
 6001POPC   NC375731  29.132  27.588   5.564
 6001POPC   PO475732  29.150  27.595   5.864
 6001POPC   GL175733  29.122  27.590   6.164
 6001POPC   GL275734  29.060  27.664   6.164
 6001POPC   C1A75735  29.113  27.575   6.464
 6001POPC   D2A75736  29.186  27.558   6.764
 6001POPC   C3A75737  29.130  27.596   7.064
 6001POPC   C4A75738  29.192  27.578   7.364
 6001POPC   C1B75739  28.953  27.724   6.464
 6001POPC   C2B75740  28.893  27.716   6.764
 6001POPC   C3B75741  28.893  27.655   7.064
 6001POPC   C4B75742  28.877  27.656   7.364
 6002POPC   NC375743   3.581  19.051   5.564
 6002POPC   PO475744   3.549  19.108   5.864
 6002POPC   GL175745   3.566  19.088   6.164
 6002POPC   GL275746   3.641  18.949   6.164
 6002POPC   C1A75747   3.553  19.104   6.464
 6002POPC   D2A75748   3.539  19.091   6.764
 6002POPC   C3A75749   3.545  19.101   7.064
 6002POPC   C4A75750   3.545  19.081   7.364
 6002POPC   C1B75751   3.645  18.822   6.464
 6002POPC   C2B75752   3.662  18.871   6.764
 6002POPC   C3B75753   3.732  18.849   7.064
 6002POPC   C4B75754   3.675  18.884   7.364
 6003POPC   NC375755  41.585  34.618   5.564
 6003POPC   PO475756  41.542  34.552   5.864
 6003POPC   GL175757  41.529  34.545   6.164
 6003POPC   GL275758  41.450  34.564   6.164
 6003POPC   C1A75759  41.526  34.602   6.464
 6003POPC   D2A75760  41.570  34.601   6.764
 6003POPC   C3A75761  41.579  34.610   7.064
 6003POPC   C4A75762  41.567  34.540   7.364
 6003POPC   C1B75763  41.342  34.557   6.464
 6003POPC   C2B75764  41.345  34.550   6.764
 6003POPC   C3B75765  41.334  34.524   7.064
 6003POPC   C4B75766  41.341  34.588   7.364
 6004POPC   NC375767  39.237  41.537   5.564
 6004POPC   PO475768  39.270  41.574   5.864
 6004POPC   GL175769  39.217  41.594   6.164
 6004POPC   GL275770  39.401  41.564   6.164
 6004POPC   C1A75771  39.194  41.593   6.464
 6004POPC   D2A75772  39.248  41.564   6.764
 6004POPC   C3A75773  39.209  41.605   7.064
 6004POPC   C4A75774  39.269  41.597   7.364
 6004POPC   C1B75775  39.455  41.632   6.464
 6004POPC   C2B75776  39.510  41.627   6.764
 6004POPC   C3B75777  39.464  41.618   7.064
 6004POPC   C4B75778  39.465  41.653   7.364
 6005POPC   NC375779   9.787  30.697   5.564
 6005POPC   PO475780   9.728  30.717   5.864
 6005POPC   GL175781   9.764  30.663   6.164
 6005POPC   GL275782   9.819  30.525   6.164
 6005POPC   C1A75783   9.794  30.667   6.464
 6005POPC   D2A75784   9.794  30.721   6.764
 6005POPC   C3A75785   9.704  30.672   7.064
 6005POPC   C4A75786   9.723  30.707   7.364
 6005POPC   C1B75787   9.800  30.454   6.464
 6005POPC   C2B75788   9.833  30.473   6.764
 6005POPC   C3B75789   9.760  30.495   7.064
 6005POPC   C4B75790   9.791  30.439   7.364
 6006POPC   NC375791  25.224  26.062   5.564
 6006POPC   PO475792  25.315  26.013   5.864
 6006POPC   GL175793  25.258  26.005   6.164
 6006POPC   GL275794  25.308  26.133   6.164
 6006POPC   C1A75795  25.285  26.034   6.464
 6006POPC   D2A75796  25.295  26.010   6.764
 6006POPC   C3A75797  25.240  26.078   7.064
 6006POPC   C4A75798  25.286  25.996   7.364
 6006POPC   C1B75799  25.220  26.332   6.464
 6006POPC   C2B75800  25.248  26.275   6.764
 6006POPC   C3B75801  25.292  26.308   7.064
 6006POPC   C4B75802  25.269  26.304   7.364
 6007POPC   NC375803  41.538  43.845   5.564
 6007POPC   PO475804  41.533  43.846   5.864
 6007POPC   GL175805  41.564  43.929   6.164
 6007POPC   GL275806  41.579  43.775   6.164
 6007POPC   C1A75807  41.571  43.932   6.464
 6007POPC   D2A75808  41.581  43.893   6.764
 6007POPC   C3A75809  41.525  43.862   7.064
 6007POPC   C4A75810  41.576  43.912   7.364
 6007POPC   C1B75811  41.491  43.638   6.464
 6007POPC   C2B75812  41.507  43.667   6.764
 6007POPC   C3B75813  41.506  43.658   7.064
 6007POPC   C4B75814  41.543  43.618   7.364
 6008POPC   NC375815  27.564   5.843   5.564
 6008POPC   PO475816  27.567   5.899   5.864
 6008POPC   GL175817  27.616   5.887   6.164
 6008POPC   GL275818  27.504   5.878   6.164
 6008POPC   C1A75819  27.595   5.862   6.464
 6008POPC   D2A75820  27.636   5.872   6.764
 6008POPC   C3A75821  27.552   5.906   7.064
 6008POPC   C4A75822  27.619   5.821   7.364
 6008POPC   C1B75823  27.368   5.931   6.464
 6008POPC   C2B75824  27.337   5.946   6.764
 6008POPC   C3B75825  27.355   5.915   7.064
 6008POPC   C4B75826  27.378   5.921   7.364
 6009POPC   NC375827  15.204  40.793   5.564
 6009POPC   PO475828  15.193  40.801   5.864
 6009POPC   GL175829  15.153  40.734   6.164
 6009POPC   GL275830  15.259  40.734   6.164
 6009POPC   C1A75831  15.182  40.831   6.464
 6009POPC   D2A75832  15.197  40.817   6.764
 6009POPC   C3A75833  15.185  40.756   7.064
 6009POPC   C4A75834  15.176  40.768   7.364
 6009POPC   C1B75835  15.388  40.759   6.464
 6009POPC   C2B75836  15.446  40.766   6.764
 6009POPC   C3B75837  15.459  40.787   7.064
 6009POPC   C4B75838  15.435  40.720   7.364
 6010POPC   NC375839  14.370  35.322   5.564
 6010POPC   PO475840  14.412  35.305   5.864
 6010POPC   GL175841  14.396  35.395   6.164
 6010POPC   GL275842  14.273  35.323   6.164
 6010POPC   C1A75843  14.410  35.381   6.464
 6010POPC   D2A75844  14.378  35.387   6.764
 6010POPC   C3A75845  14.444  35.318   7.064
 6010POPC   C4A75846  14.410  35.305   7.364
 6010POPC   C1B75847  14.166  35.414   6.464
 6010POPC   C2B75848  14.118  35.418   6.764
 6010POPC   C3B75849  14.164  35.417   7.064
 6010POPC   C4B75850  14.126  35.349   7.364
 6011POPC   NC375851  21.337  40.034   5.564
 6011POPC   PO475852  21.352  39.964   5.864
 6011POPC   GL175853  21.415  39.998   6.164
 6011POPC   GL275854  21.450  39.915   6.164
 6011POPC   C1A75855  21.388  39.977   6.464
 6011POPC   D2A75856  21.358  40.018   6.764
 6011POPC   C3A75857  21.404  39.991   7.064
 6011POPC   C4A75858  21.385  40.020   7.364
 6011POPC   C1B75859  21.492  39.793   6.464
 6011POPC   C2B75860  21.480  39.736   6.764
 6011POPC   C3B75861  21.497  39.757   7.064
 6011POPC   C4B75862  21.463  39.801   7.364
 6012POPC   NC375863  28.369  35.397   5.564
 6012POPC   PO475864  28.321  35.399   5.864
 6012POPC   GL175865  28.340  35.365   6.164
 6012POPC   GL275866  28.337  35.267   6.164
 6012POPC   C1A75867  28.378  35.302   6.464
 6012POPC   D2A75868  28.347  35.331   6.764
 6012POPC   C3A75869  28.403  35.356   7.064
 6012POPC   C4A75870  28.340  35.319   7.364
 6012POPC   C1B75871  28.258  35.161   6.464
 6012POPC   C2B75872  28.243  35.113   6.764
 6012POPC   C3B75873  28.220  35.132   7.064
 6012POPC   C4B75874  28.260  35.195   7.364
 6013POPC   NC375875  12.814  15.916   5.564
 6013POPC   PO475876  12.865  15.939   5.864
 6013POPC   GL175877  12.815  15.988   6.164
 6013POPC   GL275878  12.714  16.008   6.164
 6013POPC   C1A75879  12.881  15.978   6.464
 6013POPC   D2A75880  12.865  15.967   6.764
 6013POPC   C3A75881  12.808  15.982   7.064
 6013POPC   C4A75882  12.804  15.997   7.364
 6013POPC   C1B75883  12.696  16.087   6.464
 6013POPC   C2B75884  12.638  16.101   6.764
 6013POPC   C3B75885  12.620  16.071   7.064
 6013POPC   C4B75886  12.630  16.120   7.364
 6014POPC   NC375887  26.800  18.313   5.564
 6014POPC   PO475888  26.825  18.272   5.864
 6014POPC   GL175889  26.778  18.288   6.164
 6014POPC   GL275890  26.908  18.363   6.164
 6014POPC   C1A75891  26.803  18.241   6.464
 6014POPC   D2A75892  26.796  18.308   6.764
 6014POPC   C3A75893  26.790  18.327   7.064
 6014POPC   C4A75894  26.822  18.297   7.364
 6014POPC   C1B75895  26.972  18.485   6.464
 6014POPC   C2B75896  27.002  18.428   6.764
 6014POPC   C3B75897  26.958  18.437   7.064
 6014POPC   C4B75898  26.981  18.449   7.364
 6015POPC   NC375899  20.646  15.174   5.564
 6015POPC   PO475900  20.581  15.157   5.864
 6015POPC   GL175901  20.633  15.207   6.164
 6015POPC   GL275902  20.647  15.324   6.164
 6015POPC   C1A75903  20.626  15.138   6.464
 6015POPC   D2A75904  20.619  15.190   6.764
 6015POPC   C3A75905  20.618  15.164   7.064
 6015POPC   C4A75906  20.626  15.160   7.364
 6015POPC   C1B75907  20.614  15.472   6.464
 6015POPC   C2B75908  20.586  15.383   6.764
 6015POPC   C3B75909  20.616  15.398   7.064
 6015POPC   C4B75910  20.636  15.421   7.364
 6016POPC   NC375911  39.204  25.255   5.564
 6016POPC   PO475912  39.257  25.216   5.864
 6016POPC   GL175913  39.195  25.224   6.164
 6016POPC   GL275914  39.131  25.325   6.164
 6016POPC   C1A75915  39.275  25.297   6.464
 6016POPC   D2A75916  39.221  25.311   6.764
 6016POPC   C3A75917  39.225  25.231   7.064
 6016POPC   C4A75918  39.257  25.236   7.364
 6016POPC   C1B75919  38.971  25.346   6.464
 6016POPC   C2B75920  39.002  25.377   6.764
 6016POPC   C3B75921  39.028  25.341   7.064
 6016POPC   C4B75922  38.958  25.311   7.364
 6017POPC   NC375923  21.392  18.253   5.564
 6017POPC   PO475924  21.338  18.298   5.864
 6017POPC   GL175925  21.345  18.289   6.164
 6017POPC   GL275926  21.475  18.321   6.164
 6017POPC   C1A75927  21.403  18.328   6.464
 6017POPC   D2A75928  21.362  18.304   6.764
 6017POPC   C3A75929  21.389  18.238   7.064
 6017POPC   C4A75930  21.340  18.241   7.364
 6017POPC   C1B75931  21.646  18.402   6.464
 6017POPC   C2B75932  21.568  18.377   6.764
 6017POPC   C3B75933  21.564  18.434   7.064
 6017POPC   C4B75934  21.565  18.436   7.364
 6018POPC   NC375935   7.423   7.437   5.564
 6018POPC   PO475936   7.464   7.456   5.864
 6018POPC   GL175937   7.469   7.393   6.164
 6018POPC   GL275938   7.449   7.348   6.164
 6018POPC   C1A75939   7.415   7.437   6.464
 6018POPC   D2A75940   7.452   7.446   6.764
 6018POPC   C3A75941   7.377   7.417   7.064
 6018POPC   C4A75942   7.379   7.463   7.364
 6018POPC   C1B75943   7.463   7.161   6.464
 6018POPC   C2B75944   7.510   7.184   6.764
 6018POPC   C3B75945   7.516   7.145   7.064
 6018POPC   C4B75946   7.517   7.149   7.364
 6019POPC   NC375947  25.289  15.160   5.564
 6019POPC   PO475948  25.271  15.185   5.864
 6019POPC   GL175949  25.260  15.200   6.164
 6019POPC   GL275950  25.159  15.116   6.164
 6019POPC   C1A75951  25.284  15.156   6.464
 6019POPC   D2A75952  25.236  15.149   6.764
 6019POPC   C3A75953  25.276  15.135   7.064
 6019POPC   C4A75954  25.310  15.172   7.364
 6019POPC   C1B75955  25.016  15.138   6.464
 6019POPC   C2B75956  24.997  15.093   6.764
 6019POPC   C3B75957  25.060  15.152   7.064
 6019POPC   C4B75958  25.004  15.089   7.364
 6020POPC   NC375959  37.630  23.724   5.564
 6020POPC   PO475960  37.708  23.710   5.864
 6020POPC   GL175961  37.667  23.701   6.164
 6020POPC   GL275962  37.601  23.626   6.164
 6020POPC   C1A75963  37.695  23.711   6.464
 6020POPC   D2A75964  37.662  23.714   6.764
 6020POPC   C3A75965  37.640  23.697   7.064
 6020POPC   C4A75966  37.668  23.716   7.364
 6020POPC   C1B75967  37.473  23.616   6.464
 6020POPC   C2B75968  37.438  23.537   6.764
 6020POPC   C3B75969  37.447  23.573   7.064
 6020POPC   C4B75970  37.520  23.568   7.364
 6021POPC   NC375971  36.903  40.827   5.564
 6021POPC   PO475972  36.870  40.791   5.864
 6021POPC   GL175973  36.881  40.756   6.164
 6021POPC   GL275974  36.954  40.630   6.164
 6021POPC   C1A75975  36.903  40.832   6.464
 6021POPC   D2A75976  36.911  40.769   6.764
 6021POPC   C3A75977  36.941  40.750   7.064
 6021POPC   C4A75978  36.929  40.817   7.364
 6021POPC   C1B75979  37.006  40.540   6.464
 6021POPC   C2B75980  37.034  40.513   6.764
 6021POPC   C3B75981  37.043  40.514   7.064
 6021POPC   C4B75982  37.006  40.569   7.364
 6022POPC   NC375983  19.038   1.259   5.564
 6022POPC   PO475984  19.017   1.240   5.864
 6022POPC   GL175985  19.010   1.194   6.164
 6022POPC   GL275986  18.916   1.148   6.164
 6022POPC   C1A75987  19.069   1.189   6.464
 6022POPC   D2A75988  19.087   1.196   6.764
 6022POPC   C3A75989  19.077   1.233   7.064
 6022POPC   C4A75990  19.033   1.207   7.364
 6022POPC   C1B75991  18.842   1.164   6.464
 6022POPC   C2B75992  18.800   1.105   6.764
 6022POPC   C3B75993  18.843   1.118   7.064
 6022POPC   C4B75994  18.848   1.113   7.364
 6023POPC   NC375995   7.458  16.698   5.564
 6023POPC   PO475996   7.375  16.683   5.864
 6023POPC   GL175997   7.435  16.735   6.164
 6023POPC   GL275998   7.326  16.703   6.164
 6023POPC   C1A75999   7.406  16.687   6.464
 6023POPC   D2A76000   7.411  16.719   6.764
 6023POPC   C3A76001   7.461  16.741   7.064
 6023POPC   C4A76002   7.416  16.708   7.364
 6023POPC   C1B76003   7.154  16.607   6.464
 6023POPC   C2B76004   7.160  16.636   6.764
 6023POPC   C3B76005   7.252  16.571   7.064
 6023POPC   C4B76006   7.229  16.640   7.364
 6024POPC   NC376007  23.725   9.002   5.564
 6024POPC   PO476008  23.687   8.930   5.864
 6024POPC   GL176009  23.694   8.993   6.164
 6024POPC   GL276010  23.725   8.860   6.164
 6024POPC   C1A76011  23.693   8.957   6.464
 6024POPC   D2A76012  23.751   8.971   6.764
 6024POPC   C3A76013  23.750   8.979   7.064
 6024POPC   C4A76014  23.753   8.949   7.364
 6024POPC   C1B76015  23.761   8.703   6.464
 6024POPC   C2B76016  23.812   8.759   6.764
 6024POPC   C3B76017  23.752   8.713   7.064
 6024POPC   C4B76018  23.817   8.753   7.364
 6025POPC   NC376019  31.440  42.290   5.564
 6025POPC   PO476020  31.507  42.318   5.864
 6025POPC   GL176021  31.465  42.335   6.164
 6025POPC   GL276022  31.461  42.218   6.164
 6025POPC   C1A76023  31.479  42.296   6.464
 6025POPC   D2A76024  31.450  42.290   6.764
 6025POPC   C3A76025  31.510  42.316   7.064
 6025POPC   C4A76026  31.508  42.384   7.364
 6025POPC   C1B76027  31.335  42.122   6.464
 6025POPC   C2B76028  31.359  42.100   6.764
 6025POPC   C3B76029  31.337  42.074   7.064
 6025POPC   C4B76030  31.407  42.100   7.364
 6026POPC   NC376031  29.885  35.340   5.564
 6026POPC   PO476032  29.949  35.365   5.864
 6026POPC   GL176033  29.966  35.383   6.164
 6026POPC   GL276034  29.879  35.447   6.164
 6026POPC   C1A76035  29.956  35.367   6.464
 6026POPC   D2A76036  29.907  35.389   6.764
 6026POPC   C3A76037  29.882  35.359   7.064
 6026POPC   C4A76038  29.964  35.306   7.364
 6026POPC   C1B76039  29.962  35.611   6.464
 6026POPC   C2B76040  29.905  35.586   6.764
 6026POPC   C3B76041  29.866  35.629   7.064
 6026POPC   C4B76042  29.886  35.563   7.364
 6027POPC   NC376043  33.817  43.886   5.564
 6027POPC   PO476044  33.820  43.878   5.864
 6027POPC   GL176045  33.821  43.921   6.164
 6027POPC   GL276046  33.652  43.881   6.164
 6027POPC   C1A76047  33.829  43.846   6.464
 6027POPC   D2A76048  33.756  43.894   6.764
 6027POPC   C3A76049  33.803  43.855   7.064
 6027POPC   C4A76050  33.838  43.881   7.364
 6027POPC   C1B76051  33.602  43.976   6.464
 6027POPC   C2B76052  33.518  44.002   6.764
 6027POPC   C3B76053  33.579  43.948   7.064
 6027POPC   C4B76054  33.558  43.998   7.364
 6028POPC   NC376055  15.178  15.220   5.564
 6028POPC   PO476056  15.164  15.223   5.864
 6028POPC   GL176057  15.229  15.178   6.164
 6028POPC   GL276058  15.185  15.044   6.164
 6028POPC   C1A76059  15.211  15.199   6.464
 6028POPC   D2A76060  15.205  15.146   6.764
 6028POPC   C3A76061  15.190  15.160   7.064
 6028POPC   C4A76062  15.177  15.194   7.364
 6028POPC   C1B76063  15.295  14.942   6.464
 6028POPC   C2B76064  15.323  14.969   6.764
 6028POPC   C3B76065  15.275  14.957   7.064
 6028POPC   C4B76066  15.280  15.002   7.364
 6029POPC   NC376067   5.890   0.417   5.564
 6029POPC   PO476068   5.913   0.474   5.864
 6029POPC   GL176069   5.821   0.410   6.164
 6029POPC   GL276070   5.769   0.444   6.164
 6029POPC   C1A76071   5.854   0.425   6.464
 6029POPC   D2A76072   5.910   0.475   6.764
 6029POPC   C3A76073   5.840   0.403   7.064
 6029POPC   C4A76074   5.864   0.414   7.364
 6029POPC   C1B76075   5.648   0.433   6.464
 6029POPC   C2B76076   5.666   0.454   6.764
 6029POPC   C3B76077   5.618   0.502   7.064
 6029POPC   C4B76078   5.574   0.437   7.364
 6030POPC   NC376079  12.027  19.822   5.564
 6030POPC   PO476080  12.061  19.824   5.864
 6030POPC   GL176081  12.085  19.825   6.164
 6030POPC   GL276082  12.174  19.822   6.164
 6030POPC   C1A76083  12.057  19.881   6.464
 6030POPC   D2A76084  12.085  19.858   6.764
 6030POPC   C3A76085  12.068  19.795   7.064
 6030POPC   C4A76086  12.081  19.793   7.364
 6030POPC   C1B76087  12.293  19.852   6.464
 6030POPC   C2B76088  12.346  19.786   6.764
 6030POPC   C3B76089  12.296  19.848   7.064
 6030POPC   C4B76090  12.282  19.831   7.364
 6031POPC   NC376091   0.397  23.746   5.564
 6031POPC   PO476092   0.448  23.740   5.864
 6031POPC   GL176093   0.419  23.724   6.164
 6031POPC   GL276094   0.351  23.817   6.164
 6031POPC   C1A76095   0.478  23.759   6.464
 6031POPC   D2A76096   0.423  23.751   6.764
 6031POPC   C3A76097   0.451  23.679   7.064
 6031POPC   C4A76098   0.424  23.739   7.364
 6031POPC   C1B76099   0.270  23.821   6.464
 6031POPC   C2B76100   0.220  23.820   6.764
 6031POPC   C3B76101   0.226  23.819   7.064
 6031POPC   C4B76102   0.268  23.820   7.364
 6032POPC   NC376103   7.405  42.316   5.564
 6032POPC   PO476104   7.394  42.315   5.864
 6032POPC   GL176105   7.415  42.370   6.164
 6032POPC   GL276106   7.313  42.242   6.164
 6032POPC   C1A76107   7.433  42.300   6.464
 6032POPC   D2A76108   7.428  42.320   6.764
 6032POPC   C3A76109   7.382  42.333   7.064
 6032POPC   C4A76110   7.447  42.340   7.364
 6032POPC   C1B76111   7.153  42.217   6.464
 6032POPC   C2B76112   7.175  42.184   6.764
 6032POPC   C3B76113   7.243  42.183   7.064
 6032POPC   C4B76114   7.184  42.183   7.364
 6033POPC   NC376115  20.591   7.466   5.564
 6033POPC   PO476116  20.564   7.378   5.864
 6033POPC   GL176117  20.653   7.388   6.164
 6033POPC   GL276118  20.438   7.400   6.164
 6033POPC   C1A76119  20.633   7.417   6.464
 6033POPC   D2A76120  20.644   7.428   6.764
 6033POPC   C3A76121  20.653   7.400   7.064
 6033POPC   C4A76122  20.599   7.372   7.364
 6033POPC   C1B76123  20.337   7.335   6.464
 6033POPC   C2B76124  20.322   7.381   6.764
 6033POPC   C3B76125  20.383   7.418   7.064
 6033POPC   C4B76126  20.314   7.374   7.364
 6034POPC   NC376127  22.976  40.829   5.564
 6034POPC   PO476128  22.926  40.822   5.864
 6034POPC   GL176129  22.945  40.748   6.164
 6034POPC   GL276130  22.936  40.616   6.164
 6034POPC   C1A76131  22.907  40.773   6.464
 6034POPC   D2A76132  22.956  40.782   6.764
 6034POPC   C3A76133  22.906  40.784   7.064
 6034POPC   C4A76134  22.901  40.742   7.364
 6034POPC   C1B76135  22.988  40.524   6.464
 6034POPC   C2B76136  22.944  40.555   6.764
 6034POPC   C3B76137  22.993  40.541   7.064
 6034POPC   C4B76138  22.983  40.534   7.364
 6035POPC   NC376139  27.628  15.188   5.564
 6035POPC   PO476140  27.557  15.150   5.864
 6035POPC   GL176141  27.608  15.130   6.164
 6035POPC   GL276142  27.451  15.138   6.164
 6035POPC   C1A76143  27.568  15.226   6.464
 6035POPC   D2A76144  27.579  15.193   6.764
 6035POPC   C3A76145  27.597  15.184   7.064
 6035POPC   C4A76146  27.582  15.215   7.364
 6035POPC   C1B76147  27.333  15.130   6.464
 6035POPC   C2B76148  27.316  15.076   6.764
 6035POPC   C3B76149  27.383  15.144   7.064
 6035POPC   C4B76150  27.335  15.066   7.364
 6036POPC   NC376151  26.827  43.876   5.564
 6036POPC   PO476152  26.823  43.871   5.864
 6036POPC   GL176153  26.770  43.928   6.164
 6036POPC   GL276154  26.923  43.827   6.164
 6036POPC   C1A76155  26.814  43.889   6.464
 6036POPC   D2A76156  26.810  43.861   6.764
 6036POPC   C3A76157  26.843  43.880   7.064
 6036POPC   C4A76158  26.819  43.932   7.364
 6036POPC   C1B76159  26.974  43.737   6.464
 6036POPC   C2B76160  26.975  43.710   6.764
 6036POPC   C3B76161  27.069  43.744   7.064
 6036POPC   C4B76162  26.996  43.701   7.364
 6037POPC   NC376163  36.877  39.988   5.564
 6037POPC   PO476164  36.951  39.959   5.864
 6037POPC   GL176165  36.876  39.981   6.164
 6037POPC   GL276166  36.790  39.937   6.164
 6037POPC   C1A76167  36.900  40.016   6.464
 6037POPC   D2A76168  36.869  40.030   6.764
 6037POPC   C3A76169  36.873  40.041   7.064
 6037POPC   C4A76170  36.870  40.040   7.364
 6037POPC   C1B76171  36.764  39.857   6.464
 6037POPC   C2B76172  36.727  39.768   6.764
 6037POPC   C3B76173  36.765  39.763   7.064
 6037POPC   C4B76174  36.786  39.766   7.364
 6038POPC   NC376175  30.696  33.765   5.564
 6038POPC   PO476176  30.732  33.797   5.864
 6038POPC   GL176177  30.729  33.830   6.164
 6038POPC   GL276178  30.673  33.914   6.164
 6038POPC   C1A76179  30.675  33.772   6.464
 6038POPC   D2A76180  30.709  33.800   6.764
 6038POPC   C3A76181  30.649  33.831   7.064
 6038POPC   C4A76182  30.734  33.813   7.364
 6038POPC   C1B76183  30.525  34.018   6.464
 6038POPC   C2B76184  30.549  33.966   6.764
 6038POPC   C3B76185  30.586  34.038   7.064
 6038POPC   C4B76186  30.536  33.961   7.364
 6039POPC   NC376187  25.287  28.384   5.564
 6039POPC   PO476188  25.295  28.321   5.864
 6039POPC   GL176189  25.233  28.409   6.164
 6039POPC   GL276190  25.361  28.339   6.164
 6039POPC   C1A76191  25.274  28.395   6.464
 6039POPC   D2A76192  25.226  28.330   6.764
 6039POPC   C3A76193  25.240  28.387   7.064
 6039POPC   C4A76194  25.240  28.326   7.364
 6039POPC   C1B76195  25.561  28.326   6.464
 6039POPC   C2B76196  25.553  28.417   6.764
 6039POPC   C3B76197  25.528  28.356   7.064
 6039POPC   C4B76198  25.469  28.407   7.364
 6040POPC   NC376199  20.640  32.256   5.564
 6040POPC   PO476200  20.591  32.280   5.864
 6040POPC   GL176201  20.655  32.298   6.164
 6040POPC   GL276202  20.675  32.378   6.164
 6040POPC   C1A76203  20.641  32.254   6.464
 6040POPC   D2A76204  20.650  32.296   6.764
 6040POPC   C3A76205  20.634  32.210   7.064
 6040POPC   C4A76206  20.630  32.270   7.364
 6040POPC   C1B76207  20.634  32.525   6.464
 6040POPC   C2B76208  20.634  32.532   6.764
 6040POPC   C3B76209  20.638  32.513   7.064
 6040POPC   C4B76210  20.684  32.448   7.364
 6041POPC   NC376211   8.161  21.380   5.564
 6041POPC   PO476212   8.165  21.405   5.864
 6041POPC   GL176213   8.163  21.385   6.164
 6041POPC   GL276214   8.298  21.448   6.164
 6041POPC   C1A76215   8.180  21.379   6.464
 6041POPC   D2A76216   8.159  21.375   6.764
 6041POPC   C3A76217   8.245  21.387   7.064
 6041POPC   C4A76218   8.231  21.341   7.364
 6041POPC   C1B76219   8.409  21.538   6.464
 6041POPC   C2B76220   8.397  21.555   6.764
 6041POPC   C3B76221   8.379  21.534   7.064
 6041POPC   C4B76222   8.377  21.572   7.364
 6042POPC   NC376223   8.995   5.844   5.564
 6042POPC   PO476224   8.993   5.863   5.864
 6042POPC   GL176225   8.998   5.877   6.164
 6042POPC   GL276226   9.097   5.916   6.164
 6042POPC   C1A76227   8.955   5.836   6.464
 6042POPC   D2A76228   8.941   5.889   6.764
 6042POPC   C3A76229   8.976   5.854   7.064
 6042POPC   C4A76230   8.930   5.879   7.364
 6042POPC   C1B76231   9.219   5.963   6.464
 6042POPC   C2B76232   9.161   5.981   6.764
 6042POPC   C3B76233   9.229   5.963   7.064
 6042POPC   C4B76234   9.148   6.007   7.364
 6043POPC   NC376235   1.257  29.904   5.564
 6043POPC   PO476236   1.165  29.904   5.864
 6043POPC   GL176237   1.213  29.893   6.164
 6043POPC   GL276238   1.337  30.031   6.164
 6043POPC   C1A76239   1.172  29.938   6.464
 6043POPC   D2A76240   1.175  29.899   6.764
 6043POPC   C3A76241   1.218  29.925   7.064
 6043POPC   C4A76242   1.230  29.930   7.364
 6043POPC   C1B76243   1.378  30.074   6.464
 6043POPC   C2B76244   1.453  30.058   6.764
 6043POPC   C3B76245   1.403  30.029   7.064
 6043POPC   C4B76246   1.458  30.083   7.364
 6044POPC   NC376247  13.587   1.170   5.564
 6044POPC   PO476248  13.647   1.218   5.864
 6044POPC   GL176249  13.667   1.232   6.164
 6044POPC   GL276250  13.670   1.349   6.164
 6044POPC   C1A76251  13.618   1.245   6.464
 6044POPC   D2A76252  13.669   1.183   6.764
 6044POPC   C3A76253  13.605   1.181   7.064
 6044POPC   C4A76254  13.623   1.255   7.364
 6044POPC   C1B76255  13.649   1.476   6.464
 6044POPC   C2B76256  13.596   1.490   6.764
 6044POPC   C3B76257  13.610   1.486   7.064
 6044POPC   C4B76258  13.602   1.459   7.364
 6045POPC   NC376259  36.854  17.494   5.564
 6045POPC   PO476260  36.873  17.498   5.864
 6045POPC   GL176261  36.892  17.521   6.164
 6045POPC   GL276262  36.755  17.581   6.164
 6045POPC   C1A76263  36.884  17.489   6.464
 6045POPC   D2A76264  36.952  17.475   6.764
 6045POPC   C3A76265  36.910  17.537   7.064
 6045POPC   C4A76266  36.917  17.518   7.364
 6045POPC   C1B76267  36.739  17.618   6.464
 6045POPC   C2B76268  36.705  17.619   6.764
 6045POPC   C3B76269  36.739  17.649   7.064
 6045POPC   C4B76270  36.660  17.647   7.364
 6046POPC   NC376271  16.730   2.006   5.564
 6046POPC   PO476272  16.729   1.991   5.864
 6046POPC   GL176273  16.743   1.941   6.164
 6046POPC   GL276274  16.827   2.047   6.164
 6046POPC   C1A76275  16.708   1.997   6.464
 6046POPC   D2A76276  16.682   1.991   6.764
 6046POPC   C3A76277  16.749   1.976   7.064
 6046POPC   C4A76278  16.715   1.964   7.364
 6046POPC   C1B76279  16.933   2.207   6.464
 6046POPC   C2B76280  16.908   2.173   6.764
 6046POPC   C3B76281  16.946   2.148   7.064
 6046POPC   C4B76282  16.907   2.202   7.364
 6047POPC   NC376283  21.424  21.361   5.564
 6047POPC   PO476284  21.396  21.356   5.864
 6047POPC   GL176285  21.366  21.432   6.164
 6047POPC   GL276286  21.224  21.451   6.164
 6047POPC   C1A76287  21.392  21.380   6.464
 6047POPC   D2A76288  21.394  21.422   6.764
 6047POPC   C3A76289  21.393  21.375   7.064
 6047POPC   C4A76290  21.425  21.405   7.364
 6047POPC   C1B76291  21.124  21.396   6.464
 6047POPC   C2B76292  21.176  21.415   6.764
 6047POPC   C3B76293  21.122  21.422   7.064
 6047POPC   C4B76294  21.152  21.435   7.364
 6048POPC   NC376295  39.959  36.143   5.564
 6048POPC   PO476296  39.959  36.085   5.864
 6048POPC   GL176297  40.012  36.111   6.164
 6048POPC   GL276298  40.029  35.988   6.164
 6048POPC   C1A76299  40.013  36.160   6.464
 6048POPC   D2A76300  39.967  36.172   6.764
 6048POPC   C3A76301  40.010  36.135   7.064
 6048POPC   C4A76302  40.021  36.158   7.364
 6048POPC   C1B76303  40.075  35.883   6.464
 6048POPC   C2B76304  40.131  35.857   6.764
 6048POPC   C3B76305  40.055  35.912   7.064
 6048POPC   C4B76306  40.124  35.852   7.364
 6049POPC   NC376307  33.009  32.285   5.564
 6049POPC   PO476308  33.044  32.271   5.864
 6049POPC   GL176309  33.052  32.293   6.164
 6049POPC   GL276310  33.080  32.171   6.164
 6049POPC   C1A76311  32.976  32.239   6.464
 6049POPC   D2A76312  32.980  32.213   6.764
 6049POPC   C3A76313  33.014  32.230   7.064
 6049POPC   C4A76314  33.060  32.244   7.364
 6049POPC   C1B76315  33.122  31.981   6.464
 6049POPC   C2B76316  33.099  32.001   6.764
 6049POPC   C3B76317  33.150  32.059   7.064
 6049POPC   C4B76318  33.146  31.978   7.364
 6050POPC   NC376319   6.681  38.448   5.564
 6050POPC   PO476320   6.627  38.426   5.864
 6050POPC   GL176321   6.606  38.473   6.164
 6050POPC   GL276322   6.547  38.536   6.164
 6050POPC   C1A76323   6.596  38.466   6.464
 6050POPC   D2A76324   6.598  38.456   6.764
 6050POPC   C3A76325   6.599  38.459   7.064
 6050POPC   C4A76326   6.686  38.469   7.364
 6050POPC   C1B76327   6.461  38.585   6.464
 6050POPC   C2B76328   6.479  38.610   6.764
 6050POPC   C3B76329   6.509  38.661   7.064
 6050POPC   C4B76330   6.464  38.629   7.364
 6051POPC   NC376331  24.525  19.833   5.564
 6051POPC   PO476332  24.486  19.829   5.864
 6051POPC   GL176333  24.538  19.879   6.164
 6051POPC   GL276334  24.398  19.738   6.164
 6051POPC   C1A76335  24.441  19.855   6.464
 6051POPC   D2A76336  24.476  19.854   6.764
 6051POPC   C3A76337  24.510  19.837   7.064
 6051POPC   C4A76338  24.536  19.857   7.364
 6051POPC   C1B76339  24.304  19.695   6.464
 6051POPC   C2B76340  24.258  19.754   6.764
 6051POPC   C3B76341  24.235  19.725   7.064
 6051POPC   C4B76342  24.318  19.690   7.364
 6052POPC   NC376343  33.751  33.018   5.564
 6052POPC   PO476344  33.780  32.994   5.864
 6052POPC   GL176345  33.765  32.979   6.164
 6052POPC   GL276346  33.901  33.001   6.164
 6052POPC   C1A76347  33.834  33.019   6.464
 6052POPC   D2A76348  33.833  33.019   6.764
 6052POPC   C3A76349  33.797  33.044   7.064
 6052POPC   C4A76350  33.816  33.038   7.364
 6052POPC   C1B76351  34.051  32.949   6.464
 6052POPC   C2B76352  33.994  32.950   6.764
 6052POPC   C3B76353  34.056  32.898   7.064
 6052POPC   C4B76354  34.065  32.966   7.364
 6053POPC   NC376355  43.916  25.231   5.564
 6053POPC   PO476356  43.860  25.283   5.864
 6053POPC   GL176357  43.927  25.297   6.164
 6053POPC   GL276358  44.049  25.322   6.164
 6053POPC   C1A76359  43.914  25.292   6.464
 6053POPC   D2A76360  43.920  25.220   6.764
 6053POPC   C3A76361  43.843  25.299   7.064
 6053POPC   C4A76362  43.915  25.243   7.364
 6053POPC   C1B76363  44.089  25.295   6.464
 6053POPC   C2B76364  44.099  25.322   6.764
 6053POPC   C3B76365  44.141  25.324   7.064
 6053POPC   C4B76366  44.114  25.356   7.364
 6054POPC   NC376367   5.123   2.024   5.564
 6054POPC   PO476368   5.047   1.993   5.864
 6054POPC   GL176369   5.085   2.030   6.164
 6054POPC   GL276370   5.187   2.144   6.164
 6054POPC   C1A76371   5.086   1.940   6.464
 6054POPC   D2A76372   5.108   1.992   6.764
 6054POPC   C3A76373   5.091   1.948   7.064
 6054POPC   C4A76374   5.085   2.007   7.364
 6054POPC   C1B76375   5.195   2.254   6.464
 6054POPC   C2B76376   5.208   2.270   6.764
 6054POPC   C3B76377   5.194   2.257   7.064
 6054POPC   C4B76378   5.231   2.223   7.364
 6055POPC   NC376379  38.471  17.542   5.564
 6055POPC   PO476380  38.481  17.491   5.864
 6055POPC   GL176381  38.407  17.550   6.164
 6055POPC   GL276382  38.574  17.516   6.164
 6055POPC   C1A76383  38.406  17.532   6.464
 6055POPC   D2A76384  38.428  17.467   6.764
 6055POPC   C3A76385  38.479  17.554   7.064
 6055POPC   C4A76386  38.477  17.523   7.364
 6055POPC   C1B76387  38.663  17.483   6.464
 6055POPC   C2B76388  38.733  17.462   6.764
 6055POPC   C3B76389  38.732  17.479   7.064
 6055POPC   C4B76390  38.670  17.462   7.364
 6056POPC   NC376391  18.233   6.603   5.564
 6056POPC   PO476392  18.249   6.693   5.864
 6056POPC   GL176393  18.293   6.683   6.164
 6056POPC   GL276394  18.364   6.719   6.164
 6056POPC   C1A76395  18.321   6.630   6.464
 6056POPC   D2A76396  18.262   6.684   6.764
 6056POPC   C3A76397  18.279   6.682   7.064
 6056POPC   C4A76398  18.317   6.643   7.364
 6056POPC   C1B76399  18.447   6.774   6.464
 6056POPC   C2B76400  18.474   6.814   6.764
 6056POPC   C3B76401  18.429   6.788   7.064
 6056POPC   C4B76402  18.513   6.783   7.364
 6057POPC   NC376403  17.463  20.659   5.564
 6057POPC   PO476404  17.467  20.643   5.864
 6057POPC   GL176405  17.466  20.656   6.164
 6057POPC   GL276406  17.586  20.706   6.164
 6057POPC   C1A76407  17.504  20.600   6.464
 6057POPC   D2A76408  17.508  20.587   6.764
 6057POPC   C3A76409  17.546  20.653   7.064
 6057POPC   C4A76410  17.519  20.603   7.364
 6057POPC   C1B76411  17.620  20.829   6.464
 6057POPC   C2B76412  17.662  20.838   6.764
 6057POPC   C3B76413  17.654  20.793   7.064
 6057POPC   C4B76414  17.604  20.835   7.364
 6058POPC   NC376415  43.854   8.163   5.564
 6058POPC   PO476416  43.877   8.180   5.864
 6058POPC   GL176417  43.879   8.151   6.164
 6058POPC   GL276418  43.903   8.330   6.164
 6058POPC   C1A76419  43.871   8.189   6.464
 6058POPC   D2A76420  43.901   8.194   6.764
 6058POPC   C3A76421  43.935   8.210   7.064
 6058POPC   C4A76422  43.917   8.224   7.364
 6058POPC   C1B76423  43.852   8.440   6.464
 6058POPC   C2B76424  43.872   8.473   6.764
 6058POPC   C3B76425  43.859   8.478   7.064
 6058POPC   C4B76426  43.843   8.474   7.364
 6059POPC   NC376427   8.243  35.308   5.564
 6059POPC   PO476428   8.162  35.395   5.864
 6059POPC   GL176429   8.200  35.391   6.164
 6059POPC   GL276430   8.077  35.308   6.164
 6059POPC   C1A76431   8.193  35.399   6.464
 6059POPC   D2A76432   8.186  35.351   6.764
 6059POPC   C3A76433   8.189  35.307   7.064
 6059POPC   C4A76434   8.236  35.366   7.364
 6059POPC   C1B76435   7.914  35.375   6.464
 6059POPC   C2B76436   7.935  35.371   6.764
 6059POPC   C3B76437   7.904  35.406   7.064
 6059POPC   C4B76438   7.907  35.350   7.364
 6060POPC   NC376439  18.234  23.756   5.564
 6060POPC   PO476440  18.285  23.674   5.864
 6060POPC   GL176441  18.291  23.758   6.164
 6060POPC   GL276442  18.380  23.753   6.164
 6060POPC   C1A76443  18.292  23.727   6.464
 6060POPC   D2A76444  18.268  23.684   6.764
 6060POPC   C3A76445  18.310  23.677   7.064
 6060POPC   C4A76446  18.295  23.681   7.364
 6060POPC   C1B76447  18.547  23.808   6.464
 6060POPC   C2B76448  18.533  23.720   6.764
 6060POPC   C3B76449  18.574  23.734   7.064
 6060POPC   C4B76450  18.563  23.780   7.364
 6061POPC   NC376451   5.137  21.402   5.564
 6061POPC   PO476452   5.104  21.401   5.864
 6061POPC   GL176453   5.062  21.340   6.164
 6061POPC   GL276454   5.072  21.246   6.164
 6061POPC   C1A76455   5.074  21.343   6.464
 6061POPC   D2A76456   5.071  21.423   6.764
 6061POPC   C3A76457   5.093  21.377   7.064
 6061POPC   C4A76458   5.085  21.362   7.364
 6061POPC   C1B76459   5.013  21.138   6.464
 6061POPC   C2B76460   5.031  21.188   6.764
 6061POPC   C3B76461   4.994  21.161   7.064
 6061POPC   C4B76462   4.981  21.143   7.364
 6062POPC   NC376463   9.706  41.577   5.564
 6062POPC   PO476464   9.716  41.537   5.864
 6062POPC   GL176465   9.762  41.592   6.164
 6062POPC   GL276466   9.820  41.490   6.164
 6062POPC   C1A76467   9.705  41.606   6.464
 6062POPC   D2A76468   9.717  41.520   6.764
 6062POPC   C3A76469   9.699  41.514   7.064
 6062POPC   C4A76470   9.773  41.550   7.364
 6062POPC   C1B76471   9.928  41.396   6.464
 6062POPC   C2B76472   9.929  41.371   6.764
 6062POPC   C3B76473   9.973  41.369   7.064
 6062POPC   C4B76474   9.963  41.408   7.364
 6063POPC   NC376475   6.660   2.018   5.564
 6063POPC   PO476476   6.678   1.963   5.864
 6063POPC   GL176477   6.679   2.024   6.164
 6063POPC   GL276478   6.648   1.902   6.164
 6063POPC   C1A76479   6.598   2.022   6.464
 6063POPC   D2A76480   6.668   1.991   6.764
 6063POPC   C3A76481   6.637   1.967   7.064
 6063POPC   C4A76482   6.657   1.998   7.364
 6063POPC   C1B76483   6.553   1.744   6.464
 6063POPC   C2B76484   6.594   1.745   6.764
 6063POPC   C3B76485   6.574   1.765   7.064
 6063POPC   C4B76486   6.569   1.748   7.364
 6064POPC   NC376487   7.371  29.903   5.564
 6064POPC   PO476488   7.461  29.950   5.864
 6064POPC   GL176489   7.381  29.879   6.164
 6064POPC   GL276490   7.551  29.949   6.164
 6064POPC   C1A76491   7.394  29.882   6.464
 6064POPC   D2A76492   7.388  29.956   6.764
 6064POPC   C3A76493   7.429  29.875   7.064
 6064POPC   C4A76494   7.440  29.896   7.364
 6064POPC   C1B76495   7.667  30.021   6.464
 6064POPC   C2B76496   7.671  30.016   6.764
 6064POPC   C3B76497   7.656  29.997   7.064
 6064POPC   C4B76498   7.660  30.041   7.364
 6065POPC   NC376499   1.205  22.982   5.564
 6065POPC   PO476500   1.223  22.926   5.864
 6065POPC   GL176501   1.249  22.895   6.164
 6065POPC   GL276502   1.326  22.943   6.164
 6065POPC   C1A76503   1.172  22.893   6.464
 6065POPC   D2A76504   1.200  22.905   6.764
 6065POPC   C3A76505   1.213  22.979   7.064
 6065POPC   C4A76506   1.227  22.908   7.364
 6065POPC   C1B76507   1.421  22.911   6.464
 6065POPC   C2B76508   1.454  22.940   6.764
 6065POPC   C3B76509   1.499  22.949   7.064
 6065POPC   C4B76510   1.421  22.961   7.364
 6066POPC   NC376511  19.044   6.608   5.564
 6066POPC   PO476512  19.035   6.623   5.864
 6066POPC   GL176513  19.030   6.637   6.164
 6066POPC   GL276514  19.054   6.742   6.164
 6066POPC   C1A76515  19.053   6.634   6.464
 6066POPC   D2A76516  19.064   6.642   6.764
 6066POPC   C3A76517  19.038   6.685   7.064
 6066POPC   C4A76518  19.087   6.686   7.364
 6066POPC   C1B76519  19.009   6.926   6.464
 6066POPC   C2B76520  18.993   6.858   6.764
 6066POPC   C3B76521  19.060   6.899   7.064
 6066POPC   C4B76522  19.057   6.942   7.364
 6067POPC   NC376523  12.087  20.614   5.564
 6067POPC   PO476524  12.080  20.613   5.864
 6067POPC   GL176525  12.042  20.617   6.164
 6067POPC   GL276526  11.976  20.575   6.164
 6067POPC   C1A76527  12.074  20.631   6.464
 6067POPC   D2A76528  12.092  20.621   6.764
 6067POPC   C3A76529  12.091  20.600   7.064
 6067POPC   C4A76530  12.027  20.598   7.364
 6067POPC   C1B76531  11.803  20.480   6.464
 6067POPC   C2B76532  11.815  20.549   6.764
 6067POPC   C3B76533  11.829  20.491   7.064
 6067POPC   C4B76534  11.813  20.526   7.364
 6068POPC   NC376535  32.241  28.390   5.564
 6068POPC   PO476536  32.266  28.379   5.864
 6068POPC   GL176537  32.294  28.342   6.164
 6068POPC   GL276538  32.160  28.333   6.164
 6068POPC   C1A76539  32.296  28.395   6.464
 6068POPC   D2A76540  32.246  28.345   6.764
 6068POPC   C3A76541  32.254  28.394   7.064
 6068POPC   C4A76542  32.287  28.409   7.364
 6068POPC   C1B76543  32.064  28.284   6.464
 6068POPC   C2B76544  32.066  28.273   6.764
 6068POPC   C3B76545  31.973  28.239   7.064
 6068POPC   C4B76546  32.012  28.238   7.364
 6069POPC   NC376547  19.820  35.368   5.564
 6069POPC   PO476548  19.840  35.378   5.864
 6069POPC   GL176549  19.843  35.387   6.164
 6069POPC   GL276550  19.898  35.506   6.164
 6069POPC   C1A76551  19.796  35.356   6.464
 6069POPC   D2A76552  19.816  35.330   6.764
 6069POPC   C3A76553  19.871  35.401   7.064
 6069POPC   C4A76554  19.848  35.347   7.364
 6069POPC   C1B76555  19.830  35.571   6.464
 6069POPC   C2B76556  19.874  35.618   6.764
 6069POPC   C3B76557  19.891  35.643   7.064
 6069POPC   C4B76558  19.915  35.610   7.364
 6070POPC   NC376559  29.113  14.427   5.564
 6070POPC   PO476560  29.124  14.367   5.864
 6070POPC   GL176561  29.176  14.413   6.164
 6070POPC   GL276562  29.194  14.237   6.164
 6070POPC   C1A76563  29.118  14.443   6.464
 6070POPC   D2A76564  29.172  14.357   6.764
 6070POPC   C3A76565  29.138  14.390   7.064
 6070POPC   C4A76566  29.118  14.367   7.364
 6070POPC   C1B76567  29.241  14.151   6.464
 6070POPC   C2B76568  29.182  14.148   6.764
 6070POPC   C3B76569  29.183  14.144   7.064
 6070POPC   C4B76570  29.227  14.181   7.364
 6071POPC   NC376571  39.184  36.913   5.564
 6071POPC   PO476572  39.220  36.900   5.864
 6071POPC   GL176573  39.232  36.939   6.164
 6071POPC   GL276574  39.145  36.936   6.164
 6071POPC   C1A76575  39.202  36.918   6.464
 6071POPC   D2A76576  39.197  36.865   6.764
 6071POPC   C3A76577  39.268  36.916   7.064
 6071POPC   C4A76578  39.244  36.881   7.364
 6071POPC   C1B76579  39.062  37.056   6.464
 6071POPC   C2B76580  39.031  37.051   6.764
 6071POPC   C3B76581  39.051  36.998   7.064
 6071POPC   C4B76582  39.044  37.026   7.364
 6072POPC   NC376583  39.957   1.261   5.564
 6072POPC   PO476584  40.038   1.175   5.864
 6072POPC   GL176585  39.985   1.192   6.164
 6072POPC   GL276586  39.961   1.111   6.164
 6072POPC   C1A76587  39.978   1.184   6.464
 6072POPC   D2A76588  40.035   1.182   6.764
 6072POPC   C3A76589  40.028   1.253   7.064
 6072POPC   C4A76590  40.035   1.179   7.364
 6072POPC   C1B76591  39.825   1.029   6.464
 6072POPC   C2B76592  39.806   1.015   6.764
 6072POPC   C3B76593  39.853   1.033   7.064
 6072POPC   C4B76594  39.892   1.068   7.364
 6073POPC   NC376595  34.591   5.883   5.564
 6073POPC   PO476596  34.584   5.895   5.864
 6073POPC   GL176597  34.547   5.824   6.164
 6073POPC   GL276598  34.670   5.773   6.164
 6073POPC   C1A76599  34.592   5.854   6.464
 6073POPC   D2A76600  34.549   5.907   6.764
 6073POPC   C3A76601  34.561   5.842   7.064
 6073POPC   C4A76602  34.584   5.878   7.364
 6073POPC   C1B76603  34.791   5.667   6.464
 6073POPC   C2B76604  34.797   5.724   6.764
 6073POPC   C3B76605  34.783   5.702   7.064
 6073POPC   C4B76606  34.782   5.706   7.364
 6074POPC   NC376607   7.423  10.503   5.564
 6074POPC   PO476608   7.464  10.572   5.864
 6074POPC   GL176609   7.461  10.552   6.164
 6074POPC   GL276610   7.374  10.657   6.164
 6074POPC   C1A76611   7.428  10.527   6.464
 6074POPC   D2A76612   7.388  10.491   6.764
 6074POPC   C3A76613   7.416  10.541   7.064
 6074POPC   C4A76614   7.412  10.495   7.364
 6074POPC   C1B76615   7.409  10.778   6.464
 6074POPC   C2B76616   7.448  10.809   6.764
 6074POPC   C3B76617   7.439  10.759   7.064
 6074POPC   C4B76618   7.413  10.805   7.364
 6075POPC   NC376619   0.418  39.218   5.564
 6075POPC   PO476620   0.447  39.184   5.864
 6075POPC   GL176621   0.395  39.281   6.164
 6075POPC   GL276622   0.488  39.278   6.164
 6075POPC   C1A76623   0.461  39.281   6.464
 6075POPC   D2A76624   0.388  39.247   6.764
 6075POPC   C3A76625   0.410  39.217   7.064
 6075POPC   C4A76626   0.392  39.267   7.364
 6075POPC   C1B76627   0.635  39.374   6.464
 6075POPC   C2B76628   0.663  39.434   6.764
 6075POPC   C3B76629   0.667  39.430   7.064
 6075POPC   C4B76630   0.597  39.450   7.364
 6076POPC   NC376631  43.855  18.235   5.564
 6076POPC   PO476632  43.905  18.239   5.864
 6076POPC   GL176633  43.916  18.286   6.164
 6076POPC   GL276634  43.926  18.387   6.164
 6076POPC   C1A76635  43.904  18.326   6.464
 6076POPC   D2A76636  43.914  18.285   6.764
 6076POPC   C3A76637  43.872  18.241   7.064
 6076POPC   C4A76638  43.858  18.251   7.364
 6076POPC   C1B76639  43.927  18.494   6.464
 6076POPC   C2B76640  43.948  18.506   6.764
 6076POPC   C3B76641  43.924  18.488   7.064
 6076POPC   C4B76642  43.940  18.560   7.364
 6077POPC   NC376643  29.164   5.877   5.564
 6077POPC   PO476644  29.146   5.910   5.864
 6077POPC   GL176645  29.110   5.830   6.164
 6077POPC   GL276646  29.270   5.869   6.164
 6077POPC   C1A76647  29.122   5.863   6.464
 6077POPC   D2A76648  29.136   5.864   6.764
 6077POPC   C3A76649  29.148   5.863   7.064
 6077POPC   C4A76650  29.099   5.876   7.364
 6077POPC   C1B76651  29.370   5.880   6.464
 6077POPC   C2B76652  29.408   5.919   6.764
 6077POPC   C3B76653  29.357   5.872   7.064
 6077POPC   C4B76654  29.393   5.926   7.364
 6078POPC   NC376655  27.609  41.516   5.564
 6078POPC   PO476656  27.602  41.544   5.864
 6078POPC   GL176657  27.630  41.565   6.164
 6078POPC   GL276658  27.753  41.540   6.164
 6078POPC   C1A76659  27.603  41.585   6.464
 6078POPC   D2A76660  27.614  41.560   6.764
 6078POPC   C3A76661  27.607  41.563   7.064
 6078POPC   C4A76662  27.578  41.604   7.364
 6078POPC   C1B76663  27.835  41.494   6.464
 6078POPC   C2B76664  27.818  41.552   6.764
 6078POPC   C3B76665  27.862  41.547   7.064
 6078POPC   C4B76666  27.889  41.546   7.364
 6079POPC   NC376667  34.590  17.489   5.564
 6079POPC   PO476668  34.576  17.541   5.864
 6079POPC   GL176669  34.533  17.486   6.164
 6079POPC   GL276670  34.570  17.611   6.164
 6079POPC   C1A76671  34.544  17.533   6.464
 6079POPC   D2A76672  34.603  17.553   6.764
 6079POPC   C3A76673  34.601  17.536   7.064
 6079POPC   C4A76674  34.597  17.471   7.364
 6079POPC   C1B76675  34.487  17.739   6.464
 6079POPC   C2B76676  34.464  17.771   6.764
 6079POPC   C3B76677  34.460  17.765   7.064
 6079POPC   C4B76678  34.516  17.719   7.364
 6080POPC   NC376679  41.533  29.175   5.564
 6080POPC   PO476680  41.565  29.189   5.864
 6080POPC   GL176681  41.550  29.149   6.164
 6080POPC   GL276682  41.655  29.162   6.164
 6080POPC   C1A76683  41.584  29.156   6.464
 6080POPC   D2A76684  41.594  29.151   6.764
 6080POPC   C3A76685  41.583  29.131   7.064
 6080POPC   C4A76686  41.597  29.120   7.364
 6080POPC   C1B76687  41.814  29.116   6.464
 6080POPC   C2B76688  41.772  29.132   6.764
 6080POPC   C3B76689  41.756  29.052   7.064
 6080POPC   C4B76690  41.838  29.134   7.364
 6081POPC   NC376691  12.839  37.683   5.564
 6081POPC   PO476692  12.877  37.670   5.864
 6081POPC   GL176693  12.852  37.634   6.164
 6081POPC   GL276694  12.941  37.702   6.164
 6081POPC   C1A76695  12.880  37.664   6.464
 6081POPC   D2A76696  12.882  37.707   6.764
 6081POPC   C3A76697  12.865  37.637   7.064
 6081POPC   C4A76698  12.836  37.726   7.364
 6081POPC   C1B76699  13.039  37.839   6.464
 6081POPC   C2B76700  13.073  37.785   6.764
 6081POPC   C3B76701  13.102  37.822   7.064
 6081POPC   C4B76702  13.087  37.815   7.364
 6082POPC   NC376703  40.777  21.341   5.564
 6082POPC   PO476704  40.751  21.387   5.864
 6082POPC   GL176705  40.794  21.434   6.164
 6082POPC   GL276706  40.864  21.277   6.164
 6082POPC   C1A76707  40.823  21.387   6.464
 6082POPC   D2A76708  40.762  21.352   6.764
 6082POPC   C3A76709  40.757  21.349   7.064
 6082POPC   C4A76710  40.828  21.403   7.364
 6082POPC   C1B76711  40.986  21.169   6.464
 6082POPC   C2B76712  40.994  21.193   6.764
 6082POPC   C3B76713  40.927  21.183   7.064
 6082POPC   C4B76714  40.919  21.185   7.364
 6083POPC   NC376715  29.139  35.401   5.564
 6083POPC   PO476716  29.121  35.317   5.864
 6083POPC   GL176717  29.149  35.345   6.164
 6083POPC   GL276718  29.287  35.413   6.164
 6083POPC   C1A76719  29.122  35.371   6.464
 6083POPC   D2A76720  29.110  35.369   6.764
 6083POPC   C3A76721  29.173  35.370   7.064
 6083POPC   C4A76722  29.194  35.354   7.364
 6083POPC   C1B76723  29.381  35.555   6.464
 6083POPC   C2B76724  29.295  35.496   6.764
 6083POPC   C3B76725  29.373  35.494   7.064
 6083POPC   C4B76726  29.305  35.541   7.364
 6084POPC   NC376727  22.117  13.602   5.564
 6084POPC   PO476728  22.134  13.600   5.864
 6084POPC   GL176729  22.166  13.629   6.164
 6084POPC   GL276730  22.258  13.731   6.164
 6084POPC   C1A76731  22.184  13.598   6.464
 6084POPC   D2A76732  22.175  13.585   6.764
 6084POPC   C3A76733  22.207  13.633   7.064
 6084POPC   C4A76734  22.163  13.585   7.364
 6084POPC   C1B76735  22.376  13.795   6.464
 6084POPC   C2B76736  22.379  13.744   6.764
 6084POPC   C3B76737  22.342  13.750   7.064
 6084POPC   C4B76738  22.363  13.829   7.364
 6085POPC   NC376739  15.201  22.155   5.564
 6085POPC   PO476740  15.165  22.183   5.864
 6085POPC   GL176741  15.188  22.171   6.164
 6085POPC   GL276742  15.287  22.160   6.164
 6085POPC   C1A76743  15.136  22.114   6.464
 6085POPC   D2A76744  15.143  22.161   6.764
 6085POPC   C3A76745  15.138  22.141   7.064
 6085POPC   C4A76746  15.139  22.175   7.364
 6085POPC   C1B76747  15.376  22.244   6.464
 6085POPC   C2B76748  15.457  22.153   6.764
 6085POPC   C3B76749  15.420  22.186   7.064
 6085POPC   C4B76750  15.413  22.183   7.364
 6086POPC   NC376751   2.036  31.475   5.564
 6086POPC   PO476752   1.984  31.502   5.864
 6086POPC   GL176753   2.024  31.479   6.164
 6086POPC   GL276754   2.131  31.561   6.164
 6086POPC   C1A76755   2.020  31.475   6.464
 6086POPC   D2A76756   1.978  31.520   6.764
 6086POPC   C3A76757   1.974  31.469   7.064
 6086POPC   C4A76758   2.001  31.471   7.364
 6086POPC   C1B76759   2.212  31.600   6.464
 6086POPC   C2B76760   2.174  31.526   6.764
 6086POPC   C3B76761   2.203  31.565   7.064
 6086POPC   C4B76762   2.268  31.590   7.364
 6087POPC   NC376763  37.680  40.009   5.564
 6087POPC   PO476764  37.650  40.044   5.864
 6087POPC   GL176765  37.631  40.021   6.164
 6087POPC   GL276766  37.702  39.932   6.164
 6087POPC   C1A76767  37.634  39.998   6.464
 6087POPC   D2A76768  37.655  39.976   6.764
 6087POPC   C3A76769  37.633  40.032   7.064
 6087POPC   C4A76770  37.704  39.986   7.364
 6087POPC   C1B76771  37.685  39.765   6.464
 6087POPC   C2B76772  37.722  39.737   6.764
 6087POPC   C3B76773  37.692  39.749   7.064
 6087POPC   C4B76774  37.730  39.714   7.364
 6088POPC   NC376775  15.916  29.158   5.564
 6088POPC   PO476776  15.911  29.176   5.864
 6088POPC   GL176777  15.967  29.168   6.164
 6088POPC   GL276778  16.029  29.196   6.164
 6088POPC   C1A76779  15.956  29.107   6.464
 6088POPC   D2A76780  15.927  29.192   6.764
 6088POPC   C3A76781  15.910  29.174   7.064
 6088POPC   C4A76782  15.917  29.153   7.364
 6088POPC   C1B76783  16.154  29.204   6.464
 6088POPC   C2B76784  16.166  29.256   6.764
 6088POPC   C3B76785  16.239  29.183   7.064
 6088POPC   C4B76786  16.165  29.188   7.364
 6089POPC   NC376787  25.276   5.103   5.564
 6089POPC   PO476788  25.217   5.099   5.864
 6089POPC   GL176789  25.263   5.115   6.164
 6089POPC   GL276790  25.254   5.256   6.164
 6089POPC   C1A76791  25.263   5.058   6.464
 6089POPC   D2A76792  25.291   5.105   6.764
 6089POPC   C3A76793  25.314   5.075   7.064
 6089POPC   C4A76794  25.293   5.096   7.364
 6089POPC   C1B76795  25.345   5.359   6.464
 6089POPC   C2B76796  25.379   5.309   6.764
 6089POPC   C3B76797  25.320   5.326   7.064
 6089POPC   C4B76798  25.312   5.307   7.364
 6090POPC   NC376799   0.486   5.874   5.564
 6090POPC   PO476800   0.388   5.880   5.864
 6090POPC   GL176801   0.426   5.827   6.164
 6090POPC   GL276802   0.356   5.934   6.164
 6090POPC   C1A76803   0.401   5.855   6.464
 6090POPC   D2A76804   0.410   5.837   6.764
 6090POPC   C3A76805   0.426   5.888   7.064
 6090POPC   C4A76806   0.411   5.892   7.364
 6090POPC   C1B76807   0.269   5.947   6.464
 6090POPC   C2B76808   0.183   5.983   6.764
 6090POPC   C3B76809   0.211   6.012   7.064
 6090POPC   C4B76810   0.227   5.967   7.364
 6091POPC   NC376811  12.818   0.466   5.564
 6091POPC   PO476812  12.836   0.403   5.864
 6091POPC   GL176813  12.888   0.450   6.164
 6091POPC   GL276814  12.768   0.505   6.164
 6091POPC   C1A76815  12.892   0.465   6.464
 6091POPC   D2A76816  12.860   0.454   6.764
 6091POPC   C3A76817  12.819   0.449   7.064
 6091POPC   C4A76818  12.900   0.408   7.364
 6091POPC   C1B76819  12.732   0.671   6.464
 6091POPC   C2B76820  12.729   0.649   6.764
 6091POPC   C3B76821  12.757   0.696   7.064
 6091POPC   C4B76822  12.776   0.676   7.364
 6092POPC   NC376823  35.354  12.038   5.564
 6092POPC   PO476824  35.356  12.076   5.864
 6092POPC   GL176825  35.346  12.120   6.164
 6092POPC   GL276826  35.372  11.989   6.164
 6092POPC   C1A76827  35.306  12.120   6.464
 6092POPC   D2A76828  35.352  12.113   6.764
 6092POPC   C3A76829  35.360  12.049   7.064
 6092POPC   C4A76830  35.343  12.049   7.364
 6092POPC   C1B76831  35.396  11.833   6.464
 6092POPC   C2B76832  35.445  11.803   6.764
 6092POPC   C3B76833  35.378  11.795   7.064
 6092POPC   C4B76834  35.453  11.857   7.364
 6093POPC   NC376835  37.725  19.856   5.564
 6093POPC   PO476836  37.669  19.802   5.864
 6093POPC   GL176837  37.726  19.788   6.164
 6093POPC   GL276838  37.700  19.957   6.164
 6093POPC   C1A76839  37.717  19.853   6.464
 6093POPC   D2A76840  37.657  19.865   6.764
 6093POPC   C3A76841  37.684  19.835   7.064
 6093POPC   C4A76842  37.656  19.808   7.364
 6093POPC   C1B76843  37.666  20.123   6.464
 6093POPC   C2B76844  37.707  20.078   6.764
 6093POPC   C3B76845  37.623  20.100   7.064
 6093POPC   C4B76846  37.702  20.091   7.364
 6094POPC   NC376847   6.643  29.188   5.564
 6094POPC   PO476848   6.656  29.118   5.864
 6094POPC   GL176849   6.614  29.105   6.164
 6094POPC   GL276850   6.602  29.207   6.164
 6094POPC   C1A76851   6.607  29.180   6.464
 6094POPC   D2A76852   6.684  29.114   6.764
 6094POPC   C3A76853   6.633  29.107   7.064
 6094POPC   C4A76854   6.621  29.126   7.364
 6094POPC   C1B76855   6.492  29.351   6.464
 6094POPC   C2B76856   6.499  29.361   6.764
 6094POPC   C3B76857   6.445  29.320   7.064
 6094POPC   C4B76858   6.428  29.321   7.364
 6095POPC   NC376859   7.461  12.119   5.564
 6095POPC   PO476860   7.416  12.120   5.864
 6095POPC   GL176861   7.441  12.041   6.164
 6095POPC   GL276862   7.539  12.057   6.164
 6095POPC   C1A76863   7.469  12.050   6.464
 6095POPC   D2A76864   7.383  12.065   6.764
 6095POPC   C3A76865   7.452  12.059   7.064
 6095POPC   C4A76866   7.466  12.028   7.364
 6095POPC   C1B76867   7.644  11.964   6.464
 6095POPC   C2B76868   7.639  11.954   6.764
 6095POPC   C3B76869   7.607  11.990   7.064
 6095POPC   C4B76870   7.634  12.018   7.364
 6096POPC   NC376871  13.606  33.039   5.564
 6096POPC   PO476872  13.580  33.036   5.864
 6096POPC   GL176873  13.639  33.066   6.164
 6096POPC   GL276874  13.516  32.972   6.164
 6096POPC   C1A76875  13.645  33.034   6.464
 6096POPC   D2A76876  13.611  33.027   6.764
 6096POPC   C3A76877  13.673  32.999   7.064
 6096POPC   C4A76878  13.582  32.985   7.364
 6096POPC   C1B76879  13.383  32.964   6.464
 6096POPC   C2B76880  13.365  32.965   6.764
 6096POPC   C3B76881  13.377  32.986   7.064
 6096POPC   C4B76882  13.415  33.016   7.364
 6097POPC   NC376883   2.754  23.715   5.564
 6097POPC   PO476884   2.785  23.680   5.864
 6097POPC   GL176885   2.719  23.686   6.164
 6097POPC   GL276886   2.852  23.620   6.164
 6097POPC   C1A76887   2.739  23.745   6.464
 6097POPC   D2A76888   2.757  23.725   6.764
 6097POPC   C3A76889   2.730  23.699   7.064
 6097POPC   C4A76890   2.778  23.744   7.364
 6097POPC   C1B76891   2.833  23.506   6.464
 6097POPC   C2B76892   2.887  23.460   6.764
 6097POPC   C3B76893   2.866  23.506   7.064
 6097POPC   C4B76894   2.854  23.499   7.364
 6098POPC   NC376895  15.169  20.639   5.564
 6098POPC   PO476896  15.154  20.597   5.864
 6098POPC   GL176897  15.136  20.606   6.164
 6098POPC   GL276898  15.136  20.713   6.164
 6098POPC   C1A76899  15.156  20.639   6.464
 6098POPC   D2A76900  15.175  20.583   6.764
 6098POPC   C3A76901  15.138  20.593   7.064
 6098POPC   C4A76902  15.173  20.577   7.364
 6098POPC   C1B76903  15.161  20.845   6.464
 6098POPC   C2B76904  15.183  20.903   6.764
 6098POPC   C3B76905  15.195  20.843   7.064
 6098POPC   C4B76906  15.172  20.904   7.364
 6099POPC   NC376907   4.280   8.978   5.564
 6099POPC   PO476908   4.310   8.950   5.864
 6099POPC   GL176909   4.306   8.946   6.164
 6099POPC   GL276910   4.251   9.085   6.164
 6099POPC   C1A76911   4.344   8.924   6.464
 6099POPC   D2A76912   4.288   8.969   6.764
 6099POPC   C3A76913   4.283   8.959   7.064
 6099POPC   C4A76914   4.285   8.963   7.364
 6099POPC   C1B76915   4.163   9.194   6.464
 6099POPC   C2B76916   4.173   9.184   6.764
 6099POPC   C3B76917   4.224   9.153   7.064
 6099POPC   C4B76918   4.213   9.189   7.364
 6100POPC   NC376919  39.236   2.016   5.564
 6100POPC   PO476920  39.192   1.982   5.864
 6100POPC   GL176921  39.263   1.952   6.164
 6100POPC   GL276922  39.337   1.928   6.164
 6100POPC   C1A76923  39.254   2.027   6.464
 6100POPC   D2A76924  39.268   2.025   6.764
 6100POPC   C3A76925  39.198   2.020   7.064
 6100POPC   C4A76926  39.252   1.994   7.364
 6100POPC   C1B76927  39.345   1.783   6.464
 6100POPC   C2B76928  39.351   1.762   6.764
 6100POPC   C3B76929  39.383   1.810   7.064
 6100POPC   C4B76930  39.423   1.817   7.364
 6101POPC   NC376931   2.786  10.548   5.564
 6101POPC   PO476932   2.732  10.572   5.864
 6101POPC   GL176933   2.789  10.476   6.164
 6101POPC   GL276934   2.775  10.394   6.164
 6101POPC   C1A76935   2.788  10.479   6.464
 6101POPC   D2A76936   2.746  10.491   6.764
 6101POPC   C3A76937   2.812  10.507   7.064
 6101POPC   C4A76938   2.750  10.496   7.364
 6101POPC   C1B76939   2.830  10.293   6.464
 6101POPC   C2B76940   2.835  10.271   6.764
 6101POPC   C3B76941   2.813  10.247   7.064
 6101POPC   C4B76942   2.898  10.254   7.364
 6102POPC   NC376943  24.519  10.534   5.564
 6102POPC   PO476944  24.505  10.528   5.864
 6102POPC   GL176945  24.462  10.484   6.164
 6102POPC   GL276946  24.542  10.686   6.164
 6102POPC   C1A76947  24.475  10.566   6.464
 6102POPC   D2A76948  24.499  10.479   6.764
 6102POPC   C3A76949  24.537  10.569   7.064
 6102POPC   C4A76950  24.512  10.497   7.364
 6102POPC   C1B76951  24.460  10.808   6.464
 6102POPC   C2B76952  24.537  10.771   6.764
 6102POPC   C3B76953  24.500  10.737   7.064
 6102POPC   C4B76954  24.486  10.760   7.364
 6103POPC   NC376955  39.260   4.343   5.564
 6103POPC   PO476956  39.208   4.293   5.864
 6103POPC   GL176957  39.196   4.352   6.164
 6103POPC   GL276958  39.250   4.394   6.164
 6103POPC   C1A76959  39.227   4.312   6.464
 6103POPC   D2A76960  39.187   4.315   6.764
 6103POPC   C3A76961  39.276   4.357   7.064
 6103POPC   C4A76962  39.181   4.355   7.364
 6103POPC   C1B76963  39.284   4.579   6.464
 6103POPC   C2B76964  39.308   4.536   6.764
 6103POPC   C3B76965  39.317   4.591   7.064
 6103POPC   C4B76966  39.313   4.558   7.364
 6104POPC   NC376967  36.937  19.031   5.564
 6104POPC   PO476968  36.920  19.086   5.864
 6104POPC   GL176969  36.930  19.076   6.164
 6104POPC   GL276970  36.892  19.172   6.164
 6104POPC   C1A76971  36.882  19.068   6.464
 6104POPC   D2A76972  36.928  19.019   6.764
 6104POPC   C3A76973  36.916  19.059   7.064
 6104POPC   C4A76974  36.918  19.070   7.364
 6104POPC   C1B76975  36.896  19.275   6.464
 6104POPC   C2B76976  36.844  19.337   6.764
 6104POPC   C3B76977  36.872  19.306   7.064
 6104POPC   C4B76978  36.893  19.334   7.364
 6105POPC   NC376979   2.764  29.971   5.564
 6105POPC   PO476980   2.758  29.904   5.864
 6105POPC   GL176981   2.724  29.929   6.164
 6105POPC   GL276982   2.648  29.910   6.164
 6105POPC   C1A76983   2.810  29.890   6.464
 6105POPC   D2A76984   2.783  29.944   6.764
 6105POPC   C3A76985   2.814  29.877   7.064
 6105POPC   C4A76986   2.801  29.873   7.364
 6105POPC   C1B76987   2.498  29.928   6.464
 6105POPC   C2B76988   2.556  29.933   6.764
 6105POPC   C3B76989   2.506  29.931   7.064
 6105POPC   C4B76990   2.526  29.930   7.364
 6106POPC   NC376991  26.079  25.273   5.564
 6106POPC   PO476992  26.079  25.293   5.864
 6106POPC   GL176993  26.064  25.280   6.164
 6106POPC   GL276994  26.076  25.347   6.164
 6106POPC   C1A76995  26.051  25.256   6.464
 6106POPC   D2A76996  26.020  25.238   6.764
 6106POPC   C3A76997  25.999  25.280   7.064
 6106POPC   C4A76998  26.080  25.255   7.364
 6106POPC   C1B76999  26.105  25.509   6.464
 6106POPC   C2B77000  26.089  25.488   6.764
 6106POPC   C3B77001  26.108  25.510   7.064
 6106POPC   C4B77002  26.125  25.509   7.364
 6107POPC   NC377003  21.362  22.211   5.564
 6107POPC   PO477004  21.358  22.165   5.864
 6107POPC   GL177005  21.364  22.197   6.164
 6107POPC   GL277006  21.449  22.280   6.164
 6107POPC   C1A77007  21.358  22.145   6.464
 6107POPC   D2A77008  21.404  22.120   6.764
 6107POPC   C3A77009  21.417  22.145   7.064
 6107POPC   C4A77010  21.386  22.196   7.364
 6107POPC   C1B77011  21.594  22.317   6.464
 6107POPC   C2B77012  21.618  22.284   6.764
 6107POPC   C3B77013  21.575  22.319   7.064
 6107POPC   C4B77014  21.616  22.270   7.364
 6108POPC   NC377015  16.688  33.069   5.564
 6108POPC   PO477016  16.728  33.005   5.864
 6108POPC   GL177017  16.744  32.985   6.164
 6108POPC   GL277018  16.822  32.958   6.164
 6108POPC   C1A77019  16.726  33.050   6.464
 6108POPC   D2A77020  16.724  33.032   6.764
 6108POPC   C3A77021  16.716  33.003   7.064
 6108POPC   C4A77022  16.709  32.985   7.364
 6108POPC   C1B77023  16.849  32.826   6.464
 6108POPC   C2B77024  16.837  32.787   6.764
 6108POPC   C3B77025  16.813  32.824   7.064
 6108POPC   C4B77026  16.822  32.801   7.364
 6109POPC   NC377027  31.426   2.035   5.564
 6109POPC   PO477028  31.470   1.990   5.864
 6109POPC   GL177029  31.449   1.970   6.164
 6109POPC   GL277030  31.561   2.053   6.164
 6109POPC   C1A77031  31.462   1.960   6.464
 6109POPC   D2A77032  31.521   1.999   6.764
 6109POPC   C3A77033  31.453   1.990   7.064
 6109POPC   C4A77034  31.494   1.952   7.364
 6109POPC   C1B77035  31.626   2.191   6.464
 6109POPC   C2B77036  31.602   2.144   6.764
 6109POPC   C3B77037  31.599   2.140   7.064
 6109POPC   C4B77038  31.590   2.191   7.364
 6110POPC   NC377039  30.672  19.060   5.564
 6110POPC   PO477040  30.675  19.074   5.864
 6110POPC   GL177041  30.682  19.074   6.164
 6110POPC   GL277042  30.751  19.193   6.164
 6110POPC   C1A77043  30.666  19.056   6.464
 6110POPC   D2A77044  30.690  19.105   6.764
 6110POPC   C3A77045  30.710  19.083   7.064
 6110POPC   C4A77046  30.728  19.049   7.364
 6110POPC   C1B77047  30.699  19.342   6.464
 6110POPC   C2B77048  30.693  19.333   6.764
 6110POPC   C3B77049  30.674  19.299   7.064
 6110POPC   C4B77050  30.733  19.333   7.364
 6111POPC   NC377051  13.645  35.331   5.564
 6111POPC   PO477052  13.597  35.315   5.864
 6111POPC   GL177053  13.656  35.335   6.164
 6111POPC   GL277054  13.504  35.429   6.164
 6111POPC   C1A77055  13.644  35.312   6.464
 6111POPC   D2A77056  13.616  35.388   6.764
 6111POPC   C3A77057  13.610  35.399   7.064
 6111POPC   C4A77058  13.674  35.357   7.364
 6111POPC   C1B77059  13.467  35.510   6.464
 6111POPC   C2B77060  13.442  35.591   6.764
 6111POPC   C3B77061  13.436  35.503   7.064
 6111POPC   C4B77062  13.486  35.530   7.364
 6112POPC   NC377063  34.608  43.092   5.564
 6112POPC   PO477064  34.613  43.100   5.864
 6112POPC   GL177065  34.604  43.118   6.164
 6112POPC   GL277066  34.490  42.993   6.164
 6112POPC   C1A77067  34.564  43.089   6.464
 6112POPC   D2A77068  34.576  43.126   6.764
 6112POPC   C3A77069  34.610  43.127   7.064
 6112POPC   C4A77070  34.538  43.070   7.364
 6112POPC   C1B77071  34.434  42.983   6.464
 6112POPC   C2B77072  34.402  42.970   6.764
 6112POPC   C3B77073  34.337  42.962   7.064
 6112POPC   C4B77074  34.389  42.955   7.364
 6113POPC   NC377075  25.995   2.016   5.564
 6113POPC   PO477076  26.045   1.970   5.864
 6113POPC   GL177077  26.012   1.964   6.164
 6113POPC   GL277078  26.005   1.887   6.164
 6113POPC   C1A77079  26.063   2.014   6.464
 6113POPC   D2A77080  26.000   1.977   6.764
 6113POPC   C3A77081  26.022   2.029   7.064
 6113POPC   C4A77082  26.057   2.038   7.364
 6113POPC   C1B77083  25.971   1.772   6.464
 6113POPC   C2B77084  25.996   1.798   6.764
 6113POPC   C3B77085  25.956   1.727   7.064
 6113POPC   C4B77086  25.987   1.775   7.364
 6114POPC   NC377087  33.000  34.533   5.564
 6114POPC   PO477088  32.977  34.552   5.864
 6114POPC   GL177089  33.014  34.603   6.164
 6114POPC   GL277090  33.037  34.691   6.164
 6114POPC   C1A77091  33.035  34.527   6.464
 6114POPC   D2A77092  33.049  34.563   6.764
 6114POPC   C3A77093  33.002  34.597   7.064
 6114POPC   C4A77094  32.995  34.583   7.364
 6114POPC   C1B77095  33.125  34.797   6.464
 6114POPC   C2B77096  33.134  34.822   6.764
 6114POPC   C3B77097  33.125  34.846   7.064
 6114POPC   C4B77098  33.064  34.807   7.364
 6115POPC   NC377099  13.623  30.731   5.564
 6115POPC   PO477100  13.618  30.649   5.864
 6115POPC   GL177101  13.653  30.695   6.164
 6115POPC   GL277102  13.461  30.699   6.164
 6115POPC   C1A77103  13.581  30.704   6.464
 6115POPC   D2A77104  13.649  30.675   6.764
 6115POPC   C3A77105  13.645  30.692   7.064
 6115POPC   C4A77106  13.606  30.698   7.364
 6115POPC   C1B77107  13.422  30.763   6.464
 6115POPC   C2B77108  13.416  30.714   6.764
 6115POPC   C3B77109  13.410  30.703   7.064
 6115POPC   C4B77110  13.371  30.759   7.364
 6116POPC   NC377111  18.316  40.765   5.564
 6116POPC   PO477112  18.288  40.767   5.864
 6116POPC   GL177113  18.255  40.782   6.164
 6116POPC   GL277114  18.196  40.736   6.164
 6116POPC   C1A77115  18.275  40.764   6.464
 6116POPC   D2A77116  18.309  40.817   6.764
 6116POPC   C3A77117  18.272  40.749   7.064
 6116POPC   C4A77118  18.309  40.771   7.364
 6116POPC   C1B77119  18.065  40.614   6.464
 6116POPC   C2B77120  18.119  40.625   6.764
 6116POPC   C3B77121  18.144  40.651   7.064
 6116POPC   C4B77122  18.141  40.650   7.364
 6117POPC   NC377123  24.527  35.400   5.564
 6117POPC   PO477124  24.488  35.302   5.864
 6117POPC   GL177125  24.516  35.312   6.164
 6117POPC   GL277126  24.523  35.439   6.164
 6117POPC   C1A77127  24.529  35.359   6.464
 6117POPC   D2A77128  24.466  35.384   6.764
 6117POPC   C3A77129  24.456  35.380   7.064
 6117POPC   C4A77130  24.506  35.350   7.364
 6117POPC   C1B77131  24.661  35.591   6.464
 6117POPC   C2B77132  24.645  35.554   6.764
 6117POPC   C3B77133  24.585  35.588   7.064
 6117POPC   C4B77134  24.568  35.597   7.364
 6118POPC   NC377135   1.200  44.656   5.564
 6118POPC   PO477136   1.234  44.691   5.864
 6118POPC   GL177137   1.247  44.706   6.164
 6118POPC   GL277138   1.187  44.724   6.164
 6118POPC   C1A77139   1.212  44.661   6.464
 6118POPC   D2A77140   1.174  44.636   6.764
 6118POPC   C3A77141   1.229  44.698   7.064
 6118POPC   C4A77142   1.174  44.616   7.364
 6118POPC   C1B77143   1.106  44.868   6.464
 6118POPC   C2B77144   1.081  44.836   6.764
 6118POPC   C3B77145   1.075  44.902   7.064
 6118POPC   C4B77146   1.082  44.891   7.364
 6119POPC   NC377147  22.201  10.512   5.564
 6119POPC   PO477148  22.119  10.511   5.864
 6119POPC   GL177149  22.139  10.491   6.164
 6119POPC   GL277150  22.240  10.404   6.164
 6119POPC   C1A77151  22.121  10.544   6.464
 6119POPC   D2A77152  22.143  10.533   6.764
 6119POPC   C3A77153  22.185  10.539   7.064
 6119POPC   C4A77154  22.125  10.568   7.364
 6119POPC   C1B77155  22.324  10.317   6.464
 6119POPC   C2B77156  22.300  10.293   6.764
 6119POPC   C3B77157  22.346  10.308   7.064
 6119POPC   C4B77158  22.295  10.299   7.364
 6120POPC   NC377159  32.279  31.433   5.564
 6120POPC   PO477160  32.243  31.448   5.864
 6120POPC   GL177161  32.263  31.488   6.164
 6120POPC   GL277162  32.244  31.357   6.164
 6120POPC   C1A77163  32.227  31.506   6.464
 6120POPC   D2A77164  32.242  31.503   6.764
 6120POPC   C3A77165  32.297  31.459   7.064
 6120POPC   C4A77166  32.261  31.496   7.364
 6120POPC   C1B77167  32.144  31.246   6.464
 6120POPC   C2B77168  32.193  31.196   6.764
 6120POPC   C3B77169  32.184  31.254   7.064
 6120POPC   C4B77170  32.171  31.253   7.364
 6121POPC   NC377171  24.495  12.059   5.564
 6121POPC   PO477172  24.462  12.033   5.864
 6121POPC   GL177173  24.512  12.056   6.164
 6121POPC   GL277174  24.520  11.987   6.164
 6121POPC   C1A77175  24.495  12.122   6.464
 6121POPC   D2A77176  24.487  12.107   6.764
 6121POPC   C3A77177  24.525  12.119   7.064
 6121POPC   C4A77178  24.490  12.073   7.364
 6121POPC   C1B77179  24.595  11.806   6.464
 6121POPC   C2B77180  24.566  11.819   6.764
 6121POPC   C3B77181  24.580  11.820   7.064
 6121POPC   C4B77182  24.605  11.845   7.364
 6122POPC   NC377183  13.580  27.575   5.564
 6122POPC   PO477184  13.601  27.585   5.864
 6122POPC   GL177185  13.642  27.601   6.164
 6122POPC   GL277186  13.683  27.548   6.164
 6122POPC   C1A77187  13.674  27.612   6.464
 6122POPC   D2A77188  13.639  27.623   6.764
 6122POPC   C3A77189  13.636  27.591   7.064
 6122POPC   C4A77190  13.607  27.548   7.364
 6122POPC   C1B77191  13.836  27.425   6.464
 6122POPC   C2B77192  13.835  27.428   6.764
 6122POPC   C3B77193  13.819  27.371   7.064
 6122POPC   C4B77194  13.845  27.399   7.364
 6123POPC   NC377195   5.069   6.677   5.564
 6123POPC   PO477196   5.135   6.649   5.864
 6123POPC   GL177197   5.077   6.634   6.164
 6123POPC   GL277198   4.927   6.647   6.164
 6123POPC   C1A77199   5.096   6.600   6.464
 6123POPC   D2A77200   5.063   6.660   6.764
 6123POPC   C3A77201   5.127   6.614   7.064
 6123POPC   C4A77202   5.120   6.670   7.364
 6123POPC   C1B77203   4.844   6.737   6.464
 6123POPC   C2B77204   4.850   6.708   6.764
 6123POPC   C3B77205   4.900   6.738   7.064
 6123POPC   C4B77206   4.899   6.759   7.364
 6124POPC   NC377207  35.354   0.431   5.564
 6124POPC   PO477208  35.373   0.478   5.864
 6124POPC   GL177209  35.342   0.473   6.164
 6124POPC   GL277210  35.374   0.350   6.164
 6124POPC   C1A77211  35.400   0.478   6.464
 6124POPC   D2A77212  35.325   0.438   6.764
 6124POPC   C3A77213  35.387   0.445   7.064
 6124POPC   C4A77214  35.322   0.390   7.364
 6124POPC   C1B77215  35.364   0.145   6.464
 6124POPC   C2B77216  35.291   0.201   6.764
 6124POPC   C3B77217  35.320   0.223   7.064
 6124POPC   C4B77218  35.369   0.160   7.364
 6125POPC   NC377219  32.992  44.699   5.564
 6125POPC   PO477220  33.054  44.615   5.864
 6125POPC   GL177221  32.980  44.632   6.164
 6125POPC   GL277222  32.900  44.645   6.164
 6125POPC   C1A77223  32.992  44.632   6.464
 6125POPC   D2A77224  32.997  44.709   6.764
 6125POPC   C3A77225  32.995  44.620   7.064
 6125POPC   C4A77226  33.048  44.709   7.364
 6125POPC   C1B77227  32.786  44.666   6.464
 6125POPC   C2B77228  32.755  44.699   6.764
 6125POPC   C3B77229  32.747  44.689   7.064
 6125POPC   C4B77230  32.752  44.693   7.364
 6126POPC   NC377231  43.930   5.078   5.564
 6126POPC   PO477232  43.929   5.070   5.864
 6126POPC   GL177233  43.878   5.123   6.164
 6126POPC   GL277234  43.767   5.139   6.164
 6126POPC   C1A77235  43.906   5.118   6.464
 6126POPC   D2A77236  43.913   5.096   6.764
 6126POPC   C3A77237  43.927   5.073   7.064
 6126POPC   C4A77238  43.864   5.104   7.364
 6126POPC   C1B77239  43.686   5.207   6.464
 6126POPC   C2B77240  43.599   5.180   6.764
 6126POPC   C3B77241  43.629   5.166   7.064
 6126POPC   C4B77242  43.694   5.195   7.364
 6127POPC   NC377243  30.741   2.760   5.564
 6127POPC   PO477244  30.728   2.759   5.864
 6127POPC   GL177245  30.657   2.806   6.164
 6127POPC   GL277246  30.620   2.813   6.164
 6127POPC   C1A77247  30.742   2.748   6.464
 6127POPC   D2A77248  30.729   2.810   6.764
 6127POPC   C3A77249  30.718   2.745   7.064
 6127POPC   C4A77250  30.677   2.739   7.364
 6127POPC   C1B77251  30.529   2.947   6.464
 6127POPC   C2B77252  30.527   2.879   6.764
 6127POPC   C3B77253  30.503   2.919   7.064
 6127POPC   C4B77254  30.478   2.925   7.364
 6128POPC   NC377255   6.662  39.193   5.564
 6128POPC   PO477256   6.611  39.276   5.864
 6128POPC   GL177257   6.664  39.201   6.164
 6128POPC   GL277258   6.730  39.109   6.164
 6128POPC   C1A77259   6.646  39.268   6.464
 6128POPC   D2A77260   6.623  39.243   6.764
 6128POPC   C3A77261   6.671  39.238   7.064
 6128POPC   C4A77262   6.637  39.184   7.364
 6128POPC   C1B77263   6.722  39.025   6.464
 6128POPC   C2B77264   6.728  38.999   6.764
 6128POPC   C3B77265   6.765  38.995   7.064
 6128POPC   C4B77266   6.727  38.995   7.364
 6129POPC   NC377267  38.435   9.719   5.564
 6129POPC   PO477268  38.430   9.746   5.864
 6129POPC   GL177269  38.441   9.727   6.164
 6129POPC   GL277270  38.563   9.832   6.164
 6129POPC   C1A77271  38.457   9.722   6.464
 6129POPC   D2A77272  38.458   9.766   6.764
 6129POPC   C3A77273  38.455   9.767   7.064
 6129POPC   C4A77274  38.473   9.699   7.364
 6129POPC   C1B77275  38.678   9.808   6.464
 6129POPC   C2B77276  38.664   9.811   6.764
 6129POPC   C3B77277  38.648   9.791   7.064
 6129POPC   C4B77278  38.700   9.808   7.364
 6130POPC   NC377279  27.603   9.764   5.564
 6130POPC   PO477280  27.550   9.789   5.864
 6130POPC   GL177281  27.567   9.794   6.164
 6130POPC   GL277282  27.727   9.726   6.164
 6130POPC   C1A77283  27.629   9.704   6.464
 6130POPC   D2A77284  27.642   9.729   6.764
 6130POPC   C3A77285  27.561   9.789   7.064
 6130POPC   C4A77286  27.618   9.780   7.364
 6130POPC   C1B77287  27.801   9.793   6.464
 6130POPC   C2B77288  27.871   9.806   6.764
 6130POPC   C3B77289  27.876   9.798   7.064
 6130POPC   C4B77290  27.880   9.800   7.364
 6131POPC   NC377291   3.564   4.315   5.564
 6131POPC   PO477292   3.492   4.324   5.864
 6131POPC   GL177293   3.505   4.338   6.164
 6131POPC   GL277294   3.533   4.428   6.164
 6131POPC   C1A77295   3.497   4.356   6.464
 6131POPC   D2A77296   3.586   4.298   6.764
 6131POPC   C3A77297   3.523   4.361   7.064
 6131POPC   C4A77298   3.531   4.283   7.364
 6131POPC   C1B77299   3.647   4.587   6.464
 6131POPC   C2B77300   3.576   4.525   6.764
 6131POPC   C3B77301   3.612   4.515   7.064
 6131POPC   C4B77302   3.635   4.581   7.364
 6132POPC   NC377303  16.687  12.042   5.564
 6132POPC   PO477304  16.724  12.048   5.864
 6132POPC   GL177305  16.688  12.044   6.164
 6132POPC   GL277306  16.642  12.080   6.164
 6132POPC   C1A77307  16.717  12.043   6.464
 6132POPC   D2A77308  16.741  12.047   6.764
 6132POPC   C3A77309  16.710  12.066   7.064
 6132POPC   C4A77310  16.764  12.071   7.364
 6132POPC   C1B77311  16.476  12.052   6.464
 6132POPC   C2B77312  16.510  12.072   6.764
 6132POPC   C3B77313  16.504  12.066   7.064
 6132POPC   C4B77314  16.478  12.031   7.364
 6133POPC   NC377315  35.360  19.074   5.564
 6133POPC   PO477316  35.361  19.071   5.864
 6133POPC   GL177317  35.327  19.042   6.164
 6133POPC   GL277318  35.193  19.043   6.164
 6133POPC   C1A77319  35.317  19.052   6.464
 6133POPC   D2A77320  35.305  19.050   6.764
 6133POPC   C3A77321  35.319  19.044   7.064
 6133POPC   C4A77322  35.387  19.034   7.364
 6133POPC   C1B77323  35.109  18.990   6.464
 6133POPC   C2B77324  35.115  18.991   6.764
 6133POPC   C3B77325  35.123  18.927   7.064
 6133POPC   C4B77326  35.136  18.938   7.364
 6134POPC   NC377327  13.591  36.894   5.564
 6134POPC   PO477328  13.586  36.895   5.864
 6134POPC   GL177329  13.581  36.909   6.164
 6134POPC   GL277330  13.792  36.906   6.164
 6134POPC   C1A77331  13.637  36.887   6.464
 6134POPC   D2A77332  13.585  36.875   6.764
 6134POPC   C3A77333  13.644  36.866   7.064
 6134POPC   C4A77334  13.598  36.918   7.364
 6134POPC   C1B77335  13.892  36.991   6.464
 6134POPC   C2B77336  13.849  37.006   6.764
 6134POPC   C3B77337  13.823  37.034   7.064
 6134POPC   C4B77338  13.842  37.005   7.364
 6135POPC   NC377339  22.978  20.636   5.564
 6135POPC   PO477340  22.953  20.643   5.864
 6135POPC   GL177341  22.962  20.656   6.164
 6135POPC   GL277342  23.062  20.620   6.164
 6135POPC   C1A77343  22.930  20.563   6.464
 6135POPC   D2A77344  22.893  20.642   6.764
 6135POPC   C3A77345  22.950  20.593   7.064
 6135POPC   C4A77346  22.954  20.629   7.364
 6135POPC   C1B77347  23.218  20.579   6.464
 6135POPC   C2B77348  23.143  20.588   6.764
 6135POPC   C3B77349  23.216  20.574   7.064
 6135POPC   C4B77350  23.150  20.610   7.364
 6136POPC   NC377351   5.867   5.870   5.564
 6136POPC   PO477352   5.882   5.836   5.864
 6136POPC   GL177353   5.916   5.898   6.164
 6136POPC   GL277354   5.962   6.005   6.164
 6136POPC   C1A77355   5.911   5.891   6.464
 6136POPC   D2A77356   5.840   5.891   6.764
 6136POPC   C3A77357   5.852   5.875   7.064
 6136POPC   C4A77358   5.913   5.883   7.364
 6136POPC   C1B77359   5.972   6.091   6.464
 6136POPC   C2B77360   5.931   6.105   6.764
 6136POPC   C3B77361   5.957   6.059   7.064
 6136POPC   C4B77362   5.974   6.125   7.364
 6137POPC   NC377363   5.895   5.088   5.564
 6137POPC   PO477364   5.850   5.097   5.864
 6137POPC   GL177365   5.870   5.103   6.164
 6137POPC   GL277366   5.804   4.944   6.164
 6137POPC   C1A77367   5.893   5.068   6.464
 6137POPC   D2A77368   5.915   5.111   6.764
 6137POPC   C3A77369   5.840   5.107   7.064
 6137POPC   C4A77370   5.866   5.122   7.364
 6137POPC   C1B77371   5.671   4.852   6.464
 6137POPC   C2B77372   5.725   4.888   6.764
 6137POPC   C3B77373   5.727   4.917   7.064
 6137POPC   C4B77374   5.736   4.855   7.364
 6138POPC   NC377375   5.048  15.972   5.564
 6138POPC   PO477376   5.055  15.958   5.864
 6138POPC   GL177377   5.121  15.947   6.164
 6138POPC   GL277378   5.252  16.050   6.164
 6138POPC   C1A77379   5.130  15.989   6.464
 6138POPC   D2A77380   5.126  15.919   6.764
 6138POPC   C3A77381   5.068  15.978   7.064
 6138POPC   C4A77382   5.086  15.987   7.364
 6138POPC   C1B77383   5.303  16.041   6.464
 6138POPC   C2B77384   5.313  16.092   6.764
 6138POPC   C3B77385   5.371  16.018   7.064
 6138POPC   C4B77386   5.355  16.082   7.364
 6139POPC   NC377387  23.711  41.606   5.564
 6139POPC   PO477388  23.692  41.563   5.864
 6139POPC   GL177389  23.750  41.556   6.164
 6139POPC   GL277390  23.766  41.689   6.164
 6139POPC   C1A77391  23.683  41.549   6.464
 6139POPC   D2A77392  23.694  41.593   6.764
 6139POPC   C3A77393  23.664  41.545   7.064
 6139POPC   C4A77394  23.746  41.516   7.364
 6139POPC   C1B77395  23.840  41.791   6.464
 6139POPC   C2B77396  23.884  41.705   6.764
 6139POPC   C3B77397  23.852  41.699   7.064
 6139POPC   C4B77398  23.829  41.742   7.364
 6140POPC   NC377399  32.286  29.112   5.564
 6140POPC   PO477400  32.225  29.177   5.864
 6140POPC   GL177401  32.220  29.136   6.164
 6140POPC   GL277402  32.355  29.118   6.164
 6140POPC   C1A77403  32.227  29.183   6.464
 6140POPC   D2A77404  32.298  29.178   6.764
 6140POPC   C3A77405  32.241  29.137   7.064
 6140POPC   C4A77406  32.246  29.142   7.364
 6140POPC   C1B77407  32.452  29.108   6.464
 6140POPC   C2B77408  32.484  29.145   6.764
 6140POPC   C3B77409  32.515  29.112   7.064
 6140POPC   C4B77410  32.511  29.082   7.364
 6141POPC   NC377411  42.328  34.570   5.564
 6141POPC   PO477412  42.362  34.604   5.864
 6141POPC   GL177413  42.356  34.572   6.164
 6141POPC   GL277414  42.391  34.449   6.164
 6141POPC   C1A77415  42.353  34.569   6.464
 6141POPC   D2A77416  42.287  34.540   6.764
 6141POPC   C3A77417  42.322  34.547   7.064
 6141POPC   C4A77418  42.353  34.608   7.364
 6141POPC   C1B77419  42.338  34.372   6.464
 6141POPC   C2B77420  42.421  34.366   6.764
 6141POPC   C3B77421  42.418  34.369   7.064
 6141POPC   C4B77422  42.347  34.318   7.364
 6142POPC   NC377423  36.124  30.669   5.564
 6142POPC   PO477424  36.079  30.734   5.864
 6142POPC   GL177425  36.156  30.694   6.164
 6142POPC   GL277426  36.124  30.601   6.164
 6142POPC   C1A77427  36.140  30.650   6.464
 6142POPC   D2A77428  36.119  30.655   6.764
 6142POPC   C3A77429  36.099  30.704   7.064
 6142POPC   C4A77430  36.117  30.740   7.364
 6142POPC   C1B77431  36.086  30.477   6.464
 6142POPC   C2B77432  36.141  30.434   6.764
 6142POPC   C3B77433  36.066  30.468   7.064
 6142POPC   C4B77434  36.109  30.411   7.364
 6143POPC   NC377435   4.365  22.190   5.564
 6143POPC   PO477436   4.290  22.149   5.864
 6143POPC   GL177437   4.293  22.178   6.164
 6143POPC   GL277438   4.225  22.328   6.164
 6143POPC   C1A77439   4.351  22.124   6.464
 6143POPC   D2A77440   4.328  22.174   6.764
 6143POPC   C3A77441   4.322  22.125   7.064
 6143POPC   C4A77442   4.337  22.136   7.364
 6143POPC   C1B77443   4.190  22.436   6.464
 6143POPC   C2B77444   4.238  22.393   6.764
 6143POPC   C3B77445   4.278  22.400   7.064
 6143POPC   C4B77446   4.262  22.429   7.364
 6144POPC   NC377447  40.798  44.699   5.564
 6144POPC   PO477448  40.757  44.629   5.864
 6144POPC   GL177449  40.794  44.702   6.164
 6144POPC   GL277450  40.780  44.573   6.164
 6144POPC   C1A77451  40.812  44.620   6.464
 6144POPC   D2A77452  40.814  44.671   6.764
 6144POPC   C3A77453  40.801  44.613   7.064
 6144POPC   C4A77454  40.795  44.649   7.364
 6144POPC   C1B77455  40.826  44.394   6.464
 6144POPC   C2B77456  40.836  44.425   6.764
 6144POPC   C3B77457  40.843  44.377   7.064
 6144POPC   C4B77458  40.904  44.413   7.364
 6145POPC   NC377459   2.006  32.993   5.564
 6145POPC   PO477460   1.969  33.042   5.864
 6145POPC   GL177461   1.997  33.007   6.164
 6145POPC   GL277462   1.867  33.112   6.164
 6145POPC   C1A77463   1.971  33.010   6.464
 6145POPC   D2A77464   1.951  33.041   6.764
 6145POPC   C3A77465   2.007  33.065   7.064
 6145POPC   C4A77466   2.019  33.019   7.364
 6145POPC   C1B77467   1.764  33.147   6.464
 6145POPC   C2B77468   1.793  33.109   6.764
 6145POPC   C3B77469   1.783  33.136   7.064
 6145POPC   C4B77470   1.751  33.130   7.364
 6146POPC   NC377471  27.612  32.244   5.564
 6146POPC   PO477472  27.634  32.228   5.864
 6146POPC   GL177473  27.615  32.265   6.164
 6146POPC   GL277474  27.642  32.359   6.164
 6146POPC   C1A77475  27.622  32.213   6.464
 6146POPC   D2A77476  27.589  32.258   6.764
 6146POPC   C3A77477  27.613  32.252   7.064
 6146POPC   C4A77478  27.552  32.238   7.364
 6146POPC   C1B77479  27.585  32.505   6.464
 6146POPC   C2B77480  27.586  32.523   6.764
 6146POPC   C3B77481  27.564  32.455   7.064
 6146POPC   C4B77482  27.584  32.495   7.364
 6147POPC   NC377483  31.511  17.495   5.564
 6147POPC   PO477484  31.483  17.479   5.864
 6147POPC   GL177485  31.465  17.537   6.164
 6147POPC   GL277486  31.481  17.380   6.164
 6147POPC   C1A77487  31.465  17.462   6.464
 6147POPC   D2A77488  31.504  17.555   6.764
 6147POPC   C3A77489  31.507  17.484   7.064
 6147POPC   C4A77490  31.509  17.553   7.364
 6147POPC   C1B77491  31.433  17.292   6.464
 6147POPC   C2B77492  31.448  17.282   6.764
 6147POPC   C3B77493  31.381  17.254   7.064
 6147POPC   C4B77494  31.435  17.266   7.364
 6148POPC   NC377495  10.517  19.014   5.564
 6148POPC   PO477496  10.489  19.082   5.864
 6148POPC   GL177497  10.519  19.079   6.164
 6148POPC   GL277498  10.441  19.091   6.164
 6148POPC   C1A77499  10.542  19.075   6.464
 6148POPC   D2A77500  10.519  19.012   6.764
 6148POPC   C3A77501  10.569  19.108   7.064
 6148POPC   C4A77502  10.563  19.053   7.364
 6148POPC   C1B77503  10.340  19.254   6.464
 6148POPC   C2B77504  10.349  19.226   6.764
 6148POPC   C3B77505  10.315  19.231   7.064
 6148POPC   C4B77506  10.293  19.177   7.364
 6149POPC   NC377507   6.681  16.696   5.564
 6149POPC   PO477508   6.664  16.750   5.864
 6149POPC   GL177509   6.629  16.779   6.164
 6149POPC   GL277510   6.662  16.885   6.164
 6149POPC   C1A77511   6.680  16.737   6.464
 6149POPC   D2A77512   6.634  16.768   6.764
 6149POPC   C3A77513   6.600  16.722   7.064
 6149POPC   C4A77514   6.607  16.778   7.364
 6149POPC   C1B77515   6.821  16.933   6.464
 6149POPC   C2B77516   6.790  16.946   6.764
 6149POPC   C3B77517   6.820  16.990   7.064
 6149POPC   C4B77518   6.800  16.987   7.364
 6150POPC   NC377519  12.079  36.088   5.564
 6150POPC   PO477520  12.073  36.159   5.864
 6150POPC   GL177521  12.049  36.133   6.164
 6150POPC   GL277522  11.956  36.112   6.164
 6150POPC   C1A77523  12.097  36.142   6.464
 6150POPC   D2A77524  12.103  36.094   6.764
 6150POPC   C3A77525  12.121  36.129   7.064
 6150POPC   C4A77526  12.110  36.119   7.364
 6150POPC   C1B77527  11.864  35.982   6.464
 6150POPC   C2B77528  11.813  36.006   6.764
 6150POPC   C3B77529  11.887  35.960   7.064
 6150POPC   C4B77530  11.906  35.996   7.364
 6151POPC   NC377531  12.112   8.973   5.564
 6151POPC   PO477532  12.029   8.970   5.864
 6151POPC   GL177533  12.110   8.995   6.164
 6151POPC   GL277534  12.228   9.011   6.164
 6151POPC   C1A77535  12.088   8.935   6.464
 6151POPC   D2A77536  12.085   8.983   6.764
 6151POPC   C3A77537  12.110   9.004   7.064
 6151POPC   C4A77538  12.056   8.955   7.364
 6151POPC   C1B77539  12.243   9.071   6.464
 6151POPC   C2B77540  12.328   9.082   6.764
 6151POPC   C3B77541  12.321   9.124   7.064
 6151POPC   C4B77542  12.304   9.102   7.364
 6152POPC   NC377543  44.712  32.998   5.564
 6152POPC   PO477544  44.687  32.976   5.864
 6152POPC   GL177545  44.677  33.004   6.164
 6152POPC   GL277546  44.513  33.025   6.164
 6152POPC   C1A77547  44.693  32.981   6.464
 6152POPC   D2A77548  44.630  32.987   6.764
 6152POPC   C3A77549  44.698  33.017   7.064
 6152POPC   C4A77550  44.708  33.008   7.364
 6152POPC   C1B77551  44.389  32.980   6.464
 6152POPC   C2B77552  44.458  33.000   6.764
 6152POPC   C3B77553  44.442  32.939   7.064
 6152POPC   C4B77554  44.420  32.999   7.364
 6153POPC   NC377555  22.966   4.346   5.564
 6153POPC   PO477556  22.978   4.350   5.864
 6153POPC   GL177557  22.963   4.287   6.164
 6153POPC   GL277558  22.842   4.285   6.164
 6153POPC   C1A77559  22.947   4.328   6.464
 6153POPC   D2A77560  22.920   4.277   6.764
 6153POPC   C3A77561  22.905   4.349   7.064
 6153POPC   C4A77562  22.959   4.316   7.364
 6153POPC   C1B77563  22.687   4.356   6.464
 6153POPC   C2B77564  22.705   4.323   6.764
 6153POPC   C3B77565  22.672   4.375   7.064
 6153POPC   C4B77566  22.732   4.356   7.364
 6154POPC   NC377567  25.238  22.183   5.564
 6154POPC   PO477568  25.300  22.160   5.864
 6154POPC   GL177569  25.286  22.121   6.164
 6154POPC   GL277570  25.122  22.177   6.164
 6154POPC   C1A77571  25.270  22.175   6.464
 6154POPC   D2A77572  25.278  22.200   6.764
 6154POPC   C3A77573  25.271  22.174   7.064
 6154POPC   C4A77574  25.224  22.186   7.364
 6154POPC   C1B77575  25.032  22.286   6.464
 6154POPC   C2B77576  25.026  22.239   6.764
 6154POPC   C3B77577  25.056  22.253   7.064
 6154POPC   C4B77578  25.050  22.261   7.364
 6155POPC   NC377579  22.160  20.621   5.564
 6155POPC   PO477580  22.155  20.576   5.864
 6155POPC   GL177581  22.176  20.594   6.164
 6155POPC   GL277582  22.160  20.686   6.164
 6155POPC   C1A77583  22.133  20.615   6.464
 6155POPC   D2A77584  22.212  20.647   6.764
 6155POPC   C3A77585  22.193  20.600   7.064
 6155POPC   C4A77586  22.125  20.633   7.364
 6155POPC   C1B77587  22.170  20.859   6.464
 6155POPC   C2B77588  22.248  20.897   6.764
 6155POPC   C3B77589  22.249  20.857   7.064
 6155POPC   C4B77590  22.242  20.805   7.364
 6156POPC   NC377591  30.746   9.735   5.564
 6156POPC   PO477592  30.728   9.753   5.864
 6156POPC   GL177593  30.651   9.726   6.164
 6156POPC   GL277594  30.642   9.840   6.164
 6156POPC   C1A77595  30.671   9.727   6.464
 6156POPC   D2A77596  30.687   9.766   6.764
 6156POPC   C3A77597  30.717   9.760   7.064
 6156POPC   C4A77598  30.708   9.746   7.364
 6156POPC   C1B77599  30.548   9.875   6.464
 6156POPC   C2B77600  30.559   9.958   6.764
 6156POPC   C3B77601  30.549   9.901   7.064
 6156POPC   C4B77602  30.468   9.892   7.364
 6157POPC   NC377603   5.082   0.432   5.564
 6157POPC   PO477604   5.081   0.476   5.864
 6157POPC   GL177605   5.118   0.473   6.164
 6157POPC   GL277606   5.029   0.540   6.164
 6157POPC   C1A77607   5.126   0.443   6.464
 6157POPC   D2A77608   5.070   0.426   6.764
 6157POPC   C3A77609   5.083   0.474   7.064
 6157POPC   C4A77610   5.140   0.397   7.364
 6157POPC   C1B77611   4.905   0.509   6.464
 6157POPC   C2B77612   4.876   0.569   6.764
 6157POPC   C3B77613   4.919   0.585   7.064
 6157POPC   C4B77614   4.831   0.527   7.364
 6158POPC   NC377615  39.273   0.426   5.564
 6158POPC   PO477616  39.210   0.447   5.864
 6158POPC   GL177617  39.278   0.394   6.164
 6158POPC   GL277618  39.119   0.459   6.164
 6158POPC   C1A77619  39.202   0.458   6.464
 6158POPC   D2A77620  39.185   0.461   6.764
 6158POPC   C3A77621  39.228   0.416   7.064
 6158POPC   C4A77622  39.200   0.482   7.364
 6158POPC   C1B77623  38.974   0.553   6.464
 6158POPC   C2B77624  38.995   0.549   6.764
 6158POPC   C3B77625  39.022   0.624   7.064
 6158POPC   C4B77626  39.042   0.576   7.364
 6159POPC   NC377627  15.149  33.849   5.564
 6159POPC   PO477628  15.198  33.837   5.864
 6159POPC   GL177629  15.171  33.772   6.164
 6159POPC   GL277630  15.224  33.899   6.164
 6159POPC   C1A77631  15.144  33.838   6.464
 6159POPC   D2A77632  15.206  33.826   6.764
 6159POPC   C3A77633  15.143  33.769   7.064
 6159POPC   C4A77634  15.134  33.753   7.364
 6159POPC   C1B77635  15.295  34.067   6.464
 6159POPC   C2B77636  15.291  34.002   6.764
 6159POPC   C3B77637  15.301  34.008   7.064
 6159POPC   C4B77638  15.323  33.985   7.364
 6160POPC   NC377639  21.398  12.818   5.564
 6160POPC   PO477640  21.374  12.868   5.864
 6160POPC   GL177641  21.345  12.894   6.164
 6160POPC   GL277642  21.376  13.012   6.164
 6160POPC   C1A77643  21.345  12.866   6.464
 6160POPC   D2A77644  21.349  12.861   6.764
 6160POPC   C3A77645  21.423  12.819   7.064
 6160POPC   C4A77646  21.384  12.822   7.364
 6160POPC   C1B77647  21.281  13.044   6.464
 6160POPC   C2B77648  21.330  13.054   6.764
 6160POPC   C3B77649  21.329  13.050   7.064
 6160POPC   C4B77650  21.292  13.078   7.364
 6161POPC   NC377651  17.504  33.783   5.564
 6161POPC   PO477652  17.535  33.796   5.864
 6161POPC   GL177653  17.473  33.754   6.164
 6161POPC   GL277654  17.592  33.775   6.164
 6161POPC   C1A77655  17.516  33.838   6.464
 6161POPC   D2A77656  17.525  33.801   6.764
 6161POPC   C3A77657  17.533  33.760   7.064
 6161POPC   C4A77658  17.539  33.843   7.364
 6161POPC   C1B77659  17.752  33.675   6.464
 6161POPC   C2B77660  17.754  33.716   6.764
 6161POPC   C3B77661  17.743  33.662   7.064
 6161POPC   C4B77662  17.692  33.687   7.364
 6162POPC   NC377663  43.079  22.139   5.564
 6162POPC   PO477664  43.127  22.133   5.864
 6162POPC   GL177665  43.080  22.147   6.164
 6162POPC   GL277666  43.234  22.048   6.164
 6162POPC   C1A77667  43.102  22.117   6.464
 6162POPC   D2A77668  43.137  22.189   6.764
 6162POPC   C3A77669  43.142  22.149   7.064
 6162POPC   C4A77670  43.098  22.142   7.364
 6162POPC   C1B77671  43.315  22.006   6.464
 6162POPC   C2B77672  43.267  22.022   6.764
 6162POPC   C3B77673  43.236  21.968   7.064
 6162POPC   C4B77674  43.296  21.958   7.364
 6163POPC   NC377675  19.826   8.197   5.564
 6163POPC   PO477676  19.874   8.154   5.864
 6163POPC   GL177677  19.815   8.210   6.164
 6163POPC   GL277678  19.936   8.308   6.164
 6163POPC   C1A77679  19.841   8.157   6.464
 6163POPC   D2A77680  19.862   8.235   6.764
 6163POPC   C3A77681  19.828   8.205   7.064
 6163POPC   C4A77682  19.801   8.153   7.364
 6163POPC   C1B77683  20.024   8.388   6.464
 6163POPC   C2B77684  20.054   8.402   6.764
 6163POPC   C3B77685  19.994   8.397   7.064
 6163POPC   C4B77686  20.019   8.337   7.364
 6164POPC   NC377687   1.216   7.371   5.564
 6164POPC   PO477688   1.171   7.379   5.864
 6164POPC   GL177689   1.233   7.440   6.164
 6164POPC   GL277690   1.324   7.489   6.164
 6164POPC   C1A77691   1.166   7.371   6.464
 6164POPC   D2A77692   1.202   7.461   6.764
 6164POPC   C3A77693   1.260   7.417   7.064
 6164POPC   C4A77694   1.204   7.446   7.364
 6164POPC   C1B77695   1.404   7.451   6.464
 6164POPC   C2B77696   1.434   7.509   6.764
 6164POPC   C3B77697   1.436   7.467   7.064
 6164POPC   C4B77698   1.451   7.508   7.364
 6165POPC   NC377699  12.891   5.086   5.564
 6165POPC   PO477700  12.821   5.121   5.864
 6165POPC   GL177701  12.814   5.085   6.164
 6165POPC   GL277702  12.791   5.197   6.164
 6165POPC   C1A77703  12.890   5.101   6.464
 6165POPC   D2A77704  12.846   5.059   6.764
 6165POPC   C3A77705  12.806   5.090   7.064
 6165POPC   C4A77706  12.822   5.049   7.364
 6165POPC   C1B77707  12.797   5.354   6.464
 6165POPC   C2B77708  12.730   5.355   6.764
 6165POPC   C3B77709  12.784   5.375   7.064
 6165POPC   C4B77710  12.743   5.294   7.364
 6166POPC   NC377711  19.853  36.886   5.564
 6166POPC   PO477712  19.835  36.949   5.864
 6166POPC   GL177713  19.874  36.913   6.164
 6166POPC   GL277714  19.738  36.884   6.164
 6166POPC   C1A77715  19.830  36.941   6.464
 6166POPC   D2A77716  19.804  36.950   6.764
 6166POPC   C3A77717  19.833  36.884   7.064
 6166POPC   C4A77718  19.813  36.937   7.364
 6166POPC   C1B77719  19.654  36.825   6.464
 6166POPC   C2B77720  19.570  36.802   6.764
 6166POPC   C3B77721  19.574  36.769   7.064
 6166POPC   C4B77722  19.602  36.748   7.364
 6167POPC   NC377723  30.745  15.966   5.564
 6167POPC   PO477724  30.740  15.942   5.864
 6167POPC   GL177725  30.727  15.967   6.164
 6167POPC   GL277726  30.817  15.982   6.164
 6167POPC   C1A77727  30.689  15.984   6.464
 6167POPC   D2A77728  30.676  16.004   6.764
 6167POPC   C3A77729  30.697  15.924   7.064
 6167POPC   C4A77730  30.732  15.983   7.364
 6167POPC   C1B77731  30.903  15.983   6.464
 6167POPC   C2B77732  30.930  16.038   6.764
 6167POPC   C3B77733  30.934  16.058   7.064
 6167POPC   C4B77734  30.976  16.070   7.364
 6168POPC   NC377735  28.341   8.931   5.564
 6168POPC   PO477736  28.354   9.017   5.864
 6168POPC   GL177737  28.349   9.004   6.164
 6168POPC   GL277738  28.223   9.051   6.164
 6168POPC   C1A77739  28.372   9.011   6.464
 6168POPC   D2A77740  28.368   8.969   6.764
 6168POPC   C3A77741  28.384   8.990   7.064
 6168POPC   C4A77742  28.341   9.007   7.364
 6168POPC   C1B77743  28.138   9.042   6.464
 6168POPC   C2B77744  28.124   9.025   6.764
 6168POPC   C3B77745  28.125   9.020   7.064
 6168POPC   C4B77746  28.117   9.036   7.364
 6169POPC   NC377747  33.813  27.556   5.564
 6169POPC   PO477748  33.837  27.578   5.864
 6169POPC   GL177749  33.831  27.635   6.164
 6169POPC   GL277750  33.716  27.676   6.164
 6169POPC   C1A77751  33.795  27.553   6.464
 6169POPC   D2A77752  33.789  27.631   6.764
 6169POPC   C3A77753  33.783  27.623   7.064
 6169POPC   C4A77754  33.764  27.629   7.364
 6169POPC   C1B77755  33.554  27.678   6.464
 6169POPC   C2B77756  33.583  27.639   6.764
 6169POPC   C3B77757  33.606  27.675   7.064
 6169POPC   C4B77758  33.547  27.639   7.364
 6170POPC   NC377759  30.710  32.980   5.564
 6170POPC   PO477760  30.723  33.003   5.864
 6170POPC   GL177761  30.686  32.995   6.164
 6170POPC   GL277762  30.592  33.145   6.164
 6170POPC   C1A77763  30.722  32.975   6.464
 6170POPC   D2A77764  30.675  33.032   6.764
 6170POPC   C3A77765  30.649  33.065   7.064
 6170POPC   C4A77766  30.672  33.030   7.364
 6170POPC   C1B77767  30.503  33.224   6.464
 6170POPC   C2B77768  30.484  33.249   6.764
 6170POPC   C3B77769  30.517  33.194   7.064
 6170POPC   C4B77770  30.531  33.256   7.364
 6171POPC   NC377771  30.676  26.070   5.564
 6171POPC   PO477772  30.725  26.075   5.864
 6171POPC   GL177773  30.684  25.994   6.164
 6171POPC   GL277774  30.735  25.915   6.164
 6171POPC   C1A77775  30.666  26.066   6.464
 6171POPC   D2A77776  30.731  26.020   6.764
 6171POPC   C3A77777  30.682  26.087   7.064
 6171POPC   C4A77778  30.745  26.041   7.364
 6171POPC   C1B77779  30.734  25.767   6.464
 6171POPC   C2B77780  30.694  25.832   6.764
 6171POPC   C3B77781  30.728  25.778   7.064
 6171POPC   C4B77782  30.710  25.777   7.364
 6172POPC   NC377783  18.242  36.154   5.564
 6172POPC   PO477784  18.247  36.107   5.864
 6172POPC   GL177785  18.241  36.079   6.164
 6172POPC   GL277786  18.353  36.065   6.164
 6172POPC   C1A77787  18.257  36.166   6.464
 6172POPC   D2A77788  18.283  36.140   6.764
 6172POPC   C3A77789  18.313  36.086   7.064
 6172POPC   C4A77790  18.322  36.135   7.364
 6172POPC   C1B77791  18.383  35.917   6.464
 6172POPC   C2B77792  18.406  35.927   6.764
 6172POPC   C3B77793  18.417  35.892   7.064
 6172POPC   C4B77794  18.372  35.948   7.364
 6173POPC   NC377795   1.168  30.737   5.564
 6173POPC   PO477796   1.171  30.746   5.864
 6173POPC   GL177797   1.250  30.742   6.164
 6173POPC   GL277798   1.370  30.751   6.164
 6173POPC   C1A77799   1.202  30.678   6.464
 6173POPC   D2A77800   1.217  30.671   6.764
 6173POPC   C3A77801   1.237  30.697   7.064
 6173POPC   C4A77802   1.204  30.720   7.364
 6173POPC   C1B77803   1.499  30.703   6.464
 6173POPC   C2B77804   1.480  30.741   6.764
 6173POPC   C3B77805   1.492  30.721   7.064
 6173POPC   C4B77806   1.511  30.698   7.364
 6174POPC   NC377807   0.464  40.017   5.564
 6174POPC   PO477808   0.434  40.043   5.864
 6174POPC   GL177809   0.415  39.967   6.164
 6174POPC   GL277810   0.399  39.910   6.164
 6174POPC   C1A77811   0.459  40.013   6.464
 6174POPC   D2A77812   0.471  40.002   6.764
 6174POPC   C3A77813   0.396  39.980   7.064
 6174POPC   C4A77814   0.397  40.020   7.364
 6174POPC   C1B77815   0.343  39.810   6.464
 6174POPC   C2B77816   0.322  39.768   6.764
 6174POPC   C3B77817   0.359  39.819   7.064
 6174POPC   C4B77818   0.311  39.785   7.364
 6175POPC   NC377819  40.055   0.436   5.564
 6175POPC   PO477820  40.016   0.430   5.864
 6175POPC   GL177821  40.050   0.433   6.164
 6175POPC   GL277822  40.103   0.468   6.164
 6175POPC   C1A77823  40.031   0.438   6.464
 6175POPC   D2A77824  39.973   0.456   6.764
 6175POPC   C3A77825  40.023   0.405   7.064
 6175POPC   C4A77826  39.959   0.408   7.364
 6175POPC   C1B77827  40.273   0.483   6.464
 6175POPC   C2B77828  40.255   0.523   6.764
 6175POPC   C3B77829  40.285   0.527   7.064
 6175POPC   C4B77830  40.274   0.500   7.364
 6176POPC   NC377831  10.570  33.056   5.564
 6176POPC   PO477832  10.496  33.037   5.864
 6176POPC   GL177833  10.511  33.004   6.164
 6176POPC   GL277834  10.434  33.076   6.164
 6176POPC   C1A77835  10.562  32.989   6.464
 6176POPC   D2A77836  10.525  33.025   6.764
 6176POPC   C3A77837  10.511  33.026   7.064
 6176POPC   C4A77838  10.505  33.021   7.364
 6176POPC   C1B77839  10.284  33.076   6.464
 6176POPC   C2B77840  10.261  33.044   6.764
 6176POPC   C3B77841  10.255  33.112   7.064
 6176POPC   C4B77842  10.314  33.079   7.364
 6177POPC   NC377843  21.421  36.879   5.564
 6177POPC   PO477844  21.358  36.941   5.864
 6177POPC   GL177845  21.432  36.939   6.164
 6177POPC   GL277846  21.441  36.834   6.164
 6177POPC   C1A77847  21.403  36.875   6.464
 6177POPC   D2A77848  21.417  36.895   6.764
 6177POPC   C3A77849  21.394  36.949   7.064
 6177POPC   C4A77850  21.368  36.868   7.364
 6177POPC   C1B77851  21.450  36.676   6.464
 6177POPC   C2B77852  21.490  36.699   6.764
 6177POPC   C3B77853  21.473  36.665   7.064
 6177POPC   C4B77854  21.537  36.704   7.364
 6178POPC   NC377855  41.533  26.848   5.564
 6178POPC   PO477856  41.604  26.863   5.864
 6178POPC   GL177857  41.518  26.781   6.164
 6178POPC   GL277858  41.620  26.649   6.164
 6178POPC   C1A77859  41.546  26.819   6.464
 6178POPC   D2A77860  41.534  26.860   6.764
 6178POPC   C3A77861  41.594  26.792   7.064
 6178POPC   C4A77862  41.513  26.768   7.364
 6178POPC   C1B77863  41.632  26.605   6.464
 6178POPC   C2B77864  41.608  26.596   6.764
 6178POPC   C3B77865  41.677  26.556   7.064
 6178POPC   C4B77866  41.604  26.561   7.364
 6179POPC   NC377867  28.321  38.473   5.564
 6179POPC   PO477868  28.380  38.441   5.864
 6179POPC   GL177869  28.352  38.454   6.164
 6179POPC   GL277870  28.431  38.317   6.164
 6179POPC   C1A77871  28.372  38.500   6.464
 6179POPC   D2A77872  28.418  38.499   6.764
 6179POPC   C3A77873  28.381  38.464   7.064
 6179POPC   C4A77874  28.389  38.406   7.364
 6179POPC   C1B77875  28.589  38.311   6.464
 6179POPC   C2B77876  28.576  38.248   6.764
 6179POPC   C3B77877  28.572  38.294   7.064
 6179POPC   C4B77878  28.542  38.314   7.364
 6180POPC   NC377879  30.719  40.830   5.564
 6180POPC   PO477880  30.669  40.770   5.864
 6180POPC   GL177881  30.704  40.826   6.164
 6180POPC   GL277882  30.537  40.789   6.164
 6180POPC   C1A77883  30.708  40.797   6.464
 6180POPC   D2A77884  30.708  40.751   6.764
 6180POPC   C3A77885  30.669  40.826   7.064
 6180POPC   C4A77886  30.666  40.813   7.364
 6180POPC   C1B77887  30.422  40.821   6.464
 6180POPC   C2B77888  30.410  40.842   6.764
 6180POPC   C3B77889  30.459  40.894   7.064
 6180POPC   C4B77890  30.456  40.834   7.364
 6181POPC   NC377891  34.624  28.365   5.564
 6181POPC   PO477892  34.568  28.381   5.864
 6181POPC   GL177893  34.546  28.342   6.164
 6181POPC   GL277894  34.672  28.477   6.164
 6181POPC   C1A77895  34.564  28.377   6.464
 6181POPC   D2A77896  34.598  28.362   6.764
 6181POPC   C3A77897  34.548  28.368   7.064
 6181POPC   C4A77898  34.587  28.342   7.364
 6181POPC   C1B77899  34.656  28.636   6.464
 6181POPC   C2B77900  34.714  28.563   6.764
 6181POPC   C3B77901  34.630  28.581   7.064
 6181POPC   C4B77902  34.714  28.593   7.364
 6182POPC   NC377903  21.426  22.892   5.564
 6182POPC   PO477904  21.358  22.952   5.864
 6182POPC   GL177905  21.395  22.948   6.164
 6182POPC   GL277906  21.251  22.870   6.164
 6182POPC   C1A77907  21.416  22.963   6.464
 6182POPC   D2A77908  21.337  22.954   6.764
 6182POPC   C3A77909  21.360  22.968   7.064
 6182POPC   C4A77910  21.425  22.975   7.364
 6182POPC   C1B77911  21.176  22.763   6.464
 6182POPC   C2B77912  21.181  22.797   6.764
 6182POPC   C3B77913  21.223  22.749   7.064
 6182POPC   C4B77914  21.177  22.829   7.364
 6183POPC   NC377915  36.079  12.889   5.564
 6183POPC   PO477916  36.120  12.865   5.864
 6183POPC   GL177917  36.119  12.820   6.164
 6183POPC   GL277918  36.255  12.862   6.164
 6183POPC   C1A77919  36.141  12.898   6.464
 6183POPC   D2A77920  36.156  12.833   6.764
 6183POPC   C3A77921  36.109  12.893   7.064
 6183POPC   C4A77922  36.176  12.883   7.364
 6183POPC   C1B77923  36.362  12.949   6.464
 6183POPC   C2B77924  36.387  12.916   6.764
 6183POPC   C3B77925  36.353  12.954   7.064
 6183POPC   C4B77926  36.407  12.974   7.364
 6184POPC   NC377927   0.485   6.633   5.564
 6184POPC   PO477928   0.458   6.625   5.864
 6184POPC   GL177929   0.418   6.603   6.164
 6184POPC   GL277930   0.537   6.704   6.164
 6184POPC   C1A77931   0.402   6.612   6.464
 6184POPC   D2A77932   0.415   6.640   6.764
 6184POPC   C3A77933   0.449   6.657   7.064
 6184POPC   C4A77934   0.444   6.636   7.364
 6184POPC   C1B77935   0.611   6.805   6.464
 6184POPC   C2B77936   0.616   6.831   6.764
 6184POPC   C3B77937   0.633   6.832   7.064
 6184POPC   C4B77938   0.608   6.755   7.364
 6185POPC   NC377939  11.316   7.430   5.564
 6185POPC   PO477940  11.266   7.453   5.864
 6185POPC   GL177941  11.287   7.410   6.164
 6185POPC   GL277942  11.422   7.408   6.164
 6185POPC   C1A77943  11.332   7.451   6.464
 6185POPC   D2A77944  11.267   7.434   6.764
 6185POPC   C3A77945  11.342   7.443   7.064
 6185POPC   C4A77946  11.321   7.380   7.364
 6185POPC   C1B77947  11.553   7.345   6.464
 6185POPC   C2B77948  11.527   7.390   6.764
 6185POPC   C3B77949  11.518   7.297   7.064
 6185POPC   C4B77950  11.517   7.334   7.364
 6186POPC   NC377951  27.622  24.491   5.564
 6186POPC   PO477952  27.585  24.448   5.864
 6186POPC   GL177953  27.572  24.520   6.164
 6186POPC   GL277954  27.572  24.649   6.164
 6186POPC   C1A77955  27.556  24.477   6.464
 6186POPC   D2A77956  27.641  24.534   6.764
 6186POPC   C3A77957  27.625  24.489   7.064
 6186POPC   C4A77958  27.558  24.505   7.364
 6186POPC   C1B77959  27.505  24.774   6.464
 6186POPC   C2B77960  27.498  24.702   6.764
 6186POPC   C3B77961  27.493  24.736   7.064
 6186POPC   C4B77962  27.557  24.678   7.364
 6187POPC   NC377963  29.925  22.894   5.564
 6187POPC   PO477964  29.882  22.897   5.864
 6187POPC   GL177965  29.930  22.966   6.164
 6187POPC   GL277966  30.018  22.801   6.164
 6187POPC   C1A77967  29.889  22.931   6.464
 6187POPC   D2A77968  29.969  22.961   6.764
 6187POPC   C3A77969  29.926  22.945   7.064
 6187POPC   C4A77970  29.941  22.932   7.364
 6187POPC   C1B77971  30.044  22.708   6.464
 6187POPC   C2B77972  30.066  22.711   6.764
 6187POPC   C3B77973  30.036  22.672   7.064
 6187POPC   C4B77974  30.027  22.673   7.364
 6188POPC   NC377975   9.774  29.947   5.564
 6188POPC   PO477976   9.797  29.888   5.864
 6188POPC   GL177977   9.773  29.895   6.164
 6188POPC   GL277978   9.887  29.947   6.164
 6188POPC   C1A77979   9.766  29.938   6.464
 6188POPC   D2A77980   9.761  29.940   6.764
 6188POPC   C3A77981   9.792  29.956   7.064
 6188POPC   C4A77982   9.743  29.940   7.364
 6188POPC   C1B77983   9.983  29.978   6.464
 6188POPC   C2B77984   9.936  30.042   6.764
 6188POPC   C3B77985   9.934  30.058   7.064
 6188POPC   C4B77986   9.984  30.015   7.364
 6189POPC   NC377987  23.735   2.756   5.564
 6189POPC   PO477988  23.699   2.806   5.864
 6189POPC   GL177989  23.742   2.725   6.164
 6189POPC   GL277990  23.848   2.795   6.164
 6189POPC   C1A77991  23.666   2.757   6.464
 6189POPC   D2A77992  23.696   2.757   6.764
 6189POPC   C3A77993  23.674   2.733   7.064
 6189POPC   C4A77994  23.703   2.806   7.364
 6189POPC   C1B77995  23.985   2.874   6.464
 6189POPC   C2B77996  23.939   2.836   6.764
 6189POPC   C3B77997  23.939   2.847   7.064
 6189POPC   C4B77998  23.918   2.831   7.364
 6190POPC   NC377999  43.927  44.677   5.564
 6190POPC   PO478000  43.915  44.692   5.864
 6190POPC   GL178001  43.902  44.613   6.164
 6190POPC   GL278002  43.749  44.573   6.164
 6190POPC   C1A78003  43.865  44.693   6.464
 6190POPC   D2A78004  43.891  44.689   6.764
 6190POPC   C3A78005  43.841  44.648   7.064
 6190POPC   C4A78006  43.895  44.636   7.364
 6190POPC   C1B78007  43.676  44.495   6.464
 6190POPC   C2B78008  43.703  44.565   6.764
 6190POPC   C3B78009  43.626  44.563   7.064
 6190POPC   C4B78010  43.670  44.516   7.364
 6191POPC   NC378011  42.292  25.267   5.564
 6191POPC   PO478012  42.345  25.245   5.864
 6191POPC   GL178013  42.373  25.257   6.164
 6191POPC   GL278014  42.435  25.344   6.164
 6191POPC   C1A78015  42.384  25.265   6.464
 6191POPC   D2A78016  42.317  25.234   6.764
 6191POPC   C3A78017  42.336  25.273   7.064
 6191POPC   C4A78018  42.285  25.315   7.364
 6191POPC   C1B78019  42.608  25.340   6.464
 6191POPC   C2B78020  42.574  25.335   6.764
 6191POPC   C3B78021  42.534  25.345   7.064
 6191POPC   C4B78022  42.592  25.375   7.364
 6192POPC   NC378023  33.033  17.478   5.564
 6192POPC   PO478024  33.071  17.489   5.864
 6192POPC   GL178025  33.000  17.460   6.164
 6192POPC   GL278026  32.948  17.589   6.164
 6192POPC   C1A78027  33.036  17.503   6.464
 6192POPC   D2A78028  32.981  17.504   6.764
 6192POPC   C3A78029  33.027  17.463   7.064
 6192POPC   C4A78030  32.987  17.491   7.364
 6192POPC   C1B78031  32.965  17.768   6.464
 6192POPC   C2B78032  33.005  17.786   6.764
 6192POPC   C3B78033  32.944  17.720   7.064
 6192POPC   C4B78034  33.008  17.798   7.364
 6193POPC   NC378035  19.785  38.503   5.564
 6193POPC   PO478036  19.823  38.491   5.864
 6193POPC   GL178037  19.877  38.428   6.164
 6193POPC   GL278038  19.962  38.402   6.164
 6193POPC   C1A78039  19.807  38.482   6.464
 6193POPC   D2A78040  19.811  38.489   6.764
 6193POPC   C3A78041  19.875  38.430   7.064
 6193POPC   C4A78042  19.867  38.476   7.364
 6193POPC   C1B78043  19.976  38.313   6.464
 6193POPC   C2B78044  19.987  38.319   6.764
 6193POPC   C3B78045  20.005  38.275   7.064
 6193POPC   C4B78046  19.989  38.265   7.364
 6194POPC   NC378047  22.166  25.231   5.564
 6194POPC   PO478048  22.138  25.250   5.864
 6194POPC   GL178049  22.145  25.218   6.164
 6194POPC   GL278050  22.119  25.384   6.164
 6194POPC   C1A78051  22.129  25.218   6.464
 6194POPC   D2A78052  22.211  25.304   6.764
 6194POPC   C3A78053  22.157  25.304   7.064
 6194POPC   C4A78054  22.159  25.256   7.364
 6194POPC   C1B78055  22.012  25.435   6.464
 6194POPC   C2B78056  21.940  25.430   6.764
 6194POPC   C3B78057  22.021  25.455   7.064
 6194POPC   C4B78058  22.009  25.462   7.364
 6195POPC   NC378059   9.771  36.922   5.564
 6195POPC   PO478060   9.737  36.886   5.864
 6195POPC   GL178061   9.714  36.894   6.164
 6195POPC   GL278062   9.764  37.053   6.164
 6195POPC   C1A78063   9.714  36.900   6.464
 6195POPC   D2A78064   9.760  36.895   6.764
 6195POPC   C3A78065   9.715  36.870   7.064
 6195POPC   C4A78066   9.734  36.926   7.364
 6195POPC   C1B78067   9.818  37.120   6.464
 6195POPC   C2B78068   9.815  37.117   6.764
 6195POPC   C3B78069   9.811  37.179   7.064
 6195POPC   C4B78070   9.760  37.180   7.364
 6196POPC   NC378071   9.755   5.846   5.564
 6196POPC   PO478072   9.757   5.919   5.864
 6196POPC   GL178073   9.740   5.847   6.164
 6196POPC   GL278074   9.670   5.911   6.164
 6196POPC   C1A78075   9.727   5.904   6.464
 6196POPC   D2A78076   9.717   5.871   6.764
 6196POPC   C3A78077   9.734   5.904   7.064
 6196POPC   C4A78078   9.708   5.849   7.364
 6196POPC   C1B78079   9.542   5.999   6.464
 6196POPC   C2B78080   9.539   5.977   6.764
 6196POPC   C3B78081   9.578   5.993   7.064
 6196POPC   C4B78082   9.520   5.987   7.364
 6197POPC   NC378083  40.037  40.765   5.564
 6197POPC   PO478084  40.014  40.815   5.864
 6197POPC   GL178085  39.997  40.758   6.164
 6197POPC   GL278086  40.023  40.651   6.164
 6197POPC   C1A78087  39.960  40.779   6.464
 6197POPC   D2A78088  40.013  40.805   6.764
 6197POPC   C3A78089  40.054  40.817   7.064
 6197POPC   C4A78090  39.961  40.769   7.364
 6197POPC   C1B78091  40.041  40.523   6.464
 6197POPC   C2B78092  40.010  40.563   6.764
 6197POPC   C3B78093  40.091  40.521   7.064
 6197POPC   C4B78094  40.067  40.557   7.364
 6198POPC   NC378095  29.931  39.974   5.564
 6198POPC   PO478096  29.911  40.032   5.864
 6198POPC   GL178097  29.890  40.049   6.164
 6198POPC   GL278098  29.911  40.168   6.164
 6198POPC   C1A78099  29.957  39.982   6.464
 6198POPC   D2A78100  29.944  40.027   6.764
 6198POPC   C3A78101  29.921  39.983   7.064
 6198POPC   C4A78102  29.930  40.056   7.364
 6198POPC   C1B78103  29.872  40.227   6.464
 6198POPC   C2B78104  29.945  40.295   6.764
 6198POPC   C3B78105  29.867  40.272   7.064
 6198POPC   C4B78106  29.902  40.270   7.364
 6199POPC   NC378107  36.935  26.824   5.564
 6199POPC   PO478108  36.873  26.858   5.864
 6199POPC   GL178109  36.932  26.784   6.164
 6199POPC   GL278110  36.958  26.716   6.164
 6199POPC   C1A78111  36.891  26.855   6.464
 6199POPC   D2A78112  36.952  26.815   6.764
 6199POPC   C3A78113  36.874  26.774   7.064
 6199POPC   C4A78114  36.932  26.831   7.364
 6199POPC   C1B78115  37.057  26.649   6.464
 6199POPC   C2B78116  37.137  26.625   6.764
 6199POPC   C3B78117  37.115  26.704   7.064
 6199POPC   C4B78118  37.089  26.621   7.364
 6200POPC   NC378119  35.338   9.730   5.564
 6200POPC   PO478120  35.335   9.793   5.864
 6200POPC   GL178121  35.366   9.776   6.164
 6200POPC   GL278122  35.319   9.861   6.164
 6200POPC   C1A78123  35.344   9.773   6.464
 6200POPC   D2A78124  35.315   9.747   6.764
 6200POPC   C3A78125  35.348   9.720   7.064
 6200POPC   C4A78126  35.396   9.724   7.364
 6200POPC   C1B78127  35.287   9.989   6.464
 6200POPC   C2B78128  35.308  10.038   6.764
 6200POPC   C3B78129  35.280   9.954   7.064
 6200POPC   C4B78130  35.320  10.002   7.364
 6201POPC   NC378131  27.637  28.372   5.564
 6201POPC   PO478132  27.603  28.418   5.864
 6201POPC   GL178133  27.562  28.383   6.164
 6201POPC   GL278134  27.648  28.199   6.164
 6201POPC   C1A78135  27.619  28.417   6.464
 6201POPC   D2A78136  27.578  28.390   6.764
 6201POPC   C3A78137  27.579  28.399   7.064
 6201POPC   C4A78138  27.630  28.399   7.364
 6201POPC   C1B78139  27.620  28.092   6.464
 6201POPC   C2B78140  27.653  28.170   6.764
 6201POPC   C3B78141  27.667  28.112   7.064
 6201POPC   C4B78142  27.642  28.096   7.364
 6202POPC   NC378143  44.658  23.754   5.564
 6202POPC   PO478144  44.694  23.724   5.864
 6202POPC   GL178145  44.693  23.684   6.164
 6202POPC   GL278146  44.523  23.651   6.164
 6202POPC   C1A78147  44.637  23.665   6.464
 6202POPC   D2A78148  44.629  23.750   6.764
 6202POPC   C3A78149  44.691  23.702   7.064
 6202POPC   C4A78150  44.640  23.664   7.364
 6202POPC   C1B78151  44.471  23.627   6.464
 6202POPC   C2B78152  44.374  23.681   6.764
 6202POPC   C3B78153  44.453  23.609   7.064
 6202POPC   C4B78154  44.384  23.626   7.364
 6203POPC   NC378155  35.374  26.844   5.564
 6203POPC   PO478156  35.313  26.861   5.864
 6203POPC   GL178157  35.352  26.845   6.164
 6203POPC   GL278158  35.247  26.782   6.164
 6203POPC   C1A78159  35.332  26.809   6.464
 6203POPC   D2A78160  35.353  26.791   6.764
 6203POPC   C3A78161  35.344  26.864   7.064
 6203POPC   C4A78162  35.350  26.788   7.364
 6203POPC   C1B78163  35.169  26.710   6.464
 6203POPC   C2B78164  35.097  26.659   6.764
 6203POPC   C3B78165  35.179  26.704   7.064
 6203POPC   C4B78166  35.133  26.707   7.364
 6204POPC   NC378167  16.685  24.527   5.564
 6204POPC   PO478168  16.699  24.507   5.864
 6204POPC   GL178169  16.750  24.529   6.164
 6204POPC   GL278170  16.826  24.626   6.164
 6204POPC   C1A78171  16.697  24.469   6.464
 6204POPC   D2A78172  16.720  24.537   6.764
 6204POPC   C3A78173  16.694  24.532   7.064
 6204POPC   C4A78174  16.756  24.471   7.364
 6204POPC   C1B78175  16.931  24.667   6.464
 6204POPC   C2B78176  16.885  24.647   6.764
 6204POPC   C3B78177  16.875  24.689   7.064
 6204POPC   C4B78178  16.946  24.618   7.364
 6205POPC   NC378179  31.489  19.072   5.564
 6205POPC   PO478180  31.474  19.023   5.864
 6205POPC   GL178181  31.473  19.101   6.164
 6205POPC   GL278182  31.485  19.174   6.164
 6205POPC   C1A78183  31.492  19.103   6.464
 6205POPC   D2A78184  31.468  19.047   6.764
 6205POPC   C3A78185  31.470  19.064   7.064
 6205POPC   C4A78186  31.496  19.075   7.364
 6205POPC   C1B78187  31.569  19.307   6.464
 6205POPC   C2B78188  31.598  19.327   6.764
 6205POPC   C3B78189  31.533  19.319   7.064
 6205POPC   C4B78190  31.614  19.336   7.364
 6206POPC   NC378191  36.169   0.435   5.564
 6206POPC   PO478192  36.158   0.487   5.864
 6206POPC   GL178193  36.144   0.393   6.164
 6206POPC   GL278194  36.218   0.378   6.164
 6206POPC   C1A78195  36.100   0.431   6.464
 6206POPC   D2A78196  36.111   0.475   6.764
 6206POPC   C3A78197  36.154   0.418   7.064
 6206POPC   C4A78198  36.083   0.466   7.364
 6206POPC   C1B78199  36.380   0.308   6.464
 6206POPC   C2B78200  36.360   0.364   6.764
 6206POPC   C3B78201  36.376   0.310   7.064
 6206POPC   C4B78202  36.368   0.302   7.364
 6207POPC   NC378203  27.593  44.688   5.564
 6207POPC   PO478204  27.574  44.653   5.864
 6207POPC   GL178205  27.563  44.684   6.164
 6207POPC   GL278206  27.480  44.643   6.164
 6207POPC   C1A78207  27.602  44.656   6.464
 6207POPC   D2A78208  27.605  44.652   6.764
 6207POPC   C3A78209  27.641  44.632   7.064
 6207POPC   C4A78210  27.607  44.634   7.364
 6207POPC   C1B78211  27.325  44.579   6.464
 6207POPC   C2B78212  27.341  44.584   6.764
 6207POPC   C3B78213  27.348  44.661   7.064
 6207POPC   C4B78214  27.385  44.645   7.364
 6208POPC   NC378215   9.790  44.700   5.564
 6208POPC   PO478216   9.708  44.684   5.864
 6208POPC   GL178217   9.762  44.658   6.164
 6208POPC   GL278218   9.636  44.692   6.164
 6208POPC   C1A78219   9.746  44.711   6.464
 6208POPC   D2A78220   9.708  44.633   6.764
 6208POPC   C3A78221   9.703  44.672   7.064
 6208POPC   C4A78222   9.780  44.680   7.364
 6208POPC   C1B78223   9.538  44.734   6.464
 6208POPC   C2B78224   9.568  44.806   6.764
 6208POPC   C3B78225   9.527  44.745   7.064
 6208POPC   C4B78226   9.485  44.725   7.364
 6209POPC   NC378227  12.817  29.899   5.564
 6209POPC   PO478228  12.823  29.874   5.864
 6209POPC   GL178229  12.846  29.909   6.164
 6209POPC   GL278230  12.895  30.070   6.164
 6209POPC   C1A78231  12.884  29.872   6.464
 6209POPC   D2A78232  12.862  29.964   6.764
 6209POPC   C3A78233  12.876  29.892   7.064
 6209POPC   C4A78234  12.806  29.937   7.364
 6209POPC   C1B78235  13.011  30.093   6.464
 6209POPC   C2B78236  12.994  30.183   6.764
 6209POPC   C3B78237  12.977  30.158   7.064
 6209POPC   C4B78238  12.980  30.139   7.364
 6210POPC   NC378239   0.447  15.201   5.564
 6210POPC   PO478240   0.408  15.168   5.864
 6210POPC   GL178241   0.476  15.227   6.164
 6210POPC   GL278242   0.572  15.134   6.164
 6210POPC   C1A78243   0.397  15.149   6.464
 6210POPC   D2A78244   0.456  15.226   6.764
 6210POPC   C3A78245   0.466  15.213   7.064
 6210POPC   C4A78246   0.426  15.196   7.364
 6210POPC   C1B78247   0.658  15.146   6.464
 6210POPC   C2B78248   0.647  15.164   6.764
 6210POPC   C3B78249   0.687  15.167   7.064
 6210POPC   C4B78250   0.685  15.157   7.364
 6211POPC   NC378251   7.467  29.105   5.564
 6211POPC   PO478252   7.439  29.152   5.864
 6211POPC   GL178253   7.425  29.167   6.164
 6211POPC   GL278254   7.499  29.027   6.164
 6211POPC   C1A78255   7.465  29.141   6.464
 6211POPC   D2A78256   7.420  29.130   6.764
 6211POPC   C3A78257   7.446  29.189   7.064
 6211POPC   C4A78258   7.375  29.136   7.364
 6211POPC   C1B78259   7.442  28.897   6.464
 6211POPC   C2B78260   7.505  28.868   6.764
 6211POPC   C3B78261   7.438  28.925   7.064
 6211POPC   C4B78262   7.447  28.896   7.364
 6212POPC   NC378263   1.180  31.428   5.564
 6212POPC   PO478264   1.181  31.488   5.864
 6212POPC   GL178265   1.179  31.503   6.164
 6212POPC   GL278266   1.130  31.385   6.164
 6212POPC   C1A78267   1.184  31.514   6.464
 6212POPC   D2A78268   1.250  31.450   6.764
 6212POPC   C3A78269   1.221  31.424   7.064
 6212POPC   C4A78270   1.203  31.478   7.364
 6212POPC   C1B78271   0.990  31.388   6.464
 6212POPC   C2B78272   1.043  31.339   6.764
 6212POPC   C3B78273   0.951  31.326   7.064
 6212POPC   C4B78274   0.971  31.331   7.364
 6213POPC   NC378275  39.183  40.826   5.564
 6213POPC   PO478276  39.278  40.815   5.864
 6213POPC   GL178277  39.245  40.767   6.164
 6213POPC   GL278278  39.302  40.884   6.164
 6213POPC   C1A78279  39.206  40.748   6.464
 6213POPC   D2A78280  39.212  40.808   6.764
 6213POPC   C3A78281  39.221  40.809   7.064
 6213POPC   C4A78282  39.189  40.764   7.364
 6213POPC   C1B78283  39.370  40.970   6.464
 6213POPC   C2B78284  39.450  40.926   6.764
 6213POPC   C3B78285  39.371  40.993   7.064
 6213POPC   C4B78286  39.448  40.998   7.364
 6214POPC   NC378287  44.624  27.591   5.564
 6214POPC   PO478288  44.659  27.605   5.864
 6214POPC   GL178289  44.667  27.611   6.164
 6214POPC   GL278290  44.806  27.615   6.164
 6214POPC   C1A78291  44.677  27.643   6.464
 6214POPC   D2A78292  44.711  27.573   6.764
 6214POPC   C3A78293  44.620  27.551   7.064
 6214POPC   C4A78294  44.676  27.544   7.364
 6214POPC   C1B78295  44.827  27.684   6.464
 6214POPC   C2B78296  44.900  27.723   6.764
 6214POPC   C3B78297  44.837  27.755   7.064
 6214POPC   C4B78298  44.849  27.777   7.364
 6215POPC   NC378299  44.650  10.486   5.564
 6215POPC   PO478300  44.708  10.549   5.864
 6215POPC   GL178301  44.645  10.573   6.164
 6215POPC   GL278302  44.749  10.629   6.164
 6215POPC   C1A78303  44.673  10.515   6.464
 6215POPC   D2A78304  44.668  10.501   6.764
 6215POPC   C3A78305  44.630  10.527   7.064
 6215POPC   C4A78306  44.631  10.474   7.364
 6215POPC   C1B78307  44.711  10.749   6.464
 6215POPC   C2B78308  44.725  10.743   6.764
 6215POPC   C3B78309  44.756  10.759   7.064
 6215POPC   C4B78310  44.719  10.739   7.364
 6216POPC   NC378311  25.997  43.091   5.564
 6216POPC   PO478312  26.081  43.078   5.864
 6216POPC   GL178313  26.049  43.103   6.164
 6216POPC   GL278314  25.968  43.002   6.164
 6216POPC   C1A78315  26.069  43.140   6.464
 6216POPC   D2A78316  26.028  43.100   6.764
 6216POPC   C3A78317  26.026  43.079   7.064
 6216POPC   C4A78318  26.019  43.123   7.364
 6216POPC   C1B78319  26.030  42.843   6.464
 6216POPC   C2B78320  25.987  42.883   6.764
 6216POPC   C3B78321  26.018  42.819   7.064
 6216POPC   C4B78322  25.961  42.862   7.364
 6217POPC   NC378323  32.265  34.558   5.564
 6217POPC   PO478324  32.217  34.561   5.864
 6217POPC   GL178325  32.260  34.603   6.164
 6217POPC   GL278326  32.385  34.630   6.164
 6217POPC   C1A78327  32.273  34.588   6.464
 6217POPC   D2A78328  32.273  34.595   6.764
 6217POPC   C3A78329  32.273  34.619   7.064
 6217POPC   C4A78330  32.270  34.548   7.364
 6217POPC   C1B78331  32.480  34.727   6.464
 6217POPC   C2B78332  32.414  34.734   6.764
 6217POPC   C3B78333  32.416  34.720   7.064
 6217POPC   C4B78334  32.448  34.724   7.364
 6218POPC   NC378335  42.369   1.174   5.564
 6218POPC   PO478336  42.338   1.203   5.864
 6218POPC   GL178337  42.376   1.172   6.164
 6218POPC   GL278338  42.500   1.253   6.164
 6218POPC   C1A78339  42.341   1.240   6.464
 6218POPC   D2A78340  42.309   1.166   6.764
 6218POPC   C3A78341  42.354   1.208   7.064
 6218POPC   C4A78342  42.381   1.232   7.364
 6218POPC   C1B78343  42.574   1.254   6.464
 6218POPC   C2B78344  42.522   1.299   6.764
 6218POPC   C3B78345  42.542   1.308   7.064
 6218POPC   C4B78346  42.525   1.245   7.364
 6219POPC   NC378347  30.705  44.655   5.564
 6219POPC   PO478348  30.724  44.689   5.864
 6219POPC   GL178349  30.734  44.631   6.164
 6219POPC   GL278350  30.614  44.536   6.164
 6219POPC   C1A78351  30.712  44.645   6.464
 6219POPC   D2A78352  30.653  44.691   6.764
 6219POPC   C3A78353  30.679  44.618   7.064
 6219POPC   C4A78354  30.708  44.660   7.364
 6219POPC   C1B78355  30.630  44.427   6.464
 6219POPC   C2B78356  30.603  44.427   6.764
 6219POPC   C3B78357  30.637  44.439   7.064
 6219POPC   C4B78358  30.568  44.428   7.364
 6220POPC   NC378359  10.517  37.691   5.564
 6220POPC   PO478360  10.498  37.698   5.864
 6220POPC   GL178361  10.476  37.714   6.164
 6220POPC   GL278362  10.526  37.542   6.164
 6220POPC   C1A78363  10.532  37.651   6.464
 6220POPC   D2A78364  10.500  37.701   6.764
 6220POPC   C3A78365  10.532  37.709   7.064
 6220POPC   C4A78366  10.571  37.641   7.364
 6220POPC   C1B78367  10.470  37.423   6.464
 6220POPC   C2B78368  10.467  37.472   6.764
 6220POPC   C3B78369  10.473  37.394   7.064
 6220POPC   C4B78370  10.483  37.451   7.364
 6221POPC   NC378371  40.055  33.022   5.564
 6221POPC   PO478372  39.985  33.013   5.864
 6221POPC   GL178373  40.023  33.069   6.164
 6221POPC   GL278374  39.848  33.085   6.164
 6221POPC   C1A78375  39.970  32.987   6.464
 6221POPC   D2A78376  40.055  32.993   6.764
 6221POPC   C3A78377  40.009  33.022   7.064
 6221POPC   C4A78378  40.048  32.991   7.364
 6221POPC   C1B78379  39.733  33.017   6.464
 6221POPC   C2B78380  39.751  33.011   6.764
 6221POPC   C3B78381  39.780  33.020   7.064
 6221POPC   C4B78382  39.732  33.074   7.364
 6222POPC   NC378383  22.134  43.917   5.564
 6222POPC   PO478384  22.143  43.892   5.864
 6222POPC   GL178385  22.170  43.914   6.164
 6222POPC   GL278386  22.243  43.836   6.164
 6222POPC   C1A78387  22.163  43.924   6.464
 6222POPC   D2A78388  22.187  43.860   6.764
 6222POPC   C3A78389  22.114  43.839   7.064
 6222POPC   C4A78390  22.152  43.839   7.364
 6222POPC   C1B78391  22.441  43.802   6.464
 6222POPC   C2B78392  22.440  43.795   6.764
 6222POPC   C3B78393  22.438  43.830   7.064
 6222POPC   C4B78394  22.399  43.817   7.364
 6223POPC   NC378395   3.589  43.935   5.564
 6223POPC   PO478396   3.555  43.933   5.864
 6223POPC   GL178397   3.529  43.931   6.164
 6223POPC   GL278398   3.649  43.989   6.164
 6223POPC   C1A78399   3.498  43.918   6.464
 6223POPC   D2A78400   3.495  43.854   6.764
 6223POPC   C3A78401   3.498  43.911   7.064
 6223POPC   C4A78402   3.561  43.933   7.364
 6223POPC   C1B78403   3.630  44.065   6.464
 6223POPC   C2B78404   3.652  44.102   6.764
 6223POPC   C3B78405   3.674  44.143   7.064
 6223POPC   C4B78406   3.699  44.057   7.364
 6224POPC   NC378407  12.056  34.551   5.564
 6224POPC   PO478408  12.070  34.617   5.864
 6224POPC   GL178409  12.050  34.594   6.164
 6224POPC   GL278410  12.135  34.656   6.164
 6224POPC   C1A78411  12.031  34.567   6.464
 6224POPC   D2A78412  12.082  34.557   6.764
 6224POPC   C3A78413  12.117  34.533   7.064
 6224POPC   C4A78414  12.065  34.597   7.364
 6224POPC   C1B78415  12.074  34.797   6.464
 6224POPC   C2B78416  12.129  34.846   6.764
 6224POPC   C3B78417  12.155  34.866   7.064
 6224POPC   C4B78418  12.151  34.793   7.364
 6225POPC   NC378419  14.414   3.553   5.564
 6225POPC   PO478420  14.374   3.493   5.864
 6225POPC   GL178421  14.371   3.537   6.164
 6225POPC   GL278422  14.263   3.480   6.164
 6225POPC   C1A78423  14.369   3.585   6.464
 6225POPC   D2A78424  14.428   3.557   6.764
 6225POPC   C3A78425  14.389   3.516   7.064
 6225POPC   C4A78426  14.447   3.538   7.364
 6225POPC   C1B78427  14.161   3.486   6.464
 6225POPC   C2B78428  14.140   3.491   6.764
 6225POPC   C3B78429  14.119   3.486   7.064
 6225POPC   C4B78430  14.169   3.512   7.364
 6226POPC   NC378431  37.727   0.462   5.564
 6226POPC   PO478432  37.702   0.403   5.864
 6226POPC   GL178433  37.711   0.415   6.164
 6226POPC   GL278434  37.682   0.599   6.164
 6226POPC   C1A78435  37.728   0.434   6.464
 6226POPC   D2A78436  37.652   0.460   6.764
 6226POPC   C3A78437  37.696   0.394   7.064
 6226POPC   C4A78438  37.678   0.403   7.364
 6226POPC   C1B78439  37.693   0.662   6.464
 6226POPC   C2B78440  37.662   0.692   6.764
 6226POPC   C3B78441  37.714   0.713   7.064
 6226POPC   C4B78442  37.753   0.705   7.364
 6227POPC   NC378443  42.292  11.284   5.564
 6227POPC   PO478444  42.335  11.258   5.864
 6227POPC   GL178445  42.352  11.326   6.164
 6227POPC   GL278446  42.331  11.154   6.164
 6227POPC   C1A78447  42.292  11.282   6.464
 6227POPC   D2A78448  42.315  11.344   6.764
 6227POPC   C3A78449  42.329  11.310   7.064
 6227POPC   C4A78450  42.307  11.323   7.364
 6227POPC   C1B78451  42.432  11.031   6.464
 6227POPC   C2B78452  42.423  11.018   6.764
 6227POPC   C3B78453  42.398  11.082   7.064
 6227POPC   C4B78454  42.459  11.059   7.364
 6228POPC   NC378455   3.544  12.082   5.564
 6228POPC   PO478456   3.509  12.050   5.864
 6228POPC   GL178457   3.525  12.095   6.164
 6228POPC   GL278458   3.563  12.148   6.164
 6228POPC   C1A78459   3.551  12.119   6.464
 6228POPC   D2A78460   3.497  12.035   6.764
 6228POPC   C3A78461   3.561  12.103   7.064
 6228POPC   C4A78462   3.586  12.059   7.364
 6228POPC   C1B78463   3.694  12.335   6.464
 6228POPC   C2B78464   3.676  12.265   6.764
 6228POPC   C3B78465   3.683  12.307   7.064
 6228POPC   C4B78466   3.678  12.286   7.364
 6229POPC   NC378467  39.966  31.455   5.564
 6229POPC   PO478468  39.982  31.445   5.864
 6229POPC   GL178469  39.991  31.513   6.164
 6229POPC   GL278470  39.902  31.493   6.164
 6229POPC   C1A78471  40.023  31.433   6.464
 6229POPC   D2A78472  40.032  31.510   6.764
 6229POPC   C3A78473  39.985  31.469   7.064
 6229POPC   C4A78474  39.962  31.512   7.364
 6229POPC   C1B78475  39.728  31.423   6.464
 6229POPC   C2B78476  39.742  31.404   6.764
 6229POPC   C3B78477  39.766  31.416   7.064
 6229POPC   C4B78478  39.740  31.440   7.364
 6230POPC   NC378479  15.951  28.357   5.564
 6230POPC   PO478480  15.986  28.361   5.864
 6230POPC   GL178481  15.915  28.324   6.164
 6230POPC   GL278482  15.853  28.289   6.164
 6230POPC   C1A78483  15.973  28.358   6.464
 6230POPC   D2A78484  15.984  28.372   6.764
 6230POPC   C3A78485  15.943  28.347   7.064
 6230POPC   C4A78486  15.937  28.403   7.364
 6230POPC   C1B78487  15.781  28.198   6.464
 6230POPC   C2B78488  15.759  28.248   6.764
 6230POPC   C3B78489  15.770  28.203   7.064
 6230POPC   C4B78490  15.800  28.256   7.364
 6231POPC   NC378491  15.149   3.533   5.564
 6231POPC   PO478492  15.167   3.537   5.864
 6231POPC   GL178493  15.199   3.538   6.164
 6231POPC   GL278494  15.154   3.463   6.164
 6231POPC   C1A78495  15.199   3.504   6.464
 6231POPC   D2A78496  15.143   3.543   6.764
 6231POPC   C3A78497  15.136   3.528   7.064
 6231POPC   C4A78498  15.156   3.558   7.364
 6231POPC   C1B78499  15.176   3.272   6.464
 6231POPC   C2B78500  15.183   3.319   6.764
 6231POPC   C3B78501  15.124   3.250   7.064
 6231POPC   C4B78502  15.112   3.323   7.364
 6232POPC   NC378503   5.104  38.409   5.564
 6232POPC   PO478504   5.061  38.455   5.864
 6232POPC   GL178505   5.099  38.411   6.164
 6232POPC   GL278506   5.187  38.326   6.164
 6232POPC   C1A78507   5.058  38.484   6.464
 6232POPC   D2A78508   5.142  38.434   6.764
 6232POPC   C3A78509   5.091  38.408   7.064
 6232POPC   C4A78510   5.101  38.441   7.364
 6232POPC   C1B78511   5.277  38.274   6.464
 6232POPC   C2B78512   5.288  38.232   6.764
 6232POPC   C3B78513   5.296  38.284   7.064
 6232POPC   C4B78514   5.199  38.222   7.364
 6233POPC   NC378515  41.585  23.734   5.564
 6233POPC   PO478516  41.567  23.762   5.864
 6233POPC   GL178517  41.598  23.688   6.164
 6233POPC   GL278518  41.568  23.626   6.164
 6233POPC   C1A78519  41.546  23.696   6.464
 6233POPC   D2A78520  41.596  23.669   6.764
 6233POPC   C3A78521  41.546  23.759   7.064
 6233POPC   C4A78522  41.532  23.751   7.364
 6233POPC   C1B78523  41.455  23.506   6.464
 6233POPC   C2B78524  41.447  23.515   6.764
 6233POPC   C3B78525  41.517  23.512   7.064
 6233POPC   C4B78526  41.468  23.521   7.364
 6234POPC   NC378527  43.117  19.803   5.564
 6234POPC   PO478528  43.095  19.809   5.864
 6234POPC   GL178529  43.094  19.808   6.164
 6234POPC   GL278530  43.002  19.812   6.164
 6234POPC   C1A78531  43.154  19.842   6.464
 6234POPC   D2A78532  43.153  19.877   6.764
 6234POPC   C3A78533  43.158  19.797   7.064
 6234POPC   C4A78534  43.159  19.817   7.364
 6234POPC   C1B78535  42.814  19.831   6.464
 6234POPC   C2B78536  42.865  19.874   6.764
 6234POPC   C3B78537  42.875  19.834   7.064
 6234POPC   C4B78538  42.861  19.844   7.364
 6235POPC   NC378539  29.941   8.192   5.564
 6235POPC   PO478540  29.923   8.206   5.864
 6235POPC   GL178541  29.921   8.164   6.164
 6235POPC   GL278542  29.879   8.078   6.164
 6235POPC   C1A78543  29.889   8.235   6.464
 6235POPC   D2A78544  29.900   8.196   6.764
 6235POPC   C3A78545  29.882   8.207   7.064
 6235POPC   C4A78546  29.874   8.151   7.364
 6235POPC   C1B78547  29.734   8.002   6.464
 6235POPC   C2B78548  29.717   8.060   6.764
 6235POPC   C3B78549  29.732   8.037   7.064
 6235POPC   C4B78550  29.767   7.988   7.364
 6236POPC   NC378551  16.757  22.959   5.564
 6236POPC   PO478552  16.730  22.946   5.864
 6236POPC   GL178553  16.710  22.984   6.164
 6236POPC   GL278554  16.638  22.899   6.164
 6236POPC   C1A78555  16.709  22.931   6.464
 6236POPC   D2A78556  16.764  22.952   6.764
 6236POPC   C3A78557  16.736  22.890   7.064
 6236POPC   C4A78558  16.687  22.967   7.364
 6236POPC   C1B78559  16.532  22.813   6.464
 6236POPC   C2B78560  16.541  22.783   6.764
 6236POPC   C3B78561  16.524  22.818   7.064
 6236POPC   C4B78562  16.573  22.780   7.364
 6237POPC   NC378563  21.352   5.914   5.564
 6237POPC   PO478564  21.371   5.910   5.864
 6237POPC   GL178565  21.423   5.829   6.164
 6237POPC   GL278566  21.460   5.886   6.164
 6237POPC   C1A78567  21.399   5.906   6.464
 6237POPC   D2A78568  21.345   5.823   6.764
 6237POPC   C3A78569  21.347   5.903   7.064
 6237POPC   C4A78570  21.349   5.903   7.364
 6237POPC   C1B78571  21.637   5.801   6.464
 6237POPC   C2B78572  21.635   5.790   6.764
 6237POPC   C3B78573  21.658   5.789   7.064
 6237POPC   C4B78574  21.607   5.850   7.364
 6238POPC   NC378575  43.121  34.611   5.564
 6238POPC   PO478576  43.105  34.552   5.864
 6238POPC   GL178577  43.137  34.557   6.164
 6238POPC   GL278578  43.185  34.575   6.164
 6238POPC   C1A78579  43.122  34.615   6.464
 6238POPC   D2A78580  43.081  34.613   6.764
 6238POPC   C3A78581  43.068  34.588   7.064
 6238POPC   C4A78582  43.156  34.567   7.364
 6238POPC   C1B78583  43.388  34.551   6.464
 6238POPC   C2B78584  43.363  34.499   6.764
 6238POPC   C3B78585  43.393  34.525   7.064
 6238POPC   C4B78586  43.375  34.530   7.364
 6239POPC   NC378587  30.727  18.276   5.564
 6239POPC   PO478588  30.725  18.257   5.864
 6239POPC   GL178589  30.726  18.292   6.164
 6239POPC   GL278590  30.563  18.290   6.164
 6239POPC   C1A78591  30.727  18.262   6.464
 6239POPC   D2A78592  30.698  18.259   6.764
 6239POPC   C3A78593  30.733  18.324   7.064
 6239POPC   C4A78594  30.653  18.313   7.364
 6239POPC   C1B78595  30.399  18.265   6.464
 6239POPC   C2B78596  30.472  18.299   6.764
 6239POPC   C3B78597  30.403  18.254   7.064
 6239POPC   C4B78598  30.429  18.220   7.364
 6240POPC   NC378599  34.605  16.703   5.564
 6240POPC   PO478600  34.546  16.698   5.864
 6240POPC   GL178601  34.576  16.692   6.164
 6240POPC   GL278602  34.620  16.628   6.164
 6240POPC   C1A78603  34.537  16.759   6.464
 6240POPC   D2A78604  34.608  16.755   6.764
 6240POPC   C3A78605  34.570  16.781   7.064
 6240POPC   C4A78606  34.535  16.760   7.364
 6240POPC   C1B78607  34.606  16.460   6.464
 6240POPC   C2B78608  34.567  16.445   6.764
 6240POPC   C3B78609  34.587  16.462   7.064
 6240POPC   C4B78610  34.595  16.494   7.364
 6241POPC   NC378611  17.510  29.895   5.564
 6241POPC   PO478612  17.545  29.880   5.864
 6241POPC   GL178613  17.541  29.928   6.164
 6241POPC   GL278614  17.495  29.793   6.164
 6241POPC   C1A78615  17.515  29.927   6.464
 6241POPC   D2A78616  17.503  29.946   6.764
 6241POPC   C3A78617  17.548  29.875   7.064
 6241POPC   C4A78618  17.545  29.941   7.364
 6241POPC   C1B78619  17.453  29.661   6.464
 6241POPC   C2B78620  17.427  29.651   6.764
 6241POPC   C3B78621  17.438  29.673   7.064
 6241POPC   C4B78622  17.436  29.631   7.364
 6242POPC   NC378623   7.376   6.616   5.564
 6242POPC   PO478624   7.451   6.675   5.864
 6242POPC   GL178625   7.402   6.649   6.164
 6242POPC   GL278626   7.464   6.790   6.164
 6242POPC   C1A78627   7.384   6.631   6.464
 6242POPC   D2A78628   7.417   6.683   6.764
 6242POPC   C3A78629   7.459   6.611   7.064
 6242POPC   C4A78630   7.382   6.682   7.364
 6242POPC   C1B78631   7.412   6.917   6.464
 6242POPC   C2B78632   7.501   6.901   6.764
 6242POPC   C3B78633   7.428   6.913   7.064
 6242POPC   C4B78634   7.423   6.914   7.364
 6243POPC   NC378635  43.837  40.765   5.564
 6243POPC   PO478636  43.874  40.823   5.864
 6243POPC   GL178637  43.872  40.798   6.164
 6243POPC   GL278638  43.864  40.860   6.164
 6243POPC   C1A78639  43.930  40.771   6.464
 6243POPC   D2A78640  43.842  40.761   6.764
 6243POPC   C3A78641  43.880  40.772   7.064
 6243POPC   C4A78642  43.866  40.745   7.364
 6243POPC   C1B78643  43.960  41.046   6.464
 6243POPC   C2B78644  43.905  40.983   6.764
 6243POPC   C3B78645  43.886  41.036   7.064
 6243POPC   C4B78646  43.878  41.007   7.364
 6244POPC   NC378647  40.766  29.161   5.564
 6244POPC   PO478648  40.780  29.147   5.864
 6244POPC   GL178649  40.807  29.181   6.164
 6244POPC   GL278650  40.860  29.188   6.164
 6244POPC   C1A78651  40.794  29.156   6.464
 6244POPC   D2A78652  40.830  29.161   6.764
 6244POPC   C3A78653  40.790  29.177   7.064
 6244POPC   C4A78654  40.761  29.191   7.364
 6244POPC   C1B78655  40.985  29.134   6.464
 6244POPC   C2B78656  40.998  29.202   6.764
 6244POPC   C3B78657  41.063  29.208   7.064
 6244POPC   C4B78658  41.044  29.164   7.364
 6245W        W78659  41.441  20.758   3.148
 6246W        W78660  21.639  44.328   0.281
 6247W        W78661  32.527  25.162   4.272
 6248W        W78662  42.915  10.759   0.867
 6249W        W78663  14.227   0.487   4.258
 6250W        W78664  22.634  11.367   2.402
 6251W        W78665  39.386  26.641  11.928
 6252W        W78666  29.541  21.235  10.979
 6253W        W78667   2.781   9.807   0.274
 6254W        W78668  19.246   5.206   3.204
 6255W        W78669  29.536  16.740   0.284
 6256W        W78670  26.046   5.250   2.715
 6257W        W78671   3.367  26.172   1.735
 6258W        W78672  37.562  12.179   1.747
 6259W        W78673   9.360  44.848   0.949
 6260W        W78674  13.764  16.255  12.574
 6261W        W78675  43.977  28.149   4.728
 6262W        W78676   5.221  33.945  10.931
 6263W        W78677   1.884  17.647  14.365
 6264W        W78678  24.026  42.918  10.564
 6265W        W78679  26.178   1.432   4.801
 6266W        W78680  17.622   2.740   2.752
 6267W        W78681   6.232  29.154  14.884
 6268W        W78682   3.418  12.703   4.605
 6269W        W78683  27.157  23.513   2.305
 6270W        W78684  41.024   6.428  14.297
 6271W        W78685  25.658   0.797   1.424
 6272W        W78686   2.256   9.871   0.793
 6273W        W78687   9.266  25.691  14.278
 6274W        W78688  40.406  44.833   3.797
 6275W        W78689   3.406  19.656  12.561
 6276W        W78690  41.973  34.474  14.367
 6277W        W78691  43.900  24.480   4.346
 6278W        W78692   1.837   9.269   1.223
 6279W        W78693  11.144  24.034   0.891
 6280W        W78694  34.076  15.126   2.242
 6281W        W78695  24.157   3.727   0.350
 6282W        W78696  13.655  35.936  11.017
 6283W        W78697  29.165  14.126  12.372
 6284W        W78698  10.704  37.867  10.600
 6285W        W78699  17.307  41.855   3.632
 6286W        W78700  11.350  16.722   0.794
 6287W        W78701  44.379   3.440   5.124
 6288W        W78702  36.964  16.670  14.938
 6289W        W78703   3.955  38.922   2.334
 6290W        W78704  38.442  34.916   1.287
 6291W        W78705  43.298   1.459  12.925
 6292W        W78706  32.894  35.558   0.855
 6293W        W78707  31.605  16.683   1.773
 6294W        W78708  37.438   9.648  10.572
 6295W        W78709   8.208  30.010  14.487
 6296W        W78710  31.086   3.296   4.786
 6297W        W78711  15.668  29.007   0.482
 6298W        W78712  40.432  15.782  14.820
 6299W        W78713   2.967   2.431  13.380
 6300W        W78714  23.091  43.498   2.189
 6301W        W78715  35.854  27.522   4.796
 6302W        W78716  38.986  38.880  14.957
 6303W        W78717   6.262  20.057   1.889
 6304W        W78718   8.171  23.133  10.586
 6305W        W78719  29.623   7.789   1.822
 6306W        W78720  19.098  42.295   5.097
 6307W        W78721  31.023  37.870   1.435
 6308W        W78722  15.810  25.515  13.966
 6309W        W78723  11.689  18.602   4.776
 6310W        W78724   9.670  17.572  14.473
 6311W        W78725  15.766  32.543  13.872
 6312W        W78726   4.765  38.372   0.929
 6313W        W78727  41.821   8.771  13.015
 6314W        W78728   1.284  43.430  13.848
 6315W        W78729  34.412  26.567   0.964
 6316W        W78730  26.156   7.855  14.281
 6317W        W78731  16.304  17.673  11.025
 6318W        W78732  34.442   0.487   3.711
 6319W        W78733  41.514  41.906   3.750
 6320W        W78734  21.585  28.157  13.313
 6321W        W78735  23.100  11.194  10.988
 6322W        W78736  18.638  12.619   1.329
 6323W        W78737  16.687  22.164  11.493
 6324W        W78738   1.789  21.133   0.785
 6325W        W78739   9.222  31.439  13.891
 6326W        W78740   9.243  40.307  12.972
 6327W        W78741  33.535  22.211  10.433
 6328W        W78742  35.388  41.006  10.999
 6329W        W78743  22.672  26.686  12.996
 6330W        W78744  38.039   5.712  10.573
 6331W        W78745  38.443  13.177   3.218
 6332W        W78746   3.750  38.505  13.393
 6333W        W78747  39.435  10.700  13.516
 6334W        W78748  38.038  33.992   4.729
 6335W        W78749  12.621  18.756   4.788
 6336W        W78750   6.377  37.581   0.880
 6337W        W78751  39.819   1.745   4.823
 6338W        W78752  23.070  38.990   1.326
 6339W        W78753  37.957  32.616   1.426
 6340W        W78754  10.768  33.102  14.846
 6341W        W78755   2.327   7.256  10.925
 6342W        W78756  16.159  43.506   0.307
 6343W        W78757  18.774  11.704  12.953
 6344W        W78758  30.435  31.404   1.696
 6345W        W78759  36.061  30.067  13.415
 6346W        W78760   1.424  11.193   2.762
 6347W        W78761  10.139   3.861   1.772
 6348W        W78762  19.093  14.154  13.474
 6349W        W78763  41.042  43.465   0.786
 6350W        W78764  39.987   2.806   4.663
 6351W        W78765   7.867  40.494   9.935
 6352W        W78766   9.341  16.735   3.158
 6353W        W78767   7.212  30.011  10.558
 6354W        W78768  27.158  18.590  12.549
 6355W        W78769   2.398  42.921   5.207
 6356W        W78770  27.487  10.194   4.154
 6357W        W78771  27.539  43.421  13.486
 6358W        W78772  32.128  43.978   0.346
 6359W        W78773   3.760  39.494  14.803
 6360W        W78774  44.373  18.744  13.015
 6361W        W78775  11.282  14.270   1.372
 6362W        W78776   5.727  18.610   0.474
 6363W        W78777  33.923  16.775  13.055
 6364W        W78778   2.955  26.098  10.506
 6365W        W78779  29.620   6.716   4.709
 6366W        W78780  15.642  24.001  12.492
 6367W        W78781  12.638  20.599  14.455
 6368W        W78782  43.411  39.916  11.006
 6369W        W78783  16.222  29.054  12.050
 6370W        W78784  42.957  21.564   4.644
 6371W        W78785   1.356  19.659  10.998
 6372W        W78786   4.918  24.586  12.373
 6373W        W78787  31.567  32.133  13.793
 6374W        W78788  17.753  41.946   4.780
 6375W        W78789  27.525  16.622   1.319
 6376W        W78790  30.520   6.185  13.529
 6377W        W78791  31.507  16.196  14.315
 6378W        W78792  13.176  29.109   1.725
 6379W        W78793  24.987   5.389   4.290
 6380W        W78794  27.028  22.101  11.470
 6381W        W78795  36.858   6.720  10.935
 6382W        W78796  25.156   5.801   0.787
 6383W        W78797  25.048  20.129   2.782
 6384W        W78798  32.023  16.747   0.950
 6385W        W78799  19.276  21.623   2.728
 6386W        W78800   8.839  15.286  14.382
 6387W        W78801  22.143  12.225  10.532
 6388W        W78802   8.662  34.925   1.848
 6389W        W78803  15.606   6.778  14.446
 6390W        W78804  26.622  29.173  11.106
 6391W        W78805  14.756  31.135   3.370
 6392W        W78806  27.067  12.795  13.487
 6393W        W78807  18.050  31.563  11.583
 6394W        W78808  28.166  11.242   0.432
 6395W        W78809   0.888  17.694   4.327
 6396W        W78810  19.688  40.852   4.156
 6397W        W78811  21.090  15.807   4.118
 6398W        W78812   0.301  15.701   0.418
 6399W        W78813  13.259  11.183   2.333
 6400W        W78814  35.426  20.579  12.359
 6401W        W78815   7.803   2.778  11.462
 6402W        W78816  16.288   2.817   2.841
 6403W        W78817  42.431   5.723  12.404
 6404W        W78818  42.025  21.179   1.927
 6405W        W78819  23.060  13.170  14.931
 6406W        W78820  31.944   3.891   2.320
 6407W        W78821  20.156  39.524  10.483
 6408W        W78822  37.017  31.136   2.386
 6409W        W78823  17.073  38.819   2.403
 6410W        W78824   2.278  40.303  14.769
 6411W        W78825  26.182  26.668   4.195
 6412W        W78826  25.498  33.455   4.342
 6413W        W78827  31.024  10.840  11.575
 6414W        W78828  24.070  16.111  11.061
 6415W        W78829   0.341  40.928  14.759
 6416W        W78830  42.329  22.176   0.415
 6417W        W78831  19.170  20.030  12.511
 6418W        W78832   5.201  29.475  11.576
 6419W        W78833  16.718  26.578  10.638
 6420W        W78834  28.093  30.015  10.038
 6421W        W78835  12.850   3.450   0.370
 6422W        W78836  22.525  43.406   2.853
 6423W        W78837  11.365  32.963   1.800
 6424W        W78838   9.374  22.659  14.839
 6425W        W78839  36.089  36.092  14.824
 6426W        W78840   1.376   7.838  12.507
 6427W        W78841  15.246  23.551  14.873
 6428W        W78842  15.787  31.562   1.905
 6429W        W78843  41.927  17.559   2.683
 6430W        W78844  15.624  13.297   3.821
 6431W        W78845  26.168  24.997  12.028
 6432W        W78846  20.711  31.545  13.938
 6433W        W78847   6.879  41.944   1.809
 6434W        W78848  27.507  30.608   0.365
 6435W        W78849   9.753  21.547   0.310
 6436W        W78850  20.574  17.158   4.758
 6437W        W78851   8.282  18.170   0.254
 6438W        W78852  10.283  37.399  13.332
 6439W        W78853  21.555  20.042   3.210
 6440W        W78854   1.856   4.343   3.247
 6441W        W78855   0.339  34.909  13.527
 6442W        W78856  15.206  39.920  13.859
 6443W        W78857  39.541  15.727  11.587
 6444W        W78858  20.172  36.453   3.356
 6445W        W78859   7.773  22.239   3.753
 6446W        W78860  37.049   9.658   4.732
 6447W        W78861  14.613   3.338  14.345
 6448W        W78862  42.778   9.194  12.028
 6449W        W78863   9.313  41.535  12.481
 6450W        W78864  36.965  44.776  11.499
 6451W        W78865  33.596   5.711   2.272
 6452W        W78866   8.768   8.229  11.604
 6453W        W78867  40.451  17.223   4.743
 6454W        W78868  25.635  38.554   4.200
 6455W        W78869  29.124  33.041   2.727
 6456W        W78870  13.748  30.537  14.845
 6457W        W78871  13.163  37.413  10.150
 6458W        W78872  36.030  15.728  14.471
 6459W        W78873  42.798  23.724   3.811
 6460W        W78874   1.821  10.668   2.281
 6461W        W78875  12.808  24.708  14.452
 6462W        W78876  20.255  37.390   0.733
 6463W        W78877  28.457  16.659  10.937
 6464W        W78878   5.857  14.315  12.375
 6465W        W78879  40.309  39.504   4.792
 6466W        W78880  27.991  21.645  14.463
 6467W        W78881  42.842   5.817  12.899
 6468W        W78882  20.530  27.609  14.974
 6469W        W78883   9.378  34.958   4.176
 6470W        W78884   3.902   8.291   0.841
 6471W        W78885  25.639  24.173  11.031
 6472W        W78886   6.263  26.077  12.350
 6473W        W78887  35.998  42.500  14.867
 6474W        W78888  22.629   5.766   0.379
 6475W        W78889  17.290  14.105  12.028
 6476W        W78890  10.662  41.032   1.760
 6477W        W78891  10.343  20.124  14.465
 6478W        W78892  22.211  25.713  11.101
 6479W        W78893  26.164  34.525   2.294
 6480W        W78894  38.332  35.499   0.386
 6481W        W78895   3.743  26.479   4.266
 6482W        W78896  43.875  31.521   3.256
 6483W        W78897  37.367  35.486   1.361
 6484W        W78898  26.688  33.452  11.983
 6485W        W78899  18.097  41.454  12.915
 6486W        W78900  36.451   1.962  14.841
 6487W        W78901  35.458   2.822  12.501
 6488W        W78902  35.934  22.006   3.637
 6489W        W78903  16.085   9.688  14.969
 6490W        W78904   7.901  27.176  13.459
 6491W        W78905   4.906   4.762  14.358
 6492W        W78906  26.599  27.038   2.263
 6493W        W78907  13.835  21.539   2.319
 6494W        W78908  43.949  40.543  13.056
 6495W        W78909  16.262   0.864  13.981
 6496W        W78910  28.043  18.263   1.381
 6497W        W78911  40.860   9.845   3.361
 6498W        W78912  22.570  14.698   3.365
 6499W        W78913  24.647   7.852   3.161
 6500W        W78914  34.528  33.416   4.196
 6501W        W78915  11.766  42.990  11.532
 6502W        W78916  19.209   1.823  14.848
 6503W        W78917  33.448  38.499   5.144
 6504W        W78918   2.304  13.661   2.342
 6505W        W78919   4.765   3.371   4.350
 6506W        W78920   9.875  22.616  11.975
 6507W        W78921  42.831  29.523   0.762
 6508W        W78922  40.874  43.502  10.982
 6509W        W78923  11.815  12.281   0.420
 6510W        W78924  27.099  20.735   0.769
 6511W        W78925   6.830  25.147   1.850
 6512W        W78926  16.764  32.402   1.773
 6513W        W78927  11.746  12.298  14.918
 6514W        W78928  23.222  35.071  13.878
 6515W        W78929  12.258  39.318   4.282
 6516W        W78930  15.145  41.339   0.772
 6517W        W78931   2.780  35.906  12.529
 6518W        W78932   7.709  38.873   2.347
 6519W        W78933  39.065  19.188  11.473
 6520W        W78934  14.331   2.413   3.674
 6521W        W78935  35.016  25.557  14.870
 6522W        W78936  13.252   6.700   1.932
 6523W        W78937  39.352  37.571   3.301
 6524W        W78938  42.327  21.641  12.932
 6525W        W78939   1.267   2.837   1.235
 6526W        W78940  28.977  30.145  11.428
 6527W        W78941  27.667  20.626   2.368
 6528W        W78942   9.363   1.945   5.289
 6529W        W78943  22.645   0.358   0.767
 6530W        W78944  23.565   9.749   4.234
 6531W        W78945   6.901   4.781  10.498
 6532W        W78946  22.251  32.525   3.201
 6533W        W78947  17.215  43.948   5.589
 6534W        W78948   8.249   2.398  14.993
 6535W        W78949   8.354  13.620  12.832
 6536W        W78950  19.671  26.055  13.486
 6537W        W78951  18.183  21.163  11.121
 6538W        W78952  42.989  32.977   0.300
 6539W        W78953   3.377  31.534  12.933
 6540W        W78954  31.644  42.379  10.487
 6541W        W78955  15.736  29.167  12.027
 6542W        W78956  41.326   6.391  13.916
 6543W        W78957  27.081  36.359  11.114
 6544W        W78958  36.512  42.340   2.381
 6545W        W78959  19.755  32.078   1.359
 6546W        W78960  12.228  41.331  12.379
 6547W        W78961  10.259   4.277   0.786
 6548W        W78962  27.051  41.908  12.085
 6549W        W78963  15.099  31.583  12.344
 6550W        W78964   5.325  26.958  12.843
 6551W        W78965   9.170  18.695  11.990
 6552W        W78966  10.856  36.018   4.191
 6553W        W78967  13.661  37.579  14.508
 6554W        W78968  20.238  15.311   3.342
 6555W        W78969   7.876  34.058  14.320
 6556W        W78970  27.018  24.492   3.263
 6557W        W78971  42.946  19.172  11.000
 6558W        W78972  31.143  12.286   1.892
 6559W        W78973   4.442  22.550  12.503
 6560W        W78974  26.469  28.144   5.210
 6561W        W78975   5.208  29.495   0.339
 6562W        W78976  42.952  28.118  14.774
 6563W        W78977  42.845  13.118   2.743
 6564W        W78978   4.778  17.250   4.706
 6565W        W78979  24.197  41.823   2.210
 6566W        W78980  29.953   1.777   3.814
 6567W        W78981  37.544  41.807  12.423
 6568W        W78982   5.757  24.013   0.828
 6569W        W78983   2.902  22.503   2.877
 6570W        W78984  44.826  40.993  11.052
 6571W        W78985  22.545  10.337   0.308
 6572W        W78986  16.231   8.298  11.501
 6573W        W78987  42.985  16.579  14.959
 6574W        W78988   2.400  28.510  11.879
 6575W        W78989  42.389   1.742  10.965
 6576W        W78990  40.844  38.831   4.698
 6577W        W78991  35.600  44.755   0.848
 6578W        W78992  41.919  19.198  14.843
 6579W        W78993  21.535   7.868  11.423
 6580W        W78994  29.038  20.684  14.894
 6581W        W78995  29.037   6.788  13.044
 6582W        W78996  17.705  34.078   0.362
 6583W        W78997  35.425   6.795   0.734
 6584W        W78998  42.799  37.970  13.884
 6585W        W78999  10.867  30.068  11.930
 6586W        W79000  11.656   7.252   2.762
 6587W        W79001  36.021  37.483  14.402
 6588W        W79002  41.483   5.878   2.797
 6589W        W79003   6.205  22.608  10.489
 6590W        W79004  33.626  40.519   3.314
 6591W        W79005  43.400   7.814   0.866
 6592W        W79006  30.945   6.191   3.304
 6593W        W79007  43.894  27.046  14.340
 6594W        W79008  11.249  13.665  10.985
 6595W        W79009  23.637  17.166  14.968
 6596W        W79010  17.615  38.946   2.844
 6597W        W79011   9.277  30.575   5.133
 6598W        W79012   9.373  38.540  10.602
 6599W        W79013  42.817  18.149  14.783
 6600W        W79014  17.295  25.570  11.573
 6601W        W79015  22.610  12.690  12.973
 6602W        W79016   4.868  27.625   2.333
 6603W        W79017  14.191  10.223  14.338
 6604W        W79018  14.232   4.776   2.383
 6605W        W79019   3.838   5.898  13.487
 6606W        W79020  32.891  34.574  11.390
 6607W        W79021   3.881  33.473   1.272
 6608W        W79022  25.667   1.460  11.491
 6609W        W79023  35.999  34.521  14.284
 6610W        W79024  38.493   6.322   3.817
 6611W        W79025   8.707  14.255  11.104
 6612W        W79026  35.997  24.090  10.589
 6613W        W79027  19.613  21.660  10.611
 6614W        W79028  13.601  18.699   5.322
 6615W        W79029  14.332  14.701   4.647
 6616W        W79030   0.866  32.565  14.314
 6617W        W79031  12.670  31.414  10.492
 6618W        W79032  31.121  39.541  13.856
 6619W        W79033  35.948   6.426  13.340
 6620W        W79034  19.131  38.908   4.663
 6621W        W79035  15.640  38.900  10.902
 6622W        W79036  28.459  24.559  13.479
 6623W        W79037  22.227  39.064   1.856
 6624W        W79038  12.119  11.622   1.434
 6625W        W79039   5.896   4.341  12.920
 6626W        W79040  43.990  41.529  12.001
 6627W        W79041  39.546  26.702   5.084
 6628W        W79042   8.672   3.290  14.017
 6629W        W79043   6.398   7.804   3.250
 6630W        W79044  34.463  27.118  12.566
 6631W        W79045  43.353  26.963   4.316
 6632W        W79046  13.693  15.312  10.982
 6633W        W79047  36.998  33.926   0.919
 6634W        W79048  35.895  39.935   4.158
 6635W        W79049  20.673  30.135   3.323
 6636W        W79050  19.655   1.391   3.334
 6637W        W79051  16.577   6.401  13.972
 6638W        W79052  27.160  38.839   1.811
 6639W        W79053  40.049  28.598   0.755
 6640W        W79054   0.325   0.266  12.340
 6641W        W79055  30.120  34.490  11.029
 6642W        W79056  13.236   5.252   0.455
 6643W        W79057  15.201  36.482  14.354
 6644W        W79058  39.970  11.749  12.461
 6645W        W79059  32.589  27.620  11.520
 6646W        W79060  31.545  37.887   0.953
 6647W        W79061  22.673  43.942  14.455
 6648W        W79062  27.979  35.897   0.945
 6649W        W79063  35.594  19.661  13.014
 6650W        W79064  14.128  20.109   2.799
 6651W        W79065  23.999  39.341  12.408
 6652W        W79066  14.287   4.842   3.302
 6653W        W79067   0.791  32.073  14.817
 6654W        W79068   2.390   3.895  10.429
 6655W        W79069  23.062  42.970   0.282
 6656W        W79070   0.894  43.461  11.054
 6657W        W79071   7.851  41.892   1.281
 6658W        W79072  28.522   8.854  11.110
 6659W        W79073  29.126  17.781  13.356
 6660W        W79074   6.766  23.141  14.968
 6661W        W79075   4.350  37.888  12.494
 6662W        W79076  28.666  44.801   4.268
 6663W        W79077  16.597  18.620   4.194
 6664W        W79078  24.599  13.672   0.382
 6665W        W79079  16.237  40.031  14.847
 6666W        W79080  10.693  33.459  13.931
 6667W        W79081  29.073  15.593   2.891
 6668W        W79082  22.556   1.434   2.415
 6669W        W79083  39.537  40.430   9.949
 6670W        W79084  29.101  24.039   3.733
 6671W        W79085  17.080  20.678  12.425
 6672W        W79086  29.155  17.764  12.863
 6673W        W79087   8.268  33.443   2.214
 6674W        W79088  20.072  13.651   1.255
 6675W        W79089  12.637  29.487  10.488
 6676W        W79090   7.343   1.465  12.578
 6677W        W79091  20.589  11.319   0.923
 6678W        W79092  25.176  26.532   2.210
 6679W        W79093  30.100  25.183   3.210
 6680W        W79094  25.525  29.934   3.287
 6681W        W79095  43.884   9.206  10.926
 6682W        W79096  21.259  18.190   4.345
 6683W        W79097  13.261  18.095   3.757
 6684W        W79098  23.533  12.759   3.372
 6685W        W79099   0.813   4.392   1.929
 6686W        W79100   8.263   4.853   2.829
 6687W        W79101  16.273  25.668  10.555
 6688W        W79102   3.831  15.791  14.961
 6689W        W79103  16.628   7.818  10.600
 6690W        W79104  37.349  31.544  10.914
 6691W        W79105  34.411   4.723  12.487
 6692W        W79106  35.101   0.764   5.101
 6693W        W79107  12.668  37.505   1.846
 6694W        W79108  14.331  14.262   3.256
 6695W        W79109  12.332  44.366  14.301
 6696W        W79110   3.880  41.498   3.672
 6697W        W79111   0.830  26.482  14.335
 6698W        W79112  29.452  26.022   4.233
 6699W        W79113   9.205  16.096   4.678
 6700W        W79114  18.601  23.061  14.759
 6701W        W79115   1.878  35.105  13.819
 6702W        W79116  40.496  20.157   0.379
 6703W        W79117  19.668  38.986  14.506
 6704W        W79118  25.568  26.200   1.866
 6705W        W79119   9.738  18.632   3.164
 6706W        W79120  40.460   5.796   3.295
 6707W        W79121  41.862  42.354  12.991
 6708W        W79122  33.501  25.601  12.572
 6709W        W79123  22.039  18.292  12.031
 6710W        W79124  15.114  12.352  13.872
 6711W        W79125  30.522  12.761  10.585
 6712W        W79126  31.988  17.242   5.291
 6713W        W79127  40.992  24.092   2.321
 6714W        W79128  10.220  34.899  12.405
 6715W        W79129  18.276  38.555  13.010
 6716W        W79130  10.271  23.157   2.187
 6717W        W79131  14.832   8.734  14.885
 6718W        W79132   8.695  23.051  10.504
 6719W        W79133  44.382  41.323   2.761
 6720W        W79134  27.588  35.392   4.191
 6721W        W79135  28.539  20.164   0.759
 6722W        W79136   4.252   9.782  11.986
 6723W        W79137  37.377  41.860  14.932
 6724W        W79138  32.127  37.579  10.467
 6725W        W79139  28.053  35.079   3.272
 6726W        W79140  13.299  22.181  14.288
 6727W        W79141  43.004   0.332  12.037
 6728W        W79142  29.536  43.875   3.688
 6729W        W79143  44.340  36.418   1.707
 6730W        W79144  42.358   0.887  13.889
 6731W        W79145  21.095  36.853   4.815
 6732W        W79146  15.138  43.280   2.187
 6733W        W79147  37.440   7.258  11.917
 6734W        W79148  30.624   1.871  12.469
 6735W        W79149   2.332  14.140  11.413
 6736W        W79150  22.142  14.281   4.138
 6737W        W79151  14.176  25.089  11.939
 6738W        W79152  24.603  19.075   2.684
 6739W        W79153  29.924   8.819   4.821
 6740W        W79154  32.892   2.736  10.633
 6741W        W79155   0.306  14.286  10.427
 6742W        W79156  13.144  18.688  14.791
 6743W        W79157  21.553  22.704  12.991
 6744W        W79158  38.916  10.337   0.784
 6745W        W79159  34.576   8.241   0.780
 6746W        W79160   1.791  38.486  12.384
 6747W        W79161  43.015  19.097  13.879
 6748W        W79162   4.930  18.590  14.967
 6749W        W79163   1.479   7.744  10.404
 6750W        W79164  24.109  42.375  14.274
 6751W        W79165  43.468  33.572  11.874
 6752W        W79166  19.678  28.474  13.898
 6753W        W79167   1.971   6.407   0.356
 6754W        W79168  17.727  37.950  14.494
 6755W        W79169  31.934  31.636   9.989
 6756W        W79170  18.115  14.290  14.335
 6757W        W79171  11.715  21.205  12.482
 6758W        W79172   1.332  16.737   0.297
 6759W        W79173   0.929  38.508  13.933
 6760W        W79174  38.998  44.878  13.992
 6761W        W79175  23.568  18.243   4.142
 6762W        W79176  32.496  29.483  14.499
 6763W        W79177  28.176  22.536   2.378
 6764W        W79178  31.897  35.040   4.150
 6765W        W79179  34.926  26.486  10.603
 6766W        W79180  44.281   9.356  13.061
 6767W        W79181  28.127  44.862   4.354
 6768W        W79182  17.600   4.272  14.980
 6769W        W79183  27.992  40.482   2.259
 6770W        W79184   4.779  38.495   3.361
 6771W        W79185   1.318  18.576  11.093
 6772W        W79186  35.041  26.492   2.209
 6773W        W79187  21.189  14.663   2.249
 6774W        W79188  35.474  36.860  14.794
 6775W        W79189  12.240  29.655   2.316
 6776W        W79190  40.512   5.735   0.465
 6777W        W79191  14.124   2.345  12.529
 6778W        W79192  17.575  36.885  13.857
 6779W        W79193  39.958   1.468   1.352
 6780W        W79194   7.369  20.102   1.872
 6781W        W79195  37.956  35.436   2.249
 6782W        W79196  22.698  38.457  11.442
 6783W        W79197   2.236   7.263   1.702
 6784W        W79198  36.900  31.507   0.764
 6785W        W79199   5.824  11.809  10.577
 6786W        W79200   2.820  44.915  13.358
 6787W        W79201  17.233   6.372   1.752
 6788W        W79202  35.506  22.167  13.475
 6789W        W79203   0.933  34.046  14.788
 6790W        W79204   2.869   8.804  12.430
 6791W        W79205  43.013  38.862   0.430
 6792W        W79206   8.340  44.398   2.419
 6793W        W79207  38.457   6.233  10.899
 6794W        W79208  41.032  40.873  11.078
 6795W        W79209  40.323  36.963  13.533
 6796W        W79210  26.153  18.167  14.449
 6797W        W79211  34.574  24.548   5.230
 6798W        W79212   2.842  41.316  13.532
 6799W        W79213  13.614  21.724  12.834
 6800W        W79214   1.958   7.181  11.490
 6801W        W79215  44.776  33.619   4.327
 6802W        W79216  23.236   8.259   1.792
 6803W        W79217  32.999   3.842   4.829
 6804W        W79218  27.529   5.844   1.827
 6805W        W79219  25.992  18.228  12.407
 6806W        W79220   3.279  23.119   3.709
 6807W        W79221  20.248  43.275   0.473
 6808W        W79222  15.105   5.316  12.399
 6809W        W79223  33.107   3.759  10.563
 6810W        W79224  42.485  15.646  14.782
 6811W        W79225  12.678  12.239   1.757
 6812W        W79226  32.916  23.572  13.337
 6813W        W79227  23.615   4.398  13.367
 6814W        W79228  39.847   6.684  11.976
 6815W        W79229   8.857   4.736  14.386
 6816W        W79230  32.590  37.392   4.184
 6817W        W79231  22.522  24.552  13.323
 6818W        W79232   3.896  37.017   0.785
 6819W        W79233  33.458   9.722   3.692
 6820W        W79234   5.718  10.633   2.408
 6821W        W79235  16.770  44.809  13.984
 6822W        W79236  34.555   6.313   1.770
 6823W        W79237  24.491  38.372  14.800
 6824W        W79238  29.655  19.098   3.750
 6825W        W79239  26.142  42.412  10.574
 6826W        W79240  12.145  14.800  13.413
 6827W        W79241  14.668  40.016  14.934
 6828W        W79242  30.538  10.246  14.352
 6829W        W79243  25.493  17.731   9.554
 6830W        W79244  44.782   0.459  13.063
 6831W        W79245  26.472  30.534   3.294
 6832W        W79246  17.599  36.569   0.393
 6833W        W79247  43.439  38.337  14.416
 6834W        W79248  14.281  19.713  14.765
 6835W        W79249  44.899   7.206  11.896
 6836W        W79250  11.824  36.518  11.032
 6837W        W79251  18.732   2.852   3.662
 6838W        W79252  13.207  30.937  12.840
 6839W        W79253   8.737  38.344   1.755
 6840W        W79254  12.129   1.964  10.548
 6841W        W79255   2.344  19.666   0.423
 6842W        W79256  16.748  28.976  13.795
 6843W        W79257   8.342  10.731   3.751
 6844W        W79258  20.209  17.724  14.476
 6845W        W79259  36.070  30.534  11.970
 6846W        W79260   5.712  26.681  13.791
 6847W        W79261  43.956   7.701   3.660
 6848W        W79262  24.559   0.345  14.769
 6849W        W79263  38.961   9.363  13.408
 6850W        W79264  29.474  32.448   1.885
 6851W        W79265   2.260  30.576  10.591
 6852W        W79266  21.161  35.957   1.738
 6853W        W79267  37.457   0.409  11.392
 6854W        W79268  38.473  40.876   0.769
 6855W        W79269  24.485  12.167  14.288
 6856W        W79270  14.135  13.105   3.158
 6857W        W79271  15.697  33.519  11.431
 6858W        W79272   7.328  38.346   2.869
 6859W        W79273  32.438   7.778  11.083
 6860W        W79274  20.539   8.285   3.809
 6861W        W79275  41.496  21.555  10.985
 6862W        W79276  13.245  14.602   3.826
 6863W        W79277   1.796  26.643   0.959
 6864W        W79278   6.212  11.646   9.934
 6865W        W79279  35.411   6.410  13.405
 6866W        W79280  36.394  19.187   4.215
 6867W        W79281   8.788  34.534  12.370
 6868W        W79282  14.220  22.140   4.787
 6869W        W79283   3.742  22.122   1.225
 6870W        W79284   7.778  15.169  13.400
 6871W        W79285  16.206  11.194   1.254
 6872W        W79286  20.196   6.392   0.801
 6873W        W79287  37.478  35.959  11.427
 6874W        W79288  18.147  25.532  14.932
 6875W        W79289  20.042   5.892  14.804
 6876W        W79290  11.783  10.833  14.405
 6877W        W79291  33.459  25.614   4.155
 6878W        W79292  40.414  40.511  11.983
 6879W        W79293  31.930  32.036  10.441
 6880W        W79294  22.513  20.272  11.486
 6881W        W79295  13.173  30.986  13.369
 6882W        W79296  41.878  41.398  13.432
 6883W        W79297  25.649  27.655  11.914
 6884W        W79298  43.497  43.486  11.118
 6885W        W79299  42.320  32.033  10.977
 6886W        W79300   5.817  14.178   2.827
 6887W        W79301  13.719  17.263  12.369
 6888W        W79302   7.413   9.763  11.123
 6889W        W79303   1.820   6.328  10.449
 6890W        W79304  41.042  40.028   0.268
 6891W        W79305  21.592  25.969  14.454
 6892W        W79306  41.485  44.787   1.792
 6893W        W79307  15.688   1.248  11.128
 6894W        W79308  25.596  41.484   3.233
 6895W        W79309  34.484  27.459  12.470
 6896W        W79310   2.920  25.216   1.767
 6897W        W79311  33.933  14.287   1.318
 6898W        W79312  12.128  39.496  14.802
 6899W        W79313  37.509  16.798  13.369
 6900W        W79314  28.457  15.623   4.773
 6901W        W79315  42.905   7.359  11.387
 6902W        W79316  39.440  39.816   2.672
 6903W        W79317   4.731   7.183  13.879
 6904W        W79318  23.138  40.517  12.060
 6905W        W79319  33.913  14.670  13.798
 6906W        W79320   7.181  24.511   3.246
 6907W        W79321   9.812  30.429   2.692
 6908W        W79322  11.699  33.093  12.390
 6909W        W79323  34.108   1.288  14.989
 6910W        W79324   7.173  15.653  13.524
 6911W        W79325  12.302  30.913  13.538
 6912W        W79326   1.932  27.563  11.062
 6913W        W79327  25.585  44.996  13.036
 6914W        W79328  30.139  20.675  11.423
 6915W        W79329  41.403   2.925  13.963
 6916W        W79330  15.685  27.626   1.293
 6917W        W79331  41.838  12.613  12.856
 6918W        W79332  25.564  24.011   0.313
 6919W        W79333  23.661   6.192  10.566
 6920W        W79334  42.318   1.891   0.736
 6921W        W79335  24.616  24.126   3.735
 6922W        W79336   2.271  37.444   1.229
 6923W        W79337   0.491  13.150   1.254
 6924W        W79338   8.839   4.442  14.451
 6925W        W79339   2.259   3.296   0.827
 6926W        W79340  12.264   6.871  14.769
 6927W        W79341  20.707  39.986   2.667
 6928W        W79342  26.518  17.642   4.733
 6929W        W79343  20.621  41.478  10.541
 6930W        W79344  22.165  20.261   3.328
 6931W        W79345  41.972  11.628   1.221
 6932W        W79346  41.527  30.521  13.357
 6933W        W79347  43.875  39.996  13.505
 6934W        W79348   0.771  42.793   3.213
 6935W        W79349  19.247  36.496  13.039
 6936W        W79350  15.680  30.922  14.861
 6937W        W79351   1.447   7.293  13.414
 6938W        W79352  33.928  28.533   1.909
 6939W        W79353  15.622  30.023   1.844
 6940W        W79354  29.518  36.508  12.542
 6941W        W79355  36.386  19.653  13.389
 6942W        W79356  25.182   2.438  10.027
 6943W        W79357   1.266  33.408  13.435
 6944W        W79358  30.990  21.150  13.992
 6945W        W79359  26.524  18.054   1.895
 6946W        W79360   6.704  23.707   1.874
 6947W        W79361  41.847   0.955   1.364
 6948W        W79362  41.987  16.720  14.507
 6949W        W79363  35.864  38.010  13.521
 6950W        W79364  34.382   1.945   1.813
 6951W        W79365  13.266  39.518   1.821
 6952W        W79366   3.759  22.680   0.797
 6953W        W79367   9.348  11.661  12.483
 6954W        W79368  21.528  16.600   4.821
 6955W        W79369  37.911   7.754   4.331
 6956W        W79370  16.724  44.262  13.795
 6957W        W79371  44.467   6.683  14.941
 6958W        W79372   4.765  27.514   2.730
 6959W        W79373  32.042  34.390   2.248
 6960W        W79374  27.941  35.587   3.336
 6961W        W79375   7.901  33.465   1.315
 6962W        W79376  20.156  23.583  13.345
 6963W        W79377  23.047  23.583  12.065
 6964W        W79378  16.689  39.831   3.636
 6965W        W79379  39.865  12.225   3.254
 6966W        W79380  34.520  41.419   2.681
 6967W        W79381   3.916  30.080  10.442
 6968W        W79382  25.663  21.613   2.712
 6969W        W79383  22.145  10.182   2.821
 6970W        W79384   4.906  31.023  11.965
 6971W        W79385  33.064  15.257   2.289
 6972W        W79386  41.377  26.046  10.442
 6973W        W79387  40.510   4.237   1.926
 6974W        W79388  22.218  29.494   2.390
 6975W        W79389  16.258  23.101   1.753
 6976W        W79390  10.300  39.489   1.300
 6977W        W79391   3.295   5.807   2.188
 6978W        W79392   2.725  10.756   4.285
 6979W        W79393  40.472  13.673   4.115
 6980W        W79394   4.437  14.790   0.875
 6981W        W79395  19.756   4.782   2.662
 6982W        W79396  20.574  18.264   3.201
 6983W        W79397  29.010  10.160  14.835
 6984W        W79398  38.985  13.213   0.287
 6985W        W79399  15.320   7.252  13.799
 6986W        W79400  34.564  30.645  11.921
 6987W        W79401  38.422  27.962  14.390
 6988W        W79402  40.981   7.670   2.408
 6989W        W79403  41.834  39.955  12.526
 6990W        W79404  27.126   1.471  11.128
 6991W        W79405  10.846  13.147   4.733
 6992W        W79406   2.829  40.950   2.742
 6993W        W79407  13.844  27.631   3.259
 6994W        W79408  39.321   0.389   4.139
 6995W        W79409  23.599  28.455   1.325
 6996W        W79410   0.963   3.380   1.885
 6997W        W79411   7.197  43.820   1.258
 6998W        W79412  11.295  43.281  14.864
 6999W        W79413  30.455   1.278  13.407
 7000W        W79414  34.063   4.260  14.003
 7001W        W79415   9.362  28.013   2.181
 7002W        W79416  39.998  17.191  13.474
 7003W        W79417  23.200   3.263  14.844
 7004W        W79418  34.894   4.822  11.944
 7005W        W79419  23.204  39.925  10.515
 7006W        W79420  42.391  10.878  10.467
 7007W        W79421   8.388  12.701  13.876
 7008W        W79422  42.375  38.536   2.718
 7009W        W79423  44.008  26.043   1.414
 7010W        W79424  14.162  41.378   1.383
 7011W        W79425  29.656  41.365   1.717
 7012W        W79426  26.527  32.903  12.978
 7013W        W79427  42.874  32.510  14.977
 7014W        W79428  29.444   5.436  12.841
 7015W        W79429  26.587  22.087  14.413
 7016W        W79430  30.069  43.351   4.145
 7017W        W79431  16.710   5.213   1.850
 7018W        W79432  26.645   9.320  14.419
 7019W        W79433  33.030   3.284   4.328
 7020W        W79434  33.605  15.136  14.450
 7021W        W79435  35.085  28.151   0.278
 7022W        W79436   5.392  21.678  12.459
 7023W        W79437  41.458  42.305   1.748
 7024W        W79438  36.069  22.019  14.770
 7025W        W79439   3.377  34.070   3.702
 7026W        W79440  41.427  39.952  10.629
 7027W        W79441   9.280  36.866  12.564
 7028W        W79442   5.738   3.926  11.062
 7029W        W79443   4.850  21.069   5.317
 7030W        W79444   4.301  16.245  11.013
 7031W        W79445  19.547  35.361  12.387
 7032W        W79446  29.970  16.205  14.992
 7033W        W79447  10.276  15.694   2.185
 7034W        W79448  35.961   9.697   2.734
 7035W        W79449  17.257  36.488   3.182
 7036W        W79450   5.333  35.061   4.138
 7037W        W79451   5.768  35.449  13.884
 7038W        W79452   0.344   3.300   2.261
 7039W        W79453  44.783  20.572   3.729
 7040W        W79454  37.893  15.683   1.705
 7041W        W79455  11.697   4.932   4.655
 7042W        W79456  36.087   9.245   3.164
 7043W        W79457  34.484  26.170  10.619
 7044W        W79458  15.824  30.962   1.212
 7045W        W79459  11.754  18.203   1.920
 7046W        W79460  16.745  10.185  12.339
 7047W        W79461  38.970  17.798  12.828
 7048W        W79462  39.941   6.344   4.244
 7049W        W79463  28.999  37.911  10.556
 7050W        W79464  22.668  38.372  13.886
 7051W        W79465  12.342  24.630  14.469
 7052W        W79466  13.219  10.354   5.129
 7053W        W79467  31.553  43.853   1.819
 7054W        W79468   5.284  40.043   1.377
 7055W        W79469  31.076  34.944   2.289
 7056W        W79470  19.195   2.469   1.771
 7057W        W79471  26.646  16.122  10.482
 7058W        W79472   1.286  42.445   3.681
 7059W        W79473   6.227  39.022   3.715
 7060W        W79474  27.042  34.026   1.780
 7061W        W79475   6.793  36.472   3.272
 7062W        W79476  40.915  31.617   1.379
 7063W        W79477  43.297  12.735  13.894
 7064W        W79478   8.348  37.868   3.363
 7065W        W79479  33.439  35.897   4.240
 7066W        W79480  19.194   6.742  14.772
 7067W        W79481  10.702  25.079   0.377
 7068W        W79482   6.850  23.504  14.368
 7069W        W79483  31.110  13.202  14.485
 7070W        W79484  19.100  19.066   2.853
 7071W        W79485  19.609  13.726   0.861
 7072W        W79486  17.799  44.947   0.770
 7073W        W79487  27.499  14.102   2.295
 7074W        W79488  18.679  16.251   1.401
 7075W        W79489   6.355  21.643  11.468
 7076W        W79490   3.870  44.816  13.879
 7077W        W79491   2.837  34.041  10.945
 7078W        W79492  41.976  39.837   0.428
 7079W        W79493  15.108  24.015   1.755
 7080W        W79494  12.853   3.724  12.024
 7081W        W79495  20.239  21.563   2.842
 7082W        W79496  31.411  44.930   3.209
 7083W        W79497  26.627  14.790  13.458
 7084W        W79498  37.924   1.754   2.269
 7085W        W79499  10.306  40.323   1.865
 7086W        W79500  44.986   1.294   4.604
 7087W        W79501  28.163  33.412   1.732
 7088W        W79502  16.582  43.462   1.304
 7089W        W79503   2.273  23.616   1.703
 7090W        W79504   6.333  24.626  12.912
 7091W        W79505  16.141  44.310   1.765
 7092W        W79506   3.306  29.965   2.232
 7093W        W79507  10.676   8.378   0.380
 7094W        W79508   2.787  37.843  14.472
 7095W        W79509  24.618   4.382   4.770
 7096W        W79510  13.741  42.525   2.408
 7097W        W79511  27.508  33.947  13.474
 7098W        W79512   0.482  31.056   1.339
 7099W        W79513  35.528  19.095  11.504
 7100W        W79514   6.396  29.507   0.460
 7101W        W79515   1.946  18.624   2.697
 7102W        W79516  14.730  35.046   1.396
 7103W        W79517  34.514  44.369   0.836
 7104W        W79518  33.513  33.422  11.101
 7105W        W79519  30.162  40.015   3.641
 7106W        W79520  39.351  35.096  14.405
 7107W        W79521   7.273  32.904   4.789
 7108W        W79522   3.246   8.314   1.310
 7109W        W79523  35.510  13.135   3.307
 7110W        W79524  13.718   6.257  13.371
 7111W        W79525  42.294   3.433   4.708
 7112W        W79526  14.175  22.220  13.825
 7113W        W79527  15.275  22.553   0.440
 7114W        W79528  13.249  39.560   0.891
 7115W        W79529   7.862  38.897   4.807
 7116W        W79530  11.284  11.672   3.349
 7117W        W79531  27.963   2.278  11.570
 7118W        W79532   2.803  18.716   0.396
 7119W        W79533  20.692  13.638  13.821
 7120W        W79534  13.330   3.807   0.271
 7121W        W79535  19.551  14.595   0.930
 7122W        W79536  10.856  39.928   2.286
 7123W        W79537  21.063  26.186  10.480
 7124W        W79538  31.916  35.423  12.479
 7125W        W79539  32.580  20.702  11.972
 7126W        W79540  26.178   5.400  10.904
 7127W        W79541  19.142  27.149   0.821
 7128W        W79542  14.281  25.008   4.644
 7129W        W79543  20.215  21.147   0.814
 7130W        W79544  35.021  29.149   3.273
 7131W        W79545   4.300   6.901  12.049
 7132W        W79546  33.491  16.105   3.294
 7133W        W79547  13.129  15.208   1.832
 7134W        W79548  33.500  19.233   2.777
 7135W        W79549  42.370  44.860   1.409
 7136W        W79550  35.037  38.419   4.256
 7137W        W79551  27.022  40.850  14.934
 7138W        W79552  35.988  25.140   1.237
 7139W        W79553  28.032  32.922  14.925
 7140W        W79554  21.142  34.415   3.346
 7141W        W79555  14.281  16.603  11.997
 7142W        W79556   7.770  28.936  11.010
 7143W        W79557   7.345  23.668  14.796
 7144W        W79558   3.447   4.939  14.458
 7145W        W79559  14.216  40.348   3.726
 7146W        W79560  39.024   5.363   4.320
 7147W        W79561   6.722  42.382   3.710
 7148W        W79562   6.717   2.407  13.344
 7149W        W79563  16.153   6.415   0.929
 7150W        W79564   5.819  37.069   1.300
 7151W        W79565  36.574  31.965  14.895
 7152W        W79566  17.250  36.437   4.713
 7153W        W79567  38.347   8.785  13.493
 7154W        W79568  30.438  18.093   3.774
 7155W        W79569   5.873   1.835  14.911
 7156W        W79570  29.152  10.655  14.305
 7157W        W79571  14.712  26.581   1.766
 7158W        W79572   7.177  26.992  14.009
 7159W        W79573   2.818  23.635  10.560
 7160W        W79574  30.577   8.846   1.405
 7161W        W79575  30.126   3.877   4.727
 7162W        W79576  19.076  26.501  12.885
 7163W        W79577  27.081  43.333   4.783
 7164W        W79578  27.523  39.415  14.887
 7165W        W79579   6.402  26.672  14.975
 7166W        W79580  33.436   2.864  11.596
 7167W        W79581  39.940  31.952  10.961
 7168W        W79582   3.439  13.219   1.774
 7169W        W79583  11.345  42.326   2.685
 7170W        W79584  27.612   0.427  12.386
 7171W        W79585  43.797  12.251  11.127
 7172W        W79586   7.801  35.871   1.854
 7173W        W79587  36.528   4.751   1.379
 7174W        W79588  22.122  30.650   1.445
 7175W        W79589  37.911  44.367   2.797
 7176W        W79590  25.654  25.678  14.977
 7177W        W79591   9.708   6.891   3.277
 7178W        W79592  17.741  16.078  12.021
 7179W        W79593  28.563  23.046   1.450
 7180W        W79594  18.291  29.483  12.540
 7181W        W79595   7.797  37.883   4.767
 7182W        W79596   0.411  19.266  11.587
 7183W        W79597  34.610  21.643  13.871
 7184W        W79598  36.465  18.288  14.466
 7185W        W79599  28.984  44.829   4.224
 7186W        W79600  36.411   7.237   2.203
 7187W        W79601  34.116  28.511   2.779
 7188W        W79602  42.357  37.071  11.458
 7189W        W79603  31.637  39.951  12.531
 7190W        W79604  39.326  24.631   2.684
 7191W        W79605  11.832  21.658   4.282
 7192W        W79606  17.564  40.011   1.805
 7193W        W79607  26.611   2.348  14.974
 7194W        W79608  26.636   0.862   1.720
 7195W        W79609  18.241  37.892   3.686
 7196W        W79610  18.544   4.709   2.688
 7197W        W79611  36.429  27.649   2.732
 7198W        W79612  27.598   7.802   1.838
 7199W        W79613  41.951  19.768   0.427
 7200W        W79614   5.742  34.869  12.072
 7201W        W79615  26.090  32.065   3.728
 7202W        W79616  36.485  28.181   3.157
 7203W        W79617  23.579  37.919  11.911
 7204W        W79618   9.676  32.391  11.958
 7205W        W79619   2.903  35.011  12.361
 7206W        W79620  25.704   0.969  12.037
 7207W        W79621   3.261  34.595  11.566
 7208W        W79622  28.590  36.966   3.811
 7209W        W79623  28.007   3.303   0.301
 7210W        W79624   1.271  11.182   3.243
 7211W        W79625   5.791  22.520   2.229
 7212W        W79626  18.248  21.609   3.757
 7213W        W79627  20.194  15.260  12.472
 7214W        W79628  11.661  37.457   1.420
 7215W        W79629  18.728   9.658  14.824
 7216W        W79630  21.176  27.017  12.956
 7217W        W79631  24.647  15.641  13.846
 7218W        W79632  14.104   8.196  12.419
 7219W        W79633  39.357  33.539  13.388
 7220W        W79634  19.150  29.635   2.760
 7221W        W79635   3.740  34.566  12.516
 7222W        W79636  29.475  37.530   1.441
 7223W        W79637  41.475   0.833  10.437
 7224W        W79638   7.831   4.857  11.549
 7225W        W79639  43.978   2.858  12.859
 7226W        W79640  22.646  23.190  10.627
 7227W        W79641  25.080  36.532  12.379
 7228W        W79642  19.159  22.648   3.728
 7229W        W79643  17.069  21.605  10.628
 7230W        W79644   6.379   6.260  11.893
 7231W        W79645  41.420  27.960  10.616
 7232W        W79646  22.743  38.381   0.319
 7233W        W79647  12.842  13.189  11.450
 7234W        W79648  30.999  33.024   4.836
 7235W        W79649  19.546   6.688   2.414
 7236W        W79650  39.517  24.049   3.634
 7237W        W79651  18.144  42.391  14.329
 7238W        W79652  24.123  41.417  10.045
 7239W        W79653  14.176   8.213  14.899
 7240W        W79654  34.384  43.794  12.082
 7241W        W79655   6.215  30.605   1.256
 7242W        W79656  41.511  26.186   1.329
 7243W        W79657  31.056  41.536  14.332
 7244W        W79658  12.262  30.556   1.340
 7245W        W79659   1.289  30.014  13.494
 7246W        W79660   1.969   9.801  11.563
 7247W        W79661   8.297  43.018   1.377
 7248W        W79662  25.484  33.474  11.946
 7249W        W79663  20.640   1.472   0.352
 7250W        W79664  31.965  30.583   2.279
 7251W        W79665   8.707  28.017   4.627
 7252W        W79666  28.033  14.094  10.537
 7253W        W79667  29.500  18.592   0.388
 7254W        W79668   5.856  40.042   3.755
 7255W        W79669   1.442  21.098  11.601
 7256W        W79670  43.835  23.208   2.899
 7257W        W79671  23.160  35.561  11.015
 7258W        W79672  19.264  32.060   2.192
 7259W        W79673  37.463  25.662  13.849
 7260W        W79674  42.880  40.834   2.327
 7261W        W79675  19.248  29.473   3.791
 7262W        W79676   5.329  24.225   1.271
 7263W        W79677  25.647   9.188  12.520
 7264W        W79678  44.394   7.353   1.932
 7265W        W79679   7.410  12.741  13.396
 7266W        W79680  27.465  16.762   1.816
 7267W        W79681   2.289  38.954  14.389
 7268W        W79682  21.691  43.440  14.444
 7269W        W79683  36.587  24.531   2.293
 7270W        W79684   7.787  43.382   0.744
 7271W        W79685  23.096  32.446   4.176
 7272W        W79686   4.433  23.047  13.357
 7273W        W79687  41.810  13.758  11.608
 7274W        W79688  35.889  33.546  11.934
 7275W        W79689  37.961   5.861   3.762
 7276W        W79690  36.500  36.520  11.581
 7277W        W79691  11.722  37.449  13.419
 7278W        W79692  36.370  18.187   3.810
 7279W        W79693  44.463   3.884  11.417
 7280W        W79694  21.757  37.537   2.340
 7281W        W79695   7.838  17.780   0.357
 7282W        W79696  33.034   6.706  12.413
 7283W        W79697  13.240  19.071  10.475
 7284W        W79698  35.487  32.084   4.696
 7285W        W79699  14.290  29.447   4.756
 7286W        W79700  37.348  13.243   1.871
 7287W        W79701  41.863  22.702  12.085
 7288W        W79702  18.678  14.260   2.248
 7289W        W79703  18.634   0.352  12.091
 7290W        W79704  30.579  21.062   2.221
 7291W        W79705  24.198  35.005   5.308
 7292W        W79706  28.577  22.190  12.955
 7293W        W79707  38.441   6.326   2.735
 7294W        W79708  12.763  35.602   1.705
 7295W        W79709  25.177   1.786   0.927
 7296W        W79710   3.946  39.974  11.515
 7297W        W79711  29.627  15.298   4.658
 7298W        W79712  12.155  27.971  12.994
 7299W        W79713  23.042  22.508  12.008
 7300W        W79714  30.137  22.115   4.760
 7301W        W79715  21.646  40.979   0.738
 7302W        W79716  30.120  41.859   4.746
 7303W        W79717  36.897  13.641  14.893
 7304W        W79718   9.368  28.449  13.804
 7305W        W79719  34.864  25.052  12.971
 7306W        W79720  41.864   6.688  12.538
 7307W        W79721  15.777  29.448  14.343
 7308W        W79722   1.826   0.479  11.463
 7309W        W79723   5.865  13.712  14.951
 7310W        W79724  27.608  41.320  13.976
 7311W        W79725  34.009  36.940   1.766
 7312W        W79726  11.349  41.421   1.851
 7313W        W79727  11.345   0.400   4.276
 7314W        W79728  21.039   3.219   3.381
 7315W        W79729  31.515  38.938  14.430
 7316W        W79730  23.649  44.480  12.045
 7317W        W79731  21.090  42.953   2.207
 7318W        W79732  23.493   9.758   0.363
 7319W        W79733   9.834  44.427   2.211
 7320W        W79734  16.195   9.349   0.245
 7321W        W79735  18.123  34.613  12.909
 7322W        W79736  14.249   6.339  10.634
 7323W        W79737  19.139  30.453   3.684
 7324W        W79738   1.366   0.416   4.817
 7325W        W79739  37.436  17.179  14.846
 7326W        W79740  22.208  32.086  10.633
 7327W        W79741  21.207  14.768  12.491
 7328W        W79742  41.998  17.131   0.347
 7329W        W79743  40.311  35.001  10.575
 7330W        W79744  35.579  14.793   3.641
 7331W        W79745   4.302  12.208   2.347
 7332W        W79746  33.980  24.123  14.964
 7333W        W79747  33.505  29.489   1.298
 7334W        W79748  14.697   8.305   0.319
 7335W        W79749  28.577  36.483   2.718
 7336W        W79750  18.689  11.776  13.950
 7337W        W79751   7.901  25.609  13.944
 7338W        W79752   8.795  28.628   1.411
 7339W        W79753   8.673  33.509  12.866
 7340W        W79754  18.738   3.306  14.953
 7341W        W79755  19.722   0.879   5.153
 7342W        W79756   9.811  26.576   3.179
 7343W        W79757  11.834   0.460  14.281
 7344W        W79758  19.236  29.145  13.982
 7345W        W79759   4.419  28.169  12.824
 7346W        W79760  17.776  11.207   4.770
 7347W        W79761  37.942  31.541   2.297
 7348W        W79762  22.526   0.844  10.121
 7349W        W79763  39.044  25.646   0.432
 7350W        W79764  20.741   1.862   0.964
 7351W        W79765  15.821  33.419   3.746
 7352W        W79766  44.973   3.255  14.413
 7353W        W79767  20.757   6.215   3.174
 7354W        W79768  12.352  23.732   1.385
 7355W        W79769   3.440  40.360  12.414
 7356W        W79770  35.493  33.596   4.813
 7357W        W79771  27.588  10.259  12.015
 7358W        W79772  23.159   0.259   3.862
 7359W        W79773  33.012  24.689  13.993
 7360W        W79774  22.154   5.720   3.253
 7361W        W79775  34.522  38.837   4.240
 7362W        W79776  38.485  38.071  12.435
 7363W        W79777  31.954  13.153  10.414
 7364W        W79778  13.643   1.733   1.723
 7365W        W79779   7.300  37.944   1.287
 7366W        W79780  40.875  32.996   4.716
 7367W        W79781  42.847   1.344   0.447
 7368W        W79782  15.129   2.371   2.829
 7369W        W79783  36.418   9.868  14.782
 7370W        W79784  38.967  37.009   4.237
 7371W        W79785  27.556  31.937   1.746
 7372W        W79786  16.749  11.202   2.340
 7373W        W79787  13.123  27.548   0.955
 7374W        W79788  18.143  41.948   2.283
 7375W        W79789  15.127  39.388  13.862
 7376W        W79790  38.827  23.201  11.918
 7377W        W79791  43.469   1.797  12.862
 7378W        W79792   0.364  16.698  12.083
 7379W        W79793  13.657  17.226  11.378
 7380W        W79794  35.430  33.576  12.034
 7381W        W79795  22.108   8.658  14.324
 7382W        W79796  32.983   9.821  11.047
 7383W        W79797   0.833  11.162   0.914
 7384W        W79798  24.081   0.885   2.764
 7385W        W79799  38.889   7.377   1.910
 7386W        W79800  17.094   0.871   3.216
 7387W        W79801   2.288  15.200   3.158
 7388W        W79802  18.642  13.325  13.950
 7389W        W79803  27.081  13.113  10.450
 7390W        W79804  12.698  22.530  13.428
 7391W        W79805   0.913  23.988   3.758
 7392W        W79806   7.762  17.266   4.621
 7393W        W79807  38.015  12.779  12.459
 7394W        W79808  16.204  39.904  12.564
 7395W        W79809  32.138   5.708   0.935
 7396W        W79810  24.138  19.283   0.333
 7397W        W79811   7.794  11.802   0.905
 7398W        W79812  29.971  13.806   0.874
 7399W        W79813  38.867  28.146  12.534
 7400W        W79814  27.073  32.617  12.407
 7401W        W79815   9.305  25.061  12.830
 7402W        W79816  43.467  10.168  13.516
 7403W        W79817  30.979  11.243   1.701
 7404W        W79818  40.430  39.532  14.987
 7405W        W79819  41.504  15.581   3.755
 7406W        W79820   6.869  32.612  12.082
 7407W        W79821  15.303   0.922   4.339
 7408W        W79822  40.979  11.802  11.971
 7409W        W79823   9.790  32.955  11.890
 7410W        W79824  12.722  10.768   3.357
 7411W        W79825  39.040  40.980   4.164
 7412W        W79826  41.529  24.674  11.060
 7413W        W79827  29.023  21.155   2.771
 7414W        W79828  12.669  21.656  11.574
 7415W        W79829  33.948  40.051  14.317
 7416W        W79830  16.671   5.317  14.477
 7417W        W79831  32.553   1.825   4.675
 7418W        W79832   7.824  31.909  12.096
 7419W        W79833   7.691  43.471   3.205
 7420W        W79834  18.772  21.229  14.361
 7421W        W79835  15.192   8.311   2.296
 7422W        W79836  19.234   4.768   2.206
 7423W        W79837   2.832  40.535  13.953
 7424W        W79838  29.069  19.160  13.056
 7425W        W79839  25.008  38.372  10.406
 7426W        W79840   8.655  29.134   4.198
 7427W        W79841   9.876  41.340   4.759
 7428W        W79842  43.875  29.478  14.347
 7429W        W79843  21.628  12.195   3.701
 7430W        W79844  23.642  22.590  11.961
 7431W        W79845  35.982  10.248   3.786
 7432W        W79846   7.706  38.912  14.999
 7433W        W79847   2.268  18.768  12.488
 7434W        W79848  36.449  35.558  14.449
 7435W        W79849  35.517  30.429  11.377
 7436W        W79850  29.959  38.997   0.751
 7437W        W79851  19.228  44.987   9.501
 7438W        W79852   8.199  42.390   0.299
 7439W        W79853  28.175   2.739  12.832
 7440W        W79854  19.732  17.145  12.460
 7441W        W79855  39.053  11.318  12.082
 7442W        W79856  27.159  37.520  13.859
 7443W        W79857  26.976   3.266  10.460
 7444W        W79858  44.471  42.925  11.459
 7445W        W79859  39.840  17.628  11.578
 7446W        W79860   4.846  11.625   0.733
 7447W        W79861  36.927   4.394  13.834
 7448W        W79862   7.780  40.852   2.383
 7449W        W79863  29.025  11.138   3.238
 7450W        W79864  33.400  12.643   1.720
 7451W        W79865  21.673  39.339   2.262
 7452W        W79866   7.383  14.118   1.281
 7453W        W79867   1.954  42.395   0.794
 7454W        W79868  16.094   3.927   1.403
 7455W        W79869   0.878  35.952  13.810
 7456W        W79870   1.394  11.664  13.358
 7457W        W79871  27.158  26.563   4.687
 7458W        W79872  11.826   0.380  14.941
 7459W        W79873   2.287  17.175  11.907
 7460W        W79874  31.404  35.413   3.226
 7461W        W79875  15.821   6.693   9.662
 7462W        W79876  33.113  28.123  12.521
 7463W        W79877  14.188  17.576  12.559
 7464W        W79878  18.141  30.443   0.818
 7465W        W79879  19.262  32.122  13.896
 7466W        W79880  44.264  18.593   5.246
 7467W        W79881  13.235  43.439   4.813
 7468W        W79882  44.837  30.437   3.806
 7469W        W79883  11.804  20.252  11.922
 7470W        W79884  20.579  17.296  12.927
 7471W        W79885  21.708   6.780  13.418
 7472W        W79886   1.338   0.780   2.416
 7473W        W79887  26.653  17.686   1.792
 7474W        W79888  18.112  40.898   2.261
 7475W        W79889  42.319  42.292   3.852
 7476W        W79890  24.639  42.777   3.818
 7477W        W79891  27.060   2.356   2.284
 7478W        W79892  31.123  16.680  14.378
 7479W        W79893  24.669  39.553  13.813
 7480W        W79894   7.360  20.260   3.261
 7481W        W79895  25.060  41.927   2.218
 7482W        W79896   9.694  43.806  12.958
 7483W        W79897  15.776  32.589   0.950
 7484W        W79898  21.249  43.367   4.212
 7485W        W79899  38.482  11.805   1.758
 7486W        W79900  12.678   9.650  11.568
 7487W        W79901  36.928  38.379   1.312
 7488W        W79902  26.983  44.462   1.394
 7489W        W79903  15.230  44.462  14.773
 7490W        W79904  14.726  42.026  10.887
 7491W        W79905  26.520   1.361  10.567
 7492W        W79906  26.001  24.581  14.461
 7493W        W79907   3.853  44.826   3.250
 7494W        W79908  10.147   0.873  12.490
 7495W        W79909   3.844   4.373   3.243
 7496W        W79910   8.829  22.251   4.244
 7497W        W79911  26.617  22.062  10.440
 7498W        W79912  17.683  26.066  12.038
 7499W        W79913  42.326   8.206   4.631
 7500W        W79914   3.300   1.248   1.433
 7501W        W79915   1.312   5.312  12.977
 7502W        W79916  36.021  42.957   2.743
 7503W        W79917  30.508   9.790   1.720
 7504W        W79918  36.395  29.434  13.471
 7505W        W79919  43.764  20.067  11.495
 7506W        W79920  42.980  17.244  13.867
 7507W        W79921  20.222  34.923  14.460
 7508W        W79922  24.191  16.664   3.263
 7509W        W79923  37.515  10.857   0.948
 7510W        W79924  33.064  20.553  11.869
 7511W        W79925  44.971   7.786  13.064
 7512W        W79926  18.680  43.932  10.441
 7513W        W79927   7.888  20.075   2.890
 7514W        W79928  23.153  36.567  11.103
 7515W        W79929  30.496   4.820  14.029
 7516W        W79930   8.719  18.572  14.029
 7517W        W79931  44.836  18.069  14.981
 7518W        W79932  18.781  35.893   4.730
 7519W        W79933  42.950  40.456  13.455
 7520W        W79934  39.016  10.336  13.313
 7521W        W79935  13.752  16.595  10.610
 7522W        W79936  22.191  10.240  12.463
 7523W        W79937  36.351  25.469  11.919
 7524W        W79938  23.155  26.998  10.536
 7525W        W79939   3.935  35.474  10.416
 7526W        W79940  21.718  15.123   0.922
 7527W        W79941  12.219  25.044   4.201
 7528W        W79942  44.406  10.200  10.420
 7529W        W79943  14.191  39.536  12.419
 7530W        W79944  42.983  12.728   4.728
 7531W        W79945  11.819  43.944  14.991
 7532W        W79946  12.289  26.073   4.750
 7533W        W79947  14.163  21.162  11.613
 7534W        W79948  40.979  34.087   1.297
 7535W        W79949  24.174  19.244  10.470
 7536W        W79950   6.802  31.146   3.169
 7537W        W79951   3.777  27.028   0.370
 7538W        W79952   9.820   4.938  13.513
 7539W        W79953  29.669   5.408  14.430
 7540W        W79954  31.477  35.557  11.908
 7541W        W79955  32.424   4.903   1.770
 7542W        W79956   4.344   9.275  12.942
 7543W        W79957   7.814  18.178   9.954
 7544W        W79958  44.293  43.989  10.987
 7545W        W79959  14.340  25.996   1.228
 7546W        W79960  14.303  17.631   1.409
 7547W        W79961  28.997   5.375  14.912
 7548W        W79962  42.839   4.356   1.881
 7549W        W79963   0.288  39.930  10.542
 7550W        W79964   6.231  35.952  13.427
 7551W        W79965  38.499   3.909   1.350
 7552W        W79966   4.338  35.502  14.305
 7553W        W79967  38.831   7.678   3.719
 7554W        W79968  43.477   7.755   4.751
 7555W        W79969  31.518  39.968   0.824
 7556W        W79970   6.750  23.729   2.686
 7557W        W79971  40.817  17.668   3.784
 7558W        W79972  16.775  32.603  14.813
 7559W        W79973  28.524  35.024  11.390
 7560W        W79974  35.437  10.764   4.607
 7561W        W79975  16.709   8.654  12.825
 7562W        W79976  25.096   7.406   1.885
 7563W        W79977  24.595  35.406  12.988
 7564W        W79978   8.328  10.309   1.906
 7565W        W79979  42.410  33.080   4.184
 7566W        W79980   0.489  18.222   1.375
 7567W        W79981  21.541   0.810  11.903
 7568W        W79982  31.945  33.947   0.772
 7569W        W79983  34.488   3.912  10.947
 7570W        W79984  32.919  14.752   4.607
 7571W        W79985  28.666  13.279   3.837
 7572W        W79986   2.362   9.267   3.850
 7573W        W79987  40.811   5.864  11.563
 7574W        W79988  11.349  30.058   1.273
 7575W        W79989  14.805  38.842   3.854
 7576W        W79990  42.494  29.097  12.932
 7577W        W79991   9.805  33.573   1.743
 7578W        W79992  18.172  26.537  12.036
 7579W        W79993   0.963   2.329  13.376
 7580W        W79994   4.709   6.701  14.299
 7581W        W79995  19.256  27.133   4.150
 7582W        W79996  33.914  37.479  10.494
 7583W        W79997  33.928  20.068  14.281
 7584W        W79998  40.851  29.647   1.413
 7585W        W79999   2.307  36.900  10.904
 7586W        W80000  20.652   7.222  14.894
 7587W        W80001  28.148   8.345  12.511
 7588W        W80002  13.199  35.490   0.249
 7589W        W80003  34.414  24.103   1.891
 7590W        W80004  31.419  17.687   0.795
 7591W        W80005   0.900  37.549   3.226
 7592W        W80006  41.901  23.064  12.357
 7593W        W80007  33.598   1.963   2.198
 7594W        W80008  25.096  10.167  14.495
 7595W        W80009  10.874  39.389   0.762
 7596W        W80010  37.935  12.785  10.981
 7597W        W80011  34.404  13.113   0.836
 7598W        W80012  31.122  18.666  13.468
 7599W        W80013  27.118  31.016   2.771
 7600W        W80014  38.002   5.295  12.951
 7601W        W80015  31.136  17.207   4.597
 7602W        W80016  15.205  23.693  10.544
 7603W        W80017   2.356  30.470   1.251
 7604W        W80018  24.650  31.543   2.874
 7605W        W80019   0.980  37.356   2.393
 7606W        W80020  13.672  26.578   3.299
 7607W        W80021  38.969  28.934   2.248
 7608W        W80022   2.909  40.478   4.122
 7609W        W80023  44.916  16.644   4.343
 7610W        W80024   0.772  10.252  12.022
 7611W        W80025  43.376  40.841   4.726
 7612W        W80026  40.803   6.409   0.837
 7613W        W80027  12.739   1.380  13.940
 7614W        W80028  17.669   5.306  10.948
 7615W        W80029  25.048  10.651  11.493
 7616W        W80030  10.172  29.443  11.454
 7617W        W80031  17.729  38.850   0.964
 7618W        W80032  17.078  18.698   4.806
 7619W        W80033   5.230  37.885   1.335
 7620W        W80034  20.687  14.175  13.964
 7621W        W80035  33.492  29.116   1.261
 7622W        W80036  20.712  32.403  12.895
 7623W        W80037  16.095  15.722   4.631
 7624W        W80038  17.227  38.028   3.813
 7625W        W80039  37.421   0.346  12.342
 7626W        W80040  36.591  42.918  14.278
 7627W        W80041  23.706  12.844   4.323
 7628W        W80042  22.153  19.580   2.706
 7629W        W80043  42.024  28.576   3.214
 7630W        W80044  25.129  33.411   3.651
 7631W        W80045  14.628  30.008  11.933
 7632W        W80046  41.035  43.822   2.718
 7633W        W80047  13.752   2.940  14.793
 7634W        W80048  43.818  17.083  13.840
 7635W        W80049  41.492  27.947  14.415
 7636W        W80050  39.495  36.039  12.851
 7637W        W80051  42.495  12.332  10.526
 7638W        W80052  34.455  26.195   3.215
 7639W        W80053  20.607  28.999  13.973
 7640W        W80054   9.704  28.062  13.404
 7641W        W80055  34.881  35.058   2.290
 7642W        W80056  11.865  44.344  11.553
 7643W        W80057   3.367  17.247  12.008
 7644W        W80058   4.299   5.875   1.212
 7645W        W80059  38.986   2.767   2.877
 7646W        W80060  37.519  33.912   0.379
 7647W        W80061  15.752  19.152   5.708
 7648W        W80062  32.049   9.830  13.870
 7649W        W80063  35.394  15.106  11.911
 7650W        W80064  23.680   2.833  10.470
 7651W        W80065  39.509  17.097  13.405
 7652W        W80066  44.862  10.354   1.382
 7653W        W80067  11.188   3.811  14.288
 7654W        W80068   7.756  23.197   1.699
 7655W        W80069  21.246  12.778  13.914
 7656W        W80070   3.403  38.889   1.440
 7657W        W80071   3.438   8.852   4.757
 7658W        W80072   8.870   0.828   0.871
 7659W        W80073   9.361  40.496  11.932
 7660W        W80074  14.121   2.801  13.887
 7661W        W80075   5.891  23.241  14.010
 7662W        W80076  11.795  25.137   5.119
 7663W        W80077   1.248  31.068   3.149
 7664W        W80078   4.423  20.583   0.418
 7665W        W80079  29.583  18.761  11.482
 7666W        W80080  21.216  42.486  12.443
 7667W        W80081  20.160  34.975  12.487
 7668W        W80082  36.391  16.652   1.440
 7669W        W80083  17.154  18.702  14.018
 7670W        W80084  20.565  15.100  13.315
 7671W        W80085  10.870  15.813  14.330
 7672W        W80086  43.788  18.717  13.991
 7673W        W80087  42.374  36.538  13.918
 7674W        W80088  10.772   3.868   2.243
 7675W        W80089  16.737  36.855  14.369
 7676W        W80090  21.701   0.823  11.029
 7677W        W80091   1.776   2.937   3.770
 7678W        W80092  17.634  24.119   0.355
 7679W        W80093  20.180  35.965  10.451
 7680W        W80094  39.001  16.703   1.719
 7681W        W80095  35.973  20.063   0.943
 7682W        W80096  34.897  22.608  13.405
 7683W        W80097   8.355  10.875  13.797
 7684W        W80098  10.809  32.463  12.846
 7685W        W80099  31.141   1.357  12.500
 7686W        W80100  37.513  42.341   4.236
 7687W        W80101  31.404  18.757  12.823
 7688W        W80102  11.324  17.779   0.954
 7689W        W80103  23.061  17.074  11.094
 7690W        W80104   5.770  38.007  11.096
 7691W        W80105  22.096   4.232  13.955
 7692W        W80106  10.270  42.928   1.347
 7693W        W80107  18.647   6.813  10.937
 7694W        W80108  26.066  25.142   0.378
 7695W        W80109  32.636   6.401  10.510
 7696W        W80110  11.847  31.648  11.957
 7697W        W80111  21.169   9.360  14.871
 7698W        W80112  19.138  42.865   3.815
 7699W        W80113  10.145   3.455  12.003
 7700W        W80114   8.726  24.114  11.489
 7701W        W80115  36.406  13.168  10.929
 7702W        W80116  34.917  15.616   0.249
 7703W        W80117  19.087  15.797   3.696
 7704W        W80118  38.959  43.335  12.534
 7705W        W80119  33.384  18.698  11.014
 7706W        W80120  16.140  26.122   4.629
 7707W        W80121  38.468   8.261  14.910
 7708W        W80122   6.186  28.446   0.369
 7709W        W80123   4.901  43.471   1.344
 7710W        W80124  22.556  10.741  13.339
 7711W        W80125   7.753  24.483   2.409
 7712W        W80126  37.380  40.828  13.446
 7713W        W80127   4.845  13.630  13.881
 7714W        W80128  16.252  44.344   0.897
 7715W        W80129  26.635  26.695  12.363
 7716W        W80130  33.612  27.955  11.991
 7717W        W80131  23.498  17.575  12.474
 7718W        W80132  35.101  11.621   1.334
 7719W        W80133  24.140  33.001  14.964
 7720W        W80134  11.723   1.793   2.278
 7721W        W80135  10.377  44.288   3.190
 7722W        W80136   7.211  30.534   0.887
 7723W        W80137  35.540  15.188  10.526
 7724W        W80138  10.232  24.110   2.364
 7725W        W80139  14.751  23.689   1.428
 7726W        W80140  38.927  42.814   1.398
 7727W        W80141   9.277  42.787  10.471
 7728W        W80142  35.461  12.152   2.201
 7729W        W80143  19.671  33.104   0.409
 7730W        W80144  19.141   1.334   1.752
 7731W        W80145  16.573  36.539   0.477
 7732W        W80146  38.946   2.426  11.395
 7733W        W80147  14.114  35.985  12.947
 7734W        W80148  13.117  32.132   1.892
 7735W        W80149  17.247  31.411   0.342
 7736W        W80150  22.224  11.709   1.907
 7737W        W80151  25.122  20.702  14.399
 7738W        W80152  15.191   9.851   3.840
 7739W        W80153   1.394   7.191  14.980
 7740W        W80154  34.880   8.887   5.209
 7741W        W80155  33.039  11.806  11.546
 7742W        W80156  20.132  21.733  14.963
 7743W        W80157  28.031  31.915   1.340
 7744W        W80158   7.774   8.780   1.855
 7745W        W80159   4.261  26.493  13.429
 7746W        W80160   2.864  11.267  11.061
 7747W        W80161   2.954  35.361  14.353
 7748W        W80162  23.611  41.876   2.379
 7749W        W80163  39.542  44.290  13.479
 7750W        W80164  44.403  13.692  13.832
 7751W        W80165  25.140  24.053  13.871
 7752W        W80166  15.181   8.380   4.217
 7753W        W80167  33.591   2.367  13.910
 7754W        W80168  42.866  26.115   0.796
 7755W        W80169  40.952  27.019  11.953
 7756W        W80170  35.006  27.509   0.862
 7757W        W80171  44.958  36.875  10.414
 7758W        W80172  31.098  29.923   4.114
 7759W        W80173  22.141   0.887  14.003
 7760W        W80174  36.347  21.163  12.824
 7761W        W80175   5.730  41.528  13.882
 7762W        W80176   8.184  23.514   2.840
 7763W        W80177  30.462   1.394  12.980
 7764W        W80178  41.028  32.996  11.993
 7765W        W80179  28.620  32.007  13.331
 7766W        W80180  11.631   9.280   1.751
 7767W        W80181  44.851   7.343   2.372
 7768W        W80182  23.123  35.437  13.045
 7769W        W80183   6.336  39.019   0.295
 7770W        W80184  17.675  39.833   0.422
 7771W        W80185  23.569  40.335   1.328
 7772W        W80186   9.714  12.853  11.059
 7773W        W80187  43.983   0.949  11.522
 7774W        W80188  26.541  13.769  12.844
 7775W        W80189   3.952  11.218  14.819
 7776W        W80190  33.536   4.383  14.867
 7777W        W80191  15.650  24.647   0.448
 7778W        W80192  14.121  26.150  12.025
 7779W        W80193  13.280  21.215  10.494
 7780W        W80194  37.837  17.086   0.364
 7781W        W80195  15.656  13.224  12.442
 7782W        W80196   3.245  36.360  12.454
 7783W        W80197  21.721   3.779   0.934
 7784W        W80198  10.380  12.652  10.499
 7785W        W80199  21.172  31.622   3.206
 7786W        W80200  39.041  22.118  13.062
 7787W        W80201  34.518  44.812  11.583
 7788W        W80202   2.254  29.629   3.684
 7789W        W80203  35.552  11.181   2.820
 7790W        W80204   2.765  24.573  11.866
 7791W        W80205  44.328   2.893  12.484
 7792W        W80206  41.904  42.439   4.216
 7793W        W80207   6.786  11.309  10.597
 7794W        W80208  37.032  35.503   9.653
 7795W        W80209   7.201   4.799   4.610
 7796W        W80210  13.194   9.172   1.280
 7797W        W80211   9.761   9.239   1.894
 7798W        W80212  30.564   1.312  10.582
 7799W        W80213  24.167  26.492   0.756
 7800W        W80214  34.944  31.899   1.907
 7801W        W80215   5.915  11.637   1.755
 7802W        W80216  12.150  15.701  12.910
 7803W        W80217   8.212   4.381   1.340
 7804W        W80218  15.253  23.000   2.893
 7805W        W80219   0.341  37.011  10.641
 7806W        W80220  28.447  14.252   1.795
 7807W        W80221  26.043  32.597  14.319
 7808W        W80222  31.134   1.944  12.015
 7809W        W80223  32.518  25.962   0.895
 7810W        W80224  26.066  40.434   0.764
 7811W        W80225   9.884  14.127  10.578
 7812W        W80226  31.130  34.603  13.471
 7813W        W80227  35.045  10.301   1.357
 7814W        W80228   3.800  15.607  13.826
 7815W        W80229   6.678   3.264   0.847
 7816W        W80230   9.253  38.498  11.385
 7817W        W80231   4.365  44.351  12.536
 7818W        W80232  33.595   3.445   0.957
 7819W        W80233   0.405  32.466  14.974
 7820W        W80234  10.345  20.652   4.331
 7821W        W80235  10.328  31.611  11.066
 7822W        W80236   0.256  15.719   2.897
 7823W        W80237  11.864  35.882  11.495
 7824W        W80238   0.381   2.446  14.944
 7825W        W80239   2.245  26.462   3.814
 7826W        W80240  14.720  29.094  12.398
 7827W        W80241  42.503   5.279  13.013
 7828W        W80242  44.379  36.086  13.908
 7829W        W80243  43.974  11.821   1.340
 7830W        W80244  18.266   0.351  11.899
 7831W        W80245  39.882  20.646   4.829
 7832W        W80246  34.604  36.515   1.823
 7833W        W80247  15.606  11.151   0.922
 7834W        W80248   1.271  13.336   4.246
 7835W        W80249  20.111  30.060  12.944
 7836W        W80250   3.227   0.289   4.189
 7837W        W80251  11.839   0.381   3.831
 7838W        W80252  43.494   0.360   4.228
 7839W        W80253  39.045  17.701   0.454
 7840W        W80254  26.081  42.991  13.899
 7841W        W80255  30.500  36.380   0.956
 7842W        W80256   0.961  30.946  11.982
 7843W        W80257  40.314  21.022  13.881
 7844W        W80258  13.818  43.019  12.563
 7845W        W80259   9.788  36.915   0.859
 7846W        W80260  25.636   4.726  10.486
 7847W        W80261  33.417   9.838   2.295
 7848W        W80262  44.836  35.550  14.029
 7849W        W80263  23.000   4.795  11.027
 7850W        W80264  42.895  41.917   3.754
 7851W        W80265  40.370  26.659  12.909
 7852W        W80266  27.019  30.159  10.913
 7853W        W80267  35.926  43.801  12.918
 7854W        W80268   1.856  30.111  14.392
 7855W        W80269  24.115  22.125   3.843
 7856W        W80270  32.631  35.911  10.966
 7857W        W80271  35.483   7.832   1.916
 7858W        W80272  13.225  12.690  13.466
 7859W        W80273  25.501  30.017  12.904
 7860W        W80274   8.351  41.409   0.449
 7861W        W80275  39.939   2.928  12.446
 7862W        W80276   5.825  35.917  12.916
 7863W        W80277  35.366   1.482   3.678
 7864W        W80278   2.780  15.820   1.291
 7865W        W80279  31.053  26.998  14.013
 7866W        W80280   1.754  22.997  14.784
 7867W        W80281  42.955  13.247   0.912
 7868W        W80282  27.546   0.912   2.833
 7869W        W80283  44.847   5.929   3.255
 7870W        W80284  20.033  21.219  12.535
 7871W        W80285  18.598   8.232  10.502
 7872W        W80286   4.284  36.008   1.277
 7873W        W80287  44.446  39.488   4.303
 7874W        W80288  33.405   9.190  14.934
 7875W        W80289  24.208   7.731  11.088
 7876W        W80290  23.087  32.394  11.417
 7877W        W80291  13.206   7.701   0.841
 7878W        W80292  20.201  25.001   1.308
 7879W        W80293  29.483  41.491   4.599
 7880W        W80294  44.784  16.113  14.916
 7881W        W80295   5.711  21.211  11.034
 7882W        W80296   4.821  27.530   1.252
 7883W        W80297  22.568   3.334  13.853
 7884W        W80298  18.624  41.515  12.438
 7885W        W80299  34.532   7.754  14.499
 7886W        W80300  41.879   2.416  12.516
 7887W        W80301  10.879  25.681  13.961
 7888W        W80302  20.560   7.680   1.262
 7889W        W80303  20.734  12.331   0.451
 7890W        W80304   6.861  40.921   2.882
 7891W        W80305   8.658  28.472  12.900
 7892W        W80306  37.889  40.854   0.917
 7893W        W80307  17.703  37.490  12.093
 7894W        W80308  28.532  32.071  11.065
 7895W        W80309  29.143  40.477  14.898
 7896W        W80310  26.477  25.529   3.827
 7897W        W80311  19.039  41.876   0.949
 7898W        W80312  18.565  33.042   3.699
 7899W        W80313  29.658  15.142   4.198
 7900W        W80314  22.539  19.761   3.200
 7901W        W80315  33.954   4.911   0.956
 7902W        W80316   1.402  39.399   2.285
 7903W        W80317  10.637   5.719   0.453
 7904W        W80318   0.380  22.142   0.846
 7905W        W80319  10.338  21.024  11.924
 7906W        W80320   5.753  29.623   4.300
 7907W        W80321  21.526   4.245  11.541
 7908W        W80322   0.459  13.177  12.456
 7909W        W80323  30.628  40.372   4.148
 7910W        W80324  37.445  25.118   2.888
 7911W        W80325   3.347  16.642   9.968
 7912W        W80326  35.872  32.505   4.159
 7913W        W80327   4.383  27.140  12.936
 7914W        W80328  21.661   0.415   3.374
 7915W        W80329  25.119  36.533  11.561
 7916W        W80330  26.978  38.429   0.933
 7917W        W80331  44.834  44.879   1.715
 7918W        W80332  22.708  23.196  12.492
 7919W        W80333   1.947  24.986  14.383
 7920W        W80334  41.302  25.547   1.699
 7921W        W80335  10.260  37.986  12.017
 7922W        W80336  11.829  42.921   2.237
 7923W        W80337  37.582  27.675  11.905
 7924W        W80338  16.598  26.589   3.182
 7925W        W80339  38.447   0.490  11.917
 7926W        W80340   3.842  26.524  13.544
 7927W        W80341   7.300   1.340   2.886
 7928W        W80342  27.060   4.734  14.015
 7929W        W80343  32.416   6.399   2.815
 7930W        W80344   1.808  39.056  12.038
 7931W        W80345  43.944  36.876  13.381
 7932W        W80346  31.644  24.174  10.627
 7933W        W80347  18.234  28.159   3.632
 7934W        W80348   1.476   3.893  14.847
 7935W        W80349   8.315  37.456   4.731
 7936W        W80350  34.573   1.799   0.933
 7937W        W80351  17.636   3.788  11.576
 7938W        W80352  37.540  18.287   0.781
 7939W        W80353   8.782  34.985  12.555
 7940W        W80354  33.588   4.868  14.497
 7941W        W80355  38.843  10.360  14.929
 7942W        W80356  21.232  36.933   3.317
 7943W        W80357  43.802  34.911   0.780
 7944W        W80358  29.465  10.801   3.844
 7945W        W80359  16.784  31.632  13.892
 7946W        W80360  33.049  24.647   0.955
 7947W        W80361  28.574  15.173  11.587
 7948W        W80362  12.727  37.516   4.672
 7949W        W80363  15.668  34.551  12.558
 7950W        W80364  35.377  23.053   2.345
 7951W        W80365  24.185   6.727  12.376
 7952W        W80366  27.562   5.809  10.421
 7953W        W80367   5.239   5.802   1.841
 7954W        W80368  11.840  18.551   0.277
 7955W        W80369  29.644  37.416  10.068
 7956W        W80370  19.102  15.224  11.395
 7957W        W80371  39.884   3.847  11.563
 7958W        W80372  31.141  25.530   3.320
 7959W        W80373  35.016  27.005  14.297
 7960W        W80374  19.273  20.224  13.911
 7961W        W80375  13.722  23.124  11.437
 7962W        W80376  19.768  27.175  11.073
 7963W        W80377  25.060  37.377  14.942
 7964W        W80378   6.326  31.039  12.033
 7965W        W80379  35.460  42.378  13.063
 7966W        W80380  33.982  25.049   5.134
 7967W        W80381  44.400  34.524   0.279
 7968W        W80382  43.770  24.072   3.218
 7969W        W80383  11.735   7.185   0.328
 7970W        W80384  10.820  27.962  13.026
 7971W        W80385  21.237  29.596  10.572
 7972W        W80386   3.431   7.895  14.335
 7973W        W80387  32.103  22.190   2.824
 7974W        W80388  26.101  31.964   1.739
 7975W        W80389   6.814  43.999  13.996
 7976W        W80390   5.321  23.641   1.345
 7977W        W80391  17.257  27.193  11.978
 7978W        W80392   0.789  37.489  13.908
 7979W        W80393  30.947  40.446  12.573
 7980W        W80394   2.920   7.368   0.869
 7981W        W80395  41.944   0.951  12.908
 7982W        W80396   4.912  40.891  11.994
 7983W        W80397   3.417  36.524   4.715
 7984W        W80398  30.514  34.453  12.968
 7985W        W80399  18.614  41.511   0.774
 7986W        W80400  43.474  10.712  13.057
 7987W        W80401  39.861   7.416  14.475
 7988W        W80402  11.635  35.370   3.700
 7989W        W80403  33.896  43.814   3.790
 7990W        W80404  35.603   9.763   2.319
 7991W        W80405  30.562  39.336   3.178
 7992W        W80406  35.546   2.320   0.373
 7993W        W80407  17.750  22.154  14.424
 7994W        W80408   9.173  40.443  13.472
 7995W        W80409  21.522  15.753   2.808
 7996W        W80410   3.711  18.137   0.911
 7997W        W80411  28.137  21.734  13.792
 7998W        W80412  33.572   6.217   4.681
 7999W        W80413  16.667  24.009  13.831
 8000W        W80414  34.515   7.809  10.574
 8001W        W80415   6.814  24.686   0.437
 8002W        W80416  38.554  33.482  12.412
 8003W        W80417  27.174  41.337   5.099
 8004W        W80418  27.944   8.802   4.834
 8005W        W80419   5.691  12.298   1.771
 8006W        W80420  35.361  21.168   5.801
 8007W        W80421  37.060  30.102  11.377
 8008W        W80422  20.031  42.029  14.405
 8009W        W80423  25.050  24.212   2.395
 8010W        W80424  11.761  43.893   3.736
 8011W        W80425  14.812   1.398  14.890
 8012W        W80426  36.870  27.083   0.878
 8013W        W80427   8.705  11.851  14.879
 8014W        W80428  23.524  12.794  13.314
 8015W        W80429  43.478  40.408   4.179
 8016W        W80430   8.178  41.915   4.144
 8017W        W80431  33.958  33.031   4.666
 8018W        W80432   4.368  25.040   1.756
 8019W        W80433   4.232  12.224  10.044
 8020W        W80434  42.779  13.693  14.412
 8021W        W80435  11.802  41.847  10.593
 8022W        W80436  31.132  28.596   0.911
 8023W        W80437   7.219  38.950  13.348
 8024W        W80438   9.751   7.363  13.832
 8025W        W80439   7.791  40.310  11.014
 8026W        W80440  35.990  31.109  14.924
 8027W        W80441  10.854  22.627   4.780
 8028W        W80442  39.050  18.097  14.781
 8029W        W80443  25.495  37.378  14.370
 8030W        W80444  31.967  37.969   3.788
 8031W        W80445  25.654  28.997  13.358
 8032W        W80446  26.565   2.410  11.857
 8033W        W80447  37.457  30.022  10.460
 8034W        W80448   4.917  38.034   4.290
 8035W        W80449  40.464  38.862   5.124
 8036W        W80450  15.127   1.920   0.482
 8037W        W80451  33.389  40.462   2.233
 8038W        W80452  31.004  42.446  14.352
 8039W        W80453  11.294  32.064  14.808
 8040W        W80454  20.676  39.825  13.061
 8041W        W80455  13.133   7.713  10.573
 8042W        W80456   9.310  18.182  14.492
 8043W        W80457  43.481  33.093  11.528
 8044W        W80458  25.116  19.218   4.231
 8045W        W80459   7.320  27.034  10.573
 8046W        W80460  30.941  39.322  12.476
 8047W        W80461  25.488   5.819  14.777
 8048W        W80462  17.281  12.274   2.305
 8049W        W80463  31.564  29.560  14.785
 8050W        W80464  16.308  35.439  14.984
 8051W        W80465  22.176  22.596  12.912
 8052W        W80466  43.306   1.961   1.363
 8053W        W80467  39.365   1.850   2.353
 8054W        W80468  32.454  32.092  12.398
 8055W        W80469  22.542  17.261   9.530
 8056W        W80470  20.095  37.893   2.396
 8057W        W80471  40.436  28.437   0.842
 8058W        W80472  35.968  25.606  11.477
 8059W        W80473  32.040  12.238   3.189
 8060W        W80474  13.622  30.614   0.876
 8061W        W80475  29.057  20.098   3.683
 8062W        W80476  39.865  11.312  12.879
 8063W        W80477  34.035  24.657   3.747
 8064W        W80478  18.601  17.224   4.302
 8065W        W80479  29.074   9.652  12.474
 8066W        W80480  38.545  37.048  11.498
 8067W        W80481  36.362  43.369   3.846
 8068W        W80482  11.733   6.862   0.810
 8069W        W80483   0.359  29.622   1.404
 8070W        W80484  10.825  10.761  12.831
 8071W        W80485  43.913  41.523  10.973
 8072W        W80486  14.236  14.221   2.877
 8073W        W80487  40.996  31.507  13.926
 8074W        W80488   0.815  42.394  11.031
 8075W        W80489  42.292  20.740   1.747
 8076W        W80490  26.598   0.978  10.414
 8077W        W80491  32.522   6.221  12.055
 8078W        W80492   7.665  43.378  11.008
 8079W        W80493  33.556  21.073  13.981
 8080W        W80494  36.047  25.143   2.777
 8081W        W80495  21.083  32.903   3.644
 8082W        W80496  34.926  24.578  10.925
 8083W        W80497  12.721  21.066  10.121
 8084W        W80498  23.582  21.218  12.933
 8085W        W80499  38.496   8.271   4.677
 8086W        W80500   6.288  25.704  14.024
 8087W        W80501   0.492   8.863   1.395
 8088W        W80502  34.051  27.945  12.438
 8089W        W80503  43.345  24.575   0.829
 8090W        W80504   5.781   6.696   2.321
 8091W        W80505  25.599   8.295  12.433
 8092W        W80506   5.777  19.283   3.374
 8093W        W80507  40.982   1.365  13.884
 8094W        W80508  27.601  18.674  12.858
 8095W        W80509  24.077  38.434  14.860
 8096W        W80510  25.537  10.160  12.910
 8097W        W80511  12.730  25.171  12.825
 8098W        W80512  27.120  15.277   3.697
 8099W        W80513  30.078  30.547  13.834
 8100W        W80514  12.150  22.656   3.825
 8101W        W80515  24.047   1.747   5.170
 8102W        W80516  25.998  17.165  12.568
 8103W        W80517  36.967  15.815   1.447
 8104W        W80518   0.796  41.411  10.036
 8105W        W80519  17.648  40.468   1.827
 8106W        W80520   4.851   3.453   0.801
 8107W        W80521  32.937  41.791  11.938
 8108W        W80522  44.755  39.362  14.274
 8109W        W80523  25.048  43.021   4.641
 8110W        W80524  35.393  35.962   3.375
 8111W        W80525  31.987   3.788  12.525
 8112W        W80526  11.283  26.078  12.501
 8113W        W80527  19.674  24.585  12.947
 8114W        W80528  32.898  21.726  11.408
 8115W        W80529  10.753  33.535  10.888
 8116W        W80530  26.205  24.503   3.163
 8117W        W80531  12.703  10.158   0.875
 8118W        W80532  27.514  26.487   2.319
 8119W        W80533  31.499  38.931   1.323
 8120W        W80534  14.242  43.479   2.798
 8121W        W80535  16.577  20.067  13.373
 8122W        W80536  34.531  29.968  12.558
 8123W        W80537  12.361  41.847   0.476
 8124W        W80538   2.829   6.893  10.610
 8125W        W80539  17.273  20.072  14.422
 8126W        W80540  31.058  35.105   3.284
 8127W        W80541  14.612  24.028  12.833
 8128W        W80542  33.882  18.143  13.479
 8129W        W80543   0.445  44.893  11.891
 8130W        W80544  37.415  20.133   4.115
 8131W        W80545  14.700  19.742   3.163
 8132W        W80546  40.808   7.388   4.716
 8133W        W80547   6.320  14.249   1.375
 8134W        W80548  32.904  13.621  14.788
 8135W        W80549  13.350  32.489   4.768
 8136W        W80550  12.204  36.396   1.856
 8137W        W80551  33.097   5.817  12.509
 8138W        W80552  24.580  25.659   1.314
 8139W        W80553  33.987  27.474   2.727
 8140W        W80554  37.436  43.869   1.275
 8141W        W80555  12.161  11.350   2.209
 8142W        W80556  42.505  22.660  11.092
 8143W        W80557  31.596  39.417  12.420
 8144W        W80558  24.698  15.255   3.165
 8145W        W80559   2.286   4.825  12.047
 8146W        W80560  20.172  10.637   4.764
 8147W        W80561  27.542   2.335   1.708
 8148W        W80562  30.653   5.815   1.368
 8149W        W80563  41.801  16.692   0.457
 8150W        W80564  34.004   3.359  14.278
 8151W        W80565  17.261  22.697  14.459
 8152W        W80566   6.814   5.871   2.693
 8153W        W80567  40.445  37.062   0.777
 8154W        W80568  16.139  21.222   0.954
 8155W        W80569  16.618  28.669  14.409
 8156W        W80570   1.267  16.155   1.769
 8157W        W80571  21.147   7.812   3.358
 8158W        W80572  35.521   5.739   2.822
 8159W        W80573  37.566  30.440   2.388
 8160W        W80574  13.195   5.818  10.538
 8161W        W80575  17.686  21.199   2.845
 8162W        W80576   1.435  40.933   0.469
 8163W        W80577  15.802  20.571   9.933
 8164W        W80578  10.321  18.556   4.814
 8165W        W80579  29.669  23.159   0.847
 8166W        W80580  26.538   9.796  12.483
 8167W        W80581  11.279   8.700   2.179
 8168W        W80582   4.273  39.475   5.707
 8169W        W80583   9.771  11.833   2.829
 8170W        W80584  35.509  33.442   0.473
 8171W        W80585  10.356  31.504   1.804
 8172W        W80586  11.187  28.958   1.346
 8173W        W80587  12.181  44.803   0.325
 8174W        W80588  25.086  43.445  12.053
 8175W        W80589  21.231   4.885   3.349
 8176W        W80590   2.881  41.901  10.941
 8177W        W80591  41.855  38.485  10.599
 8178W        W80592   0.401  34.098  14.888
 8179W        W80593  25.678  28.002  10.889
 8180W        W80594  17.062  26.553   1.217
 8181W        W80595  12.176  15.630   3.360
 8182W        W80596  39.381  37.955   0.868
 8183W        W80597  18.772  13.252   1.766
 8184W        W80598  28.567  10.705   1.743
 8185W        W80599   0.765  16.633  10.096
 8186W        W80600   7.322  41.292   4.773
 8187W        W80601  40.875  30.153  11.385
 8188W        W80602  44.328  20.145  11.606
 8189W        W80603  30.948  29.106  13.404
 8190W        W80604  29.668  44.946  10.972
 8191W        W80605  30.546  25.611  11.601
 8192W        W80606  21.598  21.142  14.945
 8193W        W80607  20.122  39.055  13.482
 8194W        W80608  35.577   3.717   4.641
 8195W        W80609  18.650  35.567  11.445
 8196W        W80610   0.950  23.649   3.382
 8197W        W80611  36.486   0.743   3.171
 8198W        W80612  28.064  25.606   4.221
 8199W        W80613  44.907  32.444   0.756
 8200W        W80614  24.115  22.020  10.956
 8201W        W80615  11.751   2.740  11.495
 8202W        W80616  41.973  33.105  13.002
 8203W        W80617   2.382  11.718  10.934
 8204W        W80618  41.492   9.289  14.841
 8205W        W80619  31.033  19.127  11.465
 8206W        W80620  31.127  29.142   2.848
 8207W        W80621  22.606  14.749   0.750
 8208W        W80622  24.572  35.958   2.856
 8209W        W80623   7.714  11.864  14.301
 8210W        W80624   7.215  44.926   2.711
 8211W        W80625  32.634  29.946  11.953
 8212W        W80626  28.069  39.495   3.643
 8213W        W80627  32.450  11.818   2.309
 8214W        W80628   8.828  42.859   2.298
 8215W        W80629  22.085   7.838  12.424
 8216W        W80630   9.344  38.993  12.563
 8217W        W80631  16.212  37.925   2.222
 8218W        W80632  11.268   6.701  10.447
 8219W        W80633   8.705  41.521   4.142
 8220W        W80634  25.011  32.896  10.607
 8221W        W80635  43.284  32.458   4.708
 8222W        W80636  37.891  30.126   4.181
 8223W        W80637  20.165  44.295   0.737
 8224W        W80638  16.785  15.285  13.382
 8225W        W80639  24.185  29.070   5.250
 8226W        W80640  16.202  13.260   2.679
 8227W        W80641  42.484   0.360  12.052
 8228W        W80642  16.231  40.839   2.328
 8229W        W80643  40.421   7.732  10.502
 8230W        W80644  17.637   0.278  11.502
 8231W        W80645  14.310  43.305  13.307
 8232W        W80646  43.984  39.048   2.308
 8233W        W80647  42.482  20.583  11.049
 8234W        W80648  37.425  31.924  10.519
 8235W        W80649  22.639   8.749   0.924
 8236W        W80650  33.099   5.338   0.881
 8237W        W80651  15.598   0.796   2.329
 8238W        W80652  13.707  31.986   1.727
 8239W        W80653  39.960  26.547   2.872
 8240W        W80654  33.514  35.406  13.539
 8241W        W80655  20.057  17.281   3.272
 8242W        W80656  15.659   1.761   2.843
 8243W        W80657  14.766  11.294  13.415
 8244W        W80658  42.438  43.413  11.102
 8245W        W80659  21.087  20.042   0.278
 8246W        W80660  21.139   3.938   1.238
 8247W        W80661  17.720  11.780   1.333
 8248W        W80662  35.052  11.308   9.966
 8249W        W80663  11.624  10.739   0.271
 8250W        W80664  22.501   2.453   3.206
 8251W        W80665   6.228  11.717   1.399
 8252W        W80666  40.027   4.333   0.358
 8253W        W80667  10.308  19.088  10.629
 8254W        W80668  28.971  35.006  13.000
 8255W        W80669  38.849   9.223  14.296
 8256W        W80670  36.013   4.881   3.801
 8257W        W80671  14.641  35.990   0.839
 8258W        W80672  25.645  26.062  11.550
 8259W        W80673   7.753   7.762   2.184
 8260W        W80674  18.261  30.454   1.847
 8261W        W80675  39.970  29.041   1.748
 8262W        W80676   1.312  33.436   3.688
 8263W        W80677  25.153   2.941   2.331
 8264W        W80678  31.981  32.565   1.797
 8265W        W80679  32.141  35.999   4.751
 8266W        W80680  23.672  20.682   4.175
 8267W        W80681   3.268  37.539  13.036
 8268W        W80682  29.945  22.614   4.268
 8269W        W80683  41.515  22.710  10.929
 8270W        W80684  32.540   1.287   0.435
 8271W        W80685  30.992   3.730   1.438
 8272W        W80686  14.656  40.532   4.246
 8273W        W80687  29.515  14.646   0.372
 8274W        W80688  30.914  25.030   2.267
 8275W        W80689  43.287  39.363   3.172
 8276W        W80690   2.871  34.414  12.424
 8277W        W80691  29.979  23.638   0.949
 8278W        W80692   4.928   1.874   3.768
 8279W        W80693   9.215  33.099  11.503
 8280W        W80694  44.464  43.365  11.530
 8281W        W80695  31.093  10.376  13.340
 8282W        W80696  40.364  28.985   4.145
 8283W        W80697   2.360  41.523   2.344
 8284W        W80698  30.627  44.967   1.831
 8285W        W80699  31.965   8.373  10.634
 8286W        W80700  37.540   9.667  12.445
 8287W        W80701  43.782  15.791  13.497
 8288W        W80702  21.666   6.880   4.735
 8289W        W80703  14.154  26.999  12.827
 8290W        W80704  20.539  13.800   4.128
 8291W        W80705  40.316  18.209   2.741
 8292W        W80706  37.359  33.075  12.929
 8293W        W80707  36.880  36.921   4.321
 8294W        W80708  34.880  10.351   3.231
 8295W        W80709   7.691   9.673  14.894
 8296W        W80710  18.099  41.953  13.525
 8297W        W80711  11.687  29.959   4.251
 8298W        W80712   9.792  26.100  11.867
 8299W        W80713  39.811  43.818  11.859
 8300W        W80714  25.469  29.510  12.929
 8301W        W80715  22.052  28.102   3.369
 8302W        W80716  18.644   6.412   4.671
 8303W        W80717   1.368  20.067  11.466
 8304W        W80718  24.633  24.566  11.870
 8305W        W80719  22.202  12.158   0.396
 8306W        W80720  20.227  39.453  13.382
 8307W        W80721  38.456   4.210   2.893
 8308W        W80722   2.920  26.545   2.773
 8309W        W80723   0.762  25.600   4.318
 8310W        W80724  34.491  19.119   0.770
 8311W        W80725  43.511  29.629  14.785
 8312W        W80726  43.480  12.785  12.574
 8313W        W80727  26.500  11.739  14.911
 8314W        W80728  18.680  17.131  12.532
 8315W        W80729  23.109  36.095  14.024
 8316W        W80730   9.197   7.903   1.710
 8317W        W80731  41.474  29.647  11.931
 8318W        W80732  35.056  26.177   3.379
 8319W        W80733  14.614  29.128   0.834
 8320W        W80734   0.452  43.394   1.338
 8321W        W80735   2.809  29.432   0.785
 8322W        W80736  31.000  10.166   3.805
 8323W        W80737  27.538  43.008   4.140
 8324W        W80738   4.835  39.881   3.740
 8325W        W80739  29.441   9.326  14.788
 8326W        W80740  20.113  40.403   2.689
 8327W        W80741  11.717   7.411  14.899
 8328W        W80742   7.182  29.070   0.407
 8329W        W80743  23.655  39.913  11.061
 8330W        W80744  40.922  24.216   0.387
 8331W        W80745  23.018  20.175  14.031
 8332W        W80746  20.172  42.335  14.950
 8333W        W80747  35.514  17.566  14.322
 8334W        W80748  28.054  42.455  11.373
 8335W        W80749  28.079   5.735   0.950
 8336W        W80750  17.098   8.298   1.448
 8337W        W80751   4.376   0.423  12.968
 8338W        W80752  18.765  23.157  14.339
 8339W        W80753  24.980  23.663   3.816
 8340W        W80754  24.640  27.650   1.369
 8341W        W80755  11.852  39.410   4.156
 8342W        W80756   7.851  40.468   4.224
 8343W        W80757  18.767  14.228   4.251
 8344W        W80758  16.775  22.660   0.314
 8345W        W80759   3.884  39.315   0.254
 8346W        W80760  43.325  42.832  12.875
 8347W        W80761  43.437   4.322   3.340
 8348W        W80762  13.794  16.223   2.744
 8349W        W80763   1.891  34.110   1.775
 8350W        W80764  42.928   2.371   4.829
 8351W        W80765  25.677  14.239   5.275
 8352W        W80766  32.627  31.952  10.010
 8353W        W80767   4.222  25.589  10.989
 8354W        W80768  41.427   8.199  12.510
 8355W        W80769   1.448  14.327   4.342
 8356W        W80770  13.295  33.014   3.698
 8357W        W80771  11.175   7.242  11.431
 8358W        W80772  29.166  38.881   2.804
 8359W        W80773   8.366  35.393   2.714
 8360W        W80774  27.094  42.284  14.315
 8361W        W80775   1.907  25.008   2.825
 8362W        W80776  13.793  24.135   4.151
 8363W        W80777  14.183  13.200   2.274
 8364W        W80778   7.328   5.892  14.787
 8365W        W80779  40.333  18.669  11.448
 8366W        W80780   7.846  36.962  14.467
 8367W        W80781  11.153  34.911  14.776
 8368W        W80782  30.470  17.616  13.412
 8369W        W80783  39.056   8.770   0.787
 8370W        W80784   2.289  12.173   3.685
 8371W        W80785   4.446  19.678  14.293
 8372W        W80786  15.124  19.678   4.602
 8373W        W80787  44.478  29.455   0.839
 8374W        W80788  13.151  14.097  10.452
 8375W        W80789  43.820  25.018  13.844
 8376W        W80790  37.403  14.819   5.221
 8377W        W80791  39.035  28.964  12.081
 8378W        W80792  38.511  29.143   1.922
 8379W        W80793  44.363  25.171  10.588
 8380W        W80794  22.648  28.962  10.135
 8381W        W80795  19.582  38.996   0.828
 8382W        W80796  20.615  16.747  13.872
 8383W        W80797  40.456  21.688  11.120
 8384W        W80798  13.185  18.761   3.213
 8385W        W80799  22.158  27.046  14.860
 8386W        W80800  28.536  37.897   1.825
 8387W        W80801   8.663  23.041   0.480
 8388W        W80802  28.180   5.368   2.795
 8389W        W80803  33.024  27.654   4.309
 8390W        W80804  40.541  16.298  14.331
 8391W        W80805   8.744   5.828   0.900
 8392W        W80806  10.839  20.096   2.180
 8393W        W80807   6.715  34.867   3.233
 8394W        W80808   0.314  24.047   2.877
 8395W        W80809   4.276   7.352   1.719
 8396W        W80810  24.056  28.059   3.834
 8397W        W80811  16.268  10.868  13.336
 8398W        W80812   0.296  21.613   4.280
 8399W        W80813   1.373  43.427  11.071
 8400W        W80814   7.701  21.699   3.850
 8401W        W80815  23.606   0.313  14.500
 8402W        W80816  36.552  30.584  14.830
 8403W        W80817  43.373  43.979   1.317
 8404W        W80818  11.625  37.429   5.308
 8405W        W80819  24.700   2.442  14.296
 8406W        W80820   4.908   7.676   1.332
 8407W        W80821  22.152  28.047  11.988
 8408W        W80822  37.341  20.210   4.701
 8409W        W80823  43.996   3.943  14.949
 8410W        W80824  23.494  24.039   2.709
 8411W        W80825  17.228  31.451   0.769
 8412W        W80826  32.122  36.426   4.710
 8413W        W80827   4.390  41.804   0.763
 8414W        W80828  33.596  30.086   4.137
 8415W        W80829  18.545  15.267   0.460
 8416W        W80830   0.784  13.198   0.811
 8417W        W80831  39.498  34.483  14.926
 8418W        W80832  18.762  14.783  13.512
 8419W        W80833   4.337  42.517   0.813
 8420W        W80834  10.294   1.937  12.542
 8421W        W80835  44.325  36.482   5.274
 8422W        W80836  33.390  22.053   1.273
 8423W        W80837  26.663   9.805   4.695
 8424W        W80838  39.995  36.039  12.405
 8425W        W80839  32.112  27.557   4.193
 8426W        W80840   6.770   1.781  12.032
 8427W        W80841  39.365   7.315  11.867
 8428W        W80842   3.949  17.556  13.316
 8429W        W80843   1.319  16.755   2.740
 8430W        W80844   9.829  36.546   1.861
 8431W        W80845   0.445  41.353  14.411
 8432W        W80846  34.552  25.201   2.282
 8433W        W80847   4.302  16.154   4.275
 8434W        W80848  34.589  43.823  13.059
 8435W        W80849   3.393   3.266   2.419
 8436W        W80850  27.550  23.536   4.659
 8437W        W80851  41.993  20.666  11.462
 8438W        W80852  24.216  38.549   4.810
 8439W        W80853  17.217  12.333  14.448
 8440W        W80854   0.255   7.229   4.202
 8441W        W80855  25.621  22.547  10.566
 8442W        W80856  14.258   8.282   4.837
 8443W        W80857   9.340  16.258   3.861
 8444W        W80858  17.597  19.144   0.297
 8445W        W80859  44.840  18.290   2.727
 8446W        W80860  13.605  17.153   3.263
 8447W        W80861  25.631  12.241  13.805
 8448W        W80862  30.147  41.427  14.813
 8449W        W80863  23.172  14.631  12.835
 8450W        W80864   2.334  35.557   2.411
 8451W        W80865  30.619  31.621  13.930
 8452W        W80866  19.276   9.799   3.159
 8453W        W80867  39.864  44.366  14.450
 8454W        W80868  23.527  18.753   3.815
 8455W        W80869   3.436  44.322   3.372
 8456W        W80870  27.164  25.994  13.343
 8457W        W80871  36.057  41.473  13.829
 8458W        W80872  19.275   8.173  10.608
 8459W        W80873  32.115  34.011  13.452
 8460W        W80874  40.821  19.762   1.729
 8461W        W80875  36.052  12.214   4.222
 8462W        W80876  25.032  31.008   1.884
 8463W        W80877  23.125  44.004  11.926
 8464W        W80878   4.851  28.110  11.444
 8465W        W80879  20.592   5.256  11.888
 8466W        W80880   9.688  27.458  14.867
 8467W        W80881  32.981  21.589  14.500
 8468W        W80882  14.230  22.682  14.941
 8469W        W80883   8.272   8.250   1.859
 8470W        W80884  13.196  28.156   2.731
 8471W        W80885  30.095  28.046   2.769
 8472W        W80886  10.818  41.844   0.915
 8473W        W80887  11.738  17.089   2.821
 8474W        W80888  35.363  40.919  14.001
 8475W        W80889  31.506  17.734  14.387
 8476W        W80890  15.329  22.169   3.340
 8477W        W80891   4.393   3.947  13.878
 8478W        W80892   0.460  30.539  12.003
 8479W        W80893  41.394  22.032   3.322
 8480W        W80894   6.248  31.996  14.856
 8481W        W80895  17.110  21.550   1.926
 8482W        W80896   7.397  11.649   3.197
 8483W        W80897  17.248   6.919  14.406
 8484W        W80898  22.039   9.647   2.216
 8485W        W80899  11.806   1.387  13.481
 8486W        W80900  12.840  19.708  13.959
 8487W        W80901  21.613   3.745  14.380
 8488W        W80902  41.430   7.906  14.473
 8489W        W80903   2.816  21.197   3.693
 8490W        W80904  39.327  19.103   0.888
 8491W        W80905  32.002  44.333   0.853
 8492W        W80906  39.455  40.303  14.381
 8493W        W80907  34.369  37.885   1.726
 8494W        W80908  29.085  17.700   1.421
 8495W        W80909  23.664   2.757  11.890
 8496W        W80910  25.684  36.846   1.814
 8497W        W80911   6.325  18.236  13.541
 8498W        W80912  30.946  28.443  11.057
 8499W        W80913  27.010  43.334   0.809
 8500W        W80914  30.638  40.034   0.763
 8501W        W80915  23.175  32.391   4.763
 8502W        W80916  21.050  32.564   1.436
 8503W        W80917   5.433  41.789  13.507
 8504W        W80918   2.774   1.254  13.522
 8505W        W80919  20.267  42.987   2.709
 8506W        W80920   4.239   5.734   2.318
 8507W        W80921  36.083   2.802  11.915
 8508W        W80922  38.888  19.166  14.475
 8509W        W80923  34.585  41.887  11.965
 8510W        W80924   8.281   1.770  12.441
 8511W        W80925   0.835  22.159  11.120
 8512W        W80926  22.705   3.323   2.272
 8513W        W80927  13.269  35.591  11.374
 8514W        W80928  43.888  29.156  12.894
 8515W        W80929  22.505   0.982   2.385
 8516W        W80930  13.261  13.304   1.295
 8517W        W80931  41.436  43.407  12.541
 8518W        W80932  20.186  16.790   4.771
 8519W        W80933   9.821  10.221  10.540
 8520W        W80934  20.549   6.756  14.890
 8521W        W80935  23.543  31.043   0.402
 8522W        W80936  38.549  21.139  14.798
 8523W        W80937  15.817   9.379   3.820
 8524W        W80938  32.595   9.299   1.763
 8525W        W80939   4.919  29.547  13.965
 8526W        W80940  37.383  35.528   2.680
 8527W        W80941   6.844  33.420  10.902
 8528W        W80942  31.138   2.258  11.590
 8529W        W80943  25.562   5.699   3.258
 8530W        W80944  28.011  33.887  12.077
 8531W        W80945  33.621   2.364   0.779
 8532W        W80946  18.577   4.799   3.326
 8533W        W80947  44.371  27.607  11.440
 8534W        W80948   6.247  40.804  13.968
 8535W        W80949  11.755  36.539   1.362
 8536W        W80950  28.004   1.742  12.870
 8537W        W80951  30.598   6.355  13.826
 8538W        W80952  25.975  19.548   0.432
 8539W        W80953  29.174   8.221   1.409
 8540W        W80954  17.630  12.759  14.388
 8541W        W80955  14.147  28.067   1.360
 8542W        W80956  41.500  19.698   4.189
 8543W        W80957  31.019  37.403  12.470
 8544W        W80958  31.103   7.680   3.734
 8545W        W80959  26.083  26.585  10.434
 8546W        W80960  31.615  42.347  13.340
 8547W        W80961   6.849  21.646   1.390
 8548W        W80962  41.915  16.156  12.381
 8549W        W80963  21.543  33.917  10.993
 8550W        W80964  37.943  13.171   3.179
 8551W        W80965   0.825  36.426  12.949
 8552W        W80966  38.887  41.295   3.158
 8553W        W80967  26.474  17.127  11.461
 8554W        W80968  14.194  17.700   0.787
 8555W        W80969  19.172  18.205  14.879
 8556W        W80970  24.725  17.650   1.324
 8557W        W80971  35.460  18.771  13.932
 8558W        W80972  30.100  44.886  11.054
 8559W        W80973  27.009  13.309  13.475
 8560W        W80974  29.111  16.169  12.045
 8561W        W80975  19.181  40.053   3.311
 8562W        W80976  25.039  24.636   3.349
 8563W        W80977  39.400  13.346  13.892
 8564W        W80978   2.329  33.088  10.574
 8565W        W80979  37.507  27.551   2.276
 8566W        W80980   6.213   8.832  13.347
 8567W        W80981  26.516   1.285  11.397
 8568W        W80982  41.975  35.958  10.137
 8569W        W80983  41.874   0.321   0.265
 8570W        W80984  35.928  31.108   3.716
 8571W        W80985  27.689   0.287  13.353
 8572W        W80986  34.112  11.135  12.522
 8573W        W80987  35.066  33.390   0.427
 8574W        W80988  18.110  10.353   0.868
 8575W        W80989  29.655   0.851   4.789
 8576W        W80990  11.623   8.656   4.785
 8577W        W80991   7.358   3.360   1.295
 8578W        W80992   7.381  22.240   1.393
 8579W        W80993  25.474  20.195   4.621
 8580W        W80994   0.870  29.100   2.227
 8581W        W80995   8.240  10.207   3.868
 8582W        W80996  35.559  38.939   3.301
 8583W        W80997  23.226  40.522  10.534
 8584W        W80998  42.941   6.862  10.590
 8585W        W80999  29.047  17.797  14.031
 8586W        W81000  24.491  35.440   1.933
 8587W        W81001  26.525  33.045  14.384
 8588W        W81002   8.274  34.893   2.235
 8589W        W81003   9.702  15.213  13.891
 8590W        W81004  43.477  41.859  11.582
 8591W        W81005   5.784  43.465  13.382
 8592W        W81006   2.839  26.175   2.776
 8593W        W81007  44.882  38.887  14.438
 8594W        W81008  20.247  15.721  10.503
 8595W        W81009  43.371   7.406   3.749
 8596W        W81010  35.402   9.659  14.338
 8597W        W81011  18.268  38.387   3.710
 8598W        W81012  36.938   4.703   4.826
 8599W        W81013  42.346  17.159  12.424
 8600W        W81014  29.159  11.258   2.830
 8601W        W81015  42.775   9.156   0.368
 8602W        W81016  14.761  19.111   5.205
 8603W        W81017  39.821  20.733   1.250
 8604W        W81018   5.837  10.335   3.676
 8605W        W81019  24.558   5.379  10.939
 8606W        W81020   3.834  32.974  14.887
 8607W        W81021  17.652   0.961   2.858
 8608W        W81022  17.280   4.785  11.930
 8609W        W81023  35.372  12.694   0.904
 8610W        W81024  42.475   4.268  13.538
 8611W        W81025  13.336   5.786   0.410
 8612W        W81026  13.601  39.460   3.278
 8613W        W81027  20.218   0.310   0.308
 8614W        W81028  26.476  23.034   1.713
 8615W        W81029   3.943   6.708  11.548
 8616W        W81030  12.725   1.836  14.455
 8617W        W81031  10.720  25.562   3.768
 8618W        W81032  11.623  38.038  14.862
 8619W        W81033  29.650  17.208  11.477
 8620W        W81034  27.642  40.428  12.449
 8621W        W81035   9.204  32.943   3.384
 8622W        W81036  23.069  19.162   1.443
 8623W        W81037  25.607  33.411  13.538
 8624W        W81038  40.911  37.937   1.422
 8625W        W81039  31.118  43.966   4.126
 8626W        W81040   0.761  44.458   2.309
 8627W        W81041   7.747  19.590   1.901
 8628W        W81042   8.842  15.703   3.752
 8629W        W81043  34.419  22.219   2.265
 8630W        W81044  40.358  25.054   4.661
 8631W        W81045  28.108  41.394   3.830
 8632W        W81046  33.572  16.091   1.264
 8633W        W81047  10.149   7.740   4.270
 8634W        W81048  17.629  29.452  11.553
 8635W        W81049  25.978  14.221   0.952
 8636W        W81050  43.390  36.959   1.871
 8637W        W81051  17.263  15.268   4.773
 8638W        W81052  34.074  23.044  12.373
 8639W        W81053  10.655   5.707   2.333
 8640W        W81054   3.806  11.809   1.310
 8641W        W81055  44.421  14.807  14.800
 8642W        W81056  32.892  14.330   4.829
 8643W        W81057  38.332   7.725  12.517
 8644W        W81058  18.151  24.607   1.883
 8645W        W81059   8.212   9.319  11.992
 8646W        W81060  42.890  18.251   4.599
 8647W        W81061  16.598   7.768  11.127
 8648W        W81062   6.301  30.038   4.174
 8649W        W81063  15.646  24.641  13.386
 8650W        W81064  15.641  25.470   0.443
 8651W        W81065  30.624  25.044  11.901
 8652W        W81066  17.137  14.202  11.610
 8653W        W81067  10.647  35.408   1.892
 8654W        W81068  28.552  16.741  12.095
 8655W        W81069   5.224  11.643  12.550
 8656W        W81070  26.049  18.737   0.919
 8657W        W81071  41.786   0.959  12.457
 8658W        W81072  24.977  34.567  10.576
 8659W        W81073   7.273  31.103  12.934
 8660W        W81074  11.179  14.622   0.949
 8661W        W81075   2.371  17.764  10.466
 8662W        W81076  35.011  35.106   1.217
 8663W        W81077  28.551   4.299   4.149
 8664W        W81078   5.282  25.007   3.294
 8665W        W81079   5.439  16.149   1.342
 8666W        W81080  34.456  32.122   0.759
 8667W        W81081  16.285  12.164   1.439
 8668W        W81082  26.155   4.822  12.899
 8669W        W81083   7.313  39.397   3.818
 8670W        W81084   1.274   9.791  11.384
 8671W        W81085  12.835  14.169   0.923
 8672W        W81086  21.544  42.318   0.478
 8673W        W81087  15.248   3.352   2.888
 8674W        W81088  44.852  24.149  13.023
 8675W        W81089  36.866  16.118  13.994
 8676W        W81090   5.240  29.026   4.662
 8677W        W81091  28.602  26.007  10.644
 8678W        W81092  22.543   4.254  11.467
 8679W        W81093  26.017  44.813   2.298
 8680W        W81094  18.171   0.962   2.261
 8681W        W81095   3.900  27.152   9.998
 8682W        W81096   1.284  42.885   0.892
 8683W        W81097   4.773  27.690   4.206
 8684W        W81098  34.432  31.998   3.701
 8685W        W81099  29.640  21.145   3.155
 8686W        W81100   8.245  11.787  12.474
 8687W        W81101   6.280   8.249   1.344
 8688W        W81102   4.856  24.180   3.857
 8689W        W81103   3.765  42.398   0.331
 8690W        W81104  35.075   3.233  11.992
 8691W        W81105  18.055   8.273  14.914
 8692W        W81106  25.569  19.071  13.354
 8693W        W81107  34.922   7.253   1.786
 8694W        W81108  24.615  21.200  14.364
 8695W        W81109  35.078   7.230  11.865
 8696W        W81110   5.197  34.612   2.386
 8697W        W81111  41.432  33.580  11.932
 8698W        W81112   1.735  43.322  13.018
 8699W        W81113  20.560  17.091  14.925
 8700W        W81114  32.070   5.811  11.424
 8701W        W81115  25.543  26.546   3.152
 8702W        W81116  20.226  20.261   2.862
 8703W        W81117  40.950  18.230   1.886
 8704W        W81118  26.597  29.020  14.483
 8705W        W81119  25.558  37.958   0.903
 8706W        W81120  40.356  14.331   2.669
 8707W        W81121  21.075  12.787   3.162
 8708W        W81122  16.740   5.888   0.763
 8709W        W81123  43.407  30.545   2.693
 8710W        W81124  30.545  18.288   2.214
 8711W        W81125  14.098  14.597   1.858
 8712W        W81126   9.234  27.034   2.326
 8713W        W81127  10.719  28.655  12.475
 8714W        W81128   5.828  32.055  10.439
 8715W        W81129  37.937   5.368   2.679
 8716W        W81130  21.562  22.025   0.481
 8717W        W81131  33.548  24.571  11.018
 8718W        W81132  17.650  18.061  13.018
 8719W        W81133  29.605  24.027  11.505
 8720W        W81134  36.954  27.089   1.392
 8721W        W81135  27.063  11.155  10.629
 8722W        W81136   8.252  28.086  14.842
 8723W        W81137  31.144  27.178   0.400
 8724W        W81138  19.263  17.653  14.998
 8725W        W81139  26.536  28.440   4.626
 8726W        W81140   3.246   1.913  13.926
 8727W        W81141  38.391  21.706   1.777
 8728W        W81142  25.189  14.805   1.850
 8729W        W81143  41.870  11.813  12.904
 8730W        W81144  25.130  35.053  12.564
 8731W        W81145  29.629  17.306  13.441
 8732W        W81146  14.165   6.302   9.564
 8733W        W81147  20.608  16.701  12.394
 8734W        W81148  29.621  41.987  12.419
 8735W        W81149  19.051  19.736  14.471
 8736W        W81150   9.879   1.783  13.397
 8737W        W81151   1.341  21.239   0.786
 8738W        W81152   5.263  15.297  10.455
 8739W        W81153   6.251   4.767  11.565
 8740W        W81154   8.848   4.295  10.604
 8741W        W81155  10.292  36.533  14.030
 8742W        W81156  27.031  32.941   0.305
 8743W        W81157  28.015  42.946  12.432
 8744W        W81158  28.547  29.507   1.736
 8745W        W81159  26.083  13.254  14.301
 8746W        W81160  19.079  25.183   2.883
 8747W        W81161   1.261   3.782  12.842
 8748W        W81162  28.474  43.815   3.844
 8749W        W81163  40.846   4.863   3.162
 8750W        W81164  20.625   4.251  14.349
 8751W        W81165  27.681  43.928   2.362
 8752W        W81166  15.193  43.427  13.963
 8753W        W81167  44.338   9.199  12.502
 8754W        W81168  41.796  15.632  10.995
 8755W        W81169  21.733  24.682  12.834
 8756W        W81170  13.155  12.223   2.197
 8757W        W81171   8.317  36.841   0.385
 8758W        W81172  39.348  34.996  12.005
 8759W        W81173  23.233  37.430  12.041
 8760W        W81174  41.021  43.382  11.509
 8761W        W81175   7.309   8.702   3.739
 8762W        W81176  18.745  25.173  10.578
 8763W        W81177  44.369  41.522  14.301
 8764W        W81178   4.410   8.853  11.458
 8765W        W81179  21.535  34.992  12.363
 8766W        W81180  23.682   5.789   4.152
 8767W        W81181  31.104  36.469  13.017
 8768W        W81182  15.701  11.729  13.501
 8769W        W81183  17.232  11.207   3.705
 8770W        W81184   2.875   9.315  14.504
 8771W        W81185  15.799  11.240  10.117
 8772W        W81186  37.034  30.497  13.446
 8773W        W81187  19.688  23.986  11.505
 8774W        W81188  20.760  18.118   0.417
 8775W        W81189  10.146  43.438  13.485
 8776W        W81190   4.302  12.224  11.970
 8777W        W81191  27.490  15.701  14.005
 8778W        W81192  44.266  41.363   3.383
 8779W        W81193  27.475  34.519   0.457
 8780W        W81194  18.561  33.512  13.008
 8781W        W81195  38.849  38.041   1.845
 8782W        W81196   3.411  14.663   3.324
 8783W        W81197  22.665   6.850  14.762
 8784W        W81198   2.293  35.499  10.556
 8785W        W81199  15.687  44.793  11.905
 8786W        W81200  14.681  10.740   1.245
 8787W        W81201  31.552  44.451  10.521
 8788W        W81202   5.799  37.436  10.513
 8789W        W81203  27.531   8.165   4.715
 8790W        W81204  42.824  35.374   1.916
 8791W        W81205   2.379  23.589  10.533
 8792W        W81206  30.118  27.988   1.289
 8793W        W81207  31.460  43.920   2.851
 8794W        W81208  12.738  20.745   4.240
 8795W        W81209  43.488   1.835  12.486
 8796W        W81210  30.614  41.352   4.681
 8797W        W81211   2.444  16.162  14.479
 8798W        W81212  19.694  33.994   2.391
 8799W        W81213  16.093  10.686   3.239
 8800W        W81214   7.707  12.131   1.847
 8801W        W81215  15.143  30.472   4.653
 8802W        W81216  34.594  20.584  12.859
 8803W        W81217  14.276  15.216  12.990
 8804W        W81218  36.027  24.064   1.232
 8805W        W81219  44.501  28.554   2.673
 8806W        W81220  32.131   1.265   2.890
 8807W        W81221  17.215   8.660   0.481
 8808W        W81222  30.082   2.279  11.048
 8809W        W81223  25.563  11.165   1.759
 8810W        W81224  23.140   5.338   1.265
 8811W        W81225   6.319  36.481  11.503
 8812W        W81226  20.256  44.780   3.284
 8813W        W81227  41.458   2.933   3.657
 8814W        W81228  31.574  30.515  12.571
 8815W        W81229  32.138  20.054   2.852
 8816W        W81230   5.208  26.571   5.791
 8817W        W81231  10.331  29.432  12.517
 8818W        W81232  16.674   3.238   0.915
 8819W        W81233   4.792  10.675   3.868
 8820W        W81234  31.943  22.501   1.710
 8821W        W81235  17.164   1.289   0.760
 8822W        W81236  32.986  11.296   3.706
 8823W        W81237  43.928  23.019   4.683
 8824W        W81238  36.528  39.957   1.231
 8825W        W81239   2.232   6.372  12.441
 8826W        W81240  42.331   3.808   1.756
 8827W        W81241  40.544  38.865  14.866
 8828W        W81242   4.293  21.719  14.931
 8829W        W81243  20.099   3.432   4.756
 8830W        W81244   3.458  17.764   4.201
 8831W        W81245  38.376  26.700  10.157
 8832W        W81246  16.766  11.206  13.344
 8833W        W81247  18.754  18.290   0.883
 8834W        W81248  14.789  10.316  10.641
 8835W        W81249   1.756  14.692  12.054
 8836W        W81250  13.660  44.274   3.267
 8837W        W81251  21.639   6.272   1.433
 8838W        W81252  21.025  13.760   3.724
 8839W        W81253  42.010   9.859   0.733
 8840W        W81254  20.265  27.555  13.953
 8841W        W81255  21.757  23.528  12.448
 8842W        W81256  23.647  20.619   1.925
 8843W        W81257   6.917  20.061   2.222
 8844W        W81258   6.899  40.419  12.860
 8845W        W81259   7.816  37.029   1.776
 8846W        W81260   6.748  15.770   0.775
 8847W        W81261  16.793  33.576  12.491
 8848W        W81262  18.782  39.532   4.174
 8849W        W81263  36.987  34.463  10.510
 8850W        W81264  16.645  11.331  13.993
 8851W        W81265  32.637   2.807   2.839
 8852W        W81266  14.800  16.702  14.422
 8853W        W81267  30.915  18.592  11.946
 8854W        W81268  20.048  30.598  12.979
 8855W        W81269  19.039  41.464  11.518
 8856W        W81270  19.668  12.782  12.508
 8857W        W81271  19.172  17.586   1.730
 8858W        W81272  41.404  20.545  12.014
 8859W        W81273   6.351  32.601  13.439
 8860W        W81274   6.338  12.303   0.286
 8861W        W81275  15.762  44.847   4.624
 8862W        W81276  31.644  21.633  10.939
 8863W        W81277  44.362  17.153   2.734
 8864W        W81278   9.285  15.273   0.767
 8865W        W81279  11.340  38.559  10.970
 8866W        W81280  19.127  28.612  14.785
 8867W        W81281  11.693  11.347   2.849
 8868W        W81282  42.475  26.547   3.657
 8869W        W81283  34.870  10.779   1.744
 8870W        W81284  31.931  29.004  10.537
 8871W        W81285  41.470  16.591  12.032
 8872W        W81286  11.323   9.670  14.305
 8873W        W81287  22.221  33.571   0.276
 8874W        W81288  15.791  29.669  14.962
 8875W        W81289  26.577   5.747   3.786
 8876W        W81290  12.755  28.051   3.279
 8877W        W81291  17.575   9.674   0.322
 8878W        W81292  40.387  44.000   4.223
 8879W        W81293   0.332   8.313   3.782
 8880W        W81294  41.805  38.335   2.220
 8881W        W81295  43.435  14.211   3.700
 8882W        W81296  30.141   3.239   3.666
 8883W        W81297  13.328  21.528   1.706
 8884W        W81298  13.314  27.051  13.419
 8885W        W81299  27.120  41.972  10.450
 8886W        W81300   8.160  25.004  12.556
 8887W        W81301   5.306  28.005  14.361
 8888W        W81302  36.581   3.283   3.755
 8889W        W81303   3.849  34.549  13.350
 8890W        W81304  21.166  15.734   2.692
 8891W        W81305  30.090   9.335   4.339
 8892W        W81306  33.063  37.974  14.021
 8893W        W81307  20.547  29.619   4.664
 8894W        W81308  35.103  36.892   1.732
 8895W        W81309  20.093  22.529  12.456
 8896W        W81310  28.992   3.768   0.933
 8897W        W81311  21.153  25.173  14.885
 8898W        W81312  16.586  31.506   1.734
 8899W        W81313   7.268  14.165  12.446
 8900W        W81314  19.674  35.940  11.007
 8901W        W81315   3.415  19.563  14.356
 8902W        W81316   1.328  17.788  12.399
 8903W        W81317   2.451  13.261   3.285
 8904W        W81318   9.379  14.687   0.404
 8905W        W81319   8.859  10.784   1.300
 8906W        W81320  22.528  40.863  12.074
 8907W        W81321  41.354  35.886  10.494
 8908W        W81322  20.120  12.663  12.452
 8909W        W81323  36.899  19.721  12.012
 8910W        W81324  21.082  25.610   2.727
 8911W        W81325   2.341  18.703   3.848
 8912W        W81326  34.875  20.132   0.859
 8913W        W81327  26.115  29.423  11.500
 8914W        W81328  44.846  34.509   0.864
 8915W        W81329  14.699   9.356  12.380
 8916W        W81330  37.086  36.421   4.292
 8917W        W81331   8.215   5.708  13.868
 8918W        W81332  40.950   1.821  11.446
 8919W        W81333  23.178  16.211   1.874
 8920W        W81334   0.327  44.402  11.423
 8921W        W81335  12.293  22.211   0.743
 8922W        W81336   9.665   5.231   2.767
 8923W        W81337   8.660  12.174   3.153
 8924W        W81338  31.500  26.004   4.677
 8925W        W81339  42.477  43.502   3.348
 8926W        W81340  38.428  40.001   3.716
 8927W        W81341  15.294  34.567   0.481
 8928W        W81342  26.205  22.112  14.854
 8929W        W81343  43.357  24.500   0.304
 8930W        W81344  41.453  36.446   1.752
 8931W        W81345   4.328  14.726   0.300
 8932W        W81346  43.949  33.443   3.182
 8933W        W81347  31.088  23.640  11.514
 8934W        W81348  40.341  35.936  14.416
 8935W        W81349  16.730   8.798  14.934
 8936W        W81350   4.253  10.190   0.927
 8937W        W81351  13.240  13.256  13.818
 8938W        W81352   8.311   6.844  10.480
 8939W        W81353   4.908  35.376  11.421
 8940W        W81354  18.141  13.229  12.970
 8941W        W81355  30.599  22.563   4.725
 8942W        W81356  12.247  20.624   3.157
 8943W        W81357  30.162  31.555   4.642
 8944W        W81358  37.529   1.764   3.708
 8945W        W81359  35.985  14.632  14.890
 8946W        W81360   0.778   4.810  14.362
 8947W        W81361  20.740  16.302  11.975
 8948W        W81362   3.224   0.351   9.948
 8949W        W81363  16.296   8.243  14.436
 8950W        W81364  37.028  41.873  13.047
 8951W        W81365   9.367  12.765  13.346
 8952W        W81366  12.362  25.032   0.365
 8953W        W81367  42.786  21.579  13.377
 8954W        W81368  10.142  36.462   1.782
 8955W        W81369  28.084  42.878  13.005
 8956W        W81370  21.148  14.242  11.118
 8957W        W81371  43.467   9.887  13.980
 8958W        W81372  39.898  10.801   4.221
 8959W        W81373   8.893  39.384  14.013
 8960W        W81374   7.398  40.491   2.286
 8961W        W81375  44.923  17.661   3.281
 8962W        W81376  41.866  29.510  11.594
 8963W        W81377   9.714  29.966  13.838
 8964W        W81378  35.080  43.374   0.379
 8965W        W81379  22.150  35.100  11.876
 8966W        W81380  34.938  23.198  13.015
 8967W        W81381  18.256   0.971   0.803
 8968W        W81382  22.599  30.431   3.161
 8969W        W81383  39.339  34.570   4.613
 8970W        W81384  16.092  24.194   4.163
 8971W        W81385   3.714  33.491   0.808
 8972W        W81386  29.966  16.216   3.271
 8973W        W81387  39.000  19.179  10.057
 8974W        W81388  30.609  23.194  14.809
 8975W        W81389  27.000  13.247   3.324
 8976W        W81390   4.852  42.427  11.371
 8977W        W81391  18.162   8.775  13.841
 8978W        W81392  19.617  24.628  10.910
 8979W        W81393  10.876  34.900   0.938
 8980W        W81394  11.159  35.089  13.893
 8981W        W81395  41.438   0.443   4.604
 8982W        W81396   0.767  24.636   3.843
 8983W        W81397  15.816   7.898  13.903
 8984W        W81398   5.691   4.736   4.671
 8985W        W81399  33.117  40.319  13.373
 8986W        W81400  31.472  28.446   1.222
 8987W        W81401   7.305  29.490   4.630
 8988W        W81402  30.606  24.981   1.911
 8989W        W81403  16.306  44.298   2.881
 8990W        W81404  22.067  38.467   4.248
 8991W        W81405   3.247  33.562  14.352
 8992W        W81406  11.767  33.510  11.607
 8993W        W81407  43.849  13.758  11.035
 8994W        W81408  29.594  24.646   1.814
 8995W        W81409  20.074  33.514   1.726
 8996W        W81410  40.415  37.021   3.701
 8997W        W81411  21.107  15.128  11.385
 8998W        W81412  27.154  15.122   2.770
 8999W        W81413  32.395  36.374   1.925
 9000W        W81414   1.865  29.456  14.841
 9001W        W81415  38.540   6.310   4.605
 9002W        W81416  35.989  37.421  13.386
 9003W        W81417   3.353  44.313   1.292
 9004W        W81418  23.691  33.614  12.538
 9005W        W81419  31.461   5.689  13.897
 9006W        W81420  42.403  11.315   3.641
 9007W        W81421  15.751  40.008   0.738
 9008W        W81422  13.754   6.280   9.665
 9009W        W81423  34.893  37.339  12.038
 9010W        W81424  29.117  19.737   3.338
 9011W        W81425  42.780  42.317  10.907
 9012W        W81426  43.896  37.519   0.890
 9013W        W81427   3.833   7.775  14.509
 9014W        W81428  28.953   9.148  13.814
 9015W        W81429  19.760  23.076   4.247
 9016W        W81430  27.018  37.555  10.521
 9017W        W81431  29.021  35.925  11.019
 9018W        W81432  43.823  42.291  12.552
 9019W        W81433  25.126  27.010  11.558
 9020W        W81434  19.068  23.610   3.743
 9021W        W81435  16.217  10.802  11.931
 9022W        W81436  44.387  24.514  14.362
 9023W        W81437  15.176  14.808   0.413
 9024W        W81438  30.095  36.903   4.260
 9025W        W81439  44.502  38.399  10.429
 9026W        W81440   5.691  28.488  14.027
 9027W        W81441  37.376   8.177  12.094
 9028W        W81442  18.733  25.143   0.288
 9029W        W81443  25.603  28.634  14.353
 9030W        W81444  42.962  22.233   1.858
 9031W        W81445  39.955  29.044   3.308
 9032W        W81446  39.929  40.959   3.376
 9033W        W81447  37.427   7.885  14.456
 9034W        W81448  25.523  29.075   1.858
 9035W        W81449   0.908  20.163   0.820
 9036W        W81450  32.118  11.703   0.803
 9037W        W81451  31.120  42.306  13.039
 9038W        W81452  29.103  19.730   2.255
 9039W        W81453  36.061  25.560   4.132
 9040W        W81454  43.324   4.370  10.642
 9041W        W81455  18.061  43.409   4.633
 9042W        W81456   1.949   7.321   2.756
 9043W        W81457  21.033   9.772  12.009
 9044W        W81458  19.098   3.910  12.422
 9045W        W81459  12.782  30.961   3.838
 9046W        W81460   0.287  19.178  12.925
 9047W        W81461  39.382  44.835   2.203
 9048W        W81462  20.188  40.470   2.329
 9049W        W81463  42.807   7.262   0.742
 9050W        W81464   5.409  10.797  12.085
 9051W        W81465  16.665  15.615  12.954
 9052W        W81466  18.703  22.680  11.598
 9053W        W81467  23.533  34.019   0.819
 9054W        W81468  38.058  19.151   4.656
 9055W        W81469  14.266  23.070  11.421
 9056W        W81470  38.539  43.329   1.271
 9057W        W81471  34.462  15.631  12.027
 9058W        W81472  24.552  35.894   0.336
 9059W        W81473  24.158  10.689  13.477
 9060W        W81474   7.395   2.725   1.918
 9061W        W81475  33.016  19.569   2.192
 9062W        W81476  41.942   8.194  10.444
 9063W        W81477   5.695   6.743   0.383
 9064W        W81478  34.021  38.565  12.456
 9065W        W81479  31.408  15.180  12.972
 9066W        W81480   2.835  28.066  11.861
 9067W        W81481  41.786  41.453  13.928
 9068W        W81482  26.639  39.455   1.909
 9069W        W81483  35.032  27.588  10.933
 9070W        W81484  33.438  18.076   0.792
 9071W        W81485  26.065  31.998   1.241
 9072W        W81486  27.164   4.313   4.301
 9073W        W81487  19.680  22.704   2.217
 9074W        W81488  28.515  25.997  14.341
 9075W        W81489  32.545  42.429   0.753
 9076W        W81490  13.105  23.030   4.279
 9077W        W81491  17.787   5.788   3.768
 9078W        W81492  14.132  25.976   0.899
 9079W        W81493  10.263  42.338   4.325
 9080W        W81494  31.553  23.501   0.967
 9081W        W81495  11.192  19.135  11.937
 9082W        W81496  17.190  11.756   2.262
 9083W        W81497  29.460  12.292  11.938
 9084W        W81498   2.397  28.671   1.803
 9085W        W81499  25.597  38.055   2.413
 9086W        W81500  14.220  35.940  11.432
 9087W        W81501  38.549   4.296   1.307
 9088W        W81502  16.702  32.553   0.374
 9089W        W81503   8.241  35.962  11.563
 9090W        W81504  19.536  32.568   2.292
 9091W        W81505  38.868   4.366  12.387
 9092W        W81506  35.047  24.689  14.289
 9093W        W81507  36.501  24.575  13.050
 9094W        W81508  26.557   5.868   4.662
 9095W        W81509  18.283  43.369  13.532
 9096W        W81510  10.254  27.692  13.919
 9097W        W81511  40.875  30.598  11.019
 9098W        W81512  20.755   9.827  12.444
 9099W        W81513  40.030   1.444   4.262
 9100W        W81514  25.994   1.326  14.940
 9101W        W81515  28.632  43.947   4.207
 9102W        W81516  25.118  30.582  13.429
 9103W        W81517  40.852  43.298   4.184
 9104W        W81518  41.988  30.155   2.326
 9105W        W81519  29.535  10.810  14.848
 9106W        W81520  10.867  24.671  12.366
 9107W        W81521  38.387   7.713  10.457
 9108W        W81522  19.240  11.726   0.407
 9109W        W81523  41.454  21.019   2.759
 9110W        W81524  27.995  32.478  14.800
 9111W        W81525   0.445  12.208  11.860
 9112W        W81526  34.405   5.340  10.517
 9113W        W81527  33.029  31.092   2.254
 9114W        W81528  43.916  31.941   2.780
 9115W        W81529  36.090  24.147   2.368
 9116W        W81530  36.969   5.714  11.546
 9117W        W81531  27.630   6.921  12.439
 9118W        W81532  11.142  20.669   1.873
 9119W        W81533  19.046   6.341   2.862
 9120W        W81534   1.856  10.283   0.889
 9121W        W81535  27.636  31.999  12.397
 9122W        W81536  19.758  37.955   2.185
 9123W        W81537  22.116   1.876   3.851
 9124W        W81538  14.295  17.213   2.826
 9125W        W81539  33.985  41.524   4.829
 9126W        W81540  20.268   8.898   5.302
 9127W        W81541  36.580   2.340   1.725
 9128W        W81542  14.798   5.194   4.702
 9129W        W81543  40.517  34.540   4.837
 9130W        W81544  10.341  25.618   4.168
 9131W        W81545  31.467  31.639  10.930
 9132W        W81546   4.764  28.979   0.268
 9133W        W81547  25.664  22.022  13.996
 9134W        W81548  30.500  21.228  12.441
 9135W        W81549  11.200  28.984   1.921
 9136W        W81550  25.685  34.966  12.468
 9137W        W81551  37.462  20.101  10.541
 9138W        W81552   8.352  31.102   3.664
 9139W        W81553  30.637  13.792   0.267
 9140W        W81554   4.368   8.850  13.800
 9141W        W81555   3.226  32.636  12.080
 9142W        W81556  14.186  16.123  10.618
 9143W        W81557  24.640  37.558   1.703
 9144W        W81558  10.178  23.650   4.744
 9145W        W81559  21.116  40.367  12.849
 9146W        W81560  11.737  10.728  13.546
 9147W        W81561  28.615  42.963  11.380
 9148W        W81562   7.826  24.511  12.494
 9149W        W81563  29.142  39.002  14.469
 9150W        W81564  29.436  42.819  14.336
 9151W        W81565  25.521  20.547  13.954
 9152W        W81566  16.597  38.010   3.705
 9153W        W81567  14.221  40.034  13.888
 9154W        W81568   4.350   7.868   0.742
 9155W        W81569  26.039   6.890   2.830
 9156W        W81570  14.268  35.538   3.174
 9157W        W81571  40.440  38.372   3.814
 9158W        W81572   9.319  32.133  11.526
 9159W        W81573  26.008  42.338  11.124
 9160W        W81574  28.929  33.519   1.357
 9161W        W81575  44.271  26.598   5.316
 9162W        W81576  18.097   5.870   2.756
 9163W        W81577  20.155  38.340   4.673
 9164W        W81578  27.104  35.492  13.532
 9165W        W81579  27.665  28.120  12.576
 9166W        W81580   9.805  11.687   3.726
 9167W        W81581  22.198  19.147  13.367
 9168W        W81582  18.572  10.152   1.799
 9169W        W81583  41.812  24.212  12.983
 9170W        W81584  38.001  29.647   0.414
 9171W        W81585  15.788   7.341   2.731
 9172W        W81586  21.062  34.924  11.377
 9173W        W81587  35.418  17.279   1.377
 9174W        W81588  27.512  32.002  14.901
 9175W        W81589  25.099  20.735  12.853
 9176W        W81590  25.584  41.948  10.540
 9177W        W81591  23.117   0.278   3.188
 9178W        W81592   9.867  23.611  14.291
 9179W        W81593  22.613  14.301   3.161
 9180W        W81594   7.834  16.618   9.935
 9181W        W81595  36.482   0.375  14.304
 9182W        W81596  41.450  21.168  12.882
 9183W        W81597  11.140  16.152  13.333
 9184W        W81598   9.243  37.379   0.933
 9185W        W81599   7.909  33.590   2.407
 9186W        W81600   0.863   8.725   0.918
 9187W        W81601  40.002  39.920   0.371
 9188W        W81602  12.622  29.460  14.397
 9189W        W81603  37.496  35.026   9.478
 9190W        W81604  37.482  35.898   4.806
 9191W        W81605  17.623  32.068   0.786
 9192W        W81606  23.162   4.890   1.810
 9193W        W81607  33.437  36.896  14.909
 9194W        W81608  40.544  40.318  11.433
 9195W        W81609  40.970  11.345   4.823
 9196W        W81610  38.988  12.258  13.846
 9197W        W81611   6.297  30.636  10.003
 9198W        W81612   1.454   0.429  14.376
 9199W        W81613  43.428  16.206   2.240
 9200W        W81614  39.389  20.137   4.257
 9201W        W81615  15.269  24.512   1.890
 9202W        W81616  38.001  37.857   4.170
 9203W        W81617  17.065   8.392  12.961
 9204W        W81618  31.523  23.492   2.863
 9205W        W81619  26.526  17.665   2.412
 9206W        W81620  33.622  24.171  13.380
 9207W        W81621   1.263   7.895  10.898
 9208W        W81622   2.331  44.395   0.921
 9209W        W81623  21.725  21.584  11.998
 9210W        W81624  16.762  36.540   2.366
 9211W        W81625   3.220  30.541  11.371
 9212W        W81626  16.638  20.065   0.825
 9213W        W81627   4.311   3.235  13.512
 9214W        W81628   3.387  28.468  10.144
 9215W        W81629  33.613  34.901   0.956
 9216W        W81630   2.352   2.807   3.867
 9217W        W81631  44.490   8.780   1.299
 9218W        W81632   8.254  20.751   0.865
 9219W        W81633  18.597  44.810   5.658
 9220W        W81634  29.085  13.746  13.384
 9221W        W81635  28.967  17.141   0.828
 9222W        W81636   6.913  17.167  12.461
 9223W        W81637  24.170  16.083  10.603
 9224W        W81638  17.627  23.660   4.774
 9225W        W81639  38.962  41.008  11.385
 9226W        W81640  41.432   3.796  10.958
 9227W        W81641  37.351  41.476  13.010
 9228W        W81642  37.056  37.388  13.447
 9229W        W81643  43.360  13.776  10.902
 9230W        W81644  10.165  40.535  12.842
 9231W        W81645  10.749  36.046   4.821
 9232W        W81646   9.682  28.465   1.298
 9233W        W81647   0.783  29.502  11.956
 9234W        W81648  26.057  43.298  13.843
 9235W        W81649   6.200  30.509   4.352
 9236W        W81650   8.704  28.070  14.444
 9237W        W81651  20.054  33.934  12.576
 9238W        W81652  44.882  42.932   5.179
 9239W        W81653   2.350  18.726  12.947
 9240W        W81654   0.276  19.655  13.403
 9241W        W81655  35.388   0.363  10.482
 9242W        W81656   3.713  11.826  14.803
 9243W        W81657   2.283  44.950  14.414
 9244W        W81658  11.138  23.658   3.693
 9245W        W81659  36.467  37.562   0.356
 9246W        W81660  42.480   5.771   4.122
 9247W        W81661  13.202  44.372   0.932
 9248W        W81662  43.497  44.858   3.860
 9249W        W81663  11.703  24.673   3.166
 9250W        W81664  39.408   3.736  10.585
 9251W        W81665  34.023  16.572   3.851
 9252W        W81666  44.325  12.301   0.763
 9253W        W81667  10.283  43.287  12.451
 9254W        W81668   1.473   8.872  14.294
 9255W        W81669  38.905  23.666   2.194
 9256W        W81670   8.341  12.806   4.118
 9257W        W81671   0.758  15.653   1.834
 9258W        W81672  20.560  16.072  13.977
 9259W        W81673  27.575  21.086   1.372
 9260W        W81674  22.723  26.004  13.977
 9261W        W81675  42.960   0.459  14.399
 9262W        W81676  41.948  19.581  12.032
 9263W        W81677  20.683  27.137   1.727
 9264W        W81678   4.385   7.252   2.407
 9265W        W81679  44.848   6.764  11.381
 9266W        W81680  23.540   2.432   3.211
 9267W        W81681   3.417  40.422   1.420
 9268W        W81682  16.170  31.463  12.057
 9269W        W81683  44.259  38.862   4.810
 9270W        W81684  35.894  39.471   3.707
 9271W        W81685  20.138  32.127  13.016
 9272W        W81686   0.323  10.807  12.019
 9273W        W81687   6.249  35.588   1.370
 9274W        W81688  29.152   7.251   4.630
 9275W        W81689  20.224  14.257  14.503
 9276W        W81690  22.733  35.022  14.362
 9277W        W81691  26.695  25.625   2.710
 9278W        W81692   0.955  35.371   0.838
 9279W        W81693  10.653   6.823  13.422
 9280W        W81694  27.128  19.632  10.945
 9281W        W81695   8.713   8.761   3.743
 9282W        W81696   7.173  25.969   3.730
 9283W        W81697  28.175  11.637   4.228
 9284W        W81698  28.591  13.635  12.079
 9285W        W81699   0.953   3.766   1.436
 9286W        W81700   7.239   6.191  13.817
 9287W        W81701   6.370  41.493   3.675
 9288W        W81702  20.689  39.915  10.468
 9289W        W81703  23.619   4.278  13.056
 9290W        W81704  34.112   9.866   3.805
 9291W        W81705  32.618   0.804  13.817
 9292W        W81706  31.461   1.364   0.397
 9293W        W81707  14.284   3.282   2.762
 9294W        W81708  14.195  18.188  12.876
 9295W        W81709   5.741  12.794   5.137
 9296W        W81710  21.534  11.178  10.565
 9297W        W81711   4.230  41.821   3.285
 9298W        W81712  31.518  17.229   3.222
 9299W        W81713  24.550  41.358  12.892
 9300W        W81714  38.382  12.677  12.483
 9301W        W81715  41.490  37.430   2.400
 9302W        W81716  36.879  15.100   3.196
 9303W        W81717  37.432  24.201  13.949
 9304W        W81718  24.027  10.777   1.343
 9305W        W81719  17.584  17.104   1.338
 9306W        W81720  39.334  19.645   0.858
 9307W        W81721  13.122   1.415  12.526
 9308W        W81722  18.225  22.202  11.383
 9309W        W81723  29.162   9.231   2.822
 9310W        W81724  25.017  23.063   1.302
 9311W        W81725  13.238  17.576  13.913
 9312W        W81726  10.701   0.966   3.646
 9313W        W81727   7.809  13.158  12.891
 9314W        W81728  30.909  24.005  11.602
 9315W        W81729  42.519  17.231  10.943
 9316W        W81730  11.752   3.791  14.317
 9317W        W81731   8.660  23.548  13.061
 9318W        W81732   0.818  27.982   3.332
 9319W        W81733  36.887  13.160  11.095
 9320W        W81734  44.860  43.465   0.439
 9321W        W81735  36.914  38.842  12.464
 9322W        W81736  13.211   5.230   0.913
 9323W        W81737   7.912   4.706   4.672
 9324W        W81738  34.040  28.446  12.877
 9325W        W81739  29.588  10.810   3.147
 9326W        W81740  33.093   1.417  14.873
 9327W        W81741  14.191  42.845  11.006
 9328W        W81742  23.679  27.679  14.463
 9329W        W81743  12.326  12.826  13.459
 9330W        W81744  42.355  13.179  11.519
 9331W        W81745  20.036  25.076   2.737
 9332W        W81746  31.146  21.711  14.338
 9333W        W81747  28.670  28.567  11.896
 9334W        W81748  13.136  29.095  14.487
 9335W        W81749   5.252  26.464   1.397
 9336W        W81750  21.137  31.599  11.464
 9337W        W81751   2.850  25.198  11.373
 9338W        W81752  43.909  25.124  13.355
 9339W        W81753   8.859  44.958   0.353
 9340W        W81754  15.668  11.795   3.253
 9341W        W81755  20.049  22.743   9.932
 9342W        W81756   5.862   0.847  13.008
 9343W        W81757  23.571   1.796  10.493
 9344W        W81758  42.515  21.082   0.302
 9345W        W81759  36.883  19.625  11.562
 9346W        W81760  43.804  22.130  12.037
 9347W        W81761  19.777  24.562  14.772
 9348W        W81762  15.276  13.816   4.203
 9349W        W81763  11.282  24.600  11.058
 9350W        W81764  17.692   9.170  13.868
 9351W        W81765  17.078  12.237   2.736
 9352W        W81766  31.543  26.975  12.420
 9353W        W81767  26.472  44.933  11.516
 9354W        W81768  23.017  16.188   4.734
 9355W        W81769  43.965  26.072   4.351
 9356W        W81770  36.501  28.054   2.683
 9357W        W81771   4.305  40.351  13.335
 9358W        W81772  30.522  38.870  10.456
 9359W        W81773  22.999   2.273  10.463
 9360W        W81774  35.074  20.124   4.724
 9361W        W81775  27.558  18.222   1.852
 9362W        W81776  29.579  20.141  12.068
 9363W        W81777  16.675  20.727  12.937
 9364W        W81778  37.944   6.210  11.002
 9365W        W81779  38.470   0.987  13.897
 9366W        W81780  13.229   0.313   2.315
 9367W        W81781  20.717  42.796  13.023
 9368W        W81782  23.172   4.338  11.609
 9369W        W81783   7.761  10.319  10.530
 9370W        W81784   9.387   1.413  11.856
 9371W        W81785  37.030  19.614  14.448
 9372W        W81786  14.719  38.926   3.360
 9373W        W81787  22.728  41.821  11.013
 9374W        W81788  17.196  17.210  10.474
 9375W        W81789  22.024  24.188   1.876
 9376W        W81790  32.553   6.328  14.299
 9377W        W81791   2.798  34.426   2.297
 9378W        W81792  22.079  11.851   3.750
 9379W        W81793  22.028  11.198   1.226
 9380W        W81794  13.325  30.469   4.686
 9381W        W81795  44.966  44.382   4.151
 9382W        W81796  44.435   6.428   2.746
 9383W        W81797  27.968  18.568   0.867
 9384W        W81798  26.993  21.530  11.479
 9385W        W81799  29.615  20.172  13.873
 9386W        W81800  22.552  44.994   1.890
 9387W        W81801  39.355  33.085   4.784
 9388W        W81802  10.152  10.219   1.813
 9389W        W81803  14.142  28.109   4.308
 9390W        W81804  44.885   5.922   2.893
 9391W        W81805   3.709  32.090  13.359
 9392W        W81806  40.856  12.182   4.754
 9393W        W81807  32.509  11.789   1.358
 9394W        W81808  33.950  32.943   4.352
 9395W        W81809  33.064   8.160   2.376
 9396W        W81810  39.327  27.943  14.433
 9397W        W81811   0.381  29.174   3.855
 9398W        W81812  37.076   0.950  14.021
 9399W        W81813  19.667  41.401   0.808
 9400W        W81814   1.780  15.192   4.236
 9401W        W81815  24.135  12.283   4.230
 9402W        W81816   1.972  13.211  10.985
 9403W        W81817  11.805  19.601  11.106
 9404W        W81818  26.466  38.377   1.816
 9405W        W81819  18.559  30.933  10.579
 9406W        W81820  44.342   7.202   0.446
 9407W        W81821  16.577  38.923   2.854
 9408W        W81822  38.988   9.810   0.319
 9409W        W81823  14.701  33.985   0.845
 9410W        W81824  30.051  40.545  11.544
 9411W        W81825  41.952  17.797   4.344
 9412W        W81826  17.152  30.487   9.951
 9413W        W81827   9.653  36.967   2.886
 9414W        W81828   0.398  41.519   0.830
 9415W        W81829   1.307  29.112   4.157
 9416W        W81830  13.834  16.593   4.193
 9417W        W81831   4.940   4.776   5.165
 9418W        W81832  34.515  41.030  14.897
 9419W        W81833  13.177  44.475   1.796
 9420W        W81834  37.034   4.310   1.430
 9421W        W81835  44.919  11.332  12.934
 9422W        W81836  11.362  19.684  10.508
 9423W        W81837   0.825  21.739  10.963
 9424W        W81838  27.603  22.647   1.340
 9425W        W81839  36.456  21.627  12.487
 9426W        W81840  43.876   7.267  13.309
 9427W        W81841   8.798  14.832   2.342
 9428W        W81842  20.646  30.165  11.087
 9429W        W81843  26.668  19.548   4.797
 9430W        W81844  15.284  11.328  13.348
 9431W        W81845  43.008  15.083   2.864
 9432W        W81846  13.174  42.000  14.444
 9433W        W81847  14.206  33.447   5.104
 9434W        W81848  20.663  31.904   4.342
 9435W        W81849  26.569   8.362   0.288
 9436W        W81850  27.190  22.019  11.885
 9437W        W81851  11.343   4.709   3.701
 9438W        W81852  21.626  35.983   2.187
 9439W        W81853  19.632  40.997   1.756
 9440W        W81854  32.922  32.904  14.007
 9441W        W81855  44.359  18.655   2.212
 9442W        W81856   3.758   4.715   0.303
 9443W        W81857  24.075  36.906   4.662
 9444W        W81858  24.169  16.567  10.928
 9445W        W81859  21.117   7.324   9.928
 9446W        W81860  20.045  21.555  13.535
 9447W        W81861  11.827   6.270  13.913
 9448W        W81862   0.461   0.766  13.021
 9449W        W81863  16.688   5.920  13.995
 9450W        W81864  18.296   3.306  11.419
 9451W        W81865  31.502  18.729  13.472
 9452W        W81866   6.317  21.079   2.766
 9453W        W81867  12.315  26.037  11.084
 9454W        W81868  42.872   4.362   0.429
 9455W        W81869  11.246   0.954  10.454
 9456W        W81870  17.126   0.365  11.407
 9457W        W81871  13.189   0.856  14.978
 9458W        W81872  34.590  15.170  11.859
 9459W        W81873  42.296  24.587  11.602
 9460W        W81874  24.002  43.327  12.842
 9461W        W81875  24.099  38.392  10.610
 9462W        W81876  17.760  32.567  14.435
 9463W        W81877  34.100  37.457   2.218
 9464W        W81878  19.613  10.277  11.499
 9465W        W81879  14.147   2.241   2.875
 9466W        W81880  22.153  39.822   2.823
 9467W        W81881  24.152   2.749  11.056
 9468W        W81882  34.961  43.460  12.931
 9469W        W81883  44.419   6.703   2.264
 9470W        W81884  11.344  42.986  12.362
 9471W        W81885  23.729   5.262   3.256
 9472W        W81886  33.535   4.834   1.742
 9473W        W81887  26.497  11.182  13.853
 9474W        W81888  40.351  25.182   1.696
 9475W        W81889  12.233  25.666   4.720
 9476W        W81890   5.403   7.240   1.314
 9477W        W81891  24.060  36.433  14.341
 9478W        W81892  28.545  44.467  10.523
 9479W        W81893  10.217  31.425  12.429
 9480W        W81894  12.640  21.556  11.042
 9481W        W81895  40.828   1.941  12.092
 9482W        W81896  22.628   1.898  13.353
 9483W        W81897  16.254  15.252  11.604
 9484W        W81898   6.216  39.983   4.663
 9485W        W81899   2.795  40.021   4.670
 9486W        W81900  36.460  12.797  14.471
 9487W        W81901  23.214  18.268  14.993
 9488W        W81902  15.786  15.583  11.495
 9489W        W81903  33.029   6.919  12.901
 9490W        W81904  33.954  42.943   1.924
 9491W        W81905  24.645  38.076   1.383
 9492W        W81906   0.872  13.182   2.705
 9493W        W81907  30.016   0.951   1.423
 9494W        W81908  21.608  14.801   1.775
 9495W        W81909  28.058  37.888   0.921
 9496W        W81910  34.901  24.527   3.246
 9497W        W81911  11.180  15.726   3.830
 9498W        W81912   8.775  30.993  11.872
 9499W        W81913  21.076  24.228  10.912
 9500W        W81914  42.980  17.617  11.091
 9501W        W81915  36.996  10.350  11.125
 9502W        W81916  12.773  34.959  13.528
 9503W        W81917  32.423   3.319   0.452
 9504W        W81918   7.679  39.328  10.910
 9505W        W81919  40.526   5.722  14.316
 9506W        W81920  37.042   1.788  10.889
 9507W        W81921  40.322   8.291   0.897
 9508W        W81922  43.335  38.902  10.628
 9509W        W81923  20.641  27.098  10.405
 9510W        W81924  23.066  20.112   3.161
 9511W        W81925  43.357  34.985  10.494
 9512W        W81926  37.471   3.428  11.127
 9513W        W81927  41.367  22.232   1.257
 9514W        W81928   3.734  18.182   4.147
 9515W        W81929  41.359  36.524   4.225
 9516W        W81930  17.215   4.699  13.547
 9517W        W81931  15.739   5.406   3.350
 9518W        W81932  30.422  36.559   3.362
 9519W        W81933   0.458  18.273  11.557
 9520W        W81934  28.657  34.434  13.504
 9521W        W81935  26.040  11.236  13.525
 9522W        W81936  12.769  37.909  11.097
 9523W        W81937  40.339  11.137  13.973
 9524W        W81938  21.620   3.809   0.477
 9525W        W81939  25.163  31.915  11.611
 9526W        W81940  23.628  36.416   1.742
 9527W        W81941  22.589  32.037  11.038
 9528W        W81942   7.363  41.791  11.079
 9529W        W81943  44.434   4.929  12.408
 9530W        W81944  13.787  28.678  10.573
 9531W        W81945   2.869  42.014   0.807
 9532W        W81946   6.912  27.482  11.864
 9533W        W81947   8.742  14.679   4.601
 9534W        W81948  17.677   9.152   2.731
 9535W        W81949  42.797  36.444  10.637
 9536W        W81950   1.884  29.109  13.355
 9537W        W81951  41.415  40.036   3.705
 9538W        W81952  29.127   4.864  14.512
 9539W        W81953  10.192  15.161   3.668
 9540W        W81954  30.106  20.641  14.293
 9541W        W81955  19.040  19.066   3.312
 9542W        W81956   5.218   8.892  14.318
 9543W        W81957  12.811  37.066   3.758
 9544W        W81958  37.848  34.537   2.775
 9545W        W81959  29.168   6.257  11.088
 9546W        W81960   5.226  12.151  10.152
 9547W        W81961   1.804  14.762   2.902
 9548W        W81962   9.730  15.155   4.819
 9549W        W81963  31.941  24.182  11.107
 9550W        W81964  26.524  29.429  11.914
 9551W        W81965  18.680  38.844   0.389
 9552W        W81966  13.625  15.794  13.887
 9553W        W81967  15.775  16.702   0.761
 9554W        W81968   2.890  28.499  12.842
 9555W        W81969  41.352   5.246  11.030
 9556W        W81970  37.458  16.701  13.947
 9557W        W81971  25.060  11.861  11.056
 9558W        W81972  41.523  10.871   0.965
 9559W        W81973  23.721  11.343   2.688
 9560W        W81974  40.020  35.454   2.218
 9561W        W81975  34.934  18.118   4.126
 9562W        W81976  33.917  13.688  13.459
 9563W        W81977  17.729  42.491   0.472
 9564W        W81978  13.305  37.023   0.858
 9565W        W81979  41.020   2.416  12.960
 9566W        W81980  17.781  19.256   4.157
 9567W        W81981  31.616  23.133   0.791
 9568W        W81982  12.198  43.430   2.259
 9569W        W81983   3.372   3.255  10.962
 9570W        W81984  30.501   6.732  14.513
 9571W        W81985   0.913  30.450   2.346
 9572W        W81986   9.235  32.560   4.708
 9573W        W81987  23.700  23.209  11.968
 9574W        W81988  35.367  23.074  14.863
 9575W        W81989  17.062  30.961   3.368
 9576W        W81990  18.199   2.306  12.446
 9577W        W81991  16.264  37.487   0.420
 9578W        W81992  28.451  19.729  11.543
 9579W        W81993   0.487  16.636  10.965
 9580W        W81994   9.342  14.335  13.012
 9581W        W81995  22.050  12.689   4.758
 9582W        W81996  37.499  13.242  13.441
 9583W        W81997   6.282  36.993  13.353
 9584W        W81998  12.320  28.650   0.446
 9585W        W81999  29.434  26.651   2.856
 9586W        W82000  43.331  24.499  14.352
 9587W        W82001  23.984  35.942  10.543
 9588W        W82002   4.222  26.174   1.742
 9589W        W82003   3.870   7.770   4.203
 9590W        W82004   5.252  14.159  13.390
 9591W        W82005  37.472   5.381   4.716
 9592W        W82006  23.152   9.318  12.363
 9593W        W82007  17.658   2.308   1.443
 9594W        W82008   6.733   7.737   1.228
 9595W        W82009   2.887  18.242   4.809
 9596W        W82010  28.134  21.169   3.265
 9597W        W82011  43.920   0.290   3.657
 9598W        W82012  41.025  12.200  12.541
 9599W        W82013  20.261  10.286   3.337
 9600W        W82014   8.792   2.764  12.545
 9601W        W82015  39.362  16.570  13.422
 9602W        W82016   4.311  21.032   1.299
 9603W        W82017  41.802   9.372  14.329
 9604W        W82018  18.783  20.703  11.410
 9605W        W82019  26.471  16.258   1.400
 9606W        W82020  21.255  14.119   3.787
 9607W        W82021  23.041  44.503  12.534
 9608W        W82022  36.589  44.949  12.849
 9609W        W82023  42.926  18.198  11.947
 9610W        W82024  15.761  28.677  11.934
 9611W        W82025  27.067  20.150  11.415
 9612W        W82026   9.794  31.603  13.371
 9613W        W82027   4.356  15.259  12.355
 9614W        W82028   9.655  23.046   0.926
 9615W        W82029  21.616   5.300  14.963
 9616W        W82030  34.996  38.887   2.219
 9617W        W82031  10.309  18.746   2.824
 9618W        W82032  28.962   5.723   0.785
 9619W        W82033   2.426   5.755   0.900
 9620W        W82034  25.046   9.303   0.275
 9621W        W82035  35.370  25.023   4.686
 9622W        W82036  31.017   0.358   0.365
 9623W        W82037  12.762   2.958   3.167
 9624W        W82038  32.583   3.721   1.933
 9625W        W82039  11.146  41.375   3.796
 9626W        W82040  40.977   1.396  11.126
 9627W        W82041   4.867  42.861   3.230
 9628W        W82042   2.353  12.256   4.765
 9629W        W82043  17.118  33.470  14.397
 9630W        W82044  16.636  31.907  10.595
 9631W        W82045  39.959  27.123   0.791
 9632W        W82046  38.967  31.905  10.572
 9633W        W82047  33.453  33.448  13.988
 9634W        W82048   8.770   9.664  11.074
 9635W        W82049  25.051  20.179  13.967
 9636W        W82050   6.229  17.227  11.409
 9637W        W82051  36.422   5.229  14.798
 9638W        W82052  22.572  38.872   3.642
 9639W        W82053  25.569  32.573  13.359
 9640W        W82054  41.456  10.745   1.695
 9641W        W82055   8.803  36.558   3.652
 9642W        W82056  20.205   8.194   1.886
 9643W        W82057  42.398  10.637  11.025
 9644W        W82058   6.354  23.510  12.892
 9645W        W82059  24.601   0.794   4.240
 9646W        W82060  31.106   4.249   3.865
 9647W        W82061  28.662  17.304  12.828
 9648W        W82062   2.393  11.825  14.939
 9649W        W82063  16.700  23.128   3.686
 9650W        W82064  21.727  44.292   2.315
 9651W        W82065  33.914  43.005   4.624
 9652W        W82066  15.679  39.331  12.541
 9653W        W82067  23.162  13.141   0.812
 9654W        W82068  10.635   4.400   0.463
 9655W        W82069   4.296  15.326   2.750
 9656W        W82070  23.619   7.285   2.227
 9657W        W82071   5.733   9.716  13.036
 9658W        W82072  19.696   8.346   2.725
 9659W        W82073   0.956  22.560   1.810
 9660W        W82074  27.670  22.729  13.914
 9661W        W82075  37.963  20.724   1.365
 9662W        W82076   5.719  11.266  11.400
 9663W        W82077  29.009  15.660   0.262
 9664W        W82078  21.210  29.026   0.324
 9665W        W82079  14.682  14.603  14.455
 9666W        W82080  31.981  34.410  11.076
 9667W        W82081  44.990  20.269  13.372
 9668W        W82082  22.102  38.348   1.236
 9669W        W82083  17.258  28.546   0.306
 9670W        W82084   7.884  43.431  12.564
 9671W        W82085  26.109   4.796  13.383
 9672W        W82086   6.349  35.520  12.056
 9673W        W82087  38.440  32.909   2.785
 9674W        W82088  23.138  43.408   2.759
 9675W        W82089  18.724  11.690  11.928
 9676W        W82090  36.514  27.625   1.906
 9677W        W82091  27.653  40.932   2.703
 9678W        W82092  37.378  38.948  11.455
 9679W        W82093  25.666   2.888   0.801
 9680W        W82094  35.887  14.145   4.729
 9681W        W82095  17.120  44.360   3.383
 9682W        W82096   1.850  27.020   5.318
 9683W        W82097  24.029  18.166   3.731
 9684W        W82098   0.858  35.970   3.241
 9685W        W82099   7.741  41.869   1.883
 9686W        W82100  21.193  34.581  11.961
 9687W        W82101   2.799  12.853   4.208
 9688W        W82102  38.873  31.439  10.577
 9689W        W82103  37.946   7.235   1.436
 9690W        W82104  40.035  19.203  13.479
 9691W        W82105   0.854  36.974   1.777
 9692W        W82106  44.960  33.534  12.530
 9693W        W82107  25.592  12.613  10.577
 9694W        W82108  14.715  16.201   3.834
 9695W        W82109   1.818  15.676   3.700
 9696W        W82110   3.309  34.923   1.795
 9697W        W82111   6.683  26.556   0.424
 9698W        W82112  27.158   0.258   4.766
 9699W        W82113  44.971  30.412  10.583
 9700W        W82114  37.980  43.309  14.288
 9701W        W82115   7.878  21.570   0.416
 9702W        W82116   6.324  18.070  11.043
 9703W        W82117   5.886   9.862   0.848
 9704W        W82118  26.082   2.296   2.206
 9705W        W82119  43.912  16.788   3.240
 9706W        W82120  34.011  26.028   1.910
 9707W        W82121  35.864   8.875  13.814
 9708W        W82122  23.061  28.504  10.966
 9709W        W82123  15.167  15.675   1.885
 9710W        W82124  20.730   1.344  11.403
 9711W        W82125  27.076  23.238   1.739
 9712W        W82126   2.226  32.109  12.342
 9713W        W82127  33.077  22.203  11.571
 9714W        W82128  42.981  10.172   5.088
 9715W        W82129  21.041  35.075   0.295
 9716W        W82130  35.038   8.277   0.767
 9717W        W82131  21.631  26.998   1.267
 9718W        W82132   8.849   0.275   0.778
 9719W        W82133  44.352  22.219   2.684
 9720W        W82134  28.507  15.658  12.884
 9721W        W82135  21.546  29.525   1.294
 9722W        W82136  38.423  13.722  13.830
 9723W        W82137   0.376   9.799   1.434
 9724W        W82138  27.038  25.651   0.861
 9725W        W82139  14.164  34.072  13.318
 9726W        W82140   5.373  44.817  14.793
 9727W        W82141  25.107   8.726  10.494
 9728W        W82142  37.886  24.720   3.234
 9729W        W82143  11.678  25.503  14.496
 9730W        W82144  18.291   7.253   1.896
 9731W        W82145  18.102   3.869  12.008
 9732W        W82146  13.718   5.793   4.646
 9733W        W82147  18.662  13.199  11.482
 9734W        W82148  33.601  32.407   9.923
 9735W        W82149  32.408  24.639   1.916
 9736W        W82150   6.688  34.568  10.414
 9737W        W82151  30.613  37.521  12.079
 9738W        W82152  42.484  41.952   2.289
 9739W        W82153  17.263   9.696  10.503
 9740W        W82154  33.448  43.989  14.488
 9741W        W82155  11.712  29.925  11.392
 9742W        W82156  32.618  42.848   5.277
 9743W        W82157  20.053  32.959   2.877
 9744W        W82158   5.866  23.111  12.037
 9745W        W82159  18.164  39.354   4.143
 9746W        W82160  26.205  31.506  13.015
 9747W        W82161  18.673  42.861  14.401
 9748W        W82162  32.549   7.825  13.873
 9749W        W82163  26.567  15.796  10.014
 9750W        W82164   2.791  18.163   0.272
 9751W        W82165  16.308  14.823  11.943
 9752W        W82166  23.692  32.429  12.341
 9753W        W82167  36.401  29.620   5.169
 9754W        W82168  32.416   7.297   2.748
 9755W        W82169   1.740  39.478  10.977
 9756W        W82170  39.923  17.754   1.413
 9757W        W82171  35.952  11.245   2.825
 9758W        W82172  18.668  16.792   2.221
 9759W        W82173  12.240  29.135   3.797
 9760W        W82174  33.013   2.873   0.242
 9761W        W82175  41.488  10.763   2.861
 9762W        W82176  19.716  39.022   1.283
 9763W        W82177  13.332  17.711  13.040
 9764W        W82178   9.644  36.547   3.298
 9765W        W82179  31.559  20.073  12.888
 9766W        W82180  40.925  26.693   0.966
 9767W        W82181   4.257   6.244  14.470
 9768W        W82182   2.444   2.846   2.787
 9769W        W82183  32.905  35.021  14.979
 9770W        W82184  10.737   0.341  13.465
 9771W        W82185   8.346  36.070   4.132
 9772W        W82186  15.695  38.908   5.121
 9773W        W82187  40.329  10.305   3.664
 9774W        W82188   8.223   0.960  11.099
 9775W        W82189   9.665  20.552  12.420
 9776W        W82190   9.341   8.248  11.087
 9777W        W82191  32.066  36.580   2.878
 9778W        W82192  43.768  18.141  10.908
 9779W        W82193  25.981  17.572  14.017
 9780W        W82194  21.749  16.761  12.990
 9781W        W82195   1.817  42.777  14.439
 9782W        W82196  18.102  37.520   5.251
 9783W        W82197   0.780  17.074   0.265
 9784W        W82198  32.107  25.212  10.610
 9785W        W82199   2.887   6.371  14.917
 9786W        W82200   0.342   6.922  12.888
 9787W        W82201  33.950   7.343  11.442
 9788W        W82202  19.736  43.461  11.484
 9789W        W82203  44.408  17.215  14.949
 9790W        W82204  21.075  32.034  14.406
 9791W        W82205   5.823   8.853   1.694
 9792W        W82206   7.802  41.858  10.909
 9793W        W82207  12.761  27.579  12.386
 9794W        W82208  34.404  44.467   0.353
 9795W        W82209  13.235  14.815   3.327
 9796W        W82210  42.502  40.364   2.253
 9797W        W82211  10.327   8.280  11.462
 9798W        W82212  24.555  31.906  14.852
 9799W        W82213  11.319  26.516   3.679
 9800W        W82214  24.670  38.983  14.974
 9801W        W82215  31.530   7.279  12.882
 9802W        W82216  27.616   4.765  14.376
 9803W        W82217  28.118  16.801  10.902
 9804W        W82218  31.648  28.514  10.893
 9805W        W82219   2.828  42.932  14.375
 9806W        W82220   8.235   6.921  13.362
 9807W        W82221  11.743  43.471   3.787
 9808W        W82222  29.469   6.425   1.243
 9809W        W82223  16.272  21.616   0.448
 9810W        W82224   3.734  26.633   0.775
 9811W        W82225  43.978  38.552   0.823
 9812W        W82226  31.580  32.545   4.705
 9813W        W82227  15.320  34.385   2.872
 9814W        W82228  40.046   8.260  13.525
 9815W        W82229  29.542   1.446   1.229
 9816W        W82230  18.069  33.611  11.926
 9817W        W82231  18.059  43.820  14.993
 9818W        W82232  11.745  25.642  12.520
 9819W        W82233  28.632   3.273   2.179
 9820W        W82234   6.221  20.629  11.478
 9821W        W82235  21.664  35.599   3.370
 9822W        W82236   2.775   4.229  10.899
 9823W        W82237  16.640   4.760   2.663
 9824W        W82238  43.879   0.288   4.209
 9825W        W82239  39.919  24.135  10.921
 9826W        W82240   6.757  26.654   2.223
 9827W        W82241  15.141  28.935  11.861
 9828W        W82242  43.322  23.996   4.234
 9829W        W82243  18.099  44.427   0.471
 9830W        W82244  38.900  38.914  11.403
 9831W        W82245   4.446  11.758   4.155
 9832W        W82246  11.798  43.897  11.955
 9833W        W82247  39.402   0.973  12.908
 9834W        W82248   9.394  26.467   5.149
 9835W        W82249   7.245  41.353  13.397
 9836W        W82250   0.284   4.872  14.769
 9837W        W82251  19.253  41.376   4.207
 9838W        W82252  11.683   5.852  13.966
 9839W        W82253  22.576  23.559  14.896
 9840W        W82254  41.318  11.792  10.946
 9841W        W82255  40.376  24.502   4.631
 9842W        W82256  36.363  29.112  12.427
 9843W        W82257  30.100  44.904  13.912
 9844W        W82258  11.856  20.657  10.413
 9845W        W82259  18.619  14.721   0.271
 9846W        W82260   1.417  17.230   2.191
 9847W        W82261   8.710  39.530   1.698
 9848W        W82262  13.216   8.758   2.316
 9849W        W82263  40.933  16.158  10.950
 9850W        W82264  31.614  40.315   4.829
 9851W        W82265  22.100  26.176   0.440
 9852W        W82266  21.220  44.926   0.247
 9853W        W82267  38.414  34.549  13.805
 9854W        W82268  21.594  19.779   0.385
 9855W        W82269   9.388   6.852  10.890
 9856W        W82270  44.790  10.377  14.830
 9857W        W82271  43.961  23.542   1.797
 9858W        W82272  37.342  23.133  13.515
 9859W        W82273  23.497  23.611   2.758
 9860W        W82274  34.097  23.182   5.182
 9861W        W82275  30.055  28.111  13.882
 9862W        W82276  43.332  23.062   3.233
 9863W        W82277  30.053  29.454   4.712
 9864W        W82278  23.097   7.771   2.216
 9865W        W82279  17.221  39.905   3.239
 9866W        W82280  24.057  34.406   2.306
 9867W        W82281  32.512  20.697   0.426
 9868W        W82282  21.023   3.453   1.305
 9869W        W82283  19.567  37.994  11.996
 9870W        W82284  43.400  24.045   0.864
 9871W        W82285   8.885  20.068   2.370
 9872W        W82286  25.616  27.119   1.219
 9873W        W82287  29.425   7.173  14.345
 9874W        W82288   3.905  42.511  13.375
 9875W        W82289  22.515  38.554  13.545
 9876W        W82290  23.187  18.654   3.169
 9877W        W82291  15.659  26.974  14.493
 9878W        W82292   9.327  39.336  10.911
 9879W        W82293   3.714  13.174  13.480
 9880W        W82294  13.223  11.696  12.941
 9881W        W82295  11.356   5.912  13.492
 9882W        W82296  23.993  18.645   3.177
 9883W        W82297  20.757  21.531  14.918
 9884W        W82298   5.270   2.789   0.374
 9885W        W82299   6.258  39.935  14.444
 9886W        W82300  27.004  44.283   9.998
 9887W        W82301  11.626  41.817  11.449
 9888W        W82302  32.061  35.929  13.933
 9889W        W82303  17.649  14.625  11.448
 9890W        W82304  33.625  22.999  10.066
 9891W        W82305  25.027  22.069  12.978
 9892W        W82306   9.190  22.536  10.941
 9893W        W82307  28.047  30.649   3.827
 9894W        W82308  12.225   9.385   4.350
 9895W        W82309  25.040  18.129  11.887
 9896W        W82310  31.017   9.392  10.986
 9897W        W82311  30.992  30.611   1.319
 9898W        W82312  40.866  41.465  13.839
 9899W        W82313  37.531  36.373   3.820
 9900W        W82314  40.373   2.858   0.861
 9901W        W82315  17.229  31.932   1.382
 9902W        W82316  36.849  24.035   0.888
 9903W        W82317  39.350  20.150  12.409
 9904W        W82318  23.123  19.047   2.361
 9905W        W82319  37.471   4.904  12.495
 9906W        W82320  35.487   6.688   4.340
 9907W        W82321  38.991  32.475  13.924
 9908W        W82322  11.760  12.277  10.435
 9909W        W82323  20.684  17.083  13.967
 9910W        W82324  29.030   4.266  13.845
 9911W        W82325  30.018  13.262  10.456
 9912W        W82326  36.523  12.184   0.457
 9913W        W82327  14.154  34.101  14.996
 9914W        W82328  18.213  32.040   4.343
 9915W        W82329  12.291   6.786  12.388
 9916W        W82330   5.393  15.145   0.449
 9917W        W82331  34.554  12.692  14.935
 9918W        W82332  31.924  33.907   4.317
 9919W        W82333  37.072  15.659   3.215
 9920W        W82334   4.355   7.191  14.354
 9921W        W82335  16.313  21.719   1.227
 9922W        W82336  27.182  24.481  12.972
 9923W        W82337  15.730  22.628   0.851
 9924W        W82338  18.635   5.320  10.965
 9925W        W82339  27.975  11.360   0.963
 9926W        W82340  41.474  13.791   2.192
 9927W        W82341   5.924  26.631  14.823
 9928W        W82342  36.437  11.308  11.931
 9929W        W82343  35.955  25.201   0.756
 9930W        W82344  36.467  18.573  11.063
 9931W        W82345  34.406  40.454  13.864
 9932W        W82346  35.604  37.930   1.931
 9933W        W82347  11.708  44.405   0.264
 9934W        W82348   9.386  16.810   2.837
 9935W        W82349  14.616  40.969  14.775
 9936W        W82350  36.486  44.322   1.318
 9937W        W82351  39.461  41.522  10.641
 9938W        W82352   6.337   4.421   1.294
 9939W        W82353  30.954  12.236   0.337
 9940W        W82354   3.349  39.314   1.448
 9941W        W82355   0.378   7.668   1.443
 9942W        W82356   1.742   9.748   1.909
 9943W        W82357  16.644  17.205  13.992
 9944W        W82358  16.197  29.669  14.510
 9945W        W82359  10.726  20.259  10.957
 9946W        W82360  21.226  28.671   3.790
 9947W        W82361  22.507  41.442  13.864
 9948W        W82362   6.681  34.536  12.466
 9949W        W82363  23.010  20.672   4.754
 9950W        W82364   2.254  44.883   1.358
 9951W        W82365  31.409  32.455   1.803
 9952W        W82366   3.357  35.988  14.928
 9953W        W82367  35.067  20.246   1.861
 9954W        W82368  20.751   7.394  10.515
 9955W        W82369   2.273  33.620   1.742
 9956W        W82370  19.695  10.639   3.226
 9957W        W82371  13.312  29.616   4.354
 9958W        W82372   8.668  32.891   4.226
 9959W        W82373   2.401  38.852  12.053
 9960W        W82374  22.528  10.652   2.900
 9961W        W82375   2.254   7.312  11.444
 9962W        W82376  16.751  27.085   2.330
 9963W        W82377  39.811  21.548   2.900
 9964W        W82378  17.276  40.340   4.812
 9965W        W82379  42.526   0.418  14.827
 9966W        W82380   5.908  40.893  11.023
 9967W        W82381  11.296   2.400  14.329
 9968W        W82382  30.964  41.440  12.046
 9969W        W82383  13.278  39.006  14.334
 9970W        W82384   4.319  25.972   2.380
 9971W        W82385  20.096  40.513   1.897
 9972W        W82386  40.927   1.471  13.054
 9973W        W82387  39.406  27.177  10.497
 9974W        W82388   2.876  14.835   2.811
 9975W        W82389  40.950   5.405   0.770
 9976W        W82390  39.898  36.014   3.289
 9977W        W82391  16.711  29.552   3.846
 9978W        W82392  16.133  40.369   3.281
 9979W        W82393   0.941  10.633  10.564
 9980W        W82394  18.588  32.515  13.920
 9981W        W82395  14.322  26.648   4.615
 9982W        W82396  43.419   1.941   1.934
 9983W        W82397  43.800  24.603   0.290
 9984W        W82398  16.593  44.408  14.313
 9985W        W82399  26.186   2.829   2.706
 9986W        W82400   7.865  22.635   3.191
 9987W        W82401  26.070   5.350  13.976
 9988W        W82402  17.102  13.676  14.816
 9989W        W82403   5.316  44.380  10.552
 9990W        W82404  28.649   9.698  12.485
 9991W        W82405  29.127  25.625   3.305
 9992W        W82406  38.919  43.885  10.943
 9993W        W82407  24.534  18.180  14.323
 9994W        W82408   0.840   9.364  12.496
 9995W        W82409  32.072  24.052   4.766
 9996W        W82410  41.494  27.148   0.872
 9997W        W82411  22.119  44.903  14.408
 9998W        W82412  26.522  41.850   5.096
 9999W        W82413  26.157  18.731  13.531
10000W        W82414  27.523   8.169  12.032
10001W        W82415  29.520  41.383  11.115
10002W        W82416  18.682  26.053   2.871
10003W        W82417  16.758   7.674   1.790
10004W        W82418  16.664  24.595   1.268
10005W        W82419  22.561  42.825  14.454
10006W        W82420  14.834  33.988  10.939
10007W        W82421  17.691  44.338   3.679
10008W        W82422  42.449  19.762   3.766
10009W        W82423   5.868   9.380   2.189
10010W        W82424  26.084  32.573   2.370
10011W        W82425  21.747  44.941   2.820
10012W        W82426  36.970   1.391  14.888
10013W        W82427   8.716  41.795   4.354
10014W        W82428  37.529  44.330   0.323
10015W        W82429  33.059  27.084  12.421
10016W        W82430  18.229  30.974  12.353
10017W        W82431  34.405  43.434  13.967
10018W        W82432   9.314  20.249  10.573
10019W        W82433  26.553  44.002  13.484
10020W        W82434  29.652  13.257  14.885
10021W        W82435  35.996  12.116   1.345
10022W        W82436  41.387   7.736  12.010
10023W        W82437  14.762  18.667   2.336
10024W        W82438  10.244  31.059  10.613
10025W        W82439   9.300   6.274  13.829
10026W        W82440  38.551  43.777   4.794
10027W        W82441  44.801  13.769   2.671
10028W        W82442  31.027  33.932   3.161
10029W        W82443  40.435  16.293   4.338
10030W        W82444   6.683  39.910   2.346
10031W        W82445   0.413  32.432   4.633
10032W        W82446   3.760  21.533   4.635
10033W        W82447  33.501  20.625   0.471
10034W        W82448  37.841  35.458   4.252
10035W        W82449  28.447  36.575   0.891
10036W        W82450  17.237  16.108  13.055
10037W        W82451  38.966   0.471  12.551
10038W        W82452  33.117  28.102  12.944
10039W        W82453   1.301  44.913   4.229
10040W        W82454  38.060   0.984  10.467
10041W        W82455  22.670   2.962  12.402
10042W        W82456  32.996  41.903   4.697
10043W        W82457  40.018  15.152  12.987
10044W        W82458  11.209   3.802   2.227
10045W        W82459  16.694  24.138   3.288
10046W        W82460  34.450  30.566  14.413
10047W        W82461  29.074  38.880  12.353
10048W        W82462  33.575  44.955  14.769
10049W        W82463  17.201  41.959   1.449
10050W        W82464  34.432  33.496  11.508
10051W        W82465  31.940  24.121   3.751
10052W        W82466  14.223   3.774   2.891
10053W        W82467  20.215  33.565   0.956
10054W        W82468   2.725  23.143  12.406
10055W        W82469  30.546  27.101  13.333
10056W        W82470  16.141  19.615   1.724
10057W        W82471   9.766  13.160  12.507
10058W        W82472   2.443   7.763   4.279
10059W        W82473  14.182   8.316   2.838
10060W        W82474  20.608  40.859  11.034
10061W        W82475  41.488  44.340   1.890
10062W        W82476  23.028  29.586   2.250
10063W        W82477  32.054  43.769   0.873
10064W        W82478  39.512   7.211  14.491
10065W        W82479  36.079  33.951  11.087
10066W        W82480  28.984  19.281   2.819
10067W        W82481  42.872  43.399  14.922
10068W        W82482   6.210  17.739  13.861
10069W        W82483  37.408  37.581  12.082
10070W        W82484  32.004  39.417  14.804
10071W        W82485  20.227  41.476   1.336
10072W        W82486  35.455  38.066  14.376
10073W        W82487  37.349  29.965   4.275
10074W        W82488   5.806  27.614  14.366
10075W        W82489   3.269  31.060   2.897
10076W        W82490  21.648  19.112   1.441
10077W        W82491  16.291  37.416  11.917
10078W        W82492  41.040  44.425  13.429
10079W        W82493  26.545  37.995  14.771
10080W        W82494   8.814  43.991   3.222
10081W        W82495  14.657  28.141   3.276
10082W        W82496  32.130   1.888   1.438
10083W        W82497  23.074  39.508  14.767
10084W        W82498  34.386  40.383   2.681
10085W        W82499  32.990  36.389  12.981
10086W        W82500  19.092  30.946   3.163
10087W        W82501  29.497  38.435  12.847
10088W        W82502   0.875  15.271  12.453
10089W        W82503  38.039   3.416  11.506
10090W        W82504  44.391  25.179   3.642
10091W        W82505  43.291  21.631   0.346
10092W        W82506  24.515   0.455   2.748
10093W        W82507  14.675  18.161  13.997
10094W        W82508   9.227   0.428  14.997
10095W        W82509  44.779  40.027  14.466
10096W        W82510  22.592  30.571  12.341
10097W        W82511  14.679   4.223  12.416
10098W        W82512  20.053  24.190  13.960
10099W        W82513   1.935  43.769  12.551
10100W        W82514  23.507   5.838   4.623
10101W        W82515  39.538  40.495   3.798
10102W        W82516  13.765   2.439   0.329
10103W        W82517  23.535  12.283   3.233
10104W        W82518  23.081  12.291   2.241
10105W        W82519  37.422  11.358  11.596
10106W        W82520  11.738  33.045   3.758
10107W        W82521  27.160  40.895  13.380
10108W        W82522  14.106  26.461  10.900
10109W        W82523  44.821  38.959  12.530
10110W        W82524  12.653  11.339   4.818
10111W        W82525  30.000  28.495  12.850
10112W        W82526  25.998  32.108   4.327
10113W        W82527  28.984   0.959   3.296
10114W        W82528   7.863   8.786   1.341
10115W        W82529   1.267  30.159   3.827
10116W        W82530  23.515   9.178   1.424
10117W        W82531  23.606  17.146  11.989
10118W        W82532  12.627  41.447  10.502
10119W        W82533  39.397  40.901  10.980
10120W        W82534   3.298   4.277   2.220
10121W        W82535  42.896  24.610   3.253
10122W        W82536  27.970  18.206   0.299
10123W        W82537  43.284  16.255  12.076
10124W        W82538  29.488  38.481   3.298
10125W        W82539  27.080  39.016  12.892
10126W        W82540   8.406   0.863  11.427
10127W        W82541  24.022  18.604  13.861
10128W        W82542  12.628  16.180  11.511
10129W        W82543  24.011  11.802  10.037
10130W        W82544  38.826  23.492   5.238
10131W        W82545  20.055   8.758  12.917
10132W        W82546  13.198   8.754  10.527
10133W        W82547  19.634  41.422  13.502
10134W        W82548  38.922  21.626  12.384
10135W        W82549  38.424  28.645   0.320
10136W        W82550   4.214  25.068  10.087
10137W        W82551  16.682  18.282  11.961
10138W        W82552  11.763  41.419   2.841
10139W        W82553  12.286  14.676   0.847
10140W        W82554  22.137  32.542   3.815
10141W        W82555   3.909  13.287  10.038
10142W        W82556   9.299  23.734   4.124
10143W        W82557  37.522   2.740  13.033
10144W        W82558  30.958  29.101  10.554
10145W        W82559  18.216  37.472  12.915
10146W        W82560  10.178  35.028  13.835
10147W        W82561  31.431  32.617  11.902
10148W        W82562   3.843  30.003  12.451
10149W        W82563  16.137  36.844   4.285
10150W        W82564   4.445  19.540   3.724
10151W        W82565   2.734  23.217  11.911
10152W        W82566  23.123   9.677  12.932
10153W        W82567  37.444  24.180  14.512
10154W        W82568  40.981  32.986  10.522
10155W        W82569  35.051   2.425   0.841
10156W        W82570   1.378   1.737  12.457
10157W        W82571   1.241  42.934   2.334
10158W        W82572  32.917  41.900  14.875
10159W        W82573  12.151  22.046   3.182
10160W        W82574  40.947   0.777  13.428
10161W        W82575   5.761  16.700   3.257
10162W        W82576  16.174  36.567   1.234
10163W        W82577  20.033  32.422  13.987
10164W        W82578  24.007  42.471  11.090
10165W        W82579  40.315  31.431   3.788
10166W        W82580  41.948  13.122   3.666
10167W        W82581  24.700   2.288   4.750
10168W        W82582  23.628  27.542   3.213
10169W        W82583   4.732  22.059  12.094
10170W        W82584  35.086  29.476  11.035
10171W        W82585  21.602  39.065   4.778
10172W        W82586   1.389  27.474   4.647
10173W        W82587  43.872  10.671   3.348
10174W        W82588  22.720  32.920  14.895
10175W        W82589  25.130  43.466  12.454
10176W        W82590  33.589   9.188  13.314
10177W        W82591  39.871  41.925  14.801
10178W        W82592  25.118  12.143   0.278
10179W        W82593   8.794  29.978  13.325
10180W        W82594   5.374  37.368   2.190
10181W        W82595  11.284  42.905  14.363
10182W        W82596  38.401  30.008  14.397
10183W        W82597   0.489  40.798   0.295
10184W        W82598  25.209   5.881  12.360
10185W        W82599  14.709  21.146  14.773
10186W        W82600  23.672  40.548   2.767
10187W        W82601  13.805  18.148   1.297
10188W        W82602  26.963   0.286   0.956
10189W        W82603  16.738  38.541  12.079
10190W        W82604   7.893  13.608  13.499
10191W        W82605   9.854  43.306   2.784
10192W        W82606   2.321  24.044  10.453
10193W        W82607  14.332  16.607  12.873
10194W        W82608   1.810   3.933   0.923
10195W        W82609  17.130  13.170   0.833
10196W        W82610  10.702  21.023  11.865
10197W        W82611   1.375   4.288  12.897
10198W        W82612  29.624   0.272   9.942
10199W        W82613   3.766  19.647  12.561
10200W        W82614  14.340  30.971  12.891
10201W        W82615  10.675  36.882   4.729
10202W        W82616  44.359  44.974   1.379
10203W        W82617  35.993  35.102  11.029
10204W        W82618  27.950  18.180   4.119
10205W        W82619  21.742  10.163  11.083
10206W        W82620  29.569  39.026  11.866
10207W        W82621  41.013   7.689   4.175
10208W        W82622   1.851  33.076   4.240
10209W        W82623  11.331  32.437   2.361
10210W        W82624  24.168  35.516   2.192
10211W        W82625   4.920  32.141   4.718
10212W        W82626  34.438  30.135  12.848
10213W        W82627  38.879  28.971  10.516
10214W        W82628  24.609  10.792  11.099
10215W        W82629  10.178  16.112  10.602
10216W        W82630  24.620  14.832   3.261
10217W        W82631  26.191  36.577   4.647
10218W        W82632   5.284  34.607   0.454
10219W        W82633  33.080  41.039   0.758
10220W        W82634  41.456  11.147  13.522
10221W        W82635  43.483  24.550   2.900
10222W        W82636  42.326  34.051  11.436
10223W        W82637  30.153  16.289  10.924
10224W        W82638  28.678  11.242  10.970
10225W        W82639  43.404  32.111  13.913
10226W        W82640  26.144  40.894  13.894
10227W        W82641  29.429   8.360  12.491
10228W        W82642  17.656   8.173   3.638
10229W        W82643  43.391  26.100  12.491
10230W        W82644  11.154  20.230   1.887
10231W        W82645  36.428  26.084  13.959
10232W        W82646  36.060   5.781   0.795
10233W        W82647  15.670  12.118   3.857
10234W        W82648  40.357  33.623  13.030
10235W        W82649  35.593   6.422   1.807
10236W        W82650  31.035  14.253  14.322
10237W        W82651  36.060  42.497  12.544
10238W        W82652  39.393  40.343  14.846
10239W        W82653  39.021  31.608  10.095
10240W        W82654  36.438  31.040  13.982
10241W        W82655  37.539  34.010   4.308
10242W        W82656   8.732  30.111  10.555
10243W        W82657   9.366  21.513   1.282
10244W        W82658  40.910   0.272   3.868
10245W        W82659  12.771  25.128  14.881
10246W        W82660  16.274  29.125  12.478
10247W        W82661  10.834  16.654   4.287
10248W        W82662  21.678   6.704  12.978
10249W        W82663  13.312   9.349   5.104
10250W        W82664  40.016  19.051   2.713
10251W        W82665  44.985   6.852  12.859
10252W        W82666   4.406   4.398   2.822
10253W        W82667  40.521   1.401  14.292
10254W        W82668  12.720   3.297  13.447
10255W        W82669   4.818  41.527   3.717
10256W        W82670  19.129  17.794  14.496
10257W        W82671  32.124   3.359   0.773
10258W        W82672  40.972  28.060   0.864
10259W        W82673   2.374  35.360  14.476
10260W        W82674  40.356  25.979  10.579
10261W        W82675  42.431  23.028  10.454
10262W        W82676  25.557  15.662   2.835
10263W        W82677  28.468  28.024   0.822
10264W        W82678  22.668  38.412   4.233
10265W        W82679  22.048  31.511   1.386
10266W        W82680   5.437   7.262   2.330
10267W        W82681   0.278  10.295  14.795
10268W        W82682  33.002   8.833  14.373
10269W        W82683  23.166  17.579   3.848
10270W        W82684  39.559   2.721   4.624
10271W        W82685  43.820  14.736   1.330
10272W        W82686   5.930   6.870   1.736
10273W        W82687   7.391  36.857  14.362
10274W        W82688   6.307  23.033   2.369
10275W        W82689   4.766   2.311   2.223
10276W        W82690  28.624  15.718   5.221
10277W        W82691  23.676  12.152   1.875
10278W        W82692  10.248  17.137  14.367
10279W        W82693  16.573  20.039  14.013
10280W        W82694  42.305  43.768   1.349
10281W        W82695   0.874   5.691  14.822
10282W        W82696  10.655  35.883   3.779
10283W        W82697  41.384  14.772  11.121
10284W        W82698  23.020  11.372   4.222
10285W        W82699  20.195  18.051  13.844
10286W        W82700  17.776  41.034  11.015
10287W        W82701  28.508  24.667  14.922
10288W        W82702   6.713  20.271  13.383
10289W        W82703  21.604  15.607   1.365
10290W        W82704   6.332  40.345   1.785
10291W        W82705   2.437  34.998  10.495
10292W        W82706  10.743  44.321   1.387
10293W        W82707  22.617   9.684  12.073
10294W        W82708  11.764  39.978  11.397
10295W        W82709  44.777  42.890   3.356
10296W        W82710   6.783  18.154  13.356
10297W        W82711  12.779   9.783  12.990
10298W        W82712  11.247  27.675   2.388
10299W        W82713  41.427  38.496  14.906
10300W        W82714  40.808  33.410  11.498
10301W        W82715  21.240  15.738  11.857
10302W        W82716  27.991   3.889  11.050
10303W        W82717  40.362   8.851   0.788
10304W        W82718   4.731  28.624   4.661
10305W        W82719  16.231   9.731  11.106
10306W        W82720   3.414  27.619  11.068
10307W        W82721  20.077  21.202  11.944
10308W        W82722   8.331  29.077  14.927
10309W        W82723  18.642   8.166  14.336
10310W        W82724  26.153  15.585  10.889
10311W        W82725  40.918   1.399  14.295
10312W        W82726  31.430  40.532   0.873
10313W        W82727  27.593  37.479   4.290
10314W        W82728  32.937   4.262   2.195
10315W        W82729  14.642  43.976   1.784
10316W        W82730  29.645   5.748  13.526
10317W        W82731   3.744  12.144  11.443
10318W        W82732  13.621   8.207   9.979
10319W        W82733  37.022  34.465   5.266
10320W        W82734  36.407  23.080   2.376
10321W        W82735  30.510  32.584  11.113
10322W        W82736  14.324  20.639   1.314
10323W        W82737  30.124  15.177   3.849
10324W        W82738   9.358  11.830  14.827
10325W        W82739  32.891  42.977  11.063
10326W        W82740  17.759  20.066   0.780
10327W        W82741  15.692  30.050   1.413
10328W        W82742  21.225   1.266   2.360
10329W        W82743   0.972  34.092  12.431
10330W        W82744  20.141  43.901   1.731
10331W        W82745   6.728   2.338   0.365
10332W        W82746  23.189  29.041   4.732
10333W        W82747  29.600   2.915   0.831
10334W        W82748  24.547   8.698  13.049
10335W        W82749   7.778   1.316   3.180
10336W        W82750  44.285  15.086  14.487
10337W        W82751  23.589  28.026   4.794
10338W        W82752   3.745  35.934  10.598
10339W        W82753  13.615  17.757   5.174
10340W        W82754   6.328  22.997   3.759
10341W        W82755  27.143  26.543   0.378
10342W        W82756   9.812  25.156  14.988
10343W        W82757   7.898   3.401   2.863
10344W        W82758  23.999  10.878   1.830
10345W        W82759   2.965  23.509  14.490
10346W        W82760  29.651  21.688  12.548
10347W        W82761  39.972  23.520   3.848
10348W        W82762   5.728  12.318   4.655
10349W        W82763   1.249  22.675  11.473
10350W        W82764  32.027  17.306  14.812
10351W        W82765  20.695   9.880   2.369
10352W        W82766   3.755  36.923   0.300
10353W        W82767   9.180   9.236   3.718
10354W        W82768  31.477  26.989  11.445
10355W        W82769  44.899  15.667  12.886
10356W        W82770   6.374   9.216   0.386
10357W        W82771  10.861  28.553   0.770
10358W        W82772  26.611  10.181   2.311
10359W        W82773  20.596  23.070  13.377
10360W        W82774  21.578   0.908  13.988
10361W        W82775  16.706  22.194  12.345
10362W        W82776  35.527   7.829  14.996
10363W        W82777  37.464  14.179   2.854
10364W        W82778   4.314   1.784   0.875
10365W        W82779  16.267  28.958  11.429
10366W        W82780  43.381  29.989   1.355
10367W        W82781   9.749  13.333  11.989
10368W        W82782  42.521  33.891   4.730
10369W        W82783  40.956  31.532  13.504
10370W        W82784  33.911   1.943  10.514
10371W        W82785  23.589  35.875  12.389
10372W        W82786  25.614  33.981  13.051
10373W        W82787   9.849  40.304  10.622
10374W        W82788  27.684  44.928  13.446
10375W        W82789  18.707  41.819  11.966
10376W        W82790  37.556  37.514   1.299
10377W        W82791  27.010  26.193  13.906
10378W        W82792  39.916  31.950   5.194
10379W        W82793  15.108  33.524   3.852
10380W        W82794  20.634   9.245   3.374
10381W        W82795  11.798   1.417   0.947
10382W        W82796  16.702  22.637  12.089
10383W        W82797  15.656  32.009  12.095
10384W        W82798  37.067  36.998   4.665
10385W        W82799  43.349  17.623   3.746
10386W        W82800  38.422  13.206   3.833
10387W        W82801  33.461  10.354   3.673
10388W        W82802   2.763  14.175   9.566
10389W        W82803  25.516  31.911  14.020
10390W        W82804  24.041  11.277  14.839
10391W        W82805   1.274  10.280   3.383
10392W        W82806  34.420  30.464   3.674
10393W        W82807   7.298  38.540   2.186
10394W        W82808  44.265  35.011  13.485
10395W        W82809  17.653  34.933   4.256
10396W        W82810  26.118  13.627   3.735
10397W        W82811   5.799  38.346  11.035
10398W        W82812  37.978  40.326  14.001
10399W        W82813  38.980  38.034  12.057
10400W        W82814   6.325  28.008   4.319
10401W        W82815   9.277  17.248   4.697
10402W        W82816  32.991  41.795  14.481
10403W        W82817  11.837  28.008   0.344
10404W        W82818   3.268  41.838   3.200
10405W        W82819  11.762  25.679   0.410
10406W        W82820  14.128   8.663   2.376
10407W        W82821  18.294  20.717  13.459
10408W        W82822  30.017   4.938  14.927
10409W        W82823  29.164  37.948   2.198
10410W        W82824  19.100  10.374   1.805
10411W        W82825  38.507  36.514  11.506
10412W        W82826   6.760   6.333   4.800
10413W        W82827  21.709  11.716   2.367
10414W        W82828   7.673   7.666   4.143
10415W        W82829  39.829  16.690  14.828
10416W        W82830  29.071  20.574  13.047
10417W        W82831  15.789  18.556  10.482
10418W        W82832   2.352  33.061  14.024
10419W        W82833   5.228  34.882  12.441
10420W        W82834  42.520   8.885   1.224
10421W        W82835  16.216  18.130  13.963
10422W        W82836  26.695  12.792  13.928
10423W        W82837  36.505  41.507  12.580
10424W        W82838   6.889  44.270   2.330
10425W        W82839  28.664  19.228  14.295
10426W        W82840  14.824  20.219  11.007
10427W        W82841   7.738  30.537   9.996
10428W        W82842  25.071  32.072  10.502
10429W        W82843   3.353  29.954  10.908
10430W        W82844  33.442  12.140   2.704
10431W        W82845  21.094  24.030  10.571
10432W        W82846  30.494   3.806   3.362
10433W        W82847  41.930  33.059  10.522
10434W        W82848  18.595  32.009   1.759
10435W        W82849   9.289  27.571   2.369
10436W        W82850  18.073  44.820  13.977
10437W        W82851   5.791   8.176  14.309
10438W        W82852  34.066  26.040   1.338
10439W        W82853  40.831  22.643   1.917
10440W        W82854   5.296  11.205   2.312
10441W        W82855  40.360  38.535   4.348
10442W        W82856  25.137  20.691  12.436
10443W        W82857  28.164  19.692  12.849
10444W        W82858   5.288  25.965  13.044
10445W        W82859   3.854  21.038   0.943
10446W        W82860  19.226  20.710   3.638
10447W        W82861  34.463  43.494  11.039
10448W        W82862  15.772  44.321   3.271
10449W        W82863  41.911  19.633   3.677
10450W        W82864  25.982  22.619   1.872
10451W        W82865  37.386  27.099   2.382
10452W        W82866  32.602  39.033  14.028
10453W        W82867  14.723   6.723  12.499
10454W        W82868  35.569  38.866  12.407
10455W        W82869  35.587  20.525  12.040
10456W        W82870   1.287   5.770   2.185
10457W        W82871  20.099   5.698  10.123
10458W        W82872  40.348   9.741  13.951
10459W        W82873  23.521  16.650   0.834
10460W        W82874  11.624  43.938  10.979
10461W        W82875  36.412  20.054   2.671
10462W        W82876  28.661  40.387   0.920
10463W        W82877  11.727  12.717  14.373
10464W        W82878  34.953  22.195  11.872
10465W        W82879   2.882  38.329  14.455
10466W        W82880  19.144  31.959  12.445
10467W        W82881  18.261  20.068  13.030
10468W        W82882  25.048  23.645  12.830
10469W        W82883  44.421  37.458   4.220
10470W        W82884   2.773   4.902  10.964
10471W        W82885  22.689  43.473   4.219
10472W        W82886  11.131  19.240  14.802
10473W        W82887  23.688   8.729   4.825
10474W        W82888   3.336  41.943   0.442
10475W        W82889   0.430  44.802  13.910
10476W        W82890  12.796  23.616   2.690
10477W        W82891  17.642   7.828   2.193
10478W        W82892  33.912   3.769   0.844
10479W        W82893  38.923  40.429   4.224
10480W        W82894   0.379  20.545  13.315
10481W        W82895   9.209  21.684  14.327
10482W        W82896  19.561  14.296   1.439
10483W        W82897   6.784  27.971   3.672
10484W        W82898  39.424  23.225  11.064
10485W        W82899  29.636  14.302   3.735
10486W        W82900   5.927   3.928  14.843
10487W        W82901  14.643  20.751   2.389
10488W        W82902  27.197  23.179  10.999
10489W        W82903   3.348  25.580  13.501
10490W        W82904  11.646  28.065  13.463
10491W        W82905  28.034  19.623  14.280
10492W        W82906   4.357  33.956  13.793
10493W        W82907  28.649   2.854  13.903
10494W        W82908  34.886  20.225  10.639
10495W        W82909  43.851   2.363   3.772
10496W        W82910   2.423  44.396   2.767
10497W        W82911   6.910  20.762   2.875
10498W        W82912   1.410  42.910  13.405
10499W        W82913  25.193  14.300  11.459
10500W        W82914  27.512  40.963   1.911
10501W        W82915  24.486  21.259   3.206
10502W        W82916  36.976  10.865  14.803
10503W        W82917  29.034  44.849   0.460
10504W        W82918  30.132  27.536   2.815
10505W        W82919  25.180  12.657  11.386
10506W        W82920  39.822  21.064   2.279
10507W        W82921   4.300  21.111  13.399
10508W        W82922  43.908  25.969   1.898
10509W        W82923  41.859  14.322  10.001
10510W        W82924  39.459  34.916   2.886
10511W        W82925  31.020  18.711   0.865
10512W        W82926  37.892   6.717   2.798
10513W        W82927  21.225  12.274   0.280
10514W        W82928  39.512  42.921  12.047
10515W        W82929  31.944   3.948   0.396
10516W        W82930  19.123  10.200   0.379
10517W        W82931   7.838   8.766   4.189
10518W        W82932  27.683   8.169   1.361
10519W        W82933   2.370  33.463   4.262
10520W        W82934   3.954  36.475   1.276
10521W        W82935  22.106  16.110   0.336
10522W        W82936  10.208  33.068   1.350
10523W        W82937  37.063  20.543   4.656
10524W        W82938  42.984  21.592   1.445
10525W        W82939  10.147   8.727  14.913
10526W        W82940   4.205  41.021  12.494
10527W        W82941   3.354  37.886  13.455
10528W        W82942  31.541   6.422  13.440
10529W        W82943  24.071   4.838  12.523
10530W        W82944  39.389   8.178  11.870
10531W        W82945  22.233   8.833   1.765
10532W        W82946  42.969  20.251  10.496
10533W        W82947   0.888  20.763  14.462
10534W        W82948  23.995  35.960   5.201
10535W        W82949  33.461  19.556  10.897
10536W        W82950  34.371  44.823   3.741
10537W        W82951   6.306  34.018  10.997
10538W        W82952   4.278  23.550  13.836
10539W        W82953  17.297  44.898   1.791
10540W        W82954  23.546  30.519  10.635
10541W        W82955  37.336  39.408  11.904
10542W        W82956  35.506   3.343   2.669
10543W        W82957  27.120  44.956   4.655
10544W        W82958  24.122  38.417   2.803
10545W        W82959  43.346  11.129  10.542
10546W        W82960  19.596   1.855  11.439
10547W        W82961  31.072  37.994  12.387
10548W        W82962  37.428  41.427   9.946
10549W        W82963   5.918   1.821   0.758
10550W        W82964   0.783   5.396   2.374
10551W        W82965  19.083  44.899  11.374
10552W        W82966   8.258  38.439  14.972
10553W        W82967  22.675   5.753  13.890
10554W        W82968  44.877  11.773  13.947
10555W        W82969  13.657  42.822   0.894
10556W        W82970  16.783  16.603   2.219
10557W        W82971  25.499  41.300   0.338
10558W        W82972   0.266  18.577   0.861
10559W        W82973  22.590  20.201   4.199
10560W        W82974  34.110   5.811  12.364
10561W        W82975  15.143  38.016  14.010
10562W        W82976   2.394  44.845   1.817
10563W        W82977  24.974  40.005  11.023
10564W        W82978   4.776  30.615   2.806
10565W        W82979  24.605  28.990  14.489
10566W        W82980  26.538  43.324  13.517
10567W        W82981  22.228  18.556  13.015
10568W        W82982  39.038   9.305   2.814
10569W        W82983  22.239  35.904   3.321
10570W        W82984  11.667  15.805   1.856
10571W        W82985  27.491  31.639   2.808
10572W        W82986  21.255  42.380   1.808
10573W        W82987  30.649  25.529  13.446
10574W        W82988  27.635  20.145   3.871
10575W        W82989   7.337  22.075   1.809
10576W        W82990  39.822  19.285  12.846
10577W        W82991  23.179  10.262   2.674
10578W        W82992  25.190  39.016   3.762
10579W        W82993  21.208  22.032  14.993
10580W        W82994  15.275  17.693   3.255
10581W        W82995  13.719  17.252  13.965
10582W        W82996  42.318  41.300   3.648
10583W        W82997  35.019  27.536  13.907
10584W        W82998  22.683  16.799   3.805
10585W        W82999  35.098   0.987   0.297
10586W        W83000  22.108   0.260   3.183
10587W        W83001  10.171  33.110   3.637
10588W        W83002  39.905   3.416  12.056
10589W        W83003  28.146  33.093  10.579
10590W        W83004  11.250  23.051   4.212
10591W        W83005  35.390  36.489   1.782
10592W        W83006  25.534   7.400  14.023
10593W        W83007  15.643  19.164   9.931
10594W        W83008  11.750  27.160  10.483
10595W        W83009  22.069  16.592   1.868
10596W        W83010  34.109  24.629   4.262
10597W        W83011  27.050  32.501   4.654
10598W        W83012   4.851  30.946   0.726
10599W        W83013  41.429  17.771  14.275
10600W        W83014  35.068   0.972   2.203
10601W        W83015  36.456  28.122   1.261
10602W        W83016  10.287  31.975  14.369
10603W        W83017  32.947  28.044   2.729
10604W        W83018  19.643  16.304  13.967
10605W        W83019  28.476  36.008   3.777
10606W        W83020  36.361  25.631   0.398
10607W        W83021  36.003  12.793   2.269
10608W        W83022   9.737  23.189   2.853
10609W        W83023  23.051  41.424  10.578
10610W        W83024  39.484   7.301  12.913
10611W        W83025   2.929  35.093  10.577
10612W        W83026  17.683  21.242  10.969
10613W        W83027  38.003   7.874  12.497
10614W        W83028  16.084   5.390  12.829
10615W        W83029   6.424  43.764  13.854
10616W        W83030  12.840  27.496   4.245
10617W        W83031   1.965  41.796  12.396
10618W        W83032  21.171  11.164  13.968
10619W        W83033  22.515   3.788   0.427
10620W        W83034  35.389  11.317  14.958
10621W        W83035  23.239  34.600   1.846
10622W        W83036  33.945  11.275  10.993
10623W        W83037  36.936  34.064   3.728
10624W        W83038   5.324  16.241  14.956
10625W        W83039  43.846   2.906  12.017
10626W        W83040   9.874  16.150  14.025
10627W        W83041  36.052  37.062   3.214
10628W        W83042  20.045   9.278   2.860
10629W        W83043  23.693   7.744   2.193
10630W        W83044  31.962  19.137  11.545
10631W        W83045  23.632  15.787   2.240
10632W        W83046  28.080  40.875   1.830
10633W        W83047   7.869  19.244  14.011
10634W        W83048  37.357   9.847   2.848
10635W        W83049   9.724  23.040  12.415
10636W        W83050  42.923  21.557  12.525
10637W        W83051  10.334  34.091  12.920
10638W        W83052  23.635  20.583  15.000
10639W        W83053  30.559  24.527   2.205
10640W        W83054  26.093   6.296  14.987
10641W        W83055   6.184  16.184   3.804
10642W        W83056  36.076  16.219  10.591
10643W        W83057  22.173  42.934   3.718
10644W        W83058   8.812  29.072   2.902
10645W        W83059   7.835   6.691   1.283
10646W        W83060  38.950   1.823   3.324
10647W        W83061   2.730  43.438   0.264
10648W        W83062  21.153   6.250   1.237
10649W        W83063   6.299  15.601   3.647
10650W        W83064  21.214  18.630   3.760
10651W        W83065  14.262  24.044  13.982
10652W        W83066   2.741  42.416  13.484
10653W        W83067  34.895   1.753  12.521
10654W        W83068  44.475  17.683  13.355
10655W        W83069  38.851  32.888  10.952
10656W        W83070  13.265   9.755   1.365
10657W        W83071  10.297  25.101  12.052
10658W        W83072  18.765   1.343  12.398
10659W        W83073  22.606  10.140   0.866
10660W        W83074   6.378  27.195   2.219
10661W        W83075  28.641  41.506   0.966
10662W        W83076   1.829  34.553  13.801
10663W        W83077  24.013   6.884   0.748
10664W        W83078  38.425   5.380   3.638
10665W        W83079  19.283  23.029  12.834
10666W        W83080  36.096  15.258  12.561
10667W        W83081   7.259  22.159  11.580
10668W        W83082  33.618  31.421   1.887
10669W        W83083  20.114  16.688  13.020
10670W        W83084   9.720  25.620  13.451
10671W        W83085  33.096  43.001  12.940
10672W        W83086  41.007  40.304  12.937
10673W        W83087  24.012   1.304  14.409
10674W        W83088  30.567  16.804   3.374
10675W        W83089  42.404  29.075  10.896
10676W        W83090  32.508  27.447   3.789
10677W        W83091  26.698  19.759  12.419
10678W        W83092   1.238   0.356  12.833
10679W        W83093  24.190   5.881   3.685
10680W        W83094  28.558  15.289  10.514
10681W        W83095  33.928  31.579   3.215
10682W        W83096  28.540  25.033  12.823
10683W        W83097  26.692  19.170   4.311
10684W        W83098  15.717  17.779  13.446
10685W        W83099  37.369  43.975  13.450
10686W        W83100   1.842  11.810   0.268
10687W        W83101  32.411  40.448   3.687
10688W        W83102   8.755  15.111   3.822
10689W        W83103  27.191  12.248   1.284
10690W        W83104  30.627  17.254  14.764
10691W        W83105  36.365  39.003   0.442
10692W        W83106  21.074   6.741  14.955
10693W        W83107  15.281   0.987   1.350
10694W        W83108   8.823   6.325   5.178
10695W        W83109  13.600  15.089   2.327
10696W        W83110  26.528  15.137  13.448
10697W        W83111   9.185  38.929  14.881
10698W        W83112   4.741   0.249  10.526
10699W        W83113  15.754   1.252  14.996
10700W        W83114   4.308  37.069  11.095
10701W        W83115   4.348  44.926  11.414
10702W        W83116  34.932   1.793  10.998
10703W        W83117  10.835  33.966   4.134
10704W        W83118  11.148  34.574  11.533
10705W        W83119  11.695  19.091  13.333
10706W        W83120  13.214   0.262   4.166
10707W        W83121  13.742  36.903  11.547
10708W        W83122  19.135   4.203  13.548
10709W        W83123  33.387  17.603   4.222
10710W        W83124  28.082  30.013  10.430
10711W        W83125  30.034   8.788  13.800
10712W        W83126  21.566  10.222   0.743
10713W        W83127  14.749   4.258  13.498
10714W        W83128   1.970  38.531   4.809
10715W        W83129  28.466  36.388  10.996
10716W        W83130  17.194  18.272  11.048
10717W        W83131  26.653  43.865  12.450
10718W        W83132  31.562  42.342  10.967
10719W        W83133   8.378  38.853  13.353
10720W        W83134   7.207  19.211   3.652
10721W        W83135   3.271  27.164  10.490
10722W        W83136  20.708  13.326  14.312
10723W        W83137  13.239   3.822  12.374
10724W        W83138  28.963  18.775   0.440
10725W        W83139  21.018  34.430   3.673
10726W        W83140   6.883  10.633   3.256
10727W        W83141  19.218  44.395   0.899
10728W        W83142  10.226  33.459   2.890
10729W        W83143  19.165  30.056   4.630
10730W        W83144  17.167  39.850  13.388
10731W        W83145  30.436  18.156   1.815
10732W        W83146  24.203  43.435  13.906
10733W        W83147  44.356   5.914  13.901
10734W        W83148   3.294  42.484  14.278
10735W        W83149  40.887  35.968   4.762
10736W        W83150   9.372   7.224  12.395
10737W        W83151  27.478  20.061  13.838
10738W        W83152   7.720  32.060   5.291
10739W        W83153  36.024  35.036  14.511
10740W        W83154  40.324  40.501   4.641
10741W        W83155  15.645   6.423   0.306
10742W        W83156  10.780  38.458   2.673
10743W        W83157  38.829  27.449   2.266
10744W        W83158  11.213   0.385  11.878
10745W        W83159  32.433   8.743  11.891
10746W        W83160  30.633  30.583  12.401
10747W        W83161  12.826  26.024   2.875
10748W        W83162  31.563  13.762  14.454
10749W        W83163  26.521  34.472  14.876
10750W        W83164  34.393  34.018   3.668
10751W        W83165  44.360  27.476  12.345
10752W        W83166  13.802   1.333  12.903
10753W        W83167  30.164  19.250  12.841
10754W        W83168  40.918  23.682   3.805
10755W        W83169   2.471  26.100   9.473
10756W        W83170   3.876   6.401  11.374
10757W        W83171  12.747  26.029  11.940
10758W        W83172   7.357  37.395   3.273
10759W        W83173  27.578   1.354   2.693
10760W        W83174   1.937  31.121  11.007
10761W        W83175  36.951  39.828  12.538
10762W        W83176  44.318  34.906  12.090
10763W        W83177  19.063  16.264   4.748
10764W        W83178  10.351   6.273   3.805
10765W        W83179  28.042  35.876   9.967
10766W        W83180  14.816   2.893  12.439
10767W        W83181   2.942   5.898   0.446
10768W        W83182   2.816   8.752  13.336
10769W        W83183  21.570  31.417  13.403
10770W        W83184  16.256   4.738   4.135
10771W        W83185  18.112   2.818   3.228
10772W        W83186  43.374  38.948   2.755
10773W        W83187  25.148  17.198  10.527
10774W        W83188  43.866  22.117  13.378
10775W        W83189  17.625  44.376  14.819
10776W        W83190  41.871  36.476   4.299
10777W        W83191  18.617  15.307   2.773
10778W        W83192  27.521   5.854   0.471
10779W        W83193  10.698  17.288  14.838
10780W        W83194  38.953  13.618  10.604
10781W        W83195  18.632  35.076   3.819
10782W        W83196  28.601  30.473   2.711
10783W        W83197  12.822   0.975   4.747
10784W        W83198  13.284  13.784   4.653
10785W        W83199  40.484  17.215   5.306
10786W        W83200  15.274  17.236   1.427
10787W        W83201   4.855  31.044  10.952
10788W        W83202  29.505  32.018   4.127
10789W        W83203  11.714  21.051  14.835
10790W        W83204  38.512  38.465   1.787
10791W        W83205  17.157   3.223  11.572
10792W        W83206   8.263  36.952  13.495
10793W        W83207   0.419  34.955   0.448
10794W        W83208  26.655  41.915   1.261
10795W        W83209  15.132  29.921   2.372
10796W        W83210  18.119  20.675  14.362
10797W        W83211  28.145  17.649  12.527
10798W        W83212  16.734   0.887  12.556
10799W        W83213  12.628  42.334  11.070
10800W        W83214   6.344  24.482   4.136
10801W        W83215  23.117  17.666  14.837
10802W        W83216  39.490  40.391  12.412
10803W        W83217  27.082  22.033  13.460
10804W        W83218  38.892  41.860  12.932
10805W        W83219   3.262  44.415  10.612
10806W        W83220  38.422  25.563  12.921
10807W        W83221  33.125   8.901  10.556
10808W        W83222  41.417   4.227  10.998
10809W        W83223  12.220  32.631  12.454
10810W        W83224  24.097  29.537  12.515
10811W        W83225  31.935  32.571   4.741
10812W        W83226  41.317  24.071   5.226
10813W        W83227   3.722  24.982   0.390
10814W        W83228   5.748   7.202  11.556
10815W        W83229   6.919  29.165   1.441
10816W        W83230  39.849   5.769   4.781
10817W        W83231  25.168  11.131   0.784
10818W        W83232  24.975  21.143  14.921
10819W        W83233   5.932  29.577   3.307
10820W        W83234  34.082  25.124  12.476
10821W        W83235  12.267   4.699  13.462
10822W        W83236  26.192  43.988   5.185
10823W        W83237  14.107  40.414   3.246
10824W        W83238  27.604  33.522  13.919
10825W        W83239  39.457   4.443  11.928
10826W        W83240   7.794   8.726  13.465
10827W        W83241  36.022  34.953   2.189
10828W        W83242   6.277  27.093  10.484
10829W        W83243  16.782  24.604   3.779
10830W        W83244  29.926  18.583  14.294
10831W        W83245  13.609  15.780  11.900
10832W        W83246  21.745  10.874   0.780
10833W        W83247   3.910   5.204   3.844
10834W        W83248  33.617   7.693  11.424
10835W        W83249  31.009  12.176  12.528
10836W        W83250  28.572   0.840   2.236
10837W        W83251  41.503  21.199   3.336
10838W        W83252   7.841  41.892  11.499
10839W        W83253  31.105  17.744  11.053
10840W        W83254   3.840   9.178   4.654
10841W        W83255  12.201  13.253  11.059
10842W        W83256   6.313  42.872  13.478
10843W        W83257  34.028   1.294   0.883
10844W        W83258  24.533  22.115   2.381
10845W        W83259   5.706   7.824  14.788
10846W        W83260  17.117  38.902   9.972
10847W        W83261  15.140  35.595  11.590
10848W        W83262  30.587   9.292  12.470
10849W        W83263  16.734  16.219   2.321
10850W        W83264  17.233  18.216   2.864
10851W        W83265  32.430  35.509  10.939
10852W        W83266  30.923   8.320  10.509
10853W        W83267  41.491  13.249   5.174
10854W        W83268   0.912  30.001   4.724
10855W        W83269  35.403  44.425   1.738
10856W        W83270  25.612  36.472  14.439
10857W        W83271  15.753   1.438   4.158
10858W        W83272  42.811  25.126   1.738
10859W        W83273  37.528  21.224  12.890
10860W        W83274   8.850  12.341  12.980
10861W        W83275   0.779  42.803   2.268
10862W        W83276  25.668   8.229   0.912
10863W        W83277  39.029  42.880   4.779
10864W        W83278   7.714   6.352   0.792
10865W        W83279   2.436  22.036   2.255
10866W        W83280  18.684  30.449   4.249
10867W        W83281  21.542  39.489   3.164
10868W        W83282  31.515   6.830  14.362
10869W        W83283  15.170  35.024  10.921
10870W        W83284  28.625  30.085  11.520
10871W        W83285  32.496  30.009   2.329
10872W        W83286   5.695  14.677   0.833
10873W        W83287  18.227  29.049   1.794
10874W        W83288  24.077  44.294   4.625
10875W        W83289   3.431  10.256  12.883
10876W        W83290  42.870  42.861   4.215
10877W        W83291   9.233   1.734  11.925
10878W        W83292  37.040  11.319   3.155
10879W        W83293  21.060  31.435   1.883
10880W        W83294  14.678  17.288  14.393
10881W        W83295  20.574  18.548   1.379
10882W        W83296   2.729  19.662   0.412
10883W        W83297  23.614  13.176  10.966
10884W        W83298  31.614   1.822  13.004
10885W        W83299   5.707  44.440  14.833
10886W        W83300  40.311   9.337  13.544
10887W        W83301  26.054  23.635   4.644
10888W        W83302  35.459  28.090   2.700
10889W        W83303  10.663  36.436   1.868
10890W        W83304  12.287  11.773   0.435
10891W        W83305  19.042  42.894   0.354
10892W        W83306  30.950  15.106   3.832
10893W        W83307  12.800  37.901  11.469
10894W        W83308  23.524   8.210  14.938
10895W        W83309  23.517  10.184  12.987
10896W        W83310  27.525  27.138  14.325
10897W        W83311  24.103  14.317   4.620
10898W        W83312  40.451  38.060  11.969
10899W        W83313  42.920  37.348   1.907
10900W        W83314  27.137  31.584  12.854
10901W        W83315  13.648  32.495  14.934
10902W        W83316  18.085  40.943  13.442
10903W        W83317   0.907   7.353  12.375
10904W        W83318  18.206  14.755   2.387
10905W        W83319  20.154  19.153  14.309
10906W        W83320  22.063   8.752  11.053
10907W        W83321  40.494  20.162   4.204
10908W        W83322  42.505  28.016   2.375
10909W        W83323  34.466   6.271   2.388
10910W        W83324  21.571  35.409  14.993
10911W        W83325   3.856  44.498   1.375
10912W        W83326   7.178  17.108  13.797
10913W        W83327  25.135   4.781   4.253
10914W        W83328  28.017  13.196   3.808
10915W        W83329  39.534  10.370  14.865
10916W        W83330   1.262  18.077  14.781
10917W        W83331  26.135  26.954  11.867
10918W        W83332  28.667  31.437  14.841
10919W        W83333  17.304  40.434   1.768
10920W        W83334   8.857  25.213   4.774
10921W        W83335  20.118  10.319  14.490
10922W        W83336  16.078  37.900  14.971
10923W        W83337  35.874  41.437  14.319
10924W        W83338  30.592  42.511   1.700
10925W        W83339  39.060  42.977  12.094
10926W        W83340  41.404  16.130   1.315
10927W        W83341  27.588   9.268  13.039
10928W        W83342   6.897   7.792   2.214
10929W        W83343  19.597  14.329   4.308
10930W        W83344  21.743  17.285   3.184
10931W        W83345  29.520  14.707   3.196
10932W        W83346   2.432   5.825  13.984
10933W        W83347   0.933  40.455   0.803
10934W        W83348   2.870   4.390   3.647
10935W        W83349  12.349  28.965   0.469
10936W        W83350  42.489  27.546   2.335
10937W        W83351  27.585   3.946  11.905
10938W        W83352   2.835  29.546  13.428
10939W        W83353  25.977  13.122  11.493
10940W        W83354  32.898  13.259  14.284
10941W        W83355  26.604   3.827  11.520
10942W        W83356  43.847   8.868   1.706
10943W        W83357  29.103  24.480   4.242
10944W        W83358  28.157  27.526   4.340
10945W        W83359  30.607   7.404   3.802
10946W        W83360  28.953  40.479  14.330
10947W        W83361  36.557   9.808   3.278
10948W        W83362  41.958  11.794  11.930
10949W        W83363  24.167  23.192   2.892
10950W        W83364  21.181  41.820   0.471
10951W        W83365  40.391  31.900  10.996
10952W        W83366  16.133  12.132   1.916
10953W        W83367  36.083  37.402  14.775
10954W        W83368  13.257  20.035  12.524
10955W        W83369   0.442   8.876  14.387
10956W        W83370  25.665  18.785   0.743
10957W        W83371   5.784  27.539  11.445
10958W        W83372  18.123  28.989  10.999
10959W        W83373  22.666  25.176  12.856
10960W        W83374   0.783  24.031   0.377
10961W        W83375  15.610  44.405  14.423
10962W        W83376  34.017  15.242   0.403
10963W        W83377   9.372   0.764  10.472
10964W        W83378  23.023  16.744   4.324
10965W        W83379  38.373  43.417   3.382
10966W        W83380  34.526  37.039  14.502
10967W        W83381  31.447  22.251  10.607
10968W        W83382  22.034  14.134  11.065
10969W        W83383  15.752  25.585  10.999
10970W        W83384  31.616  44.933  13.371
10971W        W83385  39.865  34.883  10.608
10972W        W83386  38.500  44.471  14.936
10973W        W83387   0.295  33.600  10.608
10974W        W83388  28.148   2.230   1.403
10975W        W83389  17.206   2.849   2.732
10976W        W83390  10.264  28.482  10.644
10977W        W83391  25.509  40.360   0.856
10978W        W83392   1.757  41.370   1.269
10979W        W83393  14.180   0.267   3.318
10980W        W83394  23.504  16.790  10.510
10981W        W83395  17.299  33.064   3.256
10982W        W83396   0.331  28.149  14.450
10983W        W83397  41.493  35.081  14.330
10984W        W83398   8.797  21.724  14.441
10985W        W83399   8.399   4.889   1.722
10986W        W83400   0.346  42.000   4.208
10987W        W83401  40.800   7.175  13.443
10988W        W83402   8.226  26.650  14.499
10989W        W83403   3.433  43.503   5.099
10990W        W83404   1.966  43.352   3.674
10991W        W83405  36.888  42.008   2.757
10992W        W83406  11.709  38.417   3.674
10993W        W83407   2.796  23.599  13.870
10994W        W83408   3.804  35.975  14.968
10995W        W83409  44.406  28.529  10.469
10996W        W83410  26.131  36.040  12.913
10997W        W83411  25.599  30.591   2.321
10998W        W83412  24.008  23.629  13.977
10999W        W83413  29.128  37.393   1.297
11000W        W83414  29.945  19.625   2.695
11001W        W83415  17.702   5.919   1.881
11002W        W83416  19.164  10.254   1.369
11003W        W83417  33.033   1.920   2.321
11004W        W83418  12.255  23.192  13.894
11005W        W83419  29.980  15.238  13.936
11006W        W83420  33.992  29.946   0.459
11007W        W83421  22.229  34.000  14.961
11008W        W83422   2.907   5.266  14.900
11009W        W83423  29.013  42.812  14.909
11010W        W83424  39.051  21.149  11.611
11011W        W83425  39.536  23.566  11.986
11012W        W83426  31.413  13.787   1.933
11013W        W83427  32.508  12.340  13.491
11014W        W83428  25.541  19.562  14.290
11015W        W83429  41.912  44.474   1.247
11016W        W83430  23.578  22.067  14.895
11017W        W83431  19.203  38.935   1.736
11018W        W83432  41.329  37.848  14.948
11019W        W83433  12.360  21.210  11.586
11020W        W83434   5.882   5.213  10.992
11021W        W83435  10.658  42.025  12.496
11022W        W83436  33.476  20.710  10.977
11023W        W83437  22.610  31.024  12.024
11024W        W83438   2.842  20.040  10.951
11025W        W83439   7.667  27.637  14.442
11026W        W83440  16.794   8.212   2.322
11027W        W83441   6.810  43.778  13.337
11028W        W83442  15.621  29.606  10.542
11029W        W83443   6.370  40.859   3.347
11030W        W83444   3.845  42.990  11.571
11031W        W83445  28.050   2.276  14.403
11032W        W83446  26.049  25.983   4.321
11033W        W83447  25.212  44.887   0.861
11034W        W83448  17.581  26.193   3.355
11035W        W83449  14.202  33.501  11.047
11036W        W83450  29.155  20.244   3.244
11037W        W83451  13.779  44.437  13.863
11038W        W83452   6.314   3.225   1.774
11039W        W83453  27.476  34.988  14.467
11040W        W83454  29.928   6.852  12.027
11041W        W83455  16.137  31.152  11.910
11042W        W83456   8.365  16.309   4.826
11043W        W83457  17.692  39.822  13.411
11044W        W83458  29.041   4.388  10.603
11045W        W83459  39.366  17.178  12.890
11046W        W83460   2.351  31.026  11.499
11047W        W83461   4.805   5.886  14.317
11048W        W83462  35.021  23.133  14.797
11049W        W83463  38.475  23.124  11.432
11050W        W83464  20.546  33.528  13.502
11051W        W83465   2.432   7.212  10.603
11052W        W83466  43.416  37.550  11.112
11053W        W83467   5.346  26.703   0.822
11054W        W83468   1.821  43.884   1.702
11055W        W83469  24.654  30.133   1.340
11056W        W83470  34.990  13.127   4.350
11057W        W83471  38.426  12.822  10.983
11058W        W83472  29.632  37.986  13.833
11059W        W83473  27.035  27.159   4.266
11060W        W83474  44.309  31.966  12.831
11061W        W83475  42.991  31.135  11.085
11062W        W83476  29.026  18.157   2.389
11063W        W83477  11.309   8.339  11.483
11064W        W83478  29.507   4.315   4.248
11065W        W83479   5.888  27.096  13.803
11066W        W83480  19.167  42.864  10.542
11067W        W83481  17.124  28.435  13.877
11068W        W83482  18.711  29.427   4.191
11069W        W83483  33.006  14.672  12.088
11070W        W83484  31.513  27.038   1.340
11071W        W83485  26.674  25.681   1.425
11072W        W83486   9.390  27.638  12.347
11073W        W83487  34.507  13.636  10.480
11074W        W83488  41.330  13.771   1.881
11075W        W83489  12.299  17.122   2.793
11076W        W83490  10.693   9.262  10.632
11077W        W83491   9.655  24.133   0.483
11078W        W83492  41.026  26.670  13.869
11079W        W83493  40.971  10.140  14.812
11080W        W83494   4.839   4.239  11.455
11081W        W83495  32.979   2.292  13.327
11082W        W83496  40.811  33.889   0.396
11083W        W83497   0.757  10.754  13.886
11084W        W83498  12.342  32.986   4.153
11085W        W83499  21.601  26.039   3.172
11086W        W83500   4.710  28.626   0.310
11087W        W83501  44.488  37.987  11.077
11088W        W83502   9.214  42.998  11.948
11089W        W83503  23.006  43.298  11.879
11090W        W83504  29.627  18.059  11.068
11091W        W83505  35.948  26.184   3.848
11092W        W83506   6.344  13.823   3.184
11093W        W83507  16.168  38.832   4.621
11094W        W83508   6.803  30.040   2.417
11095W        W83509  35.013  41.396   2.207
11096W        W83510  32.138  19.054  11.035
11097W        W83511  44.754  14.230   1.251
11098W        W83512  16.678  26.027   2.729
11099W        W83513  28.635  10.769   4.116
11100W        W83514  22.226  36.480   2.237
11101W        W83515  43.320  14.163   3.192
11102W        W83516  16.079  42.431   1.882
11103W        W83517   6.415  37.958   1.756
11104W        W83518  23.226   1.306  11.025
11105W        W83519  30.583   7.787  13.969
11106W        W83520  14.661   9.278   0.883
11107W        W83521  20.677  25.186   0.908
11108W        W83522   1.925  26.518  10.055
11109W        W83523  18.116  30.968  10.454
11110W        W83524  28.465  36.854   0.819
11111W        W83525  32.482  42.465  13.842
11112W        W83526  28.661  29.034   3.659
11113W        W83527  17.594  35.460  11.457
11114W        W83528  13.628  14.699   4.688
11115W        W83529  38.452  41.790  11.540
11116W        W83530  23.627  12.324  10.587
11117W        W83531  30.094  24.192   4.638
11118W        W83532  41.862  25.149   1.865
11119W        W83533  39.064  28.541  11.602
11120W        W83534  12.221  38.523  12.041
11121W        W83535   7.772  13.685   0.816
11122W        W83536  33.975   1.823  11.018
11123W        W83537   6.246  11.155   0.347
11124W        W83538  20.599  39.946  14.399
11125W        W83539  24.579  11.213   3.230
11126W        W83540  37.041  33.438  11.447
11127W        W83541  43.307  36.509   4.221
11128W        W83542  32.411   5.731  12.439
11129W        W83543  11.629  27.460  11.450
11130W        W83544  19.578   3.838   2.371
11131W        W83545  23.730  38.906  14.482
11132W        W83546  30.152  23.604  12.422
11133W        W83547  35.048   4.732  12.899
11134W        W83548  31.064  16.716   2.241
11135W        W83549   1.348   7.351  11.537
11136W        W83550   8.381  22.079   2.215
11137W        W83551  41.852  15.743   3.696
11138W        W83552   1.732   5.918   3.765
11139W        W83553   0.359   1.450  11.858
11140W        W83554  10.345  41.994  13.977
11141W        W83555   0.768  12.248  13.045
11142W        W83556  17.152  12.751   2.715
11143W        W83557  38.552  34.512  13.387
11144W        W83558  13.670  29.481  13.800
11145W        W83559  23.217  41.538  12.083
11146W        W83560  27.597  25.583  10.594
11147W        W83561  13.730  36.958   3.317
11148W        W83562  27.111   5.780  13.993
11149W        W83563  43.465  42.817   0.408
11150W        W83564  24.558  32.948  11.990
11151W        W83565  37.396  11.798   0.909
11152W        W83566  31.047  12.358  14.493
11153W        W83567  32.946  17.108   1.442
11154W        W83568  35.972  26.517   3.784
11155W        W83569   0.271  26.587  12.095
11156W        W83570   0.892  42.341  10.536
11157W        W83571   9.218  14.590  13.822
11158W        W83572  38.993  39.900  13.435
11159W        W83573  44.455  25.587   4.303
11160W        W83574   3.274   3.440  12.957
11161W        W83575   6.891  19.197   4.205
11162W        W83576  32.094  10.716   1.216
11163W        W83577  20.129  15.182  10.556
11164W        W83578  19.093  26.171  12.097
11165W        W83579   1.298  29.098  11.956
11166W        W83580  30.554  10.155  11.904
11167W        W83581  28.129  34.612   0.352
11168W        W83582   3.826  27.978  14.769
11169W        W83583  21.143  29.079   3.369
11170W        W83584  21.526  33.605  13.926
11171W        W83585  11.284  38.913  11.051
11172W        W83586  26.120  32.578   3.166
11173W        W83587  42.824  12.830  10.974
11174W        W83588  37.460  43.362  14.988
11175W        W83589   4.761   4.215  12.919
11176W        W83590  24.054  31.970   2.304
11177W        W83591  38.484   2.460  11.584
11178W        W83592  38.555  28.157   0.251
11179W        W83593  17.603  19.107  11.065
11180W        W83594  38.050  23.543  14.858
11181W        W83595  37.845   3.268  10.503
11182W        W83596   6.271   3.950  11.527
11183W        W83597  10.853  18.169   0.361
11184W        W83598  35.415  42.281  13.396
11185W        W83599  12.644  14.270   2.337
11186W        W83600   9.862  31.043   4.691
11187W        W83601  32.127  12.124   4.732
11188W        W83602  25.535  42.377   4.303
11189W        W83603  38.849  18.765   1.747
11190W        W83604   4.704   8.311  12.344
11191W        W83605  40.039  13.190  10.911
11192W        W83606  34.086  43.982  14.991
11193W        W83607   5.235  33.452   1.892
11194W        W83608  24.716  12.341   3.386
11195W        W83609  18.709  33.440  10.157
11196W        W83610  11.213  34.937   0.399
11197W        W83611   7.779  32.074   4.717
11198W        W83612   0.494  21.651   4.649
11199W        W83613  22.638  14.280  13.354
11200W        W83614   6.831  16.677   4.621
11201W        W83615  25.089  19.204  13.906
11202W        W83616  42.507  32.081   1.743
11203W        W83617  27.117  40.803   3.793
11204W        W83618  10.838   4.292  11.037
11205W        W83619  26.509  29.581  14.487
11206W        W83620  17.277  10.299   1.305
11207W        W83621  29.446  35.051  14.934
11208W        W83622  33.023  36.035  13.508
11209W        W83623  33.959  13.229   0.434
11210W        W83624  11.346  20.628  11.478
11211W        W83625  43.934  13.164   3.752
11212W        W83626  32.958   9.793   4.632
11213W        W83627  38.045  29.559  12.999
11214W        W83628  27.681  13.645   3.850
11215W        W83629  24.125  39.817   2.362
11216W        W83630  19.183  31.613   4.132
11217W        W83631  27.049   5.268   4.155
11218W        W83632  24.193  25.655  11.943
11219W        W83633  14.833  34.909  10.510
11220W        W83634  40.382  44.339  11.964
11221W        W83635  32.616  32.515   3.789
11222W        W83636  37.347  13.740  12.537
11223W        W83637  30.971  23.725   1.721
11224W        W83638   9.360   2.288  13.334
11225W        W83639  32.501  14.257   4.614
11226W        W83640  25.974  16.806  13.533
11227W        W83641  40.325  41.010  13.854
11228W        W83642  16.169  21.095   2.356
11229W        W83643   8.242  22.236   3.211
11230W        W83644  39.002  23.990  14.812
11231W        W83645  14.238   4.785   0.801
11232W        W83646  11.865  18.759   2.358
11233W        W83647  34.078  44.334   2.668
11234W        W83648  21.728   7.818   2.897
11235W        W83649   1.473  35.013   1.705
11236W        W83650   2.299  39.039   4.642
11237W        W83651  43.007  16.686   1.920
11238W        W83652  43.454  41.506   0.480
11239W        W83653  14.699  37.975   4.768
11240W        W83654  16.254  15.128  13.395
11241W        W83655  42.840   2.864  11.527
11242W        W83656  17.071  29.160   0.478
11243W        W83657  22.737  42.895   0.787
11244W        W83658  37.401  31.132   3.309
11245W        W83659  40.896  15.309  13.516
11246W        W83660  39.019  36.426   2.809
11247W        W83661  39.416  11.803  11.948
11248W        W83662   4.300  21.579   1.380
11249W        W83663  19.563  29.976   3.785
11250W        W83664  36.928  19.076   1.303
11251W        W83665  18.759  29.151   4.633
11252W        W83666  28.985  40.998   4.156
11253W        W83667  24.029  35.088  13.318
11254W        W83668  29.159   5.891   2.850
11255W        W83669  24.665   3.918   1.338
11256W        W83670  14.613  29.499   5.299
11257W        W83671   2.877  22.092   0.933
11258W        W83672  10.633  38.544   0.398
11259W        W83673   2.815  25.035  13.930
11260W        W83674  34.467  37.960  11.871
11261W        W83675  32.485  10.305  14.484
11262W        W83676  23.068  17.179  10.009
11263W        W83677   2.302  15.116  13.396
11264W        W83678  15.091  11.710   0.857
11265W        W83679  38.973  20.046   1.247
11266W        W83680  28.026  21.124   0.395
11267W        W83681  32.626  25.119  11.464
11268W        W83682  21.668  15.645  13.904
11269W        W83683  22.046  14.720  13.504
11270W        W83684  34.433  42.032  11.436
11271W        W83685   4.926  36.365   4.259
11272W        W83686   9.768  14.831   3.698
11273W        W83687  44.771  34.866  14.970
11274W        W83688  21.571  38.540  14.313
11275W        W83689   9.729  27.070  14.418
11276W        W83690  33.883   0.436  14.982
11277W        W83691   0.284  31.434  11.922
11278W        W83692  22.211  19.726   2.181
11279W        W83693  16.790  41.300   4.723
11280W        W83694  42.427  38.412   1.714
11281W        W83695  39.932  24.980  14.350
11282W        W83696  12.124  39.539  11.955
11283W        W83697  28.147  12.123  13.820
11284W        W83698   6.810  38.846  12.038
11285W        W83699  22.138  16.149  13.053
11286W        W83700  34.119  43.468  12.039
11287W        W83701  26.172   4.759  11.530
11288W        W83702  26.197  41.987  10.471
11289W        W83703  23.494  19.773   2.715
11290W        W83704  31.455  34.560  11.097
11291W        W83705   0.296  27.631  13.372
11292W        W83706  41.042  20.752  13.868
11293W        W83707  10.370  10.759   4.207
11294W        W83708   1.470  27.960   1.348
11295W        W83709  22.671  43.794  12.476
11296W        W83710  34.031  42.326   4.693
11297W        W83711  24.204   5.724  10.446
11298W        W83712  10.688  30.909   0.832
11299W        W83713  13.328  14.262  12.088
11300W        W83714  37.478  12.691   4.603
11301W        W83715   6.823   6.210   0.299
11302W        W83716  40.543  19.588   0.459
11303W        W83717  44.008  30.658   2.266
11304W        W83718  18.757  12.142   0.736
11305W        W83719  30.564  20.722   2.395
11306W        W83720  39.513  41.891   0.353
11307W        W83721  20.161  10.256   0.732
11308W        W83722  33.515  28.950   1.862
11309W        W83723  37.340   9.661   3.729
11310W        W83724   1.474  16.624  12.997
11311W        W83725  36.076  43.357   2.872
11312W        W83726  21.602   1.780   3.153
11313W        W83727   7.180  25.029   4.161
11314W        W83728  27.678   0.795   1.225
11315W        W83729  11.797  27.167   4.677
11316W        W83730  34.374  11.332   0.386
11317W        W83731  37.836   0.845  13.500
11318W        W83732  41.502  22.687  14.842
11319W        W83733  12.292  29.475   3.697
11320W        W83734   4.727  32.396   3.166
11321W        W83735  20.691  16.300   4.288
11322W        W83736   1.741  13.644  14.938
11323W        W83737  28.097  41.344  13.514
11324W        W83738  28.672   5.428  12.518
11325W        W83739  42.413  18.262  10.616
11326W        W83740  21.232   5.341  12.397
11327W        W83741  31.917  27.466  10.486
11328W        W83742   2.839  33.915   1.346
11329W        W83743   3.328  38.518  12.562
11330W        W83744  35.454  22.736  10.970
11331W        W83745  29.042   8.178   1.774
11332W        W83746   8.385  43.377  12.373
11333W        W83747   0.329  29.526   1.759
11334W        W83748  31.076  40.441   2.681
11335W        W83749  29.521   1.907  14.293
11336W        W83750  18.272  28.519  13.913
11337W        W83751  14.205  37.893  11.551
11338W        W83752  10.367  38.482   1.891
11339W        W83753  12.332   9.276  11.606
11340W        W83754  22.509  12.239   2.806
11341W        W83755  40.032  28.013  11.607
11342W        W83756  19.116  14.760  14.345
11343W        W83757  32.101  13.113  11.403
11344W        W83758  19.648  40.322  10.474
11345W        W83759  14.713  32.545  13.462
11346W        W83760  25.654  29.576   0.740
11347W        W83761   3.272  30.971   0.818
11348W        W83762  17.267   0.784  13.427
11349W        W83763  28.087  28.610   3.835
11350W        W83764  26.065  24.213  14.016
11351W        W83765  41.007  40.450   3.266
11352W        W83766  32.101  18.094   3.202
11353W        W83767  37.397  26.076   4.204
11354W        W83768   5.710  19.629   1.932
11355W        W83769   0.844  35.997  11.926
11356W        W83770   6.416  25.086   2.805
11357W        W83771  40.328  21.636   1.284
11358W        W83772  26.050   0.473  12.057
11359W        W83773  10.284   5.711   2.679
11360W        W83774  44.866  18.178  13.858
11361W        W83775  42.468   4.291   2.339
11362W        W83776  39.455  16.689   2.383
11363W        W83777  35.001   9.270   4.782
11364W        W83778  20.562   1.474  12.543
11365W        W83779  18.268  44.949  10.437
11366W        W83780  42.024  18.726   2.797
11367W        W83781  41.927  18.739   3.825
11368W        W83782  10.171  14.725  13.318
11369W        W83783   6.828  22.521   4.834
11370W        W83784  27.595  16.679  12.359
11371W        W83785  19.099  16.637   1.308
11372W        W83786  29.670  15.621   1.410
11373W        W83787   2.234  26.126   4.776
11374W        W83788   3.760  22.608   4.197
11375W        W83789  35.069   0.372   4.295
11376W        W83790  38.923  43.884   1.253
11377W        W83791  26.560  32.015   4.219
11378W        W83792  38.501  43.331   4.195
11379W        W83793   8.353  17.798   0.375
11380W        W83794  41.802  25.186   3.302
11381W        W83795  18.112  33.580   2.274
11382W        W83796  42.951  40.404  11.573
11383W        W83797  43.810   8.212   0.418
11384W        W83798  19.629   6.826   3.249
11385W        W83799  43.996  25.710  14.904
11386W        W83800  37.392  42.011   4.709
11387W        W83801  25.171  44.792   3.787
11388W        W83802   1.347  40.358   0.814
11389W        W83803  27.546  39.429   3.813
11390W        W83804  12.127  29.071  12.364
11391W        W83805  42.483  29.121  11.887
11392W        W83806   6.188  44.483   0.424
11393W        W83807  33.626  11.855   2.700
11394W        W83808   4.257  26.658   1.287
11395W        W83809  38.060  18.619  13.370
11396W        W83810  37.072  38.448   3.226
11397W        W83811  30.556   0.255   2.218
11398W        W83812  24.646  42.032   2.865
11399W        W83813   1.277   2.891  11.439
11400W        W83814  22.623  22.195  11.409
11401W        W83815   6.735  34.950  13.843
11402W        W83816   2.822   9.285  10.912
11403W        W83817  28.180  10.758   1.780
11404W        W83818  34.548  31.008  14.766
11405W        W83819   8.351  30.944   1.734
11406W        W83820  15.278  27.968  11.612
11407W        W83821   5.864  14.305   5.088
11408W        W83822  21.114  39.495   0.765
11409W        W83823  33.894   3.351  11.087
11410W        W83824   1.875  44.350  11.518
11411W        W83825  13.710  43.909   3.277
11412W        W83826   2.310  32.961   0.906
11413W        W83827  19.141  14.275  11.424
11414W        W83828  30.078   4.225  13.037
11415W        W83829  14.679   1.926  11.461
11416W        W83830  11.758  32.932   3.320
11417W        W83831  20.614  21.242  14.826
11418W        W83832  43.395  22.654  10.511
11419W        W83833  39.371  15.227  13.418
11420W        W83834  24.548  44.760  13.367
11421W        W83835  34.937  22.522  11.122
11422W        W83836   6.297  35.525  13.949
11423W        W83837  42.397  41.967   1.797
11424W        W83838  35.452  42.393  11.965
11425W        W83839  19.039  21.544   2.359
11426W        W83840  33.500  34.385   1.449
11427W        W83841  29.535  14.321   1.230
11428W        W83842   7.238  32.940  14.989
11429W        W83843  29.967   5.860   2.196
11430W        W83844   6.409  27.045   4.757
11431W        W83845  27.453  36.474  12.851
11432W        W83846  20.733  43.380   2.798
11433W        W83847  36.876   6.869  13.536
11434W        W83848  17.102  24.066   1.233
11435W        W83849  24.712  32.495  14.461
11436W        W83850  28.075  39.858  13.996
11437W        W83851  24.526   3.884  11.055
11438W        W83852  32.405   7.393  14.275
11439W        W83853  35.033  35.004  11.379
11440W        W83854  19.562  28.169   3.170
11441W        W83855  43.327  19.054  10.472
11442W        W83856  33.542  26.077  11.388
11443W        W83857  31.027   7.189   0.374
11444W        W83858   8.808   4.845  13.972
11445W        W83859  27.092   6.338  11.040
11446W        W83860  36.471  44.457  12.493
11447W        W83861  31.984  35.379   0.455
11448W        W83862  27.132  42.899  14.510
11449W        W83863  24.105  21.626   1.449
11450W        W83864  23.654  41.339   0.816
11451W        W83865  37.466  31.583   2.783
11452W        W83866  37.023  12.122  13.486
11453W        W83867  14.760  37.986   3.735
11454W        W83868  31.136  14.297  10.416
11455W        W83869  14.282  14.110   0.756
11456W        W83870  35.104  19.244   0.762
11457W        W83871  17.582  14.277  12.521
11458W        W83872  25.710  35.053   0.316
11459W        W83873  29.146  11.765  14.408
11460W        W83874  14.773  41.997  12.407
11461W        W83875   7.211  25.533  12.962
11462W        W83876  11.244  10.153  10.419
11463W        W83877  20.569  41.527  11.022
11464W        W83878  27.987   7.412  13.829
11465W        W83879  34.977  15.598   5.146
11466W        W83880  27.449  23.188   4.685
11467W        W83881  30.963  42.478   1.896
11468W        W83882   5.297   8.402  13.525
11469W        W83883   5.782   6.922  12.900
11470W        W83884  13.271  25.484  13.532
11471W        W83885  41.807  16.806   0.884
11472W        W83886  26.974  10.853   1.255
11473W        W83887   8.706  28.468  11.084
11474W        W83888  17.184  38.533  10.621
11475W        W83889  35.947  26.535   2.393
11476W        W83890  11.167  30.552   0.465
11477W        W83891  19.221  33.569   4.776
11478W        W83892  21.035  39.866  11.607
11479W        W83893  16.716  37.998  13.008
11480W        W83894  43.772  24.663  14.280
11481W        W83895  38.041  22.647   3.275
11482W        W83896  28.127   0.898   0.445
11483W        W83897  18.629  30.636  14.911
11484W        W83898   3.863  40.500   2.846
11485W        W83899  29.513  18.074   4.784
11486W        W83900  16.623  43.889  13.462
11487W        W83901  28.489  24.652   2.701
11488W        W83902  11.767   8.772   9.929
11489W        W83903   8.181  15.666   1.788
11490W        W83904  25.041   8.866   0.877
11491W        W83905   0.297  38.483   3.690
11492W        W83906   5.804  31.442   1.753
11493W        W83907  39.853  27.040  10.618
11494W        W83908  19.207   3.747   0.863
11495W        W83909  15.159  10.775   0.415
11496W        W83910  23.561  28.436  10.439
11497W        W83911   1.851  17.278   5.312
11498W        W83912   4.915  34.894   3.163
11499W        W83913  37.036  14.658   3.695
11500W        W83914  29.117   1.790  14.984
11501W        W83915  35.488  12.737   4.307
11502W        W83916  34.604  15.687  12.947
11503W        W83917  11.843   3.356   0.933
11504W        W83918   4.296  14.720  11.426
11505W        W83919  34.582   9.771  10.434
11506W        W83920  20.543  43.365  10.157
11507W        W83921  34.474  17.672  13.351
11508W        W83922  20.726   0.961  13.307
11509W        W83923  31.960  12.211   2.274
11510W        W83924  24.525  19.173   0.848
11511W        W83925  26.110  33.522  11.539
11512W        W83926  37.048  13.696  13.814
11513W        W83927  20.123  31.451   0.867
11514W        W83928   1.841  40.824   4.705
11515W        W83929  19.256  32.902   2.227
11516W        W83930   0.281   1.933  11.575
11517W        W83931  14.208  39.495   2.903
11518W        W83932  40.386  31.909  11.448
11519W        W83933   7.329  39.031   1.708
11520W        W83934   2.404   8.248  12.911
11521W        W83935   4.810  15.788   5.215
11522W        W83936  14.269  40.409   4.338
11523W        W83937  11.308   8.657  11.958
11524W        W83938  30.642  26.474  10.600
11525W        W83939  18.286   2.918  13.879
11526W        W83940   1.871  21.559  14.307
11527W        W83941  31.907  27.450  12.901
11528W        W83942  35.010  44.295   4.134
11529W        W83943  30.957  44.374  13.404
11530W        W83944  30.152  24.207  12.035
11531W        W83945   6.377  27.508  12.388
11532W        W83946   0.286   4.347  12.403
11533W        W83947  19.548  42.520  11.015
11534W        W83948   5.825  31.151   0.809
11535W        W83949  39.873  41.013   1.834
11536W        W83950  19.741  26.481  13.423
11537W        W83951   4.435  22.690  13.812
11538W        W83952  23.207  42.878   3.231
11539W        W83953  37.394  29.988  14.381
11540W        W83954  31.524   0.492   2.847
11541W        W83955  39.936  25.076   1.849
11542W        W83956   2.404  14.741  14.336
11543W        W83957   1.359   7.191   4.309
11544W        W83958  26.508  10.181   0.833
11545W        W83959  36.059  31.092  14.472
11546W        W83960  15.747  28.566  12.524
11547W        W83961  26.052  41.527  11.889
11548W        W83962  29.170  29.450  10.532
11549W        W83963  30.654  43.339  13.523
11550W        W83964  22.596   7.726  11.007
11551W        W83965  23.562  27.562  11.052
11552W        W83966  16.096  21.601  13.840
11553W        W83967  26.613  26.117   1.302
11554W        W83968  35.043  23.138   0.449
11555W        W83969   7.708   5.240   1.878
11556W        W83970  15.680  26.541   3.654
11557W        W83971  24.169  13.157   1.804
11558W        W83972  10.639  40.865   3.761
11559W        W83973   4.258  41.426   1.896
11560W        W83974  32.956  35.373  12.942
11561W        W83975  11.748  13.259  11.530
11562W        W83976  41.401  19.639   4.657
11563W        W83977  19.055   3.385  14.931
11564W        W83978   0.936  21.218   5.172
11565W        W83979  21.573  28.628  14.319
11566W        W83980   0.428   4.798   2.725
11567W        W83981  33.999  13.781   0.356
11568W        W83982  41.924  41.310  11.096
11569W        W83983  27.539   4.299  13.875
11570W        W83984   6.209  44.373  12.422
11571W        W83985   9.166  28.479  14.364
11572W        W83986  23.599  32.438   0.806
11573W        W83987   9.866  16.284   0.863
11574W        W83988  28.977   6.766   3.172
11575W        W83989  20.534  33.899  11.597
11576W        W83990   8.313  17.709   1.392
11577W        W83991  43.385  11.209   4.761
11578W        W83992   5.425  39.053  13.477
11579W        W83993  28.137  41.531   4.255
11580W        W83994  31.055  27.136   4.811
11581W        W83995   2.436   9.204  13.987
11582W        W83996  19.264  25.619   4.250
11583W        W83997  43.809  33.884  14.823
11584W        W83998   7.829  22.227   2.786
11585W        W83999  40.829  41.421   3.677
11586W        W84000  15.314  42.819   3.157
11587W        W84001  35.964  24.167  10.959
11588W        W84002  29.606   8.300   0.889
11589W        W84003  15.130  11.318   2.683
11590W        W84004   1.396  44.883   3.237
11591W        W84005  31.442   8.799  14.846
11592W        W84006   1.975  15.088  11.404
11593W        W84007  17.139  42.402  11.457
11594W        W84008  41.484  33.122   2.749
11595W        W84009  17.597  12.332  12.398
11596W        W84010  37.975  11.650   4.266
11597W        W84011   5.256  14.658  14.779
11598W        W84012   8.161   9.743   1.224
11599W        W84013   5.710  26.125   5.213
11600W        W84014  39.863  29.063  13.314
11601W        W84015  15.738   8.828  11.084
11602W        W84016  31.550  37.074   1.855
11603W        W84017  25.988  34.509  10.429
11604W        W84018  33.902  44.929  11.549
11605W        W84019  28.150  37.837   1.916
11606W        W84020  37.076   3.814   4.834
11607W        W84021  32.468   3.859   1.321
11608W        W84022  10.832  42.310  13.468
11609W        W84023  11.670  36.404   1.888
11610W        W84024  44.776  34.605  14.922
11611W        W84025  33.963  15.103   0.744
11612W        W84026   2.239  41.479  10.094
11613W        W84027  15.317  40.463   2.766
11614W        W84028  23.195  44.299  12.881
11615W        W84029   3.875  12.335  13.420
11616W        W84030  37.429  39.844  10.522
11617W        W84031  42.015  19.649   0.773
11618W        W84032  23.183  31.036  14.316
11619W        W84033  32.983  17.752  11.084
11620W        W84034  31.573  19.780   4.739
11621W        W84035   6.723   9.328   4.189
11622W        W84036  28.671  29.066   1.709
11623W        W84037  20.541  38.894   0.878
11624W        W84038  44.874  10.319  11.100
11625W        W84039  32.405  34.043   1.932
11626W        W84040  13.118  22.638   1.239
11627W        W84041  26.107  21.094  14.967
11628W        W84042   6.276  15.279   3.311
11629W        W84043  31.425  33.532   4.713
11630W        W84044   3.363  41.404  11.405
11631W        W84045  31.601   1.482  13.041
11632W        W84046  16.259  43.461  11.565
11633W        W84047  27.565  28.446   1.268
11634W        W84048   4.226  29.090  13.483
11635W        W84049  43.433  24.611   2.241
11636W        W84050  41.934  14.606   2.321
11637W        W84051  15.280   0.918  13.886
11638W        W84052  38.050  33.115   0.814
11639W        W84053  35.096  16.251  13.026
11640W        W84054  13.761   6.313  10.066
11641W        W84055  20.172   2.280   4.187
11642W        W84056  16.112  39.997   3.720
11643W        W84057  41.917  24.696   3.761
11644W        W84058   8.766   6.222  11.911
11645W        W84059  35.538  42.861  12.364
11646W        W84060  29.580  16.579   4.220
11647W        W84061   1.739  33.977  13.850
11648W        W84062  13.642  37.050   1.930
11649W        W84063  26.488  14.107  13.470
11650W        W84064  26.194   2.468  10.919
11651W        W84065  18.166   8.167  12.899
11652W        W84066  12.659  10.226  10.899
11653W        W84067  21.063  24.197  12.905
11654W        W84068  23.123  30.148   2.758
11655W        W84069   0.255  34.566   2.682
11656W        W84070  21.528  29.119  10.496
11657W        W84071  35.551  35.361  13.336
11658W        W84072  25.215  29.541  14.318
11659W        W84073  15.280  10.250  12.959
11660W        W84074  43.972  26.028   3.186
11661W        W84075  13.741  36.454  14.910
11662W        W84076   3.801  20.562   3.329
11663W        W84077  30.971  28.138  14.488
11664W        W84078  29.092  32.575   3.385
11665W        W84079   2.297  18.165   4.766
11666W        W84080  16.580  44.268   2.803
11667W        W84081   5.352   2.809   0.958
11668W        W84082  34.532  17.567  14.821
11669W        W84083  27.054  41.029   1.731
11670W        W84084  39.444   8.885   3.173
11671W        W84085  35.102  38.483  14.491
11672W        W84086  40.331  13.821  14.890
11673W        W84087   0.379  41.385  11.067
11674W        W84088  30.489  33.389   1.713
11675W        W84089   0.812  25.544  12.460
11676W        W84090  28.053  20.526   2.882
11677W        W84091  36.936  18.122  14.420
11678W        W84092  40.812  25.077   3.245
11679W        W84093  43.847  27.020  12.376
11680W        W84094  20.640  29.600   2.372
11681W        W84095  41.447  34.509   1.398
11682W        W84096   8.330  21.731   3.179
11683W        W84097   8.311  18.589  14.988
11684W        W84098   8.887  34.548   0.353
11685W        W84099  35.592  28.673   2.853
11686W        W84100  44.320  39.861  12.061
11687W        W84101   6.878   6.188   3.672
11688W        W84102  23.156  12.156  12.487
11689W        W84103  18.726  38.042  13.979
11690W        W84104  24.485   9.676  11.919
11691W        W84105   3.943  44.274   3.711
11692W        W84106  15.083   7.745   0.740
11693W        W84107  34.089  25.644  11.073
11694W        W84108  19.731  23.180  11.946
11695W        W84109  42.441  25.992   0.924
11696W        W84110   7.394  41.993  10.574
11697W        W84111  27.554   2.863   2.243
11698W        W84112  22.249  43.957   2.376
11699W        W84113  12.852   6.253  13.000
11700W        W84114  30.143  14.641  14.346
11701W        W84115  20.630  14.766  14.027
11702W        W84116  43.506  12.661   0.741
11703W        W84117   6.226  24.228   0.405
11704W        W84118  12.848  18.270   2.690
11705W        W84119  19.660   4.322   3.166
11706W        W84120  17.757  40.501  11.411
11707W        W84121   4.752  12.171   3.713
11708W        W84122  31.046   8.292  14.025
11709W        W84123  25.041  10.176   3.819
11710W        W84124   9.341  39.347  14.454
11711W        W84125   6.837  36.096  13.004
11712W        W84126  18.076   3.263  14.792
11713W        W84127  23.190  36.057   3.332
11714W        W84128   4.904  17.193  14.777
11715W        W84129  21.210  33.581   1.437
11716W        W84130   4.305  21.718  13.879
11717W        W84131  22.137  28.957   3.631
11718W        W84132  30.020  13.803   2.731
11719W        W84133   5.280  20.184   3.275
11720W        W84134  32.066  37.900  10.901
11721W        W84135   0.875  26.096  14.287
11722W        W84136   2.445  42.521   1.275
11723W        W84137   2.853  27.156   0.784
11724W        W84138   7.238   5.835  10.416
11725W        W84139   5.221  41.908   3.686
11726W        W84140  39.362  28.004   0.809
11727W        W84141  23.542  11.155   1.726
11728W        W84142  28.503  33.515   3.196
11729W        W84143  17.798  31.964  11.032
11730W        W84144  43.812  21.699   3.753
11731W        W84145  33.876  12.282   4.114
11732W        W84146   0.491   7.250  14.409
11733W        W84147  39.018  12.149   2.755
11734W        W84148  35.925  13.155  12.066
11735W        W84149   9.645  25.708   3.754
11736W        W84150  40.485  10.250   5.234
11737W        W84151   2.787  28.953  14.937
11738W        W84152  17.296   9.784   4.739
11739W        W84153  13.178   9.805  11.457
11740W        W84154  18.573  38.968  14.980
11741W        W84155   8.675   3.217   3.697
11742W        W84156  25.148  33.607  14.829
11743W        W84157  30.157  11.649  11.446
11744W        W84158  15.768  39.435  13.845
11745W        W84159  34.590  31.407   2.308
11746W        W84160  22.664  24.725  10.480
11747W        W84161  35.375  15.698   4.289
11748W        W84162   7.798  40.384  12.061
11749W        W84163   7.265  34.497  13.351
11750W        W84164  37.479  20.761  13.884
11751W        W84165  42.343  31.961  13.528
11752W        W84166   6.854  36.037  12.373
11753W        W84167  20.124   0.887   2.701
11754W        W84168  31.513  16.103   2.325
11755W        W84169  17.602  41.337   1.831
11756W        W84170  22.025  23.650   1.742
11757W        W84171  23.151  39.038   4.686
11758W        W84172  29.947  35.400  12.449
11759W        W84173  35.433  42.475   4.700
11760W        W84174   8.858   9.712  10.448
11761W        W84175   8.391  35.892   1.404
11762W        W84176  24.077  20.176   2.827
11763W        W84177  37.565   8.399  13.433
11764W        W84178  21.747   1.372   4.750
11765W        W84179  41.890  18.261   5.151
11766W        W84180   6.397   9.293  12.062
11767W        W84181  33.535  30.458   4.130
11768W        W84182  41.373   0.432  12.906
11769W        W84183  20.171   4.853   1.439
11770W        W84184  28.512  40.984   0.385
11771W        W84185  32.993   6.263  11.579
11772W        W84186   6.909  39.878   4.218
11773W        W84187  29.166  22.640   0.334
11774W        W84188   7.368  14.207  11.413
11775W        W84189  16.638  19.285   5.676
11776W        W84190  14.700   2.266  10.613
11777W        W84191  35.955   0.901   0.790
11778W        W84192  11.755  13.833   4.809
11779W        W84193   6.693  27.003   1.896
11780W        W84194  22.745  27.014   1.782
11781W        W84195  14.664  11.837   1.438
11782W        W84196  31.924  41.875  12.957
11783W        W84197   7.698   2.748   4.200
11784W        W84198  26.008  41.992  12.885
11785W        W84199  42.791  18.653  11.582
11786W        W84200  21.535   8.269   0.728
11787W        W84201  30.617  21.217  12.903
11788W        W84202  20.064   6.312  11.381
11789W        W84203   5.766  35.447  12.521
11790W        W84204  12.634   6.750   3.632
11791W        W84205  17.153  32.616  11.992
11792W        W84206  40.371  23.087  14.784
11793W        W84207  14.608  39.027  14.412
11794W        W84208  40.421   9.232   2.288
11795W        W84209  32.534  22.174   4.201
11796W        W84210  43.851   8.786   3.307
11797W        W84211  13.237   9.878  14.447
11798W        W84212   5.279  40.032   9.957
11799W        W84213  12.266   1.270  10.535
11800W        W84214  19.101  38.877   4.192
11801W        W84215   0.912  29.103  12.403
11802W        W84216  16.130  16.799   3.814
11803W        W84217   9.242  25.983  11.896
11804W        W84218  17.692  36.570  13.042
11805W        W84219   9.705  43.332   0.806
11806W        W84220   1.387  35.889  11.481
11807W        W84221   1.887  28.503  13.420
11808W        W84222  16.711  28.016  14.892
11809W        W84223  37.041  15.171   2.741
11810W        W84224  27.591  18.199   2.182
11811W        W84225  35.559  42.884  10.940
11812W        W84226   0.929  25.637   1.256
11813W        W84227  23.578  21.670  12.076
11814W        W84228   6.415  37.433   0.432
11815W        W84229  37.380  39.828   3.185
11816W        W84230   2.823   0.963  13.504
11817W        W84231   1.277  33.908   0.454
11818W        W84232  28.510   7.390  14.779
11819W        W84233  18.667  34.520  11.552
11820W        W84234  32.003  44.972  13.328
11821W        W84235   7.881  18.079   3.348
11822W        W84236  38.890  23.503  13.516
11823W        W84237   1.436  23.561   0.371
11824W        W84238   5.268   0.929  14.809
11825W        W84239  20.641  43.952  10.132
11826W        W84240  10.848  23.661  11.509
11827W        W84241  26.017   1.327  14.419
11828W        W84242  43.766   8.743  12.007
11829W        W84243  33.609  23.010   2.673
11830W        W84244   6.380  32.057   5.225
11831W        W84245   9.732  22.642   2.303
11832W        W84246  13.645  21.129  12.485
11833W        W84247  38.516   6.912   1.229
11834W        W84248   9.343   8.666   4.606
11835W        W84249  16.694  35.887  13.929
11836W        W84250  23.724   4.795   3.804
11837W        W84251  27.561   8.754  13.806
11838W        W84252  27.016  39.910   1.788
11839W        W84253  30.541  28.944   2.680
11840W        W84254  21.023  38.032   3.169
11841W        W84255   8.761  26.174   0.368
11842W        W84256  11.726  40.812  13.516
11843W        W84257  25.573  38.409  10.642
11844W        W84258  20.581  18.240   1.804
11845W        W84259  16.746  38.464  13.825
11846W        W84260  28.009  40.374  10.900
11847W        W84261  36.936  38.940  13.455
11848W        W84262   3.883  17.227   4.216
11849W        W84263   1.798  17.198   2.722
11850W        W84264  22.195  23.535  12.036
11851W        W84265  23.722  34.590  14.451
11852W        W84266  36.905  44.329  13.993
11853W        W84267  43.274   2.308   3.669
11854W        W84268   7.778  14.773  13.499
11855W        W84269  43.916  42.371   0.356
11856W        W84270  11.739  37.841   3.267
11857W        W84271   2.812  28.166  11.404
11858W        W84272  41.859  28.651   0.345
11859W        W84273  30.486  40.799   2.313
11860W        W84274  44.788  15.627   2.307
11861W        W84275  24.100   4.392  11.484
11862W        W84276  17.698  35.920   2.344
11863W        W84277  24.706   7.748  11.907
11864W        W84278  10.757  10.816  11.064
11865W        W84279  17.682  26.956  12.039
11866W        W84280  24.490  17.573   3.310
11867W        W84281   1.352  32.948   3.149
11868W        W84282  40.926  36.474   1.279
11869W        W84283   8.253   1.436   3.649
11870W        W84284  11.636  42.470  14.830
11871W        W84285  18.251  44.421   2.414
11872W        W84286  42.308   4.884   0.282
11873W        W84287  24.686  32.462   3.833
11874W        W84288  10.860  22.088  12.053
11875W        W84289  21.145  14.672   0.308
11876W        W84290  12.226   2.959  10.542
11877W        W84291  12.843  11.703   0.438
11878W        W84292  43.996  31.996  13.860
11879W        W84293  34.533   6.243  14.496
11880W        W84294  24.700  40.377   0.929
11881W        W84295  36.041  38.501   2.786
11882W        W84296  35.940  19.095   3.304
11883W        W84297  37.062  42.832   2.843
11884W        W84298  18.547  15.769   0.768
11885W        W84299  36.057  21.021   3.171
11886W        W84300   5.419  44.470   0.368
11887W        W84301  20.765   9.769  12.062
11888W        W84302  10.190  20.043   3.155
11889W        W84303  13.239   0.924   3.839
11890W        W84304  19.611   1.310   1.723
11891W        W84305  12.228  10.835  13.987
11892W        W84306  26.644  44.399   2.374
11893W        W84307  43.867  39.869  14.495
11894W        W84308   2.308  14.157   1.762
11895W        W84309  21.685  22.669   0.347
11896W        W84310   9.188  36.559  10.626
11897W        W84311   2.848  41.914   2.266
11898W        W84312  31.499  37.542   3.247
11899W        W84313  40.492  22.065  12.017
11900W        W84314   0.274  12.321  13.391
11901W        W84315  20.582   3.877  10.561
11902W        W84316  12.222   0.425  11.964
11903W        W84317  19.077   9.792   4.657
11904W        W84318  42.416   7.382  11.080
11905W        W84319  13.252  24.159   3.791
11906W        W84320  14.100  21.748  12.504
11907W        W84321  37.981  16.250   3.836
11908W        W84322  27.948  44.954   0.821
11909W        W84323   4.448  21.177  14.795
11910W        W84324  22.695  32.934   3.293
11911W        W84325  40.919  44.777  13.902
11912W        W84326   0.850  36.001   1.244
11913W        W84327  42.423  22.011   2.852
11914W        W84328  27.095  24.990   1.702
11915W        W84329  24.066  22.652   3.326
11916W        W84330  22.516  42.978  10.496
11917W        W84331   6.901  29.146   2.672
11918W        W84332   2.894  27.186   0.326
11919W        W84333   3.389  15.299   4.683
11920W        W84334   4.354  32.474   1.733
11921W        W84335  40.488  30.949  14.430
11922W        W84336   1.743   9.329  14.276
11923W        W84337  29.513  43.457  11.402
11924W        W84338   5.722  33.617   4.713
11925W        W84339  26.024  21.163  10.621
11926W        W84340  44.448  29.151  12.041
11927W        W84341  32.056  44.417   1.394
11928W        W84342  29.434  17.114   3.169
11929W        W84343  35.055   6.375  10.092
11930W        W84344  34.959  39.932   0.461
11931W        W84345  40.045  41.014  13.495
11932W        W84346   4.766  34.466  12.506
11933W        W84347  44.408  17.610   2.263
11934W        W84348  18.564  15.146  10.538
11935W        W84349  32.948  14.709   4.214
11936W        W84350  20.069   1.240   0.793
11937W        W84351  19.223  42.302   1.708
11938W        W84352  26.109  37.044  12.030
11939W        W84353  18.784   7.331   5.107
11940W        W84354  39.821  34.608   0.354
11941W        W84355  37.364  34.993  11.922
11942W        W84356  41.448  14.693   3.765
11943W        W84357  38.926   7.343  11.374
11944W        W84358  33.005  26.492   3.177
11945W        W84359  35.024  38.348   3.813
11946W        W84360   0.783  21.745  12.018
11947W        W84361  21.261  19.242  10.899
11948W        W84362  25.993  11.248   1.261
11949W        W84363  42.946   2.324  10.583
11950W        W84364   1.756  37.062   3.807
11951W        W84365   9.375  26.661   1.901
11952W        W84366  19.687  40.529  14.006
11953W        W84367   6.828  28.013  11.381
11954W        W84368   3.267  15.729   2.358
11955W        W84369  15.212  31.988  12.047
11956W        W84370   3.821   1.237  13.435
11957W        W84371  25.180  41.993  10.568
11958W        W84372  23.998  30.605   3.702
11959W        W84373  19.247   0.261  13.319
11960W        W84374  39.549  30.592  10.582
11961W        W84375  28.111  15.780  10.431
11962W        W84376  14.283  31.479   4.345
11963W        W84377  11.685  42.387  13.009
11964W        W84378   7.255  33.954   0.835
11965W        W84379  29.549  22.065  14.852
11966W        W84380  25.470  20.535   1.373
11967W        W84381  23.532  40.983   0.445
11968W        W84382   9.308  30.141   3.359
11969W        W84383  29.444   3.436  13.016
11970W        W84384   3.358  16.273   4.806
11971W        W84385   8.164  22.040   0.775
11972W        W84386  37.836  42.876  11.971
11973W        W84387   4.300  18.152  12.896
11974W        W84388  27.449   0.490   3.713
11975W        W84389   7.832   0.932   3.176
11976W        W84390   0.976  27.039   2.306
11977W        W84391   7.205  36.007   0.435
11978W        W84392  18.648  34.471  14.786
11979W        W84393  12.626   9.201  12.921
11980W        W84394  16.642   5.932   2.719
11981W        W84395  28.072  28.179   3.778
11982W        W84396  11.649  10.715  11.102
11983W        W84397  21.217  29.043  10.913
11984W        W84398  23.175   9.278  14.440
11985W        W84399  21.727   9.660   0.744
11986W        W84400  37.461  39.377   1.747
11987W        W84401  40.443  39.430  12.579
11988W        W84402  44.776  12.850   2.903
11989W        W84403  26.099  38.848   1.227
11990W        W84404  39.011  34.455  11.607
11991W        W84405  31.934  31.049   3.353
11992W        W84406   4.293  38.989   3.226
11993W        W84407  17.162   6.717  13.480
11994W        W84408  15.186   5.271   0.965
11995W        W84409  30.148  29.007  12.400
11996W        W84410  38.409  41.957  14.337
11997W        W84411  28.616   6.777  14.316
11998W        W84412  12.344  33.539  11.039
11999W        W84413  32.439   3.302   4.782
12000W        W84414  11.346  15.293   2.796
12001W        W84415  34.993  23.680  12.975
12002W        W84416  13.779   4.360  11.029
12003W        W84417  38.892   6.761   4.806
12004W        W84418   1.316  19.638  11.388
12005W        W84419  15.189  36.053  13.889
12006W        W84420  10.677  35.418  11.978
12007W        W84421  40.307   5.372   1.722
12008W        W84422  18.727  10.841   3.296
12009W        W84423  43.485  15.153   3.696
12010W        W84424  33.478   2.245  14.778
12011W        W84425  25.467  40.933  12.497
12012W        W84426  37.357  14.815  12.877
12013W        W84427  18.746  10.781  14.964
12014W        W84428   9.797  21.263   1.398
12015W        W84429  14.782  28.159  11.587
12016W        W84430  14.235  12.627  12.874
12017W        W84431  43.420  37.363   3.644
12018W        W84432  36.388   6.901  12.481
12019W        W84433  12.817  38.860  10.467
12020W        W84434  33.974   3.258   4.664
12021W        W84435  21.077  11.796  11.507
12022W        W84436  19.186  20.728   1.736
12023W        W84437  23.088  21.651   4.637
12024W        W84438  21.696  30.582  14.960
12025W        W84439  40.970   7.377  13.959
12026W        W84440  21.109  43.490  14.395
12027W        W84441  20.596   4.393  11.450
12028W        W84442  27.981   8.219  13.829
12029W        W84443  21.723  18.790   3.711
12030W        W84444  41.525  41.464  10.552
12031W        W84445  26.593  28.489  10.475
12032W        W84446  11.659  21.586  13.475
12033W        W84447   6.290  44.789  10.997
12034W        W84448  39.945  20.612  10.971
12035W        W84449  21.032   0.454  14.418
12036W        W84450  33.121  18.544   1.829
12037W        W84451  19.167  15.733  12.993
12038W        W84452  18.137  17.572   3.205
12039W        W84453  11.697  36.845   3.174
12040W        W84454  33.403  26.984  13.916
12041W        W84455  26.052  16.627  11.408
12042W        W84456  31.551  29.482   1.415
12043W        W84457  43.496  10.826  14.016
12044W        W84458  32.617  42.344  12.532
12045W        W84459  25.512  12.227   1.296
12046W        W84460  35.894  24.213   0.354
12047W        W84461  18.715  21.251   2.774
12048W        W84462  24.522  36.470   1.834
12049W        W84463  21.083  32.566  13.852
12050W        W84464  21.210  34.572  12.982
12051W        W84465  30.146  42.884   4.266
12052W        W84466  43.409  27.518   3.697
12053W        W84467   0.957  42.454  13.798
12054W        W84468   1.372  19.573  12.826
12055W        W84469  18.057  32.561  12.965
12056W        W84470   9.286  19.276   0.953
12057W        W84471  27.502  42.902  11.095
12058W        W84472  37.383  16.279  10.548
12059W        W84473  27.077  33.598   3.167
12060W        W84474  23.734   5.852  12.965
12061W        W84475   8.273   3.863   3.686
12062W        W84476  22.540  42.908   0.347
12063W        W84477  12.158  28.143  13.819
12064W        W84478  43.348  33.491   4.339
12065W        W84479  38.539  17.121   0.846
12066W        W84480  22.514  22.125  12.942
12067W        W84481  31.061  43.900  13.356
12068W        W84482  33.442  18.125   2.299
12069W        W84483  33.994  11.674   2.334
12070W        W84484   0.923   8.706  11.601
12071W        W84485  20.059   7.781  11.101
12072W        W84486  16.303  11.140   0.834
12073W        W84487   7.673  15.700   1.728
12074W        W84488  43.305   0.916  11.923
12075W        W84489   5.800  38.053  14.871
12076W        W84490  13.114   2.259  14.909
12077W        W84491  40.806  34.577  13.372
12078W        W84492  14.819  19.156   3.765
12079W        W84493   0.414  10.751   4.249
12080W        W84494  17.202  23.517  13.376
12081W        W84495  39.541  16.072  13.441
12082W        W84496  38.859  14.328   1.266
12083W        W84497  29.456   5.931   1.827
12084W        W84498  37.950  26.511   5.122
12085W        W84499  41.972  31.464  14.284
12086W        W84500  25.679  12.768  10.892
12087W        W84501  18.079  33.396   2.776
12088W        W84502  20.523   5.840  14.968
12089W        W84503  10.207  13.745   2.220
12090W        W84504  13.186  26.458   2.883
12091W        W84505  14.720  17.598  10.951
12092W        W84506  28.544  16.081   0.957
12093W        W84507  17.677  30.646   1.313
12094W        W84508  25.130   1.891  12.029
12095W        W84509  27.019   3.898  12.091
12096W        W84510  29.941  17.576   1.921
12097W        W84511  12.314  23.727   1.764
12098W        W84512  13.755  44.838   3.297
12099W        W84513  42.355  14.167   4.305
12100W        W84514  32.131  24.126  13.398
12101W        W84515  17.245  20.576   0.451
12102W        W84516  14.324  20.543   1.808
12103W        W84517  40.500   5.917  14.978
12104W        W84518  13.243   6.425  10.035
12105W        W84519  28.008  22.646   3.756
12106W        W84520  31.648   7.678  14.381
12107W        W84521   8.356  18.164  12.891
12108W        W84522  40.441  25.212   4.228
12109W        W84523  29.122   1.792  14.512
12110W        W84524  22.133  21.136  12.990
12111W        W84525   7.773  15.661  14.810
12112W        W84526  26.031  26.645   2.404
12113W        W84527  28.009  43.455  12.441
12114W        W84528  34.417  31.430   2.781
12115W        W84529  20.179  34.962  13.340
12116W        W84530  11.335  11.224   3.342
12117W        W84531  40.956   3.327  11.604
12118W        W84532  37.068  21.070   4.122
12119W        W84533  16.198   4.754  11.101
12120W        W84534  34.468  26.164  13.455
12121W        W84535   8.338  19.647   0.261
12122W        W84536   7.394  19.169  13.352
12123W        W84537  17.776  42.849  12.534
12124W        W84538  37.487  26.499   2.317
12125W        W84539  11.244   1.944  12.506
12126W        W84540   0.275  26.548   0.368
12127W        W84541  36.918  36.056   0.914
12128W        W84542  26.142  43.798  13.365
12129W        W84543  34.570  43.379   0.744
12130W        W84544  26.615  31.949  11.401
12131W        W84545   4.759  24.103   1.721
12132W        W84546  11.831  14.273   1.429
12133W        W84547  35.015  19.657   1.441
12134W        W84548  44.473  11.261   4.135
12135W        W84549  12.644   4.239   4.629
12136W        W84550   5.727  21.556   0.956
12137W        W84551   4.418  10.244  13.793
12138W        W84552  21.021   0.893  14.933
12139W        W84553  14.197  41.004  14.285
12140W        W84554   8.317  43.828   3.720
12141W        W84555  35.367  36.013  12.959
12142W        W84556  42.783  36.524  13.872
12143W        W84557  43.806   3.279  11.107
12144W        W84558   4.706  18.660   0.732
12145W        W84559  10.812  28.552  14.788
12146W        W84560  39.906  33.444   4.731
12147W        W84561  35.564  40.807   0.402
12148W        W84562  11.695  32.118   5.190
12149W        W84563  14.292  26.086   1.883
12150W        W84564  44.465  23.654  10.012
12151W        W84565  33.046  33.612  13.015
12152W        W84566  21.259  39.845   1.434
12153W        W84567   5.256   5.879   4.733
12154W        W84568  33.040  41.010   3.664
12155W        W84569  31.998  39.349   0.805
12156W        W84570  14.612  43.443   0.276
12157W        W84571   6.334  18.184  10.453
12158W        W84572  24.050  37.446  11.122
12159W        W84573  16.238   9.683  12.442
12160W        W84574  27.577  36.499  13.509
12161W        W84575  25.529  20.566  11.551
12162W        W84576  15.141  44.950  14.850
12163W        W84577  18.216   0.783  11.948
12164W        W84578  42.334  26.488  13.384
12165W        W84579  28.472  22.150   3.800
12166W        W84580  26.042  24.508  13.366
12167W        W84581  12.279  23.131  11.045
12168W        W84582  27.039  14.615   3.850
12169W        W84583  37.063  30.157  14.492
12170W        W84584  21.187  34.963   0.877
12171W        W84585  44.918   5.250   3.176
12172W        W84586  15.205  31.408  11.406
12173W        W84587  19.117  27.160  11.002
12174W        W84588  44.994   9.224   4.631
12175W        W84589  37.370  17.240   0.417
12176W        W84590   1.893  41.346   3.231
12177W        W84591  15.644  23.532  14.792
12178W        W84592  15.734  44.313   0.310
12179W        W84593  25.532  19.625   5.252
12180W        W84594  20.204  42.409   1.210
12181W        W84595  25.193   9.244  12.516
12182W        W84596  30.089  10.746   1.299
12183W        W84597   0.282  11.373   2.868
12184W        W84598  25.514  15.227   3.765
12185W        W84599  18.721   6.301  13.380
12186W        W84600  38.993  10.158   3.383
12187W        W84601  19.210  40.436   4.223
12188W        W84602  11.327  24.026   3.801
12189W        W84603  11.775  37.407  14.277
12190W        W84604  34.396  19.581  13.864
12191W        W84605   7.279   0.417   1.815
12192W        W84606  34.904   5.432  10.523
12193W        W84607  12.617  30.081   3.328
12194W        W84608  22.564  29.497   1.345
12195W        W84609   6.339  35.967   0.304
12196W        W84610  16.152  31.624   4.839
12197W        W84611  31.054  39.836  12.024
12198W        W84612  16.722  16.749   4.812
12199W        W84613  14.611  23.653  14.939
12200W        W84614  18.260  26.697   2.351
12201W        W84615  14.106  38.824   3.729
12202W        W84616  34.880  39.510  11.052
12203W        W84617  33.583   0.382   5.117
12204W        W84618   3.883  30.111   2.663
12205W        W84619  16.288  38.064   4.811
12206W        W84620  32.116   9.747  12.554
12207W        W84621   8.840  28.652   4.669
12208W        W84622   3.931  39.384   2.216
12209W        W84623  23.063  35.469   1.213
12210W        W84624   9.341  31.019  10.420
12211W        W84625  18.614   1.302   4.156
12212W        W84626  20.590   1.895   2.717
12213W        W84627  37.413   1.425   3.832
12214W        W84628  15.096  36.887  10.483
12215W        W84629   9.324  38.922  13.346
12216W        W84630  14.151  36.920  12.931
12217W        W84631  42.833  34.394   0.386
12218W        W84632  39.423  23.004  13.887
12219W        W84633  44.452   7.289   4.721
12220W        W84634   9.286  40.857  12.415
12221W        W84635   8.837  13.187   2.338
12222W        W84636  20.095  12.231   2.795
12223W        W84637  24.109  12.362  13.323
12224W        W84638   1.842   5.426  13.458
12225W        W84639  40.039  21.750   1.270
12226W        W84640  19.570  30.639  11.932
12227W        W84641  30.078  26.680   4.822
12228W        W84642  30.950   7.385  14.963
12229W        W84643   2.245  15.168   4.330
12230W        W84644  38.936  24.973  10.478
12231W        W84645  11.640  25.009  14.283
12232W        W84646  17.558  15.085  11.439
12233W        W84647  28.027  37.043  10.957
12234W        W84648  11.131  44.290   3.684
12235W        W84649  30.964  34.432  14.784
12236W        W84650   5.725  42.844  11.019
12237W        W84651   6.878  30.452  10.599
12238W        W84652   7.869   1.954  14.370
12239W        W84653  11.675  27.947  11.914
12240W        W84654   2.838  39.839   1.447
12241W        W84655   9.759  13.187  13.863
12242W        W84656  15.291  10.371   1.351
12243W        W84657  33.114  18.674  13.489
12244W        W84658  31.106  40.940  13.818
12245W        W84659   9.686  20.081   4.619
12246W        W84660  32.121  27.056   1.282
12247W        W84661  35.993  28.654   1.402
12248W        W84662  17.742  37.028  14.814
12249W        W84663   4.939  10.720   3.275
12250W        W84664  23.002  14.114  14.833
12251W        W84665   5.721  35.603   0.736
12252W        W84666  38.515   3.249  14.387
12253W        W84667  10.814   4.704  10.139
12254W        W84668   5.867  32.134  11.928
12255W        W84669  11.628   8.198  14.413
12256W        W84670   6.345  11.201   4.743
12257W        W84671  27.171   6.880   3.155
12258W        W84672   7.318  41.337  11.982
12259W        W84673  24.151  11.621   5.285
12260W        W84674   0.846  36.399  14.824
12261W        W84675  14.704   8.201  12.039
12262W        W84676   1.899   6.835  10.501
12263W        W84677  20.693  40.051  12.507
12264W        W84678  41.439  32.615   3.185
12265W        W84679  19.602   5.232  12.076
12266W        W84680  23.489   4.927  13.313
12267W        W84681  39.931  11.819  11.058
12268W        W84682  19.264   8.763   1.877
12269W        W84683  13.770  41.508   3.280
12270W        W84684  23.633  17.618   1.904
12271W        W84685  42.366  24.674   4.218
12272W        W84686  15.305  28.158   1.704
12273W        W84687  14.639  34.982   2.287
12274W        W84688  32.630  38.987  13.505
12275W        W84689  37.533  43.274  10.974
12276W        W84690   9.206  42.909   2.850
12277W        W84691  30.157  32.949  12.339
12278W        W84692   8.657   0.875  14.330
12279W        W84693   3.956  15.204   2.330
12280W        W84694  33.961   5.794  13.346
12281W        W84695  17.126   7.729   1.791
12282W        W84696  43.019  18.574   1.869
12283W        W84697  24.118  15.790   2.346
12284W        W84698  37.973  28.631  10.412
12285W        W84699   4.805   4.247  10.454
12286W        W84700  20.727  13.824   2.332
12287W        W84701  35.898  16.617  13.417
12288W        W84702  18.544  24.493  11.092
12289W        W84703  11.181  37.482  11.570
12290W        W84704   1.894  10.704  11.390
12291W        W84705  11.265   8.247   4.345
12292W        W84706  19.109  43.842   3.212
12293W        W84707  37.043   1.744   4.147
12294W        W84708   5.279   6.296   1.773
12295W        W84709  29.086  38.993   3.869
12296W        W84710  40.337   8.707  12.380
12297W        W84711   8.398  15.098  11.114
12298W        W84712  28.626  32.111   1.381
12299W        W84713   1.868   8.398   1.761
12300W        W84714  24.020  20.598   0.391
12301W        W84715  17.725   5.381   0.853
12302W        W84716  41.837  39.812  11.027
12303W        W84717   6.379  30.084  12.897
12304W        W84718  36.048   9.369   0.460
12305W        W84719  19.168  36.415   1.432
12306W        W84720   5.319  42.930  12.424
12307W        W84721  13.808  31.131  10.570
12308W        W84722  24.063  36.023   4.743
12309W        W84723  44.479   2.389  14.792
12310W        W84724  21.517   9.279  11.031
12311W        W84725  28.079  26.021  13.520
12312W        W84726   5.703  24.100  13.997
12313W        W84727   0.802  20.265  12.907
12314W        W84728  10.776  20.233   1.447
12315W        W84729  42.995  10.204  14.029
12316W        W84730  37.513  21.644   0.277
12317W        W84731  40.456   8.812   4.239
12318W        W84732  38.557  35.925   0.452
12319W        W84733  17.061  17.623  10.954
12320W        W84734  34.008  43.944  10.947
12321W        W84735  15.113   3.730  12.437
12322W        W84736  37.507  15.676  13.000
12323W        W84737  17.655  11.734   4.721
12324W        W84738  23.138  30.513  12.084
12325W        W84739   8.728   0.435  13.985
12326W        W84740  21.757  22.067   2.228
12327W        W84741  29.631  27.505  11.459
12328W        W84742  13.602   2.947  12.533
12329W        W84743  17.113  29.461  13.824
12330W        W84744  37.524  31.091   1.872
12331W        W84745  32.005  16.118   4.237
12332W        W84746  39.933   2.352  12.341
12333W        W84747   9.799  38.920   1.859
12334W        W84748  30.038  40.865  11.932
12335W        W84749  16.163  35.390  14.320
12336W        W84750   5.216  41.957  12.532
12337W        W84751  39.469  30.004   2.295
12338W        W84752  34.390  24.667  12.343
12339W        W84753  38.048  16.679   4.289
12340W        W84754  43.512  42.297  12.951
12341W        W84755  12.141  25.685  14.789
12342W        W84756   4.430  19.086   2.753
12343W        W84757  40.441  38.966  13.966
12344W        W84758  36.484   6.831  13.498
12345W        W84759  29.007  29.010   3.714
12346W        W84760  23.220  23.686   0.312
12347W        W84761   1.807   8.244  12.475
12348W        W84762  22.587  39.054   4.692
12349W        W84763  27.166   6.703   4.607
12350W        W84764  38.060  24.531   1.338
12351W        W84765  16.246  26.526   4.656
12352W        W84766  26.163   0.752  13.408
12353W        W84767   7.350   2.849  14.765
12354W        W84768   2.927  30.524   4.631
12355W        W84769  33.969  35.360   3.267
12356W        W84770  13.750  19.123   0.351
12357W        W84771  38.904  12.762  13.500
12358W        W84772  30.481  15.234   3.300
12359W        W84773  35.376  39.809   1.337
12360W        W84774  44.472  19.574   4.120
12361W        W84775  32.581  40.527   0.905
12362W        W84776   5.735  38.411   3.199
12363W        W84777  35.426  20.167   2.281
12364W        W84778  39.852  19.264  14.997
12365W        W84779  35.453   1.416  11.515
12366W        W84780  38.548   9.828  14.381
12367W        W84781  33.507  42.386   0.848
12368W        W84782  19.171  39.907  13.413
12369W        W84783  12.168  31.627  14.960
12370W        W84784   8.698  10.634   4.159
12371W        W84785  41.013   5.273   2.186
12372W        W84786  36.462  39.825   0.319
12373W        W84787  35.055  13.196  12.825
12374W        W84788  34.074  19.251   1.248
12375W        W84789  22.633  21.249   2.303
12376W        W84790   3.918  11.237  14.378
12377W        W84791  41.420  35.909  14.294
12378W        W84792  25.557  17.254  14.883
12379W        W84793  43.368  37.880   3.758
12380W        W84794  16.652   0.410   0.474
12381W        W84795  41.525  28.626  13.423
12382W        W84796  40.440  36.389  13.016
12383W        W84797  40.454  26.596   2.719
12384W        W84798   7.195   0.845   0.381
12385W        W84799  42.968  19.659   1.226
12386W        W84800   2.252  44.871  13.354
12387W        W84801  22.627  30.019  12.402
12388W        W84802  43.992  19.768  10.430
12389W        W84803  23.495  20.530  12.080
12390W        W84804   4.405  23.660  11.007
12391W        W84805  19.205  26.485  14.289
12392W        W84806  37.387  37.048  11.044
12393W        W84807   6.817   6.912   3.653
12394W        W84808   8.677   7.679   0.383
12395W        W84809  30.064  44.504  10.161
12396W        W84810  29.044  28.510   3.280
12397W        W84811  32.050  23.581  13.926
12398W        W84812  31.518   9.697   4.267
12399W        W84813  24.595  39.034   3.255
12400W        W84814  40.851  26.007  11.107
12401W        W84815   0.404   3.712  13.428
12402W        W84816  21.037  38.448  10.588
12403W        W84817  26.556  11.672  12.899
12404W        W84818  41.035   0.955   2.208
12405W        W84819   7.708  27.460   0.765
12406W        W84820  14.305  29.933  13.357
12407W        W84821  43.933  18.145   4.792
12408W        W84822  36.909  31.632  14.508
12409W        W84823  38.837  24.663  14.964
12410W        W84824  25.114  22.231   1.334
12411W        W84825  32.052  34.523  12.873
12412W        W84826  25.627  37.439   5.243
12413W        W84827   7.238  30.556  11.872
12414W        W84828  43.889   4.293   2.670
12415W        W84829  25.120   4.205   1.282
12416W        W84830  41.473  21.735   4.290
12417W        W84831   4.210   3.803   0.272
12418W        W84832  34.543   7.766   0.784
12419W        W84833  35.024  22.682  14.393
12420W        W84834  28.479  42.431  13.831
12421W        W84835  19.147  23.548   0.823
12422W        W84836  28.611   3.868   3.188
12423W        W84837  22.658  19.127   1.768
12424W        W84838  33.028  29.634  13.430
12425W        W84839  34.034   6.268   3.814
12426W        W84840  33.550  31.542  12.375
12427W        W84841  18.251  12.213   0.382
12428W        W84842  13.801  31.145   1.350
12429W        W84843  39.342  25.164  11.388
12430W        W84844   6.313  30.574  14.381
12431W        W84845   0.749   8.815   1.878
12432W        W84846  42.844  41.303   1.912
12433W        W84847  42.985  12.318  10.597
12434W        W84848  26.014  30.093  13.346
12435W        W84849  22.524  19.698   1.447
12436W        W84850  29.934  17.578  11.600
12437W        W84851  17.790  32.599   4.317
12438W        W84852  26.082  18.247   9.631
12439W        W84853  27.534  36.578  11.872
12440W        W84854  11.798  21.185   0.433
12441W        W84855  44.265  36.512   1.403
12442W        W84856  26.586  44.435   3.833
12443W        W84857  23.591  15.083   2.262
12444W        W84858  30.017  33.007   2.178
12445W        W84859  32.971  22.710  13.048
12446W        W84860  38.345  21.605  13.337
12447W        W84861   4.845  21.073  11.080
12448W        W84862  13.708  43.772  11.492
12449W        W84863  14.687  22.519  10.635
12450W        W84864   4.835  30.637  10.631
12451W        W84865  29.942  22.209   2.206
12452W        W84866  41.815  12.716  14.009
12453W        W84867  26.005  18.120   0.469
12454W        W84868  27.567  37.082   1.233
12455W        W84869  10.687  31.947  12.907
12456W        W84870   1.284  14.663  11.922
12457W        W84871  11.304  38.539   2.878
12458W        W84872  37.388  18.252  11.561
12459W        W84873  20.154  40.840  10.530
12460W        W84874   9.267  29.081  12.824
12461W        W84875  15.299   5.931  13.487
12462W        W84876  20.219  36.499  10.911
12463W        W84877  33.618  15.806   0.421
12464W        W84878  21.213  17.732   4.266
12465W        W84879  34.109  28.438   4.616
12466W        W84880  16.659  31.115   1.328
12467W        W84881   0.350  23.551  12.943
12468W        W84882  40.478  35.495   4.324
12469W        W84883  14.180  36.450   2.750
12470W        W84884  15.271  43.985   4.791
12471W        W84885   1.291  43.481  11.494
12472W        W84886  35.077  24.212  14.390
12473W        W84887  20.190  25.036   1.847
12474W        W84888  37.341  40.443   1.445
12475W        W84889  34.385  11.142   4.725
12476W        W84890  32.564  19.606  12.840
12477W        W84891  28.049  24.523   1.926
12478W        W84892   9.747   6.271   3.295
12479W        W84893  14.118  17.706  13.967
12480W        W84894  18.679  17.166   1.368
12481W        W84895   2.272  24.021  13.483
12482W        W84896  15.305  10.352  11.099
12483W        W84897  40.967   9.746  12.964
12484W        W84898   0.858   9.236  14.451
12485W        W84899  14.146   5.690  12.861
12486W        W84900   9.736   4.784   0.744
12487W        W84901  20.683  44.407   3.848
12488W        W84902  11.325   3.347  13.826
12489W        W84903  24.491  10.161   3.351
12490W        W84904   2.271  16.704  13.915
12491W        W84905   5.757  15.282   3.294
12492W        W84906  39.011  24.186   4.618
12493W        W84907   2.957  30.129   4.314
12494W        W84908   9.683  20.055   3.235
12495W        W84909  11.624  33.476  12.528
12496W        W84910  11.682  29.923  13.434
12497W        W84911  20.195  41.871   0.923
12498W        W84912  16.145   5.310  14.824
12499W        W84913  29.600  10.229   0.264
12500W        W84914  20.553  38.529  13.022
12501W        W84915  43.006  12.351  11.118
12502W        W84916  19.546  22.077   2.767
12503W        W84917  24.687  31.598   0.791
12504W        W84918  18.111   4.407   2.820
12505W        W84919  12.828  32.041   1.237
12506W        W84920  27.107   3.394  13.829
12507W        W84921  43.918  39.409  12.847
12508W        W84922  28.977  28.936  12.578
12509W        W84923  42.334   0.445  10.903
12510W        W84924   8.837  42.489   3.336
12511W        W84925  42.469  10.647  14.979
12512W        W84926  31.912  17.555  12.945
12513W        W84927  14.289  19.272   1.716
12514W        W84928  32.085  33.599  11.547
12515W        W84929  42.905  38.925   4.262
12516W        W84930  15.097  22.235   2.294
12517W        W84931  19.224  11.672  14.994
12518W        W84932  20.681  24.036   0.458
12519W        W84933  43.934   3.420  12.488
12520W        W84934  10.328  16.727   9.983
12521W        W84935   2.417  22.599  12.358
12522W        W84936  37.914  33.432   1.889
12523W        W84937  30.993  13.273  10.904
12524W        W84938  24.110  27.609   3.734
12525W        W84939  34.489  35.477   3.153
12526W        W84940  19.108  35.861   2.842
12527W        W84941  38.415   2.857  14.305
12528W        W84942   0.762  35.519  13.868
12529W        W84943  34.943   0.865  13.524
12530W        W84944  27.096   4.391  11.127
12531W        W84945  29.473  32.991   2.886
12532W        W84946  40.877  41.306   0.843
12533W        W84947  41.451  35.509   0.302
12534W        W84948  30.453  26.966   1.846
12535W        W84949  37.901   0.368   4.189
12536W        W84950   5.697  12.658   2.680
12537W        W84951  41.498  19.634   0.417
12538W        W84952  41.520  32.906  14.376
12539W        W84953  25.207   9.273  14.839
12540W        W84954  26.515  11.676   3.385
12541W        W84955   1.325  12.610  14.404
12542W        W84956  36.478  19.132  11.109
12543W        W84957  22.695  35.869  14.377
12544W        W84958   7.907  39.968   4.250
12545W        W84959  37.030  26.040  11.581
12546W        W84960   0.836  40.534  12.372
12547W        W84961  41.834  10.805   4.330
12548W        W84962  21.669  15.641  14.777
12549W        W84963  42.817  20.547   4.680
12550W        W84964  44.452  29.643  14.508
12551W        W84965  12.653  25.138   4.635
12552W        W84966   9.312   5.400  14.004
12553W        W84967  29.456  17.661   0.344
12554W        W84968  10.818  24.725   4.337
12555W        W84969  12.637  36.884  12.529
12556W        W84970  17.277   8.352   0.456
12557W        W84971   0.460  39.452   0.312
12558W        W84972  11.200   2.386  14.917
12559W        W84973  34.024  21.198   4.691
12560W        W84974  41.858  32.044  11.593
12561W        W84975   5.271  29.503   2.687
12562W        W84976  38.418  35.968   1.790
12563W        W84977  16.801  24.721  11.575
12564W        W84978  32.141  21.712  12.451
12565W        W84979  29.093  20.175   4.648
12566W        W84980  28.032   2.951   2.188
12567W        W84981   4.837  25.683   0.307
12568W        W84982  26.548  33.471  13.319
12569W        W84983  29.661  20.752  14.369
12570W        W84984  15.130  20.033   3.152
12571W        W84985  24.579   8.351   1.400
12572W        W84986   2.727  29.649   2.737
12573W        W84987   3.303  13.610   3.355
12574W        W84988  21.145  44.324   2.786
12575W        W84989  35.573  39.966   3.152
12576W        W84990  38.966  13.817  11.589
12577W        W84991  20.215  37.451  10.890
12578W        W84992  42.515  31.565  11.017
12579W        W84993   3.390  32.965   2.278
12580W        W84994  10.683  37.993  13.400
12581W        W84995   1.466  18.176   2.801
12582W        W84996  33.016  27.089   4.740
12583W        W84997  10.803   6.264   4.637
12584W        W84998  44.834  31.568  12.061
12585W        W84999   9.324   4.427  13.043
12586W        W85000  39.827  29.562  11.607
12587W        W85001  15.758  22.620  11.475
12588W        W85002  38.571  11.262   4.656
12589W        W85003  38.070  36.093  14.776
12590W        W85004  12.149  24.652  12.847
12591W        W85005  31.961  26.195  12.463
12592W        W85006  40.980  11.260   2.331
12593W        W85007  11.793  41.008  11.502
12594W        W85008  11.152   9.682   1.881
12595W        W85009  39.026  29.531   2.189
12596W        W85010  13.181  33.465  10.058
12597W        W85011  25.078  11.800  11.517
12598W        W85012  20.602  21.515   2.748
12599W        W85013  34.921  17.166  12.526
12600W        W85014  25.989   7.757  10.933
12601W        W85015   2.779  10.378   4.642
12602W        W85016  10.768   2.966   1.917
12603W        W85017  20.668  35.507  12.970
12604W        W85018  29.537   8.728   0.871
12605W        W85019   9.373  27.636  10.417
12606W        W85020  12.761  13.251  10.939
12607W        W85021   0.337  26.966   3.831
12608W        W85022  28.466  30.011   0.777
12609W        W85023  29.658  21.203  11.450
12610W        W85024  27.987  21.087   3.809
12611W        W85025  27.964  12.787  11.106
12612W        W85026  29.108  25.169   0.456
12613W        W85027  26.119   7.333  12.014
12614W        W85028  13.719  16.191  10.512
12615W        W85029  10.739  10.871  13.955
12616W        W85030  14.224  18.735  13.476
12617W        W85031  11.173   9.850  13.511
12618W        W85032  36.081   2.459   5.149
12619W        W85033  27.948  37.547   4.163
12620W        W85034  35.904  14.772   1.730
12621W        W85035  34.456  39.319  12.352
12622W        W85036   7.236  35.986   1.744
12623W        W85037  16.688  21.623  12.576
12624W        W85038  39.870   4.238  12.905
12625W        W85039  28.967  30.659  10.560
12626W        W85040  25.641  40.890   1.788
12627W        W85041  25.025   8.182  13.045
12628W        W85042  21.166  18.576   4.201
12629W        W85043  44.992  30.052  13.947
12630W        W85044  27.949   5.231  12.956
12631W        W85045  37.514  29.451   4.343
12632W        W85046  36.020  19.179  12.882
12633W        W85047  41.474   2.755  12.473
12634W        W85048  15.134  17.681   4.336
12635W        W85049  44.801  29.149  12.942
12636W        W85050  24.700  17.710  14.820
12637W        W85051   5.929  38.830   0.763
12638W        W85052  44.821  30.539  14.341
12639W        W85053  21.693  28.993  14.513
12640W        W85054   5.731   6.398  14.976
12641W        W85055  30.634  11.128   2.730
12642W        W85056  41.011  28.164   2.269
12643W        W85057   1.415  19.598   2.288
12644W        W85058  43.765  13.620   4.819
12645W        W85059  11.769  35.466  13.428
12646W        W85060  37.051  11.773   1.907
12647W        W85061   5.369  14.830  12.869
12648W        W85062  30.601  29.166  11.406
12649W        W85063  43.270  34.400  14.998
12650W        W85064   6.328  37.899  13.044
12651W        W85065  27.517  15.208   4.234
12652W        W85066  36.568  34.910  11.108
12653W        W85067   5.401  25.137  14.889
12654W        W85068   5.755  12.642  14.949
12655W        W85069  27.172  31.019   1.418
12656W        W85070  24.128   2.347  14.942
12657W        W85071  41.030  19.564   0.789
12658W        W85072  20.692   7.417  12.509
12659W        W85073   4.824  32.586  10.464
12660W        W85074  37.470  39.500   3.262
12661W        W85075   5.322   1.455   4.222
12662W        W85076  16.702  27.148  11.035
12663W        W85077  27.532  27.525   2.217
12664W        W85078  10.172  29.131   4.750
12665W        W85079  13.196   9.358   0.297
12666W        W85080   2.799  41.464  11.081
12667W        W85081  22.147   8.840  13.048
12668W        W85082  32.111  14.186  11.470
12669W        W85083   9.859  43.470  12.552
12670W        W85084  18.625  18.636  14.776
12671W        W85085  24.664   9.776   1.743
12672W        W85086   6.716  13.128  12.091
12673W        W85087  35.590   3.457  13.527
12674W        W85088   9.687  33.439   2.866
12675W        W85089  31.117  29.993   3.662
12676W        W85090  41.398  20.554   0.841
12677W        W85091  43.415  42.889   3.814
12678W        W85092  23.180  14.757  10.914
12679W        W85093  19.637  25.142  12.434
12680W        W85094  24.657  25.144  11.528
12681W        W85095  16.575   7.853  13.340
12682W        W85096  30.488  26.503   1.893
12683W        W85097  10.303  20.711   0.270
12684W        W85098   7.317   0.791   2.181
12685W        W85099  39.347   1.325   1.739
12686W        W85100  16.813  25.023   4.262
12687W        W85101   8.892  42.391   0.338
12688W        W85102   7.232  40.879  12.058
12689W        W85103  32.940  14.278  13.915
12690W        W85104  11.845  16.644   2.185
12691W        W85105  42.384   7.910  10.637
12692W        W85106  29.115  25.185   5.127
12693W        W85107  11.159  31.548  13.412
12694W        W85108  20.698  43.796   4.118
12695W        W85109  41.310  15.813   2.295
12696W        W85110  20.038  41.011  11.102
12697W        W85111  20.134  37.847   3.768
12698W        W85112  29.473  33.621  13.412
12699W        W85113   0.825  20.541  10.413
12700W        W85114  13.350  42.476  12.396
12701W        W85115  42.415  32.947   3.230
12702W        W85116  20.527  24.027  14.853
12703W        W85117   4.789  38.366   3.719
12704W        W85118  29.464  21.573  11.990
12705W        W85119  41.890   7.370  14.306
12706W        W85120  29.467  33.014  11.924
12707W        W85121  44.976  26.978  11.498
12708W        W85122   2.965  26.987  10.572
12709W        W85123  11.180  33.078  10.445
12710W        W85124  22.086  24.698  14.481
12711W        W85125   8.231  34.085   3.298
12712W        W85126  44.875   3.376   1.341
12713W        W85127  26.205  15.186   3.281
12714W        W85128  27.065  39.989  12.940
12715W        W85129   6.297  43.771   0.378
12716W        W85130  15.149  21.248   2.185
12717W        W85131  44.837  15.087   1.254
12718W        W85132  14.273  17.695   9.442
12719W        W85133  10.698  37.475   9.947
12720W        W85134  35.557  34.436  14.293
12721W        W85135  28.626  32.011   4.693
12722W        W85136   0.814  14.723  13.540
12723W        W85137  42.956  19.078   4.352
12724W        W85138  24.221  33.131   1.238
12725W        W85139  14.590  35.515  10.893
12726W        W85140  22.502  28.070  12.092
12727W        W85141  41.975  40.823  11.384
12728W        W85142   5.865  34.588  10.445
12729W        W85143  25.499  28.088  12.558
12730W        W85144  33.481  12.698  13.951
12731W        W85145  26.460  40.535  12.853
12732W        W85146  43.967  35.385  12.064
12733W        W85147  36.486  33.515   4.733
12734W        W85148  38.518  18.684   4.315
12735W        W85149  24.034  11.787   0.759
12736W        W85150  43.007  32.982   0.831
12737W        W85151  36.071  18.639   0.446
12738W        W85152  13.261   8.765  10.961
12739W        W85153  10.326   7.890   4.601
12740W        W85154  39.421  33.573  14.493
12741W        W85155  44.809  17.219  12.525
12742W        W85156  40.815   0.402   3.295
12743W        W85157  21.176   8.275  14.919
12744W        W85158  30.049  41.514  12.348
12745W        W85159  32.934  25.966  12.984
12746W        W85160  27.588   8.228  11.414
12747W        W85161  10.670   0.774  11.504
12748W        W85162  19.174  29.048   1.365
12749W        W85163  17.657  38.857  12.042
12750W        W85164  25.484  25.003   0.273
12751W        W85165  13.106  34.566   3.344
12752W        W85166  10.369  33.072   3.318
12753W        W85167  27.095   5.332   0.776
12754W        W85168  24.074  20.615  11.878
12755W        W85169  23.658  10.384   3.266
12756W        W85170   0.393  33.499  11.485
12757W        W85171  10.842   3.883  13.519
12758W        W85172  33.946  43.828   3.235
12759W        W85173  43.770  36.852   1.878
12760W        W85174  21.738  11.838   3.152
12761W        W85175   2.864  11.197   3.842
12762W        W85176  31.139  20.187  12.500
12763W        W85177  38.424  35.073  14.429
12764W        W85178  30.980  17.794  10.432
12765W        W85179  39.534  20.717  13.874
12766W        W85180  24.682  23.059   2.376
12767W        W85181  27.527  44.884  14.771
12768W        W85182  30.948  41.452  14.785
12769W        W85183  19.757   7.392  11.039
12770W        W85184  26.531   3.369   4.751
12771W        W85185   4.806  12.337   0.929
12772W        W85186   0.763  44.353  11.874
12773W        W85187  20.611   5.799   3.793
12774W        W85188  20.041  13.778  10.452
12775W        W85189  34.474  39.057  14.825
12776W        W85190  33.123   4.715   0.242
12777W        W85191   6.248  17.713   0.901
12778W        W85192   5.790  13.105  11.046
12779W        W85193  39.533  13.274   0.402
12780W        W85194  34.077  28.161  11.978
12781W        W85195  30.076  41.905  13.496
12782W        W85196  41.947  21.546  14.324
12783W        W85197  20.548  30.644  12.462
12784W        W85198  15.126  45.000  10.538
12785W        W85199  24.191  29.175   1.286
12786W        W85200  25.667  32.995  13.838
12787W        W85201  20.129  37.563   4.139
12788W        W85202  30.035   0.913  12.449
12789W        W85203  27.499  39.359   0.324
12790W        W85204  31.486  27.576  12.825
12791W        W85205  33.899  23.612  12.987
12792W        W85206   9.644  37.444   0.473
12793W        W85207   0.277  34.438  10.977
12794W        W85208   1.416   9.214  12.835
12795W        W85209  43.336  44.778  11.606
12796W        W85210  10.265  40.928   3.642
12797W        W85211  24.605  26.533   3.223
12798W        W85212  36.096   4.737   4.801
12799W        W85213  17.218  17.064   4.680
12800W        W85214  41.438  41.911  13.942
12801W        W85215   2.724  12.611  13.791
12802W        W85216  40.988  11.199   4.217
12803W        W85217  34.434   3.844   2.368
12804W        W85218  15.790  12.119  11.373
12805W        W85219  13.637  29.562  10.943
12806W        W85220   6.881  21.237  12.501
12807W        W85221  18.111  22.534   1.860
12808W        W85222  26.504  29.995  13.519
12809W        W85223  15.301  23.578   1.223
12810W        W85224  16.313  43.957  12.875
12811W        W85225   8.724  28.604   3.191
12812W        W85226   0.400  41.482   1.219
12813W        W85227  26.595  32.501  12.547
12814W        W85228  43.949   3.349  13.047
12815W        W85229  31.029   3.359   3.819
12816W        W85230  21.143  10.668  11.051
12817W        W85231  33.485  18.562  12.054
12818W        W85232  10.259  26.014  13.390
12819W        W85233  30.964  23.032   0.819
12820W        W85234   9.359  18.776  13.829
12821W        W85235  44.992   6.424  10.511
12822W        W85236  23.037  20.637   0.399
12823W        W85237  21.043   5.321  11.059
12824W        W85238   2.443  42.378   0.373
12825W        W85239  29.059  22.583  13.901
12826W        W85240  14.663  13.724   3.710
12827W        W85241  11.709   8.337   0.447
12828W        W85242  28.124  33.035   2.322
12829W        W85243   7.363  38.465  11.474
12830W        W85244  34.926  34.574   3.773
12831W        W85245   5.195  26.527  11.425
12832W        W85246  22.542  16.135   3.210
12833W        W85247  28.439  37.450  14.922
12834W        W85248  34.565   6.715  14.348
12835W        W85249  43.805  26.043  14.381
12836W        W85250  18.625  21.104   4.642
12837W        W85251  24.718  36.499   4.120
12838W        W85252   5.728  40.542  11.016
12839W        W85253  35.948   7.905   0.444
12840W        W85254  13.184   6.393   0.288
12841W        W85255  29.438  21.734   3.832
12842W        W85256   4.396  41.496   4.348
12843W        W85257  14.687   8.875   3.746
12844W        W85258  12.264  23.489   0.342
12845W        W85259  43.319  10.690  14.462
12846W        W85260  10.741  29.116  11.586
12847W        W85261  36.052   9.688   0.870
12848W        W85262  39.892  13.725   4.146
12849W        W85263  26.974   9.226   4.188
12850W        W85264   2.763  14.166   0.399
12851W        W85265   9.169   5.204   0.790
12852W        W85266  34.934  43.478   1.351
12853W        W85267   3.822  14.192   3.698
12854W        W85268  26.958  33.926   3.346
12855W        W85269  42.290  28.453   3.694
12856W        W85270  20.672  21.190   1.718
12857W        W85271  25.064   5.426   4.643
12858W        W85272   5.778  19.598   3.821
12859W        W85273   3.830  39.342   9.480
12860W        W85274  14.676  26.113  13.002
12861W        W85275  33.913  33.991  12.830
12862W        W85276  44.469  31.629  14.002
12863W        W85277  29.002   8.333  12.831
12864W        W85278  21.707   5.316   1.374
12865W        W85279   8.353   2.230  13.510
12866W        W85280   7.359  44.317   4.670
12867W        W85281  18.257  36.930  13.339
12868W        W85282  16.789  11.862  14.014
12869W        W85283  18.616  10.186   2.399
12870W        W85284  18.766  43.318  11.531
12871W        W85285  43.347  37.480  12.824
12872W        W85286  30.023  11.824  11.883
12873W        W85287  30.599  13.702   4.662
12874W        W85288   1.771  36.085   3.316
12875W        W85289   9.832  37.471  12.067
12876W        W85290  15.637  11.295   1.291
12877W        W85291  24.577  37.907  11.862
12878W        W85292  14.811  37.445  12.379
12879W        W85293  20.270  18.729   4.606
12880W        W85294   5.367  37.566   4.191
12881W        W85295  40.823   2.874   3.197
12882W        W85296  27.508  24.122   0.389
12883W        W85297  36.546  38.427   0.351
12884W        W85298  39.973   5.259  11.432
12885W        W85299  38.864  40.930  12.403
12886W        W85300  13.618  36.362   1.803
12887W        W85301   1.811   1.237  12.446
12888W        W85302  42.362   4.736  10.530
12889W        W85303  39.813  42.957   1.823
12890W        W85304  27.669   7.317  13.829
12891W        W85305   5.249  17.660   0.768
12892W        W85306  25.198  33.062  14.013
12893W        W85307  41.375   1.920  14.324
12894W        W85308  27.040  26.472  10.621
12895W        W85309  22.182  41.364  13.831
12896W        W85310  44.505  20.174  10.522
12897W        W85311  16.281  25.978  10.887
12898W        W85312   4.888  15.755  14.972
12899W        W85313  30.517   8.209  12.009
12900W        W85314  25.685  44.414   2.223
12901W        W85315   1.256  44.315   0.915
12902W        W85316  44.295  18.661   9.929
12903W        W85317  36.549   7.384  14.381
12904W        W85318  29.534  19.750  13.391
12905W        W85319  27.626  20.073  13.318
12906W        W85320   3.245  31.512   0.897
12907W        W85321  43.357  13.752  14.313
12908W        W85322   1.848   1.304   1.873
12909W        W85323  30.105  41.020  11.086
12910W        W85324   1.790  13.835   2.708
12911W        W85325  18.566   2.392   3.223
12912W        W85326  36.060  21.164  14.369
12913W        W85327  37.061   4.829  14.396
12914W        W85328  22.996  39.480  10.575
12915W        W85329  24.597  31.938   0.355
12916W        W85330  17.129  41.467   0.832
12917W        W85331  33.127  19.667  14.764
12918W        W85332   8.267   1.457   0.335
12919W        W85333  38.982  43.927  10.412
12920W        W85334  36.072   0.313  13.360
12921W        W85335  27.690  18.119   4.316
12922W        W85336  27.047   7.313  10.627
12923W        W85337  12.653   4.797  14.513
12924W        W85338   5.853  13.622   4.753
12925W        W85339   7.216  31.931   2.670
12926W        W85340  20.588  11.716   3.778
12927W        W85341  41.459   6.716  13.827
12928W        W85342   0.264  24.069  10.599
12929W        W85343  43.770  13.721  12.927
12930W        W85344  10.153  27.531  11.036
12931W        W85345   6.341  17.184  10.949
12932W        W85346  32.558  15.714   1.394
12933W        W85347  37.355  43.843  10.599
12934W        W85348  26.567  22.011  13.909
12935W        W85349   3.263  11.742  12.403
12936W        W85350   6.389  41.860   5.110
12937W        W85351  17.180  42.850  10.976
12938W        W85352   7.686  21.720   1.816
12939W        W85353  13.774  21.743   2.671
12940W        W85354   6.398  31.048   2.407
12941W        W85355  40.402  28.027   4.159
12942W        W85356  25.561  43.493  10.490
12943W        W85357  14.249  14.115  12.862
12944W        W85358  44.493  20.203  13.321
12945W        W85359  28.158  19.252  12.433
12946W        W85360  37.079  35.916  11.047
12947W        W85361  18.647  19.066   4.255
12948W        W85362   6.859  22.204   0.926
12949W        W85363  30.435  23.117   3.386
12950W        W85364  24.055   9.247  10.437
12951W        W85365   9.172  43.980  11.047
12952W        W85366  20.549  11.342  13.417
12953W        W85367  31.482   0.460   4.697
12954W        W85368  11.754  40.002   3.298
12955W        W85369  38.358  30.447  12.035
12956W        W85370  37.578  31.114  12.568
12957W        W85371  16.651  44.955  14.313
12958W        W85372  30.048  40.311   2.701
12959W        W85373   8.177   8.244   2.744
12960W        W85374  21.167  23.153  14.307
12961W        W85375  30.554  37.412   3.385
12962W        W85376  17.251  24.552   3.276
12963W        W85377   0.933  37.483  10.156
12964W        W85378   8.182  22.087  14.851
12965W        W85379  16.159  38.455  11.987
12966W        W85380  15.274   8.164  13.044
12967W        W85381  43.828  14.292   0.837
12968W        W85382  11.237  23.518  13.030
12969W        W85383   5.217  44.969   3.270
12970W        W85384  31.615   3.378  14.513
12971W        W85385   3.421  22.228   1.826
12972W        W85386  44.937   7.228  11.006
12973W        W85387  11.768  29.645  12.474
12974W        W85388  11.358  26.182  12.954
12975W        W85389  33.620  38.933   4.276
12976W        W85390  33.061  43.947   3.287
12977W        W85391  35.895  12.657  12.402
12978W        W85392  18.576  22.647  12.931
12979W        W85393  25.176   4.375   0.462
12980W        W85394  37.361  31.591  11.555
12981W        W85395   8.349   8.812   2.301
12982W        W85396  14.300   5.929   0.310
12983W        W85397  43.781   1.253  13.908
12984W        W85398  42.350  18.104   4.769
12985W        W85399  11.717  27.625  12.566
12986W        W85400  23.606  14.129   1.284
12987W        W85401  18.103  24.709   0.793
12988W        W85402  37.386  22.243  10.622
12989W        W85403   6.869  25.554   4.686
12990W        W85404   3.272   9.643  14.306
12991W        W85405  20.053  27.667   1.426
12992W        W85406  17.107  26.485   3.227
12993W        W85407  37.922  39.982  12.982
12994W        W85408   1.459  20.255   0.344
12995W        W85409  32.975  21.097   1.242
12996W        W85410  14.756  28.033   2.418
12997W        W85411  32.586   3.764  10.468
12998W        W85412  11.341  18.260  11.868
12999W        W85413  21.668  30.568   5.257
13000W        W85414  44.868   8.324   4.776
13001W        W85415   9.197  30.162  12.485
13002W        W85416   6.296  24.527   2.267
13003W        W85417   2.862  16.235  14.763
13004W        W85418  20.588  42.873   4.134
13005W        W85419  23.144  40.406   1.250
13006W        W85420   3.398  12.659   9.650
13007W        W85421  38.953  21.529  14.505
13008W        W85422  27.997  25.675   1.312
13009W        W85423  10.244  13.158   4.827
13010W        W85424  37.475   4.878   3.355
13011W        W85425  21.649  18.101   1.852
13012W        W85426   3.809   1.736  12.074
13013W        W85427   2.244  27.620   5.765
13014W        W85428  28.089  10.780  12.003
13015W        W85429  43.384  32.129  10.444
13016W        W85430  43.954  12.199  10.452
13017W        W85431  33.564  42.859   4.201
13018W        W85432   5.893  30.021   0.268
13019W        W85433  17.800  43.396   1.246
13020W        W85434  35.048  24.040   3.201
13021W        W85435  21.088  39.955   3.252
13022W        W85436   1.379  36.912  11.512
13023W        W85437  43.788  18.687  13.505
13024W        W85438  34.457  42.430   3.239
13025W        W85439  37.458  26.003   4.606
13026W        W85440  39.516  18.665  14.875
13027W        W85441  38.046  12.185  11.976
13028W        W85442   3.710  30.617  11.408
13029W        W85443   8.666  37.933  10.908
13030W        W85444  30.614  43.802  13.359
13031W        W85445  29.529  15.596  11.861
13032W        W85446  12.853   9.821  12.506
13033W        W85447  35.031  37.395   2.417
13034W        W85448  19.141  24.493  10.944
13035W        W85449  11.335  20.041  11.387
13036W        W85450  27.596  19.565  14.834
13037W        W85451   5.306  40.964   3.679
13038W        W85452  15.622  34.602   3.175
13039W        W85453  26.661  37.523   2.817
13040W        W85454  14.611   2.888  11.380
13041W        W85455  23.024  38.858  12.444
13042W        W85456  31.483  14.287  11.947
13043W        W85457  25.131   3.314   3.679
13044W        W85458  41.352  12.216   1.308
13045W        W85459   3.375  41.961  10.160
13046W        W85460  26.573   8.208   0.820
13047W        W85461  23.496  28.580  13.325
13048W        W85462  34.431  14.302   0.837
13049W        W85463  40.900  21.251   4.699
13050W        W85464  31.039  34.895   1.366
13051W        W85465  26.622  23.630   0.794
13052W        W85466  37.414  38.969   2.901
13053W        W85467  44.353   8.239  10.503
13054W        W85468  14.700   9.789   3.307
13055W        W85469  29.012  22.720  14.866
13056W        W85470  39.050  24.174  12.060
13057W        W85471   0.481  38.006  11.948
13058W        W85472   3.813  27.564  11.894
13059W        W85473  11.843  20.078   3.292
13060W        W85474  13.701  33.934   1.795
13061W        W85475  11.726   0.909   2.719
13062W        W85476  27.499  41.477  13.350
13063W        W85477  16.312  16.690   0.895
13064W        W85478   7.870  30.528   1.741
13065W        W85479  29.442  25.540   1.917
13066W        W85480  35.413  16.776   0.795
13067W        W85481  41.010  31.906  12.352
13068W        W85482   7.376  31.944   4.621
13069W        W85483  35.440  38.515   1.717
13070W        W85484  21.097  32.109  13.056
13071W        W85485  16.722  43.777   4.814
13072W        W85486  11.628  10.646  12.464
13073W        W85487  36.969  36.558  11.928
13074W        W85488  36.564  23.656  13.877
13075W        W85489  30.470  19.562  13.331
13076W        W85490  21.259   3.456   2.327
13077W        W85491  44.492  11.735  12.527
13078W        W85492  14.620  25.971  14.829
13079W        W85493  25.000  20.040  12.989
13080W        W85494  26.564   2.266   4.600
13081W        W85495  40.482  14.298  14.936
13082W        W85496  20.224  33.401  12.008
13083W        W85497   3.389  38.521   2.321
13084W        W85498  35.591  10.727   3.283
13085W        W85499  38.456  31.998  12.847
13086W        W85500  34.581  25.998  11.100
13087W        W85501  38.350   9.784  11.114
13088W        W85502  21.657  21.141  14.305
13089W        W85503  40.380   8.783   3.645
13090W        W85504  18.118  12.169  14.280
13091W        W85505  44.855  24.691   1.695
13092W        W85506  29.567   8.712  11.878
13093W        W85507  18.263  11.277  14.843
13094W        W85508   6.245  29.459  10.498
13095W        W85509  19.735  12.345  11.591
13096W        W85510  44.318  22.713   2.297
13097W        W85511  25.029  24.997   2.892
13098W        W85512  35.947  31.523   2.189
13099W        W85513  29.523  16.298  12.460
13100W        W85514   0.807  33.475  10.600
13101W        W85515  17.078   4.225  11.970
13102W        W85516   8.856   1.903  12.432
13103W        W85517  17.223   9.357  13.443
13104W        W85518  36.905   8.787  10.564
13105W        W85519  38.907  20.528   2.807
13106W        W85520   6.879   4.705  11.016
13107W        W85521  40.312  33.122  11.515
13108W        W85522  10.728  26.168  11.067
13109W        W85523   9.645   3.884  12.390
13110W        W85524   8.173  43.334   0.884
13111W        W85525  16.794   8.705  10.640
13112W        W85526   9.821  25.085   0.796
13113W        W85527  10.688  17.197   0.409
13114W        W85528  16.262  13.240  12.933
13115W        W85529  36.547  26.050   0.798
13116W        W85530  39.338  37.488  10.429
13117W        W85531  36.971   3.453  12.895
13118W        W85532   7.871   3.440   9.999
13119W        W85533  13.245   4.784   5.229
13120W        W85534   7.174  15.296  14.866
13121W        W85535  37.047   9.855  12.514
13122W        W85536  19.544  25.631  11.589
13123W        W85537  34.547  28.100  14.800
13124W        W85538  44.981   8.676   3.663
13125W        W85539  42.505   3.713  13.311
13126W        W85540  10.693  34.892   0.428
13127W        W85541  28.453  34.595  12.394
13128W        W85542  24.063  22.646   0.340
13129W        W85543  42.425  32.999   2.247
13130W        W85544   4.301  41.313   4.690
13131W        W85545  10.243  22.125   4.268
13132W        W85546  21.521   8.815  13.893
13133W        W85547  39.861  43.867   2.362
13134W        W85548  21.158  15.797  12.451
13135W        W85549  27.002  42.521  12.461
13136W        W85550  37.480  33.015   9.439
13137W        W85551   2.827  19.774   0.874
13138W        W85552  38.899  14.673  11.966
13139W        W85553  15.724  22.151   2.806
13140W        W85554  35.055  21.165   3.864
13141W        W85555   6.704  31.141  12.471
13142W        W85556  28.607  15.672  12.357
13143W        W85557  22.117  37.066  12.486
13144W        W85558  43.438  28.113   1.414
13145W        W85559   2.394  13.719  13.850
13146W        W85560  33.953  35.454  12.395
13147W        W85561  32.094  33.086  11.994
13148W        W85562  40.926  31.000  14.372
13149W        W85563  44.379   5.366   0.395
13150W        W85564   9.793  23.094  11.011
13151W        W85565  18.115  40.445   4.773
13152W        W85566  41.967  19.107   2.315
13153W        W85567   7.323  40.465  12.013
13154W        W85568  19.699  27.447   0.772
13155W        W85569  38.027  27.590   3.352
13156W        W85570  44.763  42.415  13.942
13157W        W85571  41.852  31.909   2.217
13158W        W85572  44.006  26.183  10.494
13159W        W85573  18.615  28.176   3.271
13160W        W85574   0.870  29.062  11.604
13161W        W85575  32.599  41.482   1.292
13162W        W85576  11.669   3.219   1.323
13163W        W85577  15.269  24.000  14.368
13164W        W85578  17.576  20.205  14.298
13165W        W85579  39.364  42.480  10.411
13166W        W85580  42.947   0.782   3.664
13167W        W85581  29.428  36.568   3.824
13168W        W85582  19.720   6.185   3.225
13169W        W85583  32.569  10.750  11.958
13170W        W85584  36.429  38.489  13.025
13171W        W85585  44.844  26.491   4.133
13172W        W85586  27.064  22.696   4.290
13173W        W85587  22.529  18.663   3.717
13174W        W85588  21.524  33.039   2.194
13175W        W85589  34.551   0.450   0.925
13176W        W85590  37.860  42.800   1.779
13177W        W85591  20.734  30.944   1.258
13178W        W85592  30.466  15.251  12.075
13179W        W85593  15.146  20.190  13.493
13180W        W85594  11.811  11.844  14.433
13181W        W85595  31.945  15.665   4.834
13182W        W85596  35.854  30.613   0.375
13183W        W85597  32.456  33.116   4.723
13184W        W85598  23.705  38.989  10.413
13185W        W85599  40.455   1.794  14.882
13186W        W85600  35.053  20.681   9.598
13187W        W85601  20.202  13.128  14.973
13188W        W85602  20.252  42.010   1.784
13189W        W85603   7.335   6.740   0.361
13190W        W85604  27.460  27.499   1.322
13191W        W85605   4.256  33.423  14.509
13192W        W85606  11.780   9.260  14.370
13193W        W85607  18.281  19.275  10.897
13194W        W85608  13.784  17.692  13.438
13195W        W85609   1.910   9.165  11.112
13196W        W85610  23.562   9.366  11.440
13197W        W85611  37.026  18.163   4.808
13198W        W85612  33.512  44.976  12.887
13199W        W85613  26.994  15.096   0.268
13200W        W85614  41.506   6.200  12.414
13201W        W85615   6.746   3.316  10.555
13202W        W85616   9.297   5.726   1.226
13203W        W85617  23.499  13.825   4.242
13204W        W85618  12.620  38.518   0.422
13205W        W85619  21.133  28.099   4.311
13206W        W85620  29.559   3.810  13.055
13207W        W85621  44.362  32.587   1.387
13208W        W85622   5.397   0.446  12.036
13209W        W85623  24.985  29.033   4.687
13210W        W85624  23.556  17.718  12.019
13211W        W85625   3.387   4.366  11.541
13212W        W85626  39.932   9.794  12.862
13213W        W85627  16.661  17.132  11.383
13214W        W85628  23.019  31.066  11.889
13215W        W85629  40.009  17.789   1.694
13216W        W85630  27.509   0.333   4.265
13217W        W85631  12.335   4.912  12.096
13218W        W85632  25.155   7.189   1.382
13219W        W85633  13.264  31.110  11.059
13220W        W85634  21.604  25.569  13.048
13221W        W85635  19.740  33.550  12.342
13222W        W85636  12.350   0.918  11.878
13223W        W85637  10.147  10.792  14.412
13224W        W85638  34.559  37.042  11.920
13225W        W85639  30.555   0.931  13.063
13226W        W85640   4.740  19.694   0.367
13227W        W85641  27.532  35.915   0.294
13228W        W85642   7.737  29.153   1.237
13229W        W85643  16.214  42.355   2.276
13230W        W85644  18.139  41.980  12.570
13231W        W85645  20.729  20.136  14.021
13232W        W85646  10.862  37.550  12.473
13233W        W85647  41.023  21.041   3.749
13234W        W85648  43.915  38.523  10.438
13235W        W85649  27.511   2.386  10.912
13236W        W85650  41.303   4.899   0.433
13237W        W85651  25.033  28.447   1.330
13238W        W85652  14.303  41.960  13.383
13239W        W85653  14.689  39.495  14.324
13240W        W85654  19.586  29.516   4.686
13241W        W85655  35.002   8.755   4.319
13242W        W85656   6.415  41.831  13.905
13243W        W85657  11.630  11.755   5.255
13244W        W85658  42.419   9.274   3.358
13245W        W85659  38.073  22.578  10.061
13246W        W85660   4.835  11.763  10.532
13247W        W85661  39.968  44.851  13.509
13248W        W85662  40.489  30.633  10.930
13249W        W85663  16.319  23.716   2.862
13250W        W85664   3.324  20.641  14.453
13251W        W85665  28.144  43.787  12.523
13252W        W85666  25.617  31.950   1.231
13253W        W85667  40.346  27.028  11.953
13254W        W85668   0.424   4.816   0.366
13255W        W85669   2.889  12.125  11.571
13256W        W85670   0.374  17.284  12.385
13257W        W85671  26.102  16.737  11.942
13258W        W85672  31.447  36.391   1.815
13259W        W85673  27.642  14.600   4.157
13260W        W85674  21.539  34.930  13.404
13261W        W85675  40.385  18.708   3.174
13262W        W85676  14.333  20.225   2.325
13263W        W85677  16.603  26.073   3.212
13264W        W85678  41.486  15.166   1.739
13265W        W85679  18.074  34.473   2.236
13266W        W85680  10.284  36.944   4.333
13267W        W85681  15.206  39.011  11.396
13268W        W85682  36.897   9.159   1.881
13269W        W85683  35.513   5.870  12.384
13270W        W85684  22.016  13.840  13.924
13271W        W85685   8.839   8.368   3.636
13272W        W85686   0.983  26.609   9.924
13273W        W85687  13.210  43.439  10.527
13274W        W85688  43.302  17.624   0.322
13275W        W85689  32.466  29.983   3.703
13276W        W85690  25.668  34.530   4.749
13277W        W85691  42.522  34.598   2.763
13278W        W85692  20.128  21.745   1.314
13279W        W85693  13.212  34.586   4.132
13280W        W85694  37.502  25.644   2.748
13281W        W85695  27.997  15.806  11.072
13282W        W85696  22.151  14.771   4.796
13283W        W85697   0.278  37.065  14.772
13284W        W85698  33.102   5.359  11.936
13285W        W85699  24.098  11.698   1.849
13286W        W85700  23.609  25.523   1.361
13287W        W85701  25.610  20.539  14.359
13288W        W85702  36.458  32.616  14.761
13289W        W85703  18.700  43.929   1.919
13290W        W85704  33.935  38.857  13.469
13291W        W85705   3.848  41.448   4.256
13292W        W85706  43.990  22.551   2.242
13293W        W85707  18.144  44.353  13.059
13294W        W85708   2.833  13.201  11.375
13295W        W85709   3.787   4.442   2.371
13296W        W85710  38.450  16.584   0.294
13297W        W85711  39.467  17.202   4.267
13298W        W85712  35.977   2.948   0.252
13299W        W85713  25.968   2.453  10.485
13300W        W85714  42.858  11.216   3.862
13301W        W85715  37.988  29.928   4.685
13302W        W85716  20.166  10.195  13.488
13303W        W85717  21.052  38.988  14.937
13304W        W85718   7.238  44.755  10.415
13305W        W85719   1.332  17.561  14.297
13306W        W85720  27.463  24.504  13.919
13307W        W85721  31.982   6.909  11.116
13308W        W85722  11.246   1.458  11.012
13309W        W85723  33.032  17.750   1.318
13310W        W85724  32.023  33.506  12.570
13311W        W85725  11.858   4.277   2.324
13312W        W85726  17.723  38.476  12.957
13313W        W85727  31.084  22.572   4.254
13314W        W85728  27.065  27.023  11.977
13315W        W85729  40.996  22.602  12.867
13316W        W85730  17.237  43.781  10.548
13317W        W85731  31.051  24.126   2.225
13318W        W85732   6.195  13.753   3.786
13319W        W85733   8.233  19.642   2.688
13320W        W85734   6.861  44.264  10.475
13321W        W85735  38.050  15.141  12.004
13322W        W85736  12.684  37.859  11.931
13323W        W85737  17.138  42.024   2.401
13324W        W85738   8.736   6.213   2.191
13325W        W85739   7.309  17.648   4.741
13326W        W85740   1.937   6.405  14.838
13327W        W85741  28.623  15.754   4.208
13328W        W85742  22.208  17.653   5.307
13329W        W85743  28.939  31.554  13.064
13330W        W85744  28.540  16.149   1.801
13331W        W85745  34.454  42.430  12.003
13332W        W85746   7.810  40.011  10.898
13333W        W85747  44.451   2.239   0.326
13334W        W85748  20.156  12.840  13.060
13335W        W85749  36.846   6.389   1.400
13336W        W85750  33.074  21.751   0.353
13337W        W85751  40.428  35.583   1.833
13338W        W85752   1.439  36.971   3.163
13339W        W85753  15.205  17.113   4.127
13340W        W85754  13.794  43.977   0.476
13341W        W85755   0.296  43.349  12.968
13342W        W85756  17.134  20.654   3.208
13343W        W85757   1.414  18.642  11.513
13344W        W85758  29.506  13.351   2.323
13345W        W85759   3.918  27.531   9.485
13346W        W85760  19.129   9.653  11.485
13347W        W85761   4.423  13.296  13.361
13348W        W85762   2.894   7.765   0.835
13349W        W85763  31.556  10.369  12.950
13350W        W85764  30.529  12.644   2.814
13351W        W85765   0.826  40.360   1.420
13352W        W85766  38.876  41.426   5.176
13353W        W85767  18.659  12.172   2.788
13354W        W85768  14.135  44.847   1.428
13355W        W85769  36.539   6.277  14.822
13356W        W85770   3.779  44.840   0.460
13357W        W85771  35.487   2.302  12.825
13358W        W85772  18.665  31.055   2.807
13359W        W85773   4.375  12.712   1.902
13360W        W85774  41.523  13.699  10.975
13361W        W85775   2.310   5.201   0.273
13362W        W85776  33.535  37.350  11.470
13363W        W85777  43.963   6.777  11.057
13364W        W85778  43.516  24.484   4.670
13365W        W85779   7.744  32.116  13.907
13366W        W85780   3.954  10.834  10.453
13367W        W85781  42.864  39.360   0.245
13368W        W85782  12.785  38.972   2.842
13369W        W85783   9.782   8.363   0.321
13370W        W85784  28.994  12.124   1.402
13371W        W85785  41.020  28.111   3.384
13372W        W85786  36.563  43.909  12.433
13373W        W85787  25.161  14.720  14.455
13374W        W85788  19.110   4.372  11.026
13375W        W85789   3.395  16.761  11.940
13376W        W85790   5.799   8.896  11.909
13377W        W85791  24.077  17.249  14.471
13378W        W85792   4.865  39.544  14.487
13379W        W85793  32.914  29.534   1.928
13380W        W85794  41.904   5.880   4.200
13381W        W85795  19.776  17.758   0.416
13382W        W85796  42.784  35.460   3.770
13383W        W85797  14.732   9.188  12.938
13384W        W85798  23.210  41.904   1.851
13385W        W85799   2.366   4.321  12.516
13386W        W85800   4.429  19.228  13.939
13387W        W85801  31.100  21.656   1.440
13388W        W85802  25.615  21.645  11.499
13389W        W85803   0.871  22.528   3.790
13390W        W85804  17.102  43.782  14.978
13391W        W85805   5.375  25.684   1.409
13392W        W85806  25.103  32.048  11.901
13393W        W85807  22.046  38.062   1.267
13394W        W85808  29.154  16.769  11.973
13395W        W85809   4.440  40.868   0.928
13396W        W85810   2.234  17.205   2.742
13397W        W85811  44.754  15.174   0.953
13398W        W85812  19.102   1.366  13.978
13399W        W85813  15.677  43.501   4.642
13400W        W85814  17.745  17.170  14.768
13401W        W85815  41.345   7.888  14.928
13402W        W85816  29.572  35.531  11.939
13403W        W85817  42.341  31.566   4.335
13404W        W85818  14.715   0.790   3.230
13405W        W85819  21.085   8.699  14.345
13406W        W85820  37.363  25.140   1.792
13407W        W85821  28.159  44.305  13.979
13408W        W85822  44.487   5.814  10.625
13409W        W85823  13.155  18.058  13.464
13410W        W85824  42.887   3.269   4.316
13411W        W85825  11.744  15.601  14.479
13412W        W85826  36.548   8.333   0.324
13413W        W85827  26.185  39.544   1.842
13414W        W85828   7.838  23.502  13.938
13415W        W85829   7.332  15.267  10.950
13416W        W85830  24.155   8.162   4.802
13417W        W85831  12.791  41.383  14.875
13418W        W85832  44.385  42.497   1.317
13419W        W85833  12.621  10.864  11.986
13420W        W85834  11.288   7.243   3.342
13421W        W85835  16.304  41.881   4.750
13422W        W85836  11.168  22.123  10.519
13423W        W85837  19.635  32.563   0.350
13424W        W85838  32.577   2.284   1.281
13425W        W85839  16.272  25.030  13.441
13426W        W85840  30.950  40.020   1.893
13427W        W85841  23.119  30.537  10.453
13428W        W85842  12.753  24.534   4.313
13429W        W85843  38.019   6.922   3.250
13430W        W85844   6.340   0.457   2.319
13431W        W85845  32.120  26.086   1.868
13432W        W85846  30.115   3.752   0.811
13433W        W85847  19.229   4.250  14.358
13434W        W85848   0.820  22.616  11.900
13435W        W85849  42.804  37.361  13.795
13436W        W85850  22.067  32.012  12.830
13437W        W85851  28.967   4.311   2.412
13438W        W85852  34.107  23.600  14.904
13439W        W85853  31.496  35.973  13.537
13440W        W85854  31.928   3.818  13.005
13441W        W85855  42.922  43.923   0.736
13442W        W85856  19.588  10.156   3.151
13443W        W85857   6.862  10.769  10.449
13444W        W85858   6.817  43.885  10.509
13445W        W85859  23.685  18.552  14.886
13446W        W85860  42.523   7.199   0.813
13447W        W85861  16.668  35.508  12.083
13448W        W85862   9.216   8.372   3.365
13449W        W85863  10.367  19.750   0.441
13450W        W85864  13.218  27.945   4.711
13451W        W85865  40.475  23.068   0.887
13452W        W85866  17.781  27.604   0.881
13453W        W85867  36.451  15.273   2.299
13454W        W85868  28.953  18.205   4.244
13455W        W85869  44.774  29.106   3.153
13456W        W85870  10.187  35.430   0.843
13457W        W85871   1.914  28.516  13.978
13458W        W85872  35.001   7.338   2.285
13459W        W85873  32.575  33.601  12.490
13460W        W85874  18.643   9.765   1.345
13461W        W85875  44.979  15.584  10.625
13462W        W85876  33.395  42.387   3.353
13463W        W85877  12.702   5.431   4.801
13464W        W85878  31.990  12.854   3.331
13465W        W85879  41.411   5.427   0.798
13466W        W85880  22.135  21.729   2.247
13467W        W85881  44.479  17.168   1.260
13468W        W85882  38.352  20.217   1.867
13469W        W85883  34.987  39.885   2.710
13470W        W85884   3.775  23.530   1.355
13471W        W85885  32.593   5.750  11.097
13472W        W85886  16.639  35.852  11.947
13473W        W85887  33.604  16.310  11.435
13474W        W85888  31.441  12.616   2.338
13475W        W85889  19.694  40.044  10.564
13476W        W85890   9.368  15.255   1.815
13477W        W85891  42.852   5.276  12.850
13478W        W85892  28.507  43.983   3.268
13479W        W85893   5.871  35.999  12.524
13480W        W85894  24.622  24.689   3.246
13481W        W85895  36.939   2.447   4.144
13482W        W85896  17.783  12.153   4.327
13483W        W85897  14.635  12.729  10.897
13484W        W85898  31.603  40.959   2.707
13485W        W85899  42.987  33.552  13.805
13486W        W85900  32.426  27.648   0.894
13487W        W85901  24.608  38.059  11.405
13488W        W85902  10.662  12.349  13.852
13489W        W85903  21.211  20.034   3.818
13490W        W85904  13.739   3.434   1.295
13491W        W85905  27.022   5.386  13.822
13492W        W85906   8.244   4.877   2.343
13493W        W85907  19.565  34.376  11.570
13494W        W85908   7.785  26.607  13.955
13495W        W85909  10.736   3.390   3.849
13496W        W85910  27.485  31.928   2.853
13497W        W85911  30.569  43.971   1.878
13498W        W85912  28.046  38.550   4.214
13499W        W85913  28.033   0.341   4.313
13500W        W85914   5.910  23.631  10.461
13501W        W85915  35.422  15.244   2.849
13502W        W85916   1.793  10.353  12.038
13503W        W85917  24.509  18.593  14.394
13504W        W85918  27.561   6.297  10.494
13505W        W85919  34.881  30.617  12.964
13506W        W85920  26.011  29.104   2.819
13507W        W85921  20.651  11.764   4.636
13508W        W85922  40.957  18.626  12.049
13509W        W85923  36.473  13.806  14.299
13510W        W85924  41.837  20.702   3.202
13511W        W85925  44.888  17.702  10.998
13512W        W85926   0.371  34.551   1.429
13513W        W85927  30.442  31.957   2.772
13514W        W85928  30.095  32.597  10.934
13515W        W85929   9.791  42.996   3.675
13516W        W85930  16.089  17.119  11.465
13517W        W85931  11.864  25.680   4.280
13518W        W85932  19.071  24.514  12.012
13519W        W85933  42.946   3.743   4.836
13520W        W85934  20.035  28.982   0.310
13521W        W85935  29.994  23.093  12.906
13522W        W85936  27.165   1.798   1.402
13523W        W85937   3.453  13.235  11.006
13524W        W85938  39.445  13.657   1.923
13525W        W85939  33.477   7.213   3.634
13526W        W85940  44.924   3.429  13.815
13527W        W85941  18.227  28.586   4.220
13528W        W85942  35.398  41.917   2.355
13529W        W85943  24.479   9.809   0.845
13530W        W85944  40.422  41.356   1.416
13531W        W85945  15.824  26.090   3.249
13532W        W85946  42.910  33.503   1.244
13533W        W85947  11.679  31.574  10.450
13534W        W85948  19.579  27.123   3.384
13535W        W85949  39.953  28.608   4.752
13536W        W85950  35.578  28.094   4.719
13537W        W85951   0.447  24.635   0.906
13538W        W85952  29.510  31.639  11.867
13539W        W85953  35.022  34.920   4.836
13540W        W85954   7.787  26.185   4.200
13541W        W85955  44.919  28.437   0.251
13542W        W85956  12.713  33.104  13.354
13543W        W85957  38.544  38.561  12.968
13544W        W85958  21.634  37.050  13.795
13545W        W85959  43.938   8.177   3.173
13546W        W85960  14.822   7.382  13.846
13547W        W85961  13.768   7.194   3.335
13548W        W85962  40.480  24.612  11.400
13549W        W85963  31.564  16.119  12.053
13550W        W85964  15.695  44.347   5.099
13551W        W85965   5.740  15.124   3.829
13552W        W85966  19.100   0.894  13.874
13553W        W85967  13.662  21.215   2.746
13554W        W85968  19.680  12.202  11.908
13555W        W85969  33.044  37.581   4.130
13556W        W85970  12.820  40.476   0.759
13557W        W85971  35.414   2.309   1.350
13558W        W85972  36.351  35.943   1.365
13559W        W85973   9.354  10.296   0.252
13560W        W85974  39.357  37.438  13.811
13561W        W85975  40.031  33.114  10.544
13562W        W85976  27.686  12.119   0.255
13563W        W85977  22.138  24.214   1.332
13564W        W85978  27.487  36.536   0.447
13565W        W85979  20.629  11.298  11.051
13566W        W85980  37.400  33.097   5.737
13567W        W85981   7.179   1.748  11.862
13568W        W85982  11.210  29.980   3.222
13569W        W85983   5.701   9.391   3.191
13570W        W85984  44.786  19.123  12.911
13571W        W85985   5.214  40.930   9.940
13572W        W85986  13.703   9.287   4.794
13573W        W85987   7.253  21.208  10.419
13574W        W85988  22.120  17.796   1.250
13575W        W85989  43.942  15.774  12.476
13576W        W85990  30.453  33.028   2.787
13577W        W85991   8.277  28.579  10.892
13578W        W85992  16.772  23.609   3.314
13579W        W85993   7.699  14.593   4.727
13580W        W85994   5.424  21.154  14.313
13581W        W85995  22.193  19.740  11.047
13582W        W85996  22.051  15.621  11.605
13583W        W85997  25.172   0.918  11.861
13584W        W85998   8.788  39.393   1.445
13585W        W85999  12.847   6.199  13.991
13586W        W86000   1.946  18.704   3.785
13587W        W86001  16.754  18.144   2.772
13588W        W86002   3.788  14.684   1.728
13589W        W86003   3.394  35.501  10.932
13590W        W86004  41.467  29.106  12.019
13591W        W86005   8.292  42.787   2.748
13592W        W86006  32.986  42.432  12.523
13593W        W86007   2.942   6.747  12.536
13594W        W86008  15.209   7.724   1.763
13595W        W86009  39.356  41.310  10.959
13596W        W86010  40.327  16.102  12.476
13597W        W86011  10.796  32.922   2.364
13598W        W86012  41.002  25.127   2.411
13599W        W86013  33.062  31.462   4.617
13600W        W86014  14.793  12.232  13.402
13601W        W86015   7.317   0.341   0.767
13602W        W86016  24.189  33.522   3.171
13603W        W86017   8.760  38.912  11.986
13604W        W86018  43.500   6.693   4.614
13605W        W86019   0.364  38.996   0.392
13606W        W86020   8.728  18.137  10.529
13607W        W86021   6.740   0.330   1.890
13608W        W86022   2.754  42.896  12.094
13609W        W86023  40.934  43.814  13.509
13610W        W86024  32.400  35.442  10.504
13611W        W86025   5.903  41.335  13.327
13612W        W86026  30.072   5.820   2.750
13613W        W86027  22.009  37.891  12.063
13614W        W86028  29.078  25.529   4.124
13615W        W86029  33.481   4.941  13.409
13616W        W86030  10.781  33.487   3.197
13617W        W86031  19.774  19.172  13.928
13618W        W86032  28.667  30.052   2.877
13619W        W86033  36.023  26.171   4.151
13620W        W86034  43.845  28.610   4.723
13621W        W86035  29.567  32.532  11.998
13622W        W86036  29.933  35.490   4.642
13623W        W86037  29.134  27.053   4.183
13624W        W86038  22.223   1.483  11.043
13625W        W86039  21.169   4.239  10.473
13626W        W86040   1.846  23.500   3.166
13627W        W86041  39.350   8.232   4.707
13628W        W86042  27.943   8.798  13.023
13629W        W86043  15.788  21.036   1.863
13630W        W86044  22.076   3.295  11.933
13631W        W86045  13.656  39.462  11.612
13632W        W86046  44.900  31.419   0.302
13633W        W86047  31.999  12.631   4.633
13634W        W86048  39.935  35.480  13.429
13635W        W86049  18.638  36.436  14.830
13636W        W86050   4.309   8.276  10.945
13637W        W86051  31.458  20.768  11.060
13638W        W86052  31.531   7.676   2.273
13639W        W86053  18.084  20.179  10.422
13640W        W86054   0.834  26.071   2.302
13641W        W86055  29.460  35.021   0.832
13642W        W86056   5.276  43.971  13.014
13643W        W86057  38.521   4.931   1.325
13644W        W86058  17.148  29.129   3.253
13645W        W86059  13.211  18.697  10.426
13646W        W86060   2.784  32.619   0.278
13647W        W86061  19.639  28.085   0.809
13648W        W86062  23.711  32.474  14.407
13649W        W86063   2.880  18.738  14.849
13650W        W86064  27.510   7.261  13.412
13651W        W86065  39.523  40.410   3.203
13652W        W86066  39.032  35.467  11.610
13653W        W86067  42.874  10.294  14.894
13654W        W86068  11.228  12.225  11.983
13655W        W86069  37.038  27.465   3.657
13656W        W86070   1.733  38.548   0.800
13657W        W86071  39.400  21.532  11.969
13658W        W86072  41.965  26.533  14.318
13659W        W86073  24.995  44.953  13.861
13660W        W86074  15.198   5.304   1.227
13661W        W86075   6.196  26.500   3.631
13662W        W86076  23.225   1.394   1.212
13663W        W86077  26.601  24.582  13.047
13664W        W86078  23.206  35.100  14.456
13665W        W86079  29.524  44.963  12.048
13666W        W86080  39.862  38.453   1.916
13667W        W86081   3.346  28.010   9.488
13668W        W86082  37.081  16.729  14.316
13669W        W86083   1.453  39.045   1.857
13670W        W86084  24.612  20.081  14.927
13671W        W86085  39.858  22.716  11.500
13672W        W86086   3.778   4.387  13.444
13673W        W86087  39.332  25.664  12.357
13674W        W86088  40.528  28.976  12.446
13675W        W86089  35.579  19.559   1.336
13676W        W86090  19.569  19.199   0.883
13677W        W86091  38.845  38.413   3.379
13678W        W86092  39.872   1.824  11.892
13679W        W86093  44.495  16.571   3.860
13680W        W86094  16.090  40.943   3.148
13681W        W86095   9.796  34.997  14.460
13682W        W86096  17.560   4.769  11.393
13683W        W86097  10.218  29.156   1.343
13684W        W86098  20.178  16.629   3.864
13685W        W86099  38.347   4.770   4.763
13686W        W86100  23.118  43.445   4.350
13687W        W86101  14.604  23.506   3.763
13688W        W86102  22.558  17.795   9.930
13689W        W86103  10.725   7.300   5.202
13690W        W86104  27.522  42.942  13.509
13691W        W86105   7.882  27.058   4.737
13692W        W86106  19.629  44.329   3.633
13693W        W86107  25.651  13.744  12.823
13694W        W86108  36.084  29.056  11.520
13695W        W86109  27.051  41.003   4.327
13696W        W86110  40.450  18.239   1.837
13697W        W86111  13.845   9.348   3.739
13698W        W86112  32.052   1.736  12.047
13699W        W86113  38.074  26.081  11.036
13700W        W86114   9.816  30.594  10.504
13701W        W86115   5.217   1.440  12.021
13702W        W86116  19.111  40.546  12.389
13703W        W86117  11.231  27.572  11.089
13704W        W86118  21.203   1.777  14.956
13705W        W86119  42.814  26.144  14.502
13706W        W86120  31.937  18.564   1.813
13707W        W86121  15.272  23.651  13.497
13708W        W86122  26.623  19.642  10.961
13709W        W86123  38.986  42.917   5.081
13710W        W86124   2.234  17.170   0.850
13711W        W86125  40.970  28.160  11.498
13712W        W86126  42.504   0.760  11.480
13713W        W86127   1.268  42.435  12.941
13714W        W86128  25.682  32.061  10.565
13715W        W86129  18.760   8.737  13.432
13716W        W86130  28.467  44.996   0.751
13717W        W86131  37.881  29.021   2.822
13718W        W86132  17.094  24.077  10.428
13719W        W86133   2.755  42.334   3.657
13720W        W86134  22.589  16.763  12.880
13721W        W86135   9.244  19.236   1.246
13722W        W86136  35.447   6.719   0.471
13723W        W86137   9.704  44.269  10.921
13724W        W86138   3.349   6.877  12.857
13725W        W86139  22.034  39.893  14.958
13726W        W86140   0.904  25.556   3.194
13727W        W86141   8.814  15.115   2.672
13728W        W86142  17.598  25.593  12.865
13729W        W86143  34.602   2.312   1.218
13730W        W86144   8.794  30.139  11.379
13731W        W86145  19.731  40.964  13.018
13732W        W86146  30.098  16.127   1.754
13733W        W86147  20.530   4.445  13.416
13734W        W86148  22.041  39.980  13.483
13735W        W86149  28.556  13.150  12.369
13736W        W86150  31.564  26.039  13.809
13737W        W86151  15.171  44.340   4.235
13738W        W86152   6.404  19.074   1.340
13739W        W86153  28.661  12.265   4.334
13740W        W86154  43.317  34.113   2.836
13741W        W86155  43.857   4.390   3.253
13742W        W86156   2.909   2.947  11.901
13743W        W86157  19.163  37.951  14.473
13744W        W86158  34.071  20.677   2.866
13745W        W86159  13.223   6.274   4.324
13746W        W86160  33.982  32.994  12.860
13747W        W86161  11.719  28.104  14.994
13748W        W86162   4.791  21.532  11.437
13749W        W86163  38.494   5.761  14.493
13750W        W86164  25.484  21.220   9.988
13751W        W86165  19.214  26.043  12.416
13752W        W86166  40.433  12.823   2.745
13753W        W86167  15.686  28.473   0.449
13754W        W86168  26.015   5.832  13.894
13755W        W86169  25.548  44.950  12.401
13756W        W86170   5.381  26.510  13.854
13757W        W86171  15.649  22.194   0.323
13758W        W86172  24.624  30.573   3.712
13759W        W86173  35.547  42.309   0.951
13760W        W86174  12.215   0.791   1.431
13761W        W86175  17.247   6.359   2.410
13762W        W86176  31.934  22.038  13.055
13763W        W86177  41.828  18.580   2.319
13764W        W86178  40.798  17.561   0.927
13765W        W86179  23.623  22.008  13.846
13766W        W86180  32.107  16.614   0.462
13767W        W86181  18.711  19.264  14.828
13768W        W86182  14.737   0.916  11.086
13769W        W86183  11.295  17.130   2.255
13770W        W86184   6.855  24.036   1.284
13771W        W86185  29.605  20.239  10.981
13772W        W86186  43.361  24.024  14.901
13773W        W86187  43.019  38.341   4.819
13774W        W86188  43.284  20.539  11.871
13775W        W86189  22.578  31.465  13.506
13776W        W86190  21.046   3.290   1.760
13777W        W86191   7.756  10.706  14.957
13778W        W86192  27.486  21.031  14.984
13779W        W86193  15.089  21.542   4.827
13780W        W86194  11.214  12.128  13.393
13781W        W86195   8.220  20.122   1.855
13782W        W86196   0.249  25.534  13.485
13783W        W86197  24.035   1.978  14.995
13784W        W86198   7.693   0.883   2.354
13785W        W86199  25.163  43.892   1.211
13786W        W86200  26.658  27.492   4.271
13787W        W86201  12.782  39.504   0.479
13788W        W86202  42.791  35.033   2.238
13789W        W86203  16.094  12.815  14.872
13790W        W86204  37.901  22.180   3.262
13791W        W86205  12.612  40.482   3.371
13792W        W86206  17.800  32.497   1.710
13793W        W86207  25.016  26.159  11.973
13794W        W86208  36.015  17.251  10.988
13795W        W86209  17.720  10.700  13.507
13796W        W86210  38.485  19.686  12.887
13797W        W86211  33.543  22.554   5.315
13798W        W86212  31.145  42.502  14.829
13799W        W86213  13.672   4.269   3.347
13800W        W86214   2.887  25.088   4.188
13801W        W86215  37.957  26.523  12.967
13802W        W86216  30.154  22.709  12.502
13803W        W86217  33.982  19.086  11.117
13804W        W86218  14.211  40.430   1.895
13805W        W86219  33.982  35.557   4.156
13806W        W86220  22.738  24.171   0.735
13807W        W86221  25.701  44.944   1.837
13808W        W86222  39.321  34.079   3.330
13809W        W86223  20.729  37.367   2.694
13810W        W86224  17.579  37.472  10.962
13811W        W86225  18.621  36.530   0.900
13812W        W86226  44.290  19.591   0.825
13813W        W86227  27.618  16.084  13.485
13814W        W86228  32.972  39.878  14.300
13815W        W86229  19.712  17.701  14.399
13816W        W86230   8.310  24.584  11.466
13817W        W86231  42.349  28.145   4.654
13818W        W86232  21.180  41.488  13.391
13819W        W86233  22.229  36.561   2.870
13820W        W86234  28.621  12.790   4.208
13821W        W86235  13.835  38.337   1.448
13822W        W86236  36.556  43.017  11.388
13823W        W86237  43.490  27.946  13.852
13824W        W86238  10.205  19.231   1.290
13825W        W86239   0.340  25.130   0.879
13826W        W86240  42.854  20.093  14.278
13827W        W86241  43.907  43.815   0.481
13828W        W86242  27.012  13.324   1.297
13829W        W86243  13.226  21.080  13.889
13830W        W86244  42.393  24.614  12.034
13831W        W86245  17.117  22.156  14.301
13832W        W86246   6.879   2.783  14.014
13833W        W86247   8.274  10.874  10.476
13834W        W86248  14.789  24.552  12.918
13835W        W86249  16.212  22.565  11.606
13836W        W86250   1.312  33.458   0.878
13837W        W86251  22.619  39.447   0.910
13838W        W86252  41.292  11.357   1.350
13839W        W86253  27.532  43.874   3.796
13840W        W86254  40.966  26.497  14.361
13841W        W86255  28.991   1.299  11.380
13842W        W86256  30.592  34.905  13.858
13843W        W86257  26.698   5.715  14.789
13844W        W86258   7.804  21.556  11.599
13845W        W86259  28.186  21.559  13.320
13846W        W86260  21.045  17.175   4.800
13847W        W86261   8.404  33.121  14.028
13848W        W86262  17.590  29.092   3.644
13849W        W86263  30.457   7.415   3.328
13850W        W86264  19.693  34.878  12.854
13851W        W86265  24.201  35.604  12.948
13852W        W86266   2.783  40.371   0.968
13853W        W86267  26.552   8.397  13.043
13854W        W86268  13.259  24.166   1.785
13855W        W86269  38.830  14.652  12.406
13856W        W86270  42.411  43.814  10.561
13857W        W86271  38.559  34.098   1.837
13858W        W86272  18.553   9.189   1.234
13859W        W86273  20.032  22.058  12.902
13860W        W86274   3.295  42.915  14.892
13861W        W86275  26.490  11.165   3.738
13862W        W86276  17.725  33.068  14.339
13863W        W86277   9.381  20.764   2.771
13864W        W86278  25.193  33.902   2.823
13865W        W86279  30.150  26.155  10.423
13866W        W86280  16.211   6.412   3.629
13867W        W86281   0.771   2.795  13.876
13868W        W86282  29.433   3.867  13.874
13869W        W86283  42.862   2.247   0.939
13870W        W86284  41.845   0.975   0.471
13871W        W86285  37.086  37.366  10.461
13872W        W86286  38.435  27.008  14.452
13873W        W86287  10.286   4.406  12.996
13874W        W86288  13.261   8.216   4.726
13875W        W86289  44.982  10.793   2.836
13876W        W86290  12.623   6.778  10.147
13877W        W86291  21.723   9.663   2.351
13878W        W86292  20.244   1.875  12.967
13879W        W86293  30.940  29.029  11.414
13880W        W86294  37.565  19.259  12.344
13881W        W86295  19.546  27.528   0.335
13882W        W86296  35.417   6.211   1.439
13883W        W86297  17.241  30.049   4.321
13884W        W86298  30.454  39.323   2.225
13885W        W86299  34.053  27.580   4.775
13886W        W86300  33.986  15.127   3.769
13887W        W86301  33.936   3.868   0.401
13888W        W86302   4.419  17.704  10.463
13889W        W86303  16.251  19.648   9.633
13890W        W86304  43.501  22.718   1.334
13891W        W86305  38.527  40.800  11.072
13892W        W86306  21.148  31.957   5.219
13893W        W86307  44.768  36.022   0.967
13894W        W86308  33.626  24.132   9.638
13895W        W86309  38.368   8.264   0.399
13896W        W86310  17.175   1.864   0.748
13897W        W86311  35.544  37.055   0.324
13898W        W86312  15.643  39.976   1.447
13899W        W86313   6.853  19.626  12.567
13900W        W86314  30.547  44.396   1.210
13901W        W86315  34.055  24.505  11.459
13902W        W86316  40.874  39.812  12.423
13903W        W86317  33.131   1.745   0.447
13904W        W86318  30.464  13.181   4.632
13905W        W86319  14.222  20.647   0.840
13906W        W86320  19.095  42.419   0.428
13907W        W86321  37.027  35.558   4.333
13908W        W86322  31.571  43.778   2.382
13909W        W86323  42.797  41.496  13.870
13910W        W86324  40.541   7.347   1.239
13911W        W86325  28.624  17.747   1.713
13912W        W86326  14.097  44.342  10.906
13913W        W86327  12.636  11.324  14.437
13914W        W86328  22.603  25.692   0.437
13915W        W86329   5.852  16.255  14.444
13916W        W86330  10.347  22.656  10.958
13917W        W86331  40.913  19.160   0.274
13918W        W86332   2.963  10.328  13.952
13919W        W86333  26.989  41.524  11.587
13920W        W86334  26.973  27.095   1.778
13921W        W86335  33.550  32.569   2.183
13922W        W86336  26.593   0.937   1.217
13923W        W86337  22.133  28.060  12.428
13924W        W86338   4.755  12.842   0.412
13925W        W86339  38.862  35.961   3.803
13926W        W86340  19.118  28.086  14.921
13927W        W86341  32.632   7.769  12.494
13928W        W86342   0.750  26.688  12.947
13929W        W86343  20.597  26.688  14.909
13930W        W86344  39.020  11.258  14.312
13931W        W86345  35.057  12.267   1.869
13932W        W86346   8.802  13.729  12.514
13933W        W86347   8.844  18.268  12.561
13934W        W86348  22.562  37.832   4.320
13935W        W86349  26.183   5.780  14.819
13936W        W86350  43.307  24.633  11.567
13937W        W86351  16.762   0.315   1.288
13938W        W86352  12.724  40.502   4.725
13939W        W86353  43.473  17.243  14.396
13940W        W86354  27.646  44.777   3.273
13941W        W86355   9.332  12.673  11.477
13942W        W86356   8.656  10.824  12.539
13943W        W86357  33.451  24.028   1.746
13944W        W86358  36.414  27.687   4.184
13945W        W86359  18.578  33.474   4.345
13946W        W86360  37.906   3.450   1.812
13947W        W86361   0.773  31.471   4.318
13948W        W86362   4.760   9.333   2.766
13949W        W86363  44.313  19.666   0.332
13950W        W86364  40.466   8.657   2.882
13951W        W86365  14.261  43.934   3.766
13952W        W86366   5.203  25.010  12.048
13953W        W86367  28.552  25.108  11.992
13954W        W86368  20.758  37.339   4.774
13955W        W86369  14.205   3.797  12.937
13956W        W86370   2.938  30.641   1.214
13957W        W86371  19.184  19.114  11.431
13958W        W86372   5.815  29.618   4.681
13959W        W86373   3.755  20.135   3.292
13960W        W86374  36.480  20.603  14.926
13961W        W86375   5.880  32.903   0.434
13962W        W86376  27.964   1.875  10.000
13963W        W86377  18.158  20.763   3.756
13964W        W86378  35.967   5.345  12.090
13965W        W86379  24.545  34.120  11.110
13966W        W86380  34.911  21.604  10.453
13967W        W86381   5.251  24.719   1.913
13968W        W86382  13.285   4.779  12.523
13969W        W86383  35.091  21.530   1.743
13970W        W86384  24.493  28.502   0.872
13971W        W86385  14.623  18.648   2.671
13972W        W86386  16.691  41.907  14.887
13973W        W86387  17.083  25.139   1.742
13974W        W86388  40.835  44.412  12.371
13975W        W86389  34.390  26.964  13.431
13976W        W86390  10.256  35.975   1.377
13977W        W86391  37.997  41.414  11.407
13978W        W86392  40.320  41.522   1.791
13979W        W86393  35.886  29.047  13.877
13980W        W86394  24.709   5.695  14.021
13981W        W86395  17.562  29.039  11.114
13982W        W86396   0.395  40.438  13.848
13983W        W86397  17.610  40.354   3.377
13984W        W86398   8.388  35.528   1.918
13985W        W86399   8.847  29.117   3.688
13986W        W86400  26.475   6.300   1.801
13987W        W86401  23.106   4.812   0.270
13988W        W86402  11.822   3.949   0.863
13989W        W86403  11.683  12.630   4.710
13990W        W86404   1.935  31.088   4.801
13991W        W86405  33.893   7.205   0.357
13992W        W86406  15.124  40.386  10.932
13993W        W86407  29.000  33.604   3.802
13994W        W86408  38.361  42.391   3.744
13995W        W86409  35.454   7.189   4.180
13996W        W86410  15.145  22.693  10.601
13997W        W86411  41.002   5.367  12.943
13998W        W86412  23.159  37.031   3.199
13999W        W86413  33.381   6.911  11.586
14000W        W86414  14.686  44.813  11.384
14001W        W86415   5.380  11.700   0.385
14002W        W86416  41.803   4.787   3.786
14003W        W86417  27.969   3.771   2.852
14004W        W86418  28.961  13.665   1.311
14005W        W86419  25.610  31.402   0.456
14006W        W86420  28.117  14.604  10.414
14007W        W86421  30.970  17.104   0.898
14008W        W86422  24.517  26.108   1.871
14009W        W86423   6.396   8.162   2.224
14010W        W86424  22.086  16.209  11.086
14011W        W86425  15.667  34.083  14.863
14012W        W86426  10.709  14.283  12.081
14013W        W86427  24.593  37.087  14.950
14014W        W86428  30.084  14.689   2.394
14015W        W86429  24.664  13.198  12.461
14016W        W86430  37.442  44.918   1.853
14017W        W86431  28.140   5.324   3.683
14018W        W86432  11.263  40.425  10.606
14019W        W86433  44.878  23.066  11.580
14020W        W86434  34.370  14.130   4.293
14021W        W86435  36.895  20.230   0.803
14022W        W86436  17.114  29.628  12.879
14023W        W86437  24.638  37.018  13.307
14024W        W86438  36.441   7.860   1.229
14025W        W86439  37.347  41.815   3.325
14026W        W86440  33.535  32.970  13.535
14027W        W86441  35.434  17.197  13.380
14028W        W86442  22.060  36.438   1.237
14029W        W86443  26.117  23.609   4.305
14030W        W86444   0.797   7.195  14.798
14031W        W86445  33.991   4.254   0.805
14032W        W86446   0.770  32.416   1.701
14033W        W86447   2.406  17.583   2.825
14034W        W86448  37.444  44.488  13.036
14035W        W86449  14.652   9.163  11.122
14036W        W86450   6.258  38.348  10.406
14037W        W86451  25.706  40.868  11.498
14038W        W86452  23.092  41.948  13.851
14039W        W86453  16.743  25.680  12.887
14040W        W86454  43.357   2.784  11.009
14041W        W86455  11.685  17.651  13.375
14042W        W86456   6.263  41.530   4.793
14043W        W86457  16.632   0.488   5.734
14044W        W86458  32.622   0.873  11.956
14045W        W86459  26.187  15.236  11.992
14046W        W86460  21.251  38.981  13.344
14047W        W86461  35.857  13.783  14.875
14048W        W86462   5.427   5.213   2.328
14049W        W86463   6.790  11.868   1.219
14050W        W86464  38.058  33.488   0.758
14051W        W86465  19.758  25.219  14.980
14052W        W86466  37.983  17.689   1.741
14053W        W86467  17.769  10.876   2.812
14054W        W86468  19.643  19.101  12.950
14055W        W86469   6.277  35.005   0.274
14056W        W86470   0.307  20.042   2.299
14057W        W86471  27.643  14.658   1.767
14058W        W86472  39.410  29.593   3.783
14059W        W86473   4.213  42.341   4.322
14060W        W86474   3.884  28.004   5.136
14061W        W86475   2.845  34.446  13.861
14062W        W86476  27.149   6.755   1.308
14063W        W86477   3.361  28.641   9.491
14064W        W86478   7.377   8.239  10.439
14065W        W86479  41.528  37.555  13.822
14066W        W86480  31.963   9.726   5.317
14067W        W86481  34.985  25.642   2.257
14068W        W86482   9.352  39.983  14.843
14069W        W86483   6.730  33.070  10.500
14070W        W86484  20.045  32.402   1.254
14071W        W86485  25.655  25.157   3.377
14072W        W86486  28.535  33.069  13.465
14073W        W86487  11.278  13.777   4.698
14074W        W86488  30.131   1.755  10.908
14075W        W86489  20.759   1.943  13.363
14076W        W86490  40.052   6.719   4.789
14077W        W86491  40.376  35.988   3.353
14078W        W86492   7.865   0.955  14.367
14079W        W86493  42.423   8.322  13.866
14080W        W86494  27.127  43.341   2.232
14081W        W86495  40.798  30.962  11.980
14082W        W86496   5.815  35.926   1.862
14083W        W86497  24.716  19.562  14.942
14084W        W86498   3.873  42.500  11.601
14085W        W86499  27.637  25.011   3.337
14086W        W86500  10.290  23.202  11.529
14087W        W86501  37.943  42.867   4.191
14088W        W86502  14.309  32.576  13.805
14089W        W86503  36.049   6.235  11.419
14090W        W86504   7.280   1.788   1.290
14091W        W86505   1.390  28.497   2.840
14092W        W86506  18.651  35.585   4.150
14093W        W86507   8.191  13.261   1.247
14094W        W86508   3.392  43.303   5.766
14095W        W86509  30.580  19.053   0.407
14096W        W86510  22.191  26.952   0.809
14097W        W86511  36.492  40.839   3.851
14098W        W86512   3.826  27.061  13.343
14099W        W86513   4.802  41.838  14.456
14100W        W86514  19.109  40.538  13.379
14101W        W86515  26.528   8.776   1.442
14102W        W86516  15.629  36.865   1.212
14103W        W86517  32.428  39.458   1.375
14104W        W86518  34.988  40.893  13.049
14105W        W86519  21.585  23.490  14.904
14106W        W86520   2.843  30.073  12.539
14107W        W86521  15.775  15.177  14.940
14108W        W86522  36.937   3.423   9.933
14109W        W86523  28.640   3.379  12.556
14110W        W86524  16.147  36.034  13.414
14111W        W86525  37.377  29.966   3.364
14112W        W86526  17.776  21.523   4.288
14113W        W86527  39.035  44.910  11.383
14114W        W86528  40.959  38.507   0.915
14115W        W86529  19.046  38.919  14.436
14116W        W86530  31.450  28.594  14.410
14117W        W86531  36.354  18.552   0.964
14118W        W86532  29.472  33.411   5.213
14119W        W86533   2.378  11.631   2.682
14120W        W86534   1.372  36.889   4.796
14121W        W86535  16.101  17.685  13.841
14122W        W86536  23.611  34.910  11.602
14123W        W86537  20.733  16.313  12.507
14124W        W86538  37.029  39.533   3.187
14125W        W86539   6.204  20.531  14.455
14126W        W86540  24.577  33.439   1.445
14127W        W86541  18.756  40.481   2.903
14128W        W86542  42.789   2.855   0.922
14129W        W86543   0.815  40.509   5.266
14130W        W86544   9.292  14.281   4.238
14131W        W86545  42.468  33.919   3.177
14132W        W86546  41.370  42.338   0.883
14133W        W86547  16.226  43.490  14.879
14134W        W86548  38.361  24.016  10.576
14135W        W86549  15.638  43.301  10.445
14136W        W86550   4.939  38.570  12.929
14137W        W86551  30.426  21.062  11.584
14138W        W86552   2.381  42.446  10.144
14139W        W86553  32.407  23.181   0.483
14140W        W86554   3.443   4.269   2.867
14141W        W86555   2.321   7.208  13.947
14142W        W86556  37.996  13.239  10.887
14143W        W86557  32.512  10.237   1.241
14144W        W86558  18.295  34.379   3.347
14145W        W86559   0.894  42.917  12.076
14146W        W86560  27.159  42.331   2.851
14147W        W86561  30.027  29.522  11.056
14148W        W86562   9.331   6.372   4.638
14149W        W86563  28.620  40.844   1.321
14150W        W86564   1.264   3.915   2.699
14151W        W86565  41.503  37.423  14.855
14152W        W86566  31.593   7.677  10.488
14153W        W86567   0.933   0.831  14.012
14154W        W86568  34.484   1.874   2.332
14155W        W86569   3.303   7.837  12.474
14156W        W86570  14.705  21.603   2.364
14157W        W86571  16.246  32.013  11.907
14158W        W86572  25.979  13.134   1.383
14159W        W86573  35.906  35.461  11.961
14160W        W86574  28.559   6.715   2.788
14161W        W86575  25.061   8.762   1.275
14162W        W86576  23.574  40.337   3.170
14163W        W86577  11.278  24.673   3.322
14164W        W86578  30.462  35.047   5.217
14165W        W86579  27.640   8.807  14.948
14166W        W86580  25.610  28.953  10.911
14167W        W86581  33.071  37.422   1.818
14168W        W86582  44.757   9.202  11.126
14169W        W86583  21.576   7.799  14.828
14170W        W86584  37.903   4.703   0.946
14171W        W86585   7.849  43.936  12.057
14172W        W86586   7.896  24.056   1.394
14173W        W86587  13.196  28.466   3.197
14174W        W86588   3.391  31.439  14.829
14175W        W86589  24.009  24.555  13.888
14176W        W86590  10.196   3.941   0.442
14177W        W86591   1.266  24.032  11.608
14178W        W86592   0.753  27.472  14.403
14179W        W86593   1.306  15.583  14.774
14180W        W86594   2.848  43.970  11.536
14181W        W86595  32.604  36.537   3.287
14182W        W86596  36.915  10.168   0.801
14183W        W86597  20.629   2.365  11.077
14184W        W86598  15.241  39.998  14.281
14185W        W86599  28.518  25.529  13.914
14186W        W86600  42.444  29.550  10.501
14187W        W86601   2.300  13.645   4.715
14188W        W86602  15.727  44.930  13.056
14189W        W86603  26.481  24.682  14.374
14190W        W86604  32.524  43.339   0.389
14191W        W86605  22.128  17.667   4.656
14192W        W86606  11.157   0.427  10.914
14193W        W86607  31.554  25.007  10.429
14194W        W86608   2.236  24.182   0.402
14195W        W86609   2.872  34.594  12.867
14196W        W86610  30.593   6.905  11.909
14197W        W86611  21.242  12.629  13.397
14198W        W86612   3.302  13.255   3.720
14199W        W86613  10.198  37.951   0.868
14200W        W86614   8.763   1.446  14.783
14201W        W86615  26.004  36.007   3.229
14202W        W86616   0.928  35.476  11.065
14203W        W86617  28.638  33.940  10.904
14204W        W86618  11.321  19.703   2.880
14205W        W86619  36.413  12.616   2.786
14206W        W86620  26.613  23.994   3.828
14207W        W86621  23.583  14.265  12.851
14208W        W86622  16.317  20.044   1.868
14209W        W86623  12.280  35.592   2.419
14210W        W86624   7.408  17.627   4.275
14211W        W86625  35.894  16.646  11.569
14212W        W86626  31.551   4.722   4.661
14213W        W86627   7.688  30.582  12.847
14214W        W86628  36.577   1.475  12.505
14215W        W86629  10.714   5.831  13.951
14216W        W86630  10.342  26.525  11.419
14217W        W86631  42.439  11.129  13.041
14218W        W86632  15.126   6.413   2.685
14219W        W86633   6.369  10.783  12.539
14220W        W86634  24.039  39.967  10.899
14221W        W86635  38.455  23.073   3.306
14222W        W86636  12.326  41.910   4.750
14223W        W86637  42.996   3.752  13.831
14224W        W86638  44.799  36.959   3.645
14225W        W86639   6.214  34.517  14.886
14226W        W86640  44.411  40.365   1.449
14227W        W86641  37.449  20.153   3.176
14228W        W86642  39.479   4.892  11.998
14229W        W86643  35.548  30.120  11.424
14230W        W86644  14.728  35.582   1.432
14231W        W86645  13.775  16.675   4.709
14232W        W86646  38.502   1.821  10.516
14233W        W86647  30.039  40.978  12.411
14234W        W86648   8.355   0.342  13.982
14235W        W86649  34.614  21.573  13.063
14236W        W86650   8.285  17.181  12.424
14237W        W86651  33.441  20.667  10.136
14238W        W86652  20.065   2.331   3.772
14239W        W86653  31.449  29.114  10.989
14240W        W86654  11.167  17.795   0.476
14241W        W86655  12.770  31.109  11.084
14242W        W86656  25.594  44.480   4.755
14243W        W86657  26.953   2.851  12.419
14244W        W86658   7.210   9.805  14.432
14245W        W86659   3.742  21.749  14.774
14246W        W86660  26.468  39.534  12.011
14247W        W86661  28.529   1.775  11.859
14248W        W86662   0.853  15.761  13.846
14249W        W86663  21.113  39.049   5.250
14250W        W86664   1.757  25.714  11.496
14251W        W86665  25.521  16.176  12.093
14252W        W86666  16.312  25.086  10.908
14253W        W86667  23.062  14.250   3.746
14254W        W86668  20.623  32.976   1.285
14255W        W86669  13.350   2.775   1.867
14256W        W86670   4.873   1.733   4.792
14257W        W86671   3.710  38.840   3.771
14258W        W86672  37.388   3.800  11.068
14259W        W86673  39.861  24.520   3.658
14260W        W86674  43.876  29.923   0.745
14261W        W86675  11.136  32.918  12.826
14262W        W86676  18.158  28.486   0.891
14263W        W86677   7.183  29.154  13.439
14264W        W86678  37.912  35.416   3.750
14265W        W86679  19.216  29.160   0.798
14266W        W86680  44.268  17.235  12.978
14267W        W86681  18.722  43.839  13.426
14268W        W86682   3.254   7.306   0.325
14269W        W86683  26.031   2.410  12.938
14270W        W86684   8.734   2.773  13.061
14271W        W86685  16.616  35.386  10.509
14272W        W86686   8.252  31.403  12.520
14273W        W86687  40.302   1.771  10.108
14274W        W86688   6.808  16.149  11.058
14275W        W86689  29.453  24.520  12.433
14276W        W86690  44.790  10.326   0.340
14277W        W86691  21.731  10.659   2.794
14278W        W86692  22.523  41.950   4.180
14279W        W86693   8.659   3.764  11.944
14280W        W86694  11.831   8.187   2.387
14281W        W86695  17.130  37.464  11.890
14282W        W86696  40.388  14.219   3.284
14283W        W86697   7.699  24.224  11.987
14284W        W86698  23.210  21.674  11.475
14285W        W86699   9.827  26.553  14.858
14286W        W86700   3.940   1.734  10.497
14287W        W86701  10.275  27.688  10.534
14288W        W86702  36.011   9.198   5.111
14289W        W86703  40.453  22.567  14.319
14290W        W86704  12.250  42.391   4.786
14291W        W86705   2.422  22.190  13.974
14292W        W86706  24.049  30.451  10.434
14293W        W86707  40.820  17.287  10.606
14294W        W86708   8.714  39.480   4.688
14295W        W86709  17.295  21.646  12.483
14296W        W86710   9.712  42.306  10.518
14297W        W86711  14.151   4.815   5.099
14298W        W86712  30.128  11.785  12.841
14299W        W86713  17.571   6.367  10.607
14300W        W86714  43.801  27.669   2.290
14301W        W86715  41.970   7.191   5.190
14302W        W86716  17.304  23.655   4.257
14303W        W86717  30.432  21.083   0.774
14304W        W86718  44.307  16.707   1.704
14305W        W86719  35.907  18.764  14.294
14306W        W86720  39.409  41.805   2.728
14307W        W86721  28.601  33.434   0.791
14308W        W86722  26.637   8.396  11.593
14309W        W86723   7.185   2.284   0.254
14310W        W86724  35.358  30.042  12.390
14311W        W86725  31.130  26.484   0.364
14312W        W86726  14.735  21.203   1.914
14313W        W86727  32.632  23.626  12.386
14314W        W86728  26.185  43.481  12.431
14315W        W86729  33.431   5.868   5.233
14316W        W86730  42.422  29.474   2.385
14317W        W86731  24.094  27.458  13.495
14318W        W86732  44.370  42.940   2.349
14319W        W86733  34.543  27.553   1.247
14320W        W86734  44.889  19.116   3.203
14321W        W86735   0.783  30.981  11.454
14322W        W86736  12.639   0.388   4.319
14323W        W86737  16.292  27.077   3.761
14324W        W86738  41.813  28.659   2.212
14325W        W86739  12.116  43.344  11.079
14326W        W86740  37.050   5.231  11.435
14327W        W86741   0.931  17.778   2.771
14328W        W86742  34.110  40.991  10.953
14329W        W86743  32.126   4.741   2.237
14330W        W86744  38.061   4.253  11.562
14331W        W86745  29.942  25.015   2.204
14332W        W86746  33.397  23.592   3.703
14333W        W86747  12.229  40.046  13.385
14334W        W86748  25.185  19.698  11.565
14335W        W86749  39.522   0.940   0.907
14336W        W86750  43.926  32.453   2.328
14337W        W86751   7.787   4.292   1.752
14338W        W86752  13.705  32.007   4.609
14339W        W86753   3.887  20.148  12.919
14340W        W86754  27.509   0.827  12.040
14341W        W86755  23.555  22.665   4.766
14342W        W86756   9.302   1.906   1.402
14343W        W86757  17.771  25.552  12.568
14344W        W86758  24.988  25.530   3.168
14345W        W86759  42.491  17.268  13.456
14346W        W86760   5.690   2.231   2.301
14347W        W86761  11.698  25.128   9.957
14348W        W86762   6.782  38.501  13.431
14349W        W86763  44.490   0.462   3.772
14350W        W86764  19.709  15.280  13.038
14351W        W86765  42.415  22.667   3.353
14352W        W86766  34.507  18.150   2.412
14353W        W86767  40.903  36.043   3.702
14354W        W86768  29.052  16.634   2.268
14355W        W86769  23.549  10.875   0.268
14356W        W86770   1.968   6.200   2.208
14357W        W86771  13.671  26.697   2.815
14358W        W86772   1.978  19.141  12.040
14359W        W86773  26.676  38.362   0.268
14360W        W86774   2.744  29.167   0.340
14361W        W86775  11.792  22.645   1.377
14362W        W86776  41.807  31.937   1.395
14363W        W86777  12.275  17.288   4.730
14364W        W86778  37.469  26.197  14.925
14365W        W86779  22.656  28.521   4.339
14366W        W86780  12.284  17.109   1.890
14367W        W86781  14.114  17.632  10.009
14368W        W86782  21.512  40.850   1.291
14369W        W86783  18.183  26.590   1.348
14370W        W86784  27.125  26.141   2.252
14371W        W86785  42.835  36.000  11.562
14372W        W86786  12.639  28.070   0.282
14373W        W86787  15.686  41.453   0.332
14374W        W86788  20.606  41.407  13.036
14375W        W86789  23.044  41.520   0.483
14376W        W86790   4.724  33.381   4.628
14377W        W86791  11.832   4.205   3.364
14378W        W86792  26.035  18.137  10.505
14379W        W86793  24.159   0.263   4.219
14380W        W86794  40.895   8.245   1.224
14381W        W86795  12.797   1.382   1.805
14382W        W86796  41.938  21.146   4.759
14383W        W86797  33.875  39.854  14.923
14384W        W86798  30.026  43.851  14.973
14385W        W86799  33.895  40.369   0.908
14386W        W86800   7.363  19.222   2.412
14387W        W86801   5.909  28.614  12.851
14388W        W86802  23.492  28.094   1.694
14389W        W86803  35.929  25.706   3.851
14390W        W86804  10.845  10.173   0.811
14391W        W86805  29.530  23.652   0.271
14392W        W86806  20.092  42.296   2.405
14393W        W86807  30.116  16.128  12.845
14394W        W86808  21.622  40.544   0.740
14395W        W86809   0.984  15.705  12.854
14396W        W86810   0.380  35.407  14.760
14397W        W86811  41.465  27.470  11.412
14398W        W86812  13.714  23.529   0.370
14399W        W86813   8.704  19.728  10.529
14400W        W86814  30.051  12.345  13.417
14401W        W86815   8.806  25.174   0.863
14402W        W86816   6.814   1.854   0.427
14403W        W86817  38.486  31.415  12.457
14404W        W86818  41.856   3.946  11.971
14405W        W86819  24.719  12.222   4.114
14406W        W86820   4.797   2.428  14.936
14407W        W86821  15.715   0.890  12.850
14408W        W86822  41.394  36.036   0.743
14409W        W86823   2.884  18.560  14.293
14410W        W86824  11.247  27.980   0.343
14411W        W86825  23.556  43.478   0.293
14412W        W86826  19.728  24.492   2.737
14413W        W86827   4.281  18.246  10.410
14414W        W86828  24.190  10.235  11.415
14415W        W86829  28.020  41.396  11.456
14416W        W86830  22.743  34.063  11.892
14417W        W86831   2.846  16.811  14.328
14418W        W86832  28.445   0.296  14.955
14419W        W86833  20.595  34.017   3.868
14420W        W86834  10.725  38.428  12.953
14421W        W86835  21.664  39.928   4.642
14422W        W86836  31.920   4.866  14.924
14423W        W86837   2.941   9.778  13.996
14424W        W86838  10.138  30.601  10.161
14425W        W86839  10.813  15.111  12.886
14426W        W86840   1.392  12.175   3.850
14427W        W86841   0.346  22.035  10.553
14428W        W86842  18.772   1.796   1.221
14429W        W86843  43.324  16.122  13.414
14430W        W86844  34.536  11.624   0.364
14431W        W86845  16.139  32.474   3.326
14432W        W86846  24.666  20.737   3.800
14433W        W86847  30.138  20.644  12.844
14434W        W86848  21.117  31.104  14.873
14435W        W86849  12.184   2.269   3.260
14436W        W86850  36.906  34.881  10.913
14437W        W86851  11.221  18.133   1.298
14438W        W86852   3.283  25.124   1.750
14439W        W86853   8.289  27.169   0.252
14440W        W86854   0.915  15.678  14.900
14441W        W86855  37.534  16.155  12.969
14442W        W86856  11.271  36.086  14.504
14443W        W86857  19.241  33.885   0.412
14444W        W86858  35.546  28.091  14.291
14445W        W86859  38.952  44.789   3.228
14446W        W86860   8.805   5.836  13.045
14447W        W86861   8.198   5.330  13.945
14448W        W86862   2.844  22.600  12.359
14449W        W86863   8.253  25.209   4.176
14450W        W86864  24.227  13.241   3.223
14451W        W86865  42.341  17.716   4.601
14452W        W86866  10.161  41.991   4.127
14453W        W86867  44.406  37.982   1.862
14454W        W86868  31.581  30.500   3.685
14455W        W86869   1.443  13.834  11.928
14456W        W86870  21.522  34.530  10.407
14457W        W86871  25.710  16.737   5.281
14458W        W86872  17.073  26.486   4.788
14459W        W86873  25.070  27.665   3.693
14460W        W86874  35.074  29.952  13.951
14461W        W86875  42.376  11.777   2.887
14462W        W86876  22.635  20.757  11.113
14463W        W86877  22.717  22.668   0.391
14464W        W86878  42.387   1.962   2.367
14465W        W86879  34.097  42.491  11.978
14466W        W86880  16.791  21.194   2.383
14467W        W86881   5.749  17.176  13.908
14468W        W86882  38.895  22.708   1.764
14469W        W86883  14.716  14.612   4.255
14470W        W86884   3.887  40.847  14.312
14471W        W86885  28.455  34.009  10.562
14472W        W86886  18.547  25.646  14.385
14473W        W86887  18.584  31.104  14.919
14474W        W86888  39.808  23.126  10.608
14475W        W86889  20.247   0.939   0.278
14476W        W86890  16.304  19.269   4.799
14477W        W86891  18.072   3.888  10.639
14478W        W86892  39.985   7.774  12.577
14479W        W86893  30.514  37.519  13.798
14480W        W86894  13.669   8.372   3.226
14481W        W86895  31.964  37.581   3.183
14482W        W86896   8.827  20.649   2.390
14483W        W86897  23.098  10.808  10.425
14484W        W86898  14.197   7.745   5.133
14485W        W86899  41.351   0.278  10.535
14486W        W86900   4.285   0.353   0.401
14487W        W86901  28.450   7.685  10.535
14488W        W86902   1.936   9.258  12.563
14489W        W86903  17.578  13.188  11.080
14490W        W86904  38.566  11.227  13.827
14491W        W86905  42.451  24.131   1.303
14492W        W86906  23.711  37.023   4.671
14493W        W86907  41.469   8.678  11.581
14494W        W86908   6.873   5.863   0.930
14495W        W86909  13.276   4.407   4.811
14496W        W86910  19.166   8.338   4.234
14497W        W86911   9.289  42.290   4.711
14498W        W86912  23.592  36.903  12.519
14499W        W86913  14.328  12.326  14.946
14500W        W86914  27.552  10.238   2.272
14501W        W86915  22.082   2.249   0.366
14502W        W86916  25.054   3.849  14.980
14503W        W86917  15.084   7.236   1.764
14504W        W86918  42.484  26.177   2.413
14505W        W86919  11.832  20.197   1.867
14506W        W86920  27.160  17.168   4.138
14507W        W86921  15.712  36.054   0.478
14508W        W86922  13.804  35.094   0.443
14509W        W86923   2.457  22.077   1.276
14510W        W86924  10.634  36.474   1.302
14511W        W86925  26.611  26.457   4.218
14512W        W86926  21.198  35.585   0.270
14513W        W86927  13.291  44.423   4.632
14514W        W86928  40.410  14.121  12.984
14515W        W86929  23.695   9.824  12.067
14516W        W86930   2.357  12.134  12.956
14517W        W86931  20.600   2.756  12.420
14518W        W86932  17.571  31.503   3.677
14519W        W86933   6.881  40.504  13.812
14520W        W86934  10.214  16.591   3.367
14521W        W86935  40.966  30.151  10.634
14522W        W86936  19.111  21.555  12.956
14523W        W86937   7.669  28.942   4.659
14524W        W86938  14.224  31.123   4.335
14525W        W86939  36.976  15.600  10.434
14526W        W86940  17.080  38.394  11.907
14527W        W86941  42.325   5.432   0.405
14528W        W86942  33.070  23.106   3.343
14529W        W86943  44.862  27.676   3.171
14530W        W86944  26.109   6.784  13.307
14531W        W86945  17.087   7.280  12.030
14532W        W86946  30.581  20.140  13.399
14533W        W86947  18.590  14.615  11.944
14534W        W86948   4.784  34.407  10.565
14535W        W86949  15.648  40.482   1.232
14536W        W86950  31.040  42.904   1.794
14537W        W86951  14.780  32.886   1.855
14538W        W86952  26.593  20.767  11.390
14539W        W86953  18.722  26.140  14.869
14540W        W86954   6.210  36.416  13.811
14541W        W86955   5.433   4.407   3.825
14542W        W86956  39.996   8.891   0.343
14543W        W86957  41.012  19.229   4.737
14544W        W86958  15.623  40.413  12.072
14545W        W86959  40.837  35.575  14.496
14546W        W86960  36.518  27.073  13.954
14547W        W86961   9.288   1.862  14.381
14548W        W86962  33.561  43.298  14.759
14549W        W86963  39.860   2.766   1.745
14550W        W86964   4.213  37.941   4.718
14551W        W86965   7.320  35.940   3.656
14552W        W86966  24.670  44.865   3.826
14553W        W86967  34.074  39.552  14.370
14554W        W86968  36.593   8.900   5.218
14555W        W86969   3.268  17.086   0.739
14556W        W86970  30.608  10.860  10.457
14557W        W86971  38.027  33.049  13.017
14558W        W86972  27.653   3.318   0.868
14559W        W86973   8.365  30.120  13.861
14560W        W86974  15.771  13.313   1.819
14561W        W86975  28.513  32.583   3.161
14562W        W86976   2.290  35.914  13.978
14563W        W86977  30.653   2.292  10.541
14564W        W86978  24.482  31.074  12.927
14565W        W86979  11.679  27.617  10.585
14566W        W86980  42.944  42.342  11.387
14567W        W86981  44.272  24.094   4.308
14568W        W86982  43.326   2.887  14.973
14569W        W86983  33.607  35.978   2.326
14570W        W86984  34.496  18.142  13.805
14571W        W86985  30.924   7.177  12.014
14572W        W86986   1.292   5.242  14.442
14573W        W86987  31.531   2.772  14.859
14574W        W86988  27.093  42.445  13.044
14575W        W86989  18.739  32.978   2.373
14576W        W86990  29.662  22.641  10.977
14577W        W86991  37.086  12.627   4.204
14578W        W86992  24.491  19.230   1.785
14579W        W86993  11.368  44.445  11.877
14580W        W86994  33.524  12.654   2.209
14581W        W86995  27.556  42.813   1.704
14582W        W86996  17.193  23.579   2.314
14583W        W86997   8.721  36.510  10.925
14584W        W86998   1.824   1.311  14.342
14585W        W86999  14.767   5.895   0.290
14586W        W87000  28.612  28.052  14.488
14587W        W87001   6.184  40.362  12.545
14588W        W87002  36.532  36.360   3.371
14589W        W87003  40.389  19.173   3.789
14590W        W87004   1.252  23.184   0.302
14591W        W87005  33.071  43.320  13.975
14592W        W87006  34.479  23.531   4.336
14593W        W87007   7.821  26.476  14.758
14594W        W87008   3.926   1.347  10.930
14595W        W87009   2.801  37.536  11.538
14596W        W87010  37.516  39.431  10.967
14597W        W87011   3.311   8.194   4.643
14598W        W87012  31.613  30.074   0.888
14599W        W87013   2.744  27.982  13.486
14600W        W87014  24.678  44.497  11.862
14601W        W87015  16.606   8.813   2.316
14602W        W87016  27.950  40.909  10.481
14603W        W87017  29.941  40.525   3.353
14604W        W87018  25.118  34.899   0.805
14605W        W87019  44.852  28.116  14.283
14606W        W87020  18.233   7.404  10.470
14607W        W87021  16.283  17.578   2.265
14608W        W87022  43.009  11.168  14.334
14609W        W87023  30.594  35.932   4.750
14610W        W87024  43.481  38.036  10.555
14611W        W87025  31.926  24.165  10.427
14612W        W87026  38.509  24.021   2.389
14613W        W87027  28.989  39.899  12.952
14614W        W87028   4.813   9.220   3.767
14615W        W87029   9.357  25.111  11.607
14616W        W87030  42.785   2.266   4.297
14617W        W87031   9.700  15.087   2.399
14618W        W87032  11.851  35.511  10.486
14619W        W87033  42.424  16.702  10.541
14620W        W87034  39.014  22.513  11.112
14621W        W87035  18.790  15.131  14.284
14622W        W87036  27.060  22.685  12.891
14623W        W87037   9.841  13.141   0.418
14624W        W87038   0.882  31.408   4.768
14625W        W87039  42.523  22.224   1.273
14626W        W87040  24.678  29.467  10.930
14627W        W87041  14.670  41.388  14.904
14628W        W87042  16.178  10.314  11.905
14629W        W87043  36.358  12.619  12.087
14630W        W87044  14.636  40.032  11.901
14631W        W87045  31.094  31.458   2.865
14632W        W87046  22.012  44.824  12.510
14633W        W87047  32.044  40.491  11.481
14634W        W87048  12.672  26.462  13.941
14635W        W87049   6.262  37.573  11.898
14636W        W87050  37.378  13.621   2.687
14637W        W87051   3.227  43.006   4.614
14638W        W87052  43.849  15.735   4.667
14639W        W87053  38.444  37.961   4.125
14640W        W87054  11.826  29.161   0.272
14641W        W87055  28.096  24.178  11.395
14642W        W87056  37.084  30.641   2.688
14643W        W87057  32.046   2.861  13.007
14644W        W87058  42.813  42.423  12.887
14645W        W87059  18.175  31.927   0.758
14646W        W87060  19.126   6.895  12.551
14647W        W87061   2.862  32.573  10.958
14648W        W87062  15.293  27.173   0.860
14649W        W87063  28.658   1.395   0.255
14650W        W87064  40.985  29.622  12.384
14651W        W87065  15.708  23.101  10.983
14652W        W87066  44.859  24.032  10.050
14653W        W87067  35.857  21.167   1.775
14654W        W87068  29.516  29.960  13.456
14655W        W87069  21.577  19.572   2.900
14656W        W87070  12.674  32.007   3.218
14657W        W87071  20.051   1.278  10.461
14658W        W87072   7.898  28.589  11.892
14659W        W87073  37.890   5.854   1.230
14660W        W87074  22.140  19.667   3.704
14661W        W87075  18.176  10.660  13.883
14662W        W87076  32.991   1.879  11.516
14663W        W87077  27.000   2.296   4.794
14664W        W87078  36.999  26.682  11.073
14665W        W87079  10.853  41.030  11.529
14666W        W87080   9.174  40.329  14.955
14667W        W87081  12.854  35.062  13.988
14668W        W87082  20.656   8.190  12.516
14669W        W87083  31.511  25.574   1.407
14670W        W87084  26.966  19.589  13.408
14671W        W87085  44.425  13.780  10.518
14672W        W87086  39.053  16.217  14.986
14673W        W87087  43.477   3.733  14.905
14674W        W87088  29.461  15.107   2.869
14675W        W87089  13.720   8.662   1.733
14676W        W87090  22.016  10.660   3.640
14677W        W87091  28.944  19.562   2.795
14678W        W87092  16.611   0.492   1.792
14679W        W87093  26.066  25.065   1.372
14680W        W87094   3.280  18.746  11.518
14681W        W87095  39.831  33.521  10.588
14682W        W87096   3.382  21.748  10.990
14683W        W87097  26.108  35.531  13.505
14684W        W87098  21.251  10.657   2.745
14685W        W87099  24.002  36.096  10.900
14686W        W87100  23.194  18.724  14.320
14687W        W87101  41.883  23.624   0.888
14688W        W87102  44.827  41.385   4.324
14689W        W87103   2.929  22.566  13.433
14690W        W87104  15.715   5.745  14.923
14691W        W87105   9.821   5.367  10.893
14692W        W87106  15.177  18.106   1.802
14693W        W87107  26.655   3.859   5.170
14694W        W87108  28.454  43.306   4.268
14695W        W87109  38.365  33.038   9.591
14696W        W87110  34.525  24.699  12.070
14697W        W87111   0.323  18.109  12.038
14698W        W87112  36.860  15.716  12.572
14699W        W87113  31.458  29.669  14.453
14700W        W87114  22.035  27.632  14.819
14701W        W87115  30.461   6.350   4.742
14702W        W87116  40.467   5.758  12.466
14703W        W87117  21.663  35.522  11.902
14704W        W87118  43.412  10.313   0.789
14705W        W87119  24.206  32.953  11.612
14706W        W87120  41.938   7.769  11.404
14707W        W87121  18.580   2.890  14.441
14708W        W87122  21.157  44.486   1.768
14709W        W87123  24.594  35.014   2.357
14710W        W87124  33.477  18.595   9.942
14711W        W87125  12.179   8.673   4.134
14712W        W87126  44.444  43.000   4.216
14713W        W87127  33.532  14.611  11.933
14714W        W87128  11.182   1.380   0.361
14715W        W87129  12.665  41.790   0.288
14716W        W87130  10.647  20.643   2.397
14717W        W87131  37.052  23.614  14.463
14718W        W87132  39.993  20.715  14.450
14719W        W87133  13.656  33.057  11.447
14720W        W87134  32.945   5.777   4.261
14721W        W87135  22.157  37.396  13.829
14722W        W87136  43.008  17.200   2.749
14723W        W87137  32.970  31.634   3.370
14724W        W87138  16.721   3.878  11.002
14725W        W87139  25.475  36.455  12.431
14726W        W87140  19.649  36.870  12.421
14727W        W87141  21.677  32.394   3.212
14728W        W87142  18.698   9.160   0.967
14729W        W87143  12.673  18.660  14.821
14730W        W87144  17.590  20.762  11.072
14731W        W87145   1.740  10.237  11.482
14732W        W87146  41.015  15.818   3.707
14733W        W87147  42.981  21.019  12.868
14734W        W87148  19.173  13.609   0.919
14735W        W87149   7.355  28.156   2.735
14736W        W87150  44.768  16.284   2.258
14737W        W87151  21.143  12.611  14.902
14738W        W87152  13.289   8.333  11.446
14739W        W87153  10.767  41.338   2.240
14740W        W87154  17.297  33.964   0.925
14741W        W87155   6.306  21.681  13.308
14742W        W87156   8.288   4.941  11.579
14743W        W87157  11.836  17.305  12.087
14744W        W87158  33.090  17.706  14.401
14745W        W87159  15.624  43.946  11.371
14746W        W87160  32.000  19.112  12.339
14747W        W87161  29.647  28.497  12.541
14748W        W87162  39.879  10.818   1.300
14749W        W87163  31.444  36.898  13.954
14750W        W87164  37.039   8.815  14.468
14751W        W87165  28.089  18.568  11.505
14752W        W87166   1.410  21.148   0.287
14753W        W87167   7.800  29.563  14.392
14754W        W87168  33.883   8.655   2.775
14755W        W87169  26.600  22.069   3.817
14756W        W87170  28.587   1.440   1.308
14757W        W87171  18.148  28.675   2.801
14758W        W87172  21.550   8.375  12.400
14759W        W87173  23.234  25.574   1.287
14760W        W87174  35.507   2.377  13.994
14761W        W87175  41.427  27.092  12.881
14762W        W87176  33.016   3.365  11.879
14763W        W87177  22.681   6.304   1.812
14764W        W87178   5.387  42.415  14.795
14765W        W87179  31.144  39.330   2.679
14766W        W87180  31.122   2.882   1.310
14767W        W87181  14.770  27.666  11.913
14768W        W87182  21.066  27.517   3.197
14769W        W87183   8.682   1.896  11.085
14770W        W87184  34.112  33.956   2.898
14771W        W87185  37.484  37.517   2.762
14772W        W87186  35.104  41.433  14.486
14773W        W87187  32.136  41.871   1.296
14774W        W87188  21.711  34.585   0.248
14775W        W87189   3.336   6.891  14.815
14776W        W87190  43.946  12.688   3.633
14777W        W87191  30.049  32.607  12.441
14778W        W87192  21.695  12.657  11.556
14779W        W87193  19.068  31.987  13.531
14780W        W87194  21.193  41.419  11.030
14781W        W87195   9.699  40.318  12.941
14782W        W87196  39.446  21.675   3.865
14783W        W87197  31.611   8.691   4.778
14784W        W87198  20.242  18.572   2.824
14785W        W87199  32.029  26.144  13.050
14786W        W87200  37.519  14.308   3.853
14787W        W87201  42.345  39.815   2.709
14788W        W87202  40.883  24.161   3.315
14789W        W87203  41.846  36.417  13.944
14790W        W87204   2.777  32.891   1.922
14791W        W87205  37.569   1.959   0.351
14792W        W87206  36.042  31.967   0.318
14793W        W87207  10.273  20.672   4.825
14794W        W87208  28.081  18.711   0.419
14795W        W87209  19.126  27.159   0.408
14796W        W87210   2.383  12.657  10.055
14797W        W87211  16.741  11.676  12.858
14798W        W87212   7.381  27.477   4.313
14799W        W87213  28.068  30.466  12.394
14800W        W87214  43.440   2.410  12.569
14801W        W87215  26.561  29.986  11.491
14802W        W87216  26.105  22.604   0.841
14803W        W87217  37.905  11.192  12.395
14804W        W87218  24.551  42.298  14.763
14805W        W87219  34.959  43.922   0.395
14806W        W87220   2.761   4.279   2.759
14807W        W87221   1.908   4.290  11.113
14808W        W87222  44.994  19.651   3.711
14809W        W87223  21.036   4.804   2.328
14810W        W87224  13.640  22.694   4.194
14811W        W87225  44.346  37.366  10.423
14812W        W87226   1.811  18.175  14.420
14813W        W87227  42.898   8.373   0.243
14814W        W87228   0.305  43.285  13.320
14815W        W87229  33.972  23.029  12.844
14816W        W87230  41.414  27.157   3.795
14817W        W87231  11.705  28.968   2.897
14818W        W87232   0.774  13.663   1.738
14819W        W87233  36.562  18.750   2.859
14820W        W87234  28.636   3.259  13.382
14821W        W87235   9.306   0.975   2.191
14822W        W87236  23.708  18.080  14.324
14823W        W87237  22.650  38.821  11.097
14824W        W87238   0.950  32.918   1.875
14825W        W87239  23.065   4.415   1.351
14826W        W87240  14.824  17.669  10.008
14827W        W87241  24.142  29.999  12.077
14828W        W87242  42.375  34.096   0.415
14829W        W87243  38.879  34.426  14.825
14830W        W87244  30.975  41.426  12.575
14831W        W87245  33.390  19.192  12.948
14832W        W87246   3.405  28.524  10.947
14833W        W87247  24.017  34.566   1.840
14834W        W87248  21.576  28.059   3.704
14835W        W87249  16.813  20.664  10.919
14836W        W87250   8.688  28.545   4.217
14837W        W87251   1.318  30.118  12.498
14838W        W87252  25.985  23.561  10.944
14839W        W87253  27.684  11.333   4.289
14840W        W87254   9.675  33.939  14.864
14841W        W87255  15.263  43.448   1.696
14842W        W87256  13.685   9.824   3.272
14843W        W87257  31.647  15.735  12.046
14844W        W87258  41.998  21.099   5.269
14845W        W87259   2.388  29.669  14.297
14846W        W87260  35.891  38.989  10.422
14847W        W87261  36.934  14.596   1.878
14848W        W87262   7.760  44.485   2.399
14849W        W87263  16.658  14.148  14.368
14850W        W87264   1.741   9.268  13.326
14851W        W87265   2.801   2.395   4.208
14852W        W87266  26.142  10.248   1.289
14853W        W87267   1.821   5.860   0.805
14854W        W87268  41.517   1.790   4.606
14855W        W87269  10.214   9.817   9.959
14856W        W87270   2.918  40.825  11.602
14857W        W87271  30.080  34.482  14.388
14858W        W87272  36.860  16.778  13.426
14859W        W87273  10.821  38.822   0.814
14860W        W87274   9.713  32.586  11.127
14861W        W87275  37.888   8.306  13.859
14862W        W87276  18.773  16.191   4.346
14863W        W87277  11.625   1.455  14.348
14864W        W87278  28.519  22.012   2.187
14865W        W87279  18.125  14.643  11.909
14866W        W87280  29.584  22.169   3.785
14867W        W87281  27.961  36.919  14.321
14868W        W87282  24.720  29.616   2.662
14869W        W87283   6.776  16.203   1.333
14870W        W87284   6.213  11.635  13.378
14871W        W87285  38.420  31.905   3.730
14872W        W87286  34.992  22.528   3.162
14873W        W87287  41.374  16.287   1.788
14874W        W87288  31.543  41.861  10.470
14875W        W87289   0.381  42.884  11.577
14876W        W87290  28.679  32.106  13.799
14877W        W87291  16.756  41.911  10.429
14878W        W87292  44.772  36.486  12.520
14879W        W87293  13.116  30.604   0.874
14880W        W87294  43.498  41.379   5.136
14881W        W87295  13.648  10.752  10.951
14882W        W87296  14.650  39.361   2.672
14883W        W87297  42.842  44.268   2.236
14884W        W87298   3.272  37.371  11.575
14885W        W87299  42.975   8.784   1.246
14886W        W87300  34.588  38.442  12.893
14887W        W87301  25.182  43.868   4.652
14888W        W87302  11.658  12.356  13.361
14889W        W87303  30.121   0.933   3.861
14890W        W87304  34.022  41.518  11.005
14891W        W87305   5.698   3.429  14.858
14892W        W87306  35.577  10.310  12.956
14893W        W87307  25.060  30.991   3.783
14894W        W87308  37.478   3.819  12.919
14895W        W87309  15.243  11.665  11.049
14896W        W87310  13.711  17.708   3.671
14897W        W87311   9.245  43.903   3.334
14898W        W87312  13.758  22.561   1.362
14899W        W87313   0.937  18.581   5.086
14900W        W87314   6.739   1.910  13.014
14901W        W87315  31.465  13.296   1.270
14902W        W87316  21.736  41.300   0.402
14903W        W87317  25.541  20.242  14.028
14904W        W87318   2.328  14.817  11.114
14905W        W87319  21.593   3.951  11.050
14906W        W87320  30.594  22.054  13.523
14907W        W87321   1.903  17.203   1.860
14908W        W87322   6.786  43.893   3.696
14909W        W87323  25.208   6.188   2.414
14910W        W87324  37.989  23.050  13.809
14911W        W87325  31.997  15.232   4.262
14912W        W87326  35.457  18.659  14.500
14913W        W87327   5.921  43.332  11.040
14914W        W87328  33.926  10.792   0.375
14915W        W87329  18.086  16.260  13.307
14916W        W87330  36.088  30.128   1.891
14917W        W87331   9.245  31.987   2.256
14918W        W87332  32.136  16.616  14.026
14919W        W87333   6.311  40.471   0.929
14920W        W87334  34.081   4.899  13.512
14921W        W87335  43.436  41.845  10.498
14922W        W87336  37.869  18.066   1.709
14923W        W87337  35.539   1.905  11.859
14924W        W87338   8.794  34.502  13.508
14925W        W87339   4.351  10.210   1.829
14926W        W87340  13.331  30.644  12.490
14927W        W87341  14.717  29.942  12.466
14928W        W87342  10.758  26.585   4.163
14929W        W87343  32.085  16.768  13.505
14930W        W87344  16.093  19.776  10.146
14931W        W87345  32.088  28.106  13.381
14932W        W87346  21.561  40.031   1.347
14933W        W87347  15.227  22.084   4.166
14934W        W87348  10.813  14.699   3.863
14935W        W87349  17.304  35.059  13.380
14936W        W87350   5.863  17.800   4.181
14937W        W87351  32.952  27.469   3.361
14938W        W87352  34.869  38.837   4.175
14939W        W87353  41.447  21.689  14.425
14940W        W87354   2.948   7.703   1.286
14941W        W87355   7.326  37.560  11.394
14942W        W87356  23.553  26.200   4.269
14943W        W87357  33.497  31.971   2.864
14944W        W87358  37.086  14.668   4.286
14945W        W87359  37.520  14.713   4.756
14946W        W87360  41.896  17.720  12.535
14947W        W87361  42.941   5.819  13.836
14948W        W87362  32.540  37.961  11.440
14949W        W87363   2.238   2.791  12.880
14950W        W87364   2.332  15.785   1.291
14951W        W87365  20.200  17.706  13.440
14952W        W87366  42.829   3.812   1.858
14953W        W87367  36.583  42.799  12.858
14954W        W87368  29.005  40.985  14.030
14955W        W87369  12.254   8.398  11.520
14956W        W87370  28.944  41.041   2.413
14957W        W87371  18.138   2.729  11.434
14958W        W87372  39.964  34.387  10.636
14959W        W87373  30.149  27.033  13.863
14960W        W87374   0.283  27.942  10.992
14961W        W87375  22.532   2.797   2.902
14962W        W87376  26.178  43.277  13.382
14963W        W87377  22.111  24.049  14.946
14964W        W87378  27.624   1.801   2.701
14965W        W87379   9.722  42.453  12.411
14966W        W87380  31.457  11.827  12.366
14967W        W87381   8.404   1.785  11.575
14968W        W87382   7.402  38.517  10.953
14969W        W87383   7.386  19.538   2.895
14970W        W87384  44.464   0.812   5.124
14971W        W87385  44.919  34.382  14.029
14972W        W87386  27.968  44.975   4.794
14973W        W87387  44.980  19.265  10.889
14974W        W87388  16.573  17.735   4.287
14975W        W87389  20.168   9.278  14.490
14976W        W87390  39.863  35.856   1.914
14977W        W87391  18.662  27.490   2.761
14978W        W87392  14.748  20.694  10.012
14979W        W87393  44.435  39.018   2.269
14980W        W87394   9.390  38.980   3.691
14981W        W87395  16.799   0.894   5.204
14982W        W87396  19.729   5.296   1.922
14983W        W87397   8.278   2.732  12.556
14984W        W87398  41.343  13.837   1.342
14985W        W87399  42.904  17.190  14.944
14986W        W87400  18.208   7.799  14.498
14987W        W87401  37.991  11.352   1.288
14988W        W87402  35.047  21.258   1.740
14989W        W87403  29.130  18.634  12.390
14990W        W87404   9.724  10.294  13.429
14991W        W87405  16.808  32.957  13.327
14992W        W87406   3.794  14.780   5.309
14993W        W87407  39.380  33.088   1.738
14994W        W87408  34.967  31.462   1.239
14995W        W87409  35.535  36.928   1.341
14996W        W87410  19.759  17.231   4.653
14997W        W87411   8.720   1.240   3.734
14998W        W87412  32.478  25.991  14.383
14999W        W87413  34.585  10.302   1.265
15000W        W87414  24.580  16.626   4.214
15001W        W87415  23.109  29.955   0.759
15002W        W87416  35.503  15.661  10.040
15003W        W87417  19.189  19.183  13.028
15004W        W87418  40.007  37.574  10.429
15005W        W87419  20.224  18.750   1.224
15006W        W87420  10.661   0.270   2.398
15007W        W87421  14.764  32.046   0.839
15008W        W87422  22.671  33.986  14.301
15009W        W87423  30.464  13.301  10.630
15010W        W87424  19.051  32.445  13.033
15011W        W87425  37.450   5.293   1.441
15012W        W87426   2.241   3.297   3.678
15013W        W87427  40.533  12.663   4.225
15014W        W87428  43.501  32.632   0.342
15015W        W87429  31.457  43.935  10.570
15016W        W87430  43.275  34.596   4.271
15017W        W87431   2.787  32.912  14.315
15018W        W87432  23.660  22.513  10.565
15019W        W87433  32.036   5.733  14.003
15020W        W87434  14.293  14.623  10.947
15021W        W87435   2.316  15.703   1.811
15022W        W87436   0.790   0.974  12.563
15023W        W87437  25.116  11.261  13.922
15024W        W87438  14.614  19.545   9.631
15025W        W87439  14.150  39.330   2.306
15026W        W87440  25.701  15.192   0.479
15027W        W87441  43.507  17.681  13.494
15028W        W87442   6.294  13.691   0.317
15029W        W87443  24.224  35.974   0.770
15030W        W87444   8.848  20.076  11.918
15031W        W87445  13.774   8.703   4.216
15032W        W87446  42.859  36.387   4.236
15033W        W87447  33.503  33.006  12.574
15034W        W87448  27.058  38.483   1.432
15035W        W87449  38.534  18.054   1.735
15036W        W87450  15.590  29.448  12.952
15037W        W87451  42.482   2.754   4.610
15038W        W87452  28.108  21.632  11.519
15039W        W87453  22.693  39.954   0.380
15040W        W87454  20.137  16.096   1.702
15041W        W87455  13.304  44.785  10.551
15042W        W87456  14.258   8.881  10.495
15043W        W87457   4.851  18.173   2.288
15044W        W87458  30.548   9.161  13.973
15045W        W87459   9.169  29.521  11.452
15046W        W87460  15.179  12.348   3.803
15047W        W87461  44.894  30.591  11.484
15048W        W87462  26.032  21.094   0.844
15049W        W87463  33.875  17.173  12.919
15050W        W87464  32.936  36.380   4.342
15051W        W87465   3.781  24.690   3.859
15052W        W87466  39.985   4.808  11.062
15053W        W87467  19.196  32.118   1.309
15054W        W87468  39.480  14.814  14.835
15055W        W87469  22.654  14.251   3.852
15056W        W87470  15.666  43.502   4.227
15057W        W87471  19.712  31.554  11.442
15058W        W87472  41.525  32.922  11.404
15059W        W87473  11.742  11.638   3.774
15060W        W87474  41.034  29.055   3.150
15061W        W87475   0.963  24.182  13.357
15062W        W87476  25.973   8.900   3.352
15063W        W87477  12.189   6.753   4.614
15064W        W87478  28.587  26.014   4.298
15065W        W87479  30.947  36.404   3.841
15066W        W87480  20.157  42.968  11.438
15067W        W87481  20.243  24.158   2.179
15068W        W87482   4.272  16.111  14.001
15069W        W87483  29.567  26.184   3.664
15070W        W87484  12.156  16.316   4.193
15071W        W87485   0.808  20.725   3.727
15072W        W87486  40.494   8.236   4.733
15073W        W87487  16.677  16.704  12.084
15074W        W87488  30.505  24.181   0.305
15075W        W87489  37.033  22.012  14.964
15076W        W87490  21.257  41.524  13.013
15077W        W87491  39.923  10.270   4.172
15078W        W87492   9.252  15.243   1.379
15079W        W87493  20.038  30.049  13.487
15080W        W87494  16.635  20.679   4.235
15081W        W87495  39.542   8.162   3.332
15082W        W87496  11.349  22.705   0.945
15083W        W87497  12.791  34.487  14.975
15084W        W87498  38.437  15.783   0.948
15085W        W87499  30.050   7.389   2.284
15086W        W87500  10.205  32.413   1.753
15087W        W87501   3.347  31.531   2.237
15088W        W87502  21.082  36.561   4.667
15089W        W87503  22.529  12.246   0.360
15090W        W87504  42.525  20.070  14.488
15091W        W87505   8.768  33.105  14.986
15092W        W87506  18.673  34.372   0.322
15093W        W87507  29.487  11.262   0.387
15094W        W87508  14.643   7.695  13.012
15095W        W87509  42.448   3.229  13.846
15096W        W87510  35.092  16.216   3.706
15097W        W87511  37.571  16.599  12.396
15098W        W87512  23.181  43.778  12.874
15099W        W87513   8.264  20.541  13.426
15100W        W87514  16.259  19.624  12.079
15101W        W87515  16.766  44.771  10.939
15102W        W87516   3.366   7.872  13.526
15103W        W87517  27.020  16.663  11.018
15104W        W87518  38.925  44.359   3.637
15105W        W87519  43.288  24.053   3.323
15106W        W87520   7.741   3.718   0.867
15107W        W87521  40.883  18.186   1.377
15108W        W87522   6.686  32.568   2.677
15109W        W87523  35.371   3.722  12.043
15110W        W87524   2.937  10.680  11.055
15111W        W87525  40.404  36.418   1.445
15112W        W87526  29.996  35.572   2.285
15113W        W87527  31.066   5.216   3.195
15114W        W87528  11.772  21.722  13.915
15115W        W87529  22.050   8.897   3.783
15116W        W87530  37.340  33.117  10.617
15117W        W87531  11.175   8.796  11.400
15118W        W87532  22.663   2.325  11.052
15119W        W87533  40.888  16.219  11.552
15120W        W87534  35.095  25.593  11.602
15121W        W87535   4.734   4.304   4.716
15122W        W87536   1.242  23.153  10.530
15123W        W87537  30.113   4.780   3.810
15124W        W87538  24.182   7.405  11.382
15125W        W87539  22.648   3.758  10.603
15126W        W87540  21.066  21.582  13.909
15127W        W87541  13.272  43.965  14.866
15128W        W87542  27.026  42.356   3.799
15129W        W87543  25.080   1.890   2.681
15130W        W87544  38.974   5.793   3.772
15131W        W87545   7.803  38.552  11.856
15132W        W87546   9.682  28.177   3.760
15133W        W87547  24.081  27.535   1.246
15134W        W87548  29.163  20.763   4.266
15135W        W87549  18.132  31.953  11.004
15136W        W87550  31.478  25.967  13.472
15137W        W87551  14.199  41.361   4.669
15138W        W87552  13.328  44.426  14.029
15139W        W87553  37.932  16.795   0.740
15140W        W87554  23.191   9.862   3.332
15141W        W87555  37.480  27.096   1.752
15142W        W87556  25.016  31.040  13.371
15143W        W87557  40.030  14.705   4.762
15144W        W87558   6.331   9.672  13.316
15145W        W87559   8.262  12.680  12.825
15146W        W87560   9.830  37.461   3.338
15147W        W87561  27.118   3.322   2.684
15148W        W87562  31.462   5.333  12.440
15149W        W87563   1.466  16.779   4.190
15150W        W87564  16.093  40.042  13.339
15151W        W87565  16.174  34.029  14.786
15152W        W87566  36.982  40.003   3.323
15153W        W87567  29.990  33.548  14.492
15154W        W87568  35.412  37.401   2.865
15155W        W87569  39.932  37.904  11.912
15156W        W87570  23.545  37.347   0.881
15157W        W87571   4.419  35.565   4.647
15158W        W87572  43.792   9.782  14.354
15159W        W87573   0.889  31.614  11.100
15160W        W87574  36.516  27.044   2.718
15161W        W87575  28.575  14.808   0.278
15162W        W87576  40.894   3.420   1.735
15163W        W87577  15.328  29.966  13.897
15164W        W87578  14.332   4.224  14.507
15165W        W87579  12.339  34.974  12.908
15166W        W87580  23.067  28.948   1.272
15167W        W87581  32.445  22.018   5.567
15168W        W87582   9.211  17.217  12.021
15169W        W87583  18.152   6.707  14.399
15170W        W87584  26.561  13.265  12.533
15171W        W87585  35.455  35.102  11.423
15172W        W87586   2.327  34.994  11.869
15173W        W87587  34.481  33.003  14.430
15174W        W87588  29.427   0.873   0.785
15175W        W87589  19.698  33.495   1.783
15176W        W87590  32.516   8.688  11.424
15177W        W87591  36.588  14.186   0.423
15178W        W87592  31.076  24.499  11.912
15179W        W87593   0.490   4.367   1.879
15180W        W87594  21.622  37.513   5.131
15181W        W87595   6.393  23.591   1.807
15182W        W87596   5.806  37.337   4.311
15183W        W87597   7.800  40.527   3.739
15184W        W87598  18.123  21.123   4.625
15185W        W87599  38.450  28.574  14.960
15186W        W87600   3.416   8.382   0.907
15187W        W87601  38.336  37.856   0.330
15188W        W87602  22.567  11.662  14.478
15189W        W87603   4.407  34.025  10.526
15190W        W87604  26.664  37.963   3.164
15191W        W87605  18.613   7.743  11.415
15192W        W87606  33.907   1.450   0.451
15193W        W87607  43.325  20.239   1.882
15194W        W87608  33.052  24.150  13.920
15195W        W87609   0.858  18.675  12.083
15196W        W87610   8.861  28.068   2.703
15197W        W87611  28.603  11.141   1.721
15198W        W87612  42.939  10.326  14.438
15199W        W87613  31.417   4.807  14.376
15200W        W87614   9.225  21.184   2.181
15201W        W87615  16.566  44.288  11.948
15202W        W87616  34.448   2.869   2.250
15203W        W87617  22.727  30.512  10.896
15204W        W87618  34.033  26.588   1.331
15205W        W87619  14.243  24.103   0.308
15206W        W87620   5.931  31.408   3.257
15207W        W87621  14.754  17.745  14.943
15208W        W87622  21.134  12.233   3.356
15209W        W87623   0.477  12.185   1.807
15210W        W87624   0.864  13.296  14.951
15211W        W87625  41.806  23.556  10.083
15212W        W87626   2.916   3.432  12.387
15213W        W87627   2.741   5.389  14.324
15214W        W87628  36.487  41.015   2.397
15215W        W87629  42.957  25.652   4.620
15216W        W87630  34.964  37.516   3.756
15217W        W87631  19.216   0.798   3.202
15218W        W87632  29.021   3.724  14.758
15219W        W87633  11.371   6.799   3.791
15220W        W87634  33.076  40.820  13.315
15221W        W87635  42.400  37.979  13.856
15222W        W87636   7.405   5.329  11.399
15223W        W87637  15.680  18.728   3.197
15224W        W87638  41.923  26.624  10.155
15225W        W87639  10.354  22.529   1.810
15226W        W87640  31.910   8.704  10.642
15227W        W87641  31.144  17.626   1.398
15228W        W87642  41.027  29.550  11.465
15229W        W87643   2.433  28.017   2.313
15230W        W87644  41.440  43.001   2.383
15231W        W87645  24.210  37.410   2.216
15232W        W87646  34.958   9.712   4.837
15233W        W87647  19.593  42.293  13.507
15234W        W87648  20.569  29.093   4.623
15235W        W87649  41.341   8.168  12.900
15236W        W87650  38.074   6.339  14.857
15237W        W87651  30.135   4.355   0.431
15238W        W87652  37.050  21.570   4.615
15239W        W87653  33.040   5.429  10.529
15240W        W87654  39.959  20.047  13.024
15241W        W87655   2.291  19.610  10.446
15242W        W87656  43.970   4.426   4.826
15243W        W87657  38.899   4.361  11.595
15244W        W87658  11.174  32.012  10.606
15245W        W87659  17.145  10.258  10.086
15246W        W87660  15.581   7.892   4.683
15247W        W87661  25.526  38.483   4.684
15248W        W87662  32.598  23.072  12.368
15249W        W87663  39.390  27.483  11.912
15250W        W87664  19.222  22.216  13.930
15251W        W87665  43.776  10.341   0.955
15252W        W87666   3.890  28.079   9.537
15253W        W87667  35.097  28.648  10.451
15254W        W87668  13.599   3.388  14.872
15255W        W87669  13.628   6.420  14.908
15256W        W87670  29.448  25.049  13.802
15257W        W87671  13.835  11.335  10.435
15258W        W87672  16.295  20.725   4.601
15259W        W87673  38.329  14.734   1.762
15260W        W87674  33.483  35.403   4.291
15261W        W87675  29.572   9.740  13.327
15262W        W87676  43.995   7.833  13.805
15263W        W87677   2.418  34.481  14.989
15264W        W87678  13.205  37.546  14.020
15265W        W87679   7.738  38.520   2.262
15266W        W87680  41.482  30.953  11.972
15267W        W87681  43.444  26.951  13.794
15268W        W87682  36.426  38.428   3.647
15269W        W87683  25.063   3.812   0.377
15270W        W87684  43.893  44.408   4.210
15271W        W87685  35.869  34.430   2.664
15272W        W87686   8.291   9.340  12.443
15273W        W87687  13.192  22.627  11.047
15274W        W87688  14.713  32.493   4.635
15275W        W87689  39.952  19.102  11.959
15276W        W87690   5.275  29.554   3.768
15277W        W87691  31.607  36.569   0.368
15278W        W87692   9.858  22.032  14.426
15279W        W87693  26.598  35.944  13.970
15280W        W87694  44.335  24.052   2.295
15281W        W87695  14.741   1.259  10.982
15282W        W87696   7.875  39.317  12.389
15283W        W87697  28.635  39.521   3.635
15284W        W87698   7.773  18.749   3.347
15285W        W87699  35.510  32.486   4.193
15286W        W87700  41.026  19.192   4.277
15287W        W87701  29.079   1.801   3.682
15288W        W87702   1.889  30.557  10.570
15289W        W87703   7.260  41.429  14.460
15290W        W87704  28.476  44.346   0.908
15291W        W87705   8.232  29.161  12.898
15292W        W87706  35.454  24.651  14.811
15293W        W87707  11.830  21.128   2.692
15294W        W87708   4.745  27.992  13.354
15295W        W87709   6.814   9.389  12.041
15296W        W87710   2.804  31.047   1.258
15297W        W87711  27.450  44.993  11.079
15298W        W87712  21.017  26.619  12.914
15299W        W87713  17.151  26.497  10.546
15300W        W87714   1.469  43.413   3.823
15301W        W87715  12.128   3.823  10.619
15302W        W87716  18.672  34.052   2.218
15303W        W87717  20.637  10.670   3.656
15304W        W87718  32.572   7.200  11.413
15305W        W87719  24.173  38.987  14.911
15306W        W87720  43.882  15.691   1.414
15307W        W87721  28.564   4.444   1.324
15308W        W87722  20.535  40.904  13.343
15309W        W87723  11.841  31.097  14.412
15310W        W87724  15.685  39.841  14.314
15311W        W87725   9.820  32.105  11.386
15312W        W87726  27.147  17.262   2.363
15313W        W87727  41.964  35.995   5.318
15314W        W87728  39.328  22.195   1.895
15315W        W87729  34.395  24.006   2.192
15316W        W87730  12.726  40.861   2.297
15317W        W87731  13.679   7.259  14.865
15318W        W87732  28.152  29.559   4.757
15319W        W87733  40.830   2.465   1.715
15320W        W87734  32.026  36.529   3.654
15321W        W87735   5.252  12.679   2.706
15322W        W87736  24.642  36.916  13.914
15323W        W87737  42.882  34.578  10.997
15324W        W87738  42.015  24.668  13.312
15325W        W87739  30.956  36.994   2.709
15326W        W87740   1.803  20.143  13.499
15327W        W87741  19.192  26.122  14.457
15328W        W87742  35.456  13.599   0.392
15329W        W87743  38.027   9.840  13.529
15330W        W87744  30.632   2.843  14.485
15331W        W87745  33.068  24.032   1.366
15332W        W87746  27.574   8.723  14.402
15333W        W87747  15.650   1.399   2.364
15334W        W87748  11.770  37.560  13.059
15335W        W87749   0.945  34.024  13.867
15336W        W87750  33.403  42.434  14.448
15337W        W87751  34.559  11.161  11.000
15338W        W87752  17.628  25.565  13.391
15339W        W87753  24.171   7.363   3.751
15340W        W87754  17.611  34.594   3.715
15341W        W87755  24.496  42.964  14.349
15342W        W87756  40.833  39.934   4.238
15343W        W87757  38.839   9.181   4.174
15344W        W87758  26.145  34.926   3.311
15345W        W87759  20.639  13.701  11.607
15346W        W87760  19.707  22.509  13.042
15347W        W87761   2.324   0.328   0.836
15348W        W87762  25.986   5.336  13.408
15349W        W87763  41.977  34.955   0.764
15350W        W87764  26.701  36.466  14.279
15351W        W87765  30.158  29.097  10.898
15352W        W87766  15.183  41.794   2.303
15353W        W87767  29.626  33.959   2.198
15354W        W87768  21.656  37.339   3.688
15355W        W87769  12.756  35.454   2.679
15356W        W87770  40.414  24.562   2.822
15357W        W87771  27.617  14.689  11.076
15358W        W87772  35.016  42.922  14.968
15359W        W87773  11.775  19.221   2.729
15360W        W87774  42.848  16.600  14.323
15361W        W87775  27.951  17.699   1.931
15362W        W87776   3.375  11.815   2.327
15363W        W87777  20.080  41.937  12.372
15364W        W87778  21.251  24.485  14.777
15365W        W87779   7.302  23.013   4.311
15366W        W87780  44.380  23.588   2.244
15367W        W87781  14.273  32.109   3.723
15368W        W87782  24.502  30.017  14.992
15369W        W87783  25.188   9.332   4.657
15370W        W87784  16.769  12.644  10.433
15371W        W87785  32.097  27.556  10.959
15372W        W87786   2.430  22.555   3.709
15373W        W87787   0.315  30.518  12.839
15374W        W87788  28.560  17.612   4.644
15375W        W87789  10.725  10.373   3.713
15376W        W87790  13.195   0.474   3.276
15377W        W87791  26.989  32.895   0.887
15378W        W87792  14.193  37.361  12.440
15379W        W87793  20.218  10.198  13.942
15380W        W87794  30.047  16.305  11.494
15381W        W87795  20.722  36.010  14.433
15382W        W87796  39.900  40.401  12.460
15383W        W87797   4.849  17.145  10.579
15384W        W87798  36.558  37.358   9.992
15385W        W87799  36.070  10.192   2.196
15386W        W87800  30.089  18.144  14.339
15387W        W87801  21.021   8.727  12.044
15388W        W87802  41.359  32.919  10.585
15389W        W87803  44.428  40.524   4.208
15390W        W87804  17.646   7.904   0.244
15391W        W87805  38.030  38.465   1.223
15392W        W87806   7.850  35.080   3.805
15393W        W87807  27.109  10.800  11.599
15394W        W87808  33.090  37.512   1.227
15395W        W87809  38.499  21.575  13.793
15396W        W87810  32.012  37.562   0.397
15397W        W87811  32.595  38.068   0.406
15398W        W87812  43.483   8.203  14.923
15399W        W87813   4.327  43.958  11.450
15400W        W87814  33.047   8.888   4.330
15401W        W87815   0.932   5.804   2.838
15402W        W87816  14.327  25.021  10.926
15403W        W87817  13.155  13.822  10.573
15404W        W87818   4.211  13.605   0.749
15405W        W87819  30.952  29.986  13.513
15406W        W87820   8.291  33.884   1.214
15407W        W87821  14.593  17.779   0.850
15408W        W87822  44.473   6.277   1.259
15409W        W87823  33.097  44.301   3.215
15410W        W87824  30.981  17.730   0.940
15411W        W87825  36.586   9.239  14.280
15412W        W87826   1.917   5.931  12.957
15413W        W87827  15.223  29.627  10.477
15414W        W87828  28.150  12.273  11.566
15415W        W87829  10.741  11.724   3.808
15416W        W87830  26.050  31.546   2.272
15417W        W87831  43.287  30.525   4.290
15418W        W87832  18.661  28.124  14.006
15419W        W87833  14.709  29.061   0.376
15420W        W87834  25.474  12.168  10.588
15421W        W87835  41.356  21.753   3.314
15422W        W87836  43.420  44.268  10.488
15423W        W87837   0.357   3.843  11.598
15424W        W87838  17.292   7.380   3.150
15425W        W87839  44.759  27.533  11.064
15426W        W87840  17.662  42.806   3.769
15427W        W87841  10.144  43.307  13.971
15428W        W87842  15.164   9.365   2.371
15429W        W87843  13.631  30.970   4.327
15430W        W87844   9.859  43.018  11.376
15431W        W87845  25.592  12.117   4.284
15432W        W87846  24.196  27.518   2.273
15433W        W87847  23.493  16.302   2.357
15434W        W87848  18.632  16.695  13.908
15435W        W87849  14.761  12.718  11.604
15436W        W87850  12.288  42.956   0.918
15437W        W87851  15.206  29.980  11.909
15438W        W87852  17.284  32.566   1.358
15439W        W87853   7.736  20.753  11.117
15440W        W87854  17.715  44.269  12.088
15441W        W87855  33.876   7.243  14.364
15442W        W87856  11.308  25.102   0.743
15443W        W87857  32.500  39.427   4.607
15444W        W87858  18.160  26.535  13.800
15445W        W87859  44.338  33.125   4.608
15446W        W87860   5.837  33.523  12.925
15447W        W87861   3.292  42.367   1.364
15448W        W87862  41.439  39.028  14.464
15449W        W87863  43.342  27.045  12.058
15450W        W87864   3.227  26.638   4.653
15451W        W87865  36.377  36.894   0.480
15452W        W87866  13.838  40.969   2.899
15453W        W87867  13.742  24.535  10.916
15454W        W87868  36.911   9.362   3.796
15455W        W87869  17.163  42.892   5.277
15456W        W87870   3.788  38.041  13.321
15457W        W87871  36.875   9.788   0.795
15458W        W87872  37.486  39.008   5.101
15459W        W87873  36.095  35.501   1.306
15460W        W87874  11.160   5.873   2.371
15461W        W87875   9.175  22.173   0.315
15462W        W87876  37.854  36.007   5.109
15463W        W87877  15.311   0.332   2.279
15464W        W87878   2.967  42.479  12.042
15465W        W87879  41.309  28.621   2.836
15466W        W87880  22.707  27.605  14.819
15467W        W87881  11.772  44.490  12.392
15468W        W87882  34.040  14.767  12.095
15469W        W87883  32.128  27.460   4.803
15470W        W87884   1.272  27.560   1.385
15471W        W87885   8.690   3.846   3.156
15472W        W87886  23.593   2.283  10.978
15473W        W87887   3.364  11.810   5.235
15474W        W87888  20.170  23.503   4.184
15475W        W87889  38.376   8.862   4.655
15476W        W87890  23.724  30.589  12.353
15477W        W87891   6.866  23.019  10.999
15478W        W87892  13.329  13.168   2.681
15479W        W87893  25.107  17.623   3.325
15480W        W87894  28.021  11.227  10.525
15481W        W87895  42.323  36.030  12.076
15482W        W87896  37.024  24.139   3.682
15483W        W87897  16.268   7.741   5.115
15484W        W87898  13.115  23.203   3.205
15485W        W87899  44.999  32.028  14.987
15486W        W87900  32.600  42.814  14.806
15487W        W87901  43.937  33.385   1.823
15488W        W87902  23.650  13.221  12.826
15489W        W87903  19.745  14.772  13.801
15490W        W87904  26.001   4.897  14.912
15491W        W87905   2.770  22.999  10.968
15492W        W87906  13.606  19.561  13.869
15493W        W87907   6.388  11.351  14.783
15494W        W87908  31.930   9.202  10.961
15495W        W87909  23.153   6.368  12.086
15496W        W87910  16.786  28.598   4.304
15497W        W87911  28.981  41.789  12.484
15498W        W87912  15.119  17.191   2.184
15499W        W87913   5.211  40.937  12.554
15500W        W87914  26.138  39.557   4.119
15501W        W87915  13.350  20.029  11.899
15502W        W87916  44.995  25.999  13.461
15503W        W87917  19.188  42.929   4.734
15504W        W87918   1.855   1.735  14.977
15505W        W87919  38.539  33.490  11.900
15506W        W87920   5.207  13.188   9.977
15507W        W87921  21.743  11.788  14.514
15508W        W87922  12.670  21.233   4.783
15509W        W87923  11.787  33.048  13.975
15510W        W87924  11.280  31.621  12.520
15511W        W87925   8.813  36.081  13.977
15512W        W87926  22.684  28.444  12.073
15513W        W87927  43.849  27.648   4.805
15514W        W87928  34.090  20.154  14.884
15515W        W87929  27.549   4.248   1.414
15516W        W87930  38.547  30.973   4.725
15517W        W87931  13.840   4.882  10.506
15518W        W87932  36.018  22.135   3.329
15519W        W87933  16.778  41.300   0.407
15520W        W87934   3.237  23.729  11.507
15521W        W87935  42.324  34.047   3.808
15522W        W87936  43.986  34.450  12.395
15523W        W87937  30.418  44.977   3.830
15524W        W87938  31.578   4.810  12.404
15525W        W87939  43.906  21.240  13.435
15526W        W87940  17.647   1.475   0.441
15527W        W87941   4.320  33.021  14.985
15528W        W87942  36.950  33.588  12.938
15529W        W87943  37.014  11.351   4.778
15530W        W87944  19.173  37.887  11.552
15531W        W87945  16.102  40.004  10.641
15532W        W87946  44.325  33.962   2.771
15533W        W87947   3.823  31.096   1.904
15534W        W87948  18.117  16.659  13.999
15535W        W87949  35.515  24.722   0.800
15536W        W87950   1.900  12.823   4.177
15537W        W87951  14.659  14.249  11.918
15538W        W87952  25.219  44.345   3.286
15539W        W87953   8.275  27.592  10.943
15540W        W87954  12.211   2.799  14.890
15541W        W87955  44.418   5.256  12.417
15542W        W87956  43.910  41.792  10.983
15543W        W87957  21.034  42.509  10.498
15544W        W87958  44.357  28.536   1.214
15545W        W87959  30.519   3.832   3.765
15546W        W87960  12.322  23.095  14.404
15547W        W87961  39.950  22.196  12.555
15548W        W87962   7.778  29.601  10.415
15549W        W87963  27.501  11.326  12.880
15550W        W87964  31.973  42.910  10.622
15551W        W87965  25.540   2.855   1.402
15552W        W87966  12.610  26.065  14.516
15553W        W87967   2.247  23.207   1.860
15554W        W87968  30.476  26.525  10.977
15555W        W87969   1.383  35.513   0.960
15556W        W87970  36.978  41.931  11.971
15557W        W87971  31.475  25.213  11.401
15558W        W87972  13.816   7.809   3.213
15559W        W87973  30.075   2.786  14.403
15560W        W87974  27.584   8.654  12.562
15561W        W87975   6.237  23.189   1.239
15562W        W87976  26.023  41.295  13.916
15563W        W87977  42.387  39.391  13.952
15564W        W87978   2.859  14.102   3.246
15565W        W87979  11.198  23.705   3.148
15566W        W87980  27.143  40.470   2.241
15567W        W87981  43.474   8.348  11.519
15568W        W87982   4.801   9.364   4.354
15569W        W87983  12.656   4.898   3.255
15570W        W87984  22.723  10.810  12.371
15571W        W87985  42.992  42.423  10.605
15572W        W87986  12.778   9.874  14.298
15573W        W87987  38.467  18.296  14.014
15574W        W87988  43.806   7.322  12.535
15575W        W87989  13.794  25.148   4.334
15576W        W87990   0.483  29.530   3.151
15577W        W87991   3.315   8.839   2.863
15578W        W87992  18.594  42.508  12.540
15579W        W87993  27.145  24.675   3.800
15580W        W87994  22.082  41.537   1.272
15581W        W87995   2.380  22.090  11.110
15582W        W87996  43.377  18.131   1.875
15583W        W87997  21.077  29.010  11.378
15584W        W87998  23.164  36.871  14.983
15585W        W87999  12.251   5.295  12.476
15586W        W88000  34.604  37.900  12.459
15587W        W88001  12.636  44.389   4.244
15588W        W88002   1.238  33.535   0.470
15589W        W88003  38.473  35.473   9.946
15590W        W88004   0.357  34.020   1.266
15591W        W88005  19.575  13.697   2.356
15592W        W88006  10.798  13.346   0.322
15593W        W88007  35.447  13.758  12.923
15594W        W88008   4.728  24.537   3.833
15595W        W88009  21.566  25.074   5.262
15596W        W88010  10.255  31.088   0.790
15597W        W88011  22.559  30.576   0.793
15598W        W88012  18.735  23.008  13.517
15599W        W88013  36.375  23.543   2.719
15600W        W88014  26.633  36.926   9.925
15601W        W88015   4.857  19.668   1.220
15602W        W88016  43.494  10.184   0.369
15603W        W88017  32.485  28.116   0.792
15604W        W88018  29.977   8.181  12.939
15605W        W88019   1.946  29.941   0.306
15606W        W88020  36.389   1.942   0.864
15607W        W88021  15.223   5.752   1.369
15608W        W88022  20.188  21.123  11.090
15609W        W88023  26.558  43.280  11.526
15610W        W88024  23.002  24.164  12.019
15611W        W88025  13.290  39.417  11.437
15612W        W88026   4.383  39.987  12.530
15613W        W88027  42.457   8.192   2.707
15614W        W88028  21.622  29.161   4.280
15615W        W88029   5.222  30.042   1.292
15616W        W88030  34.395  28.665  10.921
15617W        W88031  35.880  40.484  12.038
15618W        W88032   6.324  40.388  10.515
15619W        W88033  12.284  36.439  12.540
15620W        W88034   5.327  39.522  13.969
15621W        W88035  42.823  21.059   4.649
15622W        W88036  16.657  10.872   0.367
15623W        W88037  15.808   0.980   0.438
15624W        W88038  32.545  14.227  11.523
15625W        W88039   2.773  28.058   0.818
15626W        W88040  37.872  42.914  14.798
15627W        W88041  35.400  19.263   2.233
15628W        W88042   4.437  28.669   0.450
15629W        W88043  20.173   3.395   1.869
15630W        W88044  31.607  21.056  13.487
15631W        W88045  31.446   1.790  12.483
15632W        W88046  44.882  13.182   4.762
15633W        W88047  23.656  29.519  13.522
15634W        W88048  27.557  10.331   3.797
15635W        W88049  38.489  32.404  11.562
15636W        W88050  30.040  31.922  11.878
15637W        W88051  28.027  34.559   2.663
15638W        W88052  22.039  42.286  13.408
15639W        W88053  29.646  31.003   2.897
15640W        W88054   9.283   4.290  14.783
15641W        W88055   6.905  10.196   4.706
15642W        W88056  29.168   3.413  13.048
15643W        W88057  19.622  19.563   3.252
15644W        W88058  21.741  33.121  10.469
15645W        W88059  27.494  27.476  14.843
15646W        W88060  31.592   9.747  12.546
15647W        W88061  12.761  17.606  14.466
15648W        W88062  28.988  15.139   4.755
15649W        W88063  12.137  40.492  12.056
15650W        W88064  26.155  22.205  11.502
15651W        W88065  35.430   0.270   3.353
15652W        W88066  32.031  39.931  10.518
15653W        W88067  38.071   6.342   1.273
15654W        W88068  29.627  24.127  13.345
15655W        W88069  16.605   2.358   1.378
15656W        W88070  22.562  24.724   2.673
15657W        W88071  41.485  40.021  11.096
15658W        W88072   1.337  34.370   4.135
15659W        W88073  17.799  39.910   2.667
15660W        W88074  12.634  40.505  12.998
15661W        W88075  42.289  17.207  11.387
15662W        W88076   6.257   7.743   0.257
15663W        W88077  16.795  23.723   0.344
15664W        W88078  31.035  37.352   3.155
15665W        W88079   9.287  19.773   1.304
15666W        W88080  18.788  31.968  14.016
15667W        W88081  31.958  34.873  13.051
15668W        W88082  40.410  24.561   2.216
15669W        W88083  13.231  27.990  10.996
15670W        W88084  23.567  15.158   3.718
15671W        W88085  17.080   3.777  13.044
15672W        W88086  11.770  30.123  14.274
15673W        W88087  17.797  24.659   1.325
15674W        W88088  37.579   5.336   0.734
15675W        W88089  44.959  33.518  13.309
15676W        W88090  26.145   8.359  11.106
15677W        W88091  40.885   3.878  11.573
15678W        W88092  19.635  10.356   2.279
15679W        W88093   5.732  30.505  12.847
15680W        W88094  37.846  12.202  13.391
15681W        W88095   1.433  19.726   0.312
15682W        W88096  14.340  12.652  11.935
15683W        W88097  29.479  10.348   1.412
15684W        W88098  40.469  12.775  14.461
15685W        W88099  17.557  32.128   4.769
15686W        W88100  25.574   2.230  12.473
15687W        W88101  28.185  26.565  12.921
15688W        W88102  26.977  11.708   0.246
15689W        W88103  41.932  26.624   2.732
15690W        W88104  11.160   3.938  13.948
15691W        W88105  28.141  20.256   0.274
15692W        W88106  26.662  26.460  11.041
15693W        W88107  13.137  38.484   4.352
15694W        W88108  10.323  30.066   2.811
15695W        W88109   2.914   0.979  11.588
15696W        W88110  42.328  32.005   3.321
15697W        W88111   1.753  22.123   2.808
15698W        W88112  35.505  14.164  13.879
15699W        W88113  39.938  27.670   3.231
15700W        W88114  27.163   2.821  14.373
15701W        W88115  42.305  30.945   1.748
15702W        W88116  35.580   6.830  13.448
15703W        W88117   4.449  10.296   1.443
15704W        W88118  40.847  10.786  11.098
15705W        W88119  32.562   0.913  14.765
15706W        W88120  38.026  28.055   4.636
15707W        W88121  35.875   5.733  12.467
15708W        W88122  16.090  30.623   4.168
15709W        W88123   4.715  20.144  12.505
15710W        W88124  26.146  24.180  11.050
15711W        W88125   5.848  20.221  12.844
15712W        W88126   2.742  32.619  14.431
15713W        W88127  20.101  27.184  11.418
15714W        W88128   7.796  28.539  12.988
15715W        W88129  31.592  18.574   4.317
15716W        W88130   1.857  44.803  13.420
15717W        W88131  25.102  37.342   0.961
15718W        W88132  41.868  26.510   0.848
15719W        W88133  31.068  25.193  14.798
15720W        W88134  18.623  38.002  14.851
15721W        W88135  31.631  40.427  12.827
15722W        W88136  33.398  32.405  12.829
15723W        W88137  25.527  13.303   1.931
15724W        W88138  26.463  18.259  12.402
15725W        W88139  29.936  44.367  12.027
15726W        W88140  33.400  25.624  11.516
15727W        W88141   2.766  12.246   4.745
15728W        W88142  31.086  15.685  13.059
15729W        W88143  26.620  39.062   3.323
15730W        W88144  10.173  12.613   4.256
15731W        W88145  22.040  24.179  10.410
15732W        W88146  19.048  35.570   3.380
15733W        W88147  44.334  25.096  14.284
15734W        W88148  35.412  27.461  14.784
15735W        W88149  44.755  39.065  14.813
15736W        W88150  15.125  16.773   1.745
15737W        W88151  31.023  25.203   4.804
15738W        W88152  35.004  23.686   2.331
15739W        W88153  10.195  28.668   2.810
15740W        W88154  26.021   8.308   4.254
15741W        W88155  15.253  26.531   3.306
15742W        W88156  28.444  24.567   2.380
15743W        W88157  35.452  27.676  13.843
15744W        W88158  29.111  15.597  12.864
15745W        W88159  16.307  31.026   0.258
15746W        W88160   6.694  16.304   3.667
15747W        W88161  19.091  40.350  11.470
15748W        W88162  24.557  43.294  12.426
15749W        W88163  23.082   1.475   0.280
15750W        W88164  27.472  37.856   0.260
15751W        W88165  14.103  14.795   3.840
15752W        W88166  40.820  14.323  12.506
15753W        W88167   9.653  21.071  13.386
15754W        W88168  32.496  34.427   1.862
15755W        W88169  30.431  18.610   3.836
15756W        W88170  27.147  33.401  10.964
15757W        W88171  26.172  43.937  11.556
15758W        W88172  23.229   0.247  10.430
15759W        W88173  33.057  26.134   2.753
15760W        W88174  13.329  22.668   2.284
15761W        W88175  23.564  16.117   0.927
15762W        W88176  24.071  32.071   3.207
15763W        W88177  16.176   5.727   0.390
15764W        W88178   5.317  39.471   4.812
15765W        W88179   5.733  16.704   4.784
15766W        W88180  26.966  27.595   4.283
15767W        W88181  29.658  30.907  14.910
15768W        W88182  42.021  12.620   2.262
15769W        W88183  25.664  39.377   2.893
15770W        W88184  26.602  38.397  12.561
15771W        W88185  27.094  43.018   2.806
15772W        W88186  39.994   2.411  14.301
15773W        W88187  39.542  15.292   2.855
15774W        W88188  11.282  12.811  14.987
15775W        W88189  32.094  18.744   3.717
15776W        W88190  24.584  43.272  12.075
15777W        W88191  17.276  36.036   5.099
15778W        W88192   6.289  36.540   0.728
15779W        W88193  28.442  40.996  10.610
15780W        W88194  22.573   8.244   1.905
15781W        W88195  11.776   0.279  12.389
15782W        W88196  44.859  30.102  12.537
15783W        W88197  21.726  41.967   2.818
15784W        W88198  11.173  37.336   3.653
15785W        W88199  29.143   5.788  13.986
15786W        W88200   8.750  11.185  10.435
15787W        W88201  21.119  36.098  10.912
15788W        W88202   7.711   3.743   4.793
15789W        W88203  22.209   4.384  14.456
15790W        W88204  10.322   4.282   2.280
15791W        W88205   9.881  25.201  12.038
15792W        W88206  24.530   5.804  12.892
15793W        W88207   0.273  19.078   4.749
15794W        W88208  20.034  23.524   3.798
15795W        W88209   6.676   6.693  11.421
15796W        W88210  43.794   9.329  13.997
15797W        W88211  12.666   2.913  13.052
15798W        W88212  28.671  23.726   5.157
15799W        W88213  27.518  31.017  12.370
15800W        W88214  40.371   9.376  14.316
15801W        W88215   9.202  14.821  12.345
15802W        W88216   9.227  14.274  10.911
15803W        W88217  37.499  41.396   2.330
15804W        W88218  15.660  23.010  13.448
15805W        W88219  18.148  28.618  13.409
15806W        W88220  29.536  35.437  14.807
15807W        W88221  16.308  27.501  12.051
15808W        W88222  25.609  36.058  12.009
15809W        W88223  35.537  31.436   4.733
15810W        W88224  38.486  11.285   0.945
15811W        W88225  13.113  15.770  10.453
15812W        W88226  20.554  36.980  13.449
15813W        W88227  26.104  25.092  11.075
15814W        W88228   5.321  34.438  13.327
15815W        W88229  19.646  32.987  13.062
15816W        W88230  11.778  14.330   4.222
15817W        W88231  26.679  39.896  10.633
15818W        W88232  44.488   7.177   2.793
15819W        W88233  37.886   9.169  14.830
15820W        W88234  37.006   0.301   0.437
15821W        W88235  41.476  37.845  13.873
15822W        W88236  26.045  40.521   3.796
15823W        W88237  33.886  25.558   3.259
15824W        W88238  27.016  24.988   3.856
15825W        W88239  26.610  32.556   0.929
15826W        W88240  17.109  24.569   0.450
15827W        W88241  15.326  14.310  11.480
15828W        W88242  23.558  14.127  12.514
15829W        W88243   1.860  44.441   0.291
15830W        W88244   8.251  37.541   2.372
15831W        W88245  34.956  25.642  10.559
15832W        W88246  21.595  33.894   3.642
15833W        W88247  24.229  37.429   4.312
15834W        W88248  32.892  35.543  13.927
15835W        W88249  34.052  14.772  12.543
15836W        W88250   4.398   5.284  12.071
15837W        W88251  22.051  28.447  12.029
15838W        W88252  38.825  27.054   4.603
15839W        W88253  27.497  15.206  14.282
15840W        W88254   7.702  41.008   1.408
15841W        W88255  12.247   7.722  13.410
15842W        W88256  31.154   6.912   4.331
15843W        W88257   7.810  13.309   2.799
15844W        W88258  15.717   3.363   4.823
15845W        W88259  33.015   7.846  11.529
15846W        W88260  12.848   7.776  11.532
15847W        W88261  35.029   6.218   2.202
15848W        W88262  14.821  27.940  11.044
15849W        W88263  13.336  35.597   1.853
15850W        W88264  15.115  32.456   1.386
15851W        W88265  31.073  21.046  10.890
15852W        W88266  44.464   1.745   1.776
15853W        W88267  21.706  18.097  13.343
15854W        W88268  27.196  43.919   4.238
15855W        W88269  18.212  40.544  10.600
15856W        W88270   7.370  12.347  13.968
15857W        W88271  23.517   2.779   4.200
15858W        W88272  41.949   3.927   3.290
15859W        W88273  36.433  41.302   0.468
15860W        W88274  16.305  29.155   3.849
15861W        W88275  10.138  11.789  12.339
15862W        W88276  13.197  38.432   3.662
15863W        W88277  32.557  13.270  12.514
15864W        W88278  17.683  28.493  13.513
15865W        W88279  36.876  10.813   4.621
15866W        W88280  42.932  26.992  14.829
15867W        W88281   5.426  31.032   1.412
15868W        W88282  40.417  41.293  14.331
15869W        W88283  30.539  21.212   1.377
15870W        W88284  11.818  38.868   0.896
15871W        W88285   3.238  12.223   2.777
15872W        W88286  38.926  14.160   0.414
15873W        W88287  20.070  29.488  13.375
15874W        W88288  18.177  12.191   2.708
15875W        W88289   2.944  13.803  14.502
15876W        W88290   5.850  15.136  11.407
15877W        W88291   2.438  34.921   4.248
15878W        W88292  35.977  19.192   1.253
15879W        W88293  31.056  38.827  12.915
15880W        W88294  22.019  36.562   3.269
15881W        W88295  38.053  28.534  14.455
15882W        W88296  10.718  40.545   1.273
15883W        W88297  23.985  41.936  10.631
15884W        W88298  12.677  30.611  13.821
15885W        W88299  22.700   5.369   0.443
15886W        W88300   0.772  44.270   1.383
15887W        W88301  37.053   4.709   2.380
15888W        W88302  43.010  25.554   3.669
15889W        W88303   7.212  32.902  11.457
15890W        W88304  14.796  26.062   1.733
15891W        W88305  36.389  10.271   1.735
15892W        W88306   3.307  26.527   4.260
15893W        W88307   4.330  38.938  12.499
15894W        W88308   8.166  26.648   0.884
15895W        W88309  13.729  16.569  13.418
15896W        W88310  16.691  18.221   4.674
15897W        W88311  22.086   9.789   0.903
15898W        W88312  23.056  36.513   4.603
15899W        W88313  34.521  39.329   1.825
15900W        W88314  23.614   7.339  14.793
15901W        W88315  24.649  40.911   2.191
15902W        W88316  11.242  34.523   4.603
15903W        W88317   4.414  34.562  11.929
15904W        W88318  37.900  27.952   3.330
15905W        W88319  32.047  27.981  14.956
15906W        W88320  23.593   7.859  13.531
15907W        W88321  37.568   5.835   4.148
15908W        W88322  31.987  26.008  11.407
15909W        W88323  10.140  28.492   3.192
15910W        W88324  27.480   6.390  13.378
15911W        W88325   8.680  36.937   3.682
15912W        W88326  41.312  13.181   3.836
15913W        W88327  11.822  26.091  10.566
15914W        W88328  34.121  27.627  10.565
15915W        W88329  18.196  43.328  13.961
15916W        W88330   1.773  26.472  12.346
15917W        W88331  23.506  13.669   3.367
15918W        W88332  35.026  25.615   3.310
15919W        W88333  27.023  27.055  14.419
15920W        W88334  26.584  32.017   1.897
15921W        W88335  30.591  32.589  13.496
15922W        W88336   4.301  28.978   9.975
15923W        W88337  32.563  37.369  14.870
15924W        W88338   7.685  17.084  12.090
15925W        W88339   7.681   7.845  10.435
15926W        W88340   2.419  23.663   3.218
15927W        W88341  15.652  22.634   0.339
15928W        W88342  19.283  21.552  10.977
15929W        W88343  22.722  25.530  10.980
15930W        W88344   7.302  44.422  14.920
15931W        W88345  24.682  36.571  14.785
15932W        W88346  27.629  20.618  13.949
15933W        W88347  32.916  42.787  14.028
15934W        W88348  26.493  33.458   0.850
15935W        W88349  33.492   1.355  12.898
15936W        W88350  42.301  40.454  14.967
15937W        W88351  27.126  44.483  10.961
15938W        W88352  34.569  44.821   2.762
15939W        W88353  36.992   0.763  10.983
15940W        W88354  27.025  38.457   3.307
15941W        W88355  23.615  17.155   1.741
15942W        W88356  41.916   6.273   2.820
15943W        W88357  42.401   1.468  14.305
15944W        W88358  21.112  15.123   4.811
15945W        W88359  44.893   2.319  13.308
15946W        W88360  16.651  40.412   3.227
15947W        W88361  36.453   6.415   9.966
15948W        W88362   7.206  36.401  14.887
15949W        W88363   8.339   2.844  13.826
15950W        W88364  13.348  24.620   1.281
15951W        W88365  12.233  14.605   4.832
15952W        W88366  12.621  26.204   0.757
15953W        W88367   4.740  42.313  12.054
15954W        W88368   9.865  15.175  13.310
15955W        W88369  12.854   7.244  14.993
15956W        W88370   7.174   1.765   2.903
15957W        W88371  15.626   9.663   0.763
15958W        W88372  15.777   8.221   0.848
15959W        W88373  16.715   0.274   2.260
15960W        W88374  33.876  25.203   2.848
15961W        W88375   2.357  40.028   0.401
15962W        W88376   6.801  44.283   0.813
15963W        W88377  21.153  15.617  14.367
15964W        W88378   0.802  35.014   2.296
15965W        W88379   3.927  42.941  12.444
15966W        W88380  28.993  28.493   1.805
15967W        W88381   8.247  38.975   0.329
15968W        W88382  36.553  38.875   2.367
15969W        W88383  18.266  24.098   3.274
15970W        W88384  29.966  27.599  12.411
15971W        W88385   5.248   2.376   3.656
15972W        W88386  15.201  28.151   4.726
15973W        W88387  41.464  10.214   3.167
15974W        W88388   6.411   4.237  13.847
15975W        W88389  33.575  17.280   3.336
15976W        W88390  39.008  43.810   2.894
15977W        W88391   9.823  42.512   0.322
15978W        W88392  18.788  34.518  13.486
15979W        W88393  40.865  13.785  10.475
15980W        W88394  39.455   1.758   3.301
15981W        W88395   4.884  17.715   9.987
15982W        W88396  41.431   5.325  11.520
15983W        W88397  16.746  27.996   2.278
15984W        W88398  37.577  37.477  11.104
15985W        W88399   3.714  26.180  12.493
15986W        W88400  25.112  16.205   3.251
15987W        W88401  27.161  21.111  14.795
15988W        W88402  35.478  16.264  12.981
15989W        W88403  35.980  35.578  10.999
15990W        W88404  32.139   8.281  11.374
15991W        W88405  34.920   2.882  12.449
15992W        W88406   1.971  12.731  12.018
15993W        W88407  22.175  12.712   2.729
15994W        W88408  35.399   8.367  11.983
15995W        W88409   1.324  34.933  13.855
15996W        W88410  34.987   7.787  14.285
15997W        W88411  17.560   4.217   4.752
15998W        W88412  13.737  37.085   4.688
15999W        W88413  15.680   0.956   1.252
16000W        W88414   3.365  44.877  10.536
16001W        W88415  19.629  11.785   4.814
16002W        W88416  39.899  41.490   3.363
16003W        W88417  10.803   0.952  13.435
16004W        W88418  37.457  14.099  13.323
16005W        W88419  28.129   7.803  11.879
16006W        W88420  16.802  29.443  11.864
16007W        W88421   7.272   3.818  11.018
16008W        W88422  43.935   7.850   0.756
16009W        W88423   8.794  40.445  14.487
16010W        W88424   5.326  24.586   0.381
16011W        W88425  39.920  26.641  11.915
16012W        W88426  22.081   9.333  10.442
16013W        W88427  13.176  38.534   1.870
16014W        W88428  40.443  42.518   1.276
16015W        W88429  31.616  30.916   4.738
16016W        W88430  28.576  13.609   4.599
16017W        W88431  22.505  17.167  14.840
16018W        W88432  11.208  33.501   4.255
16019W        W88433  38.348  32.890   0.479
16020W        W88434  12.824  44.288  14.299
16021W        W88435  40.960   8.369  12.891
16022W        W88436  10.189   4.347   0.301
16023W        W88437  43.438   3.872  11.477
16024W        W88438  27.142  17.602  11.963
16025W        W88439  24.503  18.088   9.494
16026W        W88440  14.339  18.724  14.848
16027W        W88441   3.277  14.290  14.830
16028W        W88442   9.270  11.741  10.926
16029W        W88443  36.088  31.958   3.310
16030W        W88444  18.739  15.171   4.779
16031W        W88445  28.457  44.341  12.897
16032W        W88446  15.148  19.743  14.790
16033W        W88447   5.864  32.081   4.280
16034W        W88448  27.172  14.693   4.293
16035W        W88449   7.209  33.468   0.889
16036W        W88450   6.342  37.543   3.249
16037W        W88451  10.335  24.086  12.853
16038W        W88452  16.651  29.549   3.169
16039W        W88453  23.216  24.708   4.145
16040W        W88454  22.188  39.817  13.905
16041W        W88455  37.541  24.007   4.691
16042W        W88456  15.155  41.816  13.978
16043W        W88457  21.627  19.667  13.917
16044W        W88458  32.008  10.301  11.978
16045W        W88459   6.210   9.318  12.399
16046W        W88460  37.026  29.626  11.888
16047W        W88461   7.902  22.180   4.198
16048W        W88462  27.532   9.826   2.735
16049W        W88463  40.862  19.086   1.431
16050W        W88464  10.373  19.588  12.842
16051W        W88465   0.782  19.776   4.150
16052W        W88466   1.900  14.333   0.926
16053W        W88467  19.095  34.474   4.804
16054W        W88468   1.933  39.058   1.709
16055W        W88469  23.523  39.958   0.357
16056W        W88470  31.944  38.897   2.896
16057W        W88471  19.777   3.459  13.357
16058W        W88472  41.403  31.061   0.481
16059W        W88473   4.290  42.950  11.419
16060W        W88474  26.994   4.241   0.726
16061W        W88475  37.396  33.407   2.209
16062W        W88476   4.785   7.364   4.774
16063W        W88477  30.117  26.954   2.746
16064W        W88478  36.931  40.006  13.847
16065W        W88479  30.049   1.474   1.726
16066W        W88480  26.700  11.851   5.150
16067W        W88481  11.250  29.154  14.002
16068W        W88482  39.384  32.104   0.863
16069W        W88483  42.978  24.577  13.438
16070W        W88484   7.779   4.811   9.933
16071W        W88485  28.671   7.727   2.408
16072W        W88486  15.675  37.077  13.004
16073W        W88487  31.406  17.082  14.486
16074W        W88488  10.807  35.941  10.556
16075W        W88489  34.987  31.989  13.976
16076W        W88490   4.260  28.021  14.964
16077W        W88491  26.108  38.887   3.709
16078W        W88492   1.262  36.968  10.600
16079W        W88493  41.992   5.910   0.465
16080W        W88494   9.818  42.916  12.859
16081W        W88495  42.979  24.990   9.930
16082W        W88496  34.045  34.892   4.827
16083W        W88497  37.070  16.791  11.421
16084W        W88498  29.511  24.213  14.854
16085W        W88499  37.573  30.496  10.566
16086W        W88500  30.030  37.406   1.732
16087W        W88501  15.199  28.993   4.723
16088W        W88502  24.654   4.785   0.816
16089W        W88503  21.610  24.089  13.458
16090W        W88504   7.262   5.392  10.515
16091W        W88505  29.148  21.720   0.315
16092W        W88506  19.136  12.191  13.406
16093W        W88507  43.806   8.291   0.819
16094W        W88508  19.708   3.289   2.398
16095W        W88509  11.683  27.571  14.393
16096W        W88510  20.734  11.335  12.073
16097W        W88511  15.240   6.823  13.869
16098W        W88512  12.651  12.817  12.532
16099W        W88513  21.647  29.622   3.230
16100W        W88514  33.051  34.439   0.401
16101W        W88515  35.441  25.138   3.750
16102W        W88516  33.887  28.652  12.542
16103W        W88517  23.152   7.877   1.223
16104W        W88518   8.231   9.196  13.862
16105W        W88519   9.156  34.531  11.516
16106W        W88520   9.160  42.823   0.882
16107W        W88521  29.977  16.609  11.402
16108W        W88522   4.920   1.920   3.348
16109W        W88523  39.875  16.689   0.950
16110W        W88524  23.225  24.162  11.479
16111W        W88525  40.380   6.225   1.318
16112W        W88526  27.022  37.446   2.853
16113W        W88527  39.542  32.559  10.920
16114W        W88528  11.337  21.553  13.860
16115W        W88529   0.903   2.381  14.471
16116W        W88530  41.427   0.316   2.188
16117W        W88531  15.132  20.242   0.442
16118W        W88532  27.076  20.751   4.706
16119W        W88533  35.488   7.670   3.357
16120W        W88534  23.593  24.567  14.800
16121W        W88535  32.462  44.777   2.868
16122W        W88536  20.636   5.836   4.330
16123W        W88537  27.002  17.181  13.471
16124W        W88538  32.533  23.064  14.472
16125W        W88539  17.596  20.533   2.885
16126W        W88540   6.762  40.813  14.856
16127W        W88541   5.252   0.254   1.741
16128W        W88542  14.627  36.460   4.310
16129W        W88543  10.311  43.322  11.078
16130W        W88544   7.254  24.089   0.389
16131W        W88545  30.048   4.437   3.314
16132W        W88546  10.747  43.421  13.941
16133W        W88547   4.360  12.318  12.537
16134W        W88548  44.347  29.172   2.238
16135W        W88549   3.925  23.668  12.994
16136W        W88550  13.123   4.408   3.338
16137W        W88551  21.668  37.423   0.872
16138W        W88552  22.020   5.337   0.773
16139W        W88553   3.377  24.011  14.911
16140W        W88554  23.539  10.365  11.002
16141W        W88555   8.833  35.457   0.856
16142W        W88556  24.192  22.525  10.114
16143W        W88557  27.486  44.763  13.909
16144W        W88558  31.489  22.666   0.798
16145W        W88559  40.407  19.134  10.513
16146W        W88560  20.572  38.034   1.403
16147W        W88561  12.362  44.896   3.831
16148W        W88562  22.173  13.606   2.269
16149W        W88563   5.374  23.177   1.752
16150W        W88564  29.152   4.257  14.296
16151W        W88565  36.567   4.915  12.906
16152W        W88566  32.526   4.895   3.329
16153W        W88567  39.403  10.874   2.390
16154W        W88568  17.603  22.047   0.450
16155W        W88569  28.466   9.833   3.734
16156W        W88570  12.835  16.801  11.095
16157W        W88571  31.547  44.888  12.536
16158W        W88572  28.525   5.790   2.877
16159W        W88573   6.851   7.752  12.931
16160W        W88574  29.067  19.183   4.779
16161W        W88575   1.461   2.410   2.395
16162W        W88576  40.803  20.736   1.898
16163W        W88577  11.192  34.474   0.380
16164W        W88578  12.285  35.994  10.426
16165W        W88579  23.136  15.590  13.378
16166W        W88580  34.590  41.513  10.525
16167W        W88581   6.822  16.767  10.539
16168W        W88582  20.229  36.985  13.869
16169W        W88583  17.183  33.967   1.699
16170W        W88584   1.838  44.912   3.670
16171W        W88585  40.990  44.942  12.459
16172W        W88586  16.305  18.071  12.070
16173W        W88587  11.366  10.863  14.300
16174W        W88588  43.882  13.350   0.775
16175W        W88589  20.249  34.065  13.369
16176W        W88590  37.070   7.300   0.277
16177W        W88591  43.349  41.382  11.916
16178W        W88592  10.149  29.040  13.378
16179W        W88593   1.753  21.548   1.731
16180W        W88594  33.481   5.335  12.851
16181W        W88595  23.113  27.610  14.908
16182W        W88596  44.753  35.029   3.350
16183W        W88597  15.100  13.212  12.389
16184W        W88598  22.226  39.437  13.995
16185W        W88599  24.118  34.049   2.873
16186W        W88600  17.784  21.708   1.406
16187W        W88601  13.339  40.975   0.260
16188W        W88602  23.702  41.347   1.271
16189W        W88603   1.349   0.936  12.554
16190W        W88604  29.166  23.693  11.071
16191W        W88605   9.165  43.801   2.289
16192W        W88606  40.036   3.948   3.744
16193W        W88607  44.342  26.689  13.908
16194W        W88608   0.396  20.588  12.942
16195W        W88609  28.648   1.333   4.777
16196W        W88610   0.468  40.806   2.861
16197W        W88611  17.679   6.892  13.028
16198W        W88612   0.899   2.314  10.942
16199W        W88613   2.809  41.477   1.284
16200W        W88614  25.535  40.824   1.212
16201W        W88615  40.433   5.366   3.336
16202W        W88616  10.286   5.908  13.529
16203W        W88617  39.843  35.600  11.516
16204W        W88618  40.500  26.460   1.845
16205W        W88619   3.386   6.319  11.507
16206W        W88620  28.022  11.315   4.767
16207W        W88621  16.590   1.840   4.263
16208W        W88622  43.364  33.410  14.861
16209W        W88623   5.304  40.959   1.705
16210W        W88624  38.872  29.021  13.796
16211W        W88625   9.862  35.584   1.895
16212W        W88626  20.077  39.892   3.187
16213W        W88627   5.368  12.739   5.159
16214W        W88628  14.743  17.660  13.797
16215W        W88629  41.034  17.175   3.750
16216W        W88630   6.291  35.963   2.791
16217W        W88631  36.870  37.498  12.570
16218W        W88632  25.564  32.937   2.783
16219W        W88633  19.242  35.920  10.541
16220W        W88634  31.569   8.730  13.464
16221W        W88635  24.141   3.885   1.237
16222W        W88636  44.960  26.620  14.889
16223W        W88637  21.245  36.886  10.448
16224W        W88638   9.752   9.303  14.806
16225W        W88639  40.341  15.312   2.724
16226W        W88640  10.846   5.800   4.758
16227W        W88641  37.486  11.789  10.481
16228W        W88642  15.103  34.069   4.768
16229W        W88643  44.846  27.180  10.622
16230W        W88644  43.795  23.688   3.684
16231W        W88645  27.952  10.814   2.220
16232W        W88646  39.975  14.766  10.511
16233W        W88647  13.697  18.672  13.468
16234W        W88648   1.444  37.489   5.095
16235W        W88649  14.641   2.342   4.801
16236W        W88650   5.279  19.582   1.323
16237W        W88651  42.454  41.457  11.989
16238W        W88652  25.110   2.818   2.690
16239W        W88653  44.407   3.920   5.180
16240W        W88654  40.534  16.777   3.153
16241W        W88655  42.374  33.991  12.908
16242W        W88656  36.855  25.519   1.290
16243W        W88657  32.422   6.423  10.091
16244W        W88658  32.409  25.636  10.917
16245W        W88659  43.298  28.182   2.229
16246W        W88660  39.532  21.657   3.271
16247W        W88661  44.916   2.923  13.945
16248W        W88662  32.914  41.027   4.702
16249W        W88663  22.742  29.092   2.716
16250W        W88664  28.548  20.662  13.547
16251W        W88665   1.942  42.524   0.331
16252W        W88666  20.210   1.363  12.391
16253W        W88667  21.656  43.471  13.435
16254W        W88668   4.365  28.592  13.402
16255W        W88669  17.627  34.437   4.789
16256W        W88670  40.835   7.172   3.852
16257W        W88671  37.398   7.372  11.492
16258W        W88672  26.103  11.265   3.172
16259W        W88673  31.918  40.963   3.827
16260W        W88674  25.624   1.942  11.019
16261W        W88675   1.803   3.407   0.946
16262W        W88676   5.353  14.609   3.173
16263W        W88677  24.097  15.204   0.343
16264W        W88678  40.890  10.179   2.830
16265W        W88679  29.560  15.805  12.869
16266W        W88680   4.210  25.701   9.668
16267W        W88681  11.776  10.140  13.032
16268W        W88682   9.333  25.048   1.840
16269W        W88683   3.727  19.650   5.117
16270W        W88684  36.577  19.073  14.771
16271W        W88685  20.660  13.293   4.268
16272W        W88686  18.714  21.197   1.787
16273W        W88687  44.414  42.919   4.636
16274W        W88688   5.875   8.268  10.946
16275W        W88689  23.241  18.741   0.421
16276W        W88690  28.618   8.832   4.271
16277W        W88691  21.262  36.515   0.738
16278W        W88692  25.569  41.358  13.932
16279W        W88693  39.447  31.636  14.866
16280W        W88694  25.099  41.941   0.882
16281W        W88695   6.238  34.031   0.379
16282W        W88696  31.511  28.975   2.190
16283W        W88697  29.152  40.834   1.934
16284W        W88698   3.311  37.522   1.815
16285W        W88699  43.826  29.108   4.735
16286W        W88700  33.624  23.555  13.054
16287W        W88701   2.280  23.235   2.762
16288W        W88702   3.364  12.750  14.507
16289W        W88703  28.558  18.626  12.012
16290W        W88704  18.548  12.282   0.467
16291W        W88705  40.498  29.450  12.835
16292W        W88706  37.846   2.463   2.416
16293W        W88707   2.729  27.104  13.953
16294W        W88708  38.829  12.838   0.453
16295W        W88709   1.472  23.063  13.932
16296W        W88710  19.209   1.275  14.894
16297W        W88711  12.622   6.690  14.401
16298W        W88712   5.796  10.818  10.524
16299W        W88713  15.282  32.399  12.835
16300W        W88714  32.578  43.799   1.881
16301W        W88715   1.903  36.375   2.198
16302W        W88716  33.549   9.882  12.385
16303W        W88717  30.949  40.429   4.654
16304W        W88718   9.867  28.163  10.494
16305W        W88719   4.938  11.171   2.209
16306W        W88720  26.559  37.532   3.362
16307W        W88721  26.158  23.690  11.599
16308W        W88722  10.204  23.082  11.914
16309W        W88723  21.549   7.282  11.089
16310W        W88724  23.517  28.977  11.427
16311W        W88725  12.613  10.228   9.930
16312W        W88726  33.528  26.636  10.569
16313W        W88727   9.649   7.761  10.561
16314W        W88728  33.923  36.537  10.989
16315W        W88729  10.360  37.391   2.367
16316W        W88730   2.858   2.949  12.908
16317W        W88731  24.130   7.728   1.447
16318W        W88732  40.879  30.436   4.282
16319W        W88733   7.745   3.770  12.959
16320W        W88734  20.716  23.701   1.759
16321W        W88735  12.231  21.058  14.838
16322W        W88736  25.027  31.525   1.753
16323W        W88737  19.148  11.242   2.184
16324W        W88738  24.194  27.666  14.880
16325W        W88739  32.023  30.946   1.293
16326W        W88740   6.366  20.627  13.328
16327W        W88741   4.848  28.112   2.803
16328W        W88742   1.756  34.494  12.432
16329W        W88743   0.425  21.734   0.878
16330W        W88744  15.701  28.041  14.863
16331W        W88745  21.121  27.117  12.002
16332W        W88746  24.558  31.632  14.997
16333W        W88747  14.170  37.872  10.549
16334W        W88748  34.558   9.654  13.858
16335W        W88749  30.458  17.257   1.787
16336W        W88750   3.867   5.773  10.968
16337W        W88751  35.541  28.534  14.833
16338W        W88752  37.937  25.111   4.200
16339W        W88753  14.721   7.173  12.039
16340W        W88754  40.977   2.914  12.429
16341W        W88755  37.543  29.643   1.328
16342W        W88756   9.678  37.460   1.762
16343W        W88757   7.343  39.323  11.604
16344W        W88758  16.763  29.563  13.826
16345W        W88759   6.857   5.366   4.719
16346W        W88760  35.409  15.821   5.214
16347W        W88761   6.701  30.108   4.219
16348W        W88762  25.128  43.788   0.783
16349W        W88763  21.606   3.814  10.580
16350W        W88764   5.354  27.644   0.258
16351W        W88765  34.913  16.140  11.983
16352W        W88766   4.829  22.139  12.401
16353W        W88767  11.242  11.805  12.970
16354W        W88768  12.200   2.403   1.765
16355W        W88769  36.546   3.724  12.848
16356W        W88770  42.315  20.737  12.356
16357W        W88771  25.190  33.530   2.750
16358W        W88772  37.074  15.276   4.744
16359W        W88773  31.010  14.657  11.583
16360W        W88774  17.138  31.485  12.042
16361W        W88775   7.212   9.167   2.250
16362W        W88776  37.561  19.719   1.404
16363W        W88777  21.536  34.598   1.703
16364W        W88778  37.465  39.053  13.909
16365W        W88779  18.657  23.706  13.923
16366W        W88780   2.371  27.068   4.718
16367W        W88781   0.759   0.980   4.336
16368W        W88782  12.853  32.572  11.413
16369W        W88783   3.228  21.729   1.285
16370W        W88784   6.269  10.304  10.160
16371W        W88785  17.258  15.269  14.891
16372W        W88786  42.517   9.782   2.391
16373W        W88787  44.381  18.668   1.757
16374W        W88788  41.008  30.619  13.876
16375W        W88789  28.140  36.874  14.964
16376W        W88790  18.694  25.683  14.965
16377W        W88791  11.156  40.353  13.388
16378W        W88792  28.123  26.565   4.322
16379W        W88793  25.599   1.239   4.350
16380W        W88794  29.593  40.873   1.439
16381W        W88795  32.959  19.128   2.709
16382W        W88796  20.155  30.489   4.131
16383W        W88797  44.890  22.103  13.062
16384W        W88798   1.283  28.648   1.275
16385W        W88799  26.583  41.299  13.341
16386W        W88800  41.518  40.042   0.253
16387W        W88801  15.189  31.626   0.361
16388W        W88802  37.969  28.668  13.469
16389W        W88803  28.178   0.485  12.570
16390W        W88804   0.825  37.383  11.041
16391W        W88805   2.265  22.645  10.060
16392W        W88806  23.727  16.288   1.403
16393W        W88807   5.818  22.655  13.400
16394W        W88808  13.142  29.971   2.873
16395W        W88809  16.687  43.413  10.598
16396W        W88810  16.660  22.606  11.441
16397W        W88811   0.838   7.222  11.096
16398W        W88812   7.671  44.834  14.415
16399W        W88813   2.241  33.964   2.859
16400W        W88814  25.993  43.901   3.164
16401W        W88815  27.031  21.566  12.494
16402W        W88816  20.746   1.360   3.165
16403W        W88817  18.673  25.620   1.770
16404W        W88818  18.618  37.494   4.244
16405W        W88819  21.184  19.711   1.419
16406W        W88820   5.793  30.147  13.447
16407W        W88821  43.446  17.123   0.817
16408W        W88822  29.561  34.878   0.434
16409W        W88823  44.347  19.701  14.028
16410W        W88824  33.082  34.930  10.971
16411W        W88825  41.496   7.262  12.548
16412W        W88826  18.205  11.132  10.415
16413W        W88827  27.555  10.740  13.832
16414W        W88828  14.755  35.868  11.045
16415W        W88829   1.924  35.952   4.207
16416W        W88830  39.893   7.252   0.318
16417W        W88831  27.006   5.817  14.494
16418W        W88832   6.268  16.142  14.477
16419W        W88833  38.938  37.048  14.777
16420W        W88834   7.859  19.754  14.358
16421W        W88835  23.191  43.932   0.401
16422W        W88836  15.197   4.730  12.433
16423W        W88837  33.977  33.455   0.292
16424W        W88838  36.558  25.534  14.023
16425W        W88839  44.991  11.722  14.351
16426W        W88840  24.553  32.071   3.229
16427W        W88841  33.905  38.516   4.719
16428W        W88842  14.270   5.193  11.426
16429W        W88843  27.561  26.638  10.410
16430W        W88844  30.120   0.274  13.055
16431W        W88845  39.420  39.871   4.634
16432W        W88846  13.250   9.242  13.917
16433W        W88847  43.771  10.266   2.369
16434W        W88848   3.867  33.936  13.977
16435W        W88849  16.797  22.599   1.258
16436W        W88850  39.973   4.436   2.380
16437W        W88851  39.052  24.605   1.728
16438W        W88852  26.537   2.387  13.869
16439W        W88853  19.654  41.357   3.660
16440W        W88854  44.365  38.833  13.387
16441W        W88855  24.700  14.819   4.709
16442W        W88856  41.416  18.068  11.943
16443W        W88857  18.677  14.629   0.768
16444W        W88858  41.481  29.623  11.474
16445W        W88859  17.714  27.519  11.866
16446W        W88860  43.936  20.128   4.122
16447W        W88861  14.806   5.368  14.945
16448W        W88862   4.898  42.008  13.354
16449W        W88863  11.698  34.045   4.659
16450W        W88864  15.200  17.702  10.913
16451W        W88865  42.469  15.151  14.300
16452W        W88866  13.189  22.198   1.355
16453W        W88867  44.373  25.985  10.589
16454W        W88868   4.413  32.406  11.119
16455W        W88869  33.410  15.699  14.812
16456W        W88870  12.292  42.804   4.167
16457W        W88871  11.300  14.291  12.528
16458W        W88872  42.001  23.577  12.843
16459W        W88873   7.327  26.581  10.898
16460W        W88874  19.535  35.393   2.897
16461W        W88875   8.240  26.558   4.151
16462W        W88876  32.974  20.225   0.727
16463W        W88877  10.311  11.295  11.078
16464W        W88878   5.244   9.276  14.014
16465W        W88879  20.640  17.786   1.826
16466W        W88880  44.831   1.763   3.665
16467W        W88881  31.459  15.662  14.494
16468W        W88882  13.274  26.535   3.196
16469W        W88883   3.229  13.253   4.236
16470W        W88884   0.771  26.176  11.401
16471W        W88885  29.993  11.165  13.035
16472W        W88886  42.486  20.034   3.686
16473W        W88887  24.639  15.640   0.791
16474W        W88888  44.830  36.382   2.398
16475W        W88889  25.072   2.275  12.419
16476W        W88890   9.796  26.199   0.814
16477W        W88891  11.729  33.028  10.456
16478W        W88892  31.009  16.142  14.411
16479W        W88893  14.250   1.447  10.889
16480W        W88894  22.113  31.522  13.966
16481W        W88895  27.445  17.675   2.706
16482W        W88896  12.152   8.404   0.276
16483W        W88897   0.937  28.937   3.817
16484W        W88898  39.944  15.220  13.997
16485W        W88899  26.505  16.247  13.793
16486W        W88900  39.993   9.656   3.217
16487W        W88901  30.437   0.812   1.297
16488W        W88902   6.779  23.067  13.888
16489W        W88903  10.248  38.952  14.956
16490W        W88904  18.675  42.330  10.521
16491W        W88905  25.145  24.078   5.128
16492W        W88906  38.353  37.062  14.506
16493W        W88907  41.952  32.618   2.816
16494W        W88908  34.902  16.253   3.154
16495W        W88909  33.554  18.715   3.701
16496W        W88910  17.185  26.964  12.948
16497W        W88911  15.655  13.180  14.400
16498W        W88912  22.035   7.289   0.484
16499W        W88913  16.240   9.850   0.459
16500W        W88914  12.705  33.885   4.739
16501W        W88915  21.031  42.862  12.546
16502W        W88916   9.370  30.603  12.398
16503W        W88917  34.928   2.341   3.671
16504W        W88918  44.805  32.915   1.808
16505W        W88919  11.689  34.968   2.702
16506W        W88920  24.580   6.875  13.379
16507W        W88921  14.713  33.068  10.609
16508W        W88922   5.360  41.454   9.469
16509W        W88923  16.115  17.197  13.858
16510W        W88924  10.654  41.811   3.268
16511W        W88925   8.332  42.381  14.362
16512W        W88926  35.000  12.732   1.442
16513W        W88927  22.053  29.004  14.878
16514W        W88928  32.598   5.252   1.851
16515W        W88929  39.541   1.856  13.843
16516W        W88930  12.657  41.534  11.006
16517W        W88931  29.452  35.569   2.357
16518W        W88932  18.273  18.291  11.425
16519W        W88933  36.084   1.346  14.904
16520W        W88934  39.392  27.062   0.269
16521W        W88935   2.468  15.618  13.986
16522W        W88936  38.559  34.542  10.062
16523W        W88937  30.540  27.591   3.671
16524W        W88938   9.211  40.460   4.298
16525W        W88939  12.704  33.411  10.946
16526W        W88940  38.503  32.896  14.031
16527W        W88941  41.843  18.246   0.418
16528W        W88942  10.790   5.379  11.040
16529W        W88943   6.345  40.824  14.339
16530W        W88944  19.624  17.161  11.523
16531W        W88945   2.737   3.866  10.614
16532W        W88946   6.308   6.249  11.129
16533W        W88947  26.671  42.000  13.874
16534W        W88948  24.201   6.905   4.237
16535W        W88949  22.698  27.686   4.210
16536W        W88950  28.448   7.879  11.050
16537W        W88951  28.997  21.739   1.816
16538W        W88952  25.711   3.726   0.347
16539W        W88953   2.865  26.985  12.018
16540W        W88954   7.736  42.931  10.942
16541W        W88955  44.010  25.617  10.573
16542W        W88956  16.711  32.938  13.930
16543W        W88957  25.629  21.135   2.778
16544W        W88958   5.382  43.985   2.416
16545W        W88959   2.356  25.576  10.584
16546W        W88960  28.434  20.625   4.741
16547W        W88961  21.585  23.008  13.426
16548W        W88962  23.532   3.406  13.925
16549W        W88963  19.562   9.353  11.053
16550W        W88964  33.561  41.522   3.297
16551W        W88965  12.820  29.056   4.786
16552W        W88966  19.535  30.483  13.336
16553W        W88967  17.112  14.115   3.741
16554W        W88968  14.224  10.668   2.216
16555W        W88969   1.870  41.987  12.041
16556W        W88970  16.088  44.923   3.293
16557W        W88971  37.908  18.646   0.956
16558W        W88972  12.849  27.447  14.961
16559W        W88973  32.633  14.801   4.823
16560W        W88974  37.939  42.887   0.790
16561W        W88975  40.854  33.027   0.468
16562W        W88976   7.287  37.987   2.834
16563W        W88977  37.451  24.701  12.963
16564W        W88978  33.414   0.315   4.142
16565W        W88979  41.874  42.006  12.549
16566W        W88980  36.568  19.692  14.398
16567W        W88981  31.149   3.335   0.851
16568W        W88982   9.832  12.313   1.221
16569W        W88983   6.373  13.661  13.341
16570W        W88984  20.607   4.900   3.318
16571W        W88985   8.691   8.808   4.641
16572W        W88986  42.433  34.922  11.396
16573W        W88987  13.165  11.326   2.730
16574W        W88988  32.141  36.979  14.511
16575W        W88989  37.403  22.052   2.246
16576W        W88990  31.596  11.239  14.332
16577W        W88991  40.933  44.922   4.181
16578W        W88992  42.985   0.323   0.261
16579W        W88993  12.839  43.016  10.471
16580W        W88994  33.975  31.449   1.876
16581W        W88995   3.854  15.804  10.503
16582W        W88996   2.917  12.315  10.516
16583W        W88997  16.296  14.193   5.212
16584W        W88998  12.722  24.722  11.398
16585W        W88999  20.573  34.445   2.719
16586W        W89000  43.959  27.459  13.900
16587W        W89001  27.953  35.451  12.860
16588W        W89002  35.379   5.198   2.241
16589W        W89003  22.719  37.414  14.296
16590W        W89004   2.272  40.947   1.715
16591W        W89005  25.142  13.603   1.365
16592W        W89006  35.907   7.749   4.610
16593W        W89007   9.843  39.902  13.870
16594W        W89008  40.990   7.859   1.920
16595W        W89009  20.261   3.855  10.469
16596W        W89010   6.306  25.529   1.308
16597W        W89011  33.406  22.220  11.412
16598W        W89012   5.266  35.516  14.840
16599W        W89013  17.588  18.764  12.498
16600W        W89014  35.046  44.268  14.435
16601W        W89015  21.260  43.344  12.874
16602W        W89016   8.746  25.516  13.529
16603W        W89017  24.577  10.871  11.512
16604W        W89018  12.331   7.224   2.413
16605W        W89019  37.450   1.473  12.569
16606W        W89020   8.388   3.942  10.947
16607W        W89021  19.279  42.949   9.454
16608W        W89022   3.333  29.054   5.265
16609W        W89023  11.659  44.410   1.331
16610W        W89024  20.257  21.057   3.766
16611W        W89025  11.700  17.257   2.205
16612W        W89026  40.370   9.185  13.961
16613W        W89027   7.417  25.665   2.395
16614W        W89028  10.831  24.227   2.229
16615W        W89029  42.956   7.363  14.413
16616W        W89030   7.242  39.046   3.706
16617W        W89031   4.798  29.027   4.716
16618W        W89032   2.305  42.959  11.581
16619W        W89033  15.252  23.094  10.888
16620W        W89034  18.257  26.549   0.880
16621W        W89035  25.673  37.432  10.456
16622W        W89036  39.462  36.499   0.871
16623W        W89037   8.792  22.656  14.989
16624W        W89038   2.903  16.812   1.400
16625W        W89039  16.671  32.036   4.634
16626W        W89040  18.212  18.670   2.303
16627W        W89041  41.880  13.795  10.560
16628W        W89042  28.043  20.714  12.390
16629W        W89043  29.667  41.989   1.809
16630W        W89044  16.710  25.151   0.420
16631W        W89045  44.405  27.584   4.832
16632W        W89046  42.309  13.307   2.836
16633W        W89047   3.355  38.969  14.900
16634W        W89048  43.439  13.287  14.382
16635W        W89049  38.358   3.938  13.883
16636W        W89050   9.369  28.499   2.330
16637W        W89051  22.656  40.869  13.382
16638W        W89052  41.370  19.681   3.698
16639W        W89053  20.223   0.762  12.467
16640W        W89054   1.395   3.323  14.888
16641W        W89055  25.048   4.716  10.096
16642W        W89056   5.781  21.187   1.367
16643W        W89057  43.987  25.474   0.273
16644W        W89058  18.232  36.053  11.053
16645W        W89059   6.274  17.619  12.367
16646W        W89060  23.102  30.085   4.351
16647W        W89061  19.643  10.680   1.840
16648W        W89062  39.490  35.975   0.434
16649W        W89063  20.615   3.714   3.157
16650W        W89064   2.307  43.881   0.781
16651W        W89065   6.272   4.316  11.432
16652W        W89066  27.447  33.995  13.856
16653W        W89067  39.344  32.949   5.255
16654W        W89068  13.776  23.990  14.017
16655W        W89069  16.196   1.892  14.015
16656W        W89070  17.261  10.652  10.893
16657W        W89071   3.923  27.445   4.821
16658W        W89072  33.984  29.543  10.907
16659W        W89073  18.160  28.439  13.008
16660W        W89074  32.568   4.717  13.969
16661W        W89075   8.880  29.950  11.043
16662W        W89076  26.090   5.931   2.287
16663W        W89077  43.879   2.943  12.446
16664W        W89078  10.172  20.060   4.725
16665W        W89079  30.478  41.924  10.642
16666W        W89080  42.030  16.118   2.667
16667W        W89081  38.561  21.651  14.426
16668W        W89082  44.887  43.968  12.946
16669W        W89083  26.986  15.127   0.931
16670W        W89084  18.231   4.707  12.063
16671W        W89085   3.219  25.066   5.664
16672W        W89086  27.103  31.965  13.876
16673W        W89087  32.027  13.773   2.685
16674W        W89088   5.920  36.969   0.382
16675W        W89089  41.999  24.169   3.359
16676W        W89090  25.489  27.454   0.412
16677W        W89091  27.065  12.734   4.242
16678W        W89092   4.942  34.033   0.860
16679W        W89093  21.082  44.367  13.905
16680W        W89094   0.948  32.024   0.750
16681W        W89095  28.951  16.285   2.315
16682W        W89096   0.815  15.083   4.148
16683W        W89097  32.907  27.015  13.428
16684W        W89098  19.779  37.835  12.994
16685W        W89099   3.295  13.257   4.639
16686W        W89100  16.253  12.713   1.314
16687W        W89101  33.409  38.974  12.948
16688W        W89102  22.519   9.200   1.250
16689W        W89103   3.373  21.654   1.770
16690W        W89104  41.813  17.684  13.341
16691W        W89105  30.021  41.322  14.481
16692W        W89106  37.929  13.337  13.801
16693W        W89107  37.565  10.773  12.871
16694W        W89108  43.270  24.108  11.538
16695W        W89109   9.242  37.567   5.273
16696W        W89110  17.753  44.903   5.676
16697W        W89111  13.726   4.374   2.241
16698W        W89112  44.880  42.995   1.396
16699W        W89113  33.380  31.966  14.450
16700W        W89114  11.822   7.332   4.268
16701W        W89115  22.999   0.442   5.112
16702W        W89116   4.401   1.465  14.302
16703W        W89117  10.315  17.704   1.850
16704W        W89118   4.255   2.249  14.783
16705W        W89119  11.741   6.296   0.480
16706W        W89120  37.051   5.439  14.867
16707W        W89121  11.331  22.091  14.763
16708W        W89122  17.793  13.842  10.510
16709W        W89123  12.265   8.224   2.662
16710W        W89124   9.785  17.140   0.464
16711W        W89125  14.290  29.989   3.791
16712W        W89126   9.285   7.269  12.025
16713W        W89127   5.688  31.456   0.299
16714W        W89128  39.870  42.942  11.576
16715W        W89129  20.637  32.078  14.777
16716W        W89130  12.769  40.343  14.292
16717W        W89131  24.513  24.593  13.332
16718W        W89132  10.644  19.556  10.888
16719W        W89133   9.721  29.429  14.933
16720W        W89134  16.590  10.876   2.198
16721W        W89135  34.024  32.538   3.206
16722W        W89136   6.357   5.848  12.069
16723W        W89137   6.195  26.131   0.296
16724W        W89138  25.033  30.439   1.860
16725W        W89139   4.757  38.391   5.282
16726W        W89140  31.923   2.386   4.195
16727W        W89141  20.135  21.226  14.436
16728W        W89142   9.886  17.748  10.973
16729W        W89143  43.890  19.595   0.822
16730W        W89144  40.321  10.334  10.101
16731W        W89145  17.799   3.721   0.418
16732W        W89146  26.550  35.397  11.118
16733W        W89147  12.739  18.665  10.065
16734W        W89148  22.178  44.963   2.716
16735W        W89149  33.118  20.691  14.943
16736W        W89150  31.040  25.215  10.532
16737W        W89151   0.986   1.408   3.200
16738W        W89152   3.431  35.480  11.396
16739W        W89153  22.025  29.972   0.267
16740W        W89154   8.200  22.082  12.388
16741W        W89155  37.402  22.207  13.810
16742W        W89156  39.063   8.850  12.567
16743W        W89157   9.333   3.264  13.868
16744W        W89158  19.651  21.682   4.783
16745W        W89159  11.770   2.327  13.360
16746W        W89160  18.227  41.420   4.658
16747W        W89161  28.622  32.595   1.774
16748W        W89162  43.436  26.556   4.599
16749W        W89163  21.622  39.394   1.283
16750W        W89164  43.969  42.863  11.378
16751W        W89165   0.985  41.825   3.778
16752W        W89166  32.525   1.325   3.271
16753W        W89167  24.567  19.665   2.317
16754W        W89168  23.621  22.154   0.439
16755W        W89169  38.056  36.356   0.308
16756W        W89170  28.463  11.726  12.579
16757W        W89171  24.530   8.867   2.814
16758W        W89172  22.503  34.495  10.410
16759W        W89173  15.141  43.415  13.330
16760W        W89174  39.322  30.109   3.304
16761W        W89175   0.823  27.525  11.500
16762W        W89176  12.833  12.626  14.367
16763W        W89177   7.749  35.400   4.253
16764W        W89178  19.251  42.841   4.262
16765W        W89179  13.212   5.832  13.934
16766W        W89180  28.987   2.462  13.055
16767W        W89181  13.622   0.378  14.892
16768W        W89182   9.713   3.795   1.403
16769W        W89183  18.590  33.564   2.251
16770W        W89184  20.591   3.860  13.823
16771W        W89185   7.191  13.605   0.288
16772W        W89186  22.675  16.658   0.245
16773W        W89187   0.829  23.613   1.815
16774W        W89188  12.638  29.517   0.948
16775W        W89189  10.757  43.300  11.961
16776W        W89190   5.723  42.476  11.407
16777W        W89191  30.004  16.648   2.204
16778W        W89192   6.367   1.879   4.145
16779W        W89193  18.736  29.098   0.838
16780W        W89194  30.062  12.706  11.417
16781W        W89195  25.219  26.565   3.867
16782W        W89196   7.777  38.343  10.546
16783W        W89197  37.029  22.251  14.476
16784W        W89198  17.305  11.794  13.799
16785W        W89199   1.298  12.171   1.321
16786W        W89200   8.188   4.255  11.884
16787W        W89201  16.641   0.393  11.454
16788W        W89202  18.762  18.554  11.612
16789W        W89203  38.339  44.007  12.555
16790W        W89204   5.419  31.907   2.262
16791W        W89205  12.142  11.273   0.339
16792W        W89206  37.355   0.335   3.373
16793W        W89207  40.935  15.189  11.037
16794W        W89208   3.271  16.084   4.128
16795W        W89209  20.721  10.145  11.507
16796W        W89210  24.699  14.588   1.924
16797W        W89211   5.773  35.886   1.319
16798W        W89212  14.327   3.377  13.819
16799W        W89213  13.829  30.968  14.946
16800W        W89214  18.719  26.644  14.875
16801W        W89215  10.786  27.471  13.855
16802W        W89216  34.583  18.668   2.841
16803W        W89217  33.475   2.952   2.186
16804W        W89218  21.735  24.554  12.449
16805W        W89219  31.065  24.674   2.186
16806W        W89220   7.739  12.758  10.595
16807W        W89221  10.728  41.990  12.857
16808W        W89222  16.093  11.354  14.359
16809W        W89223  25.511  30.508   0.816
16810W        W89224  27.049  13.105   0.272
16811W        W89225   2.895  36.843  12.834
16812W        W89226  34.550  41.930   1.367
16813W        W89227   7.694  34.568   3.757
16814W        W89228  36.588  27.618   4.730
16815W        W89229  22.038  20.580  13.971
16816W        W89230  23.142  39.503   2.302
16817W        W89231  18.785   0.921   4.695
16818W        W89232  33.112  44.765   4.208
16819W        W89233   8.376   0.249   2.342
16820W        W89234  13.724   1.881  13.943
16821W        W89235  39.333   5.737   4.801
16822W        W89236  37.841  36.964   4.752
16823W        W89237  40.422   6.408  14.299
16824W        W89238  34.523  40.857   3.831
16825W        W89239  38.492  30.928   0.402
16826W        W89240  29.008  18.162  13.970
16827W        W89241  42.404  28.553   4.658
16828W        W89242  19.737   1.297   0.773
16829W        W89243  15.282  15.320  11.082
16830W        W89244  17.226  32.111  11.539
16831W        W89245  36.877  16.580   4.645
16832W        W89246  19.670  43.783  13.363
16833W        W89247  26.673  40.944  13.400
16834W        W89248  30.659  42.475  14.431
16835W        W89249  41.457  16.192   2.867
16836W        W89250   5.881  17.579   4.599
16837W        W89251   5.925  41.928  12.412
16838W        W89252  44.332  15.184   4.340
16839W        W89253  14.732  16.190  14.027
16840W        W89254  21.636  40.999   3.191
16841W        W89255  10.209  26.471  12.375
16842W        W89256   9.349  36.573   1.270
16843W        W89257  18.110  31.020   1.762
16844W        W89258   2.360   7.291   4.294
16845W        W89259  26.110  42.499   4.274
16846W        W89260  37.854  30.432  13.874
16847W        W89261  12.616   3.782  12.969
16848W        W89262  38.540  29.053   4.186
16849W        W89263  22.049  14.116   3.862
16850W        W89264   9.336  43.990  11.431
16851W        W89265   0.775  26.529  13.887
16852W        W89266  17.670  42.779   2.310
16853W        W89267   6.325  14.337  14.330
16854W        W89268  37.861  17.749   4.703
16855W        W89269  13.692   0.274  12.916
16856W        W89270  32.633  36.537   4.264
16857W        W89271  37.923  40.800   3.813
16858W        W89272  14.706  12.728   3.209
16859W        W89273  38.061   4.855  13.890
16860W        W89274  17.667  17.128   3.240
16861W        W89275  26.044  30.050   3.699
16862W        W89276   9.732  31.986  12.502
16863W        W89277  30.618  32.978  13.809
16864W        W89278  32.036  15.659   3.741
16865W        W89279  14.119  32.572   0.961
16866W        W89280  40.472  25.488   2.896
16867W        W89281  34.518  23.058  12.473
16868W        W89282  27.130   9.722  14.834
16869W        W89283  10.843  32.460  13.484
16870W        W89284  32.140   4.447  13.447
16871W        W89285  43.944  35.028  10.527
16872W        W89286  43.972   1.448   0.736
16873W        W89287  33.568  29.534  14.889
16874W        W89288  25.185  35.508   1.731
16875W        W89289   4.253  29.142  12.064
16876W        W89290   8.855   9.155   3.802
16877W        W89291   4.771  37.389  14.937
16878W        W89292   3.845  20.669   0.309
16879W        W89293   5.892  22.089  13.879
16880W        W89294  42.893  12.753  10.602
16881W        W89295  33.882  16.190   3.653
16882W        W89296   5.244  33.042   3.835
16883W        W89297  22.027  42.965   2.395
16884W        W89298  14.200   5.399  11.908
16885W        W89299  25.521   5.424  11.905
16886W        W89300  43.275  34.490  12.577
16887W        W89301  29.544  43.844  14.927
16888W        W89302  15.703   3.336   0.402
16889W        W89303  25.110  30.584   0.415
16890W        W89304  29.605  20.663  11.471
16891W        W89305  37.083   6.700   2.419
16892W        W89306   1.455   7.409  12.825
16893W        W89307   8.715  43.491  12.092
16894W        W89308  26.126  24.562   4.246
16895W        W89309  25.022  16.266   0.474
16896W        W89310  15.744  32.119   1.718
16897W        W89311  12.687  15.618  14.870
16898W        W89312  29.066  31.626   4.760
16899W        W89313  32.446  30.085  11.050
16900W        W89314  18.241  32.545  12.486
16901W        W89315  35.874   5.300  11.560
16902W        W89316  28.539  31.609   4.650
16903W        W89317  18.074  32.018  12.487
16904W        W89318  35.400  10.204   3.369
16905W        W89319  34.504  37.066   4.797
16906W        W89320  15.601   1.240  13.875
16907W        W89321  15.714  33.983  11.035
16908W        W89322  13.625   5.405  13.058
16909W        W89323  44.447  28.002  11.081
16910W        W89324  16.652   3.809   1.381
16911W        W89325  20.719   4.927   3.861
16912W        W89326  13.650  26.038   1.847
16913W        W89327  21.522  17.658   0.375
16914W        W89328  27.447  41.388  12.055
16915W        W89329   0.356  42.785   2.387
16916W        W89330  27.639  14.139   4.236
16917W        W89331  14.754   5.828   4.597
16918W        W89332  33.993  22.666   1.272
16919W        W89333  10.317  25.547  14.957
16920W        W89334   2.853  26.668  12.843
16921W        W89335  26.458  22.099   2.395
16922W        W89336  10.861   5.417  14.367
16923W        W89337  40.332  37.006  12.845
16924W        W89338  31.043  22.627  13.834
16925W        W89339  42.425  16.208  14.386
16926W        W89340  44.273   4.741  12.000
16927W        W89341  28.105  30.974   0.824
16928W        W89342  39.483  32.031  12.863
16929W        W89343  36.570   8.849   2.266
16930W        W89344  15.234  31.004  13.878
16931W        W89345   6.298   5.874   2.750
16932W        W89346  12.219  25.219  13.893
16933W        W89347  26.987  16.220  10.474
16934W        W89348  20.701   0.754  11.421
16935W        W89349  11.265  36.946   0.851
16936W        W89350  36.370  41.417   2.234
16937W        W89351   9.246  32.965   3.711
16938W        W89352  28.181   4.888  11.372
16939W        W89353  44.488  30.079  12.844
16940W        W89354  43.915   5.838   4.300
16941W        W89355  26.106  43.952   2.683
16942W        W89356  38.468  21.226   3.387
16943W        W89357  37.013  33.895   4.118
16944W        W89358   6.417   6.807   2.774
16945W        W89359   2.739   0.751   0.411
16946W        W89360  11.353  15.582   1.754
16947W        W89361   5.347  10.232  12.460
16948W        W89362  44.278  26.631  11.442
16949W        W89363  37.890  37.877  14.407
16950W        W89364  26.114  17.638   0.935
16951W        W89365  42.459  44.929   3.188
16952W        W89366  44.977   7.881  14.800
16953W        W89367  31.631  37.530   4.605
16954W        W89368  29.450  42.479  13.053
16955W        W89369  35.388  32.916   0.792
16956W        W89370  16.179  21.236  13.969
16957W        W89371  41.913   5.704  10.547
16958W        W89372  24.067  18.722  12.382
16959W        W89373  39.490   3.795  11.500
16960W        W89374  32.494  24.505  13.481
16961W        W89375   9.722  21.104   0.414
16962W        W89376   6.726  10.707   2.228
16963W        W89377  16.727  31.114  13.896
16964W        W89378  39.043  35.874  10.014
16965W        W89379  38.004  39.951   1.219
16966W        W89380  38.560  37.417  13.371
16967W        W89381   4.734  35.564  14.819
16968W        W89382   8.883  42.416   1.327
16969W        W89383   9.369  35.436   1.711
16970W        W89384  35.972  39.954   2.193
16971W        W89385  42.350   9.172  13.362
16972W        W89386   3.848  44.793   1.871
16973W        W89387   5.303   2.728  11.959
16974W        W89388  12.358  15.759  14.765
16975W        W89389  42.794  33.987  11.051
16976W        W89390   2.956  42.780   3.744
16977W        W89391  37.537  37.087   1.352
16978W        W89392  20.547  15.775   0.894
16979W        W89393  21.149   2.448  14.411
16980W        W89394  38.506  42.803  11.534
16981W        W89395  16.805   5.806   1.726
16982W        W89396  44.306  12.236   4.246
16983W        W89397  44.884  26.522  11.912
16984W        W89398  33.944  25.134   4.231
16985W        W89399  39.376  14.248   0.351
16986W        W89400   1.323  16.800  13.877
16987W        W89401  27.019   7.739  12.387
16988W        W89402  30.010  35.963   1.721
16989W        W89403  27.981  30.643  11.611
16990W        W89404  21.161   3.422  12.052
16991W        W89405  35.585   4.800   2.846
16992W        W89406  14.816  38.377  11.377
16993W        W89407  44.939  40.021   0.834
16994W        W89408  12.249  28.557  11.943
16995W        W89409   5.307  18.216   0.295
16996W        W89410  10.364   2.314   3.284
16997W        W89411  28.539  40.926   0.768
16998W        W89412  34.484  16.615   4.215
16999W        W89413  38.402  38.407   3.697
17000W        W89414  29.939  41.342   1.230
17001W        W89415  35.990  30.649  12.536
17002W        W89416  35.096  42.878   0.766
17003W        W89417  15.673  40.864   3.731
17004W        W89418  42.456  28.590  10.574
17005W        W89419  43.962  13.332   1.879
17006W        W89420  43.799  16.647  11.390
17007W        W89421   7.861  35.966   4.725
17008W        W89422  24.123  11.165   4.663
17009W        W89423   8.180  26.160  14.433
17010W        W89424  21.711   6.343   4.206
17011W        W89425  37.963  36.399  11.502
17012W        W89426   6.769  23.136  11.543
17013W        W89427  25.554   1.321   4.783
17014W        W89428  39.944  36.885   2.185
17015W        W89429  37.517   8.392  14.454
17016W        W89430  31.127  18.178   1.337
17017W        W89431  41.359   8.728  13.346
17018W        W89432  29.516  12.175   2.720
17019W        W89433  11.629  28.977   5.312
17020W        W89434  15.664  43.871  14.363
17021W        W89435  34.016  39.049  14.841
17022W        W89436  40.889  33.545  11.092
17023W        W89437  43.879   9.381   4.664
17024W        W89438   6.732  39.346   3.211
17025W        W89439  34.497   4.720   1.326
17026W        W89440  40.373   3.859  10.414
17027W        W89441   6.250  41.392  10.591
17028W        W89442   8.287   9.337  12.832
17029W        W89443  37.989  15.819  12.901
17030W        W89444  34.561  18.769   1.716
17031W        W89445  38.424   3.831   4.689
17032W        W89446  12.266  18.759   0.939
17033W        W89447   4.814  16.163  12.883
17034W        W89448  17.159   9.362   4.251
17035W        W89449  25.709  10.212  14.954
17036W        W89450  22.647  13.816  10.473
17037W        W89451  18.621  30.041   0.826
17038W        W89452  43.488  39.815   2.812
17039W        W89453  19.043   5.322   0.394
17040W        W89454  42.467  28.944   3.146
17041W        W89455   8.685   9.215  13.041
17042W        W89456  24.520   4.796  14.392
17043W        W89457  18.703   8.869   0.259
17044W        W89458   6.208  13.307   3.683
17045W        W89459  44.441   3.757   4.327
17046W        W89460  35.914  12.284  13.064
17047W        W89461  40.419  24.006  11.493
17048W        W89462   6.215  21.239  14.002
17049W        W89463  14.306  37.903  14.004
17050W        W89464   2.929  34.440   4.636
17051W        W89465   2.795  16.783   3.221
17052W        W89466  13.714  31.968  11.878
17053W        W89467   4.241  25.503   2.196
17054W        W89468   3.892  18.683  14.885
17055W        W89469  12.343  41.792  10.604
17056W        W89470  40.844  27.472  12.352
17057W        W89471  16.184   3.231  14.028
17058W        W89472  27.043  14.660  11.440
17059W        W89473  14.748  30.979  13.824
17060W        W89474  14.599  12.730  10.508
17061W        W89475  22.604  14.257  13.940
17062W        W89476  31.149  19.579   4.797
17063W        W89477   3.408  44.921  13.818
17064W        W89478  40.822  32.450   2.716
17065W        W89479  28.122  24.700  14.863
17066W        W89480  34.084  36.380  13.959
17067W        W89481   9.669   9.342   4.628
17068W        W89482   1.274  27.681   4.257
17069W        W89483  23.013  41.854  10.931
17070W        W89484  43.834  23.510  10.891
17071W        W89485  31.480  14.209   2.409
17072W        W89486   7.703  13.752   2.395
17073W        W89487  23.072   4.803   1.276
17074W        W89488  13.786  10.640   0.428
17075W        W89489   9.693  27.112  14.895
17076W        W89490  34.036  23.672  10.030
17077W        W89491   3.304  44.404  13.325
17078W        W89492  37.434  28.981   1.712
17079W        W89493   0.780  27.025  11.016
17080W        W89494  18.251  37.414   4.257
17081W        W89495  40.923  11.800  12.480
17082W        W89496  24.620  10.353  14.419
17083W        W89497  31.147  11.237   4.678
17084W        W89498  17.638  38.979   0.407
17085W        W89499  29.031  31.075   3.692
17086W        W89500   2.445  30.049   2.322
17087W        W89501  26.008  42.003  11.418
17088W        W89502  23.082  22.511   4.738
17089W        W89503  37.893  10.824  10.992
17090W        W89504  30.911  29.978  11.449
17091W        W89505  42.316  29.972   0.899
17092W        W89506  22.183  43.833  12.495
17093W        W89507  22.726  41.803   5.169
17094W        W89508  30.018  27.038  10.638
17095W        W89509  23.180  19.555  13.858
17096W        W89510  17.218  43.401  10.062
17097W        W89511  30.624  37.582   0.267
17098W        W89512   4.750  19.624   2.365
17099W        W89513  42.782  12.186   4.150
17100W        W89514  30.486  32.591  12.498
17101W        W89515  43.924  31.520   1.321
17102W        W89516   6.866  36.013   0.797
17103W        W89517  38.352  25.211   1.385
17104W        W89518  21.669  40.937  13.893
17105W        W89519  32.491   1.417  14.775
17106W        W89520  43.292  16.227  12.573
17107W        W89521  29.665  26.636  10.060
17108W        W89522  37.916   7.236   5.293
17109W        W89523  20.127   0.377   5.096
17110W        W89524  24.101  23.681   0.850
17111W        W89525   3.773  37.447  13.880
17112W        W89526   7.888   5.364  11.465
17113W        W89527  31.467  15.641  11.454
17114W        W89528  16.084  12.187   3.341
17115W        W89529  18.667  42.289  11.442
17116W        W89530  25.699  23.053   0.402
17117W        W89531  15.651  23.549  11.550
17118W        W89532  31.475  29.623  10.918
17119W        W89533  20.057  28.143   4.634
17120W        W89534   6.249  33.953  12.870
17121W        W89535  32.140  14.671  12.944
17122W        W89536  43.279  27.466  12.009
17123W        W89537   3.440   1.767  12.492
17124W        W89538  41.942   4.243   3.245
17125W        W89539  14.234  42.775   2.775
17126W        W89540   3.765   5.688  14.993
17127W        W89541  19.285  36.847  13.368
17128W        W89542   6.405  27.129  14.805
17129W        W89543  10.863  37.378  14.290
17130W        W89544   5.324  18.657   1.410
17131W        W89545  23.056  14.122  12.957
17132W        W89546   6.401  18.653  11.981
17133W        W89547  21.583  42.923  13.371
17134W        W89548  29.531  23.667  10.610
17135W        W89549  36.914  18.631   4.626
17136W        W89550  28.080   8.178   1.276
17137W        W89551  28.499  24.015  14.288
17138W        W89552  40.800  17.610  12.093
17139W        W89553  22.578  24.621  11.075
17140W        W89554  22.085  44.381  12.999
17141W        W89555  33.580   0.754   5.190
17142W        W89556  13.751  41.305  13.057
17143W        W89557  34.436  28.439  10.496
17144W        W89558  23.644  13.770  14.392
17145W        W89559  18.197  25.564   0.746
17146W        W89560  24.558  44.434  12.823
17147W        W89561  42.942  11.716   4.130
17148W        W89562  20.105  32.060   4.138
17149W        W89563  34.562  39.905  10.620
17150W        W89564  18.651  41.005   3.729
17151W        W89565  19.079  31.637   4.678
17152W        W89566  41.488  18.651   1.444
17153W        W89567  20.088  29.641   1.350
17154W        W89568   0.833   0.464  13.887
17155W        W89569  30.498   9.670  12.386
17156W        W89570  32.125  17.629  10.496
17157W        W89571  29.608  33.551  11.468
17158W        W89572   4.227   7.244   4.725
17159W        W89573  37.944  43.980  13.017
17160W        W89574  19.280  34.013   3.670
17161W        W89575  37.957  40.372  10.497
17162W        W89576  26.017  27.618  14.290
17163W        W89577  32.889  24.061  10.159
17164W        W89578  27.168  22.678   2.880
17165W        W89579   7.828  25.073   2.699
17166W        W89580  24.159  10.177   0.864
17167W        W89581  37.045  36.354   3.238
17168W        W89582  42.302  20.594   0.348
17169W        W89583  31.086  12.327   2.832
17170W        W89584  15.113  40.459   4.197
17171W        W89585  10.826  29.484  10.408
17172W        W89586   8.184   5.351  14.947
17173W        W89587  10.846   0.989   4.783
17174W        W89588  21.724   9.834  13.001
17175W        W89589  12.296  15.596   0.342
17176W        W89590  16.089  42.792  14.420
17177W        W89591  18.094  27.601  12.935
17178W        W89592  21.511  17.585   2.356
17179W        W89593   3.425  10.817  10.978
17180W        W89594   4.768   0.753  10.607
17181W        W89595  24.094  16.660  11.954
17182W        W89596  24.008   0.799   1.273
17183W        W89597  31.978  19.536  11.510
17184W        W89598  40.849  42.473   0.744
17185W        W89599  27.602  26.207   2.225
17186W        W89600  38.992  18.272   0.951
17187W        W89601  18.254  21.096  12.039
17188W        W89602  23.509   1.376  11.048
17189W        W89603  27.608  30.453  13.918
17190W        W89604  36.569  18.220  14.993
17191W        W89605  10.642  24.010  11.568
17192W        W89606   2.906  32.513   3.719
17193W        W89607   7.183  24.551  12.068
17194W        W89608  24.592  35.511   1.226
17195W        W89609  12.780   7.410  10.528
17196W        W89610   1.468  34.871  12.426
17197W        W89611  10.370  39.397  14.435
17198W        W89612  32.984  23.703  12.550
17199W        W89613  12.670   3.432  12.005
17200W        W89614  40.006  25.995   2.193
17201W        W89615  29.537   8.880  10.079
17202W        W89616  22.147  12.817   0.344
17203W        W89617  19.142  39.039   0.904
17204W        W89618  42.293  24.638  12.903
17205W        W89619   9.715  32.894   2.680
17206W        W89620  38.928  38.541   4.815
17207W        W89621  11.814  39.454  11.014
17208W        W89622  15.292   1.240   0.284
17209W        W89623  12.734   5.202   0.343
17210W        W89624   5.261  21.597   4.191
17211W        W89625  42.438  14.152   3.654
17212W        W89626  22.547  32.409  11.554
17213W        W89627  36.851  38.414  13.848
17214W        W89628  40.455  22.137   4.819
17215W        W89629  18.616  22.526   3.749
17216W        W89630  20.236  42.997  12.469
17217W        W89631   6.820  23.185   1.825
17218W        W89632  19.591  16.152  12.074
17219W        W89633  23.607  24.227  10.409
17220W        W89634  14.769  12.206   0.874
17221W        W89635   6.855  27.536  12.571
17222W        W89636  31.901  38.827   0.446
17223W        W89637   8.306  39.412   1.881
17224W        W89638  16.150  14.820  10.447
17225W        W89639  35.505  14.255  14.812
17226W        W89640  14.646  36.945  11.124
17227W        W89641  26.490   3.455  10.547
17228W        W89642  31.431  42.855   5.282
17229W        W89643  35.908  44.437   4.760
17230W        W89644  33.526   8.861   1.782
17231W        W89645   6.878  37.958  12.384
17232W        W89646  14.333   3.815   1.828
17233W        W89647  29.985  10.855  12.431
17234W        W89648  39.852  20.035  14.293
17235W        W89649   9.651  22.507   4.153
17236W        W89650   9.378  11.834   1.335
17237W        W89651  24.640  34.597   4.617
17238W        W89652  20.562  14.238   3.160
17239W        W89653  27.155  42.888  14.812
17240W        W89654  31.120  26.038  13.950
17241W        W89655  38.993  17.223   0.749
17242W        W89656  41.807  23.128   4.178
17243W        W89657   1.361  16.200   0.378
17244W        W89658  44.296   3.237   1.335
17245W        W89659  32.913   0.864  11.528
17246W        W89660  12.140  30.909  12.534
17247W        W89661   3.279  23.028   0.356
17248W        W89662  14.779  37.563  11.988
17249W        W89663   8.780  44.347  14.372
17250W        W89664  19.203  10.341   4.194
17251W        W89665   0.926  11.228  12.024
17252W        W89666  11.282  17.146  13.310
17253W        W89667  44.968  30.510  12.037
17254W        W89668  29.582   8.730  13.307
17255W        W89669  44.777   1.810   0.841
17256W        W89670   1.866  33.057  14.020
17257W        W89671  33.455  24.078   4.282
17258W        W89672  37.057  44.492  10.561
17259W        W89673  38.020  17.147  10.557
17260W        W89674  32.041   9.832  13.309
17261W        W89675   6.318  19.106   2.265
17262W        W89676  28.101  43.410  11.985
17263W        W89677  24.698  41.500  13.430
17264W        W89678  40.848   5.289   3.298
17265W        W89679  32.418  31.114  12.402
17266W        W89680  28.170  37.496   2.821
17267W        W89681  10.828   5.220   2.702
17268W        W89682  26.524  33.483  14.420
17269W        W89683  26.182  41.964   0.478
17270W        W89684   2.457   5.287  13.366
17271W        W89685   2.808  11.372   2.885
17272W        W89686  24.223  32.452   1.329
17273W        W89687  25.096  30.445   4.146
17274W        W89688  35.470  27.948   0.382
17275W        W89689  39.964  15.708  14.845
17276W        W89690  15.155   2.837  11.398
17277W        W89691  23.587  10.876   4.777
17278W        W89692  17.226  31.126   1.930
17279W        W89693   9.755  41.412  12.500
17280W        W89694  32.601  44.795  14.998
17281W        W89695  14.210  16.774  10.910
17282W        W89696  30.538  22.176   1.707
17283W        W89697  13.813  24.621  13.997
17284W        W89698  38.998  38.435   3.827
17285W        W89699   2.330  23.602  13.542
17286W        W89700  24.698  33.516   1.854
17287W        W89701  31.578  18.052   3.751
17288W        W89702  24.177   6.694  13.506
17289W        W89703  26.052  42.313  14.493
17290W        W89704  30.109  42.782  14.293
17291W        W89705  44.894  36.852  14.890
17292W        W89706   4.397  37.440  13.841
17293W        W89707  32.509  18.280   0.318
17294W        W89708  29.435   4.279   1.814
17295W        W89709  28.971   3.407  14.275
17296W        W89710  20.641   4.701  10.993
17297W        W89711   5.425  44.984   4.114
17298W        W89712  35.057  13.836   2.844
17299W        W89713  34.010  31.524  12.449
17300W        W89714  21.614   7.381   4.771
17301W        W89715  40.904  12.758  13.968
17302W        W89716  20.624  34.519  14.017
17303W        W89717  11.361  18.274  11.075
17304W        W89718   1.259  12.810  10.981
17305W        W89719   0.456  21.665  13.496
17306W        W89720  37.557  15.130  13.430
17307W        W89721  25.621  13.310   3.375
17308W        W89722  38.920  43.428   4.793
17309W        W89723  10.315  13.728   4.240
17310W        W89724  30.005  38.908  12.544
17311W        W89725  28.438  41.839  14.838
17312W        W89726  39.048  11.731  12.042
17313W        W89727  36.015   0.357  11.575
17314W        W89728   6.710  42.379  14.372
17315W        W89729  29.593  35.441   1.365
17316W        W89730  31.133  19.071   2.672
17317W        W89731  37.945  41.916   2.791
17318W        W89732  25.506  39.497  13.492
17319W        W89733   6.693  10.701   0.820
17320W        W89734  10.153  17.575  13.544
17321W        W89735  35.954  26.511   1.778
17322W        W89736  17.617   7.725  10.518
17323W        W89737   3.295  18.211  13.353
17324W        W89738  23.625  38.881   0.856
17325W        W89739  10.221   3.876  11.570
17326W        W89740  40.979  16.771  13.845
17327W        W89741  42.456  24.077   4.792
17328W        W89742  25.531   5.298   4.144
17329W        W89743   5.757  11.730   2.300
17330W        W89744  25.508  40.967   3.328
17331W        W89745   4.425  20.073   4.322
17332W        W89746   4.379  11.738  10.976
17333W        W89747  16.275  15.821   0.831
17334W        W89748  29.999  17.687  13.463
17335W        W89749   9.181  18.630   4.610
17336W        W89750  43.330   7.770  13.968
17337W        W89751  30.649   0.873  14.802
17338W        W89752  13.807  23.498  13.869
17339W        W89753  25.070   8.285   2.261
17340W        W89754  24.139   2.897   0.395
17341W        W89755  42.324  33.573   3.240
17342W        W89756  37.985  43.331  13.950
17343W        W89757  43.511  20.189  14.762
17344W        W89758  10.769   5.277  12.923
17345W        W89759  39.429  44.325   4.604
17346W        W89760  16.740  40.974  13.340
17347W        W89761   8.197  29.490  11.950
17348W        W89762  24.089  20.178  13.487
17349W        W89763   9.796  33.120  13.891
17350W        W89764   1.849  12.160   3.169
17351W        W89765  19.705   1.435  12.884
17352W        W89766   1.771  15.661   2.242
17353W        W89767   6.251  35.002  13.834
17354W        W89768  40.422  20.694   1.318
17355W        W89769  12.315   6.241  14.021
17356W        W89770  16.729   0.375  14.449
17357W        W89771  18.204  21.245   2.307
17358W        W89772  26.012  16.581  12.398
17359W        W89773  20.698  33.395  11.456
17360W        W89774  29.515  15.686  14.411
17361W        W89775  40.325   1.840  10.417
17362W        W89776  40.473   4.225  10.569
17363W        W89777  13.128  10.835  12.394
17364W        W89778  17.617   0.789  14.856
17365W        W89779  19.739  36.590   3.306
17366W        W89780  17.581  43.435   3.234
17367W        W89781   2.294  27.169  12.072
17368W        W89782  23.089  18.236  14.392
17369W        W89783   8.386   4.406  14.343
17370W        W89784   4.327  14.320  10.102
17371W        W89785  39.338   5.302  13.422
17372W        W89786   3.737  17.571   2.794
17373W        W89787  34.466  11.691  14.935
17374W        W89788  18.685   4.853   3.683
17375W        W89789  37.895  38.903   0.408
17376W        W89790   3.889  19.136  10.418
17377W        W89791  17.082  12.702  10.107
17378W        W89792   6.778  29.095   4.236
17379W        W89793  33.437  10.815  11.567
17380W        W89794  12.356  42.382  11.451
17381W        W89795  19.685  27.445   1.234
17382W        W89796  20.191  28.073  13.868
17383W        W89797  30.102   2.377   4.725
17384W        W89798  27.579   9.232  12.436
17385W        W89799  36.450  44.975  14.287
17386W        W89800  41.453  24.607  13.308
17387W        W89801  36.017   9.835   0.298
17388W        W89802   6.805  31.099  13.498
17389W        W89803   0.808   8.768  13.018
17390W        W89804  11.283  24.018   1.900
17391W        W89805  25.101  16.747   4.258
17392W        W89806  13.629  35.592  14.791
17393W        W89807  19.659   3.348   0.852
17394W        W89808  21.031  12.797   3.646
17395W        W89809   5.278  27.597   2.756
17396W        W89810  41.985  21.187   1.386
17397W        W89811  18.726   7.702  13.528
17398W        W89812  10.839  31.646   3.665
17399W        W89813  41.355  24.068  12.978
17400W        W89814   9.835  39.937  10.445
17401W        W89815  34.028  27.600   1.760
17402W        W89816  12.803  15.129  12.341
17403W        W89817   1.291  36.449   1.703
17404W        W89818  16.257  22.126  13.319
17405W        W89819   3.221   7.691  14.886
17406W        W89820   6.253  22.054  11.567
17407W        W89821  28.470  28.935  10.596
17408W        W89822  33.586  39.512   0.879
17409W        W89823  40.047  14.775   3.747
17410W        W89824  17.621  18.217   3.814
17411W        W89825  35.878  39.431  14.852
17412W        W89826  22.552  18.224  13.472
17413W        W89827  34.888  17.087   1.844
17414W        W89828  32.015  11.695  13.792
17415W        W89829  16.208  28.448   2.418
17416W        W89830  35.443  38.440  12.978
17417W        W89831  20.262  16.204  14.892
17418W        W89832  27.011  36.541   0.742
17419W        W89833   5.737  34.977   4.186
17420W        W89834  33.595  14.659   1.881
17421W        W89835  27.661  36.492  11.566
17422W        W89836  42.447  39.025  11.879
17423W        W89837  16.143  34.961   0.775
17424W        W89838  37.982  16.568   1.445
17425W        W89839  33.040  34.516   0.866
17426W        W89840  42.842  22.088  13.883
17427W        W89841  35.891  24.153  12.364
17428W        W89842  24.022  37.556  12.093
17429W        W89843  37.922  40.328   1.849
17430W        W89844   0.470  23.234   1.389
17431W        W89845  23.064   1.404   0.805
17432W        W89846   8.773   0.796   3.748
17433W        W89847   4.398  44.359  13.376
17434W        W89848  14.614  19.571   5.692
17435W        W89849  14.143  18.776   1.257
17436W        W89850  19.257  28.121  14.306
17437W        W89851  36.581  26.485   4.259
17438W        W89852  44.374   1.322   2.712
17439W        W89853  15.820  19.699   3.197
17440W        W89854   8.352   1.907  11.114
17441W        W89855   4.396  39.387   0.760
17442W        W89856  34.883  34.371  10.919
17443W        W89857   7.338  44.427  11.902
17444W        W89858  29.577  32.459  13.449
17445W        W89859  42.819  11.208   0.754
17446W        W89860   0.811  32.446  12.839
17447W        W89861   2.362  42.836   2.206
17448W        W89862   6.842  12.280   4.128
17449W        W89863   7.801  32.010   0.858
17450W        W89864  20.575  28.055   0.387
17451W        W89865  31.448  37.982  11.514
17452W        W89866  24.209   3.832  11.951
17453W        W89867   1.356  23.996  13.845
17454W        W89868  31.055   8.748  14.461
17455W        W89869  31.931  42.357   2.230
17456W        W89870  23.605  41.446  11.122
17457W        W89871   7.403  16.250  14.904
17458W        W89872  11.217  18.184   2.223
17459W        W89873  18.702   7.396   3.316
17460W        W89874  16.610  12.245  14.887
17461W        W89875  43.489  20.540  13.308
17462W        W89876   8.324  38.537  10.472
17463W        W89877  25.146  39.881  11.859
17464W        W89878  33.487  19.056   0.371
17465W        W89879  24.588  41.404   0.350
17466W        W89880  39.435  38.853  13.874
17467W        W89881   7.767   8.167   4.192
17468W        W89882  17.669  20.209   1.868
17469W        W89883  40.828  23.663   1.776
17470W        W89884   4.264  34.497  13.930
17471W        W89885  21.637  34.061  12.014
17472W        W89886   1.840  15.260  13.880
17473W        W89887   0.988  34.870  10.129
17474W        W89888   2.346   3.292   3.360
17475W        W89889  24.215   8.759  14.005
17476W        W89890  40.049  39.959  13.412
17477W        W89891  20.046  43.865  11.539
17478W        W89892  22.092  16.585   5.764
17479W        W89893  12.673  33.882   0.427
17480W        W89894   7.252  20.162  11.875
17481W        W89895  25.159  31.466  11.118
17482W        W89896  39.405  44.369  12.906
17483W        W89897  39.888  21.182   3.728
17484W        W89898   8.358  22.173  12.856
17485W        W89899  37.851  41.518  12.546
17486W        W89900  20.585  42.480  10.941
17487W        W89901  11.205   3.736  10.522
17488W        W89902  39.328  32.571   1.721
17489W        W89903  42.307  11.372   1.409
17490W        W89904   2.364  40.341   9.948
17491W        W89905  14.258  40.416   0.885
17492W        W89906  41.825  39.004  14.279
17493W        W89907  38.462   0.436   1.224
17494W        W89908  22.579  34.004   0.464
17495W        W89909   6.226  35.443   1.794
17496W        W89910  10.250  18.624  13.880
17497W        W89911  24.504  14.332  12.863
17498W        W89912  37.467  39.344  13.837
17499W        W89913  35.532  26.013   1.305
17500W        W89914  34.443  27.596  13.976
17501W        W89915  44.326   6.830   4.741
17502W        W89916  39.972  10.176  14.340
17503W        W89917   3.928   3.761   1.224
17504W        W89918  20.592  37.558  14.293
17505W        W89919  26.548   7.822  10.959
17506W        W89920   8.285   4.764   3.200
17507W        W89921  35.439  22.745   4.129
17508W        W89922  30.962  19.688  10.962
17509W        W89923  25.100  34.551   4.775
17510W        W89924  22.089  20.129   2.297
17511W        W89925   0.480  32.973   3.669
17512W        W89926  36.982  29.116  11.597
17513W        W89927  42.480  35.422  12.066
17514W        W89928  20.538  39.334   4.781
17515W        W89929  18.738  17.721  11.417
17516W        W89930  11.698  34.940   3.348
17517W        W89931  10.734  43.505  13.441
17518W        W89932  30.626  39.327   1.734
17519W        W89933  18.585   0.958  11.537
17520W        W89934   2.357  42.413  11.994
17521W        W89935   6.201  21.637  13.910
17522W        W89936  10.830   4.339  11.612
17523W        W89937  37.043  11.318  14.420
17524W        W89938  21.644  20.080   2.346
17525W        W89939  25.511   1.347  10.608
17526W        W89940  11.155  31.072   4.283
17527W        W89941  44.784  30.140   4.771
17528W        W89942  38.531  32.597  14.927
17529W        W89943  38.061   7.868   2.224
17530W        W89944  25.490  33.886  11.128
17531W        W89945   9.386  15.199   4.266
17532W        W89946   7.904   2.460  14.279
17533W        W89947  32.537  14.325  12.405
17534W        W89948  37.952  10.871  12.028
17535W        W89949   9.806   9.809   1.772
17536W        W89950   6.398  43.385   1.343
17537W        W89951   0.966  13.164   3.752
17538W        W89952  14.135  27.451  14.407
17539W        W89953   9.810   5.389  11.567
17540W        W89954   3.345  42.843   0.821
17541W        W89955  18.725   2.351  14.303
17542W        W89956  10.294   1.872   3.249
17543W        W89957   7.221  17.778  10.907
17544W        W89958  18.061  12.353  12.091
17545W        W89959  38.377  36.461   3.690
17546W        W89960  40.987  28.528  13.518
17547W        W89961  10.260  42.008  12.473
17548W        W89962   8.774  19.099  14.292
17549W        W89963  25.197   6.408  14.899
17550W        W89964   2.239   2.855   1.428
17551W        W89965  21.744   6.418  14.806
17552W        W89966  33.391   2.345  13.403
17553W        W89967  23.036  12.847   0.250
17554W        W89968  25.546  27.446  14.893
17555W        W89969  16.754  40.423   3.779
17556W        W89970  33.900  42.421   2.756
17557W        W89971   3.933   6.739   1.725
17558W        W89972  31.440  10.150   1.372
17559W        W89973  34.419  30.952  12.345
17560W        W89974  20.727  24.062   0.810
17561W        W89975  27.517  38.839  13.421
17562W        W89976   6.410  39.909   0.250
17563W        W89977   0.811  34.966  14.376
17564W        W89978  20.596  29.566  11.997
17565W        W89979  27.982  16.255   2.347
17566W        W89980  34.536   2.363  11.955
17567W        W89981  21.664   5.730  10.603
17568W        W89982  31.598  14.100   3.772
17569W        W89983   7.386  10.837   0.436
17570W        W89984  40.478  20.056   0.812
17571W        W89985  23.019  31.992  14.831
17572W        W89986  36.920  36.932   2.877
17573W        W89987   8.860  17.747  10.412
17574W        W89988  19.098   6.387  10.967
17575W        W89989  35.590  37.389   2.201
17576W        W89990  19.706  40.886   4.698
17577W        W89991   2.449   0.275  11.043
17578W        W89992  24.000   7.221   1.823
17579W        W89993  37.382   6.761   0.327
17580W        W89994  19.591  14.164  11.453
17581W        W89995  30.553  33.477  12.993
17582W        W89996  11.198  13.642  11.583
17583W        W89997   5.742  15.131  12.858
17584W        W89998  40.394  10.831   4.130
17585W        W89999   6.839  36.870  12.521
17586W        W90000  12.709  12.240   3.871
17587W        W90001   2.814  16.744   0.944
17588W        W90002   3.837  10.877   1.355
17589W        W90003   1.905  26.489   1.360
17590W        W90004   2.309   0.814   0.933
17591W        W90005  40.330  26.151   0.319
17592W        W90006  19.683  14.652  11.903
17593W        W90007   2.899  29.110   4.607
17594W        W90008   3.809  41.400  13.849
17595W        W90009  14.326  13.721   4.753
17596W        W90010  42.286  11.671   3.310
17597W        W90011  18.620   0.867   5.175
17598W        W90012   1.460  19.134   0.253
17599W        W90013  16.767   1.239  13.829
17600W        W90014   3.341  12.221   4.783
17601W        W90015   3.850  35.587  14.301
17602W        W90016   0.760   0.347  10.472
17603W        W90017  42.518   6.912  10.988
17604W        W90018  13.640  36.092   4.219
17605W        W90019  30.071  23.088  10.566
17606W        W90020  25.162   2.377   3.845
17607W        W90021  19.552  23.109  11.054
17608W        W90022  11.636  40.372  10.569
17609W        W90023  40.538  38.555  12.535
17610W        W90024  20.243  44.825  12.982
17611W        W90025   6.362   7.840   3.752
17612W        W90026  40.873  43.940  11.861
17613W        W90027   1.478  41.885   3.186
17614W        W90028  38.027  16.263  11.080
17615W        W90029  23.510  43.897   3.386
17616W        W90030  30.036  39.432  13.886
17617W        W90031  37.022  25.473  14.811
17618W        W90032  24.605  18.131   0.440
17619W        W90033  14.257  34.055   2.184
17620W        W90034   6.201  35.507   4.140
17621W        W90035   4.943  24.216  13.852
17622W        W90036  43.783  39.916   0.437
17623W        W90037  41.875  27.452   1.896
17624W        W90038  22.199  17.188  14.988
17625W        W90039   9.329   0.429  11.882
17626W        W90040  30.475   9.838  14.378
17627W        W90041   3.946   6.902   3.782
17628W        W90042  44.762   0.959   0.889
17629W        W90043  20.615  36.097   3.349
17630W        W90044  34.954  38.945   0.466
17631W        W90045   3.870  25.059   1.356
17632W        W90046   5.413  22.238  11.890
17633W        W90047   1.473   9.648  13.381
17634W        W90048   0.937  22.131   4.125
17635W        W90049  19.710   0.419  10.133
17636W        W90050  31.913  41.491   0.808
17637W        W90051   6.737  16.237   2.667
17638W        W90052  24.015  19.117   4.331
17639W        W90053  33.947   4.335   2.412
17640W        W90054   8.331  17.075  10.585
17641W        W90055  17.616  44.852   1.379
17642W        W90056  38.386  32.437   9.541
17643W        W90057  33.093  13.121   2.708
17644W        W90058  26.557  27.568  10.565
17645W        W90059  18.695  18.153  11.013
17646W        W90060  30.033   2.284  14.925
17647W        W90061  40.902  27.534  12.947
17648W        W90062  22.599  33.416   4.788
17649W        W90063   3.861  26.986   5.260
17650W        W90064  44.489   9.847   4.749
17651W        W90065   7.896  41.452  11.074
17652W        W90066  37.440  17.691   4.216
17653W        W90067  30.141  20.706  11.061
17654W        W90068  20.161   2.844   2.823
17655W        W90069  28.950  44.345  11.373
17656W        W90070  25.138   5.914   2.222
17657W        W90071  21.043   6.423  11.432
17658W        W90072  34.927  33.032  14.916
17659W        W90073   9.360  19.044   4.795
17660W        W90074  12.748  27.635  11.935
17661W        W90075   2.791  37.854  11.464
17662W        W90076  17.770  15.088   2.214
17663W        W90077  36.479  17.644   2.700
17664W        W90078   2.293  35.052  13.318
17665W        W90079  30.958  35.491   2.700
17666W        W90080  41.928  34.511   3.256
17667W        W90081  33.511   6.814  14.403
17668W        W90082  11.810  12.250   1.762
17669W        W90083  15.780   4.708  10.560
17670W        W90084  19.182  22.114  10.510
17671W        W90085  27.196   6.322   1.255
17672W        W90086  41.465  23.014  14.763
17673W        W90087  21.592  38.980   9.953
17674W        W90088  39.026  11.721   0.381
17675W        W90089  18.721   2.894   0.303
17676W        W90090  31.046  25.696  14.767
17677W        W90091   2.274  31.924   4.217
17678W        W90092   2.746  42.954   4.232
17679W        W90093  40.402   3.907   4.735
17680W        W90094  26.063  20.695   3.238
17681W        W90095  21.126  15.670   1.440
17682W        W90096  19.622  25.546  14.510
17683W        W90097  40.822  21.102   1.212
17684W        W90098   8.869   8.721   3.302
17685W        W90099  20.174  24.011  12.827
17686W        W90100  22.558  42.324  14.988
17687W        W90101  31.453   6.788  10.896
17688W        W90102  42.836  12.314   1.786
17689W        W90103  27.975  15.630   2.368
17690W        W90104  39.916  18.125   0.468
17691W        W90105  42.524  37.050  14.804
17692W        W90106  36.873   6.684   3.822
17693W        W90107  14.792   7.679   0.903
17694W        W90108  14.763  16.146   4.211
17695W        W90109  23.140  28.474  14.951
17696W        W90110  29.953  10.376  14.813
17697W        W90111  26.142  38.570  10.479
17698W        W90112  19.698  33.887  12.564
17699W        W90113  12.217  35.454  12.872
17700W        W90114  14.105   1.826   3.656
17701W        W90115  31.919  31.076   5.167
17702W        W90116  39.556  12.662  11.465
17703W        W90117  23.019   5.289   1.697
17704W        W90118  30.541   8.162   4.642
17705W        W90119  20.551  27.688  13.307
17706W        W90120  17.245   9.828   3.347
17707W        W90121  13.135  38.827   1.707
17708W        W90122  19.080  41.510   0.912
17709W        W90123  28.038  27.621  10.440
17710W        W90124  17.655  30.989  13.908
17711W        W90125  13.687   9.698   2.269
17712W        W90126  40.981  18.664   3.199
17713W        W90127   9.837  13.155   4.351
17714W        W90128  12.188  25.081  14.832
17715W        W90129  37.077  20.171  10.935
17716W        W90130  10.875   2.412  10.533
17717W        W90131  18.567  32.954   0.949
17718W        W90132  30.416  19.551   4.698
17719W        W90133  31.531  41.870   1.699
17720W        W90134  42.438   1.312  11.432
17721W        W90135  26.041  27.557   2.795
17722W        W90136  23.049  31.574   3.343
17723W        W90137   7.191   3.459   0.284
17724W        W90138  17.289  11.847  11.043
17725W        W90139  12.216   2.350  13.975
17726W        W90140  41.039  19.089  11.474
17727W        W90141  21.643   8.777  12.576
17728W        W90142   1.949  22.033   1.268
17729W        W90143  41.349  27.070  10.463
17730W        W90144  33.517  22.656  14.768
17731W        W90145  17.181  21.085   1.410
17732W        W90146  18.140  15.807   2.407
17733W        W90147  29.960   3.381   1.354
17734W        W90148  21.124  43.945  11.119
17735W        W90149  14.187   0.420  14.966
17736W        W90150  36.904  44.320   2.179
17737W        W90151  44.771  34.476  10.984
17738W        W90152  43.485   0.377   9.940
17739W        W90153  27.076  43.899  11.932
17740W        W90154  30.428  24.530   3.796
17741W        W90155  35.046  15.668  12.027
17742W        W90156  19.134  19.752  11.073
17743W        W90157   8.820   1.800   1.375
17744W        W90158  19.688  35.878   4.266
17745W        W90159  16.283  17.725   0.858
17746W        W90160  27.113  33.078  12.433
17747W        W90161  15.746  19.614   3.675
17748W        W90162  26.649  32.947   2.789
17749W        W90163  13.700  30.508   4.120
17750W        W90164  41.997  32.104   3.780
17751W        W90165  12.695   0.950  11.942
17752W        W90166   0.751  38.969   3.822
17753W        W90167  12.129  10.376   2.842
17754W        W90168  33.966   8.258   0.282
17755W        W90169  32.608  33.974  10.928
17756W        W90170  27.532   3.715  11.404
17757W        W90171  25.025  16.673  11.502
17758W        W90172  22.709  42.348   2.718
17759W        W90173  13.329  38.869   1.368
17760W        W90174  31.469  31.143   4.207
17761W        W90175  44.474  22.065   4.189
17762W        W90176  43.299  36.465   2.226
17763W        W90177  36.874  26.482   0.779
17764W        W90178  29.003  16.723   3.151
17765W        W90179   9.749   2.750  13.367
17766W        W90180  28.057  16.762   2.679
17767W        W90181   1.302  17.171   3.218
17768W        W90182  41.328   1.951  10.995
17769W        W90183  41.422  44.818  11.019
17770W        W90184   9.325  36.433  12.416
17771W        W90185  18.130  44.458  13.483
17772W        W90186  11.681  34.432   9.965
17773W        W90187  12.168  34.103  14.788
17774W        W90188  43.494  11.669   0.930
17775W        W90189  12.255   5.394   1.903
17776W        W90190  13.226  26.550   5.169
17777W        W90191   9.265  39.388   2.331
17778W        W90192  26.612  40.914  14.767
17779W        W90193  26.464  37.087  11.491
17780W        W90194   0.424  44.414  14.467
17781W        W90195  29.576  43.919   2.872
17782W        W90196   3.852  38.865  13.978
17783W        W90197  17.073  17.659   2.833
17784W        W90198  21.721  22.125  14.939
17785W        W90199   6.728  15.719  13.987
17786W        W90200  40.433  17.710   0.263
17787W        W90201  42.885  38.386   0.792
17788W        W90202   1.830  18.120  11.065
17789W        W90203  38.391  14.667   4.675
17790W        W90204  16.742   4.292   0.862
17791W        W90205   1.913  41.419   0.276
17792W        W90206  15.723  14.144  11.939
17793W        W90207   6.822  34.094   3.380
17794W        W90208   5.750   2.335  13.406
17795W        W90209   6.854  24.144  14.281
17796W        W90210  19.044   1.940  13.447
17797W        W90211   8.365  39.391   3.150
17798W        W90212  26.527   4.863   5.284
17799W        W90213  10.149  26.171   2.807
17800W        W90214  31.513  33.067  13.473
17801W        W90215  42.869  29.444   4.349
17802W        W90216   7.371   5.922   2.257
17803W        W90217  32.438   1.927  14.897
17804W        W90218  34.118  26.047   0.256
17805W        W90219  22.534  41.912   1.829
17806W        W90220   9.164  25.479   2.763
17807W        W90221  35.455  39.421   0.484
17808W        W90222  28.971  36.368  13.484
17809W        W90223  25.974  43.312   4.248
17810W        W90224   2.298  37.488  10.970
17811W        W90225  38.469  30.102   3.203
17812W        W90226  29.473  34.009   1.804
17813W        W90227   4.769  38.403  12.054
17814W        W90228  41.425   9.254  12.354
17815W        W90229  41.831  15.624   3.242
17816W        W90230  39.451   8.676  10.414
17817W        W90231  33.940  27.640  12.455
17818W        W90232  21.538  40.530   1.753
17819W        W90233  42.392  40.406  13.810
17820W        W90234   1.404   3.950   1.369
17821W        W90235  11.280  25.661  10.894
17822W        W90236   0.773   9.349   1.885
17823W        W90237  44.780  42.795   4.623
17824W        W90238  44.430  43.308   2.735
17825W        W90239  33.421  19.577  14.301
17826W        W90240  40.026  24.028  10.557
17827W        W90241  19.671   6.421   2.233
17828W        W90242  36.536  34.409  13.030
17829W        W90243  40.974  16.092   4.680
17830W        W90244  17.228  13.165  11.903
17831W        W90245   2.226  38.467  11.987
17832W        W90246  38.426   2.755   4.661
17833W        W90247   4.856  44.305  12.086
17834W        W90248   3.801  21.218   4.620
17835W        W90249  28.499   4.273   4.625
17836W        W90250  36.933  32.995  11.594
17837W        W90251  10.302  18.564   3.267
17838W        W90252   3.323  40.873   1.344
17839W        W90253  15.177  35.994   0.901
17840W        W90254  10.728  29.523   2.240
17841W        W90255  20.043  27.501  13.522
17842W        W90256  35.924   4.241  13.901
17843W        W90257   7.683  10.637   3.207
17844W        W90258  19.123  30.593  14.900
17845W        W90259  15.808  40.010   4.787
17846W        W90260  37.443  28.016  14.879
17847W        W90261  28.473  24.073  14.967
17848W        W90262  39.328  31.539  11.488
17849W        W90263  25.153  25.509   5.092
17850W        W90264   9.387  34.965  14.410
17851W        W90265  29.492  27.615  14.299
17852W        W90266  17.738   0.825  10.153
17853W        W90267  43.412  20.759   0.273
17854W        W90268  22.519  44.353   4.247
17855W        W90269  34.994  21.621  14.365
17856W        W90270  28.184   5.752  11.039
17857W        W90271  29.977   5.262   3.835
17858W        W90272  24.992  16.603  14.416
17859W        W90273  38.940  26.076   0.429
17860W        W90274  10.154   3.446   3.711
17861W        W90275   6.413  33.597  12.986
17862W        W90276   8.395  19.609  11.074
17863W        W90277  44.903  40.303   0.858
17864W        W90278   2.378  34.895   1.227
17865W        W90279  32.980  26.168  10.940
17866W        W90280  38.527   1.965   4.739
17867W        W90281   8.282   7.351   0.334
17868W        W90282   6.843  17.187   4.344
17869W        W90283  14.684  43.955   1.324
17870W        W90284   7.827   0.354  13.831
17871W        W90285  31.989  40.798   1.709
17872W        W90286   8.671  17.778   0.427
17873W        W90287  36.406  43.444  12.873
17874W        W90288  21.084  19.710  14.874
17875W        W90289  31.406  35.573  14.967
17876W        W90290  37.877  33.398  14.385
17877W        W90291  21.561   1.793   1.749
17878W        W90292   3.799  23.612   2.370
17879W        W90293  32.099   7.678  14.509
17880W        W90294   4.869   2.259  12.920
17881W        W90295   7.339   8.700  14.467
17882W        W90296   1.906  19.205   1.809
17883W        W90297  13.635  42.812  12.049
17884W        W90298  22.055  32.120   5.269
17885W        W90299  28.957   4.744   0.292
17886W        W90300  30.121  10.770   2.407
17887W        W90301  40.386  40.336   2.214
17888W        W90302   7.770  31.537  14.017
17889W        W90303  43.932  26.529   0.304
17890W        W90304  27.125   8.352  14.296
17891W        W90305  29.574  26.675  11.378
17892W        W90306  44.936   6.212  12.017
17893W        W90307   5.881  34.028  13.001
17894W        W90308  16.106   9.374   2.351
17895W        W90309   4.363   6.210   3.284
17896W        W90310  40.541  12.733  12.428
17897W        W90311  22.597   2.269  10.420
17898W        W90312  35.488  12.674   2.216
17899W        W90313  36.376  24.516   1.405
17900W        W90314  26.977  22.676   3.835
17901W        W90315  25.178  30.516  14.500
17902W        W90316  11.196  22.635  11.953
17903W        W90317  28.083  21.673   4.183
17904W        W90318  38.551  25.039  12.538
17905W        W90319  19.044  23.519   1.818
17906W        W90320  32.519  41.849  11.083
17907W        W90321  33.920  35.852  12.013
17908W        W90322  21.183  11.811  13.516
17909W        W90323  34.073  18.124  12.044
17910W        W90324  19.121   7.816   2.236
17911W        W90325  28.610  44.921  13.339
17912W        W90326  42.018  37.550  10.023
17913W        W90327   3.926  41.528  10.408
17914W        W90328  43.893  28.123   4.233
17915W        W90329  19.215  10.289   0.786
17916W        W90330  12.182   8.763  12.929
17917W        W90331  44.811  29.100  12.075
17918W        W90332  17.213  32.391  13.990
17919W        W90333   7.303   3.745   1.846
17920W        W90334  18.085  22.600  11.877
17921W        W90335  27.613  28.059   0.328
17922W        W90336  15.707  29.074  14.403
17923W        W90337  43.864  38.851   4.196
17924W        W90338   5.194  27.127   4.162
17925W        W90339  33.065  16.310   4.760
17926W        W90340  25.970  30.079  12.852
17927W        W90341  29.636  25.580  13.493
17928W        W90342   2.722   1.800  13.962
17929W        W90343  42.852   6.424   2.273
17930W        W90344  10.856   7.394  14.409
17931W        W90345  23.606   2.263   4.116
17932W        W90346  25.003  15.637   0.443
17933W        W90347  38.448  12.718   1.790
17934W        W90348  35.479  17.777   3.823
17935W        W90349  34.104  31.645  14.966
17936W        W90350   4.409  22.633   1.370
17937W        W90351  38.947   0.373  11.484
17938W        W90352  11.261  32.071   0.372
17939W        W90353  33.086  28.460   2.307
17940W        W90354  18.624  19.717   4.212
17941W        W90355  20.552  31.408  12.579
17942W        W90356  10.712  37.839  14.009
17943W        W90357  27.642  28.059  11.099
17944W        W90358  18.747   8.395   1.388
17945W        W90359  39.499  13.763  14.424
17946W        W90360  41.314  41.433  12.401
17947W        W90361  37.354  42.377  13.022
17948W        W90362  10.866  16.745   1.236
17949W        W90363  26.003  28.564  10.490
17950W        W90364  35.368  17.672  14.886
17951W        W90365  23.040  11.210   2.184
17952W        W90366  25.066  44.474   4.809
17953W        W90367  16.657  22.137   2.372
17954W        W90368  23.714   1.271   3.310
17955W        W90369   6.765  17.668  11.115
17956W        W90370  32.136  43.802   4.213
17957W        W90371  43.953  27.112   1.237
17958W        W90372   7.259  42.423  14.438
17959W        W90373  19.623  28.574  12.345
17960W        W90374  13.737  24.212  13.317
17961W        W90375   9.875  23.658   1.377
17962W        W90376  15.186  26.553  12.397
17963W        W90377  33.935  44.970   2.243
17964W        W90378  44.805  26.526   3.634
17965W        W90379  42.777  25.605   4.161
17966W        W90380  21.262  29.613   2.694
17967W        W90381   9.184  35.422   2.352
17968W        W90382  34.109  22.652   3.309
17969W        W90383   0.755  38.370  13.505
17970W        W90384  44.797  26.626   2.298
17971W        W90385  34.906  30.094   1.838
17972W        W90386  11.622  16.195   3.708
17973W        W90387  22.730  16.286   1.247
17974W        W90388  26.473  41.377  13.954
17975W        W90389   9.251   9.835  14.984
17976W        W90390  10.686   3.404   4.621
17977W        W90391  32.496   3.802   0.944
17978W        W90392   8.823  37.980  13.884
17979W        W90393  13.797  29.604  11.914
17980W        W90394  17.095  44.803   4.170
17981W        W90395  29.541   7.841  12.524
17982W        W90396  32.912  21.124   2.735
17983W        W90397   8.344   8.734  11.088
17984W        W90398   7.225   8.768  12.370
17985W        W90399  33.404  37.479   1.291
17986W        W90400  26.516  10.780   4.799
17987W        W90401  17.162   1.952   3.382
17988W        W90402  26.079  13.639  12.907
17989W        W90403  41.343  15.229   3.770
17990W        W90404  27.660  37.437  10.503
17991W        W90405  44.407  21.738  12.526
17992W        W90406  17.795   1.852   2.817
17993W        W90407  23.043   8.819   1.810
17994W        W90408   2.297  28.520  14.465
17995W        W90409  13.733  30.463   2.886
17996W        W90410  40.978   5.802  13.886
17997W        W90411  14.246   0.865   3.688
17998W        W90412  39.528  16.137  14.370
17999W        W90413   4.936  10.718  12.514
18000W        W90414  25.650  37.025   4.639
18001W        W90415   1.481  35.088  14.833
18002W        W90416   3.802  23.735   4.634
18003W        W90417  10.268  12.333   1.328
18004W        W90418  26.696   1.433   5.588
18005W        W90419  19.670  14.672   1.927
18006W        W90420  24.625  39.331   0.474
18007W        W90421  29.441  42.805  10.115
18008W        W90422  29.989   8.901  11.066
18009W        W90423  21.055   2.244   0.968
18010W        W90424  38.027   6.733   4.239
18011W        W90425  18.219  39.935  13.943
18012W        W90426  13.710  10.695   0.835
18013W        W90427  27.455  37.446  12.946
18014W        W90428  43.925  18.248  11.934
18015W        W90429  16.295  18.174   5.119
18016W        W90430  32.029  23.211  13.946
18017W        W90431  40.873  33.091  12.399
18018W        W90432  34.001  26.511   1.838
18019W        W90433  42.423  44.499  10.927
18020W        W90434  42.009  16.159   3.815
18021W        W90435  15.774   4.390  14.460
18022W        W90436  28.464  19.117   1.375
18023W        W90437  40.009  38.828   4.723
18024W        W90438   6.902  35.963   0.357
18025W        W90439  24.197  12.645   5.303
18026W        W90440  32.462  44.805   0.963
18027W        W90441  25.625  33.972  14.998
18028W        W90442  36.985   9.673   3.630
18029W        W90443   0.328  28.940  11.998
18030W        W90444  11.291   2.886  11.523
18031W        W90445  15.719  33.430   1.387
18032W        W90446  40.498  21.197  12.550
18033W        W90447  17.083  20.238   0.470
18034W        W90448  44.316  11.742   1.712
18035W        W90449   1.856  18.680  14.370
18036W        W90450  11.746  30.541  14.414
18037W        W90451  28.645   3.941  12.914
18038W        W90452  42.883  34.092  10.490
18039W        W90453  33.905   1.873   0.483
18040W        W90454  42.341  39.821   3.373
18041W        W90455  44.287  26.015   4.713
18042W        W90456  26.702  38.411   3.820
18043W        W90457   0.347  42.450   1.242
18044W        W90458  12.697  13.181  13.039
18045W        W90459  15.147  25.009   0.475
18046W        W90460  32.969  28.156   2.256
18047W        W90461  29.586   0.922   0.371
18048W        W90462  38.356  27.962   4.152
18049W        W90463  30.932   3.447   2.735
18050W        W90464   9.654   5.375   4.255
18051W        W90465   4.326   0.290   3.802
18052W        W90466  27.594   2.290  10.409
18053W        W90467  24.974  21.135   1.284
18054W        W90468  13.823  37.073   2.325
18055W        W90469  27.674  27.018   4.807
18056W        W90470   0.259  39.856  13.519
18057W        W90471  16.651   5.392  12.496
18058W        W90472  26.554  40.926  11.021
18059W        W90473   2.362  20.124   3.632
18060W        W90474  40.996  28.058  10.922
18061W        W90475  24.528  37.444  10.916
18062W        W90476  42.391  21.583   4.662
18063W        W90477  41.518  40.511   3.671
18064W        W90478  12.639  19.166   0.780
18065W        W90479  34.004  17.613  11.396
18066W        W90480   6.905  14.284  10.020
18067W        W90481   5.699  18.657  10.456
18068W        W90482  36.574  15.669  14.769
18069W        W90483   4.712  39.956  14.382
18070W        W90484  30.127  36.541   0.248
18071W        W90485  26.586   2.885  11.475
18072W        W90486  19.085  20.266   3.169
18073W        W90487  12.168  44.382  11.494
18074W        W90488  27.503   8.801   2.773
18075W        W90489   2.458  20.179  12.052
18076W        W90490  37.458  28.658  11.076
18077W        W90491  18.595  26.611   2.851
18078W        W90492   7.760  17.799   3.657
18079W        W90493  21.133  25.116  11.937
18080W        W90494  28.139  40.390  12.482
18081W        W90495  33.492  26.702   3.640
18082W        W90496   9.683  12.814   0.922
18083W        W90497  41.486  31.064  14.409
18084W        W90498  16.754  39.435  14.851
18085W        W90499  26.072  13.148   2.897
18086W        W90500  18.627  18.091  10.634
18087W        W90501  39.899  24.721  12.923
18088W        W90502   6.265  39.391  11.074
18089W        W90503  18.095   9.734  13.969
18090W        W90504  24.607  22.021  10.620
18091W        W90505  18.775  26.206  11.466
18092W        W90506  19.602   2.770   0.827
18093W        W90507  29.546  41.962  13.408
18094W        W90508  22.503  40.525   1.362
18095W        W90509  37.567  23.610  11.473
18096W        W90510  36.859  18.630   0.858
18097W        W90511  41.863  13.693  14.509
18098W        W90512  12.839   0.326  11.378
18099W        W90513  14.801  25.622  11.554
18100W        W90514   9.382  11.636   2.778
18101W        W90515  24.089  34.938   0.950
18102W        W90516   0.296  43.895  10.508
18103W        W90517  31.608  19.126   3.723
18104W        W90518   3.383  44.772   2.389
18105W        W90519  32.099  28.083  12.362
18106W        W90520   3.312  11.166   3.162
18107W        W90521  42.438   7.277   3.153
18108W        W90522  16.311  21.234  12.909
18109W        W90523  22.173  42.392  12.991
18110W        W90524   2.302  20.682   4.780
18111W        W90525  14.764  19.688   3.859
18112W        W90526  26.006  39.897   4.708
18113W        W90527   9.869   1.381  10.414
18114W        W90528  11.835  39.370  12.001
18115W        W90529  32.101  17.154  12.007
18116W        W90530  21.621  22.644   3.837
18117W        W90531  42.513   9.265  11.977
18118W        W90532  20.052  36.448  10.511
18119W        W90533  15.328  34.037  14.862
18120W        W90534  10.659  20.220  13.842
18121W        W90535  15.169  44.830   1.416
18122W        W90536   3.321   6.745   0.249
18123W        W90537  13.676  39.324  10.478
18124W        W90538  38.991  30.452  13.518
18125W        W90539  30.100  32.403  10.487
18126W        W90540  28.114  18.203  13.996
18127W        W90541   6.363   9.363  12.947
18128W        W90542  11.810  10.691   0.835
18129W        W90543  39.385  18.612   0.846
18130W        W90544  39.820  17.252   4.649
18131W        W90545  39.969  39.984  11.041
18132W        W90546  15.292  12.184  11.027
18133W        W90547   1.914  16.263   3.216
18134W        W90548   5.241  39.350   4.191
18135W        W90549  43.307  40.425  13.044
18136W        W90550  43.410  23.605  11.453
18137W        W90551  14.123  41.500   2.268
18138W        W90552  16.683  33.026   4.120
18139W        W90553  19.645  20.123  14.896
18140W        W90554  11.300  41.432   4.679
18141W        W90555  24.573  18.180  10.537
18142W        W90556  15.820  13.706   1.322
18143W        W90557  22.092   1.834   2.258
18144W        W90558  38.944  31.419  12.372
18145W        W90559   6.421  33.535  11.484
18146W        W90560  20.265  13.335   0.322
18147W        W90561  32.937  24.529  14.501
18148W        W90562  42.804  36.477   2.306
18149W        W90563  23.691   2.307  12.847
18150W        W90564  43.886  28.596  13.987
18151W        W90565   5.728  37.906  14.284
18152W        W90566  43.382  33.916  12.341
18153W        W90567  26.691  25.705  13.484
18154W        W90568  38.405  17.199  10.968
18155W        W90569  20.731  42.439   0.407
18156W        W90570  23.119   9.333   2.241
18157W        W90571   9.805  40.967  11.985
18158W        W90572  36.468  19.265  14.414
18159W        W90573   8.860  29.076   1.837
18160W        W90574  11.642  24.621  11.427
18161W        W90575  34.870  13.265  13.421
18162W        W90576   9.819  38.826   0.786
18163W        W90577  17.558   1.436  13.511
18164W        W90578  43.766  33.420  11.055
18165W        W90579  41.374  38.013  14.381
18166W        W90580  27.560  29.527  10.923
18167W        W90581  17.639  32.937   1.784
18168W        W90582  20.142  30.947  11.856
18169W        W90583  41.360  20.108  14.297
18170W        W90584  25.531  34.880   3.355
18171W        W90585   1.304  29.667  13.041
18172W        W90586  40.964  36.893  11.407
18173W        W90587  33.101  14.323  14.963
18174W        W90588  44.776  35.073  12.025
18175W        W90589  42.899  30.505  11.480
18176W        W90590  25.696  12.296  12.488
18177W        W90591  16.215  42.015   0.271
18178W        W90592  43.969  22.596   0.819
18179W        W90593  32.566  43.903   3.275
18180W        W90594  20.243   3.783  14.005
18181W        W90595  44.980  36.402   3.735
18182W        W90596  14.336  26.954   0.271
18183W        W90597  23.169  37.522  14.922
18184W        W90598  25.583  13.131  11.515
18185W        W90599   0.920  24.620  12.848
18186W        W90600  29.531  38.019   4.783
18187W        W90601  34.875  12.738  14.928
18188W        W90602  28.967  21.607  13.435
18189W        W90603  22.073  19.251  14.395
18190W        W90604  20.725  20.272  11.608
18191W        W90605  25.132  22.177  14.287
18192W        W90606   0.317  24.673  13.821
18193W        W90607   3.832   5.291  12.915
18194W        W90608  31.109   3.218  14.856
18195W        W90609  21.164  18.206  14.355
18196W        W90610   2.394  29.985   4.821
18197W        W90611  16.776  20.193   3.705
18198W        W90612  15.798  10.822  14.401
18199W        W90613  25.151  20.651   0.304
18200W        W90614  27.614   3.953  12.925
18201W        W90615   0.275  20.097   3.679
18202W        W90616  16.671  40.455  12.406
18203W        W90617  25.597  22.713   0.917
18204W        W90618   3.757   9.841  14.773
18205W        W90619  31.438  21.701  10.565
18206W        W90620   6.796   8.777   2.751
18207W        W90621   7.205  33.013  12.553
18208W        W90622   2.322  36.976   4.659
18209W        W90623  20.186  42.954   1.776
18210W        W90624  31.594  39.871  10.456
18211W        W90625  26.951  31.971   3.320
18212W        W90626   3.814   7.678   3.730
18213W        W90627  43.929  23.093  14.384
18214W        W90628  14.683  31.055  10.617
18215W        W90629   5.194  18.756  14.872
18216W        W90630  30.062  35.507   2.689
18217W        W90631  18.139  13.116   2.234
18218W        W90632   1.420  40.951   3.768
18219W        W90633  11.737  17.141  12.578
18220W        W90634  30.956  22.222   0.729
18221W        W90635   4.817  31.142  14.295
18222W        W90636  25.153   4.937  11.375
18223W        W90637   8.337  14.178   1.430
18224W        W90638  31.037  33.493  14.472
18225W        W90639  27.662  26.660   0.908
18226W        W90640  35.991  13.766   0.744
18227W        W90641  28.155  10.377   9.967
18228W        W90642   3.334  32.113   2.409
18229W        W90643   9.852  28.659  11.009
18230W        W90644   2.927  22.528   0.864
18231W        W90645  22.707  29.093   4.687
18232W        W90646  31.404  12.266  11.579
18233W        W90647  24.540  33.599   3.145
18234W        W90648   1.864  32.436  13.420
18235W        W90649  31.028  23.639  11.969
18236W        W90650   2.944  14.612   5.275
18237W        W90651   2.288  30.597  14.965
18238W        W90652  33.433  22.603   4.624
18239W        W90653  18.730   4.440  14.004
18240W        W90654  18.733  37.454  11.423
18241W        W90655  25.205  18.735   1.846
18242W        W90656  10.853   2.815  14.404
18243W        W90657  15.788  34.551  13.038
18244W        W90658   4.906  42.973  14.303
18245W        W90659   1.957  37.927  12.063
18246W        W90660  10.296   4.889  14.350
18247W        W90661  39.886  12.673   3.839
18248W        W90662  24.526   0.281   4.753
18249W        W90663   8.331  14.747   2.782
18250W        W90664   5.407   1.792  10.990
18251W        W90665  35.024  36.556  13.019
18252W        W90666  18.284  15.583  13.812
18253W        W90667  24.124   2.320  11.893
18254W        W90668  14.736  14.820   2.261
18255W        W90669   6.912  13.703   4.646
18256W        W90670   5.911  28.636  11.080
18257W        W90671  13.722  10.678  12.487
18258W        W90672  35.593  41.484  11.484
18259W        W90673   8.307  11.773   0.743
18260W        W90674  44.928  36.915  12.473
18261W        W90675  26.208  31.982  14.782
18262W        W90676  40.983  31.149  13.837
18263W        W90677  28.046  15.231  11.539
18264W        W90678  42.282  18.755   4.780
18265W        W90679   3.361  18.177  11.027
18266W        W90680  42.799  24.207  13.019
18267W        W90681  32.935  11.219  13.529
18268W        W90682  43.442  18.618   4.132
18269W        W90683  10.748  28.170   4.746
18270W        W90684   0.402  34.395   1.719
18271W        W90685  39.493  20.124  11.460
18272W        W90686   2.926  14.238  10.983
18273W        W90687  23.019   6.358   0.312
18274W        W90688   8.850  32.581   0.411
18275W        W90689   9.392  38.968  11.443
18276W        W90690   0.756  25.014   1.302
18277W        W90691  43.434   1.306   3.675
18278W        W90692  32.520  18.141   1.289
18279W        W90693  13.262  32.935   1.884
18280W        W90694  14.175  15.112  10.599
18281W        W90695  18.248  31.434  13.462
18282W        W90696  32.410  21.717   2.183
18283W        W90697  13.143   8.831  13.050
18284W        W90698   0.810  21.173  11.860
18285W        W90699   6.742  11.646   3.772
18286W        W90700  43.833  17.669  14.850
18287W        W90701   7.209  20.654  11.417
18288W        W90702  15.099  15.729   2.670
18289W        W90703   3.279  19.172  11.903
18290W        W90704  28.080  31.078   3.335
18291W        W90705  24.992   7.695  12.350
18292W        W90706  23.047   1.367  10.409
18293W        W90707  23.002  23.984   1.237
18294W        W90708  10.788  41.480  11.985
18295W        W90709  35.590  18.612   3.865
18296W        W90710  13.272  19.753   0.408
18297W        W90711  13.307  11.202  11.502
18298W        W90712   0.793  34.973  12.895
18299W        W90713  21.604  38.012   0.308
18300W        W90714   4.373  34.607   4.243
18301W        W90715   0.451  17.120   0.272
18302W        W90716  12.154  13.110   4.688
18303W        W90717  29.544   9.648  14.958
18304W        W90718  35.384   8.252  11.397
18305W        W90719  11.652  36.981  12.096
18306W        W90720  41.843  14.196  12.553
18307W        W90721  41.027  10.161  12.580
18308W        W90722  22.625  12.200  12.083
18309W        W90723  16.304  35.877   0.292
18310W        W90724  31.066  30.013   1.774
18311W        W90725  14.772  26.485   2.383
18312W        W90726   1.432   5.434   0.797
18313W        W90727  20.644  39.871   3.858
18314W        W90728  41.364  43.347   3.180
18315W        W90729  10.182  10.823  13.927
18316W        W90730  19.621   0.765   4.704
18317W        W90731  27.488  28.997  11.372
18318W        W90732  32.985  39.429  14.371
18319W        W90733   4.408  23.104  11.076
18320W        W90734  28.581  21.093  10.433
18321W        W90735   1.807  34.489  12.038
18322W        W90736  11.831   4.342  10.507
18323W        W90737  15.763  23.500  11.057
18324W        W90738  38.901  39.064  14.449
18325W        W90739  39.525  36.534   4.258
18326W        W90740  37.455  23.178  14.405
18327W        W90741   6.761  30.026  14.346
18328W        W90742  42.788  23.712   4.225
18329W        W90743  30.531  14.782  12.342
18330W        W90744  10.232   8.712   0.389
18331W        W90745  17.661   9.178  14.347
18332W        W90746  10.366  42.823   0.780
18333W        W90747  44.882  16.232   0.260
18334W        W90748  23.209   2.944   2.408
18335W        W90749   3.340  42.992  10.432
18336W        W90750  35.012  27.948   2.393
18337W        W90751  12.847  16.583  12.885
18338W        W90752  14.707  41.833   3.757
18339W        W90753  26.632  41.886  12.857
18340W        W90754  38.040  43.302   0.789
18341W        W90755  11.656  14.635   1.868
18342W        W90756  14.668  20.084  12.383
18343W        W90757  22.185  14.616  12.900
18344W        W90758  22.146  24.724  13.529
18345W        W90759  13.792  34.406   1.336
18346W        W90760  31.441  13.653   0.877
18347W        W90761  22.165   9.660  11.045
18348W        W90762  20.052   8.664   3.734
18349W        W90763  35.901  14.191  13.023
18350W        W90764  17.118  29.937  11.442
18351W        W90765   6.352   9.226   2.276
18352W        W90766  23.690   1.416  10.054
18353W        W90767  33.029  29.446   4.739
18354W        W90768  14.612  10.741   2.248
18355W        W90769  25.179  42.516  14.789
18356W        W90770  40.977   8.661  10.511
18357W        W90771   2.318  43.872   1.741
18358W        W90772  32.535   0.410  14.924
18359W        W90773  10.845   4.745   3.758
18360W        W90774   2.911   0.456  14.782
18361W        W90775  40.350  26.479   0.370
18362W        W90776  22.030  43.446   0.328
18363W        W90777  17.576  44.303   2.701
18364W        W90778  24.716  20.640   2.196
18365W        W90779  40.363  34.008  14.864
18366W        W90780   3.780  41.900   1.421
18367W        W90781  30.158   4.796   2.714
18368W        W90782  15.811  41.509  14.495
18369W        W90783  27.178  23.180   2.350
18370W        W90784  41.846  33.938  14.806
18371W        W90785  31.509   0.286   0.257
18372W        W90786  35.938   0.890  11.502
18373W        W90787  40.825  24.596   1.808
18374W        W90788  44.438  27.459  14.923
18375W        W90789  10.798   8.823  13.456
18376W        W90790  38.481  35.463  11.028
18377W        W90791  12.299  17.065  13.423
18378W        W90792  14.229  39.521   1.782
18379W        W90793  15.752  34.881  12.515
18380W        W90794  17.211  33.924   3.759
18381W        W90795  34.496  39.351   2.835
18382W        W90796  21.632  34.566  14.853
18383W        W90797  19.079  24.649   1.787
18384W        W90798   7.340  15.124   0.874
18385W        W90799  42.358   2.726  13.316
18386W        W90800  40.011  14.751  13.382
18387W        W90801  13.215   0.932   1.927
18388W        W90802  24.597  25.165   2.228
18389W        W90803  35.397  42.423   1.808
18390W        W90804  32.039  37.032   1.758
18391W        W90805   6.352  19.076  12.418
18392W        W90806  11.764  11.778  11.002
18393W        W90807  33.012  44.830  13.453
18394W        W90808   5.774  42.403  13.365
18395W        W90809  20.251  21.714  10.618
18396W        W90810  37.970  28.062  12.859
18397W        W90811  10.700  28.436   1.224
18398W        W90812  21.624  15.581  11.580
18399W        W90813   3.853  39.443  13.910
18400W        W90814   6.720  19.695  11.508
18401W        W90815  24.067   2.743   1.837
18402W        W90816  41.379  29.664   4.657
18403W        W90817  14.192   8.311   3.312
18404W        W90818  16.227  16.579  12.002
18405W        W90819  11.180  29.038   2.193
18406W        W90820  29.642   7.222  12.339
18407W        W90821  16.571   7.770   4.141
18408W        W90822  44.986   9.265   1.266
18409W        W90823   4.757   1.762   0.403
18410W        W90824   7.246   9.231   0.802
18411W        W90825  33.983  32.969   3.265
18412W        W90826  25.676  43.349  14.820
18413W        W90827  16.735  18.057   0.894
18414W        W90828   6.277  13.819   2.787
18415W        W90829   3.421  17.747   3.358
18416W        W90830  41.804  20.725  14.329
18417W        W90831  44.381   5.405   4.793
18418W        W90832  24.511  41.876  13.522
18419W        W90833  20.610  43.778   2.807
18420W        W90834   9.380  11.338   4.663
18421W        W90835  42.362  12.616   1.450
18422W        W90836   3.256  29.466  11.096
18423W        W90837  17.632  43.348  13.057
18424W        W90838   1.900  41.422  12.862
18425W        W90839  11.348  22.525   0.440
18426W        W90840  36.902  43.787  13.808
18427W        W90841   5.428   8.376  14.872
18428W        W90842  17.734  44.432   2.262
18429W        W90843  18.764  10.736   4.619
18430W        W90844  36.519   5.255  12.343
18431W        W90845  18.269  27.072  10.973
18432W        W90846  14.636  23.193   1.864
18433W        W90847  29.500  37.440   0.348
18434W        W90848  44.812  23.553   0.363
18435W        W90849  23.547  26.508   2.818
18436W        W90850  12.785   0.483  13.469
18437W        W90851   2.383  11.307  12.508
18438W        W90852  26.593  44.950   4.645
18439W        W90853  19.545  20.170   4.674
18440W        W90854  41.969  31.925   3.219
18441W        W90855  24.986   5.376   1.377
18442W        W90856  22.194  12.323  14.008
18443W        W90857   5.740  38.963  11.531
18444W        W90858   7.780   6.744  11.880
18445W        W90859  13.688  28.070   0.371
18446W        W90860  14.631   2.421  12.902
18447W        W90861  18.170  15.119   4.274
18448W        W90862  13.183  17.577  13.542
18449W        W90863  28.174   2.791  10.517
18450W        W90864   3.396  36.951   3.236
18451W        W90865  32.952  17.231   2.333
18452W        W90866  19.705  21.727  14.898
18453W        W90867   9.724  36.397  12.945
18454W        W90868  13.224  27.942  11.376
18455W        W90869  44.989  12.187  11.418
18456W        W90870  37.087  39.499  11.372
18457W        W90871   3.837  26.177   1.408
18458W        W90872  18.749  10.767  11.463
18459W        W90873  39.473  18.096   3.147
18460W        W90874   4.825  38.538   1.331
18461W        W90875   8.695  13.343  11.946
18462W        W90876  29.062  32.534   0.270
18463W        W90877  34.968  40.324  11.023
18464W        W90878  42.816   4.773   1.434
18465W        W90879  27.503  16.284  14.989
18466W        W90880  21.535   7.692  13.543
18467W        W90881  16.211  28.043  13.927
18468W        W90882   1.386  30.517   2.719
18469W        W90883  17.294   1.831  10.432
18470W        W90884  13.619   7.726   2.683
18471W        W90885  15.231  43.334   2.714
18472W        W90886  29.928  17.749   3.669
18473W        W90887  20.206  34.615   3.701
18474W        W90888  13.673  16.301   0.873
18475W        W90889  42.326  41.494   1.412
18476W        W90890   8.181  16.615  11.882
18477W        W90891  43.872   9.195   3.372
18478W        W90892  15.321  43.270   3.208
18479W        W90893  22.638  40.511   4.708
18480W        W90894  16.072  38.002  14.333
18481W        W90895   5.405  44.843   3.808
18482W        W90896   1.371  23.683  13.939
18483W        W90897  10.207  15.315   2.299
18484W        W90898  11.347  11.794  10.961
18485W        W90899   7.731  29.009  13.855
18486W        W90900  40.804  30.120   3.333
18487W        W90901  15.729  31.508   2.261
18488W        W90902   7.386  42.357   0.847
18489W        W90903  35.389  41.037   2.767
18490W        W90904  40.311  38.461  13.038
18491W        W90905  29.561  39.833  11.489
18492W        W90906   2.446  44.382   1.907
18493W        W90907  27.679  17.606  11.010
18494W        W90908  10.696   0.486   0.798
18495W        W90909  37.418   8.776  11.563
18496W        W90910  32.907   0.441   3.222
18497W        W90911   2.286  43.425   4.832
18498W        W90912  39.521  34.048  11.516
18499W        W90913   9.844   1.274  12.975
18500W        W90914  19.706   2.916  14.449
18501W        W90915  11.286  14.794  10.930
18502W        W90916  29.932  35.499  13.311
18503W        W90917  17.758  13.638  11.864
18504W        W90918  11.270  44.859   3.700
18505W        W90919  40.425   3.259   4.746
18506W        W90920   2.330  21.022  13.796
18507W        W90921   3.353   7.241   2.723
18508W        W90922  33.035  32.068  10.141
18509W        W90923  36.984  32.564  11.956
18510W        W90924  26.473  11.353   0.961
18511W        W90925  20.246  44.404   4.133
18512W        W90926  27.966  16.692   1.767
18513W        W90927  31.621  12.179  10.993
18514W        W90928  28.660  13.752   0.794
18515W        W90929  25.110   6.754   3.177
18516W        W90930  43.877   3.780  10.947
18517W        W90931   0.389   1.931   0.396
18518W        W90932  20.079  39.959  11.510
18519W        W90933  26.109  19.240   1.298
18520W        W90934  12.157  39.929  10.597
18521W        W90935  28.574  30.506   3.722
18522W        W90936   8.740  34.004   4.698
18523W        W90937  35.050  42.326   4.733
18524W        W90938   2.232  12.177   0.383
18525W        W90939  18.745  35.986  11.375
18526W        W90940  37.063  32.485   2.404
18527W        W90941   6.189  14.178  11.091
18528W        W90942  19.196  40.425  12.987
18529W        W90943  21.642   7.897   1.905
18530W        W90944  33.413  36.403   4.176
18531W        W90945   5.753  12.855   2.299
18532W        W90946  38.067  19.153   1.214
18533W        W90947  37.545  19.229  13.435
18534W        W90948  11.143   5.865   2.665
18535W        W90949   6.375  17.667  11.961
18536W        W90950  15.616  34.075   4.153
18537W        W90951  29.167  18.662  11.084
18538W        W90952  16.281  38.839  12.345
18539W        W90953  44.919  37.083  11.428
18540W        W90954  11.256  43.282   0.898
18541W        W90955  16.128  33.455   3.225
18542W        W90956  22.692   7.325  11.027
18543W        W90957   7.200   8.681   1.722
18544W        W90958  38.549  22.036   0.952
18545W        W90959  15.123  41.404   2.746
18546W        W90960  39.906  17.166  11.076
18547W        W90961  32.446   0.403   1.384
18548W        W90962  21.160  28.059   0.781
18549W        W90963   3.323  10.312  10.148
18550W        W90964  35.010  17.654  10.507
18551W        W90965   9.830  38.504   1.786
18552W        W90966  21.523  36.020  12.920
18553W        W90967  40.956  44.404  10.452
18554W        W90968  15.717   0.391   3.652
18555W        W90969  19.175  21.668  10.421
18556W        W90970  19.281  26.591  14.919
18557W        W90971   6.408  24.162  14.826
18558W        W90972  33.950   4.335  12.823
18559W        W90973  23.164  18.200   0.272
18560W        W90974  40.492  19.584  11.943
18561W        W90975  14.228  37.473   2.811
18562W        W90976  15.178  33.618   0.454
18563W        W90977   1.862  34.581   3.346
18564W        W90978  42.848   5.256  10.645
18565W        W90979  39.982  11.188   3.729
18566W        W90980  10.207  26.960   2.839
18567W        W90981  14.321  21.561  13.484
18568W        W90982  42.850  28.077  11.955
18569W        W90983   3.362  14.254  13.857
18570W        W90984   3.727   1.939  13.471
18571W        W90985  28.052  38.895   4.647
18572W        W90986  30.591   6.864   1.446
18573W        W90987  22.107   2.783  14.018
18574W        W90988   2.283  37.861  10.407
18575W        W90989  21.637  24.132   3.804
18576W        W90990  12.770  11.679   3.751
18577W        W90991  17.069  15.624   0.917
18578W        W90992  34.449  39.053   3.154
18579W        W90993  10.376  28.139  14.023
18580W        W90994   6.408   5.361  14.833
18581W        W90995  25.529  16.755   4.280
18582W        W90996  19.122  39.957  14.029
18583W        W90997  10.299  15.760   0.342
18584W        W90998  11.298   2.286   3.361
18585W        W90999  13.755  32.485   1.417
18586W        W91000   0.431  42.382  10.959
18587W        W91001  37.446  24.094   0.360
18588W        W91002   7.754  28.146   2.860
18589W        W91003  27.136  24.154   1.446
18590W        W91004   0.851  41.328   0.960
18591W        W91005  11.334   8.309  13.829
18592W        W91006  19.217   0.392   4.609
18593W        W91007   1.436  23.610   3.695
18594W        W91008  31.912   9.280  14.926
18595W        W91009  44.778  11.731  11.426
18596W        W91010  26.537  29.997  14.947
18597W        W91011   6.395  33.076   1.384
18598W        W91012   9.673   3.767   3.321
18599W        W91013  13.818  23.509   3.646
18600W        W91014   0.976  42.366   0.357
18601W        W91015  28.527   9.787  13.906
18602W        W91016  14.632  15.238   0.315
18603W        W91017  12.253   1.892   3.638
18604W        W91018  30.122  25.026   3.667
18605W        W91019   1.915   4.942  13.806
18606W        W91020  43.372  14.718  12.903
18607W        W91021  34.098  40.430  12.840
18608W        W91022   2.922  17.176   2.354
18609W        W91023  18.177  42.482   4.815
18610W        W91024  28.993   2.445   0.482
18611W        W91025  34.872  37.395  10.020
18612W        W91026  34.581   7.710  14.017
18613W        W91027  40.496  23.139  14.455
18614W        W91028  33.918  42.784   3.312
18615W        W91029   1.836  39.933  14.444
18616W        W91030  15.817  34.599  10.468
18617W        W91031  38.491  23.640   1.803
18618W        W91032  39.382  25.070   4.299
18619W        W91033  24.564  44.837  12.364
18620W        W91034  35.417  35.978  13.970
18621W        W91035  29.029   8.365  10.925
18622W        W91036  17.084   6.757   3.363
18623W        W91037  27.597  42.964  12.499
18624W        W91038  33.991  33.596  14.025
18625W        W91039  13.272  28.536  10.501
18626W        W91040   0.790   4.291   3.817
18627W        W91041  16.202  33.549  12.023
18628W        W91042  11.854  34.545   0.865
18629W        W91043  18.128   3.303   2.827
18630W        W91044  25.021   2.903   1.850
18631W        W91045  34.384  35.572   0.393
18632W        W91046  35.531  22.743  12.521
18633W        W91047  16.773   4.358  11.123
18634W        W91048  43.825  30.565  11.436
18635W        W91049  20.222  27.021   3.768
18636W        W91050  17.570  19.255   2.883
18637W        W91051   2.846  41.989   3.749
18638W        W91052  16.576  40.944   4.213
18639W        W91053  35.538  23.519   3.780
18640W        W91054  32.466  30.469  10.556
18641W        W91055  29.453  10.282  11.379
18642W        W91056  18.259  26.164  10.542
18643W        W91057  25.553  17.589  12.980
18644W        W91058  44.283   8.887  13.436
18645W        W91059  15.820  41.473  12.381
18646W        W91060  16.257  18.125  10.598
18647W        W91061  22.736  27.682  14.378
18648W        W91062   9.340  30.626   0.287
18649W        W91063  37.058  43.428  11.989
18650W        W91064  35.520  34.093  10.003
18651W        W91065  22.194  40.310   0.921
18652W        W91066  11.350  38.355   1.373
18653W        W91067  34.449  17.193   2.871
18654W        W91068  13.685  21.132   1.421
18655W        W91069  35.478   3.719  11.475
18656W        W91070  36.857  12.753   2.694
18657W        W91071  23.590  28.495  11.437
18658W        W91072  13.335  39.007   5.166
18659W        W91073  44.931   4.345   4.736
18660W        W91074   3.857  29.515  12.059
18661W        W91075  20.125  31.594   3.346
18662W        W91076   4.375   5.387  13.845
18663W        W91077  19.182  40.797  11.869
18664W        W91078  24.542  26.021   0.457
18665W        W91079  36.563   0.436  11.424
18666W        W91080  33.943   5.363   4.323
18667W        W91081  37.500  20.202   2.219
18668W        W91082  17.622  19.259  14.329
18669W        W91083  22.539  11.137   2.761
18670W        W91084   0.853  22.171  14.971
18671W        W91085   4.343  36.533   0.349
18672W        W91086  31.033  29.965   0.456
18673W        W91087  34.576  27.163  11.060
18674W        W91088  18.669  44.500  13.833
18675W        W91089  25.575  14.668  10.634
18676W        W91090   7.823  32.019  10.494
18677W        W91091  30.957  15.170   4.694
18678W        W91092  36.506  39.350   0.321
18679W        W91093  26.992  42.478   2.260
18680W        W91094  27.010  35.902   5.204
18681W        W91095  10.327   6.693  11.050
18682W        W91096  10.746  17.243   3.202
18683W        W91097  42.973   8.804  10.981
18684W        W91098  18.623  14.729   1.366
18685W        W91099  33.546  30.658  12.359
18686W        W91100  30.464  11.368  12.858
18687W        W91101   5.313  20.606   4.815
18688W        W91102  35.535  15.589  14.424
18689W        W91103   5.253  41.822   1.327
18690W        W91104  14.821  40.503   2.273
18691W        W91105  23.196   3.874  14.993
18692W        W91106  13.237  40.535   0.313
18693W        W91107   3.733  11.159   1.400
18694W        W91108  21.578  29.631   2.893
18695W        W91109   5.303  42.832   0.473
18696W        W91110  33.450   8.238  10.423
18697W        W91111  37.936  42.331  14.029
18698W        W91112  20.665  14.317   4.353
18699W        W91113  14.717  23.555  11.932
18700W        W91114  18.557  38.956   4.152
18701W        W91115  11.212  15.087  14.455
18702W        W91116  12.276  40.015  12.829
18703W        W91117  22.555  17.636  10.995
18704W        W91118  41.455  34.439   3.862
18705W        W91119  35.597  34.415   1.247
18706W        W91120  14.319  13.178  14.372
18707W        W91121  34.428  19.614   0.798
18708W        W91122  42.369  35.450   1.350
18709W        W91123  41.314  41.930  11.479
18710W        W91124  28.518  35.445   2.779
18711W        W91125  40.870  13.151   1.242
18712W        W91126  17.678  21.555  12.084
18713W        W91127  34.464  20.252  10.975
18714W        W91128   0.301  20.115   0.946
18715W        W91129  43.774   2.331   3.240
18716W        W91130  17.257  36.057  13.033
18717W        W91131   6.406  12.796   9.970
18718W        W91132  35.567  33.600   1.701
18719W        W91133  38.955  15.803   0.859
18720W        W91134  10.866   0.757  10.628
18721W        W91135  20.694  23.495  10.536
18722W        W91136  16.227  35.058   2.395
18723W        W91137  24.514  10.339   0.250
18724W        W91138  21.555  34.973   3.377
18725W        W91139  10.637  28.984  10.596
18726W        W91140  31.093  24.020  12.387
18727W        W91141  10.326  17.265  11.546
18728W        W91142  41.491  39.413   1.719
18729W        W91143  13.732  35.567  11.000
18730W        W91144  42.345   4.306  14.836
18731W        W91145  32.416  10.360   2.337
18732W        W91146  34.990  28.550  12.566
18733W        W91147  15.102   1.808  12.431
18734W        W91148  29.160  13.730  12.463
18735W        W91149  17.212  24.699   2.397
18736W        W91150  42.941  18.721   5.181
18737W        W91151  37.980  19.101  14.493
18738W        W91152  26.493   6.243   2.790
18739W        W91153  23.541  22.147   2.728
18740W        W91154  18.701  11.635   4.634
18741W        W91155  32.925  43.297  11.866
18742W        W91156  28.075   5.858   0.392
18743W        W91157   9.182  20.561   3.759
18744W        W91158  18.731  17.700  10.955
18745W        W91159  41.890  34.960   1.390
18746W        W91160  15.747  32.538   9.926
18747W        W91161  17.571  37.856   0.898
18748W        W91162   3.900  28.598  12.573
18749W        W91163  41.520   2.771  13.501
18750W        W91164  38.422  34.586  10.436
18751W        W91165   5.895  39.340   3.332
18752W        W91166   7.751  36.846   4.664
18753W        W91167   7.861  42.921   3.282
18754W        W91168  15.236  29.554   1.246
18755W        W91169  17.235   0.248  10.600
18756W        W91170  18.178  40.482   4.262
18757W        W91171   1.392  16.210   0.811
18758W        W91172  17.256   6.725   4.246
18759W        W91173  15.182  33.422  11.895
18760W        W91174  36.963   1.852  11.863
18761W        W91175  17.072  35.480   3.773
18762W        W91176  41.479   1.367   4.171
18763W        W91177  44.380   8.703   2.387
18764W        W91178   7.704  37.852  14.018
18765W        W91179  27.011  10.814  12.913
18766W        W91180  33.422   7.691   2.833
18767W        W91181   3.930   3.390   1.908
18768W        W91182  18.585   3.888  11.010
18769W        W91183  34.919  21.649  12.088
18770W        W91184  44.369  15.149   1.842
18771W        W91185  17.741  42.405  13.481
18772W        W91186   5.409   1.846   2.670
18773W        W91187  33.023  37.895  14.841
18774W        W91188  11.199   4.916  11.028
18775W        W91189  30.578  44.395  14.466
18776W        W91190  10.153   4.826  13.310
18777W        W91191  14.268   7.722  13.500
18778W        W91192  17.609  13.649   1.925
18779W        W91193  30.936   7.695  10.452
18780W        W91194  21.253  14.270   0.291
18781W        W91195  20.575  22.658   4.663
18782W        W91196  30.566  14.211  12.090
18783W        W91197  32.107  11.658  14.849
18784W        W91198  14.311  17.789  12.018
18785W        W91199   5.928   3.743   3.754
18786W        W91200  14.287  16.689  13.545
18787W        W91201  19.776  25.643   1.317
18788W        W91202   3.766  30.508   0.920
18789W        W91203   1.963   6.811  10.990
18790W        W91204  18.106  41.025  11.857
18791W        W91205   3.919  23.653   3.164
18792W        W91206  15.765  28.629   3.279
18793W        W91207  33.109  17.734   3.724
18794W        W91208  34.060  16.793  11.475
18795W        W91209   1.871  15.180   1.247
18796W        W91210  34.390  15.158  12.369
18797W        W91211   7.248  40.919  14.466
18798W        W91212  25.634   7.718   2.806
18799W        W91213  15.261  17.666  12.576
18800W        W91214  26.103  36.920  13.858
18801W        W91215  39.552  10.764  11.390
18802W        W91216   1.824  39.362  12.841
18803W        W91217  27.499  24.067   4.739
18804W        W91218  44.414  38.837   1.899
18805W        W91219  31.551   8.847   2.720
18806W        W91220  17.231  13.744  10.435
18807W        W91221  25.104  11.272  11.601
18808W        W91222  24.650   0.806   3.864
18809W        W91223   0.745  15.794   4.637
18810W        W91224  32.900  43.396   0.797
18811W        W91225  14.725  13.291  12.977
18812W        W91226   6.232  26.990   0.321
18813W        W91227  18.635  36.366  11.986
18814W        W91228  43.277  37.388   1.761
18815W        W91229  33.028   1.855   3.196
18816W        W91230  17.280  29.657  11.021
18817W        W91231  15.117  36.352  10.419
18818W        W91232  44.973  39.874  14.980
18819W        W91233  23.576  12.322   0.864
18820W        W91234  43.503  28.537   4.277
18821W        W91235  43.441  27.975  14.477
18822W        W91236  38.866  42.384   1.846
18823W        W91237  27.654  42.031  13.541
18824W        W91238  33.050  16.793   3.275
18825W        W91239   8.787  35.416  12.906
18826W        W91240  20.124   3.857   1.344
18827W        W91241   0.775  28.672   0.431
18828W        W91242  19.133  15.700  13.924
18829W        W91243  19.613   0.442   1.337
18830W        W91244  10.381  24.034   4.135
18831W        W91245  39.951  25.034  13.434
18832W        W91246  33.082   8.756   0.911
18833W        W91247  28.646  24.186  13.512
18834W        W91248   1.978  38.970   0.910
18835W        W91249   7.298   3.820   2.214
18836W        W91250  32.906   1.453  10.932
18837W        W91251   4.291   3.318  14.287
18838W        W91252   3.940  34.031  10.600
18839W        W91253  42.390  20.754   3.726
18840W        W91254  11.821  37.411  11.571
18841W        W91255  10.656   4.729   1.728
18842W        W91256  36.086  44.000  14.307
18843W        W91257   7.273  22.703  12.840
18844W        W91258  11.691   6.224   2.277
18845W        W91259  26.678  38.924  13.915
18846W        W91260  42.301   9.359   1.812
18847W        W91261   1.941   0.457  12.834
18848W        W91262  15.780  24.658  11.093
18849W        W91263  40.463  25.067  13.375
18850W        W91264  35.535  41.471   0.409
18851W        W91265  17.292  27.180   3.376
18852W        W91266  38.526  26.531   3.746
18853W        W91267  32.933  34.014  14.340
18854W        W91268  21.017   5.789   3.736
18855W        W91269  12.737  35.500  13.443
18856W        W91270  17.783  40.914   4.201
18857W        W91271  13.718  10.239   2.386
18858W        W91272  27.595  34.530  13.353
18859W        W91273   7.857   6.243   2.324
18860W        W91274   0.914   6.226   0.893
18861W        W91275   3.823  29.935  12.873
18862W        W91276  19.705  11.333   3.349
18863W        W91277  11.692   2.446   0.872
18864W        W91278  25.523  16.280   5.235
18865W        W91279  40.418  34.040  10.498
18866W        W91280  15.716  15.129  11.553
18867W        W91281  10.372   3.790   2.894
18868W        W91282   0.310  20.184   4.138
18869W        W91283   9.889   5.269  10.538
18870W        W91284   7.879  21.050  11.064
18871W        W91285  14.190   9.181  12.978
18872W        W91286  25.079  11.166   9.940
18873W        W91287  32.917   4.255   0.276
18874W        W91288   4.940  13.124   0.938
18875W        W91289  16.200  33.447  10.986
18876W        W91290  24.673  31.130  14.510
18877W        W91291  26.703  33.072  13.419
18878W        W91292   3.418  11.739  13.514
18879W        W91293  17.233  13.817  13.519
18880W        W91294  31.516   8.283   4.287
18881W        W91295  33.909  33.989  13.455
18882W        W91296  30.933  33.550  13.472
18883W        W91297  35.601  30.513  11.905
18884W        W91298  20.735  12.236   1.750
18885W        W91299  41.422  18.704   4.219
18886W        W91300   5.316  43.781  14.891
18887W        W91301  31.142  29.008   3.379
18888W        W91302   8.877  28.483  13.370
18889W        W91303  17.307  18.729   1.290
18890W        W91304  15.128  41.391   1.234
18891W        W91305  38.063  22.221   2.356
18892W        W91306  43.822   4.924   2.753
18893W        W91307  30.509   8.385   1.415
18894W        W91308  31.019  27.945  12.959
18895W        W91309  33.519   1.377  14.921
18896W        W91310  16.804   7.283   3.353
18897W        W91311   8.689  12.697  11.421
18898W        W91312  14.327  20.055  11.008
18899W        W91313  40.541  23.513  11.507
18900W        W91314   1.868  26.091   2.214
18901W        W91315   9.312   1.294  12.837
18902W        W91316  14.209  19.720   4.779
18903W        W91317   1.396  41.496  11.019
18904W        W91318   2.319  23.138   0.954
18905W        W91319   3.270  32.982   1.435
18906W        W91320   5.877  42.293  12.491
18907W        W91321  16.313  20.164   0.893
18908W        W91322   9.302  38.394   0.773
18909W        W91323  14.796  41.334   4.262
18910W        W91324  11.287  31.442   2.229
18911W        W91325  40.951  31.919  13.346
18912W        W91326  13.755  18.114   5.120
18913W        W91327   6.353  42.816  14.391
18914W        W91328  22.095  33.899   1.836
18915W        W91329   3.328  38.850  11.892
18916W        W91330  30.484  35.976  11.575
18917W        W91331  18.207  14.715  12.367
18918W        W91332  40.843  42.445  10.464
18919W        W91333  35.891  41.506   0.864
18920W        W91334  34.997   3.800   4.837
18921W        W91335   4.829  12.313   4.599
18922W        W91336  14.215  12.750  10.440
18923W        W91337  42.379  22.562  12.513
18924W        W91338  26.475  10.687  12.026
18925W        W91339  35.384  44.270   3.332
18926W        W91340  21.621   4.714  13.823
18927W        W91341  26.579  34.096   3.246
18928W        W91342  33.442  24.723   0.352
18929W        W91343   6.404  37.479   2.229
18930W        W91344   5.855  41.437  12.014
18931W        W91345  39.553   4.937   2.308
18932W        W91346  11.170  28.117   2.316
18933W        W91347  24.139   5.254  14.357
18934W        W91348  39.461  10.237   1.401
18935W        W91349  36.867  37.054  13.441
18936W        W91350  36.070  18.259   4.143
18937W        W91351  23.044  23.639  13.974
18938W        W91352   4.845  18.186  11.602
18939W        W91353  35.507   1.262   4.234
18940W        W91354  31.538  20.688   0.452
18941W        W91355   3.910   9.797  10.490
18942W        W91356  29.077  39.362   2.894
18943W        W91357  35.372  15.699   1.716
18944W        W91358   0.884   3.416   3.163
18945W        W91359   6.779   6.867   4.299
18946W        W91360  43.466  19.181   3.242
18947W        W91361  32.556   4.734   2.362
18948W        W91362   5.313  42.835   2.667
18949W        W91363  24.081  13.201  10.099
18950W        W91364   4.221  27.038   4.145
18951W        W91365  23.659  37.992  11.094
18952W        W91366  22.074  38.327   0.840
18953W        W91367   6.784  21.744   0.307
18954W        W91368   6.818  13.798   0.903
18955W        W91369  10.717  11.350  12.526
18956W        W91370   7.793  24.227   3.869
18957W        W91371  43.850   8.259  10.964
18958W        W91372   9.725  39.825  11.482
18959W        W91373  38.955   5.914  12.916
18960W        W91374  36.882  43.498   1.735
18961W        W91375  38.872   2.344  10.978
18962W        W91376   9.376   2.849   3.169
18963W        W91377   2.795  16.742  11.104
18964W        W91378  16.249  37.970  12.361
18965W        W91379   0.268  32.080  14.815
18966W        W91380  44.849  29.010  10.403
18967W        W91381  21.216  41.842   4.780
18968W        W91382  14.643  33.893   3.841
18969W        W91383  17.800  14.739  12.417
18970W        W91384  21.746  32.390  14.381
18971W        W91385  17.659  12.313  14.431
18972W        W91386  29.467  23.680  14.382
18973W        W91387  16.761  10.207  14.009
18974W        W91388  44.305   7.900  14.904
18975W        W91389   4.825  43.345   0.431
18976W        W91390   9.646  24.712   0.927
18977W        W91391   4.227  38.977   4.286
18978W        W91392  40.332  35.973   4.191
18979W        W91393  31.414  35.394   4.290
18980W        W91394  27.981   4.272   0.483
18981W        W91395  19.235  39.363   2.858
18982W        W91396  17.129  24.222   0.394
18983W        W91397  42.331  30.502   4.174
18984W        W91398  13.650  37.438   3.234
18985W        W91399   8.899   7.309  10.536
18986W        W91400  43.489   3.295   5.118
18987W        W91401  23.628  31.129   2.889
18988W        W91402  39.039  25.520   4.731
18989W        W91403  19.599  31.047  11.911
18990W        W91404  29.163  15.324  14.368
18991W        W91405  22.683   6.419  12.833
18992W        W91406   7.695  14.225   4.786
18993W        W91407  16.776  29.974  14.008
18994W        W91408  15.799  28.113  11.373
18995W        W91409   7.290   9.675   3.655
18996W        W91410   6.386  25.558   1.722
18997W        W91411  13.214  43.515   1.369
18998W        W91412  20.216   6.364   4.727
18999W        W91413   5.728  40.536   0.403
19000W        W91414   0.474   2.312   2.792
19001W        W91415  12.652  22.547  11.113
19002W        W91416  37.501  17.615   2.225
19003W        W91417  18.076  15.223   2.781
19004W        W91418   2.330  36.960   0.781
19005W        W91419  16.121  13.237  14.334
19006W        W91420  18.729   9.722   0.881
19007W        W91421  41.534  37.073   3.750
19008W        W91422   2.936  41.355   4.170
19009W        W91423  24.996  26.549   1.708
19010W        W91424  21.592  27.644   1.841
19011W        W91425  22.105  32.093   0.830
19012W        W91426   9.375   9.271  14.029
19013W        W91427  29.504  20.039  13.540
19014W        W91428  10.273   2.454  11.976
19015W        W91429   5.320  18.724   2.413
19016W        W91430  27.589  22.741  11.496
19017W        W91431  44.421  15.781  12.515
19018W        W91432  34.929  42.959  13.992
19019W        W91433   6.823  18.567   0.803
19020W        W91434  32.886  41.842   4.275
19021W        W91435  33.535  38.987   1.862
19022W        W91436  31.419   6.822   0.906
19023W        W91437  26.991  19.091  13.430
19024W        W91438  21.209  21.111   9.926
19025W        W91439  30.449  23.987  14.956
19026W        W91440  30.455  31.461  10.594
19027W        W91441  18.164   7.403   0.901
19028W        W91442  22.052  36.942   2.858
19029W        W91443  30.921  43.442  13.433
19030W        W91444   3.257  15.113  13.821
19031W        W91445   6.275   4.930   4.602
19032W        W91446  21.165  44.368  11.052
19033W        W91447  11.320  27.067  12.992
19034W        W91448  27.665   6.703   3.797
19035W        W91449  24.597   5.744   1.369
19036W        W91450  16.630  34.370   3.210
19037W        W91451  44.844  23.683  11.520
19038W        W91452  25.217  30.502   2.227
19039W        W91453  30.552  42.416  11.591
19040W        W91454  23.049  19.667  12.360
19041W        W91455  43.460  26.495  14.458
19042W        W91456  10.792  12.130  12.343
19043W        W91457   6.347  27.560  13.889
19044W        W91458  34.495  32.897   3.750
19045W        W91459  26.990   6.775   2.331
19046W        W91460  30.573   9.876   2.808
19047W        W91461  39.398  42.839  10.598
19048W        W91462  33.968  36.062   3.275
19049W        W91463  38.432  44.824  14.909
19050W        W91464  35.562  39.404   4.652
19051W        W91465  40.368   3.229   2.790
19052W        W91466  26.163  22.996  12.032
19053W        W91467  24.131   6.324   3.693
19054W        W91468  15.797  41.018   0.859
19055W        W91469  40.549   0.924   0.385
19056W        W91470  37.365   0.927   4.752
19057W        W91471  41.793  26.463   3.641
19058W        W91472   3.329  34.465   0.474
19059W        W91473  35.493  34.080   9.495
19060W        W91474  38.943   4.377  14.275
19061W        W91475  31.594  25.196   4.716
19062W        W91476  36.074  40.393   0.360
19063W        W91477  12.287  31.473  14.305
19064W        W91478  24.686  30.513   2.826
19065W        W91479  24.148  33.987  13.063
19066W        W91480  34.384  36.863   0.339
19067W        W91481  14.256   0.852   0.305
19068W        W91482  31.059  10.707  12.495
19069W        W91483  31.928   6.254  11.032
19070W        W91484  10.711  28.026  13.349
19071W        W91485  13.198  38.876   3.347
19072W        W91486  26.533  17.265   3.687
19073W        W91487  13.138   7.735  13.526
19074W        W91488  32.000  10.327   3.744
19075W        W91489  31.947  26.053   0.796
19076W        W91490  29.929  12.744  13.891
19077W        W91491  43.455  11.366   3.764
19078W        W91492  43.866  43.485   4.121
19079W        W91493   4.797  32.985  12.853
19080W        W91494  21.755   0.786  14.887
19081W        W91495  10.327  10.321   2.419
19082W        W91496  30.601  35.936  12.496
19083W        W91497  34.036  19.707   3.631
19084W        W91498   4.377   7.862  12.030
19085W        W91499  28.008  17.646   1.425
19086W        W91500  13.341  19.064  13.815
19087W        W91501  24.668   5.416  14.759
19088W        W91502   6.322  35.395  14.916
19089W        W91503  26.594  36.080   1.215
19090W        W91504   8.359  18.711  11.412
19091W        W91505   3.717  32.553   4.737
19092W        W91506  20.174   7.408  13.489
19093W        W91507   9.172  43.835  13.427
19094W        W91508  44.789  14.183   2.383
19095W        W91509  37.052  21.708  10.906
19096W        W91510  27.145  41.492   1.762
19097W        W91511  19.041   1.752   3.863
19098W        W91512  29.630  24.612   0.315
19099W        W91513  37.445  14.712  14.307
19100W        W91514  21.192  28.003   5.172
19101W        W91515  10.188  39.007  14.336
19102W        W91516   0.809  23.038  11.487
19103W        W91517  19.087  34.894  11.110
19104W        W91518   2.799  14.677  14.836
19105W        W91519   0.833  17.658  13.021
19106W        W91520  41.965  19.538  11.371
19107W        W91521  43.944  43.391  12.371
19108W        W91522   3.824  42.030  12.541
19109W        W91523   5.794  14.278  13.814
19110W        W91524  13.177  39.922   3.380
19111W        W91525  40.368  18.205  11.055
19112W        W91526  40.514  19.767  14.406
19113W        W91527  27.513  11.271  14.767
19114W        W91528  12.800  43.004  10.138
19115W        W91529   5.200  31.459  14.514
19116W        W91530  44.392  32.119  12.523
19117W        W91531  15.083  25.191   1.283
19118W        W91532   1.261  21.163  13.976
19119W        W91533  22.008  11.169   0.414
19120W        W91534  23.178  34.048   2.743
19121W        W91535   9.268   4.282   2.410
19122W        W91536  21.021   9.715  10.520
19123W        W91537  42.449  39.029   1.723
19124W        W91538  18.610   1.828   2.407
19125W        W91539  36.042  34.481   0.888
19126W        W91540   8.829  42.499  11.884
19127W        W91541  14.235   1.243   4.676
19128W        W91542  29.101  26.689   0.444
19129W        W91543  14.250  35.429   4.300
19130W        W91544  40.978  18.771   2.323
19131W        W91545  44.970  19.556  10.492
19132W        W91546  20.559  34.591  12.879
19133W        W91547  43.413  40.864  14.408
19134W        W91548  22.127  16.765  12.060
19135W        W91549  24.533  23.986  11.930
19136W        W91550  22.153  32.399   4.710
19137W        W91551  25.623  23.603  12.871
19138W        W91552  41.788  40.023   1.296
19139W        W91553  40.405  34.001   4.137
19140W        W91554  44.848  11.368   3.346
19141W        W91555  40.496   2.460   0.416
19142W        W91556  41.417   4.262   3.261
19143W        W91557   2.871  43.868  13.845
19144W        W91558  21.224  44.467  11.541
19145W        W91559  19.139  10.867   4.197
19146W        W91560  17.240   9.367   1.806
19147W        W91561  20.580  12.158   1.239
19148W        W91562  36.375   6.683   1.434
19149W        W91563  14.174   7.387  14.962
19150W        W91564  12.710  13.150   2.178
19151W        W91565  43.767  26.571   0.902
19152W        W91566  23.229  11.685   1.750
19153W        W91567  23.095  23.077   1.334
19154W        W91568  20.032  36.094   3.289
19155W        W91569  23.688  14.726  12.092
19156W        W91570  13.630  40.041   3.840
19157W        W91571  11.642  36.894   0.417
19158W        W91572  22.714  32.079  12.388
19159W        W91573  10.803  42.971   4.703
19160W        W91574  17.703  13.240  11.940
19161W        W91575  22.180  17.268  14.409
19162W        W91576  35.940  16.202   4.809
19163W        W91577  31.141  43.378  14.506
19164W        W91578  19.159  35.989  11.375
19165W        W91579  22.082  39.982   1.798
19166W        W91580  43.772  24.139   1.818
19167W        W91581  29.139  40.523   4.177
19168W        W91582  35.027  44.294   0.727
19169W        W91583  25.590   1.359   2.816
19170W        W91584  36.953  30.417  10.487
19171W        W91585  28.680  42.961   2.710
19172W        W91586  25.992   8.771   3.802
19173W        W91587   7.824  43.353  11.542
19174W        W91588  10.745   3.305   1.293
19175W        W91589   0.392  39.962   2.220
19176W        W91590  19.219  25.566   0.937
19177W        W91591   3.273  14.146   1.898
19178W        W91592  37.875   8.334   0.440
19179W        W91593  35.101  21.683   0.865
19180W        W91594   2.882  36.075  13.890
19181W        W91595  44.463   7.803   0.855
19182W        W91596  44.855   2.400   4.634
19183W        W91597  29.446  28.963   0.379
19184W        W91598   1.882   4.936   1.270
19185W        W91599  31.412  44.790   3.841
19186W        W91600  30.440  32.929  12.415
19187W        W91601  40.542  37.425  14.516
19188W        W91602  43.293  34.996  12.449
19189W        W91603  15.589  32.954  12.984
19190W        W91604  37.885  16.251   1.219
19191W        W91605  12.690  16.787   3.291
19192W        W91606  26.167   0.477  12.367
19193W        W91607  22.570  39.939  12.071
19194W        W91608   0.919   6.731  11.081
19195W        W91609  23.120  17.639   4.742
19196W        W91610  32.928  32.102  11.481
19197W        W91611  13.203  15.265   2.757
19198W        W91612  25.543  19.771   2.883
19199W        W91613  17.301  25.999  11.065
19200W        W91614  32.533  27.614   3.380
19201W        W91615   0.409   3.764  11.006
19202W        W91616  20.733   0.389   0.844
19203W        W91617  17.284  21.063  11.567
19204W        W91618  37.016  39.929   4.175
19205W        W91619  17.174  16.620  11.909
19206W        W91620  36.974  43.777   0.957
19207W        W91621   5.298   6.788  14.365
19208W        W91622   8.224  25.166  13.845
19209W        W91623  38.463  29.555   3.804
19210W        W91624  21.210  36.402  13.831
19211W        W91625  44.262  31.912   4.679
19212W        W91626  17.686  24.103   2.768
19213W        W91627   8.387  17.798  13.017
19214W        W91628  19.213  40.036  11.381
19215W        W91629   6.888  43.836  11.507
19216W        W91630  18.296  16.193   2.803
19217W        W91631  13.309  28.183   0.337
19218W        W91632  13.337  32.594   0.428
19219W        W91633  27.446  27.637   3.822
19220W        W91634  18.186  30.083  14.822
19221W        W91635  33.573  43.802   0.280
19222W        W91636   8.274  28.001   3.867
19223W        W91637  32.034  19.735  11.968
19224W        W91638   1.916  18.603   4.161
19225W        W91639  35.000  41.315  13.506
19226W        W91640  44.503  37.889  13.864
19227W        W91641  19.603  39.419  12.853
19228W        W91642   5.215   3.243   0.468
19229W        W91643  14.190  40.376   2.756
19230W        W91644  36.970   1.253   2.229
19231W        W91645  19.186   8.795  13.354
19232W        W91646   0.862  34.512  14.802
19233W        W91647  27.035  32.411  10.890
19234W        W91648  37.069   8.752  11.558
19235W        W91649  28.158  39.440   4.659
19236W        W91650   7.409  12.704  14.314
19237W        W91651   6.326  35.496  11.037
19238W        W91652   7.258   2.943   0.891
19239W        W91653  21.741  30.972  10.937
19240W        W91654  16.720  11.293   1.700
19241W        W91655   9.825   5.233  12.524
19242W        W91656  10.693  26.550  11.969
19243W        W91657  32.551  23.607   2.852
19244W        W91658  12.355  30.137   4.236
19245W        W91659   0.299  10.248   0.352
19246W        W91660  11.687  27.059  11.589
19247W        W91661  34.392  35.403   4.799
19248W        W91662   5.266  27.535  10.900
19249W        W91663  24.973  29.066   1.247
19250W        W91664  27.155   0.933  12.480
19251W        W91665  18.791  37.560   2.209
19252W        W91666   0.923   6.399   2.858
19253W        W91667   4.448  33.044  11.426
19254W        W91668  26.029  31.933   4.778
19255W        W91669  35.933  34.613  10.005
19256W        W91670  44.931  18.687   2.295
19257W        W91671   3.709  25.560  13.868
19258W        W91672   7.385  33.596   2.902
19259W        W91673  28.669  28.636  14.865
19260W        W91674  27.021  34.564  14.415
19261W        W91675  13.311   4.848   4.127
19262W        W91676   5.724  25.013  14.975
19263W        W91677  20.749  35.427   0.467
19264W        W91678  37.016  14.266  10.966
19265W        W91679   2.786  36.087   3.715
19266W        W91680  23.095  15.636  10.046
19267W        W91681  27.494  41.921   2.751
19268W        W91682   4.384  24.073   3.768
19269W        W91683  28.507   7.182   1.312
19270W        W91684  41.935  16.781   3.793
19271W        W91685  10.198  42.778  12.424
19272W        W91686   6.238  33.108   0.342
19273W        W91687  36.921  36.966  13.978
19274W        W91688  28.550  10.372  10.642
19275W        W91689  28.174  26.540   1.831
19276W        W91690  13.760  38.966   1.280
19277W        W91691   4.265  25.494  13.945
19278W        W91692   5.222  28.492   0.949
19279W        W91693   6.214   2.387   3.164
19280W        W91694  28.009  44.901   2.865
19281W        W91695  38.069  13.758   4.720
19282W        W91696  22.534  31.451   1.389
19283W        W91697  13.111  18.725  11.907
19284W        W91698  24.043  42.485   2.210
19285W        W91699  14.261  35.864   2.887
19286W        W91700  12.234  31.567  10.489
19287W        W91701   4.744   0.341   0.326
19288W        W91702  29.502   2.420  13.495
19289W        W91703   4.304  16.151   0.337
19290W        W91704   0.410  30.570   2.221
19291W        W91705  25.546  36.537  12.935
19292W        W91706  39.319   6.785   1.886
19293W        W91707  40.817  38.881   1.268
19294W        W91708  27.489  29.508   0.769
19295W        W91709   8.709  30.918   2.250
19296W        W91710   7.374   0.860  13.991
19297W        W91711  38.990  30.110   4.342
19298W        W91712  31.585  27.514  11.917
19299W        W91713   1.869  37.968   3.274
19300W        W91714  17.623  33.518   2.199
19301W        W91715   6.757  40.313  14.963
19302W        W91716  35.919  25.213   4.616
19303W        W91717  23.020  15.606  12.996
19304W        W91718  22.203  17.069   0.786
19305W        W91719   3.392  25.185  11.081
19306W        W91720  40.888   6.186  12.427
19307W        W91721  39.863  20.525   1.698
19308W        W91722  16.784  34.934  13.542
19309W        W91723  17.183  41.429   2.843
19310W        W91724  10.257  36.886   1.291
19311W        W91725   6.713  21.225  14.920
19312W        W91726  44.321  20.213   0.301
19313W        W91727  25.575   7.337   1.281
19314W        W91728  37.881  12.168   3.371
19315W        W91729  23.063  14.752  12.083
19316W        W91730  41.338  35.452   4.701
19317W        W91731  14.761  33.964  14.491
19318W        W91732   9.879  36.999   0.244
19319W        W91733  12.175   9.312   2.707
19320W        W91734   7.808  16.634  14.903
19321W        W91735  21.100  31.948  13.313
19322W        W91736  28.113   1.739  11.425
19323W        W91737  33.875  36.078  14.973
19324W        W91738   4.750  23.041  13.944
19325W        W91739   1.837  38.894  13.488
19326W        W91740   7.791  24.975  13.856
19327W        W91741   4.424  13.749  11.016
19328W        W91742   3.316  23.579   3.778
19329W        W91743  18.676  23.166  11.015
19330W        W91744  37.391  25.178   4.806
19331W        W91745  25.034   4.223   3.863
19332W        W91746  27.955  17.072  13.915
19333W        W91747  37.842  42.027   2.200
19334W        W91748  24.223   8.862  12.448
19335W        W91749   7.401   4.337   1.335
19336W        W91750   5.303   3.269   2.711
19337W        W91751  31.085  18.742  10.560
19338W        W91752  15.670  23.116   2.839
19339W        W91753  33.077  35.553   3.831
19340W        W91754  44.427  42.427  14.275
19341W        W91755  11.839   7.764  14.388
19342W        W91756  42.350  15.095   3.713
19343W        W91757  25.980  22.664  11.459
19344W        W91758  21.060  24.206  13.373
19345W        W91759   3.951  24.657   4.663
19346W        W91760   0.778  39.489   0.383
19347W        W91761  22.223   0.354   1.236
19348W        W91762  14.660   8.726  11.041
19349W        W91763   6.774  43.018  10.594
19350W        W91764   6.863  20.678  12.931
19351W        W91765  19.166  24.176   2.191
19352W        W91766  11.780  37.541   0.247
19353W        W91767   2.879   6.284   2.344
19354W        W91768   9.821  31.648  12.041
19355W        W91769  34.473  12.259  14.370
19356W        W91770  41.847  32.517  10.589
19357W        W91771   5.370   2.736  13.529
19358W        W91772  22.679  31.134  13.501
19359W        W91773  33.084  22.524   5.793
19360W        W91774  36.559  23.678   1.798
19361W        W91775  42.905  27.135   4.125
19362W        W91776  22.218  10.239  10.622
19363W        W91777  29.046  27.028   3.290
19364W        W91778   4.390  34.960   2.244
19365W        W91779  20.586  23.211  12.076
19366W        W91780  23.497   6.266  11.412
19367W        W91781   4.241  43.977   0.924
19368W        W91782  36.077  33.427   3.650
19369W        W91783  22.156  17.243  10.062
19370W        W91784  12.206   6.742   3.777
19371W        W91785  19.111   8.203   2.826
19372W        W91786  42.909  11.849   1.704
19373W        W91787  13.164   8.355   0.291
19374W        W91788   2.280  10.832  12.921
19375W        W91789  34.381  13.105  14.440
19376W        W91790  43.863  15.159  12.495
19377W        W91791  40.496  33.397  14.028
19378W        W91792  32.403  11.326  13.013
19379W        W91793  38.939  10.833  11.007
19380W        W91794   7.281   0.865  12.950
19381W        W91795   9.714  11.771  14.833
19382W        W91796  11.824  22.117  13.003
19383W        W91797  33.380   7.715  10.972
19384W        W91798   6.836  12.304   1.774
19385W        W91799  19.127  15.754  12.532
19386W        W91800  17.756  26.041   3.790
19387W        W91801  10.260  27.984   3.844
19388W        W91802  19.245  28.566  10.624
19389W        W91803  43.412  32.049   3.179
19390W        W91804  10.761   8.663  13.945
19391W        W91805  26.952  40.393   4.741
19392W        W91806   4.307  25.494   4.355
19393W        W91807  36.435  29.168  12.922
19394W        W91808   8.807   6.221   4.780
19395W        W91809  34.904  32.951  11.923
19396W        W91810  23.639  34.018  14.900
19397W        W91811  38.444  40.974  13.842
19398W        W91812  40.006  13.227   0.409
19399W        W91813  37.065  43.456   2.324
19400W        W91814  10.325  10.324  11.529
19401W        W91815  29.553  20.251  10.532
19402W        W91816  36.591  33.496  11.063
19403W        W91817  23.512  43.843  12.897
19404W        W91818  34.451  19.616  11.917
19405W        W91819  41.899   0.297  10.568
19406W        W91820  32.997  38.563  12.353
19407W        W91821  12.742  39.891  12.450
19408W        W91822  17.783   0.461   5.611
19409W        W91823  30.015  36.055   2.886
19410W        W91824   3.243  20.744   2.824
19411W        W91825  18.655   6.399  11.880
19412W        W91826  39.443   1.787  14.999
19413W        W91827   7.386  24.105  11.458
19414W        W91828  28.542  30.467   4.274
19415W        W91829  14.790  21.653  10.410
19416W        W91830  28.042   5.327  13.953
19417W        W91831  26.591  44.407   3.384
19418W        W91832  17.081   4.429   0.840
19419W        W91833   9.249  39.026  14.021
19420W        W91834  34.113   9.332  13.979
19421W        W91835  24.141  28.003   0.810
19422W        W91836   9.651  33.613  10.498
19423W        W91837  12.855  18.708  12.472
19424W        W91838  32.516  18.056  13.966
19425W        W91839  22.238  11.295  14.344
19426W        W91840  43.513  26.990   0.389
19427W        W91841  13.696  24.588   1.248
19428W        W91842  17.287  22.531   3.147
19429W        W91843  15.601   5.299  14.827
19430W        W91844  41.992  19.136   3.645
19431W        W91845   4.417   5.916   3.684
19432W        W91846  18.271   5.881  14.298
19433W        W91847  37.431  19.605  11.405
19434W        W91848  35.036  26.009   1.837
19435W        W91849  41.946  18.251   3.731
19436W        W91850   4.281  32.952  14.007
19437W        W91851   8.254  15.718   3.357
19438W        W91852  40.434  16.609  12.553
19439W        W91853   9.682   5.895   3.203
19440W        W91854  36.920  31.034   0.899
19441W        W91855  38.532  19.049   2.238
19442W        W91856  34.396   5.400  13.032
19443W        W91857   9.157  36.056   1.358
19444W        W91858  32.127   6.255   1.902
19445W        W91859  35.966  31.479  13.419
19446W        W91860  43.789  22.092  14.867
19447W        W91861  23.009  41.805   4.195
19448W        W91862  24.042  37.568   9.988
19449W        W91863  20.071  41.400   4.787
19450W        W91864   0.757  31.458   3.767
19451W        W91865  37.858  34.996   0.928
19452W        W91866  24.698  18.597   4.113
19453W        W91867  18.243  37.975  11.109
19454W        W91868  33.446  11.237   2.822
19455W        W91869   7.199  42.944   4.212
19456W        W91870  40.818  22.617  14.933
19457W        W91871   3.377  35.418   1.392
19458W        W91872  23.589  26.064   1.711
19459W        W91873  34.868   5.328  13.014
19460W        W91874  20.739  28.671  13.354
19461W        W91875  43.788  20.765  10.631
19462W        W91876  19.095  25.517  13.960
19463W        W91877  14.325  12.154   2.382
19464W        W91878  39.915   9.753   4.598
19465W        W91879  30.120  21.044  12.455
19466W        W91880  36.513  10.283   2.224
19467W        W91881   6.763  30.577  11.970
19468W        W91882  41.846  20.727   2.294
19469W        W91883  24.002   3.825   3.354
19470W        W91884  12.694  10.853  11.082
19471W        W91885  30.014  19.568   3.238
19472W        W91886  32.636   1.760  11.051
19473W        W91887  38.395  36.990   2.289
19474W        W91888  17.217  11.152   3.171
19475W        W91889  30.909  15.290  11.868
19476W        W91890  23.613  18.247  12.030
19477W        W91891  37.086  19.267   3.647
19478W        W91892   0.472  18.124  10.433
19479W        W91893  17.188  32.428  14.928
19480W        W91894  37.351   3.950  11.468
19481W        W91895   3.235  40.852   2.248
19482W        W91896  15.161   6.272   9.573
19483W        W91897  42.284  24.050   2.890
19484W        W91898  21.689  33.426   0.368
19485W        W91899  37.349   9.699  12.856
19486W        W91900  20.203  19.572   5.256
19487W        W91901  34.582  40.438  11.094
19488W        W91902  36.517  14.149  12.469
19489W        W91903  24.488  39.037   0.752
19490W        W91904  37.511  12.189   3.252
19491W        W91905  14.128  25.508   0.367
19492W        W91906   7.673  25.656   1.222
19493W        W91907  25.137  43.996  14.969
19494W        W91908  18.607  30.607   1.742
19495W        W91909  25.101   7.276  10.100
19496W        W91910  14.721  41.297  14.464
19497W        W91911  35.466  34.894  14.796
19498W        W91912  32.037  11.717   2.856
19499W        W91913   1.942  23.059   2.867
19500W        W91914   8.194  43.399   3.355
19501W        W91915  18.279  41.490  14.862
19502W        W91916  25.119  23.209  13.916
19503W        W91917  18.560  41.400  11.380
19504W        W91918  22.251  39.405  13.315
19505W        W91919  41.303  19.079   2.276
19506W        W91920  37.432  15.651  12.364
19507W        W91921  43.866  31.981  14.473
19508W        W91922  36.352  44.486   4.761
19509W        W91923  35.450  29.986   4.344
19510W        W91924  42.970  43.873  12.064
19511W        W91925   1.389   2.788   0.818
19512W        W91926  16.591  44.379  11.093
19513W        W91927  27.943  19.698  10.545
19514W        W91928  20.700  39.028   0.402
19515W        W91929  11.213  11.371  14.929
19516W        W91930   4.833  31.561  10.149
19517W        W91931  16.213  28.491  14.400
19518W        W91932  18.769  26.977  14.916
19519W        W91933  23.514  41.317  12.927
19520W        W91934   3.240   2.769   0.808
19521W        W91935   2.935  44.424  12.344
19522W        W91936  13.678  33.079  10.411
19523W        W91937  22.234  14.134  13.400
19524W        W91938  15.100  25.669  11.502
19525W        W91939  14.260  30.563  10.625
19526W        W91940   4.748  22.214   3.789
19527W        W91941  32.516  21.718  13.903
19528W        W91942  21.054  38.424   0.404
19529W        W91943  24.670  30.416   4.297
19530W        W91944   6.357  14.647  12.988
19531W        W91945  23.030   3.433   4.617
19532W        W91946  25.074  23.591  13.925
19533W        W91947  37.573   3.437   1.910
19534W        W91948  24.719  31.544  11.090
19535W        W91949  27.632  25.171  12.537
19536W        W91950  42.354  43.876   3.649
19537W        W91951  37.378  15.590   1.702
19538W        W91952  44.433  20.098  14.000
19539W        W91953   0.830   0.284   2.885
19540W        W91954  38.033  17.156  12.467
19541W        W91955  22.606  32.114  13.845
19542W        W91956  44.370  26.073   3.757
19543W        W91957  38.425  26.501  14.309
19544W        W91958  38.886  41.944   1.386
19545W        W91959  27.186  23.558  10.455
19546W        W91960   3.229   8.301  11.020
19547W        W91961  12.671  21.575   1.409
19548W        W91962  11.220  29.582   4.745
19549W        W91963  33.949  23.037   9.444
19550W        W91964  40.450   2.851   3.753
19551W        W91965   0.389  38.462   1.385
19552W        W91966  12.248  30.925   3.765
19553W        W91967  14.782   2.795  14.428
19554W        W91968  15.193  40.036   3.256
19555W        W91969  38.999  38.533  11.968
19556W        W91970  40.366   1.762   2.250
19557W        W91971  24.160   9.183   1.736
19558W        W91972  10.772  41.464  11.020
19559W        W91973   5.239  25.552  13.366
19560W        W91974  25.693  17.624  10.942
19561W        W91975  34.448   9.833  14.848
19562W        W91976  32.936  10.154  13.923
19563W        W91977  38.445  20.108  13.483
19564W        W91978  43.313  10.250  14.303
19565W        W91979   4.404  17.100   0.399
19566W        W91980   9.343  23.549  12.828
19567W        W91981  19.740  18.573  12.864
19568W        W91982  16.260   1.432   0.338
19569W        W91983  29.460  34.984  12.506
19570W        W91984   8.224   1.287  10.519
19571W        W91985  33.382   9.248   4.632
19572W        W91986  26.981  10.811  13.356
19573W        W91987  27.671  17.787  12.867
19574W        W91988  42.482  34.098   0.947
19575W        W91989  21.169  10.677   2.219
19576W        W91990  35.073  30.602   0.245
19577W        W91991   6.350  29.126   2.294
19578W        W91992  18.751   3.921   4.310
19579W        W91993  12.340   8.784   0.923
19580W        W91994   4.442   5.258   0.923
19581W        W91995  25.083  18.587   3.867
19582W        W91996  10.348  13.754  14.759
19583W        W91997   9.883   3.721   4.705
19584W        W91998  15.295  20.247  11.396
19585W        W91999  37.426   6.347  10.574
19586W        W92000  18.649  29.992  12.015
19587W        W92001  38.330   9.288   2.280
19588W        W92002  23.179  13.718   3.871
19589W        W92003  11.209   9.209  13.893
19590W        W92004   4.225   4.747   3.175
19591W        W92005  26.541  18.725   2.837
19592W        W92006   1.294  39.321  10.421
19593W        W92007  33.453   5.305   1.257
19594W        W92008  39.983  31.516   3.181
19595W        W92009   2.424   0.309   2.270
19596W        W92010  16.244  31.126   3.266
19597W        W92011  41.900  25.566   1.332
19598W        W92012   3.243   5.389  12.427
19599W        W92013  24.127   8.310   0.757
19600W        W92014  37.358  27.453   4.793
19601W        W92015  33.418  39.426  13.853
19602W        W92016  14.713  33.469   2.711
19603W        W92017  36.964  37.935   4.616
19604W        W92018  40.887  27.006   0.415
19605W        W92019   8.203  35.949  11.080
19606W        W92020  39.363  16.224   1.750
19607W        W92021  31.421  25.473  11.077
19608W        W92022  16.132  31.969   2.901
19609W        W92023   1.279  20.228   0.942
19610W        W92024  31.097  26.687  14.415
19611W        W92025  20.583  33.956  11.893
19612W        W92026  40.454  12.695  11.405
19613W        W92027  17.589  18.246  13.985
19614W        W92028  36.933  33.942  12.026
19615W        W92029  27.672  23.187   2.392
19616W        W92030  33.074   4.361   2.757
19617W        W92031   1.330   4.835   2.883
19618W        W92032   4.885  37.931   0.796
19619W        W92033  12.832  21.239   2.693
19620W        W92034   4.337  14.631   5.113
19621W        W92035  12.684  42.379  11.400
19622W        W92036  44.448  35.584   1.268
19623W        W92037  27.956   8.205   0.826
19624W        W92038  32.483  44.277  14.302
19625W        W92039  43.978  32.052   1.909
19626W        W92040  44.841   9.159  11.605
19627W        W92041  42.289  16.196   0.726
19628W        W92042   7.863  15.741   3.385
19629W        W92043   9.835  40.026   3.833
19630W        W92044   8.216  33.071  13.026
19631W        W92045  42.866  11.139   1.724
19632W        W92046  18.599  10.210  10.139
19633W        W92047  11.293   3.727   2.671
19634W        W92048  23.624   3.293  11.501
19635W        W92049  27.198  29.024  14.990
19636W        W92050  11.730  31.932   3.702
19637W        W92051  19.654  15.276  13.882
19638W        W92052  37.415  17.176   2.687
19639W        W92053  41.873  43.340   0.950
19640W        W92054  36.867  11.679   2.704
19641W        W92055  37.364  29.986  12.577
19642W        W92056  40.321  12.212   2.743
19643W        W92057  22.651  17.287   1.890
19644W        W92058  31.446  33.965  13.920
19645W        W92059   2.871  29.548  14.419
19646W        W92060  23.656  27.995   2.178
19647W        W92061   6.836  12.126   0.759
19648W        W92062  38.989  26.556   2.873
19649W        W92063   6.797  43.794   3.231
19650W        W92064  24.577  42.958  11.475
19651W        W92065  12.774  41.998  11.028
19652W        W92066  22.118   2.941   4.765
19653W        W92067  18.272  37.441   3.162
19654W        W92068  38.559  22.707  12.554
19655W        W92069  26.112   7.219  11.495
19656W        W92070  10.181  24.999   0.243
19657W        W92071  35.481  21.055   2.279
19658W        W92072  16.281  17.767  10.059
19659W        W92073   1.922  11.158  12.369
19660W        W92074   3.944  21.199  12.473
19661W        W92075  18.180   8.287   2.674
19662W        W92076  33.906  39.541  11.437
19663W        W92077  38.503  28.470   4.253
19664W        W92078   2.310   6.869  12.342
19665W        W92079   0.950  41.492   2.352
19666W        W92080  14.233  12.200  13.993
19667W        W92081  28.129  34.487   3.808
19668W        W92082  13.816   2.786  12.947
19669W        W92083  39.349  11.146  14.497
19670W        W92084  31.922  20.651   1.904
19671W        W92085  23.503  14.129   4.256
19672W        W92086  43.990   2.817  10.629
19673W        W92087  22.546  36.494   4.192
19674W        W92088  28.171   9.317  12.556
19675W        W92089  34.939  34.395  11.948
19676W        W92090  20.126  29.116  13.939
19677W        W92091  12.362  19.585  10.415
19678W        W92092  23.554  40.046   3.360
19679W        W92093   3.450  35.925   4.234
19680W        W92094   6.917  36.096   1.430
19681W        W92095  23.561  21.561  11.499
19682W        W92096  34.932   5.334   1.750
19683W        W92097  14.645   6.830  14.999
19684W        W92098  26.477   6.191  11.064
19685W        W92099  15.700  40.028  12.364
19686W        W92100  36.584   7.314   0.890
19687W        W92101  22.084  28.020   4.716
19688W        W92102  39.469  41.500  13.502
19689W        W92103  42.306  42.452   1.445
19690W        W92104  20.709   8.188   2.342
19691W        W92105  11.143  20.591  12.864
19692W        W92106  19.244   5.758  13.499
19693W        W92107  12.769  37.831   2.218
19694W        W92108   4.858  25.194   1.286
19695W        W92109   8.808  11.249  11.902
19696W        W92110  27.993  31.474  14.918
19697W        W92111  36.953  25.174  13.868
19698W        W92112  16.196  40.003   0.446
19699W        W92113  37.336   3.875   0.949
19700W        W92114  34.968  12.649  12.548
19701W        W92115   3.894  25.581   1.266
19702W        W92116  12.616  29.084   0.450
19703W        W92117  25.065  37.524   2.413
19704W        W92118  19.084   7.261   3.745
19705W        W92119  35.936  22.642  13.464
19706W        W92120  15.136  23.019  13.497
19707W        W92121  13.816  39.953  12.437
19708W        W92122  10.770   6.720  11.958
19709W        W92123  11.362   4.290   3.797
19710W        W92124  10.256  13.134   3.805
19711W        W92125  31.505  13.679   1.226
19712W        W92126  34.082  19.653   4.635
19713W        W92127   1.961   4.906   0.746
19714W        W92128  16.592  41.980   1.895
19715W        W92129  28.994  19.670   4.655
19716W        W92130  43.434  24.165   2.691
19717W        W92131  38.468  35.905   1.372
19718W        W92132  33.400  35.550   4.656
19719W        W92133  19.636  44.294   2.875
19720W        W92134  12.132   8.322  14.417
19721W        W92135  26.993  14.721   0.365
19722W        W92136  33.946  35.522   2.390
19723W        W92137  38.864   6.765  11.997
19724W        W92138   3.245  10.820   4.330
19725W        W92139  43.930  39.879  12.352
19726W        W92140  10.146   3.295   1.349
19727W        W92141  30.919  22.606  12.448
19728W        W92142  34.896  18.281   4.622
19729W        W92143   6.689  33.406   0.269
19730W        W92144  18.086   8.824   4.299
19731W        W92145  10.369  39.838  11.057
19732W        W92146  18.197   4.903   1.383
19733W        W92147  22.125   3.780   1.287
19734W        W92148  29.972  38.356  14.968
19735W        W92149  18.653  35.083   0.781
19736W        W92150  10.834  27.522  12.094
19737W        W92151  32.469  12.147   4.234
19738W        W92152  39.911  17.756  11.899
19739W        W92153  23.504  12.782   2.878
19740W        W92154   6.282   5.895  10.952
19741W        W92155  26.097   4.741   4.224
19742W        W92156  13.193  19.202  14.509
19743W        W92157   8.399  24.225   2.216
19744W        W92158   5.204  12.733  12.861
19745W        W92159  35.979   1.333  14.437
19746W        W92160   6.827  11.268   4.708
19747W        W92161  15.743  42.391   0.901
19748W        W92162  23.205   7.744  12.857
19749W        W92163  12.193  40.479   2.382
19750W        W92164  33.463   2.325   1.703
19751W        W92165   9.287   8.710  13.310
19752W        W92166  29.951  11.255   2.320
19753W        W92167  10.761  36.981   2.293
19754W        W92168  34.377  14.622   4.219
19755W        W92169  10.165   3.386  12.434
19756W        W92170  25.056  15.588   5.248
19757W        W92171   8.221  29.480  11.103
19758W        W92172  32.961  36.008  14.853
19759W        W92173  15.182  14.152   0.856
19760W        W92174   8.312   3.777  11.863
19761W        W92175   4.782  12.194  11.960
19762W        W92176  10.253   3.765  11.903
19763W        W92177  24.635  26.565  11.863
19764W        W92178  26.183  17.297   1.707
19765W        W92179   3.250  25.156  14.389
19766W        W92180  24.151  43.865   4.805
19767W        W92181  10.377  36.490   4.615
19768W        W92182  26.640  15.651  13.496
19769W        W92183   4.401  30.064  14.807
19770W        W92184  30.922   2.360  14.371
19771W        W92185   1.779  19.750  12.863
19772W        W92186  19.209   1.467   2.189
19773W        W92187   1.885  20.583  10.989
19774W        W92188  11.236  21.076  13.061
19775W        W92189   9.678  38.881  14.407
19776W        W92190   0.860  10.768  10.987
19777W        W92191   4.753  10.268  13.924
19778W        W92192  26.558  21.073   3.766
19779W        W92193  42.856  24.983   4.251
19780W        W92194  34.564  11.687   3.312
19781W        W92195   7.770  17.671   0.834
19782W        W92196  26.192  12.360   4.800
19783W        W92197   4.849  40.445  13.888
19784W        W92198   2.349  11.667   0.833
19785W        W92199  38.950  30.013   0.857
19786W        W92200  21.563   6.422  13.953
19787W        W92201  20.699  17.125  13.542
19788W        W92202  42.969  10.336  13.342
19789W        W92203  30.030  25.485  12.905
19790W        W92204  24.174  13.115   2.216
19791W        W92205  32.506  39.328  11.612
19792W        W92206   7.362  38.985   2.870
19793W        W92207   5.316  36.090   0.318
19794W        W92208  44.909  16.573  12.852
19795W        W92209  38.387   6.782  12.429
19796W        W92210  25.534   6.263  10.959
19797W        W92211  34.555   5.811  13.531
19798W        W92212  17.127  39.995  10.977
19799W        W92213  16.741  38.896   3.847
19800W        W92214  12.117   8.892   2.228
19801W        W92215  29.642  15.637  13.376
19802W        W92216  31.940  30.613  11.921
19803W        W92217   3.365   5.722  13.839
19804W        W92218  33.529   6.783  12.506
19805W        W92219  41.467  39.885   0.927
19806W        W92220  30.909  30.997   3.721
19807W        W92221  24.575  11.733  10.613
19808W        W92222  17.206  11.728   3.801
19809W        W92223  41.498  23.645  12.846
19810W        W92224  44.362  23.221   3.721
19811W        W92225  18.761  44.825   0.336
19812W        W92226  18.224  14.327  11.469
19813W        W92227  24.988   5.344  14.427
19814W        W92228   6.808  26.139   4.691
19815W        W92229  15.232  15.804  14.884
19816W        W92230  33.875  19.242  11.857
19817W        W92231  12.740  37.489   2.703
19818W        W92232  29.506  21.123   4.316
19819W        W92233  19.574  44.923  11.002
19820W        W92234   6.321   4.388  10.629
19821W        W92235  42.426   1.420   0.329
19822W        W92236  36.092  21.190   3.804
19823W        W92237  42.283  26.957  14.827
19824W        W92238   0.316  22.614  14.872
19825W        W92239   0.278  15.636  14.282
19826W        W92240  44.921  38.928  13.541
19827W        W92241  26.047  40.370   4.231
19828W        W92242  10.209  23.041   4.269
19829W        W92243  34.504  34.478   1.407
19830W        W92244   5.739  26.014  14.467
19831W        W92245  10.301  26.059  13.887
19832W        W92246  31.151  30.125   3.265
19833W        W92247  20.144  41.470  11.990
19834W        W92248  21.038   6.314   4.726
19835W        W92249  23.675  20.555   0.433
19836W        W92250  22.122  39.958   4.117
19837W        W92251  12.648  13.233  14.280
19838W        W92252  21.536   4.316   2.224
19839W        W92253  37.914  37.444  10.091
19840W        W92254  35.432  14.778  14.493
19841W        W92255   1.808   3.433   1.451
19842W        W92256  33.586   1.909  14.890
19843W        W92257   4.361  44.361  14.419
19844W        W92258  31.942  12.817  14.502
19845W        W92259  31.503  15.312   0.482
19846W        W92260   0.423  19.070  13.978
19847W        W92261  32.944  19.122  12.340
19848W        W92262  33.052  13.254   2.191
19849W        W92263  26.659  34.601  13.535
19850W        W92264   7.675  37.949  13.486
19851W        W92265  25.138  32.617   4.318
19852W        W92266  39.975  32.392  12.519
19853W        W92267  21.725   3.922  11.507
19854W        W92268  11.177   7.301  13.032
19855W        W92269  30.495  20.187   1.757
19856W        W92270  17.783  22.046  13.047
19857W        W92271  28.595  42.513   3.751
19858W        W92272  24.581   9.277  14.417
19859W        W92273  43.496  22.144   4.264
19860W        W92274  23.517  27.127  13.459
19861W        W92275  13.245  15.736   1.877
19862W        W92276   2.817  17.246  10.596
19863W        W92277  30.625  37.409  13.330
19864W        W92278  42.878  14.328  14.479
19865W        W92279  13.712  28.478   0.873
19866W        W92280  36.064  23.051   1.238
19867W        W92281  20.525   4.820  14.467
19868W        W92282   2.898  13.694  10.430
19869W        W92283  29.093  33.976   1.389
19870W        W92284  34.395  32.946   3.340
19871W        W92285  22.575   0.382  13.927
19872W        W92286  19.715   5.236  13.811
19873W        W92287   5.292  36.547  11.124
19874W        W92288  42.934  15.292  13.882
19875W        W92289  38.039  34.562  12.946
19876W        W92290  42.999  24.024  11.071
19877W        W92291  33.564   3.320  14.485
19878W        W92292  10.321  12.309  14.844
19879W        W92293  12.663  26.535  11.892
19880W        W92294  38.002  12.698  14.778
19881W        W92295   6.699  11.677   2.809
19882W        W92296   0.380  20.623   4.822
19883W        W92297   9.375  16.300  12.345
19884W        W92298  23.532  12.700  14.760
19885W        W92299  38.391  28.631  12.031
19886W        W92300  17.154  43.368  10.488
19887W        W92301   4.759  17.739   3.746
19888W        W92302   2.817  13.841   3.339
19889W        W92303  10.758  36.586  14.431
19890W        W92304  33.591  28.164   3.849
19891W        W92305  44.330  41.361   3.756
19892W        W92306  26.695  29.629   5.219
19893W        W92307   2.809  34.503   0.854
19894W        W92308  29.585  37.901  10.437
19895W        W92309  38.497  34.106  10.449
19896W        W92310   9.280  23.717   1.371
19897W        W92311  37.378  34.949   5.776
19898W        W92312  10.780  37.059  10.986
19899W        W92313   3.412   0.966   3.352
19900W        W92314  32.094  28.525  13.957
19901W        W92315  36.887  21.646  13.520
19902W        W92316  29.033  31.100   1.719
19903W        W92317  44.818  23.993   2.328
19904W        W92318  15.663  22.248  12.374
19905W        W92319   8.378  42.019   2.708
19906W        W92320  31.483  42.890   4.209
19907W        W92321  32.522  28.522   0.861
19908W        W92322  21.717  13.751  14.506
19909W        W92323   3.279  41.336   2.349
19910W        W92324  12.334  38.046  14.795
19911W        W92325  12.645   5.884  12.380
19912W        W92326   9.274  10.878   4.663
19913W        W92327  42.841  30.464  12.385
19914W        W92328  29.018  16.116   3.370
19915W        W92329  18.636   8.730   1.302
19916W        W92330  30.088  44.449  13.444
19917W        W92331  12.753   7.909  14.843
19918W        W92332  40.395   7.300   2.215
19919W        W92333  44.365  13.253   3.304
19920W        W92334  19.282   2.287  14.847
19921W        W92335  21.190  10.689   4.316
19922W        W92336  32.898  14.135   0.824
19923W        W92337   8.847  12.187   4.323
19924W        W92338  13.805  11.808  10.933
19925W        W92339  17.583   6.355  12.904
19926W        W92340  35.948   5.781  10.908
19927W        W92341  33.913  21.550  14.327
19928W        W92342   1.458  27.471  14.498
19929W        W92343  13.316  37.931  12.831
19930W        W92344  13.248   5.248  14.449
19931W        W92345  32.539  30.056   1.695
19932W        W92346   2.387  19.064   4.782
19933W        W92347  23.500   2.961  11.517
19934W        W92348  41.535  15.684   3.311
19935W        W92349  34.583  30.061   1.344
19936W        W92350  23.162   9.158   1.393
19937W        W92351  44.295  16.680  12.053
19938W        W92352  27.100  18.111   2.898
19939W        W92353  39.968  14.109  14.494
19940W        W92354   5.821  12.725  13.509
19941W        W92355  37.457  34.501   2.311
19942W        W92356  32.002  15.736  12.517
19943W        W92357  23.131  34.908   3.801
19944W        W92358  11.684  42.975   3.272
19945W        W92359  15.728  32.584  10.551
19946W        W92360  44.284  13.626   0.368
19947W        W92361   3.774  27.578   3.746
19948W        W92362   1.758  18.199   0.292
19949W        W92363  37.900  38.515   0.332
19950W        W92364  19.750  37.437   0.851
19951W        W92365  20.768  22.086   1.219
19952W        W92366  27.000  38.349  10.485
19953W        W92367  43.799  37.924  10.994
19954W        W92368  20.124  17.738   3.253
19955W        W92369  35.603  19.139  11.866
19956W        W92370  18.206  25.706   1.760
19957W        W92371  41.905   2.774  14.773
19958W        W92372  32.019  30.515  11.021
19959W        W92373  38.827  14.737   1.896
19960W        W92374  20.599  35.953   0.965
19961W        W92375  25.583  35.965  14.765
19962W        W92376  13.292  35.035   5.206
19963W        W92377  13.342  27.543  14.006
19964W        W92378   8.852  13.651  10.555
19965W        W92379  37.037   2.911  13.390
19966W        W92380   7.223  37.029   4.200
19967W        W92381   8.823  41.524   2.311
19968W        W92382  34.436   8.372   3.785
19969W        W92383   6.889   4.897  12.515
19970W        W92384  17.206  21.617   1.414
19971W        W92385  30.024  21.604  13.361
19972W        W92386  31.445  33.593  13.991
19973W        W92387  39.009  35.547   0.948
19974W        W92388   1.293  31.630  11.542
19975W        W92389  35.022  30.038  11.558
19976W        W92390  16.235  25.650  14.922
19977W        W92391   4.431  29.571  11.109
19978W        W92392  40.028  28.156   3.374
19979W        W92393  12.823  36.445  11.929
19980W        W92394  13.752   7.365   4.176
19981W        W92395  35.501   9.875  11.922
19982W        W92396  35.995  26.653   4.673
19983W        W92397  42.978  32.636   2.213
19984W        W92398  32.132  22.648   5.278
19985W        W92399  22.514  35.942  13.470
19986W        W92400   1.398  29.544  14.458
19987W        W92401   9.806   8.761  11.882
19988W        W92402  43.406   1.251  11.937
19989W        W92403  24.718  25.548  13.546
19990W        W92404  42.355  27.515   4.741
19991W        W92405  20.157  15.236  14.808
19992W        W92406  31.939  26.546  13.820
19993W        W92407  26.207  30.437  11.903
19994W        W92408  15.786  42.986  14.814
19995W        W92409  40.899  34.099   3.686
19996W        W92410  43.505   8.788  11.509
19997W        W92411  14.703  33.398  11.576
19998W        W92412  16.705  36.849   1.305
19999W        W92413   0.468  36.583   4.262
20000W        W92414  11.246  21.555   0.928
20001W        W92415  26.508  10.841  10.922
20002W        W92416  32.057  35.408   2.858
20003W        W92417  43.001  20.658   3.685
20004W        W92418  14.301   0.492   2.225
20005W        W92419  24.132  23.028   3.178
20006W        W92420  26.541  13.109   3.275
20007W        W92421  43.933  34.377  11.447
20008W        W92422  11.253  26.663  13.414
20009W        W92423  40.345   3.443  11.596
20010W        W92424  28.639   9.153  10.916
20011W        W92425  19.271  15.762   1.863
20012W        W92426  37.048  15.733   1.743
20013W        W92427   4.244  17.637  12.015
20014W        W92428  38.372  39.043   0.908
20015W        W92429   5.769  42.010   5.602
20016W        W92430  35.977  24.558   3.664
20017W        W92431  16.158   2.336  14.488
20018W        W92432  19.659  23.224  10.528
20019W        W92433  22.176  14.213   3.356
20020W        W92434  13.634  22.235  10.448
20021W        W92435  36.553  35.926   4.756
20022W        W92436  38.393  37.429   2.875
20023W        W92437   4.263  22.021  12.534
20024W        W92438  33.881  25.017   0.904
20025W        W92439  27.986  20.031   5.256
20026W        W92440  30.161  37.003  14.967
20027W        W92441  12.830  41.807  12.367
20028W        W92442  31.488  36.393  12.452
20029W        W92443  26.039   6.380  13.453
20030W        W92444  24.687  12.685   2.192
20031W        W92445  26.115  11.635  12.838
20032W        W92446  38.990  14.170   5.084
20033W        W92447  44.476  40.491   3.697
20034W        W92448  11.708  13.187  13.838
20035W        W92449  34.866   8.894  10.446
20036W        W92450   6.758   8.397   3.733
20037W        W92451   8.796  44.817   0.819
20038W        W92452   1.323  13.158  12.462
20039W        W92453   1.886  42.788   1.931
20040W        W92454  43.948  33.955  13.049
20041W        W92455   2.421   0.761  14.793
20042W        W92456  22.515  29.094  13.366
20043W        W92457  14.210  21.574   1.213
20044W        W92458   1.304  19.570   1.735
20045W        W92459  13.645  12.661  11.869
20046W        W92460  21.123  20.157   2.262
20047W        W92461   0.366  44.004   0.365
20048W        W92462  31.999  18.279  10.006
20049W        W92463  31.620  25.499   3.333
20050W        W92464   0.956  38.070  11.513
20051W        W92465  34.463  34.959  12.029
20052W        W92466  12.806   6.236  14.296
20053W        W92467  42.970   2.455   3.761
20054W        W92468  23.611  13.736  12.941
20055W        W92469  13.280  35.604   4.636
20056W        W92470  36.011  39.991   0.762
20057W        W92471  32.963  22.614  12.348
20058W        W92472  31.926  21.115   0.369
20059W        W92473  37.051  23.535  12.487
20060W        W92474  30.947  26.486  10.522
20061W        W92475  32.511   5.398   0.389
20062W        W92476   9.700   6.836  12.898
20063W        W92477  35.405  13.697   3.716
20064W        W92478  21.058  27.638   1.216
20065W        W92479  16.690  11.633  10.931
20066W        W92480   5.829  40.440  10.455
20067W        W92481  20.720  32.047   5.313
20068W        W92482  29.970  14.692  11.548
20069W        W92483  12.320  27.451   4.829
20070W        W92484  43.399  10.829   2.832
20071W        W92485   4.411  13.149   5.148
20072W        W92486   5.779  30.550  12.341
20073W        W92487  10.839  23.192  10.946
20074W        W92488  44.273  42.510   2.191
20075W        W92489   4.312  38.566  11.591
20076W        W92490  40.051  20.739  10.549
20077W        W92491  26.607   4.718  10.639
20078W        W92492  19.274   2.273   4.294
20079W        W92493  13.144  16.595  14.789
20080W        W92494  38.483  21.695   2.224
20081W        W92495  30.501   0.327   3.176
20082W        W92496  34.434  42.389  10.998
20083W        W92497   5.283  42.892   1.865
20084W        W92498  11.706   7.811  11.085
20085W        W92499  44.838  38.326  15.000
20086W        W92500  37.421  35.921   2.792
20087W        W92501  33.521   5.304   0.244
20088W        W92502  39.415  28.932  13.954
20089W        W92503  12.643  38.351   3.662
20090W        W92504  35.951   0.755   4.346
20091W        W92505  40.522  34.505  11.102
20092W        W92506   2.234  16.625  10.465
20093W        W92507  41.462  28.991  13.970
20094W        W92508   5.798   0.790   1.310
20095W        W92509  26.551  42.423   2.772
20096W        W92510   8.888  31.464   3.206
20097W        W92511   9.284  20.608  14.776
20098W        W92512  37.929  12.845   5.247
20099W        W92513  44.375  18.164   1.834
20100W        W92514  40.828  28.962  10.516
20101W        W92515  15.122  26.199  11.927
20102W        W92516   7.843  36.025   1.231
20103W        W92517   6.428   9.742  12.995
20104W        W92518   4.432   4.889   4.161
20105W        W92519  43.398  21.646   1.802
20106W        W92520  29.456  16.701   1.786
20107W        W92521  39.361  29.604  11.953
20108W        W92522  18.631   0.257   0.839
20109W        W92523  18.657  34.109   4.344
20110W        W92524  21.627   2.823  12.434
20111W        W92525  31.080  18.648  14.471
20112W        W92526  20.767  19.544  14.420
20113W        W92527  44.872  26.520   2.724
20114W        W92528  32.044  31.109   2.744
20115W        W92529   5.720   5.881  13.919
20116W        W92530  38.501  37.572  14.336
20117W        W92531   0.876  34.965   0.242
20118W        W92532  14.326  15.615  12.537
20119W        W92533  14.177  24.657   4.234
20120W        W92534  21.663  12.227   4.775
20121W        W92535  31.115  20.537   4.671
20122W        W92536  40.514  22.025   1.920
20123W        W92537  33.594   3.337   3.727
20124W        W92538  41.423   3.942   4.627
20125W        W92539   5.434  34.004   4.236
20126W        W92540   8.350  33.512  14.816
20127W        W92541  29.534   2.832  11.435
20128W        W92542  32.534  17.728   1.351
20129W        W92543  26.541  28.636   0.317
20130W        W92544  17.579  37.506   0.753
20131W        W92545  33.108  26.599  11.097
20132W        W92546  26.012  21.080  12.506
20133W        W92547  24.024  30.066   0.465
20134W        W92548  42.480   6.725   4.713
20135W        W92549  43.774  19.090  14.023
20136W        W92550  10.672   8.168   4.256
20137W        W92551  20.151  29.154   4.149
20138W        W92552  36.030  41.876  14.441
20139W        W92553  31.465  41.803   3.786
20140W        W92554  43.967  19.209   0.397
20141W        W92555  12.629  25.689  11.091
20142W        W92556  33.087   9.246  13.548
20143W        W92557  28.544  35.458  10.565
20144W        W92558  37.068   4.439   4.802
20145W        W92559   2.851  19.115   2.266
20146W        W92560  15.154   5.742   9.456
20147W        W92561  30.648  15.781  14.981
20148W        W92562  32.596  34.588   1.351
20149W        W92563  25.490  42.881   5.180
20150W        W92564  11.640   3.430   4.211
20151W        W92565  38.394  43.438  14.284
20152W        W92566  21.583  17.158   2.412
20153W        W92567   3.456   6.395  13.830
20154W        W92568  21.714  30.546   0.764
20155W        W92569  44.875  13.340  13.412
20156W        W92570  43.002  25.661  14.003
20157W        W92571   2.837  44.378   3.276
20158W        W92572  35.053  22.098   9.938
20159W        W92573  15.319  22.509   1.722
20160W        W92574  41.532  36.371  11.933
20161W        W92575   5.195  19.081   4.335
20162W        W92576   2.857  17.270  12.908
20163W        W92577  29.660  42.930   5.112
20164W        W92578  10.633  14.271   4.120
20165W        W92579  37.982  43.331   2.883
20166W        W92580  41.038  32.432   0.351
20167W        W92581  18.097  18.781  12.339
20168W        W92582   0.287  12.673  12.467
20169W        W92583  37.018   0.788  11.412
20170W        W92584  41.997   3.333  13.951
20171W        W92585  32.540  39.826  14.897
20172W        W92586  39.826  38.944   2.352
20173W        W92587  25.686  18.070   9.453
20174W        W92588   6.349  22.590   2.792
20175W        W92589  39.355  42.525   0.455
20176W        W92590  16.215  10.337   4.628
20177W        W92591  26.066  14.588  13.791
20178W        W92592  15.726  14.710  13.454
20179W        W92593  11.698  21.034  13.060
20180W        W92594   8.240   3.266   3.768
20181W        W92595  35.380  21.124   3.206
20182W        W92596  13.128  17.741   5.640
20183W        W92597  20.602  38.538   3.653
20184W        W92598  11.131  42.514   1.881
20185W        W92599  35.456  19.054  11.073
20186W        W92600  23.202  40.990  15.000
20187W        W92601   3.839  22.555   4.655
20188W        W92602  43.881  37.879   3.666
20189W        W92603  42.025  11.627  10.125
20190W        W92604  40.958   4.281  12.022
20191W        W92605   4.345  11.245  14.502
20192W        W92606  11.671  31.152   0.365
20193W        W92607  12.353  21.163   1.831
20194W        W92608  33.545  33.473   0.413
20195W        W92609  39.497  35.078  10.549
20196W        W92610  35.411  11.288   2.322
20197W        W92611  34.961  27.600   4.821
20198W        W92612  41.820  32.540  14.398
20199W        W92613  12.141  16.644  14.287
20200W        W92614  25.486  42.854  12.520
20201W        W92615  39.378  29.594   3.326
20202W        W92616  10.355  35.976   1.735
20203W        W92617  35.922   7.789  13.374
20204W        W92618  34.428  39.462   4.656
20205W        W92619  16.290  19.090   3.833
20206W        W92620  41.861  30.009   2.883
20207W        W92621  15.271  31.906  13.543
20208W        W92622   5.376  15.102  12.382
20209W        W92623   3.725  14.795  14.284
20210W        W92624  26.664  40.940   0.935
20211W        W92625  42.003  39.981  14.870
20212W        W92626  13.670  37.980   3.181
20213W        W92627  17.189  19.208   5.311
20214W        W92628   8.239  28.448  11.879
20215W        W92629  13.655   1.817   1.233
20216W        W92630  21.694  41.837   4.195
20217W        W92631  17.207  28.605  12.371
20218W        W92632  16.795   3.333   4.174
20219W        W92633  28.624   6.397  12.973
20220W        W92634  12.321   6.339  10.903
20221W        W92635  27.016  14.600  11.930
20222W        W92636  15.688   7.780   2.388
20223W        W92637   2.874  31.426   4.325
20224W        W92638  36.370  39.882   1.700
20225W        W92639   1.891  30.946   4.319
20226W        W92640  41.325  37.495   2.728
20227W        W92641  38.415  41.458   1.920
20228W        W92642  19.734  12.659   3.682
20229W        W92643   2.723   7.896   4.673
20230W        W92644   7.189  20.651  14.308
20231W        W92645  28.607  16.720   0.736
20232W        W92646  23.192  25.114  12.532
20233W        W92647   3.720  35.539  13.909
20234W        W92648   6.819  39.056   1.401
20235W        W92649  11.246  30.144   2.895
20236W        W92650  22.728  11.669  12.957
20237W        W92651  41.904   4.777  12.980
20238W        W92652  25.671  14.793  14.892
20239W        W92653   7.397   8.777   4.177
20240W        W92654  44.833  32.044   2.827
20241W        W92655   4.704  12.681   1.708
20242W        W92656  19.068  44.265   1.352
20243W        W92657   7.292  11.781  12.428
20244W        W92658  25.987  17.129  14.399
20245W        W92659   9.333  11.287   4.293
20246W        W92660  29.995  26.547  12.907
20247W        W92661  12.641  12.253   0.815
20248W        W92662  12.784   6.224   2.762
20249W        W92663  12.747  43.003   2.885
20250W        W92664   3.408   7.676  13.863
20251W        W92665  33.889  39.001   3.384
20252W        W92666   6.840   9.320   3.272
20253W        W92667  20.661  15.802   4.248
20254W        W92668  18.080   6.313  10.901
20255W        W92669  37.063  14.201  13.965
20256W        W92670  19.039  40.523   0.448
20257W        W92671   6.192  24.648   1.384
20258W        W92672  29.946  24.574   4.662
20259W        W92673  33.612  13.682   4.187
20260W        W92674  41.498   1.418  12.542
20261W        W92675  43.936  21.149  13.843
20262W        W92676  31.975   6.677   3.261
20263W        W92677  44.774  43.950   2.320
20264W        W92678  22.177  15.593   2.349
20265W        W92679   6.341  28.078  12.894
20266W        W92680   6.824  11.358  11.928
20267W        W92681  17.746  39.495   2.253
20268W        W92682  29.107  30.089   4.133
20269W        W92683  40.859  13.800   4.221
20270W        W92684  29.481   0.846  14.420
20271W        W92685  20.098  33.442   4.740
20272W        W92686  34.530  19.057   2.411
20273W        W92687  33.429  30.626   4.659
20274W        W92688  11.672  34.456  12.920
20275W        W92689  14.591  40.380  10.461
20276W        W92690  14.660  40.981  12.448
20277W        W92691  42.284  33.038  15.000
20278W        W92692  41.892  16.098   1.273
20279W        W92693  31.982  12.267  11.987
20280W        W92694  36.362  20.570   3.738
20281W        W92695   6.869  40.832  11.495
20282W        W92696  14.702  41.861  10.439
20283W        W92697  18.641   3.340   3.784
20284W        W92698  15.253  36.886   1.709
20285W        W92699   2.409  39.994  12.555
20286W        W92700  43.285  32.528   2.837
20287W        W92701  10.144  25.161  14.419
20288W        W92702  32.083  19.220  11.973
20289W        W92703  22.205  31.052   2.716
20290W        W92704  31.912  11.677  11.438
20291W        W92705  26.046  14.258  13.381
20292W        W92706  37.007  35.880  11.870
20293W        W92707   9.297  17.769  12.356
20294W        W92708  42.886  32.083  14.765
20295W        W92709  23.714  11.746   4.690
20296W        W92710  10.633  34.990   4.172
20297W        W92711   2.794  37.020   0.412
20298W        W92712  20.042  14.306   9.934
20299W        W92713  41.820  36.886  14.948
20300W        W92714  32.056   4.777  12.945
20301W        W92715  32.901  35.491   2.810
20302W        W92716  14.693  24.998  11.040
20303W        W92717  33.022  43.492   1.904
20304W        W92718  36.951  11.652  12.033
20305W        W92719  23.676   9.840  11.442
20306W        W92720  31.476  29.570   2.302
20307W        W92721  15.138  42.930  14.850
20308W        W92722  18.670  36.549  10.918
20309W        W92723   9.321  25.218   2.329
20310W        W92724  39.818  12.173   2.312
20311W        W92725  26.047  16.701   3.240
20312W        W92726   0.777  41.028  10.595
20313W        W92727   1.821  16.757   4.314
20314W        W92728   6.694  35.915  10.988
20315W        W92729  16.292  16.289   3.289
20316W        W92730  32.569  30.978   2.229
20317W        W92731  38.866  42.802   1.907
20318W        W92732  12.248   9.273  14.317
20319W        W92733   3.393  38.890   2.869
20320W        W92734   2.318  21.708   4.219
20321W        W92735  30.419  39.925   1.758
20322W        W92736  27.503  34.401   1.276
20323W        W92737  35.398  10.678  13.362
20324W        W92738  18.790  19.706   1.301
20325W        W92739  41.335  40.979  11.077
20326W        W92740  17.149  12.835   2.218
20327W        W92741  35.498  32.542  11.029
20328W        W92742  14.807   4.722   4.708
20329W        W92743  17.086  19.156  11.577
20330W        W92744  15.600   4.923  13.353
20331W        W92745  18.088  34.933   4.790
20332W        W92746  41.447   3.315   4.191
20333W        W92747  34.446  39.925   2.898
20334W        W92748  25.973  44.452   1.923
20335W        W92749  31.583   6.203   0.406
20336W        W92750  33.899  44.958  12.885
20337W        W92751  41.355  33.991   1.326
20338W        W92752  25.043  37.914  11.502
20339W        W92753  25.601  34.022  10.467
20340W        W92754   6.828  10.366   0.890
20341W        W92755  11.296  21.573   3.229
20342W        W92756  29.138  43.440  12.572
20343W        W92757   5.229   4.352  14.984
20344W        W92758  40.903  40.510   0.290
20345W        W92759  33.929  40.043  13.544
20346W        W92760  36.465  39.815   4.655
20347W        W92761  28.442  21.551  13.815
20348W        W92762   6.332  40.869   3.703
20349W        W92763  34.586  21.511   2.748
20350W        W92764  13.601   1.468   3.328
20351W        W92765  40.973  35.879   2.186
20352W        W92766  17.238  13.334   1.303
20353W        W92767   7.899  26.603   5.128
20354W        W92768   2.888  40.381  11.464
20355W        W92769  27.629  33.591   4.334
20356W        W92770  39.944  41.380  14.988
20357W        W92771  11.839  39.390  10.480
20358W        W92772   8.699  22.623   4.332
20359W        W92773  17.142  36.472  11.965
20360W        W92774  24.976  36.545   1.794
20361W        W92775  35.358  15.776  12.088
20362W        W92776   5.742  39.376  14.977
20363W        W92777  28.030  30.445  13.348
20364W        W92778   9.225  13.616   1.703
20365W        W92779   8.355  24.672  12.911
20366W        W92780  43.330   6.822   1.724
20367W        W92781  23.077  10.311   3.230
20368W        W92782  35.546  33.580   3.257
20369W        W92783   0.256  10.632  14.420
20370W        W92784   9.725   9.735  12.348
20371W        W92785  21.551  28.475  14.788
20372W        W92786  12.189  27.958   0.318
20373W        W92787  24.566  37.862   3.730
20374W        W92788  31.033   0.260  12.345
20375W        W92789  14.634  26.475   3.822
20376W        W92790  39.813   3.881   4.692
20377W        W92791  26.598  35.932  13.519
20378W        W92792  29.493  32.119   2.348
20379W        W92793  39.421  34.973  10.016
20380W        W92794  12.127  38.845  11.011
20381W        W92795  21.533  34.601   3.201
20382W        W92796  36.954   2.385   4.739
20383W        W92797  23.226  44.832  13.959
20384W        W92798   1.803  44.441   2.283
20385W        W92799  24.135  18.720  10.160
20386W        W92800  32.621   3.738  12.975
20387W        W92801  35.069  30.996  13.427
20388W        W92802   0.259  27.506   4.646
20389W        W92803  38.514  35.972  13.059
20390W        W92804   3.848  20.736  13.816
20391W        W92805  15.206  16.688  14.374
20392W        W92806   8.864  23.612  12.445
20393W        W92807  22.695  37.463  11.939
20394W        W92808  15.304   1.871   4.699
20395W        W92809  29.164   2.875   3.387
20396W        W92810  44.355  14.183   2.215
20397W        W92811  19.101  13.713  12.977
20398W        W92812  41.427  15.677  11.029
20399W        W92813  22.646  39.511   3.229
20400W        W92814  21.514   8.861   0.469
20401W        W92815  11.290  25.087  10.972
20402W        W92816   1.260   5.767  13.534
20403W        W92817  13.133   6.734   4.741
20404W        W92818   5.269  24.036  10.971
20405W        W92819  37.054  42.015  14.323
20406W        W92820  28.028  10.692   0.845
20407W        W92821  14.792  19.079  13.009
20408W        W92822   7.699  18.275   2.212
20409W        W92823  25.701  33.107   1.781
20410W        W92824   9.388  39.998  11.896
20411W        W92825   4.750  28.178  10.516
20412W        W92826  11.343  17.138   4.227
20413W        W92827   7.753   6.377  10.575
20414W        W92828  25.107  32.484  13.896
20415W        W92829  39.364  39.355   0.731
20416W        W92830  19.165  29.172  10.572
20417W        W92831  14.178  34.388   1.756
20418W        W92832   6.186  41.044   4.647
20419W        W92833   0.960  16.698  10.416
20420W        W92834  41.506   9.842  10.582
20421W        W92835   8.750  14.305   1.843
20422W        W92836  16.586  14.817   0.362
20423W        W92837   6.239  11.723  14.961
20424W        W92838  38.533   0.895   3.152
20425W        W92839  13.315   2.801   0.782
20426W        W92840  27.670  29.593  10.577
20427W        W92841  24.645  36.455  12.991
20428W        W92842  14.227   0.930  14.456
20429W        W92843  35.380   3.283   2.227
20430W        W92844  32.422  12.670   4.773
20431W        W92845  21.644  10.328  14.428
20432W        W92846  12.196  39.051   0.796
20433W        W92847  40.487  36.844   2.225
20434W        W92848  22.012   8.315   0.385
20435W        W92849  11.217  37.489   2.821
20436W        W92850  41.380  28.014   0.950
20437W        W92851  43.775  19.236   4.125
20438W        W92852  35.983  28.641   1.840
20439W        W92853  10.660  34.519   4.809
20440W        W92854  11.316  28.006   1.230
20441W        W92855  17.159  22.115  10.515
20442W        W92856  42.468   2.330   2.221
20443W        W92857  40.415  29.072   2.742
20444W        W92858  17.191  24.155   4.227
20445W        W92859  38.532  23.160   4.768
20446W        W92860  37.578  14.625   3.856
20447W        W92861  41.460  40.523   0.466
20448W        W92862  31.967  10.353  14.296
20449W        W92863  22.153  35.468   4.183
20450W        W92864  31.906   7.341   3.286
20451W        W92865   7.758  25.596   2.407
20452W        W92866  38.565  33.964   3.746
20453W        W92867  26.694   3.336   3.682
20454W        W92868   2.916   3.717  14.027
20455W        W92869  32.468  44.416  10.526
20456W        W92870  13.317  11.189   0.335
20457W        W92871  37.957  27.618   3.748
20458W        W92872  18.658  30.519   2.248
20459W        W92873  26.151  11.860   2.728
20460W        W92874  43.379   9.804  14.294
20461W        W92875  36.556  37.339   1.783
20462W        W92876  24.085  30.557   2.268
20463W        W92877  30.031  15.736   1.730
20464W        W92878  27.662   5.274   2.178
20465W        W92879  16.172  13.312  12.430
20466W        W92880  13.167   6.755  14.891
20467W        W92881  35.974   3.385  13.488
20468W        W92882  42.309  37.346  11.094
20469W        W92883  18.244  41.857  12.826
20470W        W92884  28.581  13.846  12.966
20471W        W92885  43.927  16.140   3.172
20472W        W92886  43.397  18.259  11.550
20473W        W92887  12.290  18.714   2.849
20474W        W92888  25.559  29.035  11.400
20475W        W92889   1.765  14.704  13.866
20476W        W92890   0.887  15.305  10.891
20477W        W92891  10.827  12.666   3.221
20478W        W92892  32.539  12.180   2.800
20479W        W92893  38.979  35.097   5.570
20480W        W92894  13.814  39.827  13.047
20481W        W92895  17.792  17.779   3.853
20482W        W92896  21.589  38.033  14.908
20483W        W92897   9.794  35.527  11.920
20484W        W92898   0.411  17.763   3.779
20485W        W92899  15.319  15.577  12.909
20486W        W92900  19.135  21.741   4.669
20487W        W92901  42.335   4.936  11.376
20488W        W92902  37.962  34.106   2.708
20489W        W92903  13.748  31.955  13.011
20490W        W92904  20.236   3.221   2.786
20491W        W92905   8.222  41.421   1.321
20492W        W92906  26.630  37.874   4.667
20493W        W92907   7.874  23.205   2.370
20494W        W92908  38.449   2.239  14.900
20495W        W92909  21.121  42.976  11.061
20496W        W92910  24.619  34.013  11.980
20497W        W92911  21.728  12.347   2.280
20498W        W92912  13.760   9.203  14.868
20499W        W92913   4.840  43.484  14.855
20500W        W92914  28.434  20.186   4.664
20501W        W92915  39.020   8.781   4.638
20502W        W92916  26.564  13.181  11.103
20503W        W92917   0.769  25.162  10.573
20504W        W92918  16.636   1.911  11.571
20505W        W92919   8.393   0.415   0.423
20506W        W92920   2.912   3.349   1.882
20507W        W92921  23.677   9.794   4.794
20508W        W92922  37.890  44.345  12.877
20509W        W92923  35.535  19.650   0.835
20510W        W92924  13.159  38.031   2.409
20511W        W92925  26.550  19.760   4.296
20512W        W92926  40.394   7.886  12.052
20513W        W92927   5.761   0.395   4.317
20514W        W92928  23.100  29.928   3.148
20515W        W92929  26.538   0.380  11.583
20516W        W92930   5.434  14.782   4.810
20517W        W92931  37.866  17.219  12.931
20518W        W92932  18.087  22.129   1.843
20519W        W92933  43.899  44.945   3.283
20520W        W92934  26.155  19.210   1.734
20521W        W92935   7.747   4.759  11.964
20522W        W92936   3.398  18.601   0.376
20523W        W92937  36.851  14.125  12.414
20524W        W92938  32.627  18.104   4.680
20525W        W92939   6.895  41.449  10.540
20526W        W92940  27.524   7.816   4.336
20527W        W92941  16.716  16.787  11.468
20528W        W92942  33.931  41.975  13.013
20529W        W92943  15.650   2.391   4.649
20530W        W92944  33.913  10.192   1.701
20531W        W92945  37.541   8.874   1.220
20532W        W92946   5.835  31.424   3.855
20533W        W92947  42.848  10.360   4.204
20534W        W92948  41.477  37.513  11.970
20535W        W92949  24.645   0.916   0.770
20536W        W92950   2.352   6.835  14.887
20537W        W92951  22.070  36.921   3.731
20538W        W92952   0.916  18.679  13.941
20539W        W92953   1.399  32.925  12.833
20540W        W92954  40.320   3.292   3.233
20541W        W92955  38.067  19.716   1.225
20542W        W92956  36.046  41.989   5.319
20543W        W92957  32.477   9.859   4.605
20544W        W92958  37.943  26.653  11.867
20545W        W92959  44.815   0.742  12.513
20546W        W92960  38.879  32.541  12.538
20547W        W92961  13.115  22.057   2.791
20548W        W92962  36.844   4.303   2.716
20549W        W92963  34.873   0.875   3.789
20550W        W92964  14.098   1.955   2.312
20551W        W92965  24.658  34.484  12.486
20552W        W92966  39.347   6.895  11.565
20553W        W92967  24.680  11.801  12.363
20554W        W92968  22.018   6.408   4.241
20555W        W92969   4.305  37.852  10.988
20556W        W92970  35.856  27.557  13.893
20557W        W92971  14.303  20.618   3.166
20558W        W92972   3.720   0.372  13.453
20559W        W92973  21.705  24.586  13.307
20560W        W92974  36.353  15.227  11.457
20561W        W92975  39.891   0.749   0.931
20562W        W92976  36.887   7.225  13.904
20563W        W92977  44.760  31.105  14.356
20564W        W92978  44.301   6.761   3.672
20565W        W92979   5.781   7.757  10.522
20566W        W92980  25.162  31.991   4.681
20567W        W92981   3.298  26.582  10.638
20568W        W92982  21.103  22.523   0.339
20569W        W92983  12.252   4.805   3.344
20570W        W92984  12.772  23.512  10.906
20571W        W92985  42.012  15.805  11.570
20572W        W92986  19.144  11.742  10.603
20573W        W92987  35.984  13.645  10.921
20574W        W92988   2.350  42.992  10.565
20575W        W92989  39.842  22.021   4.818
20576W        W92990  20.061  29.541  11.888
20577W        W92991   4.252  12.278   0.901
20578W        W92992  21.731  17.800   0.791
20579W        W92993  18.637   7.186   0.251
20580W        W92994  10.786  23.568   2.769
20581W        W92995  27.548  26.062  12.555
20582W        W92996   2.818  40.953   0.795
20583W        W92997  10.155  30.999  14.846
20584W        W92998   9.319   7.410   3.674
20585W        W92999  21.085  10.637  11.576
20586W        W93000  10.837  10.840  12.563
20587W        W93001  19.770  36.898  10.570
20588W        W93002  39.035   7.334  12.479
20589W        W93003  34.511  37.400  13.401
20590W        W93004  13.185  26.675  10.066
20591W        W93005  30.984   8.888   1.295
20592W        W93006  37.964  11.751   4.753
20593W        W93007  13.703  10.865  12.965
20594W        W93008  36.374   8.731  10.150
20595W        W93009  27.475  12.622   4.227
20596W        W93010  40.419   8.895  13.801
20597W        W93011  27.950  27.949   5.145
20598W        W93012  21.572  19.743   0.763
20599W        W93013  38.049   3.453  12.426
20600W        W93014  40.911  28.959   4.244
20601W        W93015  40.415  40.320   4.137
20602W        W93016  16.261  25.580  12.870
20603W        W93017  41.510  12.691   0.431
20604W        W93018  43.988  43.774   0.874
20605W        W93019  25.019   8.762  11.571
20606W        W93020  35.910  34.005   4.759
20607W        W93021  13.771   4.318   2.786
20608W        W93022  20.741   9.294  10.919
20609W        W93023  13.175  11.637   1.889
20610W        W93024  30.551  42.358   4.768
20611W        W93025   3.444   4.345  10.471
20612W        W93026   4.829   4.936   1.718
20613W        W93027   7.840   3.805  13.928
20614W        W93028  14.631   8.282   4.644
20615W        W93029  39.808   2.438   4.314
20616W        W93030  16.156  29.953  12.975
20617W        W93031  27.483  26.030  12.086
20618W        W93032  38.847  32.014   2.316
20619W        W93033  43.934   8.361  14.897
20620W        W93034  25.120  42.781   0.880
20621W        W93035   6.838  25.709  11.915
20622W        W93036  28.522  24.022   0.883
20623W        W93037   5.290  12.327  12.831
20624W        W93038  12.800  31.949  10.993
20625W        W93039   5.284  14.219  13.983
20626W        W93040  12.757   0.337   0.892
20627W        W93041  18.715  14.201   0.361
20628W        W93042  35.445  43.806   3.782
20629W        W93043  13.260  31.060   2.188
20630W        W93044   8.340  44.996   0.764
20631W        W93045  37.349  38.065  11.561
20632W        W93046  28.632  20.733  11.468
20633W        W93047  20.706   5.717  14.012
20634W        W93048  15.323  38.522   0.244
20635W        W93049  33.558  30.055  12.950
20636W        W93050  28.505  24.013  14.031
20637W        W93051  14.276  37.061   3.818
20638W        W93052  26.574  22.204   1.267
20639W        W93053   5.425  37.394  14.462
20640W        W93054  19.669  30.155  13.884
20641W        W93055  43.845   3.222  13.960
20642W        W93056  33.029   3.913  13.861
20643W        W93057  15.210  40.400   0.293
20644W        W93058  27.570  37.562  11.090
20645W        W93059  25.976  27.529  10.489
20646W        W93060  11.852   4.833  11.109
20647W        W93061  29.092   7.272  10.914
20648W        W93062  38.953  35.997  11.551
20649W        W93063  15.771  25.086  13.334
20650W        W93064  34.947   5.864   2.318
20651W        W93065  13.773  19.609   3.158
20652W        W93066  13.793  32.487  12.096
20653W        W93067  30.417  40.819  13.473
20654W        W93068   8.672  12.784   3.329
20655W        W93069  17.576   5.812   4.619
20656W        W93070  42.900  23.532   0.949
20657W        W93071  30.508  33.039  11.933
20658W        W93072  44.445  13.801   0.735
20659W        W93073   9.868  21.039  11.502
20660W        W93074  24.111  17.174   4.160
20661W        W93075  20.202   1.804   4.220
20662W        W93076   5.828  32.439   3.331
20663W        W93077  38.846   0.791  12.878
20664W        W93078   7.256  16.772  11.399
20665W        W93079  41.522  26.641  10.545
20666W        W93080   7.806  35.905  10.009
20667W        W93081  35.076  38.902   3.351
20668W        W93082   4.374  28.611  11.022
20669W        W93083  28.024  11.208   4.191
20670W        W93084   1.312  13.782  12.450
20671W        W93085  42.509  23.572   3.240
20672W        W93086  20.056  42.996   2.337
20673W        W93087   6.355   7.324   1.430
20674W        W93088   5.203  41.833  13.943
20675W        W93089  32.955  43.943   0.809
20676W        W93090  20.109  15.196   4.239
20677W        W93091  23.994  35.552   2.817
20678W        W93092  43.340  42.911  14.323
20679W        W93093  29.458  26.092   2.897
20680W        W93094  42.326  10.711   3.731
20681W        W93095  13.603  41.356   4.701
20682W        W93096  38.464  41.797   1.285
20683W        W93097  23.065  36.055  11.067
20684W        W93098  10.224  23.170   3.787
20685W        W93099   7.722  12.277   1.300
20686W        W93100  25.059  39.959   1.281
20687W        W93101   0.489  10.183   3.781
20688W        W93102  29.615  30.163   0.771
20689W        W93103  22.740  22.013   0.797
20690W        W93104  14.239  27.047   3.764
20691W        W93105   4.804  32.888   9.966
20692W        W93106   8.822  14.158   0.728
20693W        W93107  20.138  10.750   1.742
20694W        W93108   4.783  17.725  13.316
20695W        W93109  32.564   1.298   3.789
20696W        W93110   4.322  34.559   0.869
20697W        W93111  20.716   3.792  10.982
20698W        W93112  43.895  26.096  13.932
20699W        W93113  10.709  23.633   2.264
20700W        W93114  26.986   0.415  14.285
20701W        W93115  17.700  20.724   3.184
20702W        W93116  17.572  34.518  14.876
20703W        W93117   7.231  22.672   0.810
20704W        W93118  23.635  29.142   0.399
20705W        W93119   3.353  25.086  12.501
20706W        W93120  20.757  19.210  12.429
20707W        W93121   2.377  43.916  14.426
20708W        W93122  41.495  34.062   1.728
20709W        W93123   5.200  21.134   4.328
20710W        W93124  30.932  42.788   0.937
20711W        W93125  25.180  17.097  12.824
20712W        W93126   7.223   7.737  12.483
20713W        W93127  32.501  28.137   2.253
20714W        W93128   2.939   7.251  14.892
20715W        W93129  37.466   7.828  11.459
20716W        W93130   2.851  33.125   3.833
20717W        W93131  19.641  40.054   0.278
20718W        W93132  10.779  10.720   4.152
20719W        W93133  13.163  29.150   0.839
20720W        W93134  21.143   6.416   1.742
20721W        W93135  25.089  13.297  13.315
20722W        W93136  20.202  24.602  11.459
20723W        W93137  33.500  44.311   4.619
20724W        W93138  33.005  26.021  13.881
20725W        W93139  36.523  16.651  13.528
20726W        W93140  37.370   0.896   3.225
20727W        W93141  33.003  34.594   4.169
20728W        W93142  37.504  33.441   4.322
20729W        W93143  33.107  17.102   1.837
20730W        W93144  29.050   7.313  12.989
20731W        W93145  12.210  30.135   0.841
20732W        W93146   4.916  26.586  13.326
20733W        W93147  11.189  31.494  12.919
20734W        W93148  12.780  32.474   4.806
20735W        W93149  18.069  16.803  10.950
20736W        W93150  36.411  35.982   2.697
20737W        W93151  12.672  14.196   3.284
20738W        W93152  18.216  40.437   3.368
20739W        W93153  44.767  13.827   2.375
20740W        W93154   0.406  41.863  14.828
20741W        W93155  16.659  32.583  14.283
20742W        W93156  33.097   2.789   3.288
20743W        W93157  38.974   4.357  10.927
20744W        W93158  44.006  41.316   1.783
20745W        W93159  32.566  15.188   2.781
20746W        W93160  43.901  44.991   3.674
20747W        W93161  18.720  15.614  10.522
20748W        W93162   2.778  43.415  13.797
20749W        W93163  27.459  30.574   4.127
20750W        W93164  39.013  25.665   4.352
20751W        W93165  10.153  28.983   2.734
20752W        W93166  44.323  44.009   0.775
20753W        W93167  39.469  25.546   4.634
20754W        W93168  35.911  27.027   3.244
20755W        W93169  25.017  20.551  13.347
20756W        W93170  17.109  15.794   3.714
20757W        W93171  43.866   4.243   4.130
20758W        W93172  23.523  40.886  14.974
20759W        W93173  14.629  42.964   2.723
20760W        W93174  13.151  43.297  12.437
20761W        W93175  35.476  13.119   2.397
20762W        W93176  21.539  38.350   0.855
20763W        W93177  28.956  30.519  11.942
20764W        W93178  12.179  40.924   4.170
20765W        W93179   0.275  39.365  14.465
20766W        W93180  12.672  26.974  10.982
20767W        W93181  11.337  26.621  14.448
20768W        W93182   4.939  17.156  12.505
20769W        W93183  13.817   3.915   0.407
20770W        W93184   4.374   2.812   1.709
20771W        W93185  10.201  35.073  11.085
20772W        W93186  13.663  18.649  13.836
20773W        W93187   9.321   1.286   1.819
20774W        W93188  13.777   0.331   1.448
20775W        W93189   0.975  36.976   2.686
20776W        W93190  13.639  28.607  10.934
20777W        W93191   1.423  22.584  12.841
20778W        W93192  42.928  26.698  13.853
20779W        W93193  44.895  35.886   0.269
20780W        W93194  33.123  22.734   0.880
20781W        W93195   7.389  25.644   0.420
20782W        W93196  22.032   5.783  13.051
20783W        W93197  43.936   7.824   2.880
20784W        W93198  32.612  44.420   0.402
20785W        W93199   9.661  33.469  13.365
20786W        W93200  28.102  43.466  13.954
20787W        W93201  38.494  15.600  12.569
20788W        W93202  14.154  35.073  14.017
20789W        W93203  40.409  39.368   2.254
20790W        W93204   5.210  30.458  13.334
20791W        W93205   5.298  11.263   0.387
20792W        W93206   1.936  22.578  12.992
20793W        W93207   8.709  13.602  13.950
20794W        W93208  44.890  29.464  11.577
20795W        W93209  11.744   0.405  13.806
20796W        W93210  34.118  34.966  11.382
20797W        W93211  24.090  18.209   4.693
20798W        W93212   5.419   1.955   0.816
20799W        W93213  13.676  44.461   3.709
20800W        W93214  11.736  25.177   2.219
20801W        W93215  27.684  35.376  10.628
20802W        W93216   0.493  37.867  12.489
20803W        W93217  17.089   8.401  13.906
20804W        W93218  39.999   2.956  14.803
20805W        W93219  31.442  26.011  12.502
20806W        W93220  16.571  39.475  10.990
20807W        W93221  37.456  32.611   0.927
20808W        W93222   0.437  12.712  12.982
20809W        W93223   4.252   3.725   0.768
20810W        W93224   3.380  23.616  12.512
20811W        W93225  27.090  37.870   4.743
20812W        W93226   8.900  23.010  13.825
20813W        W93227  32.967   4.910  13.934
20814W        W93228  16.651  17.753   2.244
20815W        W93229  13.313   3.716   3.167
20816W        W93230  30.986  22.147  11.022
20817W        W93231  23.198  32.532   0.798
20818W        W93232  38.060   9.847  14.789
20819W        W93233  33.533  35.483  14.929
20820W        W93234  37.374  38.377   3.164
20821W        W93235  30.435  38.361   2.689
20822W        W93236   9.699   1.444  11.387
20823W        W93237  39.957  23.670  11.027
20824W        W93238  26.514  25.010  14.865
20825W        W93239  28.609  38.038   3.234
20826W        W93240   2.888  11.229   1.415
20827W        W93241  34.037  22.595   0.959
20828W        W93242   2.779  34.077  14.867
20829W        W93243  12.698  34.467  11.067
20830W        W93244  13.216  24.140   5.151
20831W        W93245  42.840  18.724  10.459
20832W        W93246  11.659  30.641  12.996
20833W        W93247  30.006  44.874   2.839
20834W        W93248  32.110  35.005   2.844
20835W        W93249   0.396  13.763  14.392
20836W        W93250  16.197  20.684   3.863
20837W        W93251   1.904   4.769  14.323
20838W        W93252   4.821  34.525  12.053
20839W        W93253  17.066  14.338  13.360
20840W        W93254  34.090  15.314   2.761
20841W        W93255  12.722   3.724  11.491
20842W        W93256  20.524  22.656   3.757
20843W        W93257   0.793  30.511  11.086
20844W        W93258  43.449  40.460   0.368
20845W        W93259  42.788  11.727  13.064
20846W        W93260  26.590  27.166  13.890
20847W        W93261   4.815  19.062   3.675
20848W        W93262  22.200  27.083   4.655
20849W        W93263  24.121  24.643  14.373
20850W        W93264   2.368  31.151   3.305
20851W        W93265  43.790  41.537   1.377
20852W        W93266  37.932  39.032   4.148
20853W        W93267  18.631  36.561   1.257
20854W        W93268  39.539  19.628   1.751
20855W        W93269  24.503  31.626   4.708
20856W        W93270   2.433  14.639  11.485
20857W        W93271  12.781  40.917   0.339
20858W        W93272   3.252  33.499   1.701
20859W        W93273  25.672  19.126   0.387
20860W        W93274  22.592  28.150   0.765
20861W        W93275  24.212  39.497  14.460
20862W        W93276   1.943  28.983  14.836
20863W        W93277  35.393  10.712   4.287
20864W        W93278  21.174  11.770   4.113
20865W        W93279  43.979  24.685  11.376
20866W        W93280  16.255   4.871   2.839
20867W        W93281  11.632  10.687   2.741
20868W        W93282  21.017  14.324   1.387
20869W        W93283  34.531   0.747   3.689
20870W        W93284  17.231   5.880  13.465
20871W        W93285   6.897   0.924  13.831
20872W        W93286  17.137  16.795  12.375
20873W        W93287  25.633  19.198  11.496
20874W        W93288   5.876  36.423  13.325
20875W        W93289  12.750  10.318   1.286
20876W        W93290   1.868  14.207   4.614
20877W        W93291  13.714  39.941   2.710
20878W        W93292  42.937  43.823  12.957
20879W        W93293  40.505  34.424  14.893
20880W        W93294   2.395  22.228  12.044
20881W        W93295   3.411  13.642   0.808
20882W        W93296  26.988  33.105  11.913
20883W        W93297  16.647  28.183  11.561
20884W        W93298  40.019  33.532   3.675
20885W        W93299  27.576  37.934  12.551
20886W        W93300  10.673  32.495  11.099
20887W        W93301  27.181  12.258  12.042
20888W        W93302  22.177  12.317  11.440
20889W        W93303   7.188   4.267  12.402
20890W        W93304   7.196  30.501   0.459
20891W        W93305  28.165  33.621  11.113
20892W        W93306  39.958   1.836   1.913
20893W        W93307  11.357  11.283  13.831
20894W        W93308  13.282  40.985  10.528
20895W        W93309  44.913   9.736   4.724
20896W        W93310  22.724  39.009   4.238
20897W        W93311  16.813  42.347  14.922
20898W        W93312  28.183  23.082   3.172
20899W        W93313   3.435  43.869  14.973
20900W        W93314  44.358  20.262   4.767
20901W        W93315   1.327  29.150   1.216
20902W        W93316  35.591   9.674  11.480
20903W        W93317   4.429  20.738  14.779
20904W        W93318  27.156  23.586  13.790
20905W        W93319  24.013  15.185  13.892
20906W        W93320  14.658   1.281   4.693
20907W        W93321  31.546  32.432   4.245
20908W        W93322  33.513  34.615  10.549
20909W        W93323  30.949  23.575  13.488
20910W        W93324  40.955  36.413   2.290
20911W        W93325   0.450  42.982  12.983
20912W        W93326  14.152  34.407  11.062
20913W        W93327   5.699  16.098   4.670
20914W        W93328  11.289  37.511  12.847
20915W        W93329  11.145  17.694  13.822
20916W        W93330  10.671  35.358   3.832
20917W        W93331  44.459  39.933   4.619
20918W        W93332   2.257  19.116   3.349
20919W        W93333  34.493  24.538  14.420
20920W        W93334  22.697   6.851  10.983
20921W        W93335  36.426  13.724  13.909
20922W        W93336  34.610   8.665  14.987
20923W        W93337  38.068  27.613   1.449
20924W        W93338  33.009  23.047   1.873
20925W        W93339  28.072   9.684   1.337
20926W        W93340  17.108  11.689   9.976
20927W        W93341   0.319  39.376   2.192
20928W        W93342  21.536  27.064  13.518
20929W        W93343   3.454  34.456  13.953
20930W        W93344  42.000  12.730  14.775
20931W        W93345  31.509  19.133  13.874
20932W        W93346  36.937   0.896   3.681
20933W        W93347  23.621   8.882   5.167
20934W        W93348   1.393  14.307  13.326
20935W        W93349   1.455   8.257   2.216
20936W        W93350  25.056   7.708   3.758
20937W        W93351  26.550  37.452  14.776
20938W        W93352  40.871  15.757  13.307
20939W        W93353  39.984   6.256   3.356
20940W        W93354   3.284  20.029  11.955
20941W        W93355  40.539   9.329  14.993
20942W        W93356  32.480  26.462   3.749
20943W        W93357  20.534   5.908   1.369
20944W        W93358  36.956  27.027  11.916
20945W        W93359  39.928   9.727  11.509
20946W        W93360   9.825   4.845  13.837
20947W        W93361  26.525  30.602  13.990
20948W        W93362  20.164   2.781   0.419
20949W        W93363  32.011  16.218   1.861
20950W        W93364  11.224  35.414  11.414
20951W        W93365  26.571  37.510  13.048
20952W        W93366  10.231  11.196  10.512
20953W        W93367  29.152  21.690  13.975
20954W        W93368  31.489   8.274  12.366
20955W        W93369  37.932  22.175  11.486
20956W        W93370  41.958  36.435  14.873
20957W        W93371  30.090  44.357   0.482
20958W        W93372  10.736  34.554  10.976
20959W        W93373  29.548  31.037  11.120
20960W        W93374  22.747  27.683   2.667
20961W        W93375  36.404  38.354   1.742
20962W        W93376   9.758  41.433  12.929
20963W        W93377  42.415  36.544  11.008
20964W        W93378   8.870   3.928  13.436
20965W        W93379   4.329   3.264  11.445
20966W        W93380  14.779  44.925  14.839
20967W        W93381  25.189  21.027  13.308
20968W        W93382  41.914   2.895  10.463
20969W        W93383   8.662  28.118   3.655
20970W        W93384   0.453  16.810  14.486
20971W        W93385  42.856  32.540   3.665
20972W        W93386  23.550  30.951  14.502
20973W        W93387  39.926  39.367  13.907
20974W        W93388  29.001  17.289  12.095
20975W        W93389  10.305  22.511   3.666
20976W        W93390  39.505  27.602  14.317
20977W        W93391  14.226  19.087   4.606
20978W        W93392   3.798  42.431  13.914
20979W        W93393  24.626  26.184  13.039
20980W        W93394  22.125  42.335   4.126
20981W        W93395  42.517  20.592  10.517
20982W        W93396   3.312  42.297   3.648
20983W        W93397  43.290   1.872   4.170
20984W        W93398   0.919  29.488  14.302
20985W        W93399  13.293  34.910   0.250
20986W        W93400  33.971   3.923  14.429
20987W        W93401  41.348  20.118  11.464
20988W        W93402  10.832  34.010   0.363
20989W        W93403  18.051  10.839   1.838
20990W        W93404  35.030  22.572   0.884
20991W        W93405  28.490  37.048   1.811
20992W        W93406  29.119  35.585  12.376
20993W        W93407  27.950  39.995  11.964
20994W        W93408  22.636  33.416   1.756
20995W        W93409  36.487  26.599   0.339
20996W        W93410   0.285   9.381  11.601
20997W        W93411  24.566  12.349   2.871
20998W        W93412   6.393  18.770  12.538
20999W        W93413  19.573  42.479   3.745
21000W        W93414  37.894  14.186  10.517
21001W        W93415  40.917   7.790   2.819
21002W        W93416  14.194  36.971   0.912
21003W        W93417  16.642   1.316  14.362
21004W        W93418  22.060  44.284   9.944
21005W        W93419  14.834  44.802   4.795
21006W        W93420  39.888  31.403  11.500
21007W        W93421  32.539  16.621   4.308
21008W        W93422  28.587  24.634  13.817
21009W        W93423  14.133  18.210   4.829
21010W        W93424  36.999  41.397  11.950
21011W        W93425   1.770   9.788   2.851
21012W        W93426  35.485  44.799   2.750
21013W        W93427  43.307  44.339   1.751
21014W        W93428  11.151  26.170   0.318
21015W        W93429  34.974   6.314   0.766
21016W        W93430  37.832  17.674   1.340
21017W        W93431  12.200  13.200  14.808
21018W        W93432  34.546  31.904   4.116
21019W        W93433   6.878   4.901  14.776
21020W        W93434  15.641  13.157  13.342
21021W        W93435  38.849   4.843   4.617
21022W        W93436  34.024  18.064  11.544
21023W        W93437   9.198  19.723   0.792
21024W        W93438  23.120  43.796  12.481
21025W        W93439  13.142  26.159  11.866
21026W        W93440  42.318  21.109   1.449
21027W        W93441   4.707   0.915  14.293
21028W        W93442  11.313  42.410   3.660
21029W        W93443  24.582   2.849  13.940
21030W        W93444  39.055  11.189   3.643
21031W        W93445   8.367  21.735  12.395
21032W        W93446  30.463  41.831   3.641
21033W        W93447   1.796  42.969   2.899
21034W        W93448  39.317  18.574   4.681
21035W        W93449   7.374   8.276  13.377
21036W        W93450  17.604  35.014   3.179
21037W        W93451  21.043  34.544   0.820
21038W        W93452  23.545  13.658   2.869
21039W        W93453  29.128  44.429   4.218
21040W        W93454   6.873   2.730   3.378
21041W        W93455  18.092  30.534  12.484
21042W        W93456   3.848  44.847  14.776
21043W        W93457   8.750  32.513  11.005
21044W        W93458   8.360  37.012   1.731
21045W        W93459  41.803  34.966   3.664
21046W        W93460  27.110  44.995   1.701
21047W        W93461   5.692   2.847   1.857
21048W        W93462   9.707  37.843  10.539
21049W        W93463  33.888   6.249  13.385
21050W        W93464  29.166   0.409   4.626
21051W        W93465   0.425  17.734  10.954
21052W        W93466  35.504  42.988   3.701
21053W        W93467  38.338  38.440  11.071
21054W        W93468  41.903  18.559  12.021
21055W        W93469  17.304   6.784   4.769
21056W        W93470   8.781   3.264  13.339
21057W        W93471  15.202  30.113   3.164
21058W        W93472  32.064  43.959   3.243
21059W        W93473  18.749   1.408   1.705
21060W        W93474  15.656  15.716  13.458
21061W        W93475  11.294  14.788   3.757
21062W        W93476  42.791  25.059  12.090
21063W        W93477  24.542  23.187  10.939
21064W        W93478  44.827  24.483  11.085
21065W        W93479  13.200   7.385  13.975
21066W        W93480  12.821  40.466   0.356
21067W        W93481  34.928  31.921  10.891
21068W        W93482   3.342  36.970   0.398
21069W        W93483   3.351  11.855  10.901
21070W        W93484   8.171  32.008   4.804
21071W        W93485  13.221  15.279  13.383
21072W        W93486  32.467  16.189   0.924
21073W        W93487  10.324  18.547  14.924
21074W        W93488  27.069   5.871   0.296
21075W        W93489  24.071  17.125   2.202
21076W        W93490  23.732  20.088  10.940
21077W        W93491   5.688  40.934   9.439
21078W        W93492   1.328  18.597   0.924
21079W        W93493  39.997  21.168  11.500
21080W        W93494   9.366  40.829   3.192
21081W        W93495  15.304  40.900  13.397
21082W        W93496  20.726  12.817   3.197
21083W        W93497  33.961  25.504  14.799
21084W        W93498  37.435   6.218   5.256
21085W        W93499  33.405   6.297  12.023
21086W        W93500   5.727   3.772   4.345
21087W        W93501  40.903   6.415   0.351
21088W        W93502   1.475   8.671  10.420
21089W        W93503  18.679  15.084  11.448
21090W        W93504  30.597   4.335  10.443
21091W        W93505  17.777  33.091   3.843
21092W        W93506  39.540  20.755  12.032
21093W        W93507   5.886  32.135   1.307
21094W        W93508  23.594  38.075  14.758
21095W        W93509  38.520  34.518   0.291
21096W        W93510  31.539   2.391  12.401
21097W        W93511   1.970  44.315  12.866
21098W        W93512  11.152  44.299   3.164
21099W        W93513  10.708  19.545  12.381
21100W        W93514   6.410  28.958   4.603
21101W        W93515  22.737  25.994   1.880
21102W        W93516   4.754  40.897   3.321
21103W        W93517  25.015   9.183  10.438
21104W        W93518  15.315  38.969   1.727
21105W        W93519   1.335   4.394   0.952
21106W        W93520  44.908  21.021   2.183
21107W        W93521  13.240  29.657   3.821
21108W        W93522   2.395  26.117  13.369
21109W        W93523   3.263   1.761   3.282
21110W        W93524  32.030   2.400  13.807
21111W        W93525   2.872  20.192   1.924
21112W        W93526  21.170  41.465   0.431
21113W        W93527  43.355  18.757   1.708
21114W        W93528  28.563  43.420   1.360
21115W        W93529  30.936  11.782  10.524
21116W        W93530   2.284  26.084   1.438
21117W        W93531  14.201  14.703   1.249
21118W        W93532  42.985  26.058   1.803
21119W        W93533  14.315   4.401   1.226
21120W        W93534  24.092  23.154  14.414
21121W        W93535  44.485  17.174   2.285
21122W        W93536   7.790  40.941  11.927
21123W        W93537  26.057  25.968  12.421
21124W        W93538  27.480  26.191   4.613
21125W        W93539  22.206   7.695  14.362
21126W        W93540  40.814   4.304   1.907
21127W        W93541  28.023   8.195   2.709
21128W        W93542  18.218  29.434   2.391
21129W        W93543   4.831  18.600  13.965
21130W        W93544  43.295  13.670   0.928
21131W        W93545  11.343   8.192   1.330
21132W        W93546  44.766  24.213  10.581
21133W        W93547  42.785  20.037   4.316
21134W        W93548  40.523  27.634   0.258
21135W        W93549  20.540   3.748   2.310
21136W        W93550   2.296  32.520  13.324
21137W        W93551  21.668  40.833  13.379
21138W        W93552  42.481   6.855   4.202
21139W        W93553  15.302  20.654   1.834
21140W        W93554  20.564   3.410   2.829
21141W        W93555  23.720  38.327   4.614
21142W        W93556  26.070  33.084   4.131
21143W        W93557   5.889  30.077  11.125
21144W        W93558  20.166  18.780   3.349
21145W        W93559  35.998   9.206   3.866
21146W        W93560  43.956  36.860  14.023
21147W        W93561  14.791   4.791   3.231
21148W        W93562  39.385  40.492   0.966
21149W        W93563  36.890  24.715  13.307
21150W        W93564   0.251  17.556  12.392
21151W        W93565  38.941  41.341   4.711
21152W        W93566  31.576  37.490   1.212
21153W        W93567   4.416   4.220   3.702
21154W        W93568  23.237  42.854   0.802
21155W        W93569   0.747  34.415  12.068
21156W        W93570  27.962  34.961   2.801
21157W        W93571  44.835  44.811   3.734
21158W        W93572  18.271  38.970   2.852
21159W        W93573   7.258  32.007  10.075
21160W        W93574  10.800  14.104  14.956
21161W        W93575  36.051  31.490  11.538
21162W        W93576   2.397  16.148   1.240
21163W        W93577  27.525   4.285   4.304
21164W        W93578  12.330  10.142  10.922
21165W        W93579  12.630  15.189  14.006
21166W        W93580  10.314  44.386  12.889
21167W        W93581  37.574  12.288  14.279
21168W        W93582   9.317  28.001   2.685
21169W        W93583   8.338  28.562  13.397
21170W        W93584  27.687   8.365  10.451
21171W        W93585  19.116   0.954   2.877
21172W        W93586  16.655  26.112   4.733
21173W        W93587  38.473  11.242   2.742
21174W        W93588  26.188  14.324   1.812
21175W        W93589  35.416   4.316   2.312
21176W        W93590  22.531  39.827  14.872
21177W        W93591   5.855  36.042   2.799
21178W        W93592  16.628  28.621  12.392
21179W        W93593  29.518   3.271   3.282
21180W        W93594   8.312  26.066   4.190
21181W        W93595  34.543   0.470  13.887
21182W        W93596  38.046   9.215  10.604
21183W        W93597  23.224  36.448   2.815
21184W        W93598  35.487  10.747  12.841
21185W        W93599  11.850  28.957  13.528
21186W        W93600  35.906   7.391   1.333
21187W        W93601  25.690  31.469  11.445
21188W        W93602  40.325  11.777   2.718
21189W        W93603  32.556   6.873  12.555
21190W        W93604  15.194  26.145   2.700
21191W        W93605  24.985  38.976   2.298
21192W        W93606   9.246  19.236   2.321
21193W        W93607   5.875  35.369   4.284
21194W        W93608  20.242   3.904  12.425
21195W        W93609  18.252   8.374  11.453
21196W        W93610  42.464  30.015  11.416
21197W        W93611  17.183  11.654  14.844
21198W        W93612  16.747   9.810  14.910
21199W        W93613  20.547  12.782   0.382
21200W        W93614   1.976  38.964  10.636
21201W        W93615  18.626  35.472  11.915
21202W        W93616  21.550  30.507  14.358
21203W        W93617  25.168  10.151  13.900
21204W        W93618   4.834   4.216   3.870
21205W        W93619  10.185  14.321  13.426
21206W        W93620   3.412  39.325   3.385
21207W        W93621   7.888   6.829   4.621
21208W        W93622  19.741  24.515  13.810
21209W        W93623  11.636  18.677  11.487
21210W        W93624  32.559  41.876   0.370
21211W        W93625  40.368  25.161   9.969
21212W        W93626  16.155  25.557  11.970
21213W        W93627  30.961   3.905  13.894
21214W        W93628  32.899  38.968   4.246
21215W        W93629   9.769  44.284   3.212
21216W        W93630  43.386   6.374  12.574
21217W        W93631  12.174   2.772   4.306
21218W        W93632  17.109   0.939  14.009
21219W        W93633  42.311  35.439  11.517
21220W        W93634  19.664  11.692  11.066
21221W        W93635  35.929  28.469  12.413
21222W        W93636  21.231  39.401  13.321
21223W        W93637  23.110   8.862   0.928
21224W        W93638  14.761  28.642   4.758
21225W        W93639  22.632  33.888   2.407
21226W        W93640  20.217  12.178   0.245
21227W        W93641  14.157   9.766   0.279
21228W        W93642  10.373  24.130   0.846
21229W        W93643  17.719  25.619  11.587
21230W        W93644  42.836  34.564   3.147
21231W        W93645  41.432   0.774  13.829
21232W        W93646  24.991   7.296  11.548
21233W        W93647   9.833  35.899  14.962
21234W        W93648  12.322  16.653   0.800
21235W        W93649  35.581  35.432  10.515
21236W        W93650   2.829   4.933  11.584
21237W        W93651  13.707  15.321  14.021
21238W        W93652   9.161  14.718  14.477
21239W        W93653  37.887  40.360   3.205
21240W        W93654   0.793  40.452   3.242
21241W        W93655  38.431  18.581  12.489
21242W        W93656  30.126  27.175   0.336
21243W        W93657   3.733  18.292  14.963
21244W        W93658  44.483  18.084   4.182
21245W        W93659  43.005  20.767  11.492
21246W        W93660  24.129  19.082  13.394
21247W        W93661  22.549  34.083   3.265
21248W        W93662  24.648  34.970  10.582
21249W        W93663  26.621  41.966  10.894
21250W        W93664  10.789  11.307   0.955
21251W        W93665  17.732   2.430   4.123
21252W        W93666  27.022  10.217  10.534
21253W        W93667  15.227  32.444   2.267
21254W        W93668  12.202  35.983  13.942
21255W        W93669   0.368  34.020   2.777
21256W        W93670  32.988  25.125  11.453
21257W        W93671  18.736  21.572   0.880
21258W        W93672  29.636  29.509   2.683
21259W        W93673  30.611  15.128  10.449
21260W        W93674   2.232  35.860   2.689
21261W        W93675   0.978  38.053  13.852
21262W        W93676  29.458   4.367  10.536
21263W        W93677  26.617  31.959   5.105
21264W        W93678  12.194  21.625  11.867
21265W        W93679   6.716  27.484   4.191
21266W        W93680  20.717  33.536  10.957
21267W        W93681  34.535  10.876  13.869
21268W        W93682  28.025   7.187  13.318
21269W        W93683  44.427  42.855   1.250
21270W        W93684  13.243  23.697  11.052
21271W        W93685  44.864  43.847   1.930
21272W        W93686  30.082   4.387   1.810
21273W        W93687  26.053   8.376  14.810
21274W        W93688  30.990  11.680  10.031
21275W        W93689  16.721  20.200   3.281
21276W        W93690  29.657  11.758  12.436
21277W        W93691  27.166  25.212   2.372
21278W        W93692  21.628   7.263  11.514
21279W        W93693  43.903  11.704   4.675
21280W        W93694  31.915   2.877  13.917
21281W        W93695  22.643  36.366   2.184
21282W        W93696  23.134   2.262  14.961
21283W        W93697  28.485  11.283   3.372
21284W        W93698  23.067  34.462   3.765
21285W        W93699  44.949  12.828   0.296
21286W        W93700  19.653  11.642   4.343
21287W        W93701  16.801  15.674   3.361
21288W        W93702  43.830  35.463  10.444
21289W        W93703  27.078  16.104  11.948
21290W        W93704  33.886   6.214   0.963
21291W        W93705  43.289  44.898   1.386
21292W        W93706  32.527  22.056   2.886
21293W        W93707  22.516  36.440   0.834
21294W        W93708   4.788  25.548   3.711
21295W        W93709  15.320   1.369  14.452
21296W        W93710  44.363  18.294   3.808
21297W        W93711  38.974   0.364  12.080
21298W        W93712  36.060  29.986   2.364
21299W        W93713  39.024  16.180  10.490
21300W        W93714  44.383   6.726  14.030
21301W        W93715  38.393  37.919   2.340
21302W        W93716  27.965  24.229  11.908
21303W        W93717  29.137   7.720  10.521
21304W        W93718  11.302   6.680   0.815
21305W        W93719  24.586  10.319  12.398
21306W        W93720   0.975  11.701   4.283
21307W        W93721  30.535  38.898  11.041
21308W        W93722  28.619  35.937   3.300
21309W        W93723  40.961  38.948  13.456
21310W        W93724  13.197  19.216  10.014
21311W        W93725  20.593  35.875   2.822
21312W        W93726  12.283  38.930   2.851
21313W        W93727  14.628  11.683   3.285
21314W        W93728  30.593  15.579   0.379
21315W        W93729  30.553   3.364  12.971
21316W        W93730   8.859  38.855  13.528
21317W        W93731  11.649  27.953  14.512
21318W        W93732  37.387   2.294   4.661
21319W        W93733  14.196  36.541  10.593
21320W        W93734  26.506  32.899   1.359
21321W        W93735  19.195   8.295  13.434
21322W        W93736  28.551  31.915   2.296
21323W        W93737  23.646  38.910   1.419
21324W        W93738  25.164  25.031  10.478
21325W        W93739  15.581  13.302   4.342
21326W        W93740  39.926  32.122  12.364
21327W        W93741  27.688  20.072   2.728
21328W        W93742  19.200  31.019  13.393
21329W        W93743   4.389   9.268  11.461
21330W        W93744  30.580  22.642  14.401
21331W        W93745   8.223   6.200   0.314
21332W        W93746  10.210   0.844   1.764
21333W        W93747  32.124  13.125   3.852
21334W        W93748  13.714  30.477  11.561
21335W        W93749  22.728  20.611  12.344
21336W        W93750  39.847  25.124   3.228
21337W        W93751  27.117   4.219   1.255
21338W        W93752  21.562  37.558  10.550
21339W        W93753  39.904  34.990   4.748
21340W        W93754  35.454  35.896  12.344
21341W        W93755  25.059  28.037   2.391
21342W        W93756  21.100  20.165  13.957
21343W        W93757  39.940   0.743   4.132
21344W        W93758  36.959  24.122   4.156
21345W        W93759   8.236  13.337  10.920
21346W        W93760  34.913  36.075   1.819
21347W        W93761  23.160  17.163   3.733
21348W        W93762  10.285  26.181   3.667
21349W        W93763   2.743  43.996  11.023
21350W        W93764  17.263  41.808   0.435
21351W        W93765  11.155  14.106  14.016
21352W        W93766  23.620  43.461  14.291
21353W        W93767  44.358  36.439   3.323
21354W        W93768  24.543  16.809  14.957
21355W        W93769   1.411  13.666  13.359
21356W        W93770  14.782  37.032  14.866
21357W        W93771  30.967  20.662  10.909
21358W        W93772   5.350  26.637   3.352
21359W        W93773  14.276  39.548  13.912
21360W        W93774  23.130  33.511  12.493
21361W        W93775   0.258  32.921   2.377
21362W        W93776  37.576  27.110  13.476
21363W        W93777  19.263  10.322   3.385
21364W        W93778   9.741  31.975   4.710
21365W        W93779  10.340  26.191  10.459
21366W        W93780   5.331  42.929   0.756
21367W        W93781  10.693  25.012   1.831
21368W        W93782  10.296  33.004   9.979
21369W        W93783  37.871  40.437   2.369
21370W        W93784  18.697  43.988  12.068
21371W        W93785   6.728  43.849   0.917
21372W        W93786  26.461   0.355   3.801
21373W        W93787  26.634  32.419  10.908
21374W        W93788  31.934  44.007  10.519
21375W        W93789  10.224  23.496  14.760
21376W        W93790   8.307  15.795   3.866
21377W        W93791   0.476  15.647   1.267
21378W        W93792  36.922  22.506   3.841
21379W        W93793  39.898  22.666  12.082
21380W        W93794  23.992  41.004   1.274
21381W        W93795  13.617   8.302   5.168
21382W        W93796  34.873  29.633  14.313
21383W        W93797  39.814   7.894   4.733
21384W        W93798   8.665  41.880   1.780
21385W        W93799  31.982  32.059   4.794
21386W        W93800  15.690   9.190   0.840
21387W        W93801  25.613  40.424   3.279
21388W        W93802  41.376  37.447  13.323
21389W        W93803  44.825   7.413   4.155
21390W        W93804  18.665  28.553  12.422
21391W        W93805   2.722  31.618   2.755
21392W        W93806  43.983  17.099  11.459
21393W        W93807  20.059  17.680   3.809
21394W        W93808  39.009   7.311  14.886
21395W        W93809  17.230  12.116  11.086
21396W        W93810   0.268  33.476   2.677
21397W        W93811  32.136  39.811  13.976
21398W        W93812  29.150   4.765  14.015
21399W        W93813  11.862  16.153   1.826
21400W        W93814  25.662  29.048   1.343
21401W        W93815  36.452  24.044   3.282
21402W        W93816  22.128  41.361   0.437
21403W        W93817  23.528  20.566  10.608
21404W        W93818  39.553  14.678  11.568
21405W        W93819  30.921  22.155  11.949
21406W        W93820   2.846  14.217  11.519
21407W        W93821   7.408  34.529   0.783
21408W        W93822  29.073  32.030   0.891
21409W        W93823  27.994  10.217  14.480
21410W        W93824  10.658   5.299   0.797
21411W        W93825  44.436   2.834   2.753
21412W        W93826  29.992   7.359   3.146
21413W        W93827  22.690  12.241  10.968
21414W        W93828  16.568  39.923   1.739
21415W        W93829  29.547  31.450   1.349
21416W        W93830   4.909   2.730   2.823
21417W        W93831  34.103  26.141   4.717
21418W        W93832   4.221   3.312   3.828
21419W        W93833  31.976  41.905   4.681
21420W        W93834  13.298   3.322   4.355
21421W        W93835  20.080  19.681  11.419
21422W        W93836   9.700  15.312   3.328
21423W        W93837  33.922  22.036  12.856
21424W        W93838  12.731  15.690   4.831
21425W        W93839  14.335  39.883   0.438
21426W        W93840   2.722  27.994   5.796
21427W        W93841  37.865   9.241   4.816
21428W        W93842  39.331   6.192  13.516
21429W        W93843  29.165  42.799   4.616
21430W        W93844  40.003   2.962  13.001
21431W        W93845  26.202  37.507  11.967
21432W        W93846  13.710  25.002   3.710
21433W        W93847  36.914  40.981   3.374
21434W        W93848  19.607  21.700  14.280
21435W        W93849   4.396  35.025   1.352
21436W        W93850  28.579  44.770  12.095
21437W        W93851   1.855   2.891  14.468
21438W        W93852  26.143  35.082  14.275
21439W        W93853  13.239  42.786  13.516
21440W        W93854  30.499  16.235   4.324
21441W        W93855   1.942  39.409   3.845
21442W        W93856   6.340  43.953   4.146
21443W        W93857  22.581  19.116  14.854
21444W        W93858  23.165  27.683  11.038
21445W        W93859   5.300  17.799  11.013
21446W        W93860  14.326  13.829  14.405
21447W        W93861  41.999   0.461  14.787
21448W        W93862  14.747   6.677   1.854
21449W        W93863  27.978   6.190  12.370
21450W        W93864  11.278  10.183  11.049
21451W        W93865  22.689  15.154  14.771
21452W        W93866  44.397   1.819  13.893
21453W        W93867  28.057   0.255  11.938
21454W        W93868  27.572  31.534   0.446
21455W        W93869   1.883  33.946  12.867
21456W        W93870  32.569  32.038   2.756
21457W        W93871  18.173  18.232   2.877
21458W        W93872  10.157  17.622  11.021
21459W        W93873   8.778  38.352   2.414
21460W        W93874   0.824   4.912  10.161
21461W        W93875  25.571  24.143  14.275
21462W        W93876  35.978  10.816   3.217
21463W        W93877  14.243   4.826   4.738
21464W        W93878  28.637  35.394  13.497
21465W        W93879  20.634  17.280   4.176
21466W        W93880   3.251  16.305  14.892
21467W        W93881   8.224  24.019   0.326
21468W        W93882  11.361  15.242  11.443
21469W        W93883  36.017  38.017   3.658
21470W        W93884  21.164  35.062   3.649
21471W        W93885  11.778  40.397   5.310
21472W        W93886  19.680  41.510  11.565
21473W        W93887  35.903   9.825   3.359
21474W        W93888  35.542  33.387  13.798
21475W        W93889  25.200  33.386  12.850
21476W        W93890  26.975  41.814  13.359
21477W        W93891  16.289  19.237  12.935
21478W        W93892   8.842  12.738  12.414
21479W        W93893   9.187  39.856   3.269
21480W        W93894  39.047  10.700  11.966
21481W        W93895  43.507  32.465   0.744
21482W        W93896  33.486  39.033  10.958
21483W        W93897  35.876  27.674   0.769
21484W        W93898  36.368  36.467  13.497
21485W        W93899   5.277  33.392  14.293
21486W        W93900  15.677  15.658  10.936
21487W        W93901  35.946   4.732   2.790
21488W        W93902  16.134  26.976   4.787
21489W        W93903  26.022   9.361   3.650
21490W        W93904   3.791  17.100  12.006
21491W        W93905  41.923  29.601   2.280
21492W        W93906   3.735   8.289  11.564
21493W        W93907  43.271  20.524  11.547
21494W        W93908  24.053  24.538   4.688
21495W        W93909  36.376   3.782   4.308
21496W        W93910  19.090  25.529   3.176
21497W        W93911  14.692  31.032  12.523
21498W        W93912  29.500  28.959  11.909
21499W        W93913  16.744   1.308   0.918
21500W        W93914  40.945  34.058  12.998
21501W        W93915   9.158  27.106  13.870
21502W        W93916  29.430  33.494  14.852
21503W        W93917  18.660  14.274  12.344
21504W        W93918  19.188   2.295   3.819
21505W        W93919   8.242  14.707  12.342
21506W        W93920   0.860  29.155  12.887
21507W        W93921  34.976  22.580  12.987
21508W        W93922  41.296  24.985   3.282
21509W        W93923   9.784  20.747   1.327
21510W        W93924   2.733  25.531   9.650
21511W        W93925   3.867  12.777   4.647
21512W        W93926  13.186  42.789  11.937
21513W        W93927  20.071  43.341  14.315
21514W        W93928  17.680  34.989  11.112
21515W        W93929  25.131  18.604   0.344
21516W        W93930  17.148  18.177  14.374
21517W        W93931  37.022  35.043  11.970
21518W        W93932  41.407  34.592   4.617
21519W        W93933  40.506  10.834   2.853
21520W        W93934  19.702  42.319  12.483
21521W        W93935  34.565  32.565   2.360
21522W        W93936  41.492  29.485   0.456
21523W        W93937  12.741  12.161  14.469
21524W        W93938  35.010  27.647  11.470
21525W        W93939   4.816  13.688  12.917
21526W        W93940   8.855  32.119   3.785
21527W        W93941  42.420  20.028  10.557
21528W        W93942  11.767  39.851   2.282
21529W        W93943  31.602  40.538  13.974
21530W        W93944   8.896  42.307  13.378
21531W        W93945  40.470  37.878   0.364
21532W        W93946   1.919  34.962  12.494
21533W        W93947  24.002  44.494  10.912
21534W        W93948  37.904  20.641   3.840
21535W        W93949  24.653  29.022  10.459
21536W        W93950  19.772  22.625  14.012
21537W        W93951   7.352   6.686  14.366
21538W        W93952  42.903  11.716  12.519
21539W        W93953  38.879   4.309   4.802
21540W        W93954  35.978  29.168   1.839
21541W        W93955  24.697  25.612  14.778
21542W        W93956  24.076  19.618  12.834
21543W        W93957  12.214  35.389  11.492
21544W        W93958  28.618   0.280   1.214
21545W        W93959  26.150   2.275  12.084
21546W        W93960  10.819  20.554   2.808
21547W        W93961   7.756  40.345   2.277
21548W        W93962  27.586  43.470  12.418
21549W        W93963  14.661   0.746  10.554
21550W        W93964  33.932   3.760  10.433
21551W        W93965   7.297  38.337  10.428
21552W        W93966  14.119   1.368   0.273
21553W        W93967   5.410  16.706   3.283
21554W        W93968   2.842  26.701  13.449
21555W        W93969   7.259  29.065   2.763
21556W        W93970   7.813   5.757   4.806
21557W        W93971  21.206   4.714  12.024
21558W        W93972  40.931  44.854   3.662
21559W        W93973  39.869  13.218   2.688
21560W        W93974  18.636  33.405  13.981
21561W        W93975  23.119  32.913   1.396
21562W        W93976   4.331  10.740   4.261
21563W        W93977  13.266   7.771   1.324
21564W        W93978  24.061  15.752  10.526
21565W        W93979   0.987  44.393   3.176
21566W        W93980   9.235  16.084  11.567
21567W        W93981  23.712  41.931  10.594
21568W        W93982  25.048   1.275  12.425
21569W        W93983   6.740  37.471   0.921
21570W        W93984   6.832  33.108  12.399
21571W        W93985  18.567  26.988   3.821
21572W        W93986  27.094  38.503   2.795
21573W        W93987  11.302   4.720   4.207
21574W        W93988  41.429  20.065   1.295
21575W        W93989  28.105  23.534   3.235
21576W        W93990  19.561   5.202   0.456
21577W        W93991  40.489   4.274   4.743
21578W        W93992  13.178  22.513   5.315
21579W        W93993  44.366  17.666   0.374
21580W        W93994  19.181  28.082  13.458
21581W        W93995   9.362  35.917   5.266
21582W        W93996  41.537  33.881  13.325
21583W        W93997  39.027  33.473   1.724
21584W        W93998   5.742  12.618  14.458
21585W        W93999  20.686   6.300   2.360
21586W        W94000  28.448  31.597  13.352
21587W        W94001  12.242  19.742  11.979
21588W        W94002  35.510   9.354   4.352
21589W        W94003  17.136  18.693  11.002
21590W        W94004  27.611   3.883   2.801
21591W        W94005   4.807  36.886   1.921
21592W        W94006  26.595  20.565  12.936
21593W        W94007   7.712  42.868  12.074
21594W        W94008  34.377  33.954  14.376
21595W        W94009  15.261  30.086   1.403
21596W        W94010   7.177  30.590   1.910
21597W        W94011  35.473   0.981   0.829
21598W        W94012  34.613   3.903  14.848
21599W        W94013  44.809  11.721  14.952
21600W        W94014   1.798  31.418  14.306
21601W        W94015  10.854  28.073  12.411
21602W        W94016   3.237  24.192   5.115
21603W        W94017  13.281  22.130  11.071
21604W        W94018  32.629  41.380  11.056
21605W        W94019  42.392  22.518   1.428
21606W        W94020   5.819  38.879  12.922
21607W        W94021  27.053  40.986   0.908
21608W        W94022  28.092   5.787  14.787
21609W        W94023  18.693  36.525   2.701
21610W        W94024  11.178  30.603   3.861
21611W        W94025  36.895  44.837  14.003
21612W        W94026  33.569  37.957   2.299
21613W        W94027  26.583  28.031   1.325
21614W        W94028  32.910  36.479   0.383
21615W        W94029  12.832  35.460  11.561
21616W        W94030  21.707  42.920   0.425
21617W        W94031  15.782   7.777   3.204
21618W        W94032  14.268  20.120   1.784
21619W        W94033  17.161  14.735  13.487
21620W        W94034  33.962   1.287  12.480
21621W        W94035  21.065   6.740   0.887
21622W        W94036  17.708  35.963  13.322
21623W        W94037   6.867  21.629  12.885
21624W        W94038   6.272  25.981   2.374
21625W        W94039   8.746   2.451  11.017
21626W        W94040  36.384  14.717  13.887
21627W        W94041  17.085  24.048   2.824
21628W        W94042  41.835  30.603   2.207
21629W        W94043  31.548  30.139   4.761
21630W        W94044  15.664   0.297   4.284
21631W        W94045  25.654  40.852   2.205
21632W        W94046  12.351  43.905   3.226
21633W        W94047  16.690  25.111   1.716
21634W        W94048  44.449   1.940   3.271
21635W        W94049  18.293  22.530  12.365
21636W        W94050  21.678   5.201   2.837
21637W        W94051  16.296  43.320   4.226
21638W        W94052  24.159   6.853  14.986
21639W        W94053  30.624  14.805  14.965
21640W        W94054  16.098  31.635   2.799
21641W        W94055   5.373  10.338   3.255
21642W        W94056  31.080  40.054  14.013
21643W        W94057  39.963  15.715   3.863
21644W        W94058   6.798  15.296   1.237
21645W        W94059   6.193  30.056  12.505
21646W        W94060  15.581  42.781  12.489
21647W        W94061  34.888  42.351  14.869
21648W        W94062  13.805  22.606  14.995
21649W        W94063   8.708   0.288  14.370
21650W        W94064  17.572  13.741   4.154
21651W        W94065   6.820  39.993  11.602
21652W        W94066  44.917   1.973  10.500
21653W        W94067  42.447  22.517  12.861
21654W        W94068  43.397  38.964  11.885
21655W        W94069  16.647  28.952  11.946
21656W        W94070  32.514  10.870  12.908
21657W        W94071  20.161  43.852  10.499
21658W        W94072  38.346  37.940   2.728
21659W        W94073   0.903  35.109   3.281
21660W        W94074  34.952  14.265   5.309
21661W        W94075   8.781  24.538  13.044
21662W        W94076   6.198  35.982   2.211
21663W        W94077  35.358   2.921   1.736
21664W        W94078  35.073  13.809   0.790
21665W        W94079   5.298   7.756   4.258
21666W        W94080   9.689  13.832  11.919
21667W        W94081  24.636  17.281   0.761
21668W        W94082  41.297   0.774  11.407
21669W        W94083  43.423   9.781  13.356
21670W        W94084  18.727  24.715   1.809
21671W        W94085  37.863  21.558  10.953
21672W        W94086   4.273  23.170  11.396
21673W        W94087  24.624  32.477  11.044
21674W        W94088  18.069  12.710  12.474
21675W        W94089  23.507  30.116  13.810
21676W        W94090  37.493  24.072   1.345
21677W        W94091  37.572  24.043  10.975
21678W        W94092   5.375  12.656  10.949
21679W        W94093  44.462  15.287  13.411
21680W        W94094  27.553   5.763  11.547
21681W        W94095  39.416  14.156   3.262
21682W        W94096  43.450  26.623  11.959
21683W        W94097  19.087  33.906  11.900
21684W        W94098   4.428  28.099  12.573
21685W        W94099   0.266  27.542   2.838
21686W        W94100  38.858  31.993   9.965
21687W        W94101  13.133  39.560  12.926
21688W        W94102  37.439  21.262   3.661
21689W        W94103   1.385   6.296   3.287
21690W        W94104  18.787  35.037  13.807
21691W        W94105  30.642  30.549  11.406
21692W        W94106  10.227   6.205  10.573
21693W        W94107  42.023  11.191  14.289
21694W        W94108  42.894  15.648   2.358
21695W        W94109   1.756  35.956  10.943
21696W        W94110  21.513  30.928   1.216
21697W        W94111  30.463  40.932   0.331
21698W        W94112  32.961  22.223   5.107
21699W        W94113   7.728  42.430  12.379
21700W        W94114  29.937  41.890  11.920
21701W        W94115  17.792  29.025   2.395
21702W        W94116  26.115  17.280   1.367
21703W        W94117  35.888  34.496  11.940
21704W        W94118  22.550   5.814  12.908
21705W        W94119  12.248  17.613   1.739
21706W        W94120  33.994  19.751   1.327
21707W        W94121  42.474  38.348  11.472
21708W        W94122  34.901  23.500   3.780
21709W        W94123  20.092  14.146  11.549
21710W        W94124  21.731   3.449   2.805
21711W        W94125  36.881  11.270  12.471
21712W        W94126   4.789   2.308  10.156
21713W        W94127   0.936  43.927   2.344
21714W        W94128  30.129  39.946  14.516
21715W        W94129  13.671  41.398  10.485
21716W        W94130  13.618   6.805  11.503
21717W        W94131  28.541  30.559   3.367
21718W        W94132  39.435  13.350   1.712
21719W        W94133  37.854  12.127  12.350
21720W        W94134  29.929  20.062  10.641
21721W        W94135  30.922  40.945  10.458
21722W        W94136  12.281  16.100   0.810
21723W        W94137  37.474  30.942  10.599
21724W        W94138   0.415  41.307   1.782
21725W        W94139  10.857  14.309   3.319
21726W        W94140  25.629   9.784   1.310
21727W        W94141   8.829  23.647  10.540
21728W        W94142  26.113  22.677   4.635
21729W        W94143  21.669  37.972  11.460
21730W        W94144  31.028  37.503   0.339
21731W        W94145  41.815  12.774   3.824
21732W        W94146   4.936  16.611   2.819
21733W        W94147   5.363  19.567  13.964
21734W        W94148   6.818  28.677   1.767
21735W        W94149  12.226  20.138   1.750
21736W        W94150  18.787  37.850   2.191
21737W        W94151   8.875  42.917   4.222
21738W        W94152  26.495  38.568  14.810
21739W        W94153  22.578   3.809  14.963
21740W        W94154  16.568  12.238   4.816
21741W        W94155   1.282   5.760   4.802
21742W        W94156  13.656  40.464  14.420
21743W        W94157  40.393  41.971   2.748
21744W        W94158  29.070   9.676   0.836
21745W        W94159  42.462  42.944  11.581
21746W        W94160  42.807  11.787  14.025
21747W        W94161  18.094  10.257  12.850
21748W        W94162   6.209   7.788   2.833
21749W        W94163  27.647  21.105  13.848
21750W        W94164  41.370  26.009   2.863
21751W        W94165  30.042  14.260  14.491
21752W        W94166  20.100  23.094  10.903
21753W        W94167  44.813  20.199   0.463
21754W        W94168  39.321  12.341   1.391
21755W        W94169  17.628   0.476   9.934
21756W        W94170  37.409   7.912  13.365
21757W        W94171  33.482  15.188   0.286
21758W        W94172  24.527   8.345   2.864
21759W        W94173  27.453  30.475   1.298
21760W        W94174  38.552  15.144  13.500
21761W        W94175   9.381  24.601  13.543
21762W        W94176   5.281  12.801  10.527
21763W        W94177  43.901  38.035  13.049
21764W        W94178   5.397   2.899  11.439
21765W        W94179  39.994  32.017  12.056
21766W        W94180  22.610  24.720  12.859
21767W        W94181  41.845   2.818  12.072
21768W        W94182  40.361  21.686   0.345
21769W        W94183  26.519  37.513   4.150
21770W        W94184  18.078  29.463   0.756
21771W        W94185  43.920  28.116  11.567
21772W        W94186  27.038  32.059   2.753
21773W        W94187  21.203   1.787  11.597
21774W        W94188  38.533  10.747   2.373
21775W        W94189  14.255   5.710  12.511
21776W        W94190  41.912  14.802   3.291
21777W        W94191  20.608  44.785   0.965
21778W        W94192  18.558  37.026  13.499
21779W        W94193  22.165  37.494   3.746
21780W        W94194  23.002  14.649  10.516
21781W        W94195  35.571  26.017  14.883
21782W        W94196   8.861  27.972  13.376
21783W        W94197   0.377  44.945   4.222
21784W        W94198  24.134  28.483   2.744
21785W        W94199  43.978  41.794   0.316
21786W        W94200   9.758  18.789  12.889
21787W        W94201  32.134  44.389   4.139
21788W        W94202  39.842  23.168  14.515
21789W        W94203   7.815  33.975   4.784
21790W        W94204  14.615  37.465   0.746
21791W        W94205  17.710  40.942   0.417
21792W        W94206   0.768  13.771  14.295
21793W        W94207  11.855  39.989   0.274
21794W        W94208  39.965  16.624  13.907
21795W        W94209  41.920   4.897   0.881
21796W        W94210  16.285  23.023   2.677
21797W        W94211  14.637  35.585   4.742
21798W        W94212  26.569   5.330  13.831
21799W        W94213   0.441  43.491   4.826
21800W        W94214   7.872  17.070  14.352
21801W        W94215  19.124  40.889   0.439
21802W        W94216  24.591   1.738   4.707
21803W        W94217  27.003  42.828   4.641
21804W        W94218  29.033   4.228   3.192
21805W        W94219  11.217  40.387   2.224
21806W        W94220  36.353  30.993   2.379
21807W        W94221  23.240  21.514  10.643
21808W        W94222  10.346   7.217   2.665
21809W        W94223  34.537   1.471  14.826
21810W        W94224  25.143   8.354  13.327
21811W        W94225   8.330  25.207   3.673
21812W        W94226   0.258  36.369  11.885
21813W        W94227  12.724  17.234  14.468
21814W        W94228  17.790   1.453   2.292
21815W        W94229   8.718  25.174   1.410
21816W        W94230  15.303  29.486  14.394
21817W        W94231   3.754  13.631  11.098
21818W        W94232  36.547   5.896  11.397
21819W        W94233  38.849  20.101   2.378
21820W        W94234  43.506  17.248  12.073
21821W        W94235  26.588  25.118   1.917
21822W        W94236  29.500  25.090  11.939
21823W        W94237  25.164  11.722   0.451
21824W        W94238  18.561  23.024  12.401
21825W        W94239  37.425  36.009  11.981
21826W        W94240  16.711  28.986   2.364
21827W        W94241  32.445  17.091  13.511
21828W        W94242  37.849  38.334  11.539
21829W        W94243  38.872   9.838   1.342
21830W        W94244  35.965  19.627   0.846
21831W        W94245  17.654   5.435  13.829
21832W        W94246  42.948  11.782  11.955
21833W        W94247   7.292  31.500  11.006
21834W        W94248  33.417  39.554  11.020
21835W        W94249   7.354  25.095   2.348
21836W        W94250   3.849  33.560  11.082
21837W        W94251  22.164  19.102  10.951
21838W        W94252  30.077  18.747   1.348
21839W        W94253  31.581  38.471  14.484
21840W        W94254  37.037   5.412   2.781
21841W        W94255  25.154  22.689  14.964
21842W        W94256  23.211  37.343  14.498
21843W        W94257  21.185  18.638  12.476
21844W        W94258  25.011  35.410   3.266
21845W        W94259  34.041  22.567   3.726
21846W        W94260  42.975  20.703  14.380
21847W        W94261  41.319  21.229   4.776
21848W        W94262  22.096  42.378   0.913
21849W        W94263  30.154   1.811  11.515
21850W        W94264   9.888   6.859   4.699
21851W        W94265   8.781  14.318  11.372
21852W        W94266  32.133  25.615   4.679
21853W        W94267  26.056  21.629   0.427
21854W        W94268  34.009  29.469   0.859
21855W        W94269  43.321   2.421  11.097
21856W        W94270  28.162  37.011  10.446
21857W        W94271  17.199  39.448  11.548
21858W        W94272  40.444   7.746  14.284
21859W        W94273   9.723  11.272  13.392
21860W        W94274  10.362  39.446  10.469
21861W        W94275  17.623  18.662  13.984
21862W        W94276  25.523  43.830   1.779
21863W        W94277  29.062  21.679   2.191
21864W        W94278  14.217  20.680  14.438
21865W        W94279  35.422  14.779   4.614
21866W        W94280   6.426  23.592  11.528
21867W        W94281   8.194   9.828  13.893
21868W        W94282   0.307   1.337  14.863
21869W        W94283  22.086  30.054  11.881
21870W        W94284  32.504  24.023  11.006
21871W        W94285  39.994  10.729  14.454
21872W        W94286   8.897  32.994   0.953
21873W        W94287  11.220   9.372   0.828
21874W        W94288  16.094  31.415  11.611
21875W        W94289  38.904  38.497   0.737
21876W        W94290   8.248   2.896   4.219
21877W        W94291  40.434  16.769  13.417
21878W        W94292  31.929  16.733   2.713
21879W        W94293   9.231   2.422  14.891
21880W        W94294  37.515  33.902  11.045
21881W        W94295   7.777   3.315   4.222
21882W        W94296   8.339   9.238  10.990
21883W        W94297  22.569  14.332  11.868
21884W        W94298  13.801  43.021  13.520
21885W        W94299  35.446  42.346  11.068
21886W        W94300   8.289   5.794  14.947
21887W        W94301  23.000  16.223  10.155
21888W        W94302  21.224  38.471   3.800
21889W        W94303  21.261  32.003   3.168
21890W        W94304  25.674  22.059  12.835
21891W        W94305  24.202  31.946  11.003
21892W        W94306   3.342  27.546   3.289
21893W        W94307  17.635   6.424  14.881
21894W        W94308  35.413  32.574  11.384
21895W        W94309  44.954  34.041   2.272
21896W        W94310  13.160  30.513  10.434
21897W        W94311  34.609  32.605   1.221
21898W        W94312  43.901  38.001   4.807
21899W        W94313   9.230  26.689  12.440
21900W        W94314  23.211  44.434   1.317
21901W        W94315  15.090  38.935  10.967
21902W        W94316  17.248  11.847  12.455
21903W        W94317  14.768  41.469   4.634
21904W        W94318  27.945  18.671   3.276
21905W        W94319  43.500  22.657   3.634
21906W        W94320  21.657  39.012   1.322
21907W        W94321  33.597  39.841  13.463
21908W        W94322  29.572  43.328   2.408
21909W        W94323  11.678  30.581   4.180
21910W        W94324  11.160  40.341  12.954
21911W        W94325  11.292  30.066   0.911
21912W        W94326  42.389  13.784   1.404
21913W        W94327  30.996  39.365   4.191
21914W        W94328  31.432  23.135  10.539
21915W        W94329  19.189  38.837  13.354
21916W        W94330  38.004  31.957   9.993
21917W        W94331  15.704   5.323   3.718
21918W        W94332  36.911   2.429  11.531
21919W        W94333   6.247  27.608  10.625
21920W        W94334  24.641  29.088   2.330
21921W        W94335   9.320   2.898   4.640
21922W        W94336  10.721   6.329  12.923
21923W        W94337  23.697  34.105   2.804
21924W        W94338  37.998  39.395  13.007
21925W        W94339  23.708   4.295   3.370
21926W        W94340  13.663  30.159  10.899
21927W        W94341   2.314  26.173  10.520
21928W        W94342  37.996  12.208   4.794
21929W        W94343  33.091   2.373   0.298
21930W        W94344  19.104  17.132   2.722
21931W        W94345  35.407  40.417  13.001
21932W        W94346  42.285  44.901  11.976
21933W        W94347  28.622   3.436  11.580
21934W        W94348  12.145  11.286   1.820
21935W        W94349  42.991  26.975   2.736
21936W        W94350  27.116  22.038  13.061
21937W        W94351  14.762   2.863   4.309
21938W        W94352  20.553  12.776  11.065
21939W        W94353  16.572  15.662  13.470
21940W        W94354   5.315  33.383  12.513
21941W        W94355  22.174  38.450   3.810
21942W        W94356  13.272  30.952  11.857
21943W        W94357  38.945  44.814   1.729
21944W        W94358  43.292  38.548   0.421
21945W        W94359  30.151  25.546   2.664
21946W        W94360  19.139   2.747   4.271
21947W        W94361  31.989   7.793   2.690
21948W        W94362   3.282  10.170  13.388
21949W        W94363  29.617  26.599  10.498
21950W        W94364  19.082  10.154   2.873
21951W        W94365   5.822  33.394   0.428
21952W        W94366  10.711  18.705  10.455
21953W        W94367  29.119  19.132   1.850
21954W        W94368  12.734   6.879  14.971
21955W        W94369   0.407  27.118  11.057
21956W        W94370  22.517  32.925  12.559
21957W        W94371  14.673  35.945  10.595
21958W        W94372   1.964  30.467   4.656
21959W        W94373   6.801   5.318  13.852
21960W        W94374  40.010  13.333   4.199
21961W        W94375   8.341   4.762  12.356
21962W        W94376   5.293  23.637   4.673
21963W        W94377   9.307  25.019  14.503
21964W        W94378  34.600   9.846   3.284
21965W        W94379  32.626   8.684  10.151
21966W        W94380  21.150  16.200   0.880
21967W        W94381  26.586  41.394  10.450
21968W        W94382   2.869  23.225   0.964
21969W        W94383  41.405  29.950   3.653
21970W        W94384  35.560  23.193  14.402
21971W        W94385  42.362  29.491   0.833
21972W        W94386  15.804  35.887   4.756
21973W        W94387  39.363   2.935  11.113
21974W        W94388  14.662  34.456  13.885
21975W        W94389  33.901  13.121   0.940
21976W        W94390  41.462  28.680   4.116
21977W        W94391   2.934  41.492  14.368
21978W        W94392   4.739  32.562   3.641
21979W        W94393  24.504  27.621  10.926
21980W        W94394  19.218  37.412  12.484
21981W        W94395  38.514  34.944  12.920
21982W        W94396   7.254  10.875  10.563
21983W        W94397   0.286   5.833   0.253
21984W        W94398  15.693  27.464  13.809
21985W        W94399   4.809  19.116   3.256
21986W        W94400  43.951  25.983   0.291
21987W        W94401   7.391   2.374   1.307
21988W        W94402   3.786  13.196  14.370
21989W        W94403  34.403  13.753   3.249
21990W        W94404  14.602  34.459   4.147
21991W        W94405  14.307  22.672   4.739
21992W        W94406  28.523  31.139  14.472
21993W        W94407  23.683   3.394  14.859
21994W        W94408  42.925  25.686  12.083
21995W        W94409  17.745  31.103   4.246
21996W        W94410  43.501  29.458   1.298
21997W        W94411  12.625   6.251   2.187
21998W        W94412   9.783  13.159  10.570
21999W        W94413  28.435   8.791   4.833
22000W        W94414  35.497   4.911  13.971
22001W        W94415  38.946  17.176  11.117
22002W        W94416  43.785  30.027  13.837
22003W        W94417  23.511   8.691   0.341
22004W        W94418  15.805  23.013  11.438
22005W        W94419  30.652  39.918  14.286
22006W        W94420  27.995  44.380  11.564
22007W        W94421  27.181  16.773  12.878
22008W        W94422  31.032  43.394   2.733
22009W        W94423  22.233  42.940   5.100
22010W        W94424   3.283  43.472   1.879
22011W        W94425  20.639  27.153   2.376
22012W        W94426  40.536  16.587  13.964
22013W        W94427  40.015   5.853  10.450
22014W        W94428  36.912  16.731   0.954
22015W        W94429  32.071  42.324   0.877
22016W        W94430  16.740  33.128  12.528
22017W        W94431   1.778  20.103  14.435
22018W        W94432  38.029   0.845   4.244
22019W        W94433  38.011  32.035  10.923
22020W        W94434  15.110  43.999   1.290
22021W        W94435  22.243  32.482   2.241
22022W        W94436  13.719  34.465   3.853
22023W        W94437  32.929  11.849   0.905
22024W        W94438  19.188   7.240   3.247
22025W        W94439  26.545  23.634   1.896
22026W        W94440  10.292  17.277  12.961
22027W        W94441  22.540  40.974  14.935
22028W        W94442   9.755   3.935  13.003
22029W        W94443   9.288  41.516   0.840
22030W        W94444   6.905  10.689   4.713
22031W        W94445   8.249   9.689  14.974
22032W        W94446  22.199  43.488  12.407
22033W        W94447  27.519  15.301   3.286
22034W        W94448  42.934  26.163   3.203
22035W        W94449   1.864   6.795   1.223
22036W        W94450   7.347  22.661   2.749
22037W        W94451  17.747  17.657  11.436
22038W        W94452  20.593  23.112   0.466
22039W        W94453  18.217  14.095   0.484
22040W        W94454   3.784  44.369  11.880
22041W        W94455  38.928  23.522   4.671
22042W        W94456  10.806  24.707  10.430
22043W        W94457   0.744  22.027  14.439
22044W        W94458  21.594  23.215  14.772
22045W        W94459  26.672  42.324  14.461
22046W        W94460  17.084  14.590   3.824
22047W        W94461  32.528  29.048   3.806
22048W        W94462   7.307  39.819   3.182
22049W        W94463  32.932  21.515   2.274
22050W        W94464  31.901  29.647   2.367
22051W        W94465   4.701  35.945  12.563
22052W        W94466   4.764  13.200  12.060
22053W        W94467  10.169  37.911   4.346
22054W        W94468  24.195  38.872  13.487
22055W        W94469   2.335  28.137  11.921
22056W        W94470  16.240  36.587  11.014
22057W        W94471   5.734  29.429  12.980
22058W        W94472   1.359   5.778  14.351
22059W        W94473   4.209  30.956  12.433
22060W        W94474   7.881  34.887   0.780
22061W        W94475  35.952  13.662  14.357
22062W        W94476  25.208  42.908   2.891
22063W        W94477  26.464  10.339   3.706
22064W        W94478  16.688  10.169   9.958
22065W        W94479  28.628  24.136  11.869
22066W        W94480  44.931  26.547  12.549
22067W        W94481  38.412  36.980   0.878
22068W        W94482  22.503  28.175   4.803
22069W        W94483   8.677  32.952  13.367
22070W        W94484  17.178  41.293   0.341
22071W        W94485  41.837  42.462  14.371
22072W        W94486  28.518  25.992   3.169
22073W        W94487   5.728  21.592  11.110
22074W        W94488  15.311   7.249  11.042
22075W        W94489   0.940  27.985  13.979
22076W        W94490  26.006   1.354  13.008
22077W        W94491   1.284  19.658   2.734
22078W        W94492  29.650  22.515  13.386
22079W        W94493  19.632   2.749   4.697
22080W        W94494  11.251  13.195  10.638
22081W        W94495  42.340   0.806  14.920
22082W        W94496   7.280  14.710  11.549
22083W        W94497  34.106   5.860   4.821
22084W        W94498  39.855  32.979   0.245
22085W        W94499   5.735  35.574  12.049
22086W        W94500  11.692  33.415   3.784
22087W        W94501  39.006  14.747   3.272
22088W        W94502  28.144  10.278   3.683
22089W        W94503  34.581  17.647  12.361
22090W        W94504  15.163  39.373  13.341
22091W        W94505   5.418   6.712   1.406
22092W        W94506  21.042  26.156   0.396
22093W        W94507  37.857  11.858  14.010
22094W        W94508   8.285  42.306   4.776
22095W        W94509   0.819  33.469  14.433
22096W        W94510  14.749  31.103   0.930
22097W        W94511  15.176  10.705   0.938
22098W        W94512  32.125  37.399  13.426
22099W        W94513  43.495   6.821  13.356
22100W        W94514  25.676   0.743  10.608
22101W        W94515   9.873  28.076   1.869
22102W        W94516  40.431  39.381  10.979
22103W        W94517   4.250  33.021  13.005
22104W        W94518  43.766  12.654   2.187
22105W        W94519  40.413   0.971  13.908
22106W        W94520  38.917  22.146  13.942
22107W        W94521  11.200  38.965   2.246
22108W        W94522  32.571  34.083   2.765
22109W        W94523   9.673  12.215   2.828
22110W        W94524  31.615  17.235  13.443
22111W        W94525  38.899  26.549  11.410
22112W        W94526   8.847  15.098   1.243
22113W        W94527  28.448  36.416   3.766
22114W        W94528  13.145   5.748  12.408
22115W        W94529  30.012  32.532   0.859
22116W        W94530  28.648  26.963  12.022
22117W        W94531  26.190  17.740  14.293
22118W        W94532  10.342  11.789   3.303
22119W        W94533   1.897  35.054   3.774
22120W        W94534  39.505  36.385   0.465
22121W        W94535  38.893  35.978  12.054
22122W        W94536  38.933   0.331  13.315
22123W        W94537   8.695  12.172   0.366
22124W        W94538  24.486  33.920   1.911
22125W        W94539  22.047  25.533  14.830
22126W        W94540  22.684  14.651   1.316
22127W        W94541   6.898   1.425   4.637
22128W        W94542  35.599   5.313  14.348
22129W        W94543  33.622  16.615   1.928
22130W        W94544  35.490  17.684   2.362
22131W        W94545   0.871  36.399  11.958
22132W        W94546  28.971  25.058  10.911
22133W        W94547  23.637  25.562  11.079
22134W        W94548  37.070  20.248   3.685
22135W        W94549  40.346  27.119   0.316
22136W        W94550   4.397  22.191   0.356
22137W        W94551  11.725  18.097   4.767
22138W        W94552  32.059  20.693   4.691
22139W        W94553  29.008  23.572  14.438
22140W        W94554   8.223  28.963   3.153
22141W        W94555   9.366  37.455  13.354
22142W        W94556  31.090  20.029   2.188
22143W        W94557  25.622  19.639   4.758
22144W        W94558  42.513  30.931  10.634
22145W        W94559   8.716  17.730   3.301
22146W        W94560  16.198  14.766  10.954
22147W        W94561  39.529  15.211  11.578
22148W        W94562  38.902  43.286  14.334
22149W        W94563   9.770  36.503   2.859
22150W        W94564  30.098  12.321  10.622
22151W        W94565  33.471   8.734  11.481
22152W        W94566   3.900  40.884   5.214
22153W        W94567   0.262  24.134   1.401
22154W        W94568   1.376   6.869   4.706
22155W        W94569   6.862  36.527   3.748
22156W        W94570  41.382  29.527  11.091
22157W        W94571  41.989  17.567   1.344
22158W        W94572  17.771  34.476   0.316
22159W        W94573  22.682  33.956  10.636
22160W        W94574  20.270  42.789  14.981
22161W        W94575  13.635   5.767  12.457
22162W        W94576  12.359  11.361  13.911
22163W        W94577  36.999   6.219   0.438
22164W        W94578  21.153   1.940   1.255
22165W        W94579  15.301   0.760  12.343
22166W        W94580  38.030  35.416   0.388
22167W        W94581  10.678  28.628   4.116
22168W        W94582  38.442  35.954   0.879
22169W        W94583  14.321  12.785   2.898
22170W        W94584  12.709   6.369  13.339
22171W        W94585  23.556  13.601   0.750
22172W        W94586  14.215  40.849  11.605
22173W        W94587  31.143  11.296  13.370
22174W        W94588  38.906  29.474   0.279
22175W        W94589  24.618  20.748  11.995
22176W        W94590  30.164  43.397  14.514
22177W        W94591  19.559  27.638  10.415
22178W        W94592   7.314   0.481  10.550
22179W        W94593  33.605   4.302  12.826
22180W        W94594  24.489  40.378  13.457
22181W        W94595   5.811   8.755  12.988
22182W        W94596   6.388  37.863   4.639
22183W        W94597  11.837  14.202  11.401
22184W        W94598   4.803  40.538   5.279
22185W        W94599  24.560   2.927  14.515
22186W        W94600   4.808  30.612   2.238
22187W        W94601  16.265  17.675  10.538
22188W        W94602  27.692  26.148  14.487
22189W        W94603  41.875  42.294  13.907
22190W        W94604  38.507  39.526   0.763
22191W        W94605  13.707  15.689   2.680
22192W        W94606  42.351  11.808   0.774
22193W        W94607  39.405  29.587  10.478
22194W        W94608  34.571  44.297   2.739
22195W        W94609  28.471  21.043  11.961
22196W        W94610  13.634  36.006  13.929
22197W        W94611  17.730  20.715  13.056
22198W        W94612   1.911  37.455   3.815
22199W        W94613  31.644  24.979   1.369
22200W        W94614  40.818   6.361  10.421
22201W        W94615  24.609  12.722   4.706
22202W        W94616  11.803  25.193  13.386
22203W        W94617  23.047  43.372  11.045
22204W        W94618  22.699  16.760   5.601
22205W        W94619   3.789  38.501  12.832
22206W        W94620   5.222  19.697   2.693
22207W        W94621  39.825  12.853  12.516
22208W        W94622  41.849  15.798   1.915
22209W        W94623  26.672  43.785   3.364
22210W        W94624  17.161  26.529  14.303
22211W        W94625  21.635  18.613   0.448
22212W        W94626  25.047  10.640  13.984
22213W        W94627  39.916  39.901   3.197
22214W        W94628  40.482  17.217   2.288
22215W        W94629  22.053  25.198  11.479
22216W        W94630  40.497  32.564   4.637
22217W        W94631  38.509  21.061   1.755
22218W        W94632  31.415  16.698   2.345
22219W        W94633  44.984   3.840   3.249
22220W        W94634  19.127  33.073  12.442
22221W        W94635  41.324  31.627  12.399
22222W        W94636  33.393  20.562  12.480
22223W        W94637   5.743  23.017   0.289
22224W        W94638  16.791  18.061  10.421
22225W        W94639  19.238  20.648  11.004
22226W        W94640   1.774  35.366   1.229
22227W        W94641  38.405   6.307  14.434
22228W        W94642  32.414  26.618  10.631
22229W        W94643  29.481  16.312   4.811
22230W        W94644   4.258  36.085   1.712
22231W        W94645   0.986  12.629  11.125
22232W        W94646  25.049   1.256   1.913
22233W        W94647  21.680  10.275   0.417
22234W        W94648  19.659  34.038   2.701
22235W        W94649  36.869  24.573  13.877
22236W        W94650   4.797  30.066  11.540
22237W        W94651  39.852  10.842  12.830
22238W        W94652  12.702  34.550   3.840
22239W        W94653  37.377  25.514   1.357
22240W        W94654   7.348  33.877  13.860
22241W        W94655  26.162  26.601  12.344
22242W        W94656  21.562  19.103   0.910
22243W        W94657  37.514  25.201   0.823
22244W        W94658  25.688  44.949   2.370
22245W        W94659  28.156  10.663   0.483
22246W        W94660  13.171  10.683   3.737
22247W        W94661  12.356  35.487  10.925
22248W        W94662  20.587  39.401   2.194
22249W        W94663  39.435  22.116  12.379
22250W        W94664  15.602  43.989  11.010
22251W        W94665  41.959  23.036   2.235
22252W        W94666   3.285  28.142   4.765
22253W        W94667  37.502  19.282  13.986
22254W        W94668  17.130  36.586   1.745
22255W        W94669  12.632  18.722   0.882
22256W        W94670   5.794  27.589  11.948
22257W        W94671  40.413  39.040  11.377
22258W        W94672  33.486  43.328  12.391
22259W        W94673  14.686  30.616   3.366
22260W        W94674  40.018  32.026   4.294
22261W        W94675  11.824  36.532   4.195
22262W        W94676  44.911  43.276  11.377
22263W        W94677  14.226  14.314  11.497
22264W        W94678   4.418  31.908  11.434
22265W        W94679  12.257   3.955   2.324
22266W        W94680  20.251  38.932  14.015
22267W        W94681  37.000   4.308  14.293
22268W        W94682  35.384  33.391   5.749
22269W        W94683   9.643  42.866   2.894
22270W        W94684  29.101  10.827   1.335
22271W        W94685  21.219  21.531   0.737
22272W        W94686   4.395  43.325   9.561
22273W        W94687   3.951  15.651   2.881
22274W        W94688  39.050  10.242  12.850
22275W        W94689   3.281  42.504   5.238
22276W        W94690  36.497  23.618  12.893
22277W        W94691   8.716  28.006  13.036
22278W        W94692  19.603  15.226   2.689
22279W        W94693   1.795   8.231  13.470
22280W        W94694  26.613  12.289   2.328
22281W        W94695  31.139  41.042   1.836
22282W        W94696  37.523  27.951   3.675
22283W        W94697  34.941  33.474   3.223
22284W        W94698  38.564  11.257  14.338
22285W        W94699  28.175  14.149  13.855
22286W        W94700  37.452  18.694  10.979
22287W        W94701   1.928   7.300   3.385
22288W        W94702  41.900  26.481  13.478
22289W        W94703  15.328   2.423  10.415
22290W        W94704   1.859  32.503   3.735
22291W        W94705  30.643  39.021  11.386
22292W        W94706  28.057   2.829   0.753
22293W        W94707  36.357  11.195   1.708
22294W        W94708  33.547  38.456  14.899
22295W        W94709  19.707  25.981   0.358
22296W        W94710  33.580  41.472   1.787
22297W        W94711  15.680  40.938  11.120
22298W        W94712  18.211  40.986  11.582
22299W        W94713  44.365  29.964  14.345
22300W        W94714   1.801  17.709   1.323
22301W        W94715  34.411   8.759   2.304
22302W        W94716  14.172  33.406  12.037
22303W        W94717  21.157  11.275  10.949
22304W        W94718   3.427   5.726   4.788
22305W        W94719  14.331   2.925   3.723
22306W        W94720  30.909  20.189  12.984
22307W        W94721   6.755  33.119  11.894
22308W        W94722  31.042  28.653   3.744
22309W        W94723  37.849  30.982  12.994
22310W        W94724  39.030  39.016   1.718
22311W        W94725  23.210   9.206  13.883
22312W        W94726  27.615  26.606  10.110
22313W        W94727  41.310  14.820   0.345
22314W        W94728  16.246  23.525   4.723
22315W        W94729  11.133  17.666  10.442
22316W        W94730  26.588  21.057   0.823
22317W        W94731  34.482  14.257  12.454
22318W        W94732  16.573  42.311  10.439
22319W        W94733   4.818  27.178   4.222
22320W        W94734   3.456  15.761   3.679
22321W        W94735  12.195  39.024   9.992
22322W        W94736  33.978  25.540   1.917
22323W        W94737  39.852  29.032  10.592
22324W        W94738  12.273  40.383  14.881
22325W        W94739   9.655  38.058   3.824
22326W        W94740  36.477  12.277  12.448
22327W        W94741  43.383  16.790   0.948
22328W        W94742  18.146  38.530  12.052
22329W        W94743  18.779  22.691   5.284
22330W        W94744  31.021  33.539   4.836
22331W        W94745  37.490  27.172  11.856
22332W        W94746   4.338  14.210   5.207
22333W        W94747  12.181  19.246   2.258
22334W        W94748  25.150  42.326  10.585
22335W        W94749  11.672  36.489  10.643
22336W        W94750  10.377   7.840  12.027
22337W        W94751   6.687  44.489   0.258
22338W        W94752   6.187  39.890  13.792
22339W        W94753  31.482  39.496   3.347
22340W        W94754   5.799   4.321   2.766
22341W        W94755  39.343   5.264  10.911
22342W        W94756  10.381  22.050  12.479
22343W        W94757  33.447  31.057  11.872
22344W        W94758  28.008  13.621   0.417
22345W        W94759  25.171  25.481  10.424
22346W        W94760  29.172  38.016  13.022
22347W        W94761  11.230  15.717  12.039
22348W        W94762  12.760  40.850  10.551
22349W        W94763  23.200   3.939   1.881
22350W        W94764   3.360  33.015  14.317
22351W        W94765  38.937  26.588  12.063
22352W        W94766  43.460   4.760  12.984
22353W        W94767  19.720  19.543   2.857
22354W        W94768  16.683   4.423   4.688
22355W        W94769  13.745   0.308   1.916
22356W        W94770  40.339  34.494   2.710
22357W        W94771  38.366   2.818  12.449
22358W        W94772  11.291  21.680  11.087
22359W        W94773  33.582  21.040   1.426
22360W        W94774  32.569   2.325  14.998
22361W        W94775  27.525  43.843   1.342
22362W        W94776  39.992  16.754   2.270
22363W        W94777  15.151   5.358   2.406
22364W        W94778  27.176  22.040   3.355
22365W        W94779   3.307   1.298   4.740
22366W        W94780  25.512  16.695  12.995
22367W        W94781  32.988  42.842   0.310
22368W        W94782  12.276  13.633   1.427
22369W        W94783   1.794  27.447  11.944
22370W        W94784  12.631  37.484   2.183
22371W        W94785  21.587  10.875  14.959
22372W        W94786  24.073  42.979   1.230
22373W        W94787  32.616  10.678   2.316
22374W        W94788  17.171   1.275  12.423
22375W        W94789   8.724  25.534  14.781
22376W        W94790  38.975  43.330   2.857
22377W        W94791  31.930  12.352   0.261
22378W        W94792  24.527  42.423   2.379
22379W        W94793  20.528  25.607  12.960
22380W        W94794  12.650  36.455   3.738
22381W        W94795   9.839  16.807  11.590
22382W        W94796  19.690   8.339   4.752
22383W        W94797  23.226  43.898  10.475
22384W        W94798   1.286  41.038   3.250
22385W        W94799   8.792  12.277   2.813
22386W        W94800  28.956   3.268  12.069
22387W        W94801  18.223  11.207  14.457
22388W        W94802  39.356  32.580  14.968
22389W        W94803  23.221  10.816   2.836
22390W        W94804  36.870   5.367  12.506
22391W        W94805  25.144  18.276  11.578
22392W        W94806  29.938  17.083   1.319
22393W        W94807  10.353   5.251   1.403
22394W        W94808  22.174  21.740  11.029
22395W        W94809  38.386  18.577   1.272
22396W        W94810   7.308  15.315   4.626
22397W        W94811  26.545  28.548   1.735
22398W        W94812  38.510  20.677  12.061
22399W        W94813  32.534  34.405   0.264
22400W        W94814  38.890  11.679  13.919
22401W        W94815   9.717  10.641  13.051
22402W        W94816  23.547  42.412   2.862
22403W        W94817   6.341   0.866  13.812
22404W        W94818  36.463  26.092   4.640
22405W        W94819  34.471   4.943   0.823
22406W        W94820   4.733  39.985  10.524
22407W        W94821  43.374  30.063  14.030
22408W        W94822  15.090  29.055   0.941
22409W        W94823  34.018   7.870   0.274
22410W        W94824  39.555   6.261  14.808
22411W        W94825   9.345   3.891   4.811
22412W        W94826  21.094  21.105  10.412
22413W        W94827  22.233  29.509  14.894
22414W        W94828  38.488  15.249  12.452
22415W        W94829  37.375   7.670   2.328
22416W        W94830  28.669  24.094  11.412
22417W        W94831   9.702  22.124   1.767
22418W        W94832  27.542  36.053   0.788
22419W        W94833  39.025   0.758  11.043
22420W        W94834  32.534  37.410   3.265
22421W        W94835  16.681   9.667   1.226
22422W        W94836   6.884  22.022   3.750
22423W        W94837  14.223  29.107  12.537
22424W        W94838   9.756  25.645  13.979
22425W        W94839  14.680   1.347   2.365
22426W        W94840  44.800  37.382  13.345
22427W        W94841  15.203  17.101   3.765
22428W        W94842  30.618  15.236  13.393
22429W        W94843  41.806  33.020  14.405
22430W        W94844  32.094   1.386   4.257
22431W        W94845   2.858  43.885   0.936
22432W        W94846  17.131  24.519   3.668
22433W        W94847  23.142  39.013  11.975
22434W        W94848  43.388  25.570   1.695
22435W        W94849  37.059  26.967   3.283
22436W        W94850  31.569  13.267  11.392
22437W        W94851  22.243  31.118  10.523
22438W        W94852  37.984  18.086  13.399
22439W        W94853   0.808  29.100   0.430
22440W        W94854  26.003   1.463   0.916
22441W        W94855  38.325  28.978  12.867
22442W        W94856  11.796   0.839   4.170
22443W        W94857  26.152  41.403  11.444
22444W        W94858  41.501  19.540  10.588
22445W        W94859   3.743  25.992  13.498
22446W        W94860  14.804  13.343  13.817
22447W        W94861  33.626  31.506  12.975
22448W        W94862   0.925   9.664  10.443
22449W        W94863  21.047  32.457  10.462
22450W        W94864  37.380  14.818   0.285
22451W        W94865  29.984  16.313   1.233
22452W        W94866  10.257  33.604   1.419
22453W        W94867   7.684   0.257   4.333
22454W        W94868  24.519  11.318  11.006
22455W        W94869  31.017  28.071  12.557
22456W        W94870  31.621  43.783  14.372
22457W        W94871  24.161  40.843  13.968
22458W        W94872  19.554  21.577   3.633
22459W        W94873   6.861  32.899   2.228
22460W        W94874  24.027   4.313  12.393
22461W        W94875  25.200  15.620  10.427
22462W        W94876  11.206  19.180   1.797
22463W        W94877  19.199  31.998   4.137
22464W        W94878  32.458  41.363  11.999
22465W        W94879  16.727  18.271   4.153
22466W        W94880  23.691  42.866   4.771
22467W        W94881  23.681  26.138   0.870
22468W        W94882   5.208  27.012   5.743
22469W        W94883   3.893  41.888  13.419
22470W        W94884  17.258  33.132  11.588
22471W        W94885  41.437  37.938  12.092
22472W        W94886  41.813  14.298   5.302
22473W        W94887  36.933  22.746   2.725
22474W        W94888   2.227  34.092   0.947
22475W        W94889  32.927  17.802   4.125
22476W        W94890  16.128   7.880   9.639
22477W        W94891  33.020  23.146   2.733
22478W        W94892  25.108  36.878   3.676
22479W        W94893  41.493  41.377   4.114
22480W        W94894   3.252  13.137   9.464
22481W        W94895  33.470  26.974  13.391
22482W        W94896   5.842  37.059  11.598
22483W        W94897  42.429  40.981  11.565
22484W        W94898  11.859  16.095  13.792
22485W        W94899   3.405  30.043  10.493
22486W        W94900  15.765  37.051   4.811
22487W        W94901  12.119  18.713  11.062
22488W        W94902  36.468  17.709  10.607
22489W        W94903   5.721  11.669  12.575
22490W        W94904  32.563  43.789   2.257
22491W        W94905  22.039  11.833  13.989
22492W        W94906  29.661  37.502  12.092
22493W        W94907   0.890  38.976  10.542
22494W        W94908   8.827  32.981  10.546
22495W        W94909  17.184  17.683   5.274
22496W        W94910   5.355  18.169   5.291
22497W        W94911  33.516   7.858   1.758
22498W        W94912  12.818  39.468   4.788
22499W        W94913  13.603   9.172   4.124
22500W        W94914  33.428   5.770   1.283
22501W        W94915  43.942  41.533   4.346
22502W        W94916  33.491  35.512  10.961
22503W        W94917  19.189  16.789   0.726
22504W        W94918  41.861  13.174  11.097
22505W        W94919  27.629  43.272  10.441
22506W        W94920  12.717  27.596   3.722
22507W        W94921  16.219  44.768   4.769
22508W        W94922  20.135   5.909  14.278
22509W        W94923   5.408   3.394   0.900
22510W        W94924   0.940  27.966   0.900
22511W        W94925  37.461  25.584   4.622
22512W        W94926  31.144  39.848  14.819
22513W        W94927  13.272   6.694   5.184
22514W        W94928  44.827  19.664  11.952
22515W        W94929   1.290  34.082   2.897
22516W        W94930   0.400  29.142  14.366
22517W        W94931  10.857  15.200  10.548
22518W        W94932  37.000  13.600  12.526
22519W        W94933  33.593  41.838  10.407
22520W        W94934  32.394  25.661  13.325
22521W        W94935  23.150  11.274  11.479
22522W        W94936  33.621  14.290  10.134
22523W        W94937  16.108  20.142  13.046
22524W        W94938   1.886  25.570   2.723
22525W        W94939  19.241  11.276  12.014
22526W        W94940  32.889  36.869  13.019
22527W        W94941   8.365  28.076  14.440
22528W        W94942  27.141   4.248  11.543
22529W        W94943  33.469   0.983  14.333
22530W        W94944  42.860  11.624   3.703
22531W        W94945   1.283  39.955   0.888
22532W        W94946  31.065  36.480  14.988
22533W        W94947  34.482  31.026   1.779
22534W        W94948  31.453  39.877   2.323
22535W        W94949  15.803   9.715   4.343
22536W        W94950   8.886  15.622   0.727
22537W        W94951  34.120   0.299   2.812
22538W        W94952  34.379   9.841  11.593
22539W        W94953   8.171  28.967   4.170
22540W        W94954  41.034   6.738  13.540
22541W        W94955  26.188   5.752  11.387
22542W        W94956  27.994  27.579   2.668
22543W        W94957  40.544  21.207   3.239
22544W        W94958  22.163  35.993  14.374
22545W        W94959  23.217  37.836   2.841
22546W        W94960   9.677  31.609  10.967
22547W        W94961  21.199   7.189  10.437
22548W        W94962   1.876  22.593  14.416
22549W        W94963  18.725  13.777   2.406
22550W        W94964  41.028   7.269  11.504
22551W        W94965  31.591   6.292   3.729
22552W        W94966  24.632  27.058   4.174
22553W        W94967  32.917   6.900   1.915
22554W        W94968  24.092  14.111   0.428
22555W        W94969  18.645  18.093   3.327
22556W        W94970  15.135  19.123  11.938
22557W        W94971  36.898   2.959  13.927
22558W        W94972  37.487  19.594   4.352
22559W        W94973  25.097   2.415   1.921
22560W        W94974  32.906  34.958   4.160
22561W        W94975  36.389  40.007  14.443
22562W        W94976   3.277   5.355   2.822
22563W        W94977  35.885  16.725   1.796
22564W        W94978  28.523  16.681   2.404
22565W        W94979  33.594  31.111  13.418
22566W        W94980  30.551  43.876   1.390
22567W        W94981   2.772  28.542   2.877
22568W        W94982  33.474  30.937  14.341
22569W        W94983  43.468  24.490  12.837
22570W        W94984  30.553  40.487  11.552
22571W        W94985  34.462  25.586   0.444
22572W        W94986  13.204  14.179   1.797
22573W        W94987  28.112   4.397   3.723
22574W        W94988  43.858  19.602  14.487
22575W        W94989  43.426   4.268   1.300
22576W        W94990  13.675  22.997   1.265
22577W        W94991   3.244   0.338  12.889
22578W        W94992  14.645   5.209  11.873
22579W        W94993  44.280   1.931   1.419
22580W        W94994  13.693  22.641   3.344
22581W        W94995   8.252  18.731   0.940
22582W        W94996   7.315  17.101   4.789
22583W        W94997  27.473  43.870  11.964
22584W        W94998  25.019  12.712   3.192
22585W        W94999  35.371  42.432  14.393
22586W        W95000  12.754  10.728   1.738
22587W        W95001   2.290  32.423   3.358
22588W        W95002  20.722  13.328  10.637
22589W        W95003  33.391   0.287  11.884
22590W        W95004  40.518  38.925   2.230
22591W        W95005  35.042  19.089  14.007
22592W        W95006  35.554  27.978   1.444
22593W        W95007  39.455   3.759   2.242
22594W        W95008  22.588   8.780  13.926
22595W        W95009  20.727  12.263  11.373
22596W        W95010   8.175  28.114   1.326
22597W        W95011   7.759  37.504   3.231
22598W        W95012  30.955  30.961  12.546
22599W        W95013  19.054  18.098   1.747
22600W        W95014  28.469  30.045  12.035
22601W        W95015  31.082  11.684  12.079
22602W        W95016  21.675  20.103  10.456
22603W        W95017  28.454   4.811   4.229
22604W        W95018   4.332  15.784  13.837
22605W        W95019  25.017  32.602   1.814
22606W        W95020   7.304  13.258  14.339
22607W        W95021  41.386  27.608  12.509
22608W        W95022  34.599   9.823   2.771
22609W        W95023  44.429  20.728  13.052
22610W        W95024  28.122  11.754  11.100
22611W        W95025  32.953  11.841   4.603
22612W        W95026  43.454  20.136  12.886
22613W        W95027  41.335  39.462   2.683
22614W        W95028   4.258  16.729  14.492
22615W        W95029  33.612   4.415   0.917
22616W        W95030  18.065  26.100   0.812
22617W        W95031   2.432  29.959  13.483
22618W        W95032  24.596  22.063   4.141
22619W        W95033  35.040  12.842   4.291
22620W        W95034  44.361  43.300  11.958
22621W        W95035  43.880  35.923  13.413
22622W        W95036  11.178  38.440   2.321
22623W        W95037  22.165  26.156   3.848
22624W        W95038  35.474  38.928  10.643
22625W        W95039  13.749  43.487   2.393
22626W        W95040  31.506  17.232  13.928
22627W        W95041  15.086  42.382   4.215
22628W        W95042  35.864  44.911   0.896
22629W        W95043  33.070  39.364   0.875
22630W        W95044  40.921  19.679  11.435
22631W        W95045   5.707  32.422  13.901
22632W        W95046  39.553  41.324  14.830
22633W        W95047  36.972  22.160   4.659
22634W        W95048   3.305  42.019   2.848
22635W        W95049  37.059   5.838   0.283
22636W        W95050  18.281  20.728   2.681
22637W        W95051  43.414  36.008  14.800
22638W        W95052  19.202  35.078   4.784
22639W        W95053  40.861  10.776   0.484
22640W        W95054  19.170  31.099   4.785
22641W        W95055  36.434   2.377  11.572
22642W        W95056  21.626  40.409  12.854
22643W        W95057   2.886  22.619  14.944
22644W        W95058   4.859  29.033   1.828
22645W        W95059  14.818   3.322   4.701
22646W        W95060  24.094  19.163  11.984
22647W        W95061  27.031  21.666  13.522
22648W        W95062  37.046  31.076  14.494
22649W        W95063  17.796  44.967   3.633
22650W        W95064  36.420  20.635   3.375
22651W        W95065  27.639  26.516   3.793
22652W        W95066  15.125  23.079  11.435
22653W        W95067  30.461  32.486  13.829
22654W        W95068  32.892  19.689  13.408
22655W        W95069  11.232  24.978   1.827
22656W        W95070  40.873  11.339  11.027
22657W        W95071  15.224   6.415  12.870
22658W        W95072  24.184   0.815  14.889
22659W        W95073  29.439  21.548   4.166
22660W        W95074  43.291  12.241   4.834
22661W        W95075  36.067  33.903   4.224
22662W        W95076  31.416  18.105   3.385
22663W        W95077  13.150   9.816  13.521
22664W        W95078   1.881  26.001  13.009
22665W        W95079  35.982  31.907   4.632
22666W        W95080  40.428   0.753   2.771
22667W        W95081  26.564   2.722  13.014
22668W        W95082   6.204  15.763   0.395
22669W        W95083  44.863  43.361  10.634
22670W        W95084  44.385  39.902  14.409
22671W        W95085  24.059  18.064   1.229
22672W        W95086  20.629  15.783  11.889
22673W        W95087  35.091  39.950   2.413
22674W        W95088  10.868  42.821   1.357
22675W        W95089  16.767  30.005   0.404
22676W        W95090  41.794   0.977   0.951
22677W        W95091  30.982  41.035   2.326
22678W        W95092  41.381   8.889   1.324
22679W        W95093   4.351   5.409   3.754
22680W        W95094  17.706   9.358   0.378
22681W        W95095  38.998  42.861  13.991
22682W        W95096   9.812  19.663  10.411
22683W        W95097  39.333  31.459  13.422
22684W        W95098   7.727  44.346   3.167
22685W        W95099  16.721   0.451   4.271
22686W        W95100   2.808   9.373   0.784
22687W        W95101  36.932  36.031   2.217
22688W        W95102  13.818   1.432   4.762
22689W        W95103  19.542  42.962   5.259
22690W        W95104   4.342  13.237  12.402
22691W        W95105   8.737  29.160   4.829
22692W        W95106  23.239  23.669  14.325
22693W        W95107   8.700  36.491   2.376
22694W        W95108  33.555   3.832  10.573
22695W        W95109  25.690  43.271   2.725
22696W        W95110  22.735  29.432   3.186
22697W        W95111   1.265  38.568  11.445
22698W        W95112   3.763  36.413   2.408
22699W        W95113  19.644  22.095   4.228
22700W        W95114  41.923  38.570   1.843
22701W        W95115  18.062  40.329   0.293
22702W        W95116  35.499  41.304  12.865
22703W        W95117   4.783   9.380  11.989
22704W        W95118   7.255  35.386  11.466
22705W        W95119  43.909  13.700  11.920
22706W        W95120  39.955   5.932  11.071
22707W        W95121   8.719  19.692  12.467
22708W        W95122  44.382  31.982   2.239
22709W        W95123  17.698  36.897  12.580
22710W        W95124  18.630  27.482   1.813
22711W        W95125  35.456  34.030   3.219
22712W        W95126   9.792   3.763   1.902
22713W        W95127  11.323  43.831  14.893
22714W        W95128  25.619  42.487   1.926
22715W        W95129   4.220   6.308  13.450
22716W        W95130  10.369  24.060   1.327
22717W        W95131  41.464  30.575   4.644
22718W        W95132  22.545  19.615  13.481
22719W        W95133  23.513  17.709   2.844
22720W        W95134   0.424  26.067   0.374
22721W        W95135  19.130  36.074   1.415
22722W        W95136  14.654   5.255   5.302
22723W        W95137  36.947  35.945  14.293
22724W        W95138  30.637  27.002  12.845
22725W        W95139  17.718  23.490  14.951
22726W        W95140  12.155  27.026  14.794
22727W        W95141  31.117  31.453  13.036
22728W        W95142  18.171  24.514  14.512
22729W        W95143   8.373  11.167   1.243
22730W        W95144  15.148  29.126  14.932
22731W        W95145  40.978  32.044  11.001
22732W        W95146   8.662  32.951   1.323
22733W        W95147  16.185  13.331   3.291
22734W        W95148  38.364  31.141   3.230
22735W        W95149  10.707  21.563   3.666
22736W        W95150   9.669  28.501  11.561
22737W        W95151  13.616  14.715   4.160
22738W        W95152  40.943  15.733  12.969
22739W        W95153   6.785   8.783   3.847
22740W        W95154   8.761   4.885   3.269
22741W        W95155  20.070   4.441   2.679
22742W        W95156  19.118  23.574   1.357
22743W        W95157  13.716  37.419  13.547
22744W        W95158  11.199  28.091  13.917
22745W        W95159  34.880  35.896   0.920
22746W        W95160  38.058  14.650  11.487
22747W        W95161  18.687  30.463   1.441
22748W        W95162  42.523   8.666  12.446
22749W        W95163  34.099  43.386  14.859
22750W        W95164  28.157   3.956  12.370
22751W        W95165  24.051  38.882   3.653
22752W        W95166  21.262   5.930  14.992
22753W        W95167  38.060   1.823  11.930
22754W        W95168  44.445  17.689   4.836
22755W        W95169  34.037  42.357   1.310
22756W        W95170  30.551  24.178  12.946
22757W        W95171  19.264   0.744   9.511
22758W        W95172   7.693  11.854  14.857
22759W        W95173  36.919  37.541   3.308
22760W        W95174  17.619  33.033   3.256
22761W        W95175  29.947   5.246  12.348
22762W        W95176  14.114  22.100  10.900
22763W        W95177  31.054  33.591   3.853
22764W        W95178  36.458  34.377  13.476
22765W        W95179  29.045  26.586  13.897
22766W        W95180  33.428  41.836   2.898
22767W        W95181  32.933   3.721   0.923
22768W        W95182  43.016  13.605   2.212
22769W        W95183   6.738  24.697  13.493
22770W        W95184  37.882  12.677   3.656
22771W        W95185   5.829  40.910   2.715
22772W        W95186  41.794   8.797  13.927
22773W        W95187  24.005  41.496  14.927
22774W        W95188  36.482   1.917   1.784
22775W        W95189  32.101  41.883   3.189
22776W        W95190  22.040  28.065  11.610
22777W        W95191  31.457  39.334  11.003
22778W        W95192  24.095  44.417  11.433
22779W        W95193  12.719   9.174   1.829
22780W        W95194  23.107  26.525   4.641
22781W        W95195  33.580  26.548   2.220
22782W        W95196  21.523  15.777  13.341
22783W        W95197  34.917   8.204  13.931
22784W        W95198  42.360   1.253  12.877
22785W        W95199   2.772  35.403  12.993
22786W        W95200  16.145  29.955   3.284
22787W        W95201   1.915  24.136  13.992
22788W        W95202  38.939  22.614   9.970
22789W        W95203  39.022   1.397  12.021
22790W        W95204  30.599  27.955   1.929
22791W        W95205  40.518  21.620   2.689
22792W        W95206  20.604  32.908  12.050
22793W        W95207   6.302   1.802   3.868
22794W        W95208  24.580  36.567   0.882
22795W        W95209   3.256  34.485   1.406
22796W        W95210  39.333  36.525   2.286
22797W        W95211   0.817  35.911  10.470
22798W        W95212  21.226  19.173   3.360
22799W        W95213   3.427  32.489   2.686
22800W        W95214   6.386  42.013   1.867
22801W        W95215  21.048   7.740   1.273
22802W        W95216  40.481  17.767  10.962
22803W        W95217   8.252   6.361  12.046
22804W        W95218  25.182  29.645  11.088
22805W        W95219  30.931  42.333  10.889
22806W        W95220  35.446  32.002  13.867
22807W        W95221  41.522  36.983   2.662
22808W        W95222  32.001   1.419   1.743
22809W        W95223   7.282  31.448  13.546
22810W        W95224   4.815  32.918   1.332
22811W        W95225  26.514  40.940   0.285
22812W        W95226  40.420  39.401  13.420
22813W        W95227  28.946   1.823   4.836
22814W        W95228   8.401   0.790   2.902
22815W        W95229  19.641  43.955   1.813
22816W        W95230   6.918   1.826  10.621
22817W        W95231  36.589  44.769   3.157
22818W        W95232  35.861  16.288   0.780
22819W        W95233  15.702  13.106  11.606
22820W        W95234  42.482  36.363   1.356
22821W        W95235  33.125  12.297  11.089
22822W        W95236   1.888  24.196   3.342
22823W        W95237  16.187   9.223  10.509
22824W        W95238   7.197  29.439  13.471
22825W        W95239  25.181  30.613  10.928
22826W        W95240  22.728  12.346   3.778
22827W        W95241   0.984  38.489   3.813
22828W        W95242  44.759  19.175  13.445
22829W        W95243   4.945  14.096  14.958
22830W        W95244  11.129  44.923  13.804
22831W        W95245   1.758  37.409  11.997
22832W        W95246  39.021  13.648  11.925
22833W        W95247   6.888  28.080   1.306
22834W        W95248   7.192  30.961   4.298
22835W        W95249  26.106  31.588  10.954
22836W        W95250  18.273  36.357   2.306
22837W        W95251   8.853  16.568  12.866
22838W        W95252  37.493   8.855   2.714
22839W        W95253  19.261  37.974   0.945
22840W        W95254  21.621  28.976  14.879
22841W        W95255   3.854  10.801  13.044
22842W        W95256   8.180  37.943   2.225
22843W        W95257  14.328  23.006  12.514
22844W        W95258  38.384  16.318  10.996
22845W        W95259  40.909  40.417  14.449
22846W        W95260   5.423  11.238   2.661
22847W        W95261   8.711  24.185  10.569
22848W        W95262  17.602  34.911  12.038
22849W        W95263  37.355   9.393   3.258
22850W        W95264   4.327  11.322  11.027
22851W        W95265  27.634  27.972   4.212
22852W        W95266  40.990  30.994  14.951
22853W        W95267  41.801  37.066   2.815
22854W        W95268  10.736   7.185  11.008
22855W        W95269  35.068  27.526   2.879
22856W        W95270   7.229  35.458   2.743
22857W        W95271  10.632  34.925   3.822
22858W        W95272  14.191  38.860   1.839
22859W        W95273  40.937  36.389  13.520
22860W        W95274  34.580  23.697  11.499
22861W        W95275  33.961  31.953   0.752
22862W        W95276   9.305   4.405  10.617
22863W        W95277   5.222  41.829  14.993
22864W        W95278   9.257   3.343   0.319
22865W        W95279  43.895  11.192   2.753
22866W        W95280  10.784  44.401  13.811
22867W        W95281  40.379  24.181  12.429
22868W        W95282   2.340  12.308   1.308
22869W        W95283  27.159  24.104  11.470
22870W        W95284   7.184  24.495  13.307
22871W        W95285   4.838  29.631   0.423
22872W        W95286  28.934  24.095  14.948
22873W        W95287   4.220  31.137   1.863
22874W        W95288  20.090  21.026  14.911
22875W        W95289  34.993   6.877  11.095
22876W        W95290  31.472  38.434  11.025
22877W        W95291  37.972  10.759   0.364
22878W        W95292  12.163  35.898  12.003
22879W        W95293  17.751   7.846  11.534
22880W        W95294   4.443   5.378  11.546
22881W        W95295  44.791  15.659   3.301
22882W        W95296  44.862  13.840  13.900
22883W        W95297   8.886  30.503  10.471
22884W        W95298  32.062  34.078  12.934
22885W        W95299   0.746  12.135  10.892
22886W        W95300  22.194  30.038   1.845
22887W        W95301  42.349   3.451   4.230
22888W        W95302  29.959  16.577  12.459
22889W        W95303  18.648  20.638  12.044
22890W        W95304  25.540   4.806   0.900
22891W        W95305  39.881  41.467  11.419
22892W        W95306  36.393  28.626   4.803
22893W        W95307   1.248  44.399  12.906
22894W        W95308   1.460  27.587  14.933
22895W        W95309   5.400  43.822   3.719
22896W        W95310  22.611   7.717   3.736
22897W        W95311  24.130   6.228   0.806
22898W        W95312   4.814  24.613   0.867
22899W        W95313  36.952   2.262   2.306
22900W        W95314   2.368  18.689  11.987
22901W        W95315  36.073   6.295   1.448
22902W        W95316  35.988  41.971  10.969
22903W        W95317  30.427  25.598   1.833
22904W        W95318  14.657  12.663  11.890
22905W        W95319   8.811  43.359   3.766
22906W        W95320  27.134   4.220   0.329
22907W        W95321  16.800  43.367  11.408
22908W        W95322  25.151  31.935  11.119
22909W        W95323  21.252  34.873   2.314
22910W        W95324  22.724  39.487   2.743
22911W        W95325   9.700  41.508   3.747
22912W        W95326  12.231  14.318  12.046
22913W        W95327  36.589  21.206   1.893
22914W        W95328  17.104  22.533  13.470
22915W        W95329  44.467  23.044   0.316
22916W        W95330  10.265  16.681   0.931
22917W        W95331  20.047  17.704  12.858
22918W        W95332  41.931  23.235  10.529
22919W        W95333  14.289  22.007  12.384
22920W        W95334  13.116   6.902  10.631
22921W        W95335  32.900   3.713   2.258
22922W        W95336   8.260  10.786  11.580
22923W        W95337  43.799  21.554   3.381
22924W        W95338  36.086   3.320  12.868
22925W        W95339  28.034  22.614  11.382
22926W        W95340   7.734  24.129  10.414
22927W        W95341  29.078  36.390   3.843
22928W        W95342  15.199  42.514   0.291
22929W        W95343  36.097  22.659  11.480
22930W        W95344  23.512  15.176  10.113
22931W        W95345  18.663  13.832  11.409
22932W        W95346  16.715  23.596   4.192
22933W        W95347  38.420  40.534  14.364
22934W        W95348  38.362  17.080  11.434
22935W        W95349  43.355  37.981   3.233
22936W        W95350  22.733   4.827   5.169
22937W        W95351  32.949  41.886   2.189
22938W        W95352  34.436   8.311   1.880
22939W        W95353   1.791  12.670  14.401
22940W        W95354  31.645  28.524   3.327
22941W        W95355  29.483   5.715  11.520
22942W        W95356  43.320   9.690   2.732
22943W        W95357  13.322  35.598   3.171
22944W        W95358   9.769   3.234  10.914
22945W        W95359  26.541   0.371  12.542
22946W        W95360  26.160  35.439   0.767
22947W        W95361  39.057  11.675   4.217
22948W        W95362  34.891  10.180   4.146
22949W        W95363   2.956  42.366   3.270
22950W        W95364  31.593  35.988  14.844
22951W        W95365  41.822  10.298  13.998
22952W        W95366  44.401  32.945  14.761
22953W        W95367  27.110  18.103   1.870
22954W        W95368   7.323  26.549  10.143
22955W        W95369   6.738  26.079  12.066
22956W        W95370  36.396   5.930  10.942
22957W        W95371  11.158  25.144  13.031
22958W        W95372   8.678  23.216   1.694
22959W        W95373   0.762  25.671  12.922
22960W        W95374   9.706  10.826  14.872
22961W        W95375   0.321   6.870   4.624
22962W        W95376  22.097  18.295   4.113
22963W        W95377  39.491   9.211   0.901
22964W        W95378  39.339  35.995  10.555
22965W        W95379   5.928   9.822  10.441
22966W        W95380  42.961  39.988   1.736
22967W        W95381   7.246   1.812  12.421
22968W        W95382   8.749   9.688  13.962
22969W        W95383  11.752   9.751  13.449
22970W        W95384  28.164  29.670   0.853
22971W        W95385  41.947  20.068   2.872
22972W        W95386  41.493  16.723  10.907
22973W        W95387  22.723  33.402  12.503
22974W        W95388  22.143  14.138   2.817
22975W        W95389  14.201  20.739   0.475
22976W        W95390  11.274  43.410   4.352
22977W        W95391  23.178  11.254  12.959
22978W        W95392  36.476  18.064   2.851
22979W        W95393   3.424   5.379  13.430
22980W        W95394  23.218   9.662   0.862
22981W        W95395   7.725  19.643  12.565
22982W        W95396  16.170  19.074  13.959
22983W        W95397  22.143   7.746   3.850
22984W        W95398   6.313  17.784  14.331
22985W        W95399  38.405  27.545   2.312
22986W        W95400   2.817  40.901  11.954
22987W        W95401  36.483  14.600   4.186
22988W        W95402   5.787  37.446   3.743
22989W        W95403  22.124  38.340  11.107
22990W        W95404  19.142  15.087   2.273
22991W        W95405  11.788  21.159  13.946
22992W        W95406  17.257  17.641  13.834
22993W        W95407  28.609  36.052  10.586
22994W        W95408  24.547   2.458   2.776
22995W        W95409  41.978  21.631  10.514
22996W        W95410  39.848  40.948  10.522
22997W        W95411  25.704  18.640  12.858
22998W        W95412  11.658  28.501   2.268
22999W        W95413  24.186  18.777   0.751
23000W        W95414   1.340   7.328  11.877
23001W        W95415  30.135  32.625   4.281
23002W        W95416  43.825  34.001  10.636
23003W        W95417  34.477  42.343   2.836
23004W        W95418  25.009  26.966   3.860
23005W        W95419  25.007  42.977  10.114
23006W        W95420  43.818   6.687   2.221
23007W        W95421   8.714  34.392   3.769
23008W        W95422  17.129   4.713   0.740
23009W        W95423  29.610  31.103   4.251
23010W        W95424  26.500  34.097  12.880
23011W        W95425  34.573   7.402  10.571
23012W        W95426  42.419  16.074   3.306
23013W        W95427   6.243  30.111  14.296
23014W        W95428  19.050  25.472  14.880
23015W        W95429  20.123  44.295   2.267
23016W        W95430   5.731  24.210   2.291
23017W        W95431  26.985  23.097  14.886
23018W        W95432   7.835   8.789  14.855
23019W        W95433  32.481  27.086  13.797
23020W        W95434  39.559  39.560  12.459
23021W        W95435  38.418  18.068  10.550
23022W        W95436  23.170  12.328   2.694
23023W        W95437   1.955  41.980   9.944
23024W        W95438  43.381  42.415  10.928
23025W        W95439  44.836  24.121   3.340
23026W        W95440  35.058  35.902   2.254
23027W        W95441  16.088  43.004   4.266
23028W        W95442  33.016  43.924  11.518
23029W        W95443  39.436  23.559   0.312
23030W        W95444  28.011  19.226   4.605
23031W        W95445  34.105  40.488   4.182
23032W        W95446  30.065  38.072   2.293
23033W        W95447   3.877  29.584  10.048
23034W        W95448  22.250   9.819  14.791
23035W        W95449  17.156  19.727   3.221
23036W        W95450  27.122  22.214   4.662
23037W        W95451   6.295  11.766  11.860
23038W        W95452  41.832  30.568  11.544
23039W        W95453  12.126   2.278   1.406
23040W        W95454  36.958   5.810  13.457
23041W        W95455  25.495  27.036  14.328
23042W        W95456  26.015  13.661  11.914
23043W        W95457  29.002  22.150   0.783
23044W        W95458   1.880  44.340  13.372
23045W        W95459  37.933  24.103   2.288
23046W        W95460  28.498  43.770   1.432
23047W        W95461  17.289   3.901   1.698
23048W        W95462  44.798  32.457   0.297
23049W        W95463   9.834  17.742   4.727
23050W        W95464  13.646  21.238   0.298
23051W        W95465  37.370  14.746  10.959
23052W        W95466   5.381  11.303  10.970
23053W        W95467  33.086  19.158   4.306
23054W        W95468  42.386  10.221   1.804
23055W        W95469  14.228  44.418   2.376
23056W        W95470  30.074  27.191  13.027
23057W        W95471  41.980  33.922   1.239
23058W        W95472  22.158  37.924   0.375
23059W        W95473  14.240  21.065   3.736
23060W        W95474  30.012  33.997  13.447
23061W        W95475  39.426   9.698   0.749
23062W        W95476  43.952   1.770   2.357
23063W        W95477  13.175   1.837   1.437
23064W        W95478  36.518  23.210  12.994
23065W        W95479   6.863  12.798  13.345
23066W        W95480  40.521  43.908   1.922
23067W        W95481  27.050  32.394  11.899
23068W        W95482  10.657  19.069  12.403
23069W        W95483  42.344  30.076   1.849
23070W        W95484  20.065  38.546   3.175
23071W        W95485  12.338  38.359  10.910
23072W        W95486   0.359  21.680  14.441
23073W        W95487  34.556  35.983  14.003
23074W        W95488  11.266  26.202   1.304
23075W        W95489  31.631   3.218   1.251
23076W        W95490  32.111  14.199   3.174
23077W        W95491  40.384  20.174  13.933
23078W        W95492   1.786  38.875  12.520
23079W        W95493  33.880  21.172   4.254
23080W        W95494  38.025  28.655  11.539
23081W        W95495  20.620  28.510  11.433
23082W        W95496  32.586  10.789  10.940
23083W        W95497  34.976  41.490   3.165
23084W        W95498  23.171  10.845   3.847
23085W        W95499  39.035  22.144  11.068
23086W        W95500  23.543   1.879   1.344
23087W        W95501  22.108  42.783  12.970
23088W        W95502  25.600  37.537   0.942
23089W        W95503  32.919   3.754  13.351
23090W        W95504  14.690  24.507  14.850
23091W        W95505  39.965  43.898   3.223
23092W        W95506  11.252  31.099  13.036
23093W        W95507  13.115  40.878  13.945
23094W        W95508  38.947  37.462  14.289
23095W        W95509  43.921  39.439   2.238
23096W        W95510  42.934  26.188  11.396
23097W        W95511  30.094  27.143  11.988
23098W        W95512  14.218   9.347   5.773
23099W        W95513   9.371  17.138   1.912
23100W        W95514  30.493  42.875  12.079
23101W        W95515   3.715  14.206  11.458
23102W        W95516  40.906  39.540  13.438
23103W        W95517   5.855  37.971   1.808
23104W        W95518  36.914  34.106  10.558
23105W        W95519  43.987  35.531  12.950
23106W        W95520  16.120  28.662  11.468
23107W        W95521  44.461  16.635   4.599
23108W        W95522  32.480  19.775   2.881
23109W        W95523  13.787  43.328  12.922
23110W        W95524   8.881  31.523   1.778
23111W        W95525  12.788  11.366  12.964
23112W        W95526  26.195  24.724  12.377
23113W        W95527  16.679   1.319   1.366
23114W        W95528  43.498  16.763   3.212
23115W        W95529  36.893  25.672   0.953
23116W        W95530  10.381   4.902   4.642
23117W        W95531  26.183  19.179   4.342
23118W        W95532  42.412  38.030   3.223
23119W        W95533  41.798  10.643   3.219
23120W        W95534  15.324  44.486  12.862
23121W        W95535  14.753  32.909  12.459
23122W        W95536   9.184  38.024   2.332
23123W        W95537  43.960  24.094  11.129
23124W        W95538  41.820  20.224  10.605
23125W        W95539   7.831  36.514   2.820
23126W        W95540  10.758  34.591  12.873
23127W        W95541   4.878  29.072  12.914
23128W        W95542  29.459  24.606  14.781
23129W        W95543   3.436   3.427  10.139
23130W        W95544  13.202  10.193   1.286
23131W        W95545  12.827  41.433   4.741
23132W        W95546  25.488  27.624   3.858
23133W        W95547   0.854  11.142   3.333
23134W        W95548  10.673  18.132   2.775
23135W        W95549  22.728  31.580  12.978
23136W        W95550  23.081   6.395  11.468
23137W        W95551  39.445   8.722   3.745
23138W        W95552  19.043  13.123   0.776
23139W        W95553  26.102   9.743  13.378
23140W        W95554  33.984  42.972   2.736
23141W        W95555   7.803  31.538  10.583
23142W        W95556  11.845  37.860   2.378
23143W        W95557   8.291  23.114   3.733
23144W        W95558  12.165  35.389  12.010
23145W        W95559  42.789  17.259  14.342
23146W        W95560  25.507   9.767   4.725
23147W        W95561  11.694  35.898  14.845
23148W        W95562  29.469  30.559  10.586
23149W        W95563  31.506  35.497   0.274
23150W        W95564  19.552  22.551  14.870
23151W        W95565  36.050  42.959  12.823
23152W        W95566  41.837   4.265  12.097
23153W        W95567   7.741  11.817  11.533
23154W        W95568  21.631   7.350   3.776
23155W        W95569   2.803   0.321   0.788
23156W        W95570  19.145  38.390  13.048
23157W        W95571  42.323  35.575  13.058
23158W        W95572  22.068  39.427   4.258
23159W        W95573  42.891  27.613   2.882
23160W        W95574  31.402  29.456   3.167
23161W        W95575   3.867  32.121  10.905
23162W        W95576   3.451  19.200   3.733
23163W        W95577  42.493  32.955  10.612
23164W        W95578  42.846  36.466   1.284
23165W        W95579   8.305  23.641  10.449
23166W        W95580   4.789  20.708  11.938
23167W        W95581   6.329  19.644  13.999
23168W        W95582  35.884  28.043   4.327
23169W        W95583  30.155  40.903   2.282
23170W        W95584  34.092  20.748   4.733
23171W        W95585   7.876   5.225   4.706
23172W        W95586  43.292   2.931  12.069
23173W        W95587  42.341  32.127   5.283
23174W        W95588  42.029   3.397   3.352
23175W        W95589  35.592  15.643  10.563
23176W        W95590  13.655   3.823  13.011
23177W        W95591  14.122  23.611  12.516
23178W        W95592  30.964  40.988   1.306
23179W        W95593  15.604  20.575   4.647
23180W        W95594  36.887   2.771   4.169
23181W        W95595  39.462   7.288   4.652
23182W        W95596  13.249  33.487  10.405
23183W        W95597   9.758  41.033   0.392
23184W        W95598  29.494  38.867   0.364
23185W        W95599  10.698   1.966  13.941
23186W        W95600  37.452  44.397  14.009
23187W        W95601  22.060  42.029   1.795
23188W        W95602  25.138  18.575   3.149
23189W        W95603  41.865  16.771   2.819
23190W        W95604   0.349  44.980   3.713
23191W        W95605  30.464   6.733  13.010
23192W        W95606  39.839  37.020  11.855
23193W        W95607   4.406  25.196   4.218
23194W        W95608  33.939  19.716   0.907
23195W        W95609  25.985   0.777  10.956
23196W        W95610  27.488  39.994  10.533
23197W        W95611  12.227  27.133  11.598
23198W        W95612  21.733  33.482  11.020
23199W        W95613   5.744   3.820   2.249
23200W        W95614  38.850  40.014  12.519
23201W        W95615  11.351   6.911   1.451
23202W        W95616  27.172  33.498   1.437
23203W        W95617  21.032  30.078  11.910
23204W        W95618  21.644  40.443  13.958
23205W        W95619  31.026  15.820   4.168
23206W        W95620  22.580  44.278  14.762
23207W        W95621  35.064  22.519   2.287
23208W        W95622   7.258  22.144   0.408
23209W        W95623  38.036  24.563   2.207
23210W        W95624  30.095  34.573  11.930
23211W        W95625   1.444  22.532   2.860
23212W        W95626   3.326  23.551  12.035
23213W        W95627  10.340  36.034   0.421
23214W        W95628  22.115  12.710  14.976
23215W        W95629  12.361  16.105   2.370
23216W        W95630   9.349  42.910   1.445
23217W        W95631   8.338  19.202  13.832
23218W        W95632   1.785   5.424  10.487
23219W        W95633   0.477   4.719  13.059
23220W        W95634  35.467  16.283  10.471
23221W        W95635  12.325   5.793   2.876
23222W        W95636   9.180  10.355  13.911
23223W        W95637  36.036  10.286   1.902
23224W        W95638  34.095  23.709  10.632
23225W        W95639   8.214  40.403   2.195
23226W        W95640  32.428  17.074  10.636
23227W        W95641  16.630  14.118  13.965
23228W        W95642  33.549  27.176  11.406
23229W        W95643  16.652  44.862   5.198
23230W        W95644  33.920  44.933   4.784
23231W        W95645  28.548  25.063  13.454
23232W        W95646  25.067  19.217   2.663
23233W        W95647  15.786  10.681  14.813
23234W        W95648   6.336  10.241  12.917
23235W        W95649  30.982  19.202   1.437
23236W        W95650  39.355  22.018  11.400
23237W        W95651   9.764   9.795  13.038
23238W        W95652  37.360   5.308   4.241
23239W        W95653  33.446  24.091  12.046
23240W        W95654  28.525   9.887  14.968
23241W        W95655  19.733  43.926  13.026
23242W        W95656  21.677  37.484  14.880
23243W        W95657  15.648  34.419   4.714
23244W        W95658  18.205  21.592  13.371
23245W        W95659  26.970  14.687   0.943
23246W        W95660  13.652  26.586   4.134
23247W        W95661   5.259  19.576  11.527
23248W        W95662   7.303  43.900   4.121
23249W        W95663  44.796  19.599   0.444
23250W        W95664   4.421  24.574  14.411
23251W        W95665  40.436  10.216   2.263
23252W        W95666  11.259  20.200  14.392
23253W        W95667  21.539  44.407  10.973
23254W        W95668  31.518  19.655  14.867
23255W        W95669  34.552  28.493   2.331
23256W        W95670  30.505  29.087   3.239
23257W        W95671   4.230  21.114  11.021
23258W        W95672  35.472  11.129   1.932
23259W        W95673  44.812  40.369  13.545
23260W        W95674  31.130  10.642   2.376
23261W        W95675   4.745  43.863   2.414
23262W        W95676  33.466  43.357   0.248
23263W        W95677  29.455   2.960   4.617
23264W        W95678  41.408   1.864   0.851
23265W        W95679   4.724   2.407  11.383
23266W        W95680   8.672  24.012   0.386
23267W        W95681  32.946  39.994   3.268
23268W        W95682   8.658  33.411  13.993
23269W        W95683  18.271  17.744   2.792
23270W        W95684  21.716  43.426   3.250
23271W        W95685   1.294  19.553   1.448
23272W        W95686  12.635   4.302  13.800
23273W        W95687  21.044   4.860   0.403
23274W        W95688  37.498  22.199  11.053
23275W        W95689  11.783  43.918   2.286
23276W        W95690  33.130  30.990  10.444
23277W        W95691  14.777   1.396  13.030
23278W        W95692  44.882  32.452  12.560
23279W        W95693  24.557   8.333  10.436
23280W        W95694  41.877  24.077   1.222
23281W        W95695  18.705  15.613   1.837
23282W        W95696  24.065  24.074   2.206
23283W        W95697  43.402  30.508   3.702
23284W        W95698  17.081  40.054  10.458
23285W        W95699  13.670   3.247   4.119
23286W        W95700   4.811  42.368  10.410
23287W        W95701   5.853   4.807  10.486
23288W        W95702  24.701  13.659  11.490
23289W        W95703  37.083   5.222  11.067
23290W        W95704  24.568  18.574  12.530
23291W        W95705   2.246   4.835  11.598
23292W        W95706  18.165   3.300  12.972
23293W        W95707  19.074  40.394   0.840
23294W        W95708  43.798  17.161   3.791
23295W        W95709  22.616  32.595   1.830
23296W        W95710  42.880  11.300   0.323
23297W        W95711  16.118   5.801  12.506
23298W        W95712   9.318  18.160  12.457
23299W        W95713  17.598  19.072  12.422
23300W        W95714  17.220  37.552  11.426
23301W        W95715  23.011  27.541   0.459
23302W        W95716   1.476  28.997  14.382
23303W        W95717  41.927   6.297  13.528
23304W        W95718  18.607  24.107   0.836
23305W        W95719  22.532  17.723  10.422
23306W        W95720  17.653  27.943   3.741
23307W        W95721  23.162   9.672   4.759
23308W        W95722  35.489   2.232   1.735
23309W        W95723  37.390  34.527   3.181
23310W        W95724   0.341  31.512  13.872
23311W        W95725  40.918   5.320  11.103
23312W        W95726  43.021   5.216  11.007
23313W        W95727  17.738  32.960  11.508
23314W        W95728  21.666   3.246  11.602
23315W        W95729   2.854  38.061   3.284
23316W        W95730  33.949  23.709   4.222
23317W        W95731  14.692  42.442   3.761
23318W        W95732   1.915  36.985   0.399
23319W        W95733  26.996  20.225   4.135
23320W        W95734  27.509  15.593  10.531
23321W        W95735   7.310  17.558   3.352
23322W        W95736  26.552  24.158  13.932
23323W        W95737  16.660  11.767  10.544
23324W        W95738  12.692  21.196   1.705
23325W        W95739  23.701   9.275  14.923
23326W        W95740  35.492  33.893   1.902
23327W        W95741  40.524  31.087   0.797
23328W        W95742  17.180  32.094   1.834
23329W        W95743   6.721  27.635  12.978
23330W        W95744  33.414   5.348  11.118
23331W        W95745  35.526   6.360   3.294
23332W        W95746   8.277   8.248  11.532
23333W        W95747   5.740  15.594   3.846
23334W        W95748   5.689  10.365   0.788
23335W        W95749  25.082  44.789  13.023
23336W        W95750  28.572  30.968   0.335
23337W        W95751  16.597  29.555   4.667
23338W        W95752  29.137  30.493   3.287
23339W        W95753  13.759  35.454   0.372
23340W        W95754  27.160  20.038  12.068
23341W        W95755  15.655  22.707  13.006
23342W        W95756  16.783  30.063  14.308
23343W        W95757  35.975  38.429  14.913
23344W        W95758  43.401  24.584  12.057
23345W        W95759  42.826  44.289   1.915
23346W        W95760  34.877  31.568  11.034
23347W        W95761  29.446  16.127   0.809
23348W        W95762   1.840   1.910   3.642
23349W        W95763   1.961  41.517   2.706
23350W        W95764  44.816  19.662  14.909
23351W        W95765  15.766   0.941  11.532
23352W        W95766  23.201   4.810   2.413
23353W        W95767  10.227   0.882   3.221
23354W        W95768  19.633  32.911   4.165
23355W        W95769   3.813  31.599  14.021
23356W        W95770   5.389  25.505   2.255
23357W        W95771  33.089  22.687   2.365
23358W        W95772  18.635  16.314  13.530
23359W        W95773   0.841  26.664   4.723
23360W        W95774   3.456  15.727  14.511
23361W        W95775  35.868   2.904   1.892
23362W        W95776  19.631   2.349  11.090
23363W        W95777  26.095  20.628  12.894
23364W        W95778  18.735  12.721   4.648
23365W        W95779  35.434  35.538  14.512
23366W        W95780   4.409  14.710  14.378
23367W        W95781  24.692  14.233  10.462
23368W        W95782   6.843  19.568  11.038
23369W        W95783  36.097  29.433  14.992
23370W        W95784  12.336   4.741  14.299
23371W        W95785  38.004  12.261   1.246
23372W        W95786  27.085  32.971  14.483
23373W        W95787  17.630  29.428  12.824
23374W        W95788  30.628  18.576  13.387
23375W        W95789  19.176  22.061  11.483
23376W        W95790  39.894  30.129   0.334
23377W        W95791  24.110  38.845   3.371
23378W        W95792  35.036   3.710   2.201
23379W        W95793  16.700   9.820  11.518
23380W        W95794  24.703  23.235  14.286
23381W        W95795  24.590  37.346   4.837
23382W        W95796   7.848  38.549   3.722
23383W        W95797  13.272   7.352   1.383
23384W        W95798  37.978  30.540   4.683
23385W        W95799  23.214  26.523   0.252
23386W        W95800  26.470  11.357   0.479
23387W        W95801  44.370  23.685  12.898
23388W        W95802  34.491  31.501   3.292
23389W        W95803  26.033  19.580   2.711
23390W        W95804   1.842  32.054  14.779
23391W        W95805  14.097  40.508   2.280
23392W        W95806  33.063  32.466   1.853
23393W        W95807  40.009   0.931   0.329
23394W        W95808  34.907   1.767  10.088
23395W        W95809  39.549  34.452   3.693
23396W        W95810  28.017   1.740   2.665
23397W        W95811  37.457  16.160   3.358
23398W        W95812  16.290  11.189   3.219
23399W        W95813  12.711  28.550  13.351
23400W        W95814  28.095  19.576   1.716
23401W        W95815  17.259  28.664   3.172
23402W        W95816   0.366   4.418  10.638
23403W        W95817  41.012  23.675   2.296
23404W        W95818   5.368  25.493  10.619
23405W        W95819   7.396  39.835   4.686
23406W        W95820  38.441  16.751   2.183
23407W        W95821  38.368  11.796   4.685
23408W        W95822  17.748  36.407   1.329
23409W        W95823  32.612   6.714  13.451
23410W        W95824   0.840  27.685   4.233
23411W        W95825  11.686  40.426  12.348
23412W        W95826  27.160  35.464   3.818
23413W        W95827  32.463   0.402  12.396
23414W        W95828   7.885  18.783  13.978
23415W        W95829  20.564  44.958  13.015
23416W        W95830   2.752  28.623  11.020
23417W        W95831  13.215  30.162  11.533
23418W        W95832   1.309  18.120   4.780
23419W        W95833  11.686  42.875   4.190
23420W        W95834  16.240  10.323  14.432
23421W        W95835  26.536  37.534  13.524
23422W        W95836  21.184  40.536  14.365
23423W        W95837  41.905  17.093  13.850
23424W        W95838  44.262  29.575  10.629
23425W        W95839  41.031  44.993   3.156
23426W        W95840  10.360  33.943  11.453
23427W        W95841   8.744  11.131   0.822
23428W        W95842  24.533  41.840  12.362
23429W        W95843  15.226  39.869   2.717
23430W        W95844  16.601   7.399   0.824
23431W        W95845  27.034  44.461   0.796
23432W        W95846  29.578  17.705  12.534
23433W        W95847  26.529   4.937  14.026
23434W        W95848  25.116  13.640   0.870
23435W        W95849   1.482  23.175  11.481
23436W        W95850  38.019   9.155   2.850
23437W        W95851   4.737  11.866  11.924
23438W        W95852  29.585   9.783   4.833
23439W        W95853   9.309  16.245  14.832
23440W        W95854  41.512  11.724   4.743
23441W        W95855  17.125  32.998  14.455
23442W        W95856  35.004  40.429  11.563
23443W        W95857  20.166  27.114  10.587
23444W        W95858   1.875   8.821  10.583
23445W        W95859  19.233  37.039  11.090
23446W        W95860   2.943  22.031  13.017
23447W        W95861  34.097  16.617   0.298
23448W        W95862   2.236  34.095  11.421
23449W        W95863  11.133  25.495  12.989
23450W        W95864  27.970  14.759  11.547
23451W        W95865  35.994  26.084   0.832
23452W        W95866  18.127  23.625  14.452
23453W        W95867  10.343  17.299  14.012
23454W        W95868  39.347   5.729   1.858
23455W        W95869  10.142  40.884  14.898
23456W        W95870  42.497  39.355   3.225
23457W        W95871  17.703  24.980   1.814
23458W        W95872  13.211  17.776  14.954
23459W        W95873  28.119  13.315  10.587
23460W        W95874  40.538   8.381  11.109
23461W        W95875   9.693  34.965   2.356
23462W        W95876  43.937  34.921   0.451
23463W        W95877  18.654  35.963   3.779
23464W        W95878  36.560  32.090  14.443
23465W        W95879   8.685  23.671  11.015
23466W        W95880  23.626  28.602   1.733
23467W        W95881  13.193  44.389  13.340
23468W        W95882  32.540  22.713  13.018
23469W        W95883   0.799  40.380   3.780
23470W        W95884  14.104  42.802   5.104
23471W        W95885  20.563  12.848  12.841
23472W        W95886   9.319  43.353  11.116
23473W        W95887  18.635  35.359   0.742
23474W        W95888  10.847  40.313  13.047
23475W        W95889  41.827   7.189   0.355
23476W        W95890  16.636  32.134  14.381
23477W        W95891  38.924  33.481   0.902
23478W        W95892  28.092  13.732  13.470
23479W        W95893   0.321   2.875  12.911
23480W        W95894  18.628  39.871  12.340
23481W        W95895  34.061  28.088  14.807
23482W        W95896   3.406  38.479   4.161
23483W        W95897   8.215  42.971  14.310
23484W        W95898  44.887  28.631  13.840
23485W        W95899  29.931  24.572  12.539
23486W        W95900   2.463  17.596   4.662
23487W        W95901   1.815   4.708  10.456
23488W        W95902  44.452  23.532   4.353
23489W        W95903  15.627  24.152   1.451
23490W        W95904  28.560  27.190   3.726
23491W        W95905  12.825   9.310  14.326
23492W        W95906  39.872   8.216   3.796
23493W        W95907   9.875  36.855  14.360
23494W        W95908   1.871  33.503  14.985
23495W        W95909  34.039  26.070  11.396
23496W        W95910  26.548  21.069  14.417
23497W        W95911   7.215  15.264   0.276
23498W        W95912  14.694  37.015   1.313
23499W        W95913  28.093  14.183   1.363
23500W        W95914  32.610   1.406  14.322
23501W        W95915  15.311   7.354  14.992
23502W        W95916   7.393  44.472  13.964
23503W        W95917   3.258  31.146  13.402
23504W        W95918  32.602  37.913   1.211
23505W        W95919   7.295  28.564  11.565
23506W        W95920  43.454  18.060  10.405
23507W        W95921  23.985  19.564  10.054
23508W        W95922  22.597  31.149   3.227
23509W        W95923  42.016  22.156   2.767
23510W        W95924  14.798  16.755  11.073
23511W        W95925  14.675  31.551  12.971
23512W        W95926  38.466   9.695   2.842
23513W        W95927  39.811  31.648  14.836
23514W        W95928   4.924   2.744  13.920
23515W        W95929   5.271   2.745  12.463
23516W        W95930  39.922  12.305   1.393
23517W        W95931  27.099  15.743   2.780
23518W        W95932  23.193  24.580  11.052
23519W        W95933   9.263  26.177   1.861
23520W        W95934  33.425  26.695  11.501
23521W        W95935  41.485  34.080   0.943
23522W        W95936  11.268  30.919   2.839
23523W        W95937  23.223  34.544   4.731
23524W        W95938   4.247  44.837  12.450
23525W        W95939  17.120  28.972  11.898
23526W        W95940  30.097  14.831   1.933
23527W        W95941  14.196  36.375  14.343
23528W        W95942  43.770   5.411  11.905
23529W        W95943  22.609  32.137  13.036
23530W        W95944  40.545  17.287   2.662
23531W        W95945   4.899  19.701   4.282
23532W        W95946   3.381  14.248  14.284
23533W        W95947  23.205   4.944  12.400
23534W        W95948   2.248  17.195  11.033
23535W        W95949  32.069  23.145  14.339
23536W        W95950  29.150  37.081   4.323
23537W        W95951   4.291  16.122  12.055
23538W        W95952   0.355  26.622   0.768
23539W        W95953   6.772   9.232  11.398
23540W        W95954   0.870  12.261  10.627
23541W        W95955   7.197  42.841   4.756
23542W        W95956  20.049   9.265   3.796
23543W        W95957  44.864  17.160  14.402
23544W        W95958  39.443  26.626  13.426
23545W        W95959   2.723  25.665   0.890
23546W        W95960  39.036  35.966  13.391
23547W        W95961  30.590   7.341   0.806
23548W        W95962  25.095  35.026  10.503
23549W        W95963  20.152  31.974   4.720
23550W        W95964  19.057  16.099  12.886
23551W        W95965  17.582  43.777   2.269
23552W        W95966  40.360  37.042   4.223
23553W        W95967  37.373  44.911   2.776
23554W        W95968  42.907  10.299  11.856
23555W        W95969  11.864  33.127  11.901
23556W        W95970  17.126   9.669   4.214
23557W        W95971  20.647  35.916  11.416
23558W        W95972   1.902  34.934  14.958
23559W        W95973  44.898  28.159   0.929
23560W        W95974   1.826  40.012   3.860
23561W        W95975  26.467  37.004   0.940
23562W        W95976  30.497  43.965   2.214
23563W        W95977  22.683  21.189   0.935
23564W        W95978  39.430  19.180  14.832
23565W        W95979  30.534  21.745   4.198
23566W        W95980  32.416  13.343  13.064
23567W        W95981  16.251  25.210   2.330
23568W        W95982   3.729  27.686  14.327
23569W        W95983   4.364   3.806  11.581
23570W        W95984  18.704   9.731  12.049
23571W        W95985  13.178  30.985  10.636
23572W        W95986  28.989  31.948  14.292
23573W        W95987   6.313   1.894   4.719
23574W        W95988  19.219  18.206   3.781
23575W        W95989  28.152  16.260  13.391
23576W        W95990  10.757  36.999   3.301
23577W        W95991   8.754   3.746  14.963
23578W        W95992  30.155  16.176  13.318
23579W        W95993  29.567   9.691   4.209
23580W        W95994  24.508  28.565  11.880
23581W        W95995  43.495  42.951   5.232
23582W        W95996  11.781  10.239   0.364
23583W        W95997  43.939   0.268   0.766
23584W        W95998  22.233  43.301  11.997
23585W        W95999  41.384  35.006   5.181
23586W        W96000  14.222  35.560   3.671
23587W        W96001  24.201  19.716  11.042
23588W        W96002  38.023  13.178  10.516
23589W        W96003   0.328  29.943  13.343
23590W        W96004  17.108  43.368  12.471
23591W        W96005   4.291  27.527  10.444
23592W        W96006  38.412   1.337   0.810
23593W        W96007   3.879   8.766   3.754
23594W        W96008  40.923  15.110  10.621
23595W        W96009  29.967   4.221  13.885
23596W        W96010  44.365  27.121   1.728
23597W        W96011  36.067  29.506   2.380
23598W        W96012   2.780  21.115  10.948
23599W        W96013  34.875   9.653  13.874
23600W        W96014  21.689   1.913  13.325
23601W        W96015   9.360  19.095   4.212
23602W        W96016  32.623  24.538  14.287
23603W        W96017  10.817  18.754  13.903
23604W        W96018  44.789   0.400  13.882
23605W        W96019  39.448   9.378   1.903
23606W        W96020  21.678  28.589   3.655
23607W        W96021   2.433  21.125  10.416
23608W        W96022   7.360  34.405   0.302
23609W        W96023  28.180  40.965   3.241
23610W        W96024  13.105  31.969   3.647
23611W        W96025  30.566  35.432  11.879
23612W        W96026   1.375  18.091   3.824
23613W        W96027  32.952  17.268   3.165
23614W        W96028  23.532  27.167  14.763
23615W        W96029  28.181  19.098  13.965
23616W        W96030   7.239  19.134  13.958
23617W        W96031   6.906  18.242  12.375
23618W        W96032  15.621  17.574  13.982
23619W        W96033  40.910  21.627  11.100
23620W        W96034  40.872   6.769   3.270
23621W        W96035  44.818  27.653  11.971
23622W        W96036  38.898  16.666  13.428
23623W        W96037  28.017  44.330   0.476
23624W        W96038  10.236  42.808  10.535
23625W        W96039  17.566  23.124   0.275
23626W        W96040  32.041  14.642   3.742
23627W        W96041  13.781  32.108   4.272
23628W        W96042  24.608  27.452  14.480
23629W        W96043  25.169  35.429   4.326
23630W        W96044  28.977  10.193   0.946
23631W        W96045  22.606   7.325   4.245
23632W        W96046  27.557  32.933  12.345
23633W        W96047  13.332   2.318   3.697
23634W        W96048  28.108   9.717  13.479
23635W        W96049   0.843   6.334  14.394
23636W        W96050  34.948  12.356  14.364
23637W        W96051   3.845   9.748   1.370
23638W        W96052  10.819   9.237  11.918
23639W        W96053  17.689  38.436   3.769
23640W        W96054  11.301  27.553   4.202
23641W        W96055  25.993   2.313  12.456
23642W        W96056   7.705  19.721   4.628
23643W        W96057  28.660  18.068  13.533
23644W        W96058  24.561   6.314   2.836
23645W        W96059  21.236   3.876   4.302
23646W        W96060  25.133   2.781  13.535
23647W        W96061  10.235   2.338   1.842
23648W        W96062  40.050  41.980  13.906
23649W        W96063  24.114   5.228  13.846
23650W        W96064  16.193  20.274   4.799
23651W        W96065  39.818  33.518  13.877
23652W        W96066   5.699   3.390   3.754
23653W        W96067  37.523  16.119  13.499
23654W        W96068  11.845  39.890  10.419
23655W        W96069   1.339  35.508  13.824
23656W        W96070  39.555  27.045   1.746
23657W        W96071  30.077  40.050  14.890
23658W        W96072  15.625  42.292   1.734
23659W        W96073  14.672  12.706  14.314
23660W        W96074  18.568  35.379   3.347
23661W        W96075   7.670   8.254  11.870
23662W        W96076   8.193  14.273   2.219
23663W        W96077   2.761   1.849  10.428
23664W        W96078  14.240  26.652  13.943
23665W        W96079  40.511  41.424   3.750
23666W        W96080  11.202  23.501   4.837
23667W        W96081  22.655  16.194  13.394
23668W        W96082  27.461  35.096   2.722
23669W        W96083  42.895  37.948   3.750
23670W        W96084  40.938  30.548  14.845
23671W        W96085  40.022   7.314  11.126
23672W        W96086  14.174  36.976   1.837
23673W        W96087  38.523  33.623   1.384
23674W        W96088  29.506   3.930  14.934
23675W        W96089  43.335  20.212   2.887
23676W        W96090  11.823   5.753   4.782
23677W        W96091   9.223  29.157  13.869
23678W        W96092  33.451  44.320  11.856
23679W        W96093  29.128  42.857   3.796
23680W        W96094  42.356  42.951   0.423
23681W        W96095  42.932   9.824   1.396
23682W        W96096  27.581   4.704   4.737
23683W        W96097  29.944   5.826  14.876
23684W        W96098  41.422   5.232   0.306
23685W        W96099   4.231   3.872   2.777
23686W        W96100   1.245  34.956  13.387
23687W        W96101  42.948  21.640   3.355
23688W        W96102  35.447  44.434   4.310
23689W        W96103  43.947   9.254  10.431
23690W        W96104  22.601  20.092   3.248
23691W        W96105  43.443  18.168   3.233
23692W        W96106   6.833   4.297   2.248
23693W        W96107   9.715   6.280   0.897
23694W        W96108  22.076  20.584   1.407
23695W        W96109  23.540   9.165   1.710
23696W        W96110  18.218  13.230  11.999
23697W        W96111  21.658  22.532   4.814
23698W        W96112   7.372  36.352   2.684
23699W        W96113  39.841  32.485   3.739
23700W        W96114  31.023  17.197   1.224
23701W        W96115  30.063  34.547   3.283
23702W        W96116  21.702  18.216   4.640
23703W        W96117   0.343   0.867  12.510
23704W        W96118  42.300  15.153  13.977
23705W        W96119   9.676   8.835   3.199
23706W        W96120  34.867   2.414  14.359
23707W        W96121  30.556  35.414   2.803
23708W        W96122  41.381  13.343   0.339
23709W        W96123  29.649  24.506   4.676
23710W        W96124  16.250  21.171  14.337
23711W        W96125  23.149  13.220   3.719
23712W        W96126  26.088   8.288   0.326
23713W        W96127   6.265  21.636   1.299
23714W        W96128  37.871  15.083   2.799
23715W        W96129  32.496  36.044   0.424
23716W        W96130  30.588  44.825   2.726
23717W        W96131  15.583  20.131   0.780
23718W        W96132  16.758   5.266  12.031
23719W        W96133  33.524  23.122   2.369
23720W        W96134  26.996   8.381  12.999
23721W        W96135   9.352  25.059   0.280
23722W        W96136   0.984  36.888   3.859
23723W        W96137  10.220  16.678  10.497
23724W        W96138  15.228  31.940   1.788
23725W        W96139   6.776   8.316   1.224
23726W        W96140  12.853  42.442   1.774
23727W        W96141  32.003  37.546  14.330
23728W        W96142   5.902  13.629   1.773
23729W        W96143  39.018   2.818   1.441
23730W        W96144  32.569  12.164   0.901
23731W        W96145  24.994  31.050  10.617
23732W        W96146   9.383   2.777  13.847
23733W        W96147  42.488  38.957  11.106
23734W        W96148  16.675   3.310   4.773
23735W        W96149  15.164   7.877   4.217
23736W        W96150  32.114  21.074   3.821
23737W        W96151   9.189  23.080  12.489
23738W        W96152  28.516  12.223   0.283
23739W        W96153   1.305  35.406   3.323
23740W        W96154   7.374  36.516   1.372
23741W        W96155   0.361  35.928   2.817
23742W        W96156  28.578   5.904  11.870
23743W        W96157  12.307  31.504  11.102
23744W        W96158  38.425  29.164   3.289
23745W        W96159   2.284  21.639  11.510
23746W        W96160   1.845   5.854  11.568
23747W        W96161  13.130   1.815  14.880
23748W        W96162   8.883  11.750  10.603
23749W        W96163   4.934  28.136  12.872
23750W        W96164  43.489  16.124  11.460
23751W        W96165  22.627  29.606  14.858
23752W        W96166  30.128   1.763  11.998
23753W        W96167  44.931   6.904   0.440
23754W        W96168   2.906  27.664  14.321
23755W        W96169  25.687  41.956  12.092
23756W        W96170  38.362  12.805   2.864
23757W        W96171  14.169  25.016   1.895
23758W        W96172  16.089  41.377   3.377
23759W        W96173  20.703  37.361  11.535
23760W        W96174  42.909   9.882  11.609
23761W        W96175  30.525  10.358  10.498
23762W        W96176  16.073   2.910   2.293
23763W        W96177   9.673  18.121  10.424
23764W        W96178  11.172  37.445   3.209
23765W        W96179  35.022  20.687   1.303
23766W        W96180   1.801  35.090   3.275
23767W        W96181  44.789   1.947   0.409
23768W        W96182  37.852  43.918   2.834
23769W        W96183  34.908  20.716   5.284
23770W        W96184  26.089  43.284  10.613
23771W        W96185   5.284  23.147   2.409
23772W        W96186  34.409  44.260  10.988
23773W        W96187  43.767   3.312   0.777
23774W        W96188  42.027  34.533  13.063
23775W        W96189  32.123  17.306  13.397
23776W        W96190  30.087  29.075   2.378
23777W        W96191  27.100   5.216   3.699
23778W        W96192   2.967   6.895   0.316
23779W        W96193  18.061  14.223   0.920
23780W        W96194  23.145  21.725   1.853
23781W        W96195  11.641  31.099  11.893
23782W        W96196  32.491  36.062  13.998
23783W        W96197  20.640  23.124   0.851
23784W        W96198  24.074   9.763   3.235
23785W        W96199  28.035  44.798  11.978
23786W        W96200  41.469  40.042   3.307
23787W        W96201  39.833   4.316   3.264
23788W        W96202  24.580  28.602   1.302
23789W        W96203  37.368  28.030   5.271
23790W        W96204  19.599  26.967  11.427
23791W        W96205  17.724  35.987   4.130
23792W        W96206  35.564  19.587  12.054
23793W        W96207  16.098   6.758  11.974
23794W        W96208  44.977   9.858   1.334
23795W        W96209  10.210   4.791  11.397
23796W        W96210  22.639  13.153   4.621
23797W        W96211   6.236  36.376   3.649
23798W        W96212  36.574  41.523  13.996
23799W        W96213  35.041  13.166   3.869
23800W        W96214  27.952  36.587   0.892
23801W        W96215   8.655  42.502   0.886
23802W        W96216  22.049  11.238  13.823
23803W        W96217  11.235  22.692   3.776
23804W        W96218  28.033  29.492   2.751
23805W        W96219  35.430  16.722   3.673
23806W        W96220  21.231  32.507   0.459
23807W        W96221  15.649   0.262  10.050
23808W        W96222  37.014  26.095  10.974
23809W        W96223  29.440  13.787  13.993
23810W        W96224  28.539  27.470  14.362
23811W        W96225  16.673  27.692  11.408
23812W        W96226  35.904  14.227  12.429
23813W        W96227  18.085  31.456   2.706
23814W        W96228  39.952  17.793   3.767
23815W        W96229  22.635   4.724  14.844
23816W        W96230  29.918   6.327   4.171
23817W        W96231  23.102   6.196  10.586
23818W        W96232  44.753   1.452   0.294
23819W        W96233  20.635   8.270  11.963
23820W        W96234  21.701   6.828   2.666
23821W        W96235  42.886  13.661  11.501
23822W        W96236  37.866  11.224   3.735
23823W        W96237   9.191  15.220   0.381
23824W        W96238  43.387  20.129  12.423
23825W        W96239   8.395  31.578   3.825
23826W        W96240  42.825  33.943   3.331
23827W        W96241  25.065  31.414  11.472
23828W        W96242  32.440  22.547  13.928
23829W        W96243  24.140   8.678  14.924
23830W        W96244  10.228  28.059   2.805
23831W        W96245  42.287  37.863   4.217
23832W        W96246  23.637   3.855   4.321
23833W        W96247   2.252   3.892   3.270
23834W        W96248  19.758   9.350   4.728
23835W        W96249  18.183  38.956   4.737
23836W        W96250  13.722  13.795   1.866
23837W        W96251  33.465  25.638  13.891
23838W        W96252  11.787  28.624  11.466
23839W        W96253   0.870  16.289  12.548
23840W        W96254  22.180   2.889   3.673
23841W        W96255  44.492  36.893  10.974
23842W        W96256   1.348   3.263  13.420
23843W        W96257  34.100  27.583   4.299
23844W        W96258  33.084  25.034   4.604
23845W        W96259  20.067  44.429  10.037
23846W        W96260  32.133  25.084  12.858
23847W        W96261  13.599  17.292  11.076
23848W        W96262  40.398  18.070  10.547
23849W        W96263   2.932  17.705   3.788
23850W        W96264   5.732   2.772   0.456
23851W        W96265  42.477   5.228  14.981
23852W        W96266  32.918  17.780  13.926
23853W        W96267  37.902   3.915   1.837
23854W        W96268   9.199  21.038  11.045
23855W        W96269   4.735   3.728  11.396
23856W        W96270  26.082  44.362   4.252
23857W        W96271  31.469  30.067   1.935
23858W        W96272  41.498  33.390   1.416
23859W        W96273  42.003  10.750   0.923
23860W        W96274  38.964   0.410   3.809
23861W        W96275   6.844  25.005   2.401
23862W        W96276  16.267  42.969  10.411
23863W        W96277  35.106  22.721  12.384
23864W        W96278  43.891  43.971  13.403
23865W        W96279   3.886  36.888  13.347
23866W        W96280   6.369   4.891   4.262
23867W        W96281  19.282   9.874  13.402
23868W        W96282  16.153  10.652  11.396
23869W        W96283   8.790  11.781   3.263
23870W        W96284  12.710  12.856  13.823
23871W        W96285  28.980   7.826  14.941
23872W        W96286  32.111  31.520  11.060
23873W        W96287  40.012  37.450   3.744
23874W        W96288  11.768  42.808   1.818
23875W        W96289   0.909  39.018  12.404
23876W        W96290  33.584  25.189   1.383
23877W        W96291  34.895  23.200   0.903
23878W        W96292  16.213  15.802   2.248
23879W        W96293   2.267  13.195   3.800
23880W        W96294  35.574  13.320  14.507
23881W        W96295  23.556  33.948  12.035
23882W        W96296  38.530   7.895  14.493
23883W        W96297  40.469  19.092  11.919
23884W        W96298  32.083  17.566  11.541
23885W        W96299   6.340  40.468  12.907
23886W        W96300  20.699  20.719   2.840
23887W        W96301  17.763  22.528   0.872
23888W        W96302  11.756  28.620  11.029
23889W        W96303  38.346  18.136  14.496
23890W        W96304  38.858   3.431  14.995
23891W        W96305   4.242  38.983   2.874
23892W        W96306  42.283  15.809   1.762
23893W        W96307  36.012  24.157   1.881
23894W        W96308  26.684   4.869   2.377
23895W        W96309  40.980  14.808  14.974
23896W        W96310  18.552  23.547   3.789
23897W        W96311  28.643  27.466  11.417
23898W        W96312  19.134  16.225   4.327
23899W        W96313  22.168  17.564   3.654
23900W        W96314  19.571  32.497  11.929
23901W        W96315   5.275  24.128  11.984
23902W        W96316   7.207  34.468  10.557
23903W        W96317  19.603  18.147   4.670
23904W        W96318  11.221   0.894   1.799
23905W        W96319   8.293  23.063  14.767
23906W        W96320   8.202  27.180   1.914
23907W        W96321  30.509  12.122  14.984
23908W        W96322  17.584   4.840  14.351
23909W        W96323  16.130  38.912  14.866
23910W        W96324  44.446  38.924  12.936
23911W        W96325   6.364  38.994  12.829
23912W        W96326   8.712   5.236  12.436
23913W        W96327  38.376  33.938   3.156
23914W        W96328  20.074  15.677  14.476
23915W        W96329  30.018  33.389   3.685
23916W        W96330  34.067  18.655  11.963
23917W        W96331  14.306  24.588   1.390
23918W        W96332  37.942  24.012   1.888
23919W        W96333  12.698   7.791  12.058
23920W        W96334  42.438  19.726   0.391
23921W        W96335   2.922  14.339   5.795
23922W        W96336  15.594  10.812  12.039
23923W        W96337  14.801  39.362   3.331
23924W        W96338  18.292   1.272   2.355
23925W        W96339  20.742  10.352   1.313
23926W        W96340  21.617  12.330   1.926
23927W        W96341  22.205  41.451   0.790
23928W        W96342  21.715  40.338  13.481
23929W        W96343  19.734  13.691   4.697
23930W        W96344  33.604  17.701  11.026
23931W        W96345  41.299  31.471   0.403
23932W        W96346  28.626  31.574  11.116
23933W        W96347   0.398  40.025  12.950
23934W        W96348  43.948  37.086  12.932
23935W        W96349   9.330  36.982   0.776
23936W        W96350  19.272  27.999   4.143
23937W        W96351   7.716  31.404   2.749
23938W        W96352  40.524  23.074  12.940
23939W        W96353   9.829  15.264  10.403
23940W        W96354   3.300   4.804   0.352
23941W        W96355  14.170  40.998   4.196
23942W        W96356  36.042  35.887   2.383
23943W        W96357   4.783  20.239   0.352
23944W        W96358   1.803  39.881   4.661
23945W        W96359   6.703  18.746  12.543
23946W        W96360   0.907  30.039  11.018
23947W        W96361  37.515  32.949  14.441
23948W        W96362  24.554  42.840   0.923
23949W        W96363  10.669  44.951  12.344
23950W        W96364  25.016  17.640   0.892
23951W        W96365  20.106   8.385  14.800
23952W        W96366  13.189  16.225   4.776
23953W        W96367  32.572   2.380   3.725
23954W        W96368  14.336  36.424   0.325
23955W        W96369  26.060   5.706   1.783
23956W        W96370  23.496  36.500   4.248
23957W        W96371   3.459  32.538  13.025
23958W        W96372   8.854  30.449   0.899
23959W        W96373  14.612   4.896  12.003
23960W        W96374  17.276  44.363   2.341
23961W        W96375  31.572  26.603   3.828
23962W        W96376   2.828  34.046   3.728
23963W        W96377  10.789  26.953   4.124
23964W        W96378  12.321  19.726   4.146
23965W        W96379  11.694  19.718  13.343
23966W        W96380  15.772  25.099   3.369
23967W        W96381  31.527   4.434   0.291
23968W        W96382  36.515  31.433  12.420
23969W        W96383  23.035  26.201   3.248
23970W        W96384  15.700  42.345  13.931
23971W        W96385  25.996  30.907   1.431
23972W        W96386   8.223  37.991  10.891
23973W        W96387  21.537  17.097  14.516
23974W        W96388   0.377  28.159  11.886
23975W        W96389  15.622  26.195   2.860
23976W        W96390  35.463  33.048  13.806
23977W        W96391  41.966  43.278   3.283
23978W        W96392  42.860  36.021  10.126
23979W        W96393  19.219  35.377  14.935
23980W        W96394  10.693  30.585  13.926
23981W        W96395  27.040  37.468  11.869
23982W        W96396  42.776  36.427   3.170
23983W        W96397  33.490  29.579   9.940
23984W        W96398  33.562  38.072   1.355
23985W        W96399   8.707  26.694  11.438
23986W        W96400  40.350  38.451  14.481
23987W        W96401  36.408   1.778   3.363
23988W        W96402  43.990  24.503   1.726
23989W        W96403  16.675  10.637  12.984
23990W        W96404   4.227   2.790   4.837
23991W        W96405  23.180  32.582  13.529
23992W        W96406  12.267  19.228   3.351
23993W        W96407  40.512  35.968   2.778
23994W        W96408  26.641  40.336   1.308
23995W        W96409  11.729   1.418   2.885
23996W        W96410  10.641  17.674   2.877
23997W        W96411  44.978  20.589  10.990
23998W        W96412  36.355  32.494   1.833
23999W        W96413   1.800  34.414  13.474
24000W        W96414  19.044  25.042  14.909
24001W        W96415  25.154  16.152  12.527
24002W        W96416  24.555   5.202  11.489
24003W        W96417  28.482  33.098   0.289
24004W        W96418   3.330   5.431   0.266
24005W        W96419  21.039  15.130   3.808
24006W        W96420  33.058  29.087  11.941
24007W        W96421  20.530  22.196   0.802
24008W        W96422  28.049  13.213  13.406
24009W        W96423  26.027  32.073  11.489
24010W        W96424   9.794  44.392  14.806
24011W        W96425   6.689  20.223  14.468
24012W        W96426  41.450  24.576  12.419
24013W        W96427  29.513  30.581  14.944
24014W        W96428  38.555  25.080   3.351
24015W        W96429  30.059   5.233  11.931
24016W        W96430  39.412   2.364  13.397
24017W        W96431  18.702  19.133   3.264
24018W        W96432   6.797  16.145   0.393
24019W        W96433  21.722   2.849   4.126
24020W        W96434  17.144  13.642  12.025
24021W        W96435   0.954  31.455  12.383
24022W        W96436  11.630  29.489  14.407
24023W        W96437  43.343  13.722  12.539
24024W        W96438   4.866   0.914   1.890
24025W        W96439  43.406  18.178  13.477
24026W        W96440  42.995  35.097  10.540
24027W        W96441   8.792  37.850   0.802
24028W        W96442  38.436  40.934   0.244
24029W        W96443  26.979  14.195  12.941
24030W        W96444   0.988  13.113   1.702
24031W        W96445   8.723   6.392  11.543
24032W        W96446   8.387   6.784  13.888
24033W        W96447  39.510  28.102  11.955
24034W        W96448  20.241   0.315  10.518
24035W        W96449  13.649   5.340  11.858
24036W        W96450  38.457   8.803  14.802
24037W        W96451  27.526  14.097   3.353
24038W        W96452  17.236  44.387   0.364
24039W        W96453   0.273  27.661  10.513
24040W        W96454  34.037  24.105   1.923
24041W        W96455  15.183  27.524  11.532
24042W        W96456  11.772   7.847   1.826
24043W        W96457  14.153  42.500  10.584
24044W        W96458  27.554  24.688   4.611
24045W        W96459  30.521  16.718  11.120
24046W        W96460  37.472   7.219   9.985
24047W        W96461  34.069   0.493  12.493
24048W        W96462  15.675  40.461   4.602
24049W        W96463   1.847  23.241   2.363
24050W        W96464  13.701  39.446   4.612
24051W        W96465   4.287  29.059  11.439
24052W        W96466   7.223   7.903   4.336
24053W        W96467  33.904  24.179   3.181
24054W        W96468  33.442  39.466   3.292
24055W        W96469   9.705  42.811  12.050
24056W        W96470  44.920  22.045   1.222
24057W        W96471  19.649  18.198  14.303
24058W        W96472  36.886   1.274   0.802
24059W        W96473  36.435  21.657   1.934
24060W        W96474  26.039  23.004  13.459
24061W        W96475  20.650  23.241   1.294
24062W        W96476  13.808  12.129  13.355
24063W        W96477   9.350  40.036   1.875
24064W        W96478   8.694  33.997   1.244
24065W        W96479  33.587  30.554  13.373
24066W        W96480  10.228  37.339   1.736
24067W        W96481  23.994  34.600   4.253
24068W        W96482  28.145  32.500  12.403
24069W        W96483  12.617   9.274  13.988
24070W        W96484  44.474  21.056  12.827
24071W        W96485  30.102   4.432   2.720
24072W        W96486   3.830   9.825  12.350
24073W        W96487  11.646   4.761  12.488
24074W        W96488  23.058  40.452   1.825
24075W        W96489  16.576  40.319   1.824
24076W        W96490  24.218   8.222   1.406
24077W        W96491  28.564  17.739   1.382
24078W        W96492  21.597  40.451   3.803
24079W        W96493  42.975  44.899   3.720
24080W        W96494  28.173  14.288   0.967
24081W        W96495  22.509  34.410   3.185
24082W        W96496  18.152  18.605   4.244
24083W        W96497  12.295  10.672  10.581
24084W        W96498  26.065   8.313   2.337
24085W        W96499  39.929  28.028   2.357
24086W        W96500  11.669  15.163   1.922
24087W        W96501  34.496   8.356  14.420
24088W        W96502  41.414  18.696   3.385
24089W        W96503  18.252  19.611  10.923
24090W        W96504  23.615  22.518  12.421
24091W        W96505  19.616  28.447   1.702
24092W        W96506  42.891   3.801  13.342
24093W        W96507  43.439  22.668   4.156
24094W        W96508   5.766  39.455   4.702
24095W        W96509   6.874  35.103  14.787
24096W        W96510  42.851   3.890  11.916
24097W        W96511  23.168  19.235   0.467
24098W        W96512  10.237  31.436  12.897
24099W        W96513  17.672  21.173  12.017
24100W        W96514  40.923  24.171  13.505
24101W        W96515  15.212   5.912  12.964
24102W        W96516  30.635  10.197   1.768
24103W        W96517  29.598  41.844   3.244
24104W        W96518  27.940  42.505   3.756
24105W        W96519   9.166  25.500  13.828
24106W        W96520  17.713  11.252  13.487
24107W        W96521   7.223  31.141  14.940
24108W        W96522  31.949  42.809  11.445
24109W        W96523  29.626  42.989   1.267
24110W        W96524  20.071  42.319  12.005
24111W        W96525  14.234  33.493  14.872
24112W        W96526  27.551  17.729   3.850
24113W        W96527   7.881  32.983  14.841
24114W        W96528  44.830  41.791   4.279
24115W        W96529  19.077  27.090  12.051
24116W        W96530  24.088  21.649   1.807
24117W        W96531  14.309  11.176   2.411
24118W        W96532  34.374  38.916  14.341
24119W        W96533   6.225   5.407   2.320
24120W        W96534  28.941  34.497  14.005
24121W        W96535  12.316  19.696  11.471
24122W        W96536  23.551  12.695   0.937
24123W        W96537   5.404   6.405   3.817
24124W        W96538  31.484  12.120  10.516
24125W        W96539  42.455  39.416  12.484
24126W        W96540  15.812  33.401   0.267
24127W        W96541  34.084  11.665   2.749
24128W        W96542   4.354  30.538  12.918
24129W        W96543  20.116   6.820   2.673
24130W        W96544   6.396  25.047   2.216
24131W        W96545  36.845  30.962   4.676
24132W        W96546  17.267   2.845   0.841
24133W        W96547  18.554  10.869  13.925
24134W        W96548  30.085  37.442  12.570
24135W        W96549  12.747  23.137  11.097
24136W        W96550  34.582  10.254  14.385
24137W        W96551  24.680  29.445   3.345
24138W        W96552  43.795  13.808  10.606
24139W        W96553   0.390  29.147   4.177
24140W        W96554   8.340   7.236   3.349
24141W        W96555   3.757  25.690  13.441
24142W        W96556  27.679  31.534   4.140
24143W        W96557  17.702   4.360   0.898
24144W        W96558  16.795  10.817  10.570
24145W        W96559  27.587  13.314   0.874
24146W        W96560   0.912  19.126  14.973
24147W        W96561  13.655  26.105  13.859
24148W        W96562  34.960  15.722  11.488
24149W        W96563   7.187   6.735  12.517
24150W        W96564  14.594  39.551  11.893
24151W        W96565  41.946  39.478   2.804
24152W        W96566  16.139  17.677  12.921
24153W        W96567  14.761  12.194   2.828
24154W        W96568  37.567  32.126  14.994
24155W        W96569  14.737   1.378   1.773
24156W        W96570  13.338   3.244   2.847
24157W        W96571  29.992  19.071  13.971
24158W        W96572  44.345   7.363   0.920
24159W        W96573  11.168   5.383   0.954
24160W        W96574  15.326  32.140   1.345
24161W        W96575  11.720  41.391   5.087
24162W        W96576   2.453  34.525   4.657
24163W        W96577  38.861  28.450  13.858
24164W        W96578  25.686  29.594  11.869
24165W        W96579  16.758  21.099  11.057
24166W        W96580  42.365  14.305   1.294
24167W        W96581  41.431  42.855  11.463
24168W        W96582   3.351   8.825   2.329
24169W        W96583  32.946  20.249   2.848
24170W        W96584  24.561   7.286  14.375
24171W        W96585  41.435   2.816  11.410
24172W        W96586  39.318  13.338   1.353
24173W        W96587   8.242  13.248  11.544
24174W        W96588  27.063  36.030  14.920
24175W        W96589  37.070  29.535   0.256
24176W        W96590  19.565   5.730  10.894
24177W        W96591  15.229  37.389  14.339
24178W        W96592  21.755  42.974   1.343
24179W        W96593  10.245  26.070  12.535
24180W        W96594  21.546  23.647   4.303
24181W        W96595  29.173   8.689   4.212
24182W        W96596  44.436   3.422   1.808
24183W        W96597  29.162  16.770   0.855
24184W        W96598  25.988  31.960   2.349
24185W        W96599  33.436  22.693  11.976
24186W        W96600  16.247  40.952  14.988
24187W        W96601  28.581  15.200  13.909
24188W        W96602   6.323  33.517  14.863
24189W        W96603  43.460  20.656   0.849
24190W        W96604  32.004  31.627   1.906
24191W        W96605  11.181   1.824  11.023
24192W        W96606  29.454  17.173   1.369
24193W        W96607   2.335  19.739  14.459
24194W        W96608   4.780  17.197  11.063
24195W        W96609  43.292  28.172  10.496
24196W        W96610   8.254   5.848   1.827
24197W        W96611  42.026   2.945   1.420
24198W        W96612  39.425  40.401   0.412
24199W        W96613  28.071  14.147  12.850
24200W        W96614  31.544  31.950  13.501
24201W        W96615  39.548  43.019  14.377
24202W        W96616  31.641  37.033  12.073
24203W        W96617  14.219  14.104   0.318
24204W        W96618  23.182  10.347  11.536
24205W        W96619  44.429   3.227   0.422
24206W        W96620   3.341  40.429   2.677
24207W        W96621  31.483  10.864   3.721
24208W        W96622  28.612   1.880   1.770
24209W        W96623  14.639  18.253  10.946
24210W        W96624  18.602  22.583   4.173
24211W        W96625  29.087  44.418   3.771
24212W        W96626   8.843  13.776  14.895
24213W        W96627  40.018  17.246   3.297
24214W        W96628  12.203   6.915   5.146
24215W        W96629   1.263  25.549   0.356
24216W        W96630   4.365  37.889   1.311
24217W        W96631  12.347  38.499  10.521
24218W        W96632  30.655  42.023  14.982
24219W        W96633   8.780  11.742   2.332
24220W        W96634   5.269  39.550   0.852
24221W        W96635  24.062  19.571   1.708
24222W        W96636  19.618  42.302   1.768
24223W        W96637  25.656  28.534  11.473
24224W        W96638   6.226  31.430  13.316
24225W        W96639   1.942  25.499  12.958
24226W        W96640  32.972  34.569   1.763
24227W        W96641  14.675  38.435   3.269
24228W        W96642  41.803  35.967  11.087
24229W        W96643  20.189  12.717  12.048
24230W        W96644   9.240  12.675   1.733
24231W        W96645  23.731  16.259  14.400
24232W        W96646  26.656  19.738  14.973
24233W        W96647  18.731  42.985   3.725
24234W        W96648  27.636  36.966   3.352
24235W        W96649  32.482  20.740  14.404
24236W        W96650  16.678  35.361   0.806
24237W        W96651  40.820  39.896   2.719
24238W        W96652  23.166  33.516  14.349
24239W        W96653  31.946   1.764  14.429
24240W        W96654   5.354  20.593  14.776
24241W        W96655  26.076  14.627  14.439
24242W        W96656  18.698  15.718   4.228
24243W        W96657   0.793  13.656   4.778
24244W        W96658  23.689  22.146  10.914
24245W        W96659  27.129  22.228   2.295
24246W        W96660  38.534  36.554  14.424
24247W        W96661  36.505  16.144   3.741
24248W        W96662  13.745  11.715   4.813
24249W        W96663  37.995   0.913   1.353
24250W        W96664  31.021  33.556  12.395
24251W        W96665  35.032  44.497   3.303
24252W        W96666   9.176  13.652   4.326
24253W        W96667  39.836  37.978  13.865
24254W        W96668  30.077  18.741  11.941
24255W        W96669  24.612  41.848   4.216
24256W        W96670   3.427  32.010  13.986
24257W        W96671   5.345  34.934   1.722
24258W        W96672  44.289  35.528  14.948
24259W        W96673  35.510   7.349  11.096
24260W        W96674   3.353   4.849  11.036
24261W        W96675  37.470   1.327  13.970
24262W        W96676   7.679  25.158   0.730
24263W        W96677  12.743  17.113  13.896
24264W        W96678  16.165  26.990   3.182
24265W        W96679  38.525  15.675   2.415
24266W        W96680   7.825   3.397  10.519
24267W        W96681  37.541   0.887  14.026
24268W        W96682  14.202  38.424  11.499
24269W        W96683  22.074  24.517  11.516
24270W        W96684  27.497  27.950   4.601
24271W        W96685  44.399   9.761   3.669
24272W        W96686  10.808  31.416  12.468
24273W        W96687  25.021  25.574  12.045
24274W        W96688  21.162  32.524   4.704
24275W        W96689   7.340  28.948  12.399
24276W        W96690   1.269  28.141   4.170
24277W        W96691   0.892  42.284   4.346
24278W        W96692  38.057   3.929   3.739
24279W        W96693   5.402  14.661  13.392
24280W        W96694   6.795   0.878   4.633
24281W        W96695  25.103   2.415   2.181
24282W        W96696  14.808  27.652   2.232
24283W        W96697  17.248  36.043  13.799
24284W        W96698  30.106  36.920  13.017
24285W        W96699  32.472  31.505   0.309
24286W        W96700  18.576   5.241   3.658
24287W        W96701  43.011  37.421   2.867
24288W        W96702  19.252  24.991   1.710
24289W        W96703   8.795  23.626   4.127
24290W        W96704  36.848  40.479   4.166
24291W        W96705   4.400  36.389   3.804
24292W        W96706  13.203   1.778   0.380
24293W        W96707   4.271  16.689  12.995
24294W        W96708  33.543  21.056  13.488
24295W        W96709  30.969   8.834  11.570
24296W        W96710   3.834  43.448  12.020
24297W        W96711  28.998  16.159   2.751
24298W        W96712  21.232  32.451  14.320
24299W        W96713  44.348  11.342  11.588
24300W        W96714   5.806  35.565  10.973
24301W        W96715  10.305   6.767   2.351
24302W        W96716  38.338  34.004   2.769
24303W        W96717  23.046   0.850   5.243
24304W        W96718  28.159   7.690  14.853
24305W        W96719   9.279   6.352   0.345
24306W        W96720   2.766   1.304   1.337
24307W        W96721  10.779  21.024   0.793
24308W        W96722  15.241  40.045  13.463
24309W        W96723  23.689  44.368   3.659
24310W        W96724  14.607  19.248   3.354
24311W        W96725  27.690   9.731  12.054
24312W        W96726   3.299   5.412  14.891
24313W        W96727  23.114  35.393   3.640
24314W        W96728  31.617  13.200  14.796
24315W        W96729  29.994  37.484   0.334
24316W        W96730  38.427  11.777  10.916
24317W        W96731  23.513  40.024  14.772
24318W        W96732  17.627   8.256  10.917
24319W        W96733  21.115  16.179  11.896
24320W        W96734   0.300  13.214   4.752
24321W        W96735  15.691  24.545   3.782
24322W        W96736  30.976  33.987   3.723
24323W        W96737  37.563  21.263  10.987
24324W        W96738   1.823  12.690  12.422
24325W        W96739   0.400  26.048   4.728
24326W        W96740   4.290  42.313   2.687
24327W        W96741   5.701  31.605  14.820
24328W        W96742  15.307  18.111  12.360
24329W        W96743  34.472  19.064   2.805
24330W        W96744  38.883  25.977   3.175
24331W        W96745  29.964  13.263  10.904
24332W        W96746  27.154  26.159  12.427
24333W        W96747  21.621   1.819  14.494
24334W        W96748  31.002  23.115  14.767
24335W        W96749  21.539   8.684  12.846
24336W        W96750   3.826  28.649  12.913
24337W        W96751   7.230  14.237   4.798
24338W        W96752  41.863  12.727   1.300
24339W        W96753  26.652  43.489  13.925
24340W        W96754   5.814  15.599   0.447
24341W        W96755  13.626  30.140   0.726
24342W        W96756   9.855  22.663  11.590
24343W        W96757  39.433  35.950  10.974
24344W        W96758   8.356  35.423   1.341
24345W        W96759   5.848  25.163  12.530
24346W        W96760  28.014  13.280   4.206
24347W        W96761   9.321  20.134   0.938
24348W        W96762  39.848  44.452   0.349
24349W        W96763  34.867   9.849   0.844
24350W        W96764  38.041  26.192   1.249
24351W        W96765  35.991  23.552  13.874
24352W        W96766   0.361  34.404   4.760
24353W        W96767   1.344  23.054  12.503
24354W        W96768   8.338  36.426  12.514
24355W        W96769  36.857   8.748  11.863
24356W        W96770  18.671   7.899  13.058
24357W        W96771  12.796   3.422   0.757
24358W        W96772  37.907   1.743   0.964
24359W        W96773  33.617  36.498   0.430
24360W        W96774  35.060  33.556  10.510
24361W        W96775  17.629  19.273  10.460
24362W        W96776  22.008   4.795   2.789
24363W        W96777  29.519  31.517  14.824
24364W        W96778  34.519  35.893   3.790
24365W        W96779   1.831  41.318   4.221
24366W        W96780  16.124   3.364  10.986
24367W        W96781  17.696  35.501   3.355
24368W        W96782  43.412   5.742  13.382
24369W        W96783   4.289  39.985   0.928
24370W        W96784  18.674  21.052  10.535
24371W        W96785  29.584  37.836  11.859
24372W        W96786  27.195  40.350  14.465
24373W        W96787  25.586  26.067  14.911
24374W        W96788   8.334  31.048   4.836
24375W        W96789  30.081  13.714   2.201
24376W        W96790   5.415  39.851  10.459
24377W        W96791  11.864  13.206   4.212
24378W        W96792  36.494   4.336   4.187
24379W        W96793  32.418   7.692  13.534
24380W        W96794  22.106  38.450   1.772
24381W        W96795  16.606  35.025   3.709
24382W        W96796  18.732  24.049   3.214
24383W        W96797  14.123   7.841   1.436
24384W        W96798  41.966  17.762  13.060
24385W        W96799  41.831  28.974  11.981
24386W        W96800  24.627  44.353   3.236
24387W        W96801  20.217   2.433  10.895
24388W        W96802  15.730   4.207  13.995
24389W        W96803  11.677  19.612  14.866
24390W        W96804   9.156   5.193  14.316
24391W        W96805   5.296   4.831   2.666
24392W        W96806  18.202  29.964   2.365
24393W        W96807  33.132  20.665   0.883
24394W        W96808  39.317  12.326  12.348
24395W        W96809  27.618   8.796  12.028
24396W        W96810  44.948  27.593   2.327
24397W        W96811  34.970  16.225  14.474
24398W        W96812  31.115   3.945  11.025
24399W        W96813   7.292  25.607  11.592
24400W        W96814  31.977  27.482  11.971
24401W        W96815  38.378  36.390   4.768
24402W        W96816  15.681   4.870   2.321
24403W        W96817   5.928  18.791  13.362
24404W        W96818  27.459  38.497   0.445
24405W        W96819   3.402  19.637   4.745
24406W        W96820  27.149  22.527   3.158
24407W        W96821  34.412  42.845   1.368
24408W        W96822  30.496   4.762   4.158
24409W        W96823   6.271  27.539  14.304
24410W        W96824  19.164  11.277  13.057
24411W        W96825  44.954  14.320  10.478
24412W        W96826   3.835  15.267   2.688
24413W        W96827  20.084  43.297   5.129
24414W        W96828  27.975  40.885  13.988
24415W        W96829   3.922  34.426  13.880
24416W        W96830   2.736  41.492  13.873
24417W        W96831   1.824   1.862  12.975
24418W        W96832   0.381  15.733  11.968
24419W        W96833  33.102  15.299   3.789
24420W        W96834  39.474  43.462  12.920
24421W        W96835  20.694   1.800   1.362
24422W        W96836  10.325  28.500   2.276
24423W        W96837  24.116   8.368  10.596
24424W        W96838   8.190  24.635  12.451
24425W        W96839   6.811  11.804  13.445
24426W        W96840  23.991  31.978   0.279
24427W        W96841  20.057  24.705   4.294
24428W        W96842   6.202  32.945   3.634
24429W        W96843  27.967  12.155   2.712
24430W        W96844  21.168  42.297   4.204
24431W        W96845   5.221  41.914   9.565
24432W        W96846  11.773  39.821  13.976
24433W        W96847   0.948  29.505  14.957
24434W        W96848  26.549   8.851   3.371
24435W        W96849  18.197  11.173   2.385
24436W        W96850  12.230   1.359  14.845
24437W        W96851   5.713  18.200   2.714
24438W        W96852  26.128   9.655  13.033
24439W        W96853  35.569  11.771   2.871
24440W        W96854  41.010  43.984  14.467
24441W        W96855  36.532  11.664   5.225
24442W        W96856  17.643  22.090   1.916
24443W        W96857  10.218  30.601  14.967
24444W        W96858  42.963  44.841  13.897
24445W        W96859   9.835   4.709   1.411
24446W        W96860  29.523  16.722   0.921
24447W        W96861  30.035  20.218  13.328
24448W        W96862  34.915  12.659   3.631
24449W        W96863  39.905  31.584   0.475
24450W        W96864   7.351  32.495   0.810
24451W        W96865  25.207  17.745   5.295
24452W        W96866  38.367  36.093   4.310
24453W        W96867  29.569  20.755   1.327
24454W        W96868  30.581  34.596  10.642
24455W        W96869   5.844   7.187  13.861
24456W        W96870  39.530  13.684   2.295
24457W        W96871  37.563  34.866   3.352
24458W        W96872  19.672  21.528   2.730
24459W        W96873   7.397  25.196   4.600
24460W        W96874  33.467  25.154   2.281
24461W        W96875  38.847   5.840   0.406
24462W        W96876  20.562  24.148   2.412
24463W        W96877  12.620  30.588   3.728
24464W        W96878   4.738  24.226  11.004
24465W        W96879  43.837  23.100   0.375
24466W        W96880   3.920  39.869  11.095
24467W        W96881  22.006  26.703  11.934
24468W        W96882  39.526  16.656   3.254
24469W        W96883  43.351  40.321   1.219
24470W        W96884  17.208  10.320  11.126
24471W        W96885  39.894  15.195   1.316
24472W        W96886   3.878  27.027   0.944
24473W        W96887  25.019  25.111   1.255
24474W        W96888  40.861  18.647   4.210
24475W        W96889  36.845  20.064   4.637
24476W        W96890  34.430  13.636  12.003
24477W        W96891  34.990   1.887   1.803
24478W        W96892  37.493  25.094   1.278
24479W        W96893  42.372  13.608  13.043
24480W        W96894   0.778  25.559   1.714
24481W        W96895  33.560  26.086   1.300
24482W        W96896  26.994  18.290   4.354
24483W        W96897  25.612  35.532   0.433
24484W        W96898  12.777  38.453   1.284
24485W        W96899  18.146  17.757   4.166
24486W        W96900  10.265   8.159  14.811
24487W        W96901  24.113  17.095  11.559
24488W        W96902   4.312   9.662   1.842
24489W        W96903  11.144  39.544   4.748
24490W        W96904  17.169  21.647  13.805
24491W        W96905  32.609  13.224  13.467
24492W        W96906  18.220  35.442  13.387
24493W        W96907  44.003   0.282   3.274
24494W        W96908  31.602   5.435   4.229
24495W        W96909  22.065   8.772   2.688
24496W        W96910  37.470  21.577   4.825
24497W        W96911  16.629   6.884  11.508
24498W        W96912  40.346  30.914   1.412
24499W        W96913  31.084  26.977   0.816
24500W        W96914  14.765  18.059  11.392
24501W        W96915  27.578  38.365  14.840
24502W        W96916  37.504  15.124   4.731
24503W        W96917   0.807  37.912   0.384
24504W        W96918  44.272   2.926   4.349
24505W        W96919  28.553   4.867  13.986
24506W        W96920  19.609  37.493   2.199
24507W        W96921  12.780  36.571   1.433
24508W        W96922  19.055   3.919  14.012
24509W        W96923  37.984   2.905  13.537
24510W        W96924  28.094  25.199  13.939
24511W        W96925  23.054  36.520  10.603
24512W        W96926  37.882  19.634  14.893
24513W        W96927  13.173   9.384  13.026
24514W        W96928   8.691  44.826   2.226
24515W        W96929  17.563   6.290  11.941
24516W        W96930  39.445  38.458   4.217
24517W        W96931  30.457  18.126   0.793
24518W        W96932  38.561  21.755   3.335
24519W        W96933   8.876  29.514  11.110
24520W        W96934  16.167  35.867   3.639
24521W        W96935   9.794   1.349   0.772
24522W        W96936  22.220   8.769  13.377
24523W        W96937  15.755  29.962   0.820
24524W        W96938  31.145  38.532  12.368
24525W        W96939  30.084   8.258  14.903
24526W        W96940  14.129  17.796  10.420
24527W        W96941  40.042  22.507   1.341
24528W        W96942  31.628  27.080   0.255
24529W        W96943  19.285   5.901   1.884
24530W        W96944  15.733   4.816   2.703
24531W        W96945  35.973  33.019   0.934
24532W        W96946   2.434  26.666   4.236
24533W        W96947  30.491  40.807  14.506
24534W        W96948  16.684  35.471   1.765
24535W        W96949  28.180  32.532  11.372
24536W        W96950  12.641  27.989  11.393
24537W        W96951  20.069  38.881   0.450
24538W        W96952  14.719  29.531  10.542
24539W        W96953  29.644  14.607  12.996
24540W        W96954  13.724  40.999   3.257
24541W        W96955   7.736  23.691  11.885
24542W        W96956  16.680  17.110  14.878
24543W        W96957  18.121  28.977   4.284
24544W        W96958  39.467  32.591   3.326
24545W        W96959  16.076  16.095  11.940
24546W        W96960   9.837  22.654   1.310
24547W        W96961  38.891   5.830  10.601
24548W        W96962  21.588   5.843   1.222
24549W        W96963   5.773  28.543  10.593
24550W        W96964  35.474   9.656   0.872
24551W        W96965  42.869  13.261  12.846
24552W        W96966  27.547  39.335   4.275
24553W        W96967  29.434  21.521   2.273
24554W        W96968  27.044  27.492   0.317
24555W        W96969  31.137  15.701   4.826
24556W        W96970  34.524  22.745   3.782
24557W        W96971  42.933   0.482   2.180
24558W        W96972   3.338   3.860   3.646
24559W        W96973  17.082  11.832  11.971
24560W        W96974  42.887  16.254   2.773
24561W        W96975   5.894  18.592  14.894
24562W        W96976  14.116   8.813  14.015
24563W        W96977  22.051  34.949   2.275
24564W        W96978  27.973   2.933   1.345
24565W        W96979  43.851   3.245  14.289
24566W        W96980  15.683   8.827   1.758
24567W        W96981  33.030  23.515  12.976
24568W        W96982  35.892  23.147  10.564
24569W        W96983  17.657  31.947   3.661
24570W        W96984  42.029  12.133  11.002
24571W        W96985   0.884  31.434  12.887
24572W        W96986  42.379  12.139   1.279
24573W        W96987  34.982   8.744  12.555
24574W        W96988  41.376   9.152   0.377
24575W        W96989   5.197  29.436   4.785
24576W        W96990  32.524  32.042   3.845
24577W        W96991  36.874  34.469  12.956
24578W        W96992  35.407  13.805  12.465
24579W        W96993  13.146  10.306  10.535
24580W        W96994  21.086  30.062   3.672
24581W        W96995  14.733  42.296   1.310
24582W        W96996  38.851  30.446   1.326
24583W        W96997  14.142  16.669   4.310
24584W        W96998   0.839   4.213  12.008
24585W        W96999  38.353  37.550  14.857
24586W        W97000  17.251  20.690   1.398
24587W        W97001  11.292  26.055  10.550
24588W        W97002  27.453  34.102   4.624
24589W        W97003  20.246  43.988   3.693
24590W        W97004  16.168  34.554  13.991
24591W        W97005   1.364  39.010  12.045
24592W        W97006  39.545  32.627  10.592
24593W        W97007  17.235  35.377  13.006
24594W        W97008  25.536  44.279  14.015
24595W        W97009   9.744  15.590   2.877
24596W        W97010  24.207   0.470   2.201
24597W        W97011  24.533  41.459   1.261
24598W        W97012  20.758  43.012   1.731
24599W        W97013  38.376  25.646   1.432
24600W        W97014   1.376  35.598  12.087
24601W        W97015  27.036  33.117   1.800
24602W        W97016  41.402   4.374   0.808
24603W        W97017  13.721  41.379  14.899
24604W        W97018  32.009  27.555   9.956
24605W        W97019  24.028   7.714  13.339
24606W        W97020  19.640  34.370   1.852
24607W        W97021  32.932  40.876  14.974
24608W        W97022  10.175   5.871  12.961
24609W        W97023   9.250  35.028   2.806
24610W        W97024  30.642  16.789   2.203
24611W        W97025  31.972  44.305   2.894
24612W        W97026   7.241   2.256   0.740
24613W        W97027  23.205   4.834   4.241
24614W        W97028  15.666  10.230  13.491
24615W        W97029  23.036  38.003   3.228
24616W        W97030  24.187  30.918   4.808
24617W        W97031  42.360  43.918   2.342
24618W        W97032  27.118  34.934  12.501
24619W        W97033  44.452  25.631  14.978
24620W        W97034  12.802  14.591   2.884
24621W        W97035  20.170  42.909  13.809
24622W        W97036  22.668  18.171  14.491
24623W        W97037  35.506   3.457  14.357
24624W        W97038  25.201  14.150  13.861
24625W        W97039   5.813   5.252   4.741
24626W        W97040  35.505   1.386   0.890
24627W        W97041  20.141  11.150  13.012
24628W        W97042   1.396  20.667  11.026
24629W        W97043   1.478  40.467  14.791
24630W        W97044  33.032  20.261   3.857
24631W        W97045  20.572   1.944  14.917
24632W        W97046  43.923  27.042   3.744
24633W        W97047  11.802  26.621  10.517
24634W        W97048   0.344  31.138  11.946
24635W        W97049  18.171  19.093   4.785
24636W        W97050  33.885  44.959   4.341
24637W        W97051   6.380  39.538  11.606
24638W        W97052  33.038   1.782  13.818
24639W        W97053  19.259  35.090  12.469
24640W        W97054  38.837  21.245  14.007
24641W        W97055  24.117  32.551  13.430
24642W        W97056  20.654   1.912  13.829
24643W        W97057  17.716  29.052  12.973
24644W        W97058  34.556   4.383   3.738
24645W        W97059  38.954   2.398  10.487
24646W        W97060  34.015  42.025   2.391
24647W        W97061  39.997  33.947   3.213
24648W        W97062  17.213   1.410   0.256
24649W        W97063  39.376  20.266   3.179
24650W        W97064  15.104  26.082  11.575
24651W        W97065   8.854   4.341  13.835
24652W        W97066  22.515  14.199   9.985
24653W        W97067  14.796  42.031  11.572
24654W        W97068   3.807  34.427  10.949
24655W        W97069  39.061  37.969   9.927
24656W        W97070  36.352  39.962   2.279
24657W        W97071  25.670  13.249   1.288
24658W        W97072  17.750  30.944   0.952
24659W        W97073   6.424  30.437   5.102
24660W        W97074  13.703   0.778  13.018
24661W        W97075  41.979   4.721   1.345
24662W        W97076   1.344  22.534  13.868
24663W        W97077  37.466   3.765   4.185
24664W        W97078   2.912  27.663  11.021
24665W        W97079   8.854  23.649   2.278
24666W        W97080   3.897   5.838   0.922
24667W        W97081   3.775  13.224  11.049
24668W        W97082  42.846  44.848   1.271
24669W        W97083  24.496  28.180   1.425
24670W        W97084  29.554  10.778  13.049
24671W        W97085  31.423   8.709   3.637
24672W        W97086  14.589  40.398  11.462
24673W        W97087  18.756   0.917  13.443
24674W        W97088   9.809  43.482   2.279
24675W        W97089  20.656  19.693  10.584
24676W        W97090  21.242   8.726   3.337
24677W        W97091   2.447   4.276   0.776
24678W        W97092  29.963   7.223   1.765
24679W        W97093  32.444  22.081   5.306
24680W        W97094  38.510  42.953   1.915
24681W        W97095   4.294  32.061   4.792
24682W        W97096  11.320  17.773  13.030
24683W        W97097  26.068  32.479   1.410
24684W        W97098  19.200  23.153  12.576
24685W        W97099  33.935  20.651  12.538
24686W        W97100  28.955  11.297   0.916
24687W        W97101  13.330  16.229   3.808
24688W        W97102  23.126  28.667  12.887
24689W        W97103  27.972  14.701   2.380
24690W        W97104  24.069   1.273   2.317
24691W        W97105  15.257  37.561   0.259
24692W        W97106  26.655  11.331   9.939
24693W        W97107  16.637  10.689   4.682
24694W        W97108  36.931   9.325   2.357
24695W        W97109  37.882  42.971   0.277
24696W        W97110  34.932  36.512   3.762
24697W        W97111  44.984  18.185   0.851
24698W        W97112   8.675  20.251  13.515
24699W        W97113   1.764   3.424  14.393
24700W        W97114  22.041  13.796   1.280
24701W        W97115  34.898  15.694  12.989
24702W        W97116  17.194  40.430   1.440
24703W        W97117  42.412  43.338  10.476
24704W        W97118  13.721   3.328  10.577
24705W        W97119  36.869  24.679   4.136
24706W        W97120  25.473  18.575  14.806
24707W        W97121  25.033  24.124  11.956
24708W        W97122  27.600   1.321  11.877
24709W        W97123   0.850  22.619  11.583
24710W        W97124   4.320   7.746   2.239
24711W        W97125  25.572  37.892  14.297
24712W        W97126   3.755   5.307  10.974
24713W        W97127   8.857  39.394   0.892
24714W        W97128   6.913  14.679   5.711
24715W        W97129  44.285   8.168  10.976
24716W        W97130  41.467  22.163   2.419
24717W        W97131  25.088  33.559   0.270
24718W        W97132   5.841  44.779  14.888
24719W        W97133  14.750  29.151  11.517
24720W        W97134  20.583  28.060   0.811
24721W        W97135  12.209   5.919   1.316
24722W        W97136  24.176   3.296  10.031
24723W        W97137  38.393   8.853   2.836
24724W        W97138  39.841  20.036  14.992
24725W        W97139  29.550  16.782   3.285
24726W        W97140   0.756  32.048  13.905
24727W        W97141  29.646  34.887   2.777
24728W        W97142   3.908  30.526  12.931
24729W        W97143  26.001  40.043  11.866
24730W        W97144  28.507  32.620   4.273
24731W        W97145  44.363  25.123   3.280
24732W        W97146  17.791  27.138   2.734
24733W        W97147  29.502   4.427  11.412
24734W        W97148   0.929  12.196   0.830
24735W        W97149  23.702   2.402   0.268
24736W        W97150  36.469  24.981  12.411
24737W        W97151   7.218  37.543  13.048
24738W        W97152  12.281   5.201   0.856
24739W        W97153  38.942   8.769  14.496
24740W        W97154  20.190  41.480  13.863
24741W        W97155  15.654  42.815  10.932
24742W        W97156  33.121  16.738   4.134
24743W        W97157  23.581  24.502   3.645
24744W        W97158   6.825  21.617   2.899
24745W        W97159  16.099  39.006   3.276
24746W        W97160  29.441   5.907  14.281
24747W        W97161  35.414  28.524   4.644
24748W        W97162  42.465   0.257  11.576
24749W        W97163  15.143  26.106   3.795
24750W        W97164  20.241   5.244  11.082
24751W        W97165  25.634   7.408   4.814
24752W        W97166   1.938  13.210   1.924
24753W        W97167  30.147   4.860   2.339
24754W        W97168  34.027  30.454   3.744
24755W        W97169  21.629  31.605  14.917
24756W        W97170  21.552   7.195  10.429
24757W        W97171  17.787  29.928   0.946
24758W        W97172   1.875  38.044   1.890
24759W        W97173  13.703   2.418  12.885
24760W        W97174  21.662  44.357  12.033
24761W        W97175  27.982  10.246  14.773
24762W        W97176  17.605  40.379  14.277
24763W        W97177  13.191  11.199   1.697
24764W        W97178  23.666  26.072   3.360
24765W        W97179  12.307  35.923  14.869
24766W        W97180   9.235   5.218  10.898
24767W        W97181   5.210  42.327   5.610
24768W        W97182  21.201   4.722  13.894
24769W        W97183  31.451  25.080  14.374
24770W        W97184   5.364   5.751  12.063
24771W        W97185   5.919  17.174   0.403
24772W        W97186   0.414  34.082   3.220
24773W        W97187  33.516  22.653   2.382
24774W        W97188  44.441  38.051  12.888
24775W        W97189  43.858   3.757  11.518
24776W        W97190   7.813  38.077  12.052
24777W        W97191  33.587   4.823  11.872
24778W        W97192  20.663  11.364   1.768
24779W        W97193   1.242  31.585  13.488
24780W        W97194  24.609  41.480   3.649
24781W        W97195  33.483   5.700   3.313
24782W        W97196   3.297  30.631  11.919
24783W        W97197   7.199  27.686  10.954
24784W        W97198  13.105   6.684  13.349
24785W        W97199   4.359  20.043  14.398
24786W        W97200   1.941  13.318  11.886
24787W        W97201  14.807  31.951  11.067
24788W        W97202  13.135   8.853   5.149
24789W        W97203  36.062   4.335   4.677
24790W        W97204  44.375   4.385   0.330
24791W        W97205  28.177   0.307   2.717
24792W        W97206   2.844  14.194  13.887
24793W        W97207  25.053  29.568   1.273
24794W        W97208   5.314  17.216  13.481
24795W        W97209  32.938  42.391  13.344
24796W        W97210  17.656   9.202   3.644
24797W        W97211  10.384  29.541   4.762
24798W        W97212  35.565  23.229  10.010
24799W        W97213   3.870  31.998   3.150
24800W        W97214  34.090   5.869  13.045
24801W        W97215  17.280  38.860  12.051
24802W        W97216   5.285  15.758  14.818
24803W        W97217  13.737  19.537  10.973
24804W        W97218  44.762  35.878   1.258
24805W        W97219  39.432  12.704  12.481
24806W        W97220   4.250   9.709  13.493
24807W        W97221  34.590  39.047  11.927
24808W        W97222  37.561  35.398  10.058
24809W        W97223  11.251  32.518   1.833
24810W        W97224   1.859  25.136  10.454
24811W        W97225  12.294  32.593  14.461
24812W        W97226  34.064   3.239  12.447
24813W        W97227  34.396  40.381  12.854
24814W        W97228   9.789   4.384  12.519
24815W        W97229  42.976  20.548  13.451
24816W        W97230  39.482  17.184  14.824
24817W        W97231  14.779  28.115   0.451
24818W        W97232  28.063  12.638   2.362
24819W        W97233  39.466  14.829  14.386
24820W        W97234  20.565  34.109   4.805
24821W        W97235  25.044  18.754  13.493
24822W        W97236   0.918  11.168   4.778
24823W        W97237  35.977  29.469  13.341
24824W        W97238  34.371   4.359   4.828
24825W        W97239  10.301  34.578  10.117
24826W        W97240  33.915  33.087   0.854
24827W        W97241  15.712  12.769   4.197
24828W        W97242  19.666  33.883   0.864
24829W        W97243  43.981   9.294  14.350
24830W        W97244  12.211  34.959   3.369
24831W        W97245   1.954  17.650  11.982
24832W        W97246  23.632  27.529   4.346
24833W        W97247  38.998  34.925   1.788
24834W        W97248  44.405   8.306  12.401
24835W        W97249   8.353  28.093  10.579
24836W        W97250  11.735  10.838  14.904
24837W        W97251   7.186   1.853   4.260
24838W        W97252   3.228  35.601   2.748
24839W        W97253  28.980  40.447  10.536
24840W        W97254  13.123   7.386   4.748
24841W        W97255  25.661  25.663  13.456
24842W        W97256  41.303   2.444   0.825
24843W        W97257  38.462  29.007   0.831
24844W        W97258  37.531  38.829  12.438
24845W        W97259  17.725  30.419  13.331
24846W        W97260  24.184  36.518   3.175
24847W        W97261  37.949  34.467  12.362
24848W        W97262  35.566   3.893   1.426
24849W        W97263  41.801  37.850  10.629
24850W        W97264   0.804   0.413  13.375
24851W        W97265  44.823   3.268   2.197
24852W        W97266  11.806  10.148  14.010
24853W        W97267   5.901  34.476  10.939
24854W        W97268  29.130   8.360   0.323
24855W        W97269  27.192  27.581  14.419
24856W        W97270  20.669  15.106  10.451
24857W        W97271  31.432  36.997  11.440
24858W        W97272  37.517  34.378  13.309
24859W        W97273  43.787  36.889   0.427
24860W        W97274  33.911  24.630  14.972
24861W        W97275   0.821  12.361  12.043
24862W        W97276   4.410   9.788  11.519
24863W        W97277  24.206  30.165  11.046
24864W        W97278   2.317  39.988   3.737
24865W        W97279  44.890  11.229  11.531
24866W        W97280  38.968  21.067  14.845
24867W        W97281  21.213  31.597   2.805
24868W        W97282  27.655  12.628   3.216
24869W        W97283   0.897   4.349  14.965
24870W        W97284  36.593   3.318   4.276
24871W        W97285  39.014  34.016  10.980
24872W        W97286   3.420  29.041  12.873
24873W        W97287  12.294  24.210  13.499
24874W        W97288  31.076  30.515   0.727
24875W        W97289   5.215  19.225  12.006
24876W        W97290  21.551  36.865  14.875
24877W        W97291  42.310  11.795   4.299
24878W        W97292   1.943  29.538   1.764
24879W        W97293  44.457  11.769   3.680
24880W        W97294   0.482  20.725   2.710
24881W        W97295   0.766  32.425  11.433
24882W        W97296  33.943  18.205   4.192
24883W        W97297  16.072  28.495  10.522
24884W        W97298  11.236  15.292   4.783
24885W        W97299  34.098  32.007   0.366
24886W        W97300  42.851  22.729  11.075
24887W        W97301   0.477  17.088  12.851
24888W        W97302  24.547  32.603   0.848
24889W        W97303  40.333  34.874   5.135
24890W        W97304  30.536  43.005   4.836
24891W        W97305  34.890  39.966   4.240
24892W        W97306  35.470   8.264   1.399
24893W        W97307   3.353  22.097  11.907
24894W        W97308  25.008  40.037   2.666
24895W        W97309  40.344  41.292   4.838
24896W        W97310  16.200   7.177  10.119
24897W        W97311   1.432  27.175  10.616
24898W        W97312  34.069  17.083   0.913
24899W        W97313  15.631  23.617   5.139
24900W        W97314  28.573  35.508   3.293
24901W        W97315  30.972   8.391  11.598
24902W        W97316  37.016  22.218  13.034
24903W        W97317  43.973  25.594  11.000
24904W        W97318  22.152  12.169  11.046
24905W        W97319  12.844  37.851   0.931
24906W        W97320  31.552   4.869   3.671
24907W        W97321  26.633  15.597  12.864
24908W        W97322   1.247  23.085   3.738
24909W        W97323   1.949  13.119   1.299
24910W        W97324  32.398  34.580   4.118
24911W        W97325  40.485  26.126  13.946
24912W        W97326  20.658  11.283  13.902
24913W        W97327  37.924  25.001  10.901
24914W        W97328  30.158  40.532  13.416
24915W        W97329  18.124  21.049   3.340
24916W        W97330  18.053   0.843  10.507
24917W        W97331  39.318  41.966   2.359
24918W        W97332  44.501   3.451   9.962
24919W        W97333  42.289  25.575  11.457
24920W        W97334  27.138  12.207   1.861
24921W        W97335   6.196  37.055  10.484
24922W        W97336  32.444  38.066  12.900
24923W        W97337  25.070  18.655  11.084
24924W        W97338  24.502   4.427   3.357
24925W        W97339   7.869  22.669  14.769
24926W        W97340  41.347  44.880   2.871
24927W        W97341   6.222  44.371  11.024
24928W        W97342  39.842  36.079   0.302
24929W        W97343  27.476  11.824   2.876
24930W        W97344   2.461  37.851   0.433
24931W        W97345  35.017  11.685   3.674
24932W        W97346  24.107  42.514   2.852
24933W        W97347  44.008  26.144  14.875
24934W        W97348  42.807  18.285  11.473
24935W        W97349  18.753   7.252   1.218
24936W        W97350  33.598  41.894  13.544
24937W        W97351  39.994  44.474  13.507
24938W        W97352  20.531  33.874  11.002
24939W        W97353  13.300  38.856   2.255
24940W        W97354  37.337  17.683  14.821
24941W        W97355  44.844  41.922   2.804
24942W        W97356  39.836  10.245   3.826
24943W        W97357  38.991   3.749  11.513
24944W        W97358  41.438  21.610  13.917
24945W        W97359  32.945  20.117  13.404
24946W        W97360  22.128  16.575  12.897
24947W        W97361  14.104  28.092   3.166
24948W        W97362   0.841   1.270   4.677
24949W        W97363   1.291  24.725  10.635
24950W        W97364   0.755  12.649   3.702
24951W        W97365  30.157  15.608  11.579
24952W        W97366   6.276  33.428   0.404
24953W        W97367  25.564  24.114  14.982
24954W        W97368  21.106  19.749   3.173
24955W        W97369  13.200  44.952   1.421
24956W        W97370  26.025  18.134  12.840
24957W        W97371  22.187  20.143   2.858
24958W        W97372  38.895  32.434   3.798
24959W        W97373   8.335  25.027   2.194
24960W        W97374  30.034  15.320  12.460
24961W        W97375  34.384   3.763  10.496
24962W        W97376  44.977   7.823   1.851
24963W        W97377  14.251  42.958   0.383
24964W        W97378  42.368  32.578  11.585
24965W        W97379   6.880  34.953   4.723
24966W        W97380   3.407   9.214   0.411
24967W        W97381  19.631  18.223   0.332
24968W        W97382  41.467  30.444   2.283
24969W        W97383  29.114   4.375   1.321
24970W        W97384  27.115  25.674  12.838
24971W        W97385   6.827  24.700  12.368
24972W        W97386   9.158  32.948  14.457
24973W        W97387   6.813  25.131   4.277
24974W        W97388  37.469   3.334   2.884
24975W        W97389  21.225   7.813  14.989
24976W        W97390  42.326  43.446   0.356
24977W        W97391  13.314  40.520   3.338
24978W        W97392   9.718  19.199   4.781
24979W        W97393  30.585  12.668   4.783
24980W        W97394  19.145   8.375  14.803
24981W        W97395   0.441   5.927  10.497
24982W        W97396  24.534  42.955   0.280
24983W        W97397  44.875  13.160   4.221
24984W        W97398   2.885   0.320   2.893
24985W        W97399  10.854  44.302   4.324
24986W        W97400  31.011  19.143   1.752
24987W        W97401  12.192   4.409   2.776
24988W        W97402   6.420  21.197   3.223
24989W        W97403  35.593  18.200   4.262
24990W        W97404   4.403  36.077  12.503
24991W        W97405   0.280   5.217  12.045
24992W        W97406  44.901  33.902   4.217
24993W        W97407   5.356  12.329   3.345
24994W        W97408  34.411  22.730  13.472
24995W        W97409  23.182   6.852  11.114
24996W        W97410   2.949  33.567   1.766
24997W        W97411  30.046  34.882  14.387
24998W        W97412  17.716  20.648  14.890
24999W        W97413  41.946  15.238   0.941
25000W        W97414   9.879  19.724   0.929
25001W        W97415  10.708  32.589   3.149
25002W        W97416  24.542   3.406  12.945
25003W        W97417  14.119  21.072   0.862
25004W        W97418  40.381  37.562  11.577
25005W        W97419  44.895  12.674  12.376
25006W        W97420  14.708  13.127   2.315
25007W        W97421  38.436  15.165  11.903
25008W        W97422  24.227  34.897   3.331
25009W        W97423   3.723  15.606  12.952
25010W        W97424  37.371  28.459  11.395
25011W        W97425   6.778  14.594  12.846
25012W        W97426  44.825  32.907   3.197
25013W        W97427  25.126  25.584   2.295
25014W        W97428  18.655  32.981  10.632
25015W        W97429  29.562  25.681  11.949
25016W        W97430  15.118   8.318   2.883
25017W        W97431  16.690  26.982  12.546
25018W        W97432  20.577   1.954   2.268
25019W        W97433  36.574  44.767   4.787
25020W        W97434  36.449  11.306  14.850
25021W        W97435  40.364  23.218  10.485
25022W        W97436   7.827  27.455  13.406
25023W        W97437  27.598  42.410  11.523
25024W        W97438  43.372  14.658   1.449
25025W        W97439  24.594  15.228  14.779
25026W        W97440  25.199  28.965  11.466
25027W        W97441  40.341  20.753   4.203
25028W        W97442  11.754  10.766  10.139
25029W        W97443  10.337  39.938  12.574
25030W        W97444  28.667  40.352  12.575
25031W        W97445   1.465  29.037   0.286
25032W        W97446  33.991  22.531  12.048
25033W        W97447  35.530   9.307  13.063
25034W        W97448  24.006  33.485   3.780
25035W        W97449  19.565  43.468  13.365
25036W        W97450  26.109  25.036  12.897
25037W        W97451   2.360   8.724  13.891
25038W        W97452  14.800  44.306  12.348
25039W        W97453  20.616  36.511   1.766
25040W        W97454  35.587  12.661   1.912
25041W        W97455  11.742  25.170  14.844
25042W        W97456  15.815  43.852   2.263
25043W        W97457  37.479  15.610   0.378
25044W        W97458  36.463   8.834   0.338
25045W        W97459   0.764  18.280   1.804
25046W        W97460  13.599  35.482  14.381
25047W        W97461  27.463  34.079   1.374
25048W        W97462  43.440   9.676  10.405
25049W        W97463  16.775  22.040   3.274
25050W        W97464  19.098   8.868  13.916
25051W        W97465  31.928  29.464  11.973
25052W        W97466  31.896   1.842  11.396
25053W        W97467  27.173   5.303   3.212
25054W        W97468  16.195  26.106   3.759
25055W        W97469  30.600  44.914   1.272
25056W        W97470   8.400  16.079   0.358
25057W        W97471  44.878  19.591  11.475
25058W        W97472   7.821  34.598  13.792
25059W        W97473  37.892  35.935   9.672
25060W        W97474  44.841  36.356   2.718
25061W        W97475   1.436  32.111   1.253
25062W        W97476  11.365  41.343  13.952
25063W        W97477   8.197  14.665  10.938
25064W        W97478  43.992  21.590   2.255
25065W        W97479  20.156  25.538  11.487
25066W        W97480  16.647  33.919   3.383
25067W        W97481  15.120  19.084   0.298
25068W        W97482  32.636  17.124  14.922
25069W        W97483   5.917  29.964   3.230
25070W        W97484  13.293  35.391  12.489
25071W        W97485  37.465  17.148   4.151
25072W        W97486  18.111  13.127  13.468
25073W        W97487  22.586   4.816   4.173
25074W        W97488   0.271   2.918   3.794
25075W        W97489  37.965  42.289   1.817
25076W        W97490  43.891  11.856  12.378
25077W        W97491  22.223  42.971  13.400
25078W        W97492   5.300  29.122   0.764
25079W        W97493  18.093  28.641   3.381
25080W        W97494  19.637  13.184   1.226
25081W        W97495  29.564   3.239  11.963
25082W        W97496   0.888   1.949   4.229
25083W        W97497  15.794  21.616   0.872
25084W        W97498  36.542  34.027  12.038
25085W        W97499  26.489  34.940   4.184
25086W        W97500   6.357  31.513   3.242
25087W        W97501  42.864  23.558   2.233
25088W        W97502  36.042   0.764   5.290
25089W        W97503   7.363  38.940   4.838
25090W        W97504  12.704  43.322  10.973
25091W        W97505   4.834  42.501   4.638
25092W        W97506  29.955  14.123   2.858
25093W        W97507   6.202  10.876  12.968
25094W        W97508  17.593  16.720  10.901
25095W        W97509  30.916   0.800   3.658
25096W        W97510  36.498  10.240  14.360
25097W        W97511  40.925  43.918   0.792
25098W        W97512   4.288  21.049  10.603
25099W        W97513   0.354   1.272   3.751
25100W        W97514  37.839  21.048   3.361
25101W        W97515  15.666   4.881   1.221
25102W        W97516  10.721  22.139  13.043
25103W        W97517  10.872  24.598   0.254
25104W        W97518  32.111  10.346   0.393
25105W        W97519  32.068  41.330   2.278
25106W        W97520  22.503  34.446  13.792
25107W        W97521  38.076   7.228   4.729
25108W        W97522   9.300  14.678  12.914
25109W        W97523   9.175  32.570  12.941
25110W        W97524  19.272   9.158  12.898
25111W        W97525   5.850   0.260  12.980
25112W        W97526  12.260  20.752  14.006
25113W        W97527   6.733  28.017  13.826
25114W        W97528  44.439  30.626   4.603
25115W        W97529  38.390  22.040   2.366
25116W        W97530  38.523  36.483  14.862
25117W        W97531   0.919  37.413   1.407
25118W        W97532  40.530  10.274  13.415
25119W        W97533  33.462  18.066   1.294
25120W        W97534   2.307  16.607   2.752
25121W        W97535  25.208  16.669   1.922
25122W        W97536   3.924  38.054   3.817
25123W        W97537   3.292  29.518  13.449
25124W        W97538  35.455   3.459   1.236
25125W        W97539  13.820   8.240   3.834
25126W        W97540  44.302  19.089  12.846
25127W        W97541  33.075   0.851   1.383
25128W        W97542  36.420  28.605  14.442
25129W        W97543   6.364  28.122  12.489
25130W        W97544  39.811   6.796   3.860
25131W        W97545  41.351  35.930  12.836
25132W        W97546   4.917   7.413  13.327
25133W        W97547  28.996  42.383   3.764
25134W        W97548  39.042  17.610   1.292
25135W        W97549  33.028  27.961  14.008
25136W        W97550   7.273   5.885   1.431
25137W        W97551  33.894  42.508  11.427
25138W        W97552  40.891  15.201   2.235
25139W        W97553  15.789  42.865   4.723
25140W        W97554  29.929   1.238   3.363
25141W        W97555  18.088  22.042  10.424
25142W        W97556  37.383  26.643   0.427
25143W        W97557  10.670  31.145  13.855
25144W        W97558  11.211  14.623  12.363
25145W        W97559  34.532  11.207   2.312
25146W        W97560  36.367   1.798  10.049
25147W        W97561  18.235  19.227  14.282
25148W        W97562  34.455   6.700  11.101
25149W        W97563  22.015  15.583  12.451
25150W        W97564  10.682  20.702  14.833
25151W        W97565  39.359  10.858  12.935
25152W        W97566  18.098  21.694   2.807
25153W        W97567  12.818   9.307   4.673
25154W        W97568  28.164  30.656   2.289
25155W        W97569  21.197  30.123   1.280
25156W        W97570  25.528   4.240   4.315
25157W        W97571  39.833  11.725  14.332
25158W        W97572  44.278  14.627  11.438
25159W        W97573  38.364  13.634  13.021
25160W        W97574   4.354  18.069  11.906
25161W        W97575   0.266  40.317   4.664
25162W        W97576   2.348  44.299  14.970
25163W        W97577  19.728  42.840   3.639
25164W        W97578  37.965   1.238   4.676
25165W        W97579  18.249   2.311   2.738
25166W        W97580  25.084  44.280  12.894
25167W        W97581  39.962  28.458  11.403
25168W        W97582   5.357  24.186   1.770
25169W        W97583  41.984  22.535   2.718
25170W        W97584   5.933  39.819  11.085
25171W        W97585  22.060  37.070   0.927
25172W        W97586  11.221  17.153   2.811
25173W        W97587  14.278  15.152   1.708
25174W        W97588  24.707   7.776  13.903
25175W        W97589  24.205  37.048  11.097
25176W        W97590  43.343   4.215   2.671
25177W        W97591   3.718  36.933   3.730
25178W        W97592  41.897  25.182   0.367
25179W        W97593  42.371  26.652   4.625
25180W        W97594  38.326  42.885  10.550
25181W        W97595  43.509  14.677   3.329
25182W        W97596  29.473  42.460  11.950
25183W        W97597  31.054  37.353  10.601
25184W        W97598  19.160  14.311   0.765
25185W        W97599  30.971  24.986   5.175
25186W        W97600  26.064   4.385  12.932
25187W        W97601  44.356  34.087  11.476
25188W        W97602  18.134  38.523   2.195
25189W        W97603   9.861  20.086   1.741
25190W        W97604  18.180  23.609  11.452
25191W        W97605  17.206  44.887  11.908
25192W        W97606   1.472  11.829   4.179
25193W        W97607   4.245  11.709   1.452
25194W        W97608   2.766   4.926   1.771
25195W        W97609  37.382  13.148   2.841
25196W        W97610  26.107  26.643  14.386
25197W        W97611   4.909  32.092  12.032
25198W        W97612  10.696  10.370  14.316
25199W        W97613  30.596  14.135   2.870
25200W        W97614  36.055  29.627  13.877
25201W        W97615  44.922   8.899  12.921
25202W        W97616  39.511  15.151   1.766
25203W        W97617  28.003  36.008   2.324
25204W        W97618  33.396  20.164   5.225
25205W        W97619  43.878  39.533  14.307
25206W        W97620  12.120   8.289  12.954
25207W        W97621  14.720  12.791   5.149
25208W        W97622  42.455  31.132  12.454
25209W        W97623   4.365  32.952  11.086
25210W        W97624  38.959  15.318   9.961
25211W        W97625  38.364  39.962   4.836
25212W        W97626   7.303  12.730   3.263
25213W        W97627  23.020   5.718  13.965
25214W        W97628  36.552   1.378   1.227
25215W        W97629  24.572  44.389   0.250
25216W        W97630   4.936  18.626   4.117
25217W        W97631  26.575   3.810  12.968
25218W        W97632  22.729   5.724  12.450
25219W        W97633   0.754  28.611  10.565
25220W        W97634  42.021   2.462   0.448
25221W        W97635  18.737  44.389  14.782
25222W        W97636  42.000  40.956   2.313
25223W        W97637  18.555  11.851  10.619
25224W        W97638   0.897  15.684  13.534
25225W        W97639  39.499  38.919   1.337
25226W        W97640   0.747  33.447   0.898
25227W        W97641  29.614  17.204  13.879
25228W        W97642  40.303   2.847   2.414
25229W        W97643  38.070  41.805  10.603
25230W        W97644   1.927  40.826   3.689
25231W        W97645   9.315  15.112  13.882
25232W        W97646  13.833  44.819   0.455
25233W        W97647  17.678  43.276   5.204
25234W        W97648  20.767  32.916   2.709
25235W        W97649  36.966  28.564   3.767
25236W        W97650   9.856   3.856  10.509
25237W        W97651  16.574  27.162  11.906
25238W        W97652  44.407  35.933  13.471
25239W        W97653   6.902  17.083  13.444
25240W        W97654  39.934  26.122   3.647
25241W        W97655   8.209  21.542   0.960
25242W        W97656  19.066   8.233  11.934
25243W        W97657  21.066  15.763  10.450
25244W        W97658   4.266  15.719   1.802
25245W        W97659  36.434  11.195   3.169
25246W        W97660  43.914  37.849  14.344
25247W        W97661  16.187   7.728  14.783
25248W        W97662  18.166   7.739   1.351
25249W        W97663  14.300  10.681   0.896
25250W        W97664   6.757  44.323  12.958
25251W        W97665   5.283   6.319   2.732
25252W        W97666  39.449  42.936  13.000
25253W        W97667  22.712   2.885  12.019
25254W        W97668   3.380  43.301   4.636
25255W        W97669  39.374   1.337   1.342
25256W        W97670  41.912   1.944   4.300
25257W        W97671  25.649   8.785  10.611
25258W        W97672  10.664   2.828   0.820
25259W        W97673   9.323  32.596  12.047
25260W        W97674  31.008   9.858  14.791
25261W        W97675   7.749  13.701  14.372
25262W        W97676  29.029   7.280  14.903
25263W        W97677  35.934   3.258   2.760
25264W        W97678   5.786  19.152   2.305
25265W        W97679  24.543  16.588  10.535
25266W        W97680   9.179  22.704   4.250
25267W        W97681  19.565  44.452   3.172
25268W        W97682  33.884  41.860  14.323
25269W        W97683   7.412  10.194   2.192
25270W        W97684   0.768  32.406   4.726
25271W        W97685   1.929  28.656  12.402
25272W        W97686  18.609   1.391  11.064
25273W        W97687  39.394   0.846   2.325
25274W        W97688  34.961  32.427   0.916
25275W        W97689   0.875  39.055   1.307
25276W        W97690  35.855   6.923  13.930
25277W        W97691  40.827  12.672   2.396
25278W        W97692   7.357  10.292   1.906
25279W        W97693   4.220  33.009  12.364
25280W        W97694  15.166  14.289   3.699
25281W        W97695  25.030  25.539  12.517
25282W        W97696  17.752  10.313  11.381
25283W        W97697  41.414   4.874   4.259
25284W        W97698  34.491  10.875   4.817
25285W        W97699   5.714  29.099   3.756
25286W        W97700  44.283  41.528   4.754
25287W        W97701  32.614  17.658   1.751
25288W        W97702  21.663  12.703  10.567
25289W        W97703  26.555   9.756  13.418
25290W        W97704  28.655  36.384   0.264
25291W        W97705  28.492  22.202  14.487
25292W        W97706  29.023  33.460   0.334
25293W        W97707   9.684  42.471  13.510
25294W        W97708  25.599  16.293   4.305
25295W        W97709  19.144  37.980  12.064
25296W        W97710  32.460  19.082  14.970
25297W        W97711  42.512  13.829  13.429
25298W        W97712   0.304  33.104  11.592
25299W        W97713  40.904  35.926  14.409
25300W        W97714  37.581   6.379   3.223
25301W        W97715  33.452   2.844  11.887
25302W        W97716  11.358  39.809   4.306
25303W        W97717   6.895  41.303   2.770
25304W        W97718  33.068  12.262   0.349
25305W        W97719   2.420  10.736   3.793
25306W        W97720  26.459  38.945  11.383
25307W        W97721  37.832  44.813  12.861
25308W        W97722  18.270  37.843  12.388
25309W        W97723   4.740  14.764  14.830
25310W        W97724  17.778  15.088   3.668
25311W        W97725   8.255  17.678  13.444
25312W        W97726  23.144   5.198  11.418
25313W        W97727  43.773  28.962   2.252
25314W        W97728  10.280   7.291  14.947
25315W        W97729  11.182  13.715   1.424
25316W        W97730   3.381  17.105  14.847
25317W        W97731   1.275  16.694  10.904
25318W        W97732  33.998  31.553  12.059
25319W        W97733  21.179  36.870  12.081
25320W        W97734  10.372  12.158   2.284
25321W        W97735   1.852   2.320  14.914
25322W        W97736  19.707  38.553   4.834
25323W        W97737  35.918  23.020   0.953
25324W        W97738  36.875  17.215  13.899
25325W        W97739  27.982  21.701  10.620
25326W        W97740  36.910  37.460   0.960
25327W        W97741  24.977  21.621  12.912
25328W        W97742  42.409  24.126   2.389
25329W        W97743  22.024  24.710   2.832
25330W        W97744  25.643  35.358   1.274
25331W        W97745  10.380  18.089   4.321
25332W        W97746  18.564  37.964   0.432
25333W        W97747   3.411  37.541   1.450
25334W        W97748  18.246  38.938  11.464
25335W        W97749  28.026  36.464   4.314
25336W        W97750   2.929  30.015   2.235
25337W        W97751  33.619  42.831   3.835
25338W        W97752   7.289  12.356  13.355
25339W        W97753  35.902   6.359  12.853
25340W        W97754   7.285  34.961   1.427
25341W        W97755   6.215   7.782   2.274
25342W        W97756  28.486  14.224   0.886
25343W        W97757  30.529  38.449  11.515
25344W        W97758  10.800   5.243   2.409
25345W        W97759  37.378  43.286   4.274
25346W        W97760  40.012  12.687  13.023
25347W        W97761   2.365  28.983  14.761
25348W        W97762  17.165  39.845   2.371
25349W        W97763  28.064   5.210   3.358
25350W        W97764  40.336   2.329   3.279
25351W        W97765  10.658  17.211   2.801
25352W        W97766  42.395  25.182  13.820
25353W        W97767  40.365   9.390   3.294
25354W        W97768  25.048  18.241   2.290
25355W        W97769  35.381  16.136   2.716
25356W        W97770  22.733  19.168   3.667
25357W        W97771  35.545  44.384   3.845
25358W        W97772  29.173  34.885   1.806
25359W        W97773   7.776  17.740  11.578
25360W        W97774  31.908   3.768  11.085
25361W        W97775  38.515  42.481   1.790
25362W        W97776   9.706  24.550  11.068
25363W        W97777  16.220  30.019   2.892
25364W        W97778  19.541  44.805   1.874
25365W        W97779  34.065   0.484   3.248
25366W        W97780   5.238  17.140   1.826
25367W        W97781  33.383  39.874  11.062
25368W        W97782  14.652  29.523   4.721
25369W        W97783  44.430  38.998  13.922
25370W        W97784  30.651  32.110  13.483
25371W        W97785  30.114  20.611   4.273
25372W        W97786  25.030   6.766  14.827
25373W        W97787   6.332  18.126   2.419
25374W        W97788   4.389  37.572  13.459
25375W        W97789  41.532  43.956  14.284
25376W        W97790   4.289  40.980  10.512
25377W        W97791  38.898  31.404   3.681
25378W        W97792  32.462  28.933   2.414
25379W        W97793  24.484   2.958   1.775
25380W        W97794  32.946   7.252  11.531
25381W        W97795  42.367   1.449  12.379
25382W        W97796  28.543  26.615  14.385
25383W        W97797  31.957  44.780  10.570
25384W        W97798  15.203  10.375   0.852
25385W        W97799  39.531  23.551  14.377
25386W        W97800   6.875  28.503  13.907
25387W        W97801   9.379  24.184   2.362
25388W        W97802  15.170  34.465   1.783
25389W        W97803  12.172   9.293   0.369
25390W        W97804  16.569  28.543   3.360
25391W        W97805  36.501  37.482   4.185
25392W        W97806  19.719  34.536   2.746
25393W        W97807  27.074  13.602   3.784
25394W        W97808  13.193  36.083  14.923
25395W        W97809  12.360  43.463   4.222
25396W        W97810  10.325  26.972  10.982
25397W        W97811  17.195   4.922  10.561
25398W        W97812  19.199   6.690  14.018
25399W        W97813  43.312   3.882   0.952
25400W        W97814  15.118  22.148  11.996
25401W        W97815  21.515   4.786   1.765
25402W        W97816  44.335  29.037   4.779
25403W        W97817  25.567  13.247   4.797
25404W        W97818   0.987  36.857  12.059
25405W        W97819   8.758  11.818   5.119
25406W        W97820  36.382  40.935   1.417
25407W        W97821  28.505  19.262  13.324
25408W        W97822  32.552   0.862   1.364
25409W        W97823  26.515  31.510   0.931
25410W        W97824  11.808  10.239  11.015
25411W        W97825   2.906  28.123  10.072
25412W        W97826   9.185   2.415   4.136
25413W        W97827   9.851  32.558   4.644
25414W        W97828   0.302  19.728  14.426
25415W        W97829  26.667   8.778   1.883
25416W        W97830  22.570  17.586   5.624
25417W        W97831  37.448  41.375  13.931
25418W        W97832  19.617  38.836   3.156
25419W        W97833  11.699   7.317  12.092
25420W        W97834  30.123   7.767   3.318
25421W        W97835   7.240  17.129   0.786
25422W        W97836  25.579   4.838   4.688
25423W        W97837  39.027  29.029   0.404
25424W        W97838   0.364  39.996  14.802
25425W        W97839  17.212  25.164   3.345
25426W        W97840   3.427  10.646   0.771
25427W        W97841  35.572  29.086  14.452
25428W        W97842  11.197  24.503   0.846
25429W        W97843  18.148  10.168  11.523
25430W        W97844  18.165   2.298   3.800
25431W        W97845  22.168  25.204  12.359
25432W        W97846  18.727  34.955   0.354
25433W        W97847  37.042  25.629   1.877
25434W        W97848   3.215  10.208  13.872
25435W        W97849  16.302  42.904   0.282
25436W        W97850  31.985  32.442   5.155
25437W        W97851   8.287  43.304  14.919
25438W        W97852   8.301  30.447   1.296
25439W        W97853  26.184   3.312   1.319
25440W        W97854   2.817  32.100  11.423
25441W        W97855   8.400  17.195   0.729
25442W        W97856  32.612  29.975  10.439
25443W        W97857  20.048   4.275  11.018
25444W        W97858  26.131  17.227  12.065
25445W        W97859  43.369   8.800   4.628
25446W        W97860  28.502  23.686   1.801
25447W        W97861   8.306  14.788   0.730
25448W        W97862  30.460   7.886  10.475
25449W        W97863  10.182  22.633  11.482
25450W        W97864  26.586   7.679   0.908
25451W        W97865  13.784  38.352   3.785
25452W        W97866  43.897   1.278   3.758
25453W        W97867   4.237  40.953   4.774
25454W        W97868  27.180  25.119   4.802
25455W        W97869   9.239  41.482   4.747
25456W        W97870  36.486  11.625   2.246
25457W        W97871  26.614  35.506  12.576
25458W        W97872  31.628  33.467  12.996
25459W        W97873   8.699  36.939   2.278
25460W        W97874  39.926  28.514   4.241
25461W        W97875  37.358   9.217   4.286
25462W        W97876  43.967   0.478  12.491
25463W        W97877  11.295  29.001  11.568
25464W        W97878   3.921   3.424  10.503
25465W        W97879  27.563  27.624  12.869
25466W        W97880  18.563   5.832  14.285
25467W        W97881  27.196  44.994  11.448
25468W        W97882   5.710   2.250   1.402
25469W        W97883  30.154  22.691  10.440
25470W        W97884  38.913   2.379  12.358
25471W        W97885  29.171  13.730  10.982
25472W        W97886  19.216  18.739  13.002
25473W        W97887  44.482   0.987  11.936
25474W        W97888  17.226  28.609   4.266
25475W        W97889   9.830  28.488   4.240
25476W        W97890  26.142  41.377   3.190
25477W        W97891  31.618  22.735   4.337
25478W        W97892   9.354   9.228   2.899
25479W        W97893  41.327  27.552  13.056
25480W        W97894  40.046  19.580   4.825
25481W        W97895  43.848   0.390  12.930
25482W        W97896  30.947  27.683   4.770
25483W        W97897   5.913  33.067  12.485
25484W        W97898  18.677   0.296  13.961
25485W        W97899  10.660   8.826   3.761
25486W        W97900  25.980   5.259   2.380
25487W        W97901  35.989  35.533  14.327
25488W        W97902  17.147  32.895   3.781
25489W        W97903  10.765  19.741   3.371
25490W        W97904  12.142  41.462  12.997
25491W        W97905  44.487  29.534  14.853
25492W        W97906  27.012  39.405   2.215
25493W        W97907  15.189  32.582  11.042
25494W        W97908  28.612  23.576  14.915
25495W        W97909  30.525   8.898  13.033
25496W        W97910  39.409   9.355   4.135
25497W        W97911   2.954  39.499  10.923
25498W        W97912  12.330   2.434  12.861
25499W        W97913  34.594  29.015   4.657
25500W        W97914  13.714  44.964  13.417
25501W        W97915  38.025   0.871  13.060
25502W        W97916  24.609  41.324   4.189
25503W        W97917   1.825  42.431  11.011
25504W        W97918  27.589   6.236   4.143
25505W        W97919  12.740  37.031  11.460
25506W        W97920  31.141  13.260  12.537
25507W        W97921   5.379  13.633   5.144
25508W        W97922  42.876  12.187   2.247
25509W        W97923  22.640   1.394  12.534
25510W        W97924  18.110  14.642   4.639
25511W        W97925  32.895  37.960   0.861
25512W        W97926  34.990  44.436  13.491
25513W        W97927  20.703  23.573  11.883
25514W        W97928  33.435  10.640  12.491
25515W        W97929  39.824   2.377  10.571
25516W        W97930   6.717  25.633   2.890
25517W        W97931  34.524  13.805  13.835
25518W        W97932  15.756  19.566  12.580
25519W        W97933  39.423   8.329   2.319
25520W        W97934  14.725  26.663  11.872
25521W        W97935  39.846  13.349   3.258
25522W        W97936   8.329  17.107  13.404
25523W        W97937  21.688  35.991  12.425
25524W        W97938  23.135  18.153  12.864
25525W        W97939  27.643  29.095   3.205
25526W        W97940  34.930   0.761   0.730
25527W        W97941   5.856  15.173  11.950
25528W        W97942   2.791   0.968   4.170
25529W        W97943  26.502   8.682  13.819
25530W        W97944   3.739  38.340  12.481
25531W        W97945  17.070  35.055  11.874
25532W        W97946  44.977   6.786   0.892
25533W        W97947  40.351  33.589   1.933
25534W        W97948  18.218   6.805  13.360
25535W        W97949  33.556  21.189  12.049
25536W        W97950  15.773  24.070  14.847
25537W        W97951  16.151  30.452  14.974
25538W        W97952   5.414  27.485  11.567
25539W        W97953  17.302   1.310   3.647
25540W        W97954  29.103  28.134   1.929
25541W        W97955  34.527   6.372  11.379
25542W        W97956   0.967  22.532   4.669
25543W        W97957  14.619  13.245  14.917
25544W        W97958   5.405  30.932   0.860
25545W        W97959  38.376  38.571  10.504
25546W        W97960   6.250  20.143  12.472
25547W        W97961   8.164  31.546  10.614
25548W        W97962   5.351  27.948   4.346
25549W        W97963  31.403  40.844  13.988
25550W        W97964  44.866  20.185  10.516
25551W        W97965  33.511  18.267  13.007
25552W        W97966  31.126  25.040   1.422
25553W        W97967  34.562  13.203   4.222
25554W        W97968  25.503   8.296   1.768
25555W        W97969  40.511  40.053   4.239
25556W        W97970   7.842   3.902   2.831
25557W        W97971   8.701  38.966  13.859
25558W        W97972  38.565  39.820   0.908
25559W        W97973   6.682  15.762  11.901
25560W        W97974  36.884  37.563   0.339
25561W        W97975  26.199   0.947  11.468
25562W        W97976  22.070  42.923   0.926
25563W        W97977  17.565   6.342  13.438
25564W        W97978  18.105   4.774   0.778
25565W        W97979  40.929  13.842   2.835
25566W        W97980  15.686   9.882  10.950
25567W        W97981  31.109   1.978   3.638
25568W        W97982  27.559  22.073   0.443
25569W        W97983   2.855   4.270   2.308
25570W        W97984  17.152  38.964  13.902
25571W        W97985   3.954   4.248  13.918
25572W        W97986  19.070  26.078  12.862
25573W        W97987  19.154   6.345   0.851
25574W        W97988   6.690  33.519  12.461
25575W        W97989   7.756  41.478  12.868
25576W        W97990  44.898   0.337   2.761
25577W        W97991   3.770  14.652  11.488
25578W        W97992  16.699  36.982  13.335
25579W        W97993  35.912  24.509   4.626
25580W        W97994  15.658   6.189  12.565
25581W        W97995   2.833  25.502  12.974
25582W        W97996  22.679   7.827   0.399
25583W        W97997  36.058  32.604  13.515
25584W        W97998  16.590   0.320   3.164
25585W        W97999  33.489  28.089  14.904
25586W        W98000  21.643  15.110   4.838
25587W        W98001   1.336  18.596  14.421
25588W        W98002  15.699  36.980  11.400
25589W        W98003  12.279  38.938   3.660
25590W        W98004  24.535  23.550  13.018
25591W        W98005  23.093  17.285   0.457
25592W        W98006   6.315  11.233   2.312
25593W        W98007  27.953  14.609   1.929
25594W        W98008   7.291  42.914   2.861
25595W        W98009  17.702   5.895   1.317
25596W        W98010  33.880  27.540   3.247
25597W        W98011  44.375  44.419  14.477
25598W        W98012  38.882  18.275   2.246
25599W        W98013  18.589   1.464   2.850
25600W        W98014  33.021  15.218  14.490
25601W        W98015   7.812  42.292   2.788
25602W        W98016  13.817   0.397  12.543
25603W        W98017   1.344  37.383   0.896
25604W        W98018  10.831  41.392  12.472
25605W        W98019   9.256  42.491   1.824
25606W        W98020   6.811  26.667  14.510
25607W        W98021   6.856   3.246   2.757
25608W        W98022  44.978  35.897   2.347
25609W        W98023  44.987  25.093   1.795
25610W        W98024  32.085  42.937   2.812
25611W        W98025  34.096  25.546   2.764
25612W        W98026   3.865  25.174  14.951
25613W        W98027  17.167  14.098  13.957
25614W        W98028  26.016  41.473  14.812
25615W        W98029  14.742  32.472   3.685
25616W        W98030  36.545   1.327   3.649
25617W        W98031  21.253  26.585   0.373
25618W        W98032   0.258  41.365  14.007
25619W        W98033  37.845  30.462   3.734
25620W        W98034   3.225  33.031   0.243
25621W        W98035  30.592   8.871  14.452
25622W        W98036   4.917   4.325   1.214
25623W        W98037  31.435   5.752   0.940
25624W        W98038  29.492  42.484   3.721
25625W        W98039  32.083  43.272  13.509
25626W        W98040  15.705   9.718  12.560
25627W        W98041   6.234  17.091  10.499
25628W        W98042  11.645  39.953   4.276
25629W        W98043   5.789  10.337  12.010
25630W        W98044  10.745  26.627   1.732
25631W        W98045  11.702  31.986   4.778
25632W        W98046  18.097   9.203  13.056
25633W        W98047  36.460  33.574   2.895
25634W        W98048  38.484  20.084   4.286
25635W        W98049   3.318  43.951   0.763
25636W        W98050  31.615  26.101   2.308
25637W        W98051  20.111  29.961  14.789
25638W        W98052  29.587  37.990  11.473
25639W        W98053  26.011   0.289   4.749
25640W        W98054   3.906  36.087   0.257
25641W        W98055  29.062  35.012  13.999
25642W        W98056  34.570  40.888   4.276
25643W        W98057   7.841  35.444   3.175
25644W        W98058  16.260   3.739  12.875
25645W        W98059  39.540  17.681  14.802
25646W        W98060  26.669  16.289  13.400
25647W        W98061   2.731  43.338   4.612
25648W        W98062  41.953  22.065  10.445
25649W        W98063  37.447  12.150   2.356
25650W        W98064  40.379  27.545   1.733
25651W        W98065  43.478  33.095   3.658
25652W        W98066  21.650  26.543  10.082
25653W        W98067  28.460   3.883  12.440
25654W        W98068  13.650   8.358  11.450
25655W        W98069  34.978  38.486   3.164
25656W        W98070  16.595  26.565   2.290
25657W        W98071  31.447  11.773   4.205
25658W        W98072  20.650   0.450   5.186
25659W        W98073  44.346  15.711  11.421
25660W        W98074  39.415  11.368  10.435
25661W        W98075  14.590  44.451   4.598
25662W        W98076  41.999  43.005  12.060
25663W        W98077  18.073  14.200  10.494
25664W        W98078  17.785  43.295  10.936
25665W        W98079   9.218  39.853   2.854
25666W        W98080  27.042  21.121   0.294
25667W        W98081  28.963  41.322  11.504
25668W        W98082  34.576   0.959  14.774
25669W        W98083  25.050  12.325   1.708
25670W        W98084   7.320  15.266   2.226
25671W        W98085  11.330   0.916  13.837
25672W        W98086  40.879  30.959   0.412
25673W        W98087   0.882  21.089  13.905
25674W        W98088  14.120   4.772   4.324
25675W        W98089  37.367   6.312   0.899
25676W        W98090  43.377  14.191  10.895
25677W        W98091  28.607   2.904  14.445
25678W        W98092   5.223  44.312  14.308
25679W        W98093  22.047  43.293  13.837
25680W        W98094   1.760  42.482  14.822
25681W        W98095  20.659  36.942  10.532
25682W        W98096  36.583  26.639  11.573
25683W        W98097  35.436  25.498  12.867
25684W        W98098  23.503  25.964  14.418
25685W        W98099  41.393  31.541   4.305
25686W        W98100   7.808  40.802  10.924
25687W        W98101  11.147  36.428  14.382
25688W        W98102  20.220  11.738  10.112
25689W        W98103  36.468  15.622   1.707
25690W        W98104  14.789  36.960   2.764
25691W        W98105  42.472  19.628  12.403
25692W        W98106   0.361   4.356   2.327
25693W        W98107   0.416   7.258  13.891
25694W        W98108   7.902  21.202  11.925
25695W        W98109  24.219  14.793   0.906
25696W        W98110  14.097  31.580  11.524
25697W        W98111  23.539  18.170  10.623
25698W        W98112   1.906   3.727  11.123
25699W        W98113  33.912  39.912  11.881
25700W        W98114   8.683  16.111  10.926
25701W        W98115  31.046  31.643  10.631
25702W        W98116  33.612  13.698  13.846
25703W        W98117  19.538   3.869  11.928
25704W        W98118  34.548  15.277   4.264
25705W        W98119  29.514   9.179   1.337
25706W        W98120  41.469   5.249   2.670
25707W        W98121  21.676   2.289  14.317
25708W        W98122  14.754  28.492  13.817
25709W        W98123  29.633  30.963   4.813
25710W        W98124   3.782  11.704  12.370
25711W        W98125  19.171  23.117  10.492
25712W        W98126  16.707  41.941  14.387
25713W        W98127   7.861  35.604   0.348
25714W        W98128  26.147   4.246  11.066
25715W        W98129   6.362  42.474   3.635
25716W        W98130  35.938  35.372   3.325
25717W        W98131  26.576  23.062  10.535
25718W        W98132  27.010  21.590   3.686
25719W        W98133  40.979   1.376  11.927
25720W        W98134  35.955   4.923   3.193
25721W        W98135  23.991   2.312   1.381
25722W        W98136   4.340  17.730  13.332
25723W        W98137  38.566  35.358  14.841
25724W        W98138  30.152  10.833  12.854
25725W        W98139  30.057  37.576   4.146
25726W        W98140  13.619  29.940   4.801
25727W        W98141  31.061  26.030   3.217
25728W        W98142   2.881  26.065  12.521
25729W        W98143  18.738  34.934  14.390
25730W        W98144  34.962  30.550   5.135
25731W        W98145  23.693  32.419   4.662
25732W        W98146  18.220  23.047   4.627
25733W        W98147  29.080   1.904  13.829
25734W        W98148   3.449  42.329  12.447
25735W        W98149   2.281  40.462  11.484
25736W        W98150   1.741  26.204   5.300
25737W        W98151  14.741  24.024  14.449
25738W        W98152  21.252  30.152  14.962
25739W        W98153  12.776   7.405   4.837
25740W        W98154  36.437  35.974  10.617
25741W        W98155  43.950  10.829   3.694
25742W        W98156  10.144  40.916  14.394
25743W        W98157  11.766  21.252   4.332
25744W        W98158  19.239  29.026   2.353
25745W        W98159  36.893  40.980   3.681
25746W        W98160  30.497  39.448  14.922
25747W        W98161  25.554  15.700   4.747
25748W        W98162  26.080  29.469  14.841
25749W        W98163   4.740  14.740   0.473
25750W        W98164  28.491  23.172   0.443
25751W        W98165  44.262  29.429   1.782
25752W        W98166   6.374  35.036  13.035
25753W        W98167  42.373  44.476   1.249
25754W        W98168  26.051   1.951  11.491
25755W        W98169   4.232  40.380  14.950
25756W        W98170   2.863  37.461   2.721
25757W        W98171   1.742  16.741  12.536
25758W        W98172  10.325  14.277   5.130
25759W        W98173   1.417   6.198   2.221
25760W        W98174   0.405  26.140   2.333
25761W        W98175   1.409  33.116   1.246
25762W        W98176  20.615  13.349  14.825
25763W        W98177  31.076  24.525  12.978
25764W        W98178  27.124  44.278   3.326
25765W        W98179  11.848  32.490   1.366
25766W        W98180  21.194  25.040  11.465
25767W        W98181  10.789  39.376  10.565
25768W        W98182  43.335  22.225   1.815
25769W        W98183   7.817   5.192  14.819
25770W        W98184   3.288  24.607  13.002
25771W        W98185  17.557  26.082   0.412
25772W        W98186  42.903  19.105   3.733
25773W        W98187  28.629  41.293   1.806
25774W        W98188   3.835   9.381  10.555
25775W        W98189  16.707   7.265   0.371
25776W        W98190  17.293   5.326   0.778
25777W        W98191  42.862  13.141  11.522
25778W        W98192  11.694   5.215  14.968
25779W        W98193  16.223  17.668  12.484
25780W        W98194  36.027  43.965  11.069
25781W        W98195  14.198  28.160   0.792
25782W        W98196  13.351   7.714   1.702
25783W        W98197  14.675  41.816  12.023
25784W        W98198  43.425  29.005  10.998
25785W        W98199  39.809  36.893  12.948
25786W        W98200   8.195   6.837  12.392
25787W        W98201  15.299  30.910  14.418
25788W        W98202  40.937  15.226   4.758
25789W        W98203  13.204  38.405  12.523
25790W        W98204  35.873  20.104  13.370
25791W        W98205   4.404  21.595  11.418
25792W        W98206   3.232  16.157   0.938
25793W        W98207   5.303  21.197  14.891
25794W        W98208   3.244  35.570  13.818
25795W        W98209  32.972  18.097  14.978
25796W        W98210  15.141  28.666   1.317
25797W        W98211  24.515  28.447  14.024
25798W        W98212  39.347   4.801  14.952
25799W        W98213  24.977   8.740   3.634
25800W        W98214   6.693  40.927   3.838
25801W        W98215  24.114  21.042  12.987
25802W        W98216  30.536  30.478  14.411
25803W        W98217  21.751  40.924  14.327
25804W        W98218  26.052  44.403   5.151
25805W        W98219  43.305  36.483  13.335
25806W        W98220   5.720  34.467   1.782
25807W        W98221   2.429  26.545   5.140
25808W        W98222  11.353   9.752  12.454
25809W        W98223  25.668  11.689   5.149
25810W        W98224  15.174   0.871   2.197
25811W        W98225   3.446  27.091  11.047
25812W        W98226  40.372   8.872  14.808
25813W        W98227  10.802  43.011  11.525
25814W        W98228  29.587  35.018  13.888
25815W        W98229  43.009  25.219   0.727
25816W        W98230  33.478  25.707  10.632
25817W        W98231  36.978   9.677  11.479
25818W        W98232  20.053  24.080  12.367
25819W        W98233   9.293   7.283   1.359
25820W        W98234  39.552  12.332   0.334
25821W        W98235  42.320   1.814   3.732
25822W        W98236  43.403  23.213   1.899
25823W        W98237  26.021  10.758  14.984
25824W        W98238   6.903  42.348   2.292
25825W        W98239   2.741  11.689   4.645
25826W        W98240  11.861  10.742  13.033
25827W        W98241  38.924  28.434   2.838
25828W        W98242   7.757  23.221  10.590
25829W        W98243  30.924   3.810   1.919
25830W        W98244  17.136   7.684  10.462
25831W        W98245  18.757  44.370  10.001
25832W        W98246   5.233   7.197  14.842
25833W        W98247   3.345  18.655   1.273
25834W        W98248  10.634  41.031   2.399
25835W        W98249  37.396  20.718   4.800
25836W        W98250  36.949  33.978  11.129
25837W        W98251  43.399   9.308  13.956
25838W        W98252  19.589   8.785  13.028
25839W        W98253  11.321  44.368  11.415
25840W        W98254   5.362  31.402  10.552
25841W        W98255  15.628   7.177  14.444
25842W        W98256  31.405  24.679  14.849
25843W        W98257  41.445  42.023   2.221
25844W        W98258  10.816  22.737  14.309
25845W        W98259  26.479  19.698  12.930
25846W        W98260  37.049   5.248   3.745
25847W        W98261   3.291   0.257   4.729
25848W        W98262  18.599  26.036  13.470
25849W        W98263  38.349  32.118   1.781
25850W        W98264   1.940  36.350  14.000
25851W        W98265  37.012   5.205   1.904
25852W        W98266   5.736  18.221  12.877
25853W        W98267  30.559  38.529   2.327
25854W        W98268  37.895  35.003   5.740
25855W        W98269  10.382  19.072   2.880
25856W        W98270  42.830  31.091  13.845
25857W        W98271  24.481  27.968   4.772
25858W        W98272   2.335  29.132   2.262
25859W        W98273  18.722  32.470   3.737
25860W        W98274  26.638  12.680  11.857
25861W        W98275  40.441  15.167  14.828
25862W        W98276   2.748  34.924   2.257
25863W        W98277   0.491  38.897  11.422
25864W        W98278  31.133   1.888   4.687
25865W        W98279  35.866  14.134   3.203
25866W        W98280  23.041  41.909  11.906
25867W        W98281  31.582  10.220   2.224
25868W        W98282  27.581   5.254   3.790
25869W        W98283   5.781  29.517  12.425
25870W        W98284  40.982  33.464   4.786
25871W        W98285  15.187  27.975   4.266
25872W        W98286  27.687  35.475  14.408
25873W        W98287  32.497  32.560  10.552
25874W        W98288  27.187  33.058  13.544
25875W        W98289   5.890  33.924   2.386
25876W        W98290  16.639  27.656  13.389
25877W        W98291  27.988  25.193   4.270
25878W        W98292  17.074   5.723  10.961
25879W        W98293  24.037  42.983  11.916
25880W        W98294  38.345   4.235  14.828
25881W        W98295   2.260  33.937   4.647
25882W        W98296  22.619  19.085  11.079
25883W        W98297  41.298  19.065   4.164
25884W        W98298  27.648   4.288  14.941
25885W        W98299  22.547  38.464  11.080
25886W        W98300  14.638  38.997   4.746
25887W        W98301  10.848  25.502   4.733
25888W        W98302  38.384  20.700  14.311
25889W        W98303  12.135  17.650  11.886
25890W        W98304  17.585  17.794   2.793
25891W        W98305  21.193  11.234  12.003
25892W        W98306  38.492   8.891   0.886
25893W        W98307  38.484  18.229   1.249
25894W        W98308  36.527  16.313  10.951
25895W        W98309  22.177  10.782  10.533
25896W        W98310   7.377  39.476  12.405
25897W        W98311  43.331  43.327   0.827
25898W        W98312  28.996  15.596   1.852
25899W        W98313  36.057   3.835   1.244
25900W        W98314  36.052  16.297  12.341
25901W        W98315  34.908   7.725  10.536
25902W        W98316  41.451   7.784   3.210
25903W        W98317  20.232  39.926  12.382
25904W        W98318   3.834  31.038  10.514
25905W        W98319   0.790  14.691   3.370
25906W        W98320  29.978   7.323  11.538
25907W        W98321  35.365  20.731   2.220
25908W        W98322  12.614  13.301  10.600
25909W        W98323   8.245  30.159  10.522
25910W        W98324  13.216  10.740   0.344
25911W        W98325  17.273  16.714   4.688
25912W        W98326  31.442  35.494  12.474
25913W        W98327   3.951   1.878  13.820
25914W        W98328  16.654   9.375  13.536
25915W        W98329  30.433  20.223   2.766
25916W        W98330   9.811   1.833   4.653
25917W        W98331  18.785  35.021  10.635
25918W        W98332  14.095  27.644  12.881
25919W        W98333  37.900  13.745  12.084
25920W        W98334  44.291  31.635  12.470
25921W        W98335   3.740   8.331  14.931
25922W        W98336   3.806  33.507  12.483
25923W        W98337  27.461  41.843   3.728
25924W        W98338  17.610   3.347  10.055
25925W        W98339  31.968   5.312  11.971
25926W        W98340  23.683   5.818  14.320
25927W        W98341   4.442   9.864   3.845
25928W        W98342  19.226   2.469   2.315
25929W        W98343  25.618   3.278   1.807
25930W        W98344  44.804  25.023  11.039
25931W        W98345  14.257   8.850   3.654
25932W        W98346  42.430  30.077   4.745
25933W        W98347   3.880  43.482   5.136
25934W        W98348  15.277  38.556   4.198
25935W        W98349  22.532   8.177  13.933
25936W        W98350   5.395  28.972   4.272
25937W        W98351  33.443  21.178   2.770
25938W        W98352  19.158  38.969  14.932
25939W        W98353   6.920   2.906  11.994
25940W        W98354  34.513  19.742   3.767
25941W        W98355  38.448  39.917  13.471
25942W        W98356  42.384  26.168   1.898
25943W        W98357  31.980  31.930  14.999
25944W        W98358  17.771  16.232  14.468
25945W        W98359   8.843  38.888  10.481
25946W        W98360  29.482  43.404   3.202
25947W        W98361  42.434  23.615  14.802
25948W        W98362  13.711  41.464   0.921
25949W        W98363  32.490   0.479  13.895
25950W        W98364  38.981  21.213  10.407
25951W        W98365  36.958  26.118  14.991
25952W        W98366  42.945  14.100   5.146
25953W        W98367  42.875  32.930  14.418
25954W        W98368  38.370  36.446   0.391
25955W        W98369  13.622  12.835   4.227
25956W        W98370  32.927  14.098   1.910
25957W        W98371   9.737  38.388   1.298
25958W        W98372  28.101  22.038   4.301
25959W        W98373   1.888  38.509  13.398
25960W        W98374   7.842   8.199  12.826
25961W        W98375  24.484  10.786   3.228
25962W        W98376  15.177  37.079   2.291
25963W        W98377  39.488  17.712   2.388
25964W        W98378  34.892   6.865  10.511
25965W        W98379  34.037  14.210   1.838
25966W        W98380  16.149  19.164  11.004
25967W        W98381  17.294  18.641  12.890
25968W        W98382   8.670  38.327   0.460
25969W        W98383  31.559   1.918   0.871
25970W        W98384  30.132  20.566  10.581
25971W        W98385  12.166  15.324   3.266
25972W        W98386  34.887   3.249   0.960
25973W        W98387   9.716  44.327   3.824
25974W        W98388  14.250  12.738   0.258
25975W        W98389  11.309  13.169  13.917
25976W        W98390  36.570  12.190   4.226
25977W        W98391  34.542  13.251   0.304
25978W        W98392  44.277  33.018  13.936
25979W        W98393   5.294  33.532   3.665
25980W        W98394   1.413  22.555   3.806
25981W        W98395  27.619  12.781  12.993
25982W        W98396  35.056  13.643   4.148
25983W        W98397   5.904  42.878   4.634
25984W        W98398  27.601  28.954  12.516
25985W        W98399  36.536  44.009   4.610
25986W        W98400  24.093  30.604  10.157
25987W        W98401  26.955   4.829   0.919
25988W        W98402   5.843  21.156  12.908
25989W        W98403   1.838  35.946  11.989
25990W        W98404  35.946  23.164  10.113
25991W        W98405  23.602  14.337   2.276
25992W        W98406  31.060  27.473   4.166
25993W        W98407  28.506  14.647   0.917
25994W        W98408  44.815  35.926  12.474
25995W        W98409  11.129  34.460   2.730
25996W        W98410  41.967  35.451   0.780
25997W        W98411  14.637  33.569  14.347
25998W        W98412  17.149  10.757  10.633
25999W        W98413  20.223  15.280  14.284
26000W        W98414   3.712  31.527   4.268
26001W        W98415  16.263  39.454   0.769
26002W        W98416   0.987  43.303  11.432
26003W        W98417  11.292   8.362  12.059
26004W        W98418  29.935  30.964  13.965
26005W        W98419   7.759  28.148   3.338
26006W        W98420  18.134   2.732   2.786
26007W        W98421  17.118  37.437  13.449
26008W        W98422  30.997   4.320  11.112
26009W        W98423  24.120  22.743   5.169
26010W        W98424  35.978  12.122   0.899
26011W        W98425  15.751   2.893  14.399
26012W        W98426   2.253  32.136  14.466
26013W        W98427  13.233   0.300   2.666
26014W        W98428  30.556   9.341   2.198
26015W        W98429  21.062  44.802   1.434
26016W        W98430  20.178  41.810   1.370
26017W        W98431  14.131   2.430  13.538
26018W        W98432  32.918  37.931  12.908
26019W        W98433  36.095  27.663   1.239
26020W        W98434   7.742  15.200  10.916
26021W        W98435  26.033  44.440   5.744
26022W        W98436   1.891  26.960  11.611
26023W        W98437  15.655  35.010   0.804
26024W        W98438  23.019   0.874  13.509
26025W        W98439   0.955  14.300  13.045
26026W        W98440   4.285  30.942  14.939
26027W        W98441  40.910  38.558  12.424
26028W        W98442   6.705  28.081  11.895
26029W        W98443   3.800  34.438   5.123
26030W        W98444  15.692   1.424   0.393
26031W        W98445  22.580  13.691   2.241
26032W        W98446  22.167   8.380   4.141
26033W        W98447  28.109  34.898  13.993
26034W        W98448   8.894  13.134  13.854
26035W        W98449   2.398   0.777  13.005
26036W        W98450   9.818  27.685  13.413
26037W        W98451  30.016  38.857   1.343
26038W        W98452  13.748   8.289   1.916
26039W        W98453   0.804  15.086  11.975
26040W        W98454  14.202   9.313  14.904
26041W        W98455  16.802  39.492   3.792
26042W        W98456  20.089  19.698  10.946
26043W        W98457  21.172  15.609   4.777
26044W        W98458  40.418   6.228   4.262
26045W        W98459  18.713  23.493  12.010
26046W        W98460  37.997  34.894   3.804
26047W        W98461  38.979  16.197  13.457
26048W        W98462  24.581  28.478   0.329
26049W        W98463   5.916  40.943   9.984
26050W        W98464  34.897  18.195   3.823
26051W        W98465  29.504  32.904   4.303
26052W        W98466   3.259  14.777  12.066
26053W        W98467  39.388   9.698   2.333
26054W        W98468  17.754   9.707   1.878
26055W        W98469  37.395  36.076  10.543
26056W        W98470  28.513  34.380  12.826
26057W        W98471  44.335   3.816   1.388
26058W        W98472   8.227  17.073   2.678
26059W        W98473  42.499  42.870   1.917
26060W        W98474  12.243  41.329  11.428
26061W        W98475  29.122  37.016   1.715
26062W        W98476   1.936  35.389  11.069
26063W        W98477  16.233   5.333  10.946
26064W        W98478   8.679  17.179   3.820
26065W        W98479  23.188   9.684   4.140
26066W        W98480   8.779  36.962  14.012
26067W        W98481  32.581  10.672   2.838
26068W        W98482  30.495  17.593  14.402
26069W        W98483  37.448  19.071   0.882
26070W        W98484  26.463   9.811  13.058
26071W        W98485  37.916  23.193   4.282
26072W        W98486  32.568  36.093   0.784
26073W        W98487  39.989  31.500  10.537
26074W        W98488  38.829  34.440   5.144
26075W        W98489   7.340  26.073   4.837
26076W        W98490  10.247  16.608   4.675
26077W        W98491   0.933  17.173  12.393
26078W        W98492   5.235   1.961  12.963
26079W        W98493  33.947  10.166   2.205
26080W        W98494  19.193  24.014   0.255
26081W        W98495  41.408  26.534   5.266
26082W        W98496  12.336  42.498  14.787
26083W        W98497   2.280  23.127  12.085
26084W        W98498  38.989  10.297   3.837
26085W        W98499  25.976  24.653   4.703
26086W        W98500  38.383  30.985   0.840
26087W        W98501  23.679  17.587   4.291
26088W        W98502  26.569  40.459  13.830
26089W        W98503   8.296   7.395  11.517
26090W        W98504  19.274  39.974   4.322
26091W        W98505   8.243  22.624   4.128
26092W        W98506  32.914  13.156   4.824
26093W        W98507  13.619   6.799   1.796
26094W        W98508  17.608  20.625  10.502
26095W        W98509   5.926  15.297   2.367
26096W        W98510  24.579   3.911  12.090
26097W        W98511  44.811  29.003  13.390
26098W        W98512  22.184  19.715  14.828
26099W        W98513  23.112  16.112  12.442
26100W        W98514  31.520  30.156  13.311
26101W        W98515  18.057  33.604   1.324
26102W        W98516   9.665  36.359  12.454
26103W        W98517  42.877  28.530   3.343
26104W        W98518   6.369  29.592   1.440
26105W        W98519  33.988  11.662  11.389
26106W        W98520  31.484  35.372  12.899
26107W        W98521   3.882   5.919   4.318
26108W        W98522   5.834  17.778  10.587
26109W        W98523  11.262  14.318  11.100
26110W        W98524  21.113  21.619  12.451
26111W        W98525  40.430   5.741  10.928
26112W        W98526   4.883   7.746   3.165
26113W        W98527   5.870  26.509  11.001
26114W        W98528  32.037  40.953   2.892
26115W        W98529  29.617  37.368  12.922
26116W        W98530   0.484  37.041   4.832
26117W        W98531   9.167  23.193   0.854
26118W        W98532  43.490  37.993   1.885
26119W        W98533  41.883  33.884   3.871
26120W        W98534  11.197  38.462   4.774
26121W        W98535   6.889  38.512   3.732
26122W        W98536   7.736  16.187  11.008
26123W        W98537  33.022  40.504   0.778
26124W        W98538  39.532  21.226   2.729
26125W        W98539  29.518  15.676  10.958
26126W        W98540  32.542  11.220  11.048
26127W        W98541  10.212   9.745   0.871
26128W        W98542   3.747  39.885   0.480
26129W        W98543  37.400  26.617   0.836
26130W        W98544   1.807   3.412  11.951
26131W        W98545  10.211   0.871   1.320
26132W        W98546  31.427  21.079   1.730
26133W        W98547  16.251  20.264   3.248
26134W        W98548  27.691  24.116  10.603
26135W        W98549   0.451  42.875   0.823
26136W        W98550   3.412  41.474  12.490
26137W        W98551  30.617  35.368  12.899
26138W        W98552  39.334  11.261   1.407
26139W        W98553  14.834  15.323  10.482
26140W        W98554   4.727  36.503   1.837
26141W        W98555  27.052   1.788  11.126
26142W        W98556   4.270   4.778   1.418
26143W        W98557  28.039   7.301  11.505
26144W        W98558  12.212  10.761   0.307
26145W        W98559  36.862   7.893  10.889
26146W        W98560   6.806  43.003   1.854
26147W        W98561  23.560  30.099  13.320
26148W        W98562  29.452   6.718  11.066
26149W        W98563  22.240  39.361  12.474
26150W        W98564   8.390  40.529  13.370
26151W        W98565  31.503  14.208  10.621
26152W        W98566  44.853  44.970   2.193
26153W        W98567  41.890   1.249  12.891
26154W        W98568   2.398  14.797   1.445
26155W        W98569  38.899  22.033  10.615
26156W        W98570   6.188   5.229   1.334
26157W        W98571  40.875  19.589   4.820
26158W        W98572  44.379  33.412  13.479
26159W        W98573  18.244  28.169   4.172
26160W        W98574  27.157  33.092  10.892
26161W        W98575   5.288  37.428   0.374
26162W        W98576  22.186  33.507   1.739
26163W        W98577   8.382   1.313  11.030
26164W        W98578   7.343  21.516   1.448
26165W        W98579  30.641  35.465   4.324
26166W        W98580  43.316  16.726   0.265
26167W        W98581  32.611  21.610   2.842
26168W        W98582  20.524   0.920   3.310
26169W        W98583  31.426   2.848  13.415
26170W        W98584  42.379   7.323   1.712
26171W        W98585  35.570   5.209   4.258
26172W        W98586  12.767  34.422   4.208
26173W        W98587  36.584  18.107  11.596
26174W        W98588  18.627  28.559  11.994
26175W        W98589  40.823  26.205  12.026
26176W        W98590  16.700  22.138   1.714
26177W        W98591  11.844  14.139  10.952
26178W        W98592  38.045   4.794  13.380
26179W        W98593  43.484  42.994  10.096
26180W        W98594  25.978  17.154   9.940
26181W        W98595   1.434  44.467   2.295
26182W        W98596  36.544  24.193   1.763
26183W        W98597  26.542   6.902   1.748
26184W        W98598  32.464   3.336   2.179
26185W        W98599  35.907  20.086   4.626
26186W        W98600  20.730   6.252  11.049
26187W        W98601  38.402  21.588   2.758
26188W        W98602  11.846  21.171   3.820
26189W        W98603  25.080  23.167  14.919
26190W        W98604  38.465  12.208   0.784
26191W        W98605  23.508  16.245   1.745
26192W        W98606  12.191  18.753  13.791
26193W        W98607   4.380  14.172  11.980
26194W        W98608   7.767  35.008   2.284
26195W        W98609   3.408   3.911   2.891
26196W        W98610  22.606  23.732  10.548
26197W        W98611  44.980  11.821  12.385
26198W        W98612   3.237  42.859   5.209
26199W        W98613  25.179  21.750   0.764
26200W        W98614  28.475  12.624   3.754
26201W        W98615  29.589  18.577   2.415
26202W        W98616  41.299  42.981   4.193
26203W        W98617  16.728   2.326   2.378
26204W        W98618  35.928  26.460   1.242
26205W        W98619   1.351   1.297   2.397
26206W        W98620  44.468   6.754   4.247
26207W        W98621  34.396  21.154   2.786
26208W        W98622  43.416   1.344  11.521
26209W        W98623  44.276  35.991   0.435
26210W        W98624  35.052  31.490  13.814
26211W        W98625   7.716  33.094   1.411
26212W        W98626  29.050   8.319  10.416
26213W        W98627  19.180   4.878   4.231
26214W        W98628  22.509  35.057   2.366
26215W        W98629  42.380  23.062   1.811
26216W        W98630  20.028   4.773   4.743
26217W        W98631  37.938  32.004  14.843
26218W        W98632  30.147  37.939   4.800
26219W        W98633  18.554   3.229   1.765
26220W        W98634  13.211  33.101  11.070
26221W        W98635   2.815  11.249  13.887
26222W        W98636  25.692  42.953   4.667
26223W        W98637  42.809  14.715   0.890
26224W        W98638   0.463  24.636   0.443
26225W        W98639   8.774  20.150   5.217
26226W        W98640  12.299  25.583  10.548
26227W        W98641  12.679   2.756   4.824
26228W        W98642   8.718  33.448  13.354
26229W        W98643  35.481  23.566  11.918
26230W        W98644  25.531   3.803  12.066
26231W        W98645  38.366  18.287   0.784
26232W        W98646   1.349  13.228   2.666
26233W        W98647  38.470  31.409  13.418
26234W        W98648  30.158   5.363   2.672
26235W        W98649  27.132  40.389  13.839
26236W        W98650  38.824  28.646   4.237
26237W        W98651  14.160  12.287   4.655
26238W        W98652  18.565  44.827   9.542
26239W        W98653   9.338   3.778  12.094
26240W        W98654  42.970  19.051   0.447
26241W        W98655  17.271  13.265  13.934
26242W        W98656   0.310  18.742   4.351
26243W        W98657  13.172  11.708  13.418
26244W        W98658  17.577  43.459   4.641
26245W        W98659  44.771  27.138   4.277
26246W        W98660  22.110   8.239  11.934
26247W        W98661  17.134   5.844   4.683
26248W        W98662  42.836  43.766   4.312
26249W        W98663  43.285  32.404  12.388
26250W        W98664  27.602  13.331  14.420
26251W        W98665  39.410  37.472  13.411
26252W        W98666   2.233   4.884   0.902
26253W        W98667  40.891  38.895  11.960
26254W        W98668   1.379  27.985   1.768
26255W        W98669   4.303  34.464   2.877
26256W        W98670  10.796  26.997   2.805
26257W        W98671   4.238  15.240  14.512
26258W        W98672  19.724  31.531  14.002
26259W        W98673  15.692  12.788   2.413
26260W        W98674  15.176  44.474   3.358
26261W        W98675  27.074  18.140   4.607
26262W        W98676   4.434  34.987  14.001
26263W        W98677  42.315  10.370   2.258
26264W        W98678  27.626  42.014  10.494
26265W        W98679   4.901  19.176   2.358
26266W        W98680  15.724   5.323   1.751
26267W        W98681  26.193  22.626   3.346
26268W        W98682  32.028  34.531  14.503
26269W        W98683  35.388  24.046  13.407
26270W        W98684  42.903  23.686  10.636
26271W        W98685  30.520  16.311   2.297
26272W        W98686   6.247   4.360  10.953
26273W        W98687  28.008   9.777  11.080
26274W        W98688  27.496  44.871  14.516
26275W        W98689  40.821  13.313   3.702
26276W        W98690   8.657  32.137  13.400
26277W        W98691   9.343  14.727   0.877
26278W        W98692  42.867  41.425   0.905
26279W        W98693  22.078  21.199  11.871
26280W        W98694   6.238  14.262   3.708
26281W        W98695  33.472  16.697   9.994
26282W        W98696   6.855   6.371  11.946
26283W        W98697  40.946  30.983   1.799
26284W        W98698  11.250   7.806  14.964
26285W        W98699   0.856  41.427  11.418
26286W        W98700  15.719   6.403  11.063
26287W        W98701  28.984  30.638  13.323
26288W        W98702  14.250  42.889   1.215
26289W        W98703  19.730  23.622  11.476
26290W        W98704  36.084  25.159  13.002
26291W        W98705  32.994  42.925   4.771
26292W        W98706  10.674  42.312   2.356
26293W        W98707  33.453   1.259   2.815
26294W        W98708   2.342   3.857   4.769
26295W        W98709  11.687  38.002   2.829
26296W        W98710  43.399   3.739   2.266
26297W        W98711  25.996   1.900   3.666
26298W        W98712  10.687  19.764   2.832
26299W        W98713   0.839  44.482   2.686
26300W        W98714  12.322  39.926   4.837
26301W        W98715   6.782  29.974   0.477
26302W        W98716  37.391  44.990  11.414
26303W        W98717  10.284  34.047   0.824
26304W        W98718  37.392  29.036   0.737
26305W        W98719  38.912  21.712   4.770
26306W        W98720  10.225  10.300   4.317
26307W        W98721  18.578  30.083  12.851
26308W        W98722  37.465  34.891  13.048
26309W        W98723  20.534  37.390  12.040
26310W        W98724  10.818  20.679  12.082
26311W        W98725  24.111  21.669  11.922
26312W        W98726   9.367  30.105   0.736
26313W        W98727  25.673   7.410  13.042
26314W        W98728  29.116  35.050  14.355
26315W        W98729  21.196   9.735  13.484
26316W        W98730  16.797   2.733  14.891
26317W        W98731  18.747  19.121  10.450
26318W        W98732  27.085  20.031  10.541
26319W        W98733   6.860  12.302  14.759
26320W        W98734  43.457  30.147   1.787
26321W        W98735  37.879   6.829   1.753
26322W        W98736   8.830   6.678   4.274
26323W        W98737  38.999  18.669  12.397
26324W        W98738  36.859   4.853   2.854
26325W        W98739   0.804  18.614   4.702
26326W        W98740  37.353   6.730   0.933
26327W        W98741  34.114  28.970  11.961
26328W        W98742  29.574  27.490   0.373
26329W        W98743  30.474  35.358  11.020
26330W        W98744  18.287  24.994   5.303
26331W        W98745  19.210  18.610   2.241
26332W        W98746   6.886   4.444  12.861
26333W        W98747   8.705  28.466   2.846
26334W        W98748  18.089  25.515   2.741
26335W        W98749   9.294  43.411   2.697
26336W        W98750  19.126  10.711   0.304
26337W        W98751   3.739  44.900   4.202
26338W        W98752   9.724   7.755  12.990
26339W        W98753  25.219   8.880  12.529
26340W        W98754  41.471  20.028  13.411
26341W        W98755  11.367  22.079   0.950
26342W        W98756  18.181  44.371  14.500
26343W        W98757  24.604  39.835  11.530
26344W        W98758  10.366  27.978  11.473
26345W        W98759  27.034  35.056   1.406
26346W        W98760  14.313  21.127   4.287
26347W        W98761  34.106  37.841  13.974
26348W        W98762  24.183  25.181  14.999
26349W        W98763  30.485  15.237  11.413
26350W        W98764  17.082   3.425  12.883
26351W        W98765  23.120   3.257  12.893
26352W        W98766   3.297  44.825  12.502
26353W        W98767  33.540   2.444   3.321
26354W        W98768  10.639   0.422  10.627
26355W        W98769  35.470  33.427   2.666
26356W        W98770  24.212  36.062  12.481
26357W        W98771  19.675  43.303   4.737
26358W        W98772  34.390   4.740   3.154
26359W        W98773  39.054  33.951   3.367
26360W        W98774   5.855  18.787   4.220
26361W        W98775   5.347  36.020  11.379
26362W        W98776  34.921  26.173  13.968
26363W        W98777  32.044  13.241   0.938
26364W        W98778  15.763  32.490  12.994
26365W        W98779  39.512  32.904   4.217
26366W        W98780  30.153  13.770  14.874
26367W        W98781  34.440  24.637   2.694
26368W        W98782   4.386  29.499   0.264
26369W        W98783  38.978   4.443  13.943
26370W        W98784  10.666  19.772   0.387
26371W        W98785  12.756  22.067   2.262
26372W        W98786  22.682  30.589   3.780
26373W        W98787   1.974   1.361  13.468
26374W        W98788  35.604  25.136  14.461
26375W        W98789  42.008  33.877   4.682
26376W        W98790  38.970  24.483  11.508
26377W        W98791  12.629  37.391   3.298
26378W        W98792  21.726  37.509  14.285
26379W        W98793   4.336  28.460  12.409
26380W        W98794  31.098  30.443  13.860
26381W        W98795  39.361  40.399  11.445
26382W        W98796  33.886  12.279   1.272
26383W        W98797  23.131   4.339  14.307
26384W        W98798  10.652  22.049  11.510
26385W        W98799  28.000  31.528  12.517
26386W        W98800  25.056  25.662   0.360
26387W        W98801  18.698   4.751   1.324
26388W        W98802   1.446  23.582  13.448
26389W        W98803  19.579   9.794   2.671
26390W        W98804  35.881  10.807  14.025
26391W        W98805  27.077  30.034   4.764
26392W        W98806  32.949  33.381  10.977
26393W        W98807  32.505  33.437   9.991
26394W        W98808  22.208  22.527   0.381
26395W        W98809   4.817  19.075   2.766
26396W        W98810  40.879  39.840  14.902
26397W        W98811  27.015   8.687   2.193
26398W        W98812  16.740  43.829  13.061
26399W        W98813  32.964  28.931  13.027
26400W        W98814  17.219  34.448  12.397
26401W        W98815  20.761  39.887  11.423
26402W        W98816   8.839  44.434   5.237
26403W        W98817  16.107  36.369  11.382
26404W        W98818  24.111  16.617   0.406
26405W        W98819  40.922  44.798  11.936
26406W        W98820  15.300   8.818   4.234
26407W        W98821  44.931  33.960   1.420
26408W        W98822  24.141  24.223   1.872
26409W        W98823   3.268   2.902   4.822
26410W        W98824  29.621  14.706  13.933
26411W        W98825  41.040  40.952  14.909
26412W        W98826  35.006  19.093  11.996
26413W        W98827  16.644  22.734   4.183
26414W        W98828  43.869  30.591  10.554
26415W        W98829  24.092  17.733  12.977
26416W        W98830  10.681   5.407   3.803
26417W        W98831  10.671  42.903  10.512
26418W        W98832  19.200   9.880  12.003
26419W        W98833   6.251  22.545  10.954
26420W        W98834   3.256  42.525  11.591
26421W        W98835  16.795  29.135  14.436
26422W        W98836  12.245  22.698  12.900
26423W        W98837  27.650  40.039   4.673
26424W        W98838  19.145  27.523  14.806
26425W        W98839   3.711  33.563   4.252
26426W        W98840  25.494  22.667   2.715
26427W        W98841  41.416  13.266   3.230
26428W        W98842  12.195  25.972  11.993
26429W        W98843  42.318  28.063   0.766
26430W        W98844  28.989  19.679  13.309
26431W        W98845  19.763  28.148   2.354
26432W        W98846   8.690  18.698   2.283
26433W        W98847  21.092  27.196   2.862
26434W        W98848  38.870   8.821  11.981
26435W        W98849  25.634  42.838  10.543
26436W        W98850  10.796  36.074   1.764
26437W        W98851  24.100  37.568   2.696
26438W        W98852   0.950   1.762  10.969
26439W        W98853  28.018  25.998  11.074
26440W        W98854  19.273  31.141   1.704
26441W        W98855  15.647  39.354  10.983
26442W        W98856  17.300  36.896  11.004
26443W        W98857   2.405   3.787  14.973
26444W        W98858  14.723  19.694  12.873
26445W        W98859  21.246  31.415  11.063
26446W        W98860   5.377  30.530  11.870
26447W        W98861  30.134  40.348   2.412
26448W        W98862  40.308  31.587  14.812
26449W        W98863   6.184   8.732   0.897
26450W        W98864  10.657  38.017  12.512
26451W        W98865   1.289  25.001   0.331
26452W        W98866  28.445  19.692  14.321
26453W        W98867  43.833  38.964   1.723
26454W        W98868  39.517  36.535  14.953
26455W        W98869   1.245  14.731   1.843
26456W        W98870   8.876  22.574   1.367
26457W        W98871  25.995   0.772   2.821
26458W        W98872  27.971  11.332  12.878
26459W        W98873  39.923  42.477  12.023
26460W        W98874  19.542  34.532   4.837
26461W        W98875   7.415  25.976  10.983
26462W        W98876   4.932  37.029  13.426
26463W        W98877  42.389   1.929   4.196
26464W        W98878  35.531  17.289  14.419
26465W        W98879  18.724  10.338  11.383
26466W        W98880  13.249  17.282  11.990
26467W        W98881   4.430   8.899   0.880
26468W        W98882  43.506   5.870  12.573
26469W        W98883   8.736   6.201  12.993
26470W        W98884  40.538   4.875   1.212
26471W        W98885  27.527  38.938  11.392
26472W        W98886   6.729  40.479  11.972
26473W        W98887  26.614  41.916   4.260
26474W        W98888  14.697  29.033   3.726
26475W        W98889  16.210  18.569   2.894
26476W        W98890  18.562  24.678   2.800
26477W        W98891  21.656  21.642   0.439
26478W        W98892   0.397  34.070  12.966
26479W        W98893  37.485   0.371  13.332
26480W        W98894   4.727  25.676  11.897
26481W        W98895  11.729  17.801  11.083
26482W        W98896  33.524  11.192   2.404
26483W        W98897   8.709  35.860   2.662
26484W        W98898  44.385  15.122   0.349
26485W        W98899  23.510  41.344  11.405
26486W        W98900  12.819  33.606  13.540
26487W        W98901  13.806  36.858  13.980
26488W        W98902  38.351  21.225  11.877
26489W        W98903  13.273  36.405  10.440
26490W        W98904   9.311  36.482  12.915
26491W        W98905  25.574  35.032  13.932
26492W        W98906  14.202  40.843   1.885
26493W        W98907  20.652   7.189  10.911
26494W        W98908   7.876   5.841  10.923
26495W        W98909  29.566  27.030  12.536
26496W        W98910  24.991  42.523   4.744
26497W        W98911  13.209  31.610  10.957
26498W        W98912   7.404  13.185   1.777
26499W        W98913  27.963   1.768   0.252
26500W        W98914  15.645  30.486  13.049
26501W        W98915   7.885   8.312  12.546
26502W        W98916   3.740   3.445   4.683
26503W        W98917  37.490  35.090   5.151
26504W        W98918  30.114   3.384   2.302
26505W        W98919  33.479  24.193   4.793
26506W        W98920  16.769  16.168  12.830
26507W        W98921  43.803  12.669  12.359
26508W        W98922   2.309  44.840  12.409
26509W        W98923  41.827  11.829  14.508
26510W        W98924   3.739  42.359  10.427
26511W        W98925  19.731   5.193  14.911
26512W        W98926  29.055  17.273  12.470
26513W        W98927  10.205  21.174   2.219
26514W        W98928  25.530  10.731   4.758
26515W        W98929  42.871   5.766   1.823
26516W        W98930  15.764  17.276  11.573
26517W        W98931  11.813   2.335  11.011
26518W        W98932   6.359  30.647  14.996
26519W        W98933  14.807   7.334   0.909
26520W        W98934  30.908  40.812  12.029
26521W        W98935  24.533  32.397  10.644
26522W        W98936  14.748  38.519   3.758
26523W        W98937  22.999  38.401  14.843
26524W        W98938  20.699  28.100  13.927
26525W        W98939  19.576   7.362   0.790
26526W        W98940   8.256  10.263   2.185
26527W        W98941   3.907  40.004   3.334
26528W        W98942  32.034   8.398  12.860
26529W        W98943  30.944  42.446   3.759
26530W        W98944  40.507  20.627   3.161
26531W        W98945   7.323  18.058  13.022
26532W        W98946  14.665   4.916   0.766
26533W        W98947  11.645  13.182   0.344
26534W        W98948  35.447  10.776  11.463
26535W        W98949  25.976  42.872   0.891
26536W        W98950  22.056  30.535   1.856
26537W        W98951   0.956  43.371   3.735
26538W        W98952  17.254   6.242  13.914
26539W        W98953  33.423  41.919   3.850
26540W        W98954  40.397   5.235   2.704
26541W        W98955   0.478  37.054   4.273
26542W        W98956  27.022  40.051   4.218
26543W        W98957  34.463  25.653  14.870
26544W        W98958  34.942  40.359  10.437
26545W        W98959  11.214  33.085   2.815
26546W        W98960  36.466  14.711  14.927
26547W        W98961  25.593  27.979   0.385
26548W        W98962  12.312  21.178   1.386
26549W        W98963  22.633   8.396   3.387
26550W        W98964  12.650  10.234   3.636
26551W        W98965  40.540   5.325  10.505
26552W        W98966  40.880  26.565   1.845
26553W        W98967  43.490   9.649   0.382
26554W        W98968  28.548  41.399   5.124
26555W        W98969  41.434  14.812   3.174
26556W        W98970  44.757  32.545   4.272
26557W        W98971  37.909  22.621   4.144
26558W        W98972  32.980  42.874   4.133
26559W        W98973  29.951   6.269  14.992
26560W        W98974  26.004  10.139   1.778
26561W        W98975  31.908  38.386  13.513
26562W        W98976  20.055  20.207  10.431
26563W        W98977   6.248  24.576  12.500
26564W        W98978  42.344  41.821  13.400
26565W        W98979  20.568  23.719   4.158
26566W        W98980  26.558  23.598  14.857
26567W        W98981  37.022  38.033  12.567
26568W        W98982  42.434   4.215   1.746
26569W        W98983  26.493  37.942  10.931
26570W        W98984   1.331  28.111  12.956
26571W        W98985  39.339  41.917   4.613
26572W        W98986  23.098  26.053  12.089
26573W        W98987  16.106  41.961  14.370
26574W        W98988   0.908   3.348   9.983
26575W        W98989  22.534  32.624   3.866
26576W        W98990  14.310  35.446  14.836
26577W        W98991  26.637  15.142   4.261
26578W        W98992  40.964  34.439   2.271
26579W        W98993  39.449  18.284   4.349
26580W        W98994  35.384  21.151   1.301
26581W        W98995  26.546  12.206  10.414
26582W        W98996  19.282  42.019   0.414
26583W        W98997   4.287   4.920   4.615
26584W        W98998  23.107  44.966  12.493
26585W        W98999  19.128   5.220  14.815
26586W        W99000  42.862  15.791  14.952
26587W        W99001  36.996  11.691   0.920
26588W        W99002  35.084   5.736   4.354
26589W        W99003  39.992   0.961   3.671
26590W        W99004   0.782  20.582  11.025
26591W        W99005   9.221  11.218   0.399
26592W        W99006  39.532  14.693   4.144
26593W        W99007  36.397  39.823  11.560
26594W        W99008  28.545  12.261   0.811
26595W        W99009  31.901  42.434  12.829
26596W        W99010  23.585  11.339   2.183
26597W        W99011  19.609  12.273   1.738
26598W        W99012   0.960  42.395  11.437
26599W        W99013  17.096  30.596   5.088
26600W        W99014  24.706  35.031   0.398
26601W        W99015  21.053   6.814  11.510
26602W        W99016  30.589   3.857  12.928
26603W        W99017  28.519  38.341   2.394
26604W        W99018   3.955  28.041   2.811
26605W        W99019   4.720  22.717   0.333
26606W        W99020  37.976  10.148   2.397
26607W        W99021   5.284  28.017  14.861
26608W        W99022  35.092  20.220  12.835
26609W        W99023  40.375  42.353   0.816
26610W        W99024  18.678  16.775  12.055
26611W        W99025  33.107  10.359  12.346
26612W        W99026  30.079  14.671   1.239
26613W        W99027  17.069  23.625  12.529
26614W        W99028  35.370   9.852   3.220
26615W        W99029  21.643   7.253   0.337
26616W        W99030  17.620  40.845  13.383
26617W        W99031  38.380  10.202  11.542
26618W        W99032   8.825  30.414   0.438
26619W        W99033  35.970  10.804  10.959
26620W        W99034  10.804  20.530  10.460
26621W        W99035   5.735  17.718  13.363
26622W        W99036  38.415   7.683   2.783
26623W        W99037   2.924  29.665  11.431
26624W        W99038  21.556  23.996  12.878
26625W        W99039   4.828  44.960   0.779
26626W        W99040  39.875  22.501  13.971
26627W        W99041   6.748   4.433   3.220
26628W        W99042  11.185  32.013  12.995
26629W        W99043   6.698  42.856  14.470
26630W        W99044   1.463  27.141  13.917
26631W        W99045  38.070  43.514  12.058
26632W        W99046   7.178  42.799  11.997
26633W        W99047  39.924  18.600   4.738
26634W        W99048  29.118  18.204   4.705
26635W        W99049  38.387  12.628  11.867
26636W        W99050  38.563  23.529   0.383
26637W        W99051   6.426  43.476  14.916
26638W        W99052  29.426   5.284  11.918
26639W        W99053   6.363   5.879   3.181
26640W        W99054  41.864   6.830  14.927
26641W        W99055  41.035   3.368  11.073
26642W        W99056  39.493  11.234   1.851
26643W        W99057  39.324  40.933  11.512
26644W        W99058  25.013  43.869  13.364
26645W        W99059   8.721  24.053   2.331
26646W        W99060  13.658  39.330   1.405
26647W        W99061   0.484  43.778  13.913
26648W        W99062   7.368  29.473   2.740
26649W        W99063  17.230  43.334  13.939
26650W        W99064  27.609  37.396  11.918
26651W        W99065  10.760  29.641   2.833
26652W        W99066  41.990   3.258  11.408
26653W        W99067  18.193  33.891   3.709
26654W        W99068  25.618  37.077  13.470
26655W        W99069  35.077  24.074  11.392
26656W        W99070  20.178  38.004   2.783
26657W        W99071  11.762  12.290  13.018
26658W        W99072  40.033  21.614  12.018
26659W        W99073  33.056  17.717   3.363
26660W        W99074   2.860   1.844   1.287
26661W        W99075  28.060  27.631  14.286
26662W        W99076   2.426   5.921  12.360
26663W        W99077  17.229  10.851   4.778
26664W        W99078  36.467  17.606   4.306
26665W        W99079  31.920  22.696   0.727
26666W        W99080  41.011  20.127   1.277
26667W        W99081   6.271  26.528   3.209
26668W        W99082  12.227   5.822  12.857
26669W        W99083  34.047  35.455   0.403
26670W        W99084   9.305  28.474  11.562
26671W        W99085   1.394  16.632   3.222
26672W        W99086  40.367  14.232   1.872
26673W        W99087   8.696  33.988  14.458
26674W        W99088   9.862  31.097  14.832
26675W        W99089  17.171  17.671  10.050
26676W        W99090   5.194  23.184   0.433
26677W        W99091  37.460   1.310  12.972
26678W        W99092  22.743  36.930   3.334
26679W        W99093  12.336  39.479   0.368
26680W        W99094  23.680   0.750   1.803
26681W        W99095  18.280   1.324  12.494
26682W        W99096   4.279  16.176   1.849
26683W        W99097  39.492   1.415  14.030
26684W        W99098  24.078  10.710  13.967
26685W        W99099  32.967  11.631   1.764
26686W        W99100  39.466  30.927   0.409
26687W        W99101  17.129  44.782   3.834
26688W        W99102  14.710  13.307  13.525
26689W        W99103   6.771   9.388   3.689
26690W        W99104  23.041  26.208  12.830
26691W        W99105  27.041  40.052  12.407
26692W        W99106  44.440  28.009   3.778
26693W        W99107  36.971  30.481   4.740
26694W        W99108  11.157  21.160  13.843
26695W        W99109  21.605  25.469  11.393
26696W        W99110  16.692  23.505   4.728
26697W        W99111   0.881  44.286  10.619
26698W        W99112   2.814  36.951   4.629
26699W        W99113  10.372  24.182  11.941
26700W        W99114  15.318  18.172   3.840
26701W        W99115  24.674  22.546   4.621
26702W        W99116  15.308   6.760  11.601
26703W        W99117   7.387  16.747   4.689
26704W        W99118  40.392   6.222   2.356
26705W        W99119  33.494  17.290  11.513
26706W        W99120  15.696   6.854   5.159
26707W        W99121  33.015  29.946  10.597
26708W        W99122  43.777  18.549   0.347
26709W        W99123  39.874  23.218   0.468
26710W        W99124   7.764   2.831   1.353
26711W        W99125  21.544   2.317  11.054
26712W        W99126  36.404   7.355  12.452
26713W        W99127   2.233   8.280  10.485
26714W        W99128  33.098  28.605  13.063
26715W        W99129  32.597  42.874  12.996
26716W        W99130  24.030  15.772  13.388
26717W        W99131  24.529  18.225   2.335
26718W        W99132  25.196  26.607   4.262
26719W        W99133  24.486   0.831   1.869
26720W        W99134  42.927  42.016  10.431
26721W        W99135   8.329  12.171  14.940
26722W        W99136  32.420  40.926  12.826
26723W        W99137  14.262   7.831   4.600
26724W        W99138  40.435   1.415  11.939
26725W        W99139   0.866  25.543  11.378
26726W        W99140  24.172   2.801   2.665
26727W        W99141  24.485  25.050  14.417
26728W        W99142  31.098  38.428   3.276
26729W        W99143   2.417  11.176  13.798
26730W        W99144   5.860  26.028   0.904
26731W        W99145  15.138  33.575  12.855
26732W        W99146  13.303  33.129   1.380
26733W        W99147  19.665  18.615  11.108
26734W        W99148  24.483  13.146   4.680
26735W        W99149  21.727  23.544   1.330
26736W        W99150  26.702  19.614   2.324
26737W        W99151   5.744  41.396   1.839
26738W        W99152  10.791  38.437   1.212
26739W        W99153  10.739  22.050  13.854
26740W        W99154  44.006  21.665   1.696
26741W        W99155  13.272  29.084   2.304
26742W        W99156  28.469   5.749   1.885
26743W        W99157  43.432  36.046   3.864
26744W        W99158  16.107  22.689  13.392
26745W        W99159  14.722   5.877   5.191
26746W        W99160   1.314   2.406  14.950
26747W        W99161  39.510  18.189   1.881
26748W        W99162   1.467   3.763   1.927
26749W        W99163  29.534  25.184   1.815
26750W        W99164  22.182  31.502   4.309
26751W        W99165  42.458   8.707  10.960
26752W        W99166   8.874  19.677   3.794
26753W        W99167  19.127  17.237   3.355
26754W        W99168  21.248  22.505   2.312
26755W        W99169  18.636  28.526   3.186
26756W        W99170   9.839  29.963   2.188
26757W        W99171   8.398   4.435  12.535
26758W        W99172  41.947  18.100  10.484
26759W        W99173  27.953   7.330  12.084
26760W        W99174   8.239  32.066  12.547
26761W        W99175  15.327   1.377  13.889
26762W        W99176  38.480  44.418  13.941
26763W        W99177   2.401  28.451  12.946
26764W        W99178  28.499  23.594   1.327
26765W        W99179  17.178  24.073  13.475
26766W        W99180  17.083  44.889  13.335
26767W        W99181  27.460   9.846  12.434
26768W        W99182   3.900  20.702  11.007
26769W        W99183   0.886  43.366   2.680
26770W        W99184   0.948  43.814  12.857
26771W        W99185  30.590  43.940  10.927
26772W        W99186  22.666  28.553   0.808
26773W        W99187  41.426  19.173  14.907
26774W        W99188  42.390   3.877   0.799
26775W        W99189  44.851  38.047   2.400
26776W        W99190  35.984   2.945   0.778
26777W        W99191   8.817  32.544   3.167
26778W        W99192  26.008   5.906   0.907
26779W        W99193  33.459  31.127   3.633
26780W        W99194  32.951  27.574  13.919
26781W        W99195   7.263  28.962  11.470
26782W        W99196  30.510   5.262   4.684
26783W        W99197  18.295  23.109   0.825
26784W        W99198  15.147   4.331  11.596
26785W        W99199   7.799   6.896  10.930
26786W        W99200  42.907  44.347  12.091
26787W        W99201  23.664  26.612  11.524
26788W        W99202  27.118  33.910  14.759
26789W        W99203  39.933  30.604   3.202
26790W        W99204  43.388  18.595  11.033
26791W        W99205  16.812  44.435   4.271
26792W        W99206  41.527  14.144   0.900
26793W        W99207  29.931  12.186  14.029
26794W        W99208   5.875   0.342  14.789
26795W        W99209  26.201  11.675  13.350
26796W        W99210  13.124  33.996  11.536
26797W        W99211  15.181  15.665   4.709
26798W        W99212  44.345  30.470  13.474
26799W        W99213   3.273  23.038   2.411
26800W        W99214  15.158  33.546   0.884
26801W        W99215  10.318  21.517  12.416
26802W        W99216  29.021  18.694   3.798
26803W        W99217   5.428  16.693   4.714
26804W        W99218  22.185  20.720  11.465
26805W        W99219  40.049  17.665   2.240
26806W        W99220  23.240  44.843   1.231
26807W        W99221  21.672  36.473   0.945
26808W        W99222  37.938  31.587  11.522
26809W        W99223  39.400  36.482  13.982
26810W        W99224  25.000  10.825  12.004
26811W        W99225   0.284  12.638   3.379
26812W        W99226  37.018  26.999   2.829
26813W        W99227  28.072  29.074   1.798
26814W        W99228  20.040  23.701  14.289
26815W        W99229  17.154   0.981   1.873
26816W        W99230   3.721   7.224   4.223
26817W        W99231  34.410  27.056  14.780
26818W        W99232  40.957  32.432   3.777
26819W        W99233  33.988  42.938   4.167
26820W        W99234  22.239  28.018  14.399
26821W        W99235  20.767  19.118  14.334
26822W        W99236  29.039  22.234  14.471
26823W        W99237   6.736  38.385  12.998
26824W        W99238  23.984  28.504  10.547
26825W        W99239  15.153  19.683   0.303
26826W        W99240  40.949  38.386   4.713
26827W        W99241   3.273  35.031   3.149
26828W        W99242  17.566   0.929  13.533
26829W        W99243   3.750   1.366  14.437
26830W        W99244  33.500  20.096  13.033
26831W        W99245  38.349  13.728   2.187
26832W        W99246  37.892  35.969  12.570
26833W        W99247  27.061  34.570  11.112
26834W        W99248  37.994  35.571  12.848
26835W        W99249  39.898  17.147  11.464
26836W        W99250  11.797  40.042  14.498
26837W        W99251  11.210  27.982  10.427
26838W        W99252  18.662  41.977  11.444
26839W        W99253   0.882   0.426   3.691
26840W        W99254  15.628  16.626   3.756
26841W        W99255  40.349   7.730   3.373
26842W        W99256  27.603  20.660   1.926
26843W        W99257  34.059   9.162   1.804
26844W        W99258  11.814  27.534   2.415
26845W        W99259  42.511  18.070   0.336
26846W        W99260  30.140  17.271  10.521
26847W        W99261  14.738  11.211  11.909
26848W        W99262  27.674  23.659   1.211
26849W        W99263  25.002  33.407  14.403
26850W        W99264  38.846  37.346  10.552
26851W        W99265   5.326  23.100  13.451
26852W        W99266   5.875   1.288  14.966
26853W        W99267   5.827  33.456   1.381
26854W        W99268   6.244   3.914  12.988
26855W        W99269  22.708  29.638   3.829
26856W        W99270  33.548  10.797  14.899
26857W        W99271  40.999  12.651   1.815
26858W        W99272  10.269  33.616   4.644
26859W        W99273  38.543  15.631   1.366
26860W        W99274  12.677  31.444  12.566
26861W        W99275  36.441  22.246   0.454
26862W        W99276   5.201  28.091   2.309
26863W        W99277  27.692   1.972   0.385
26864W        W99278  19.596  12.656  12.952
26865W        W99279  33.383  18.178  14.919
26866W        W99280  25.116  39.535   0.837
26867W        W99281  23.561  19.132  10.622
26868W        W99282  18.289  26.470   3.647
26869W        W99283   9.769  35.885  13.024
26870W        W99284  36.845  25.010  14.493
26871W        W99285  37.837  32.532   9.949
26872W        W99286  10.372  27.067  12.362
26873W        W99287   1.745  29.169   2.706
26874W        W99288  17.764  13.210   0.402
26875W        W99289  40.987  23.990  12.899
26876W        W99290   1.906   0.949  14.458
26877W        W99291  14.707  18.613   4.720
26878W        W99292  18.693  16.662  13.450
26879W        W99293   2.236  37.357   3.319
26880W        W99294  35.494  15.753   3.157
26881W        W99295  16.719   5.832  11.905
26882W        W99296  14.336  13.333  12.077
26883W        W99297  19.538   4.791  12.397
26884W        W99298  24.667  21.121  10.496
26885W        W99299  10.142  39.366  12.875
26886W        W99300  40.472  21.548  12.910
26887W        W99301  36.070   2.287  14.309
26888W        W99302  30.121  21.028   3.297
26889W        W99303  44.930   2.904  14.325
26890W        W99304   0.268  22.105  13.532
26891W        W99305  11.147  16.784  10.606
26892W        W99306  19.242   3.235   1.282
26893W        W99307  14.232  32.418  12.057
26894W        W99308   0.978   5.734  10.993
26895W        W99309   5.929  24.711  14.837
26896W        W99310   7.833  24.161   4.140
26897W        W99311   9.211  41.884  13.977
26898W        W99312  40.009   3.449  14.860
26899W        W99313  21.231  20.059   5.262
26900W        W99314  40.442  30.454  10.020
26901W        W99315  25.140  29.525  11.434
26902W        W99316  23.189  44.275   0.893
26903W        W99317  19.565  21.258   3.690
26904W        W99318  21.243   2.262   1.863
26905W        W99319   7.253  16.605   3.215
26906W        W99320  14.808  42.960  11.378
26907W        W99321   7.804   9.327   0.272
26908W        W99322  17.720  37.350  13.435
26909W        W99323  43.805  17.118  11.965
26910W        W99324  14.671  44.427  14.847
26911W        W99325  28.993  42.330   0.946
26912W        W99326   3.792  28.077  10.925
26913W        W99327  37.991  15.633   1.400
26914W        W99328   0.447  34.513  14.339
26915W        W99329  15.137   2.902  11.038
26916W        W99330  16.788  39.384  10.447
26917W        W99331  23.591  33.515  11.593
26918W        W99332  19.562  33.946   1.935
26919W        W99333  18.259  25.689  13.378
26920W        W99334  31.584  14.701  13.536
26921W        W99335  32.564  25.135  12.533
26922W        W99336  10.357  35.506   2.392
26923W        W99337   4.239  20.647   2.322
26924W        W99338  36.497  44.776  10.910
26925W        W99339  12.251  14.253   0.364
26926W        W99340  37.402  12.827  11.036
26927W        W99341  14.145  43.842  13.445
26928W        W99342  26.693   2.470   2.290
26929W        W99343  29.508  24.980  14.947
26930W        W99344  32.047   5.927  14.410
26931W        W99345  27.641  24.992  11.108
26932W        W99346  37.947   6.403   0.439
26933W        W99347  14.331  27.686  13.972
26934W        W99348  33.616  14.095  14.415
26935W        W99349  37.886  14.101  12.549
26936W        W99350   4.759  43.867   4.628
26937W        W99351  31.090  35.578   0.358
26938W        W99352  18.107  11.663   0.823
26939W        W99353  25.179  17.606   1.349
26940W        W99354  11.180  10.173   2.661
26941W        W99355  34.451  11.335   1.716
26942W        W99356   3.457  16.789  10.938
26943W        W99357  36.385  14.252  11.524
26944W        W99358  18.293  40.039   1.333
26945W        W99359   5.255  35.094   3.175
26946W        W99360  32.905  11.857  13.822
26947W        W99361  25.030  41.805   3.163
26948W        W99362  33.990  38.925  10.423
26949W        W99363  36.536  32.985   5.691
26950W        W99364  34.996  36.943   2.225
26951W        W99365  27.445  39.522  11.120
26952W        W99366  44.988  38.961   4.332
26953W        W99367  42.428  25.993   3.769
26954W        W99368  28.159   1.786   5.224
26955W        W99369  10.712  24.145  10.605
26956W        W99370  19.039  43.434  11.048
26957W        W99371  15.242  17.657   3.788
26958W        W99372   3.267  35.378   0.324
26959W        W99373  42.365   4.310   0.915
26960W        W99374  38.358   8.901  12.449
26961W        W99375   0.917  37.897  14.393
26962W        W99376  25.625  23.091  12.890
26963W        W99377  22.055  39.812   1.447
26964W        W99378  39.934   6.203   1.788
26965W        W99379  27.157  28.563   0.920
26966W        W99380  12.751  10.222   0.474
26967W        W99381  17.084   3.447  10.562
26968W        W99382  28.163  42.798   0.394
26969W        W99383  14.758  20.071   5.681
26970W        W99384  24.229  28.042   1.811
26971W        W99385  39.882  18.189  14.797
26972W        W99386   8.175  11.139   4.286
26973W        W99387  25.670  14.289   3.801
26974W        W99388  21.082   8.871  13.008
26975W        W99389   5.356  29.960  12.835
26976W        W99390   8.801   6.344  10.548
26977W        W99391  16.757   9.765   2.282
26978W        W99392   5.247  30.020  14.824
26979W        W99393  17.161  39.834   4.287
26980W        W99394  13.673  20.062   0.826
26981W        W99395  20.097  38.495   4.257
26982W        W99396  16.686  42.896   4.284
26983W        W99397  44.386  21.650  14.305
26984W        W99398  38.893  27.051   1.215
26985W        W99399  44.412  18.740  13.327
26986W        W99400  34.947  19.759  10.410
26987W        W99401  43.361  38.554  11.381
26988W        W99402   5.765  10.339  14.861
26989W        W99403  22.517  28.066  10.560
26990W        W99404  12.763  40.495   1.311
26991W        W99405  28.145  38.840  11.508
26992W        W99406  33.898  40.545  10.983
26993W        W99407  22.023  39.969   0.946
26994W        W99408  27.597  28.472   0.314
26995W        W99409  11.252  27.956   3.187
26996W        W99410  25.606   6.228   1.699
26997W        W99411   3.822  33.535  13.865
26998W        W99412   8.783  36.089  14.421
26999W        W99413   2.956  36.946  11.421
27000W        W99414  27.554   5.843  12.448
27001W        W99415   6.685   9.875   0.890
27002W        W99416  15.117  19.242  11.593
27003W        W99417  33.918  11.660   3.758
27004W        W99418  34.079  32.928  14.804
27005W        W99419  39.419  13.123   2.180
27006W        W99420  14.767  22.135   0.473
27007W        W99421  38.354  19.699   3.857
27008W        W99422  27.663   1.872  10.411
27009W        W99423  13.651  22.559  13.513
27010W        W99424  31.948  26.965   0.763
27011W        W99425   2.258  38.066  11.956
27012W        W99426  19.146  43.451  11.952
27013W        W99427  26.491  10.306  10.507
27014W        W99428  17.717   1.422   2.864
27015W        W99429   0.431  39.967   4.312
27016W        W99430  37.873  23.015  13.031
27017W        W99431  21.734  24.549   0.444
27018W        W99432  14.183  36.046   0.891
27019W        W99433  24.053  32.540  12.947
27020W        W99434  18.787  17.795  14.019
27021W        W99435  32.564  34.613  12.942
27022W        W99436  13.811   4.265   1.391
27023W        W99437  13.350  18.204   4.306
27024W        W99438  19.569  44.919  13.982
27025W        W99439  22.204  41.392  14.838
27026W        W99440  37.967  14.807  12.012
27027W        W99441  30.930  16.773  14.991
27028W        W99442  15.223  34.043   1.842
27029W        W99443   0.300   1.331  12.823
27030W        W99444  20.100  11.726  12.995
27031W        W99445  34.987  26.091  12.479
27032W        W99446   4.869  43.983   1.897
27033W        W99447  11.281  10.664  12.429
27034W        W99448   0.888  21.735   0.380
27035W        W99449  38.879  41.413  10.550
27036W        W99450   0.348   7.722  11.904
27037W        W99451  41.409  19.780  11.985
27038W        W99452  18.207  27.196   4.258
27039W        W99453   8.749  32.484   1.398
27040W        W99454  31.476  13.231   3.330
27041W        W99455  42.445  24.157   3.786
27042W        W99456  21.619  14.717   2.755
27043W        W99457  37.001  42.989  13.403
27044W        W99458  23.615  25.471  12.859
27045W        W99459   8.253   3.443  13.948
27046W        W99460  20.601  34.026   0.443
27047W        W99461  19.630  22.080  13.025
27048W        W99462  13.730  11.280   1.880
27049W        W99463  22.095  33.567  12.568
27050W        W99464  35.888  36.880  13.022
27051W        W99465  40.398  32.087  12.396
27052W        W99466  41.883  38.940  14.895
27053W        W99467  11.838  34.612  11.475
27054W        W99468  18.192  29.427   2.683
27055W        W99469  15.759  26.503   1.446
27056W        W99470  34.939  24.704   0.803
27057W        W99471  31.512   4.779   0.963
27058W        W99472  29.002  23.516   0.434
27059W        W99473  12.756  36.917   3.224
27060W        W99474  22.010   0.816   4.613
27061W        W99475   7.370  29.105   3.228
27062W        W99476  20.581  29.024   1.855
27063W        W99477  31.455  21.576   3.839
27064W        W99478  36.056  36.569   2.856
27065W        W99479  41.961  28.490   4.801
27066W        W99480  36.060  22.233   4.777
27067W        W99481  36.854  23.605  12.876
27068W        W99482  26.582  40.845   4.254
27069W        W99483  15.597  24.036   1.791
27070W        W99484   4.729  23.221  10.589
27071W        W99485  14.307  29.556  12.440
27072W        W99486  18.168  19.134  13.507
27073W        W99487  44.844  14.247   2.738
27074W        W99488  22.055   6.882  11.488
27075W        W99489   5.222   2.346  11.930
27076W        W99490   0.881  39.889  12.407
27077W        W99491  36.539  40.381   4.796
27078W        W99492  30.613  40.314   3.281
27079W        W99493  23.558  29.439   0.948
27080W        W99494  43.437  38.831  11.009
27081W        W99495  43.788   5.901  12.373
27082W        W99496  23.124  31.070  12.387
27083W        W99497  23.015  19.265  13.381
27084W        W99498   8.775   6.796  10.498
27085W        W99499  14.796  22.237  11.989
27086W        W99500   8.345  10.664  10.991
27087W        W99501  20.768  24.479   3.795
27088W        W99502  28.548  26.484   9.966
27089W        W99503   5.889  41.972  13.014
27090W        W99504  43.381  27.184  13.538
27091W        W99505  42.874  44.819  13.534
27092W        W99506   2.957  40.543   5.318
27093W        W99507  44.463  11.170  14.373
27094W        W99508  29.567   3.387   4.187
27095W        W99509  43.914  37.913  13.897
27096W        W99510   7.887  22.673  13.850
27097W        W99511  18.623  27.564   3.372
27098W        W99512  42.859  41.866  11.509
27099W        W99513  29.982   0.305   2.400
27100W        W99514   6.285   7.334  11.590
27101W        W99515  16.219  23.055   4.261
27102W        W99516   6.210   8.255  13.334
27103W        W99517  38.000  25.538  10.516
27104W        W99518   5.434  41.535   0.359
27105W        W99519   6.350  35.559  12.892
27106W        W99520  33.565  33.469   1.912
27107W        W99521  19.667  19.639  12.532
27108W        W99522  18.157  25.096  14.950
27109W        W99523  39.416   1.392  12.910
27110W        W99524   6.704  38.972   2.880
27111W        W99525  44.373  32.443   2.204
27112W        W99526  12.800  15.767  13.957
27113W        W99527  39.862  17.136  13.897
27114W        W99528  37.499  36.994  14.908
27115W        W99529  26.564  34.497   2.204
27116W        W99530  39.507  13.206  14.823
27117W        W99531  44.956  22.660  10.483
27118W        W99532  19.147  21.211   3.636
27119W        W99533  34.916   8.320  11.953
27120W        W99534  21.650  35.866   3.249
27121W        W99535  37.977  25.677   4.337
27122W        W99536  20.042   6.854   2.287
27123W        W99537   8.216   1.888  13.892
27124W        W99538  10.141  18.229  12.843
27125W        W99539  22.603  43.798   0.967
27126W        W99540   2.776  10.698  13.983
27127W        W99541  44.802  43.446   2.877
27128W        W99542  44.466  23.544   3.149
27129W        W99543  42.840  43.367   4.651
27130W        W99544  10.649  16.315   0.846
27131W        W99545  27.152  44.916  14.981
27132W        W99546   7.689   4.899   1.294
27133W        W99547  36.573  43.925   1.758
27134W        W99548  38.441  14.267   4.306
27135W        W99549   2.430  33.109  13.484
27136W        W99550  36.067  35.388  13.517
27137W        W99551  35.855   0.248  13.859
27138W        W99552  20.726  32.017  12.389
27139W        W99553  31.055  34.912   4.210
27140W        W99554   1.337  29.987   1.881
27141W        W99555  15.254  20.184   2.354
27142W        W99556  25.133  13.703   2.382
27143W        W99557   5.719   2.947   1.428
27144W        W99558  28.151  24.085  13.360
27145W        W99559  34.466  34.459   2.679
27146W        W99560  29.623   9.337   2.219
27147W        W99561  40.493  28.175   2.295
27148W        W99562  41.967  23.498   2.393
27149W        W99563  42.286  37.960  11.984
27150W        W99564  39.515  32.969   2.254
27151W        W99565  20.593  20.183   4.692
27152W        W99566  27.452  23.222  14.817
27153W        W99567  13.183  43.505  13.470
27154W        W99568  42.348  19.740   1.377
27155W        W99569   6.418  25.572  11.020
27156W        W99570   3.796  12.748  12.051
27157W        W99571  44.004  16.612   0.369
27158W        W99572  42.786  24.577   4.339
27159W        W99573   3.263  39.339   0.393
27160W        W99574  18.099  19.553  10.465
27161W        W99575   4.708  42.987  12.092
27162W        W99576  13.232  43.923   2.238
27163W        W99577   0.318   9.855   0.361
27164W        W99578  29.573  39.926   4.821
27165W        W99579  23.004  24.033   0.445
27166W        W99580  36.843  31.090   3.687
27167W        W99581   6.721  36.887  11.378
27168W        W99582   8.654  23.213  11.111
27169W        W99583   3.443  24.999  10.033
27170W        W99584   2.825  28.486   2.368
27171W        W99585  19.186  40.856   4.121
27172W        W99586  37.381  30.496   0.748
27173W        W99587  33.463  27.083   0.880
27174W        W99588  20.149  32.902   2.288
27175W        W99589  26.998  44.326  13.497
27176W        W99590  39.046  41.020   0.243
27177W        W99591  23.705  33.967  12.969
27178W        W99592  10.232  39.376   0.323
27179W        W99593  34.981   0.462   2.857
27180W        W99594  30.048  19.759   2.303
27181W        W99595   8.343  17.180   1.350
27182W        W99596   4.306  39.977  14.001
27183W        W99597  21.248  31.525   0.365
27184W        W99598  32.422  34.574  13.849
27185W        W99599  17.698  33.450   0.831
27186W        W99600  13.224  38.821  12.470
27187W        W99601  44.431  19.560  10.477
27188W        W99602  41.509  26.095  11.537
27189W        W99603  10.156  40.443  10.626
27190W        W99604  24.595  43.434  12.942
27191W        W99605  34.074  15.782  12.015
27192W        W99606  22.225  13.229  10.625
27193W        W99607  35.537   2.394   2.179
27194W        W99608   1.839   6.824  11.909
27195W        W99609   8.348   5.760  11.558
27196W        W99610  17.567   5.201  13.308
27197W        W99611   8.318  44.839   2.331
27198W        W99612  42.305  20.666  12.923
27199W        W99613  33.977  24.025   2.262
27200W        W99614  21.223  36.868   3.669
27201W        W99615  20.163   8.834   4.195
27202W        W99616  22.060   0.898   1.804
27203W        W99617  27.567  17.098   4.790
27204W        W99618  34.577  35.979  13.488
27205W        W99619  16.197  22.604   2.195
27206W        W99620  37.978   2.444  13.905
27207W        W99621   9.858  39.484  12.009
27208W        W99622  42.324  44.897   0.812
27209W        W99623  40.863  30.955   3.338
27210W        W99624  28.622  42.882   2.407
27211W        W99625  38.927  16.602  11.498
27212W        W99626   4.415  39.490   2.247
27213W        W99627  43.364  42.974   2.809
27214W        W99628  39.424  37.466   2.692
27215W        W99629   1.968  40.868   0.342
27216W        W99630   9.163   8.253   4.306
27217W        W99631  39.920   6.208  13.447
27218W        W99632   7.698  10.796  10.444
27219W        W99633  33.081  36.447   3.234
27220W        W99634  34.062  19.200  13.313
27221W        W99635  42.484  42.526   0.345
27222W        W99636  37.559  30.620  12.855
27223W        W99637  12.314  23.041   4.215
27224W        W99638  21.613   6.191  14.506
27225W        W99639   8.397  28.677  14.417
27226W        W99640  10.254  41.890   4.615
27227W        W99641  23.062  11.296  12.093
27228W        W99642  40.888  24.994  12.986
27229W        W99643  27.135  28.123   2.680
27230W        W99644  44.346   0.855  13.901
27231W        W99645   6.878  43.939  10.991
27232W        W99646  16.287   4.237  14.503
27233W        W99647  40.805  14.811   1.351
27234W        W99648  15.204  28.176   0.962
27235W        W99649  15.629   8.169  11.476
27236W        W99650  35.993  11.195   1.219
27237W        W99651  32.951   3.793  11.522
27238W        W99652  34.112  39.978  10.595
27239W        W99653  43.355   8.776  13.835
27240W        W99654  12.689  22.173   0.347
27241W        W99655  31.494   9.361   1.740
27242W        W99656  41.874  36.373   3.782
27243W        W99657  22.139  34.006  10.892
27244W        W99658  43.272  26.998   3.347
27245W        W99659   8.244  22.012   1.376
27246W        W99660  30.151  38.985  12.030
27247W        W99661   0.318  25.596   4.252
27248W        W99662  39.845  36.897   0.767
27249W        W99663   3.911  29.165   5.764
27250W        W99664  14.665  44.862  13.518
27251W        W99665  25.686   3.344   9.931
27252W        W99666  27.455  31.043   2.307
27253W        W99667   9.744  17.101  10.982
27254W        W99668  44.835  27.190   0.287
27255W        W99669   9.241  40.945   1.291
27256W        W99670  22.610   2.312   1.840
27257W        W99671  20.249   2.781  11.532
27258W        W99672  27.158  12.855  11.116
27259W        W99673   5.294  37.067  14.385
27260W        W99674  25.574  20.235   2.685
27261W        W99675  26.562  39.398   0.734
27262W        W99676  32.124  24.004   0.786
27263W        W99677  31.481  31.127  11.100
27264W        W99678  34.531  28.582  11.858
27265W        W99679  30.997  36.869  12.372
27266W        W99680   3.352  19.247   3.161
27267W        W99681  39.938  20.042   4.162
27268W        W99682  19.626   4.851  10.623
27269W        W99683   7.295   4.741   1.738
27270W        W99684  43.767  34.062   0.365
27271W        W99685   4.274  42.475  11.019
27272W        W99686  21.231  20.202   1.310
27273W        W99687  32.401  39.515  11.960
27274W        W99688  27.018  16.282  12.836
27275W        W99689   0.282  29.460   2.831
27276W        W99690   2.364  16.293   2.680
27277W        W99691   2.398  32.967   3.363
27278W        W99692  35.499  43.948  13.528
27279W        W99693  32.921  18.151  11.906
27280W        W99694  16.765  19.662  13.476
27281W        W99695  14.830  31.464  14.954
27282W        W99696  19.617  21.683  13.367
27283W        W99697   4.805   1.876   2.753
27284W        W99698  35.596  18.130   3.810
27285W        W99699  42.297  39.381   2.219
27286W        W99700   1.455  11.636   2.705
27287W        W99701  36.932  14.618   1.401
27288W        W99702  36.089   3.863   0.417
27289W        W99703   8.359  22.636   1.740
27290W        W99704  14.293  25.026  13.407
27291W        W99705   1.267   4.832  14.851
27292W        W99706   7.401  33.103   2.385
27293W        W99707   2.753   4.222   0.735
27294W        W99708  44.992  30.423   0.324
27295W        W99709  30.055   4.307  14.287
27296W        W99710  26.121  20.607  14.813
27297W        W99711  37.402   3.895  11.989
27298W        W99712   4.825  40.335  12.933
27299W        W99713  28.638  27.668  10.415
27300W        W99714  32.590  17.746   0.953
27301W        W99715  22.501  28.563  13.945
27302W        W99716  23.241   1.427  12.407
27303W        W99717  17.732   7.176   3.219
27304W        W99718  37.546  10.350   2.805
27305W        W99719  10.316   7.247   4.263
27306W        W99720  35.893  17.105   1.396
27307W        W99721  16.251  28.456  11.966
27308W        W99722   2.368  43.375  14.791
27309W        W99723  36.495  37.419   2.403
27310W        W99724  13.669  18.194   4.780
27311W        W99725  15.579  44.327   1.807
27312W        W99726  37.989  26.473  11.109
27313W        W99727  35.357  29.084   0.326
27314W        W99728  42.032  31.623   0.932
27315W        W99729  25.635   6.282   4.258
27316W        W99730  15.677  16.257  11.935
27317W        W99731  36.537  24.024   2.864
27318W        W99732   8.218   9.799   0.751
27319W        W99733  15.279  11.185   4.632
27320W        W99734   6.678  25.068   2.784
27321W        W99735  27.690  22.073  10.550
27322W        W99736  14.140  29.552   2.717
27323W        W99737   1.340  40.345  11.557
27324W        W99738  35.082  32.400   4.836
27325W        W99739   2.419  11.776   3.266
27326W        W99740   1.310  12.203   2.232
27327W        W99741  36.869   3.444  13.972
27328W        W99742  27.455  38.069  13.334
27329W        W99743  38.023  27.080   2.334
27330W        W99744  13.634  23.722   1.425
27331W        W99745   4.355  29.545  12.067
27332W        W99746  21.752  28.608  11.438
27333W        W99747  18.788   1.386   0.427
27334W        W99748   6.845  18.248  11.042
27335W        W99749  17.230  26.463  11.468
27336W        W99750  25.596  24.480   0.282
27337W        W99751  42.454  40.500  12.533
27338W        W99752   6.759  37.929  14.018
27339W        W99753  29.991  30.049  14.911
27340W        W99754  37.549  38.372   2.742
27341W        W99755  28.526   1.479  14.018
27342W        W99756  28.669  39.872  13.487
27343W        W99757  32.488  39.043  14.959
27344W        W99758  14.667   8.833   4.628
27345W        W99759   7.791  32.445   1.431
27346W        W99760  21.084  11.140   1.351
27347W        W99761  22.239  17.187   2.296
27348W        W99762   3.238  32.583   2.278
27349W        W99763   9.799   7.356  13.341
27350W        W99764  42.377  24.030  13.999
27351W        W99765  36.032  14.299  11.075
27352W        W99766  10.703  38.872  14.419
27353W        W99767   3.298  22.660  11.033
27354W        W99768   7.244   3.395  12.380
27355W        W99769  34.106   8.208  13.336
27356W        W99770  10.368  37.544  12.485
27357W        W99771  35.857  43.885   2.728
27358W        W99772  24.486  29.526  13.542
27359W        W99773  19.281  41.379  13.989
27360W        W99774  26.010   6.829  11.006
27361W        W99775   2.294  28.658   4.656
27362W        W99776  18.632   9.867  12.995
27363W        W99777  44.359   8.297  13.469
27364W        W99778  39.851  19.756  11.970
27365W        W99779  21.534  37.861   1.386
27366W        W99780  28.602  33.592   2.870
27367W        W99781   4.849  42.289  13.982
27368W        W99782   8.223  29.971   3.769
27369W        W99783  25.985  33.944   3.853
27370W        W99784  20.148  42.851  10.586
27371W        W99785  30.947  15.601   0.749
27372W        W99786  42.780   7.681   5.095
27373W        W99787  42.804  44.266   1.369
27374W        W99788  44.927  15.194  12.882
27375W        W99789  20.098  39.058  12.838
27376W        W99790  38.012  43.920  11.104
27377W        W99791   2.769   8.659   0.410
27378W        W99792  41.031  22.716   4.666
27379W        W99793   7.765  12.647   3.176
27380W        W99794   8.374   0.894   4.613
27381W        W99795   6.310  28.586   2.769
27382W        W99796  26.654  32.946   4.346
27383W        W99797  42.367  37.969   3.713
27384W        W99798  15.578  14.665   2.819
27385W        W99799  22.188  13.120  12.469
27386W        W99800  41.818  36.381   3.320
27387W        W99801   7.768  24.484  11.563
27388W        W99802  25.207  13.756   0.295
27389W        W99803   3.742  27.026  11.045
27390W        W99804  44.950  16.257   0.948
27391W        W99805  11.170  14.804  14.368
27392W        W99806  18.117  42.838   4.333
27393W        W99807  35.517  41.955  12.533
27394W        W99808   1.304  12.122   0.322
27395W        W99809  27.628  17.682   0.255
27396W        W99810  12.736  27.547   0.886
27397W        W99811  36.441  14.297  10.601
27398W        W99812  17.802  31.437  14.422
27399W        W99813   8.340  37.055   3.848
27400W        W99814  25.177  43.351   2.723
27401W        W99815  16.733  25.110  12.936
27402W        W99816  37.570  41.839  13.333
27403W        W99817  25.027   0.826  14.404
27404W        W99818  27.038   8.358   2.199
27405W        W99819  25.531  38.560   2.799
27406W        W99820  15.130  24.120  12.969
27407W        W99821   8.290  33.105   1.370
27408W        W99822  40.341  10.267   4.157
27409W        W99823  21.203  31.545  11.927
27410W        W99824  38.472  24.572  10.957
27411W        W99825  10.710  11.779  12.842
27412W        W99826  25.662  16.622   3.276
27413W        W99827   7.783  41.007  14.514
27414W        W99828  35.004  20.556   1.924
27415W        W99829   8.859  15.209  11.540
27416W        W99830   8.837  26.586  10.598
27417W        W99831  39.338   1.405   0.270
27418W        W99832  44.347   9.746   1.284
27419W        W99833  36.019  35.570   2.854
27420W        W99834  39.007  30.915  14.006
27421W        W99835  36.404  17.269  14.980
27422W        W99836  17.695  20.130  13.991
27423W        W99837   4.346  23.038  10.431
27424W        W99838  37.384   3.890   2.379
27425W        W99839  34.498  28.965  11.123
27426W        W99840   5.350  44.477   1.773
27427W        W99841  38.020  25.988   4.296
27428W        W99842  34.109  10.821  13.990
27429W        W99843  39.054   4.407   1.272
27430W        W99844  23.610  24.546  10.431
27431W        W99845  42.926  31.573   4.326
27432W        W99846  11.317  34.895  11.858
27433W        W99847  14.639   8.390  11.516
27434W        W99848  10.641  21.730  13.061
27435W        W99849  15.224  25.577   1.895
27436W        W99850   4.894  44.927   0.262
27437W        W99851  15.818  11.253  13.374
27438W        W99852  23.233   8.866   4.710
27439W        W99853  19.264   7.753   1.715
27440W        W99854  22.024  27.528   3.866
27441W        W99855  22.230   4.390   4.291
27442W        W99856  41.982  38.033   0.966
27443W        W99857  30.611   8.329  12.569
27444W        W99858   9.172  36.524  11.460
27445W        W99859  11.830  19.258  11.402
27446W        W99860  42.390  24.540   3.375
27447W        W99861  12.776  36.559   0.249
27448W        W99862  17.738  40.311   4.831
27449W        W99863  15.673  34.011   3.160
27450W        W99864  25.035   6.867   2.705
27451W        W99865  12.687  17.666  13.540
27452W        W99866   4.942  22.106   1.785
27453W        W99867  41.950  39.906   3.247
27454W        W99868   8.240   0.830   0.246
27455W        W99869  20.667  43.774  13.435
27456W        W99870  24.135  20.151   3.375
27457W        W99871  13.735  26.474  14.415
27458W        W99872  36.583  37.924  11.908
27459W        W99873  33.055  44.829   4.657
27460W        W99874  27.568  26.659   5.251
27461W        W99875  34.388  18.624  10.507
27462W        W99876   4.425  21.169  14.412
27463W        W99877  37.834  28.573   2.793
27464W        W99878   7.791  35.928  14.351
27465W        W99879  16.745   4.286   2.746
27466W        W99880  36.492   9.225   0.948
27467W        W99881  18.710  26.656  12.524
27468W        W99882  37.460  42.787  13.503
27469W        W99883   7.382  30.053   0.749
27470W        W99884   0.298  44.006   4.675
27471W        W99885   2.234  29.006  12.448
27472W        W99886  21.226  44.788  11.390
27473W        W99887   0.296  11.293  13.052
27474W        W99888  42.972  16.235  14.948
27475W        W99889  30.503   8.395   1.734
27476W        W99890  37.867  33.903   1.893
27477W        W99891  27.196  36.972   4.276
27478W        W99892  18.096  28.137  13.478
27479W        W99893  16.224   2.404  12.882
27480W        W99894  26.612  25.186   4.268
27481W        W99895   1.839  37.972   3.854
27482W        W99896   7.731  24.115   2.707
27483W        W99897  43.505  29.018   5.104
27484W        W99898   2.922  43.843   1.395
27485W        W99899  12.271  41.020  13.533
27486W        W99900  11.359  25.070   3.798
27487W        W99901  41.444  40.958   0.298
27488W        W99902  15.751  21.132   4.270
27489W        W99903  15.190   3.890   4.135
27490W        W99904   2.831   4.332   3.150
27491W        W99905   2.355  30.457  10.029
27492W        W99906  11.154  14.100   2.388
27493W        W99907  14.647  31.520   1.254
27494W        W99908  15.760  25.019   1.451
27495W        W99909  29.931  10.719  11.036
27496W        W99910   4.876   9.646  13.037
27497W        W99911  14.657  15.638   2.686
27498W        W99912   9.839  43.958  13.972
27499W        W99913  13.678  19.177  10.604
27500W        W99914  15.659   4.391  10.484
27501W        W99915  16.285  44.994   4.285
27502W        W99916  28.511  29.462   2.689
27503W        W99917  42.835  17.172   0.832
27504W        W99918   7.781  31.908   3.172
27505W        W99919   2.401  14.231  10.026
27506W        W99920  42.474   9.184  13.874
27507W        W99921  26.577  28.464   0.947
27508W        W99922  28.129  44.865  14.982
27509W        W99923  26.510  31.420  13.935
27510W        W99924  26.458   6.234   4.173
27511W        W99925  44.471  31.474  13.059
27512W        W99926   3.402  34.931  12.927
27513W        W99927  22.673  43.783  13.964
27514W        W99928  16.578  41.512   1.443
27515W        W99929  34.075   0.911  10.489
27516W        W99930  40.937  20.723   2.181
27517W        W99931  19.648  20.039  12.851
27518W        W99932   9.744  39.041   3.341
27519W        W99933  37.489  21.039  11.412
27520W        W99934  19.124   0.432  14.880
27521W        W99935  14.141  19.732   5.772
27522W        W99936  14.096  42.357   2.312
27523W        W99937  10.756  37.438   0.912
27524W        W99938  34.375   9.347   2.247
27525W        W99939  40.841  22.201   4.818
27526W        W99940  43.892  13.180   3.169
27527W        W99941   1.886   0.355   0.841
27528W        W99942  42.957  25.175  11.000
27529W        W99943  21.710   3.316   3.736
27530W        W99944  41.909  22.734  10.997
27531W        W99945  34.395   9.287   0.257
27532W        W99946  16.227  35.902  14.007
27533W        W99947  12.856  34.881  12.900
27534W        W99948   8.896  27.942   1.357
27535W        W99949  15.176  31.005   2.878
27536W        W99950  32.919  43.387   2.872
27537W        W99951  23.138   6.294  14.788
27538W        W99952  33.597  41.530   4.285
27539W        W99953  27.473   0.821   2.239
27540W        W99954  27.115  16.140  13.991
27541W        W99955  24.638   7.200  13.485
27542W        W99956  15.326  25.083  14.976
27543W        W99957  42.855  14.120  13.060
27544W        W99958  14.099  15.770   3.689
27545W        W99959  31.594   1.735   2.369
27546W        W99960  12.660  42.317  14.760
27547W        W99961   4.342   7.689  14.951
27548W        W99962  28.075  20.103  13.357
27549W        W99963  26.097  10.304  14.282
27550W        W99964  38.388  22.207   1.847
27551W        W99965  27.106  31.896  11.550
27552W        W99966  13.211   1.783  10.621
27553W        W99967  10.324  34.119   3.199
27554W        W99968  43.971  44.355   3.314
27555W        W99969  15.314  12.286  11.976
27556W        W99970   8.337  35.546   3.246
27557W        W99971  17.189   4.426   4.309
27558W        W99972  19.176  42.877  11.479
27559W        W99973   4.807  10.276   3.288
27560W        W99974  19.613   3.238   3.676
27561W        W99975  38.394  17.653   0.466
27562W        W99976  12.728   0.471  12.976
27563W        W99977   8.761  21.033   2.360
27564W        W99978   2.392  36.046   3.173
27565W        W99979  43.327   0.266   3.836
27566W        W99980  12.143  12.723  11.377
27567W        W99981   6.745   7.676   0.881
27568W        W99982  24.110  17.117  14.953
27569W        W99983  26.464  32.004  14.404
27570W        W99984  26.143  30.484   0.815
27571W        W99985  23.675  26.572   4.231
27572W        W99986  28.504   0.300   3.338
27573W        W99987  25.514   3.223   2.797
27574W        W99988  14.166   7.716   4.225
27575W        W99989  41.344  26.582   3.834
27576W        W99990  43.462  28.026  10.099
27577W        W99991  11.701   6.298  14.799
27578W        W99992  31.403  14.129  12.407
27579W        W99993  17.124   7.335   2.375
27580W        W99994   7.675  10.146  13.064
27581W        W99995   3.426   3.879  14.300
27582W        W99996  31.147  22.070  13.537
27583W        W99997   0.861  22.616  14.806
27584W        W99998  25.708  21.559  13.974
27585W        W99999  34.420  15.111   0.853
27586W        W    0  15.588  15.159   4.691
27587W        W    1   7.251  25.161   1.899
27588W        W    2  28.997  10.212  12.457
27589W        W    3  40.946   0.814  12.880
27590W        W    4  16.805  43.945   4.140
27591W        W    5  42.404  14.333  10.464
27592W        W    6  39.521  15.676  11.006
27593W        W    7  26.461  36.480  11.945
27594W        W    8   3.432  38.431   1.765
27595W        W    9  34.961  37.990  14.786
27596W        W   10   8.822  21.538   3.383
27597W        W   11   8.388   7.682  14.460
27598W        W   12  41.487  18.180   3.795
27599W        W   13  36.980  37.960  10.943
27600W        W   14  39.961  31.460  13.485
27601W        W   15  41.827  21.645  12.456
27602W        W   16  42.944  16.297   3.780
27603W        W   17  22.616   7.249   1.804
27604W        W   18  36.491  28.003  13.439
27605W        W   19   4.428  41.028   1.406
27606W        W   20  16.665   2.767   4.119
27607W        W   21   8.696   2.233   0.479
27608W        W   22  31.971   0.493  14.403
27609W        W   23  10.204  40.446   3.639
27610W        W   24  18.255  44.442   2.886
27611W        W   25   4.212  35.974   3.147
27612W        W   26   8.687  37.483   1.906
27613W        W   27  41.326   1.263  12.905
27614W        W   28   7.280   4.825  14.405
27615W        W   29  41.522  32.056   2.240
27616W        W   30  34.508  10.845  12.420
27617W        W   31  11.817  39.912  12.461
27618W        W   32  43.006   4.771  14.016
27619W        W   33  10.711  31.620  14.935
27620W        W   34  21.621  28.114  11.880
27621W        W   35  17.164   3.826   1.380
27622W        W   36   0.369  25.565  11.414
27623W        W   37  42.827  40.950   4.263
27624W        W   38  39.477  29.560  14.861
27625W        W   39  43.980  22.044   4.136
27626W        W   40  38.974  15.753  13.437
27627W        W   41  35.570   9.686   0.478
27628W        W   42  44.444  38.390   3.640
27629W        W   43  29.533  25.557   3.825
27630W        W   44   7.767  44.943   0.939
27631W        W   45  29.155  14.202  12.991
27632W        W   46   1.479  21.592   0.759
27633W        W   47  29.956   0.910   1.843
27634W        W   48  35.396  41.435  10.535
27635W        W   49  35.900   4.830   1.708
27636W        W   50   6.750  11.127   2.338
27637W        W   51  33.020   0.767  13.477
27638W        W   52  43.460   1.402   2.376
27639W        W   53  11.257  42.829  12.001
27640W        W   54  13.119  44.856   3.305
27641W        W   55  10.735  18.088  14.807
27642W        W   56  24.639   7.887   0.440
27643W        W   57  31.411  23.589   4.654
27644W        W   58  42.444  23.165   0.736
27645W        W   59  23.632  35.426   0.874
27646W        W   60  39.540  37.363  14.303
27647W        W   61  40.450   9.290  11.903
27648W        W   62  23.014  28.159  14.387
27649W        W   63  20.530   6.352   3.723
27650W        W   64  22.609  17.131   2.734
27651W        W   65  27.630  21.575  11.916
27652W        W   66  39.830   8.663  14.794
27653W        W   67  38.911  44.973   1.316
27654W        W   68  14.251  19.685   4.251
27655W        W   69  22.220   2.297  12.558
27656W        W   70  12.653   5.229   3.722
27657W        W   71  41.406  41.390   1.332
27658W        W   72  11.372  36.554  13.995
27659W        W   73  15.309  11.256  10.590
27660W        W   74  29.614   7.229  14.808
27661W        W   75   4.419  34.068   4.705
27662W        W   76  33.912  21.023  14.504
27663W        W   77  10.178   1.440   4.686
27664W        W   78  20.261  13.305   2.355
27665W        W   79  34.509  12.244   2.894
27666W        W   80  31.603  10.317   0.346
27667W        W   81  36.495  44.389   5.297
27668W        W   82  33.477  29.971  12.066
27669W        W   83  22.664   1.863   4.618
27670W        W   84  15.645  27.574  10.926
27671W        W   85  37.538  18.613   3.387
27672W        W   86   8.899  27.090  12.829
27673W        W   87  23.141   5.809   2.796
27674W        W   88  19.684   7.868   2.790
27675W        W   89   3.945  12.301   2.877
27676W        W   90  43.421  13.268   1.327
27677W        W   91  18.246  11.162  11.407
27678W        W   92  26.995  12.129  10.445
27679W        W   93  41.867  17.563   0.915
27680W        W   94  10.751  14.312  12.386
27681W        W   95  25.604   5.206  10.898
27682W        W   96  11.361  22.123  11.434
27683W        W   97  37.440  30.451   4.713
27684W        W   98   9.237  15.242  10.573
27685W        W   99  12.261  39.891   2.868
27686W        W  100   6.744   2.233   0.849
27687W        W  101  33.532  29.656   2.759
27688W        W  102  21.515   6.402   2.274
27689W        W  103  13.213  17.793  10.612
27690W        W  104  44.774  18.574   3.238
27691W        W  105   4.224  43.336  10.496
27692W        W  106  40.875  30.560   3.162
27693W        W  107  18.619  33.010  11.084
27694W        W  108  42.341   4.729  10.992
27695W        W  109   5.400  28.003  12.482
27696W        W  110   3.747  12.842  13.475
27697W        W  111  28.089  25.524   1.913
27698W        W  112  20.711   9.782   3.365
27699W        W  113  24.997   9.190  11.014
27700W        W  114  29.932  12.755   1.233
27701W        W  115   8.177  29.584  13.426
27702W        W  116  40.976  35.011   4.702
27703W        W  117  38.821  17.102   1.241
27704W        W  118  29.523  28.989  11.077
27705W        W  119  30.948  17.307   5.196
27706W        W  120  19.086  39.839   4.627
27707W        W  121  41.514   7.235   1.396
27708W        W  122   4.781  44.831   3.345
27709W        W  123  17.213  13.288  12.902
27710W        W  124  35.379  11.665   4.780
27711W        W  125  32.888   7.768   4.339
27712W        W  126  14.694   4.209   3.282
27713W        W  127  21.224  37.574  12.935
27714W        W  128  36.439  12.649   1.787
27715W        W  129  20.586   2.270   0.318
27716W        W  130  28.515  43.984   1.920
27717W        W  131  43.312  30.074  14.909
27718W        W  132  11.705   9.264  13.387
27719W        W  133  11.644   8.793   0.923
27720W        W  134  43.508   1.827  14.869
27721W        W  135  25.191  35.088  10.946
27722W        W  136  13.636  23.997   4.753
27723W        W  137  30.979  33.089  12.497
27724W        W  138   0.370  36.998   3.830
27725W        W  139  14.736  13.606  11.407
27726W        W  140  26.079  13.727   1.379
27727W        W  141  44.846   7.721   0.458
27728W        W  142   8.400  21.049   5.171
27729W        W  143  35.471  15.642  11.117
27730W        W  144  10.328   1.901  14.867
27731W        W  145   1.780   3.772   0.447
27732W        W  146  44.804  19.167   2.389
27733W        W  147  34.585  19.160   4.338
27734W        W  148  37.373  40.339   3.835
27735W        W  149  26.034  25.210   1.835
27736W        W  150  44.274  36.844   5.192
27737W        W  151  31.403  18.229   1.393
27738W        W  152  20.203  32.949   3.250
27739W        W  153   0.393  24.081   4.724
27740W        W  154  41.018  32.019   4.171
27741W        W  155   2.940  31.585   3.304
27742W        W  156  11.692   0.916   3.818
27743W        W  157  13.603  12.227  12.554
27744W        W  158  25.518  14.644  14.301
27745W        W  159  25.540   5.890  12.917
27746W        W  160  27.644  17.132   3.766
27747W        W  161  14.642  17.705   3.767
27748W        W  162  42.404  34.941  10.470
27749W        W  163  43.333  29.146   2.803
27750W        W  164   3.261  28.618   1.891
27751W        W  165  36.403  29.447   3.692
27752W        W  166   2.905  23.591   3.684
27753W        W  167  23.016   1.776   2.890
27754W        W  168   0.894  42.866  13.912
27755W        W  169  44.440  43.781  11.991
27756W        W  170  19.190  32.509  13.923
27757W        W  171   8.232   6.283  13.311
27758W        W  172  36.351  34.045   4.236
27759W        W  173  14.589  18.729  13.519
27760W        W  174   6.736  44.969  10.527
27761W        W  175   9.652   8.828   2.772
27762W        W  176  12.797  17.791   3.853
27763W        W  177  31.491  10.302  11.903
27764W        W  178  41.942  28.174  12.413
27765W        W  179  33.599  11.762   1.249
27766W        W  180  36.349   7.759   0.857
27767W        W  181   4.378   2.777  12.519
27768W        W  182  35.866  44.760   3.349
27769W        W  183   9.379  35.951  11.872
27770W        W  184  41.496  37.834   4.615
27771W        W  185   0.931  13.244  11.054
27772W        W  186   9.248  20.628  10.974
27773W        W  187  15.681  12.811   0.739
27774W        W  188  43.844  28.089  13.404
27775W        W  189   7.844  41.838  14.983
27776W        W  190   5.859  17.194  14.758
27777W        W  191  38.448   1.270  11.003
27778W        W  192  34.939  18.120   9.988
27779W        W  193   5.854   2.309   0.927
27780W        W  194  18.586  16.129  14.329
27781W        W  195  43.835  19.604  10.996
27782W        W  196  15.097  37.866  14.959
27783W        W  197   0.262  10.379  12.011
27784W        W  198  41.967  22.194  13.548
27785W        W  199  21.609  44.779  14.837
27786W        W  200  22.169  30.481  13.358
27787W        W  201  16.644  16.274  13.542
27788W        W  202  15.653  18.259  10.059
27789W        W  203  15.145  25.024  10.478
27790W        W  204   7.822   8.891  10.458
27791W        W  205  31.937   5.293  13.835
27792W        W  206  32.118  10.732  13.852
27793W        W  207  44.876  44.368   1.344
27794W        W  208  14.819  26.084  11.586
27795W        W  209   2.363  13.323   1.431
27796W        W  210  23.067   8.668  11.059
27797W        W  211  44.443   2.328   1.925
27798W        W  212  33.966  40.986  12.392
27799W        W  213  37.942  33.037   2.357
27800W        W  214  24.210  10.369  13.395
27801W        W  215  11.284  18.243  14.808
27802W        W  216   8.866  20.691  12.072
27803W        W  217  18.700  13.817  14.986
27804W        W  218  14.661  27.622  13.494
27805W        W  219   9.857   6.228  14.002
27806W        W  220  19.538  28.184   1.795
27807W        W  221  13.722  33.516   0.392
27808W        W  222  28.536  36.039   4.274
27809W        W  223   4.924  22.995   5.258
27810W        W  224   5.339  14.655   1.262
27811W        W  225  29.540   6.408   4.199
27812W        W  226   3.344   4.780   1.747
27813W        W  227  12.190  21.574   4.267
27814W        W  228   4.250  38.362   2.898
27815W        W  229  30.616  29.056  14.923
27816W        W  230  44.283  35.883  14.895
27817W        W  231   9.754  41.800  13.028
27818W        W  232  33.401  17.141  13.969
27819W        W  233  19.714  34.487  14.389
27820W        W  234  28.646  28.994  14.348
27821W        W  235  22.584   9.230  14.760
27822W        W  236   3.363   6.194   3.186
27823W        W  237  39.357  20.659   2.391
27824W        W  238  38.991  12.127   4.314
27825W        W  239  36.873  16.720   2.219
27826W        W  240  10.777  35.480  12.482
27827W        W  241   6.897  23.181   4.315
27828W        W  242  22.132   9.321   2.736
27829W        W  243  31.490  13.824  12.497
27830W        W  244  36.861  32.977   5.220
27831W        W  245  21.678   0.955  13.006
27832W        W  246  26.687  42.815  11.585
27833W        W  247  33.448  41.952   1.408
27834W        W  248   2.375  35.418   2.715
27835W        W  249  31.081  31.909   0.966
27836W        W  250  30.017   1.868  14.439
27837W        W  251  21.691  35.550  11.003
27838W        W  252  17.073  31.636   4.806
27839W        W  253   8.832  11.333  12.985
27840W        W  254  41.978  39.344   1.732
27841W        W  255  37.552  37.542  13.309
27842W        W  256  28.108   8.689   0.773
27843W        W  257  14.619   0.429  13.881
27844W        W  258  20.624  29.084  14.502
27845W        W  259  20.134  37.499   1.875
27846W        W  260   7.852  10.812  13.862
27847W        W  261   3.843  10.816  13.489
27848W        W  262  29.489  42.835  12.876
27849W        W  263  44.839  33.883   1.762
27850W        W  264  33.125  24.062   1.736
27851W        W  265  41.804  28.121  13.489
27852W        W  266  33.563  36.375   1.349
27853W        W  267  40.937  11.811  13.906
27854W        W  268  28.070  41.801   1.728
27855W        W  269   4.786   2.728   3.356
27856W        W  270  33.595  19.232   0.793
27857W        W  271  33.560  36.872   1.872
27858W        W  272   1.885   3.936  13.361
27859W        W  273  24.529  32.927   4.299
27860W        W  274  37.426  14.303  10.146
27861W        W  275  29.585  17.161   0.745
27862W        W  276   2.930  42.016  11.540
27863W        W  277   0.301  29.596   4.779
27864W        W  278  30.154  41.933  10.422
27865W        W  279  41.940  41.967  10.634
27866W        W  280  13.275  25.053   4.832
27867W        W  281  22.042  30.907  12.418
27868W        W  282   9.696   0.304   3.307
27869W        W  283  32.602  19.552  13.904
27870W        W  284  39.860  28.147  13.904
27871W        W  285  40.332  10.381   0.267
27872W        W  286  23.231   7.907   1.894
27873W        W  287  26.521  44.881  13.320
27874W        W  288  40.344  21.171  13.466
27875W        W  289   6.738  25.204   3.190
27876W        W  290  21.655   0.909   4.256
27877W        W  291  40.840   1.785   0.318
27878W        W  292  34.461   2.815   2.821
27879W        W  293  24.542  20.698  14.941
27880W        W  294  41.400  40.464   0.823
27881W        W  295  33.100  32.995  14.447
27882W        W  296  33.943  23.035  13.384
27883W        W  297  34.567  29.452   4.830
27884W        W  298  40.337  41.972  13.369
27885W        W  299  17.296  20.114   1.276
27886W        W  300  28.594  35.450  11.418
27887W        W  301  21.264   8.299  11.592
27888W        W  302  33.090  18.184   4.673
27889W        W  303  15.157   6.878  12.055
27890W        W  304  10.822  30.658   0.953
27891W        W  305  18.693  15.597   2.223
27892W        W  306  30.093  29.090   1.399
27893W        W  307  22.187  14.675   0.253
27894W        W  308   0.469  35.459  12.879
27895W        W  309  21.518  10.766  12.442
27896W        W  310  23.593  33.415   4.711
27897W        W  311   8.305   5.224  12.516
27898W        W  312  40.401  16.610  11.613
27899W        W  313  44.970  33.566  14.987
27900W        W  314  30.072  41.526  10.985
27901W        W  315  13.194  14.181  14.851
27902W        W  316  22.552  41.514   2.889
27903W        W  317  27.086  21.591   2.376
27904W        W  318  12.362  36.373   4.733
27905W        W  319  26.667  39.921   2.247
27906W        W  320   1.331  30.435   0.275
27907W        W  321   8.232  23.491   2.306
27908W        W  322  29.544  25.005  10.595
27909W        W  323   0.842  23.608   3.753
27910W        W  324  12.307  28.174   1.415
27911W        W  325  41.981   8.896  12.030
27912W        W  326  36.530  39.922   3.692
27913W        W  327  40.881   4.409  10.431
27914W        W  328  23.993   2.447  14.505
27915W        W  329   5.775   3.953   4.722
27916W        W  330  17.235  10.825  13.542
27917W        W  331   4.233  34.056  13.354
27918W        W  332  28.445  38.952  13.503
27919W        W  333  28.012  36.488  10.899
27920W        W  334   2.900  22.142  10.975
27921W        W  335  28.056  40.356   1.856
27922W        W  336  12.286  14.223  11.052
27923W        W  337   5.368  11.638   4.609
27924W        W  338   5.347  12.328   0.444
27925W        W  339   5.420  32.505   4.705
27926W        W  340   9.193  20.212   1.414
27927W        W  341  42.428   6.311   3.376
27928W        W  342  40.850  42.297   1.792
27929W        W  343   7.805  20.239  13.791
27930W        W  344  36.964  16.720   0.397
27931W        W  345   9.761  16.299   2.888
27932W        W  346  32.960  15.820  13.379
27933W        W  347  18.053   9.731   4.609
27934W        W  348   9.195  36.573  14.474
27935W        W  349   9.178  20.232  14.935
27936W        W  350  21.222  36.089  11.519
27937W        W  351  23.001  23.070  10.611
27938W        W  352   0.364  23.208   4.322
27939W        W  353  36.955  18.763  13.817
27940W        W  354  28.567  33.612  11.995
27941W        W  355  22.011  36.980  13.310
27942W        W  356  39.399  38.521   4.688
27943W        W  357   0.982  16.702  11.390
27944W        W  358  16.744  27.508  12.876
27945W        W  359   2.736   6.758  11.974
27946W        W  360   3.337  12.283  13.798
27947W        W  361  41.489  14.800   4.741
27948W        W  362  33.496  28.494  11.567
27949W        W  363   6.215  11.790   4.342
27950W        W  364  18.591  24.029  14.840
27951W        W  365  30.644  29.436   2.232
27952W        W  366  28.455   6.909  13.452
27953W        W  367  11.155  30.030   3.716
27954W        W  368  32.948  14.214   4.259
27955W        W  369  17.118   9.798  14.295
27956W        W  370  43.941   1.340  14.780
27957W        W  371  30.642  22.026   1.265
27958W        W  372  13.822  29.464   3.735
27959W        W  373  41.841  23.519  11.908
27960W        W  374   3.399  24.630   0.865
27961W        W  375  15.202  39.448  14.863
27962W        W  376  17.673   9.328  10.983
27963W        W  377   4.790   7.254  11.466
27964W        W  378  21.030   5.728  11.072
27965W        W  379  32.085  37.460   5.282
27966W        W  380  41.029  26.035   4.779
27967W        W  381   0.306  29.029   1.373
27968W        W  382  13.309  32.633  12.938
27969W        W  383  14.666  26.525   4.235
27970W        W  384   0.908  32.113   5.178
27971W        W  385  28.006  29.643   2.265
27972W        W  386  15.203  28.507  12.925
27973W        W  387  14.322  42.969   3.680
27974W        W  388  29.008  18.731   1.242
27975W        W  389  13.329   1.432  14.889
27976W        W  390  31.478  43.504   1.818
27977W        W  391  17.715  28.670   0.244
27978W        W  392  28.661  26.630   0.281
27979W        W  393  23.081   4.304  12.032
27980W        W  394  38.074   3.251  12.864
27981W        W  395  27.121  18.217   0.327
27982W        W  396  32.521  26.177   1.822
27983W        W  397  13.122  15.133  12.004
27984W        W  398   9.847  12.700   1.450
27985W        W  399   4.388  35.972  14.431
27986W        W  400   7.284  36.542  12.988
27987W        W  401  11.685  31.097   0.865
27988W        W  402  19.265  13.161  12.553
27989W        W  403  36.873  14.772   0.781
27990W        W  404  13.238  12.249  14.460
27991W        W  405   7.217  16.653  10.567
27992W        W  406  40.052  30.577   1.337
27993W        W  407  36.073  44.365  14.321
27994W        W  408   6.291  33.998  12.394
27995W        W  409  39.969  43.893   1.777
27996W        W  410  38.949  35.479  10.640
27997W        W  411  29.657  44.334  12.931
27998W        W  412  20.080  11.226   3.680
27999W        W  413  16.262   5.318  13.416
28000W        W  414  19.672   9.208  11.992
28001W        W  415  30.471   0.904  12.029
28002W        W  416  31.920  37.899  14.497
28003W        W  417  37.514  28.931   2.810
28004W        W  418  15.794  44.003   0.424
28005W        W  419  14.809   3.771  13.975
28006W        W  420  35.963  25.165   0.350
28007W        W  421  17.707  11.625  10.947
28008W        W  422   1.972  15.577  12.355
28009W        W  423   4.393   2.400  12.051
28010W        W  424  34.580  16.242   2.326
28011W        W  425  40.817  38.536  13.917
28012W        W  426  17.093   7.820   3.752
28013W        W  427  15.637   9.668  12.030
28014W        W  428  37.068  33.129   4.827
28015W        W  429  20.672  24.716  14.979
28016W        W  430  18.050  16.190  14.849
28017W        W  431  19.773  11.354   0.914
28018W        W  432  22.229  18.592   0.451
28019W        W  433  15.816  43.287  13.037
28020W        W  434   1.351   4.742  10.999
28021W        W  435  37.394  18.066   2.776
28022W        W  436   0.329   5.918  13.875
28023W        W  437  10.747   5.767   2.829
28024W        W  438  40.865   2.237  14.310
28025W        W  439  35.527  27.996   1.737
28026W        W  440  21.620  13.216  11.864
28027W        W  441  21.037  39.422  11.860
28028W        W  442  10.697  10.147  11.056
28029W        W  443  35.006  27.130  13.499
28030W        W  444  11.721  20.633   1.249
28031W        W  445  29.007  15.695  10.597
28032W        W  446  11.840  24.618  13.015
28033W        W  447   3.435  21.163  12.552
28034W        W  448  25.570  25.554   3.841
28035W        W  449   8.293  10.664  12.884
28036W        W  450   3.902  34.899   3.297
28037W        W  451   1.784  42.412   4.266
28038W        W  452  37.045  12.694  10.950
28039W        W  453  23.092  36.410   4.343
28040W        W  454  31.032  27.673  12.539
28041W        W  455  39.867  26.170  14.907
28042W        W  456  13.662  14.828   1.764
28043W        W  457  35.932  13.733  10.414
28044W        W  458   7.706  41.313  14.878
28045W        W  459   9.698  40.394   1.728
28046W        W  460  35.864  18.556  10.897
28047W        W  461  29.451   9.832   2.396
28048W        W  462   1.240  11.754   0.256
28049W        W  463  34.586  15.713  14.843
28050W        W  464  43.358  21.698   2.323
28051W        W  465  36.587  36.422   3.846
28052W        W  466  22.237  40.899   2.720
28053W        W  467   7.759  35.489   3.648
28054W        W  468  36.937  10.751   4.228
28055W        W  469  31.447  20.169  14.845
28056W        W  470  10.253  28.476  11.532
28057W        W  471  41.789  18.632  13.470
28058W        W  472   3.873  11.293  14.001
28059W        W  473  16.259  36.903  10.967
28060W        W  474  32.101   1.758   3.188
28061W        W  475  15.781   4.388   2.368
28062W        W  476   4.932  36.482   2.358
28063W        W  477  15.256  18.549  11.402
28064W        W  478   1.361   6.739  10.427
28065W        W  479  17.801   7.826   4.168
28066W        W  480  44.868  16.768  14.982
28067W        W  481  21.545   2.736  14.799
28068W        W  482   2.741  39.474  12.345
28069W        W  483  42.416  27.663  11.092
28070W        W  484  19.250  40.906   3.340
28071W        W  485  38.422  43.998  11.963
28072W        W  486  24.171  25.184  12.019
28073W        W  487  16.154  16.764  13.026
28074W        W  488  32.038  29.063  10.138
28075W        W  489   7.672  41.895   3.308
28076W        W  490  37.005  11.373   3.713
28077W        W  491  13.116  18.246   0.746
28078W        W  492   0.803  35.912  13.529
28079W        W  493   0.899   1.872  14.481
28080W        W  494  37.849  34.422   0.469
28081W        W  495  11.751  42.836  12.846
28082W        W  496  44.258   7.371  13.355
28083W        W  497  31.531  14.726   4.314
28084W        W  498  23.599  29.465  12.514
28085W        W  499  27.105  28.110   1.798
28086W        W  500  20.565  35.099  13.447
28087W        W  501  41.913  32.545   1.695
28088W        W  502  21.718  35.515  13.460
28089W        W  503  29.050  41.851  10.480
28090W        W  504  33.485  11.301  13.911
28091W        W  505  38.962  18.577  13.993
28092W        W  506  44.971  43.943   4.642
28093W        W  507  19.199   2.388   4.775
28094W        W  508  19.232   2.435   0.454
28095W        W  509  12.356   8.358   3.378
28096W        W  510  19.649  20.212  13.803
28097W        W  511  27.623  38.878  11.986
28098W        W  512  33.419  38.452  13.946
28099W        W  513   5.693  17.078   1.894
28100W        W  514  42.327   4.247   2.831
28101W        W  515  37.923  15.657  14.369
28102W        W  516   9.673  19.258  14.479
28103W        W  517  10.273  41.474  14.430
28104W        W  518  35.925   1.406   4.209
28105W        W  519   0.383  16.688   4.835
28106W        W  520   9.802  25.530   0.959
28107W        W  521  39.885   3.739  11.004
28108W        W  522  19.724  10.190  12.971
28109W        W  523  41.297  33.893   4.205
28110W        W  524  23.644  29.667  10.999
28111W        W  525  26.647  41.887   2.379
28112W        W  526  17.754  34.025  14.876
28113W        W  527  16.740  16.073  10.484
28114W        W  528  15.746   9.167  14.326
28115W        W  529   4.360  18.584  12.384
28116W        W  530  10.650  30.653  11.888
28117W        W  531  42.964  18.760  13.029
28118W        W  532   8.685  19.737   3.344
28119W        W  533  17.587  21.135   2.192
28120W        W  534   0.256  30.453   1.723
28121W        W  535  40.321  21.073   2.706
28122W        W  536  22.019   3.733  12.991
28123W        W  537  32.445  38.006   0.745
28124W        W  538   4.333   6.905  11.519
28125W        W  539  16.667  23.068   1.784
28126W        W  540  22.138  37.057  11.875
28127W        W  541  40.346  27.136  14.877
28128W        W  542  16.619  17.587  11.957
28129W        W  543  11.138  26.063   3.790
28130W        W  544   0.435   7.199  10.972
28131W        W  545   9.672  30.971   3.212
28132W        W  546  19.247  38.835   3.201
28133W        W  547  40.427  35.029   1.371
28134W        W  548   2.439  42.478   2.306
28135W        W  549  18.768  23.635  13.023
28136W        W  550  25.529  43.314   4.302
28137W        W  551   4.902  34.482   2.309
28138W        W  552  19.105  15.763  10.609
28139W        W  553  26.532  29.464  12.371
28140W        W  554   8.781  43.302  10.576
28141W        W  555   5.851  18.653  11.481
28142W        W  556  15.132  20.682  14.515
28143W        W  557   8.662  11.648   4.160
28144W        W  558  22.628  36.523  13.002
28145W        W  559  34.443  23.681   4.810
28146W        W  560  34.419   0.794  12.870
28147W        W  561   1.926  42.342   2.771
28148W        W  562  38.895  28.937   3.182
28149W        W  563  18.741  30.050  14.769
28150W        W  564  34.592  31.528   0.318
28151W        W  565  42.809  29.471  14.450
28152W        W  566  42.459  32.395   2.215
28153W        W  567  35.582   3.955  10.537
28154W        W  568  29.164  14.094   4.610
28155W        W  569  24.021  14.628   1.282
28156W        W  570  11.253  11.178   0.820
28157W        W  571   6.873  29.426  14.006
28158W        W  572  25.178   5.360   2.826
28159W        W  573  31.411  42.930  14.411
28160W        W  574  28.109  41.013   0.317
28161W        W  575  12.210   0.839  11.612
28162W        W  576  26.564   4.711  12.494
28163W        W  577  20.692  43.914  14.505
28164W        W  578  43.772  31.629  14.884
28165W        W  579  13.728   2.875   3.756
28166W        W  580  27.134  20.584  14.904
28167W        W  581  33.578  30.429   0.782
28168W        W  582  23.046  13.691   1.898
28169W        W  583   8.793   3.822   0.907
28170W        W  584  11.250  21.243  11.066
28171W        W  585  44.995  23.709   0.905
28172W        W  586  21.724  36.928   1.713
28173W        W  587  12.280  20.168   3.727
28174W        W  588  19.675  15.604  12.515
28175W        W  589  38.917  41.326  11.583
28176W        W  590  41.347  40.923   1.418
28177W        W  591   3.390  41.520  10.547
28178W        W  592  13.617  28.437   1.728
28179W        W  593   8.396   3.394  10.929
28180W        W  594  20.086  11.201   2.372
28181W        W  595  36.559  18.752  10.569
28182W        W  596  25.674   2.267   1.249
28183W        W  597  27.197   6.249  14.280
28184W        W  598  44.965  27.453   4.267
28185W        W  599  32.015   5.317   2.893
28186W        W  600  22.027   1.310  12.065
28187W        W  601  36.872  32.995   3.248
28188W        W  602  20.537  36.412   3.299
28189W        W  603  29.596  17.651   1.901
28190W        W  604  19.595  20.556   2.723
28191W        W  605  44.288  33.989   1.387
28192W        W  606  16.615  20.604   3.854
28193W        W  607  20.204  20.591  10.437
28194W        W  608  26.473  15.668  10.607
28195W        W  609  25.072  31.640   2.848
28196W        W  610  12.643  25.019   1.237
28197W        W  611  33.102  27.507   1.816
28198W        W  612  17.086  42.508   4.271
28199W        W  613  31.066  38.847  10.050
28200W        W  614   0.952  14.701  13.022
28201W        W  615   4.707   3.383  10.559
28202W        W  616   1.286  14.312   4.770
28203W        W  617  19.717   2.745  10.894
28204W        W  618   5.822  37.532  13.857
28205W        W  619  29.127  18.557   0.864
28206W        W  620  34.099   2.277  14.979
28207W        W  621  28.143  11.835   2.402
28208W        W  622  17.118  37.359   4.822
28209W        W  623  36.859   7.335   1.445
28210W        W  624  13.257   6.921   4.136
28211W        W  625  11.691   3.932   4.602
28212W        W  626  25.479  19.084  12.922
28213W        W  627   0.960  37.424  11.865
28214W        W  628  33.087   8.781   1.900
28215W        W  629   4.296  37.491   4.139
28216W        W  630  18.549   5.793   2.874
28217W        W  631  29.529  17.265   3.861
28218W        W  632  38.908  41.863  11.973
28219W        W  633  14.178  38.903   4.645
28220W        W  634  12.707   9.722   2.217
28221W        W  635   3.745  25.190  14.479
28222W        W  636   7.892  44.813   4.123
28223W        W  637  28.018  29.167  13.926
28224W        W  638   7.777  41.858  10.616
28225W        W  639   8.778  21.681   4.685
28226W        W  640  11.216  34.594  11.030
28227W        W  641  37.940  35.585  14.759
28228W        W  642  30.443  37.504   4.296
28229W        W  643  43.975   6.827  11.431
28230W        W  644  29.939   6.359  11.471
28231W        W  645   1.941  33.985   4.169
28232W        W  646  23.105   7.797   0.333
28233W        W  647  35.076  30.028   4.621
28234W        W  648   8.189  41.915   3.353
28235W        W  649  13.718  26.194   2.878
28236W        W  650   8.851  16.768   3.712
28237W        W  651  14.303  29.525  14.456
28238W        W  652  22.704   6.878   3.796
28239W        W  653  31.590  25.005   2.758
28240W        W  654  17.134  42.925   2.702
28241W        W  655   3.953  37.923   2.809
28242W        W  656  31.048   7.342   1.316
28243W        W  657  28.165  24.712   2.816
28244W        W  658  16.592  39.434   2.209
28245W        W  659  10.801  44.420  12.524
28246W        W  660  42.941  16.086   0.932
28247W        W  661   2.422  28.948  10.937
28248W        W  662  13.192  30.152   0.953
28249W        W  663  24.669  43.868   2.732
28250W        W  664  26.962  39.929   5.129
28251W        W  665  35.392  42.426   4.293
28252W        W  666  10.816  38.947  13.936
28253W        W  667  14.248  17.628   4.787
28254W        W  668  35.472  30.586   1.933
28255W        W  669  44.377  34.018   3.321
28256W        W  670  26.609  26.696   5.237
28257W        W  671  26.692  17.731  12.929
28258W        W  672   7.696  30.066   4.781
28259W        W  673  27.057   9.871   2.195
28260W        W  674  15.103  16.230   4.176
28261W        W  675  13.621  43.401  13.449
28262W        W  676  18.601   6.891   4.194
28263W        W  677  31.011  26.032  12.394
28264W        W  678   0.486   6.821  11.969
28265W        W  679  22.528  19.547   3.715
28266W        W  680  13.766  33.404   1.925
28267W        W  681  43.768   8.799   2.765
28268W        W  682   4.836  18.284   1.249
28269W        W  683  16.096  21.119  11.524
28270W        W  684  24.179   1.973  11.895
28271W        W  685  20.712  30.632  13.385
28272W        W  686  41.445  43.440  14.794
28273W        W  687  17.266   6.279  14.773
28274W        W  688   6.260  13.325  11.052
28275W        W  689  41.985  39.892  10.428
28276W        W  690  36.080  37.059  11.943
28277W        W  691  10.637  13.798  12.060
28278W        W  692   1.786  40.899  11.077
28279W        W  693  19.248  29.581   4.273
28280W        W  694  20.172   2.839  11.123
28281W        W  695  14.300  41.038  12.543
28282W        W  696  34.963  12.662  10.580
28283W        W  697  16.084   8.208   1.755
28284W        W  698   4.266  29.171   3.630
28285W        W  699  33.080  18.559  14.872
28286W        W  700  20.074  17.128  13.943
28287W        W  701  32.116  37.990  11.408
28288W        W  702  11.830  29.940  10.944
28289W        W  703   1.452  12.186  13.791
28290W        W  704  36.385  22.567  10.586
28291W        W  705  31.571   2.380   2.849
28292W        W  706  12.838  37.544   0.786
28293W        W  707  44.460   8.895  12.343
28294W        W  708  30.591  33.060   4.710
28295W        W  709  14.267  30.158   4.352
28296W        W  710   7.795  32.930  12.055
28297W        W  711  25.993  42.377  12.339
28298W        W  712  29.968   6.191  11.119
28299W        W  713  17.802  37.359  10.548
28300W        W  714  18.148  10.345   4.301
28301W        W  715  43.508   7.879   2.376
28302W        W  716  36.377  23.093   0.270
28303W        W  717  44.887  14.273   0.777
28304W        W  718  22.746  40.315   0.321
28305W        W  719  15.581  14.676  14.497
28306W        W  720  21.230  28.572  12.043
28307W        W  721  16.629  41.803   0.873
28308W        W  722   3.461  32.580   1.318
28309W        W  723   8.776   5.209  13.513
28310W        W  724   7.413  41.373   2.408
28311W        W  725  15.325  15.631  10.497
28312W        W  726  18.117   1.420  12.093
28313W        W  727  42.800   7.781  10.573
28314W        W  728  19.663  10.737  14.963
28315W        W  729  25.016  44.361  12.349
28316W        W  730  29.083  21.063   4.341
28317W        W  731  17.195  35.453  11.519
28318W        W  732   6.887  35.499  10.457
28319W        W  733  10.148  15.310  10.506
28320W        W  734  44.908  22.648   1.346
28321W        W  735  30.936   0.429   2.337
28322W        W  736   7.723   7.192  11.541
28323W        W  737  36.350  14.314   1.882
28324W        W  738  29.966   2.859  14.821
28325W        W  739  28.097  21.075  10.640
28326W        W  740  35.914  39.480  12.865
28327W        W  741  42.901  31.911  12.048
28328W        W  742  36.372   9.869  13.348
28329W        W  743  18.105   7.260  11.393
28330W        W  744   2.847  18.269  14.858
28331W        W  745   0.275  36.899   2.770
28332W        W  746  42.811   4.352  12.077
28333W        W  747  23.586  33.997   3.711
28334W        W  748  36.070  38.917   3.633
28335W        W  749  11.667   1.917   1.833
28336W        W  750  29.081  33.030  11.071
28337W        W  751  17.584  18.289  14.452
28338W        W  752  13.148   5.259   2.352
28339W        W  753  32.030  30.508  12.574
28340W        W  754  38.458  29.596   4.342
28341W        W  755  38.406   1.768  14.275
28342W        W  756  37.841  42.945  11.451
28343W        W  757  13.142  17.695   5.096
28344W        W  758  27.976  27.090   0.808
28345W        W  759  20.073   7.252  14.891
28346W        W  760  37.056   3.770  13.016
28347W        W  761   7.368  19.284  11.967
28348W        W  762   3.755  23.653   0.420
28349W        W  763  10.189  35.013   4.649
28350W        W  764  15.282   9.164   4.599
28351W        W  765  30.642   7.883  14.397
28352W        W  766   5.924   6.902   1.308
28353W        W  767  22.728  40.433  11.523
28354W        W  768  27.053  15.305   1.341
28355W        W  769  39.812  31.470   0.806
28356W        W  770  22.660   5.739   0.788
28357W        W  771  20.231  37.556  13.431
28358W        W  772  15.161  44.848   1.735
28359W        W  773   0.891  28.444   4.605
28360W        W  774  17.638  16.739   0.371
28361W        W  775  40.934  42.429  12.988
28362W        W  776  22.239   4.797  13.791
28363W        W  777  29.169  31.899  11.880
28364W        W  778  41.869   2.747  12.427
28365W        W  779  38.914  41.806   2.665
28366W        W  780  27.555  16.595  12.866
28367W        W  781   4.888  42.413  14.867
28368W        W  782  44.970   3.339  11.012
28369W        W  783  21.216  23.645   0.428
28370W        W  784  21.714  37.028  11.108
28371W        W  785  18.643   9.346  14.024
28372W        W  786  38.451  12.302  13.985
28373W        W  787   5.256  30.639  13.884
28374W        W  788  21.527  26.458  11.020
28375W        W  789  38.027  18.138  11.556
28376W        W  790  12.252  32.040   2.729
28377W        W  791  13.746  15.786   2.298
28378W        W  792  39.945  22.702   4.773
28379W        W  793  36.407  10.862   1.233
28380W        W  794   9.158   0.887   0.482
28381W        W  795   6.812  22.680   1.426
28382W        W  796   2.231  40.395   3.670
28383W        W  797  18.749  18.220   1.741
28384W        W  798  10.713  12.163   0.884
28385W        W  799  27.118   3.350  12.093
28386W        W  800   5.768  22.649   1.747
28387W        W  801  22.029  35.924   4.240
28388W        W  802  36.498  44.920  10.518
28389W        W  803   9.862  28.567  11.976
28390W        W  804  27.177  10.144   4.665
28391W        W  805   0.458   7.889   0.835
28392W        W  806  19.119  38.950  12.540
28393W        W  807  40.311  40.837   1.298
28394W        W  808  26.997   2.949   0.741
28395W        W  809  29.612  29.109   1.756
28396W        W  810  29.108   6.356  10.561
28397W        W  811  30.120  26.058  10.996
28398W        W  812  15.189  13.649   1.319
28399W        W  813  10.297  40.816  12.341
28400W        W  814  14.598   8.349  13.545
28401W        W  815  10.345  22.093  14.829
28402W        W  816  14.592  11.318  14.351
28403W        W  817  10.330   2.461   2.179
28404W        W  818  29.167  17.299  13.384
28405W        W  819  38.566  12.174  14.852
28406W        W  820  11.652  23.682   1.340
28407W        W  821  24.587   3.913  10.640
28408W        W  822  16.803  19.641  12.031
28409W        W  823  16.140  39.051  13.495
28410W        W  824   3.786  39.883  13.498
28411W        W  825   3.377  38.911  12.926
28412W        W  826   5.687  35.558  11.577
28413W        W  827  31.495  15.661   3.708
28414W        W  828  18.242  27.600   2.844
28415W        W  829  17.117  20.169  10.617
28416W        W  830   2.336  36.357   3.230
28417W        W  831  12.717   7.862   3.351
28418W        W  832  41.415  32.464  13.952
28419W        W  833  33.580   2.246  10.975
28420W        W  834  43.802  36.350   0.370
28421W        W  835  17.077   9.730  11.450
28422W        W  836  22.743  40.943   4.684
28423W        W  837   0.269   5.334   2.187
28424W        W  838  16.723   7.238  12.557
28425W        W  839  15.323  14.152   1.422
28426W        W  840   5.849  25.983  12.909
28427W        W  841  38.932  38.922   3.148
28428W        W  842  44.360  39.034  14.349
28429W        W  843   4.877  13.790  11.474
28430W        W  844   2.325  27.527   3.701
28431W        W  845   8.804  32.546  13.439
28432W        W  846  22.134  44.308   1.821
28433W        W  847  35.397  14.175  11.468
28434W        W  848  37.418  32.509  12.410
28435W        W  849  26.694  43.987  11.880
28436W        W  850  25.582  22.147  11.496
28437W        W  851  25.002  44.498  14.896
28438W        W  852   1.258  30.993  12.864
28439W        W  853   8.878  23.038  14.426
28440W        W  854   0.302  15.306  14.907
28441W        W  855  15.213  37.426   1.798
28442W        W  856  23.058   9.854   2.248
28443W        W  857  15.327   7.301  12.873
28444W        W  858   7.306  18.056  11.127
28445W        W  859  19.748  34.528  12.081
28446W        W  860  43.858  41.373   3.224
28447W        W  861  28.445  16.789   4.737
28448W        W  862  20.090  10.852  13.846
28449W        W  863  22.113  38.340  13.825
28450W        W  864  13.152  24.538  11.966
28451W        W  865  12.681   2.260   0.398
28452W        W  866  26.983  36.557   1.322
28453W        W  867  13.708  33.944  10.644
28454W        W  868  25.469  11.863   1.421
28455W        W  869  43.295  15.609  11.864
28456W        W  870  27.166  36.077   4.791
28457W        W  871  22.188   1.246  14.896
28458W        W  872  14.589  39.843   0.825
28459W        W  873  34.869  33.123   3.356
28460W        W  874  15.083   4.735   4.832
28461W        W  875  29.564  33.031  14.852
28462W        W  876  15.327  11.851  14.445
28463W        W  877   5.393  30.937   2.332
28464W        W  878  36.442  43.798  11.105
28465W        W  879  40.453  33.929   2.733
28466W        W  880   7.200  28.543  10.919
28467W        W  881   9.836  11.651  10.607
28468W        W  882  38.983  42.510   1.314
28469W        W  883  40.442  27.008  13.849
28470W        W  884  32.112  40.523   5.174
28471W        W  885  38.041   6.804   0.308
28472W        W  886  32.418  26.042   3.794
28473W        W  887  40.853   5.224  13.884
28474W        W  888  28.045  17.224   2.418
28475W        W  889  19.713  35.990  14.358
28476W        W  890  38.988   1.258  10.454
28477W        W  891  29.033  11.149  13.895
28478W        W  892  19.620  17.217   0.353
28479W        W  893  31.933  38.060   2.367
28480W        W  894  39.884  11.693  10.495
28481W        W  895  13.669  23.589   4.260
28482W        W  896  23.718  19.549  12.400
28483W        W  897  25.143  27.525  11.603
28484W        W  898  13.747  19.707  12.997
28485W        W  899  44.868  21.204   0.462
28486W        W  900  35.918  18.754   1.921
28487W        W  901  31.127  12.275   3.378
28488W        W  902   7.751  29.423  11.482
28489W        W  903  35.401  40.389  10.415
28490W        W  904  23.237  23.548   4.719
28491W        W  905  37.444   4.340  13.502
28492W        W  906  40.481  27.491  12.527
28493W        W  907   3.874   7.902   2.287
28494W        W  908  21.621  16.764  13.938
28495W        W  909  16.576  18.770   3.348
28496W        W  910  33.087  11.342  10.914
28497W        W  911  15.131  38.394  12.950
28498W        W  912  12.680  11.177  14.919
28499W        W  913   7.803  24.074   2.342
28500W        W  914   4.382  35.923  10.623
28501W        W  915  27.982  11.707  14.441
28502W        W  916  39.889   2.729   0.458
28503W        W  917  33.937  37.876   4.837
28504W        W  918  18.552  22.176   4.291
28505W        W  919  27.097  35.371  14.340
28506W        W  920  25.695  34.895  10.997
28507W        W  921  15.666  26.620   0.829
28508W        W  922  17.157  19.644   0.405
28509W        W  923  25.713  27.535  10.425
28510W        W  924  37.069   4.895   4.121
28511W        W  925  17.585  16.123   3.332
28512W        W  926  31.913  44.755  11.067
28513W        W  927   4.859  32.015   1.321
28514W        W  928  44.814  35.549   1.325
28515W        W  929  33.957  40.844   0.292
28516W        W  930  14.624  22.610  13.944
28517W        W  931  33.619   4.853  13.992
28518W        W  932  11.691  35.540  13.960
28519W        W  933  32.960  42.448  14.405
28520W        W  934  17.171  18.751  14.796
28521W        W  935  24.713  27.679   3.190
28522W        W  936  24.101  24.046  10.406
28523W        W  937  34.417  37.341   2.257
28524W        W  938  16.754  40.456  11.480
28525W        W  939  12.286  35.432   1.835
28526W        W  940   3.262  41.461   0.825
28527W        W  941  43.419  24.107  13.895
28528W        W  942  24.500  19.660   0.273
28529W        W  943  34.907  17.112   1.211
28530W        W  944  24.629  16.253   0.336
28531W        W  945   7.383  25.117  13.407
28532W        W  946   9.231  22.056   3.250
28533W        W  947  34.944  23.996  11.082
28534W        W  948  14.318  35.988   1.883
28535W        W  949  34.463  40.361  10.441
28536W        W  950   7.749  35.421  11.046
28537W        W  951  23.584   6.706  11.397
28538W        W  952  39.449  15.244   3.284
28539W        W  953  30.124  27.562  12.903
28540W        W  954   5.436  23.042   3.848
28541W        W  955  37.924  16.685   2.354
28542W        W  956  25.097  20.681   1.730
28543W        W  957  19.703  15.792   4.835
28544W        W  958   1.269  20.544   4.201
28545W        W  959   9.240  20.171  12.441
28546W        W  960  30.476  16.305  14.446
28547W        W  961  16.202  44.954   1.929
28548W        W  962   3.936   8.871   2.254
28549W        W  963   2.351  13.218  10.503
28550W        W  964  44.804  33.625   3.348
28551W        W  965  37.992   2.846  10.966
28552W        W  966   0.799  18.090   0.752
28553W        W  967  38.381  16.669   0.927
28554W        W  968  26.039  38.891  10.016
28555W        W  969  28.091  14.641  13.827
28556W        W  970  36.862   2.406   1.795
28557W        W  971  31.580  19.161   4.250
28558W        W  972   3.751  13.839   3.798
28559W        W  973  27.133   6.308   2.858
28560W        W  974  23.113  30.630   1.904
28561W        W  975  33.039   1.815   1.372
28562W        W  976  19.554  33.936  12.833
28563W        W  977  10.672  25.644   0.964
28564W        W  978  27.087  25.073  12.542
28565W        W  979  29.998   6.364  11.966
28566W        W  980  18.090  27.059  11.605
28567W        W  981  35.086   1.757  10.440
28568W        W  982  16.734  31.968  13.804
28569W        W  983  24.202   7.858   4.182
28570W        W  984  31.541   8.250  10.924
28571W        W  985  17.715  26.480   4.831
28572W        W  986  23.651  41.408   1.860
28573W        W  987  28.938  12.125   0.480
28574W        W  988   5.371   5.753  11.407
28575W        W  989  14.590   9.831   4.731
28576W        W  990  36.502  14.100  11.997
28577W        W  991  17.172  26.167  14.512
28578W        W  992  19.137   1.882   2.771
28579W        W  993   9.656  22.204  12.366
28580W        W  994  43.973  38.492   4.307
28581W        W  995   0.872  23.706  12.990
28582W        W  996  23.046  22.156   0.767
28583W        W  997  25.076   6.685  13.424
28584W        W  998   8.897   6.683  14.296
28585W        W  999  26.675  31.131  12.848
28586W        W 1000  34.379   3.308  13.311
28587W        W 1001  31.557  21.547  12.512
28588W        W 1002  17.691  22.125  11.007
28589W        W 1003  10.805  13.712   2.882
28590W        W 1004  10.268  15.594   4.317
28591W        W 1005  32.085  15.310   2.896
28592W        W 1006  27.958  23.727   4.141
28593W        W 1007  33.990  40.504  14.430
28594W        W 1008  17.708  14.746  13.948
28595W        W 1009  32.602  31.596   1.924
28596W        W 1010   4.325   6.257   1.805
28597W        W 1011   4.353  40.426   4.279
28598W        W 1012   8.823   6.400   0.847
28599W        W 1013  27.089  39.372  13.328
28600W        W 1014   7.406  19.119   4.677
28601W        W 1015   3.943  17.741   1.224
28602W        W 1016  32.035  28.452   4.183
28603W        W 1017  17.604  27.543   0.394
28604W        W 1018  18.286   6.362   1.754
28605W        W 1019  42.779  27.012  14.302
28606W        W 1020  17.306  11.267   1.249
28607W        W 1021  38.072   5.823  12.863
28608W        W 1022  30.919  39.939   0.846
28609W        W 1023  12.166  12.716  12.074
28610W        W 1024  27.096  35.901   0.949
28611W        W 1025  14.764   9.727  13.803
28612W        W 1026  29.021  34.412  13.521
28613W        W 1027   1.978  42.822  12.544
28614W        W 1028   6.767  10.342  10.893
28615W        W 1029  34.869  15.632  12.573
28616W        W 1030  15.161  30.970   3.341
28617W        W 1031  27.972  40.541   1.411
28618W        W 1032  14.789  21.680  11.607
28619W        W 1033  26.493  23.696   2.277
28620W        W 1034  17.657  40.831   0.735
28621W        W 1035  16.293   8.807  13.445
28622W        W 1036  35.093  15.588  10.483
28623W        W 1037  33.492   9.300  13.963
28624W        W 1038  19.587  21.050  14.938
28625W        W 1039  21.157   5.416   3.284
28626W        W 1040   3.732  31.932   4.770
28627W        W 1041  16.762  37.446   1.244
28628W        W 1042   1.364  22.110   0.870
28629W        W 1043  18.282  40.035   0.771
28630W        W 1044  26.463  11.681   4.344
28631W        W 1045  41.521  41.849  12.858
28632W        W 1046   8.894   6.694  14.868
28633W        W 1047  15.788  39.556  11.516
28634W        W 1048  35.429  28.516   0.893
28635W        W 1049  38.361  19.629  13.985
28636W        W 1050  42.319  27.582   1.827
28637W        W 1051   0.796  13.347   1.272
28638W        W 1052  37.960  31.406   2.898
28639W        W 1053  10.745  35.515   0.424
28640W        W 1054  31.899   3.244  12.010
28641W        W 1055  38.953  36.904   0.953
28642W        W 1056  26.076  37.966  11.383
28643W        W 1057   6.691   1.319   0.419
28644W        W 1058  12.204  25.603   1.343
28645W        W 1059   1.332  43.808   2.387
28646W        W 1060  22.179  32.074   2.409
28647W        W 1061  17.631  42.442   4.707
28648W        W 1062  15.798  35.940  13.499
28649W        W 1063  12.239   6.836  10.140
28650W        W 1064  31.913  38.377  14.845
28651W        W 1065   8.162   4.794  13.319
28652W        W 1066   4.919  35.583   1.805
28653W        W 1067  31.465  25.644  14.296
28654W        W 1068   0.272   6.831  11.433
28655W        W 1069   5.426  40.848   1.395
28656W        W 1070  33.513  25.649  12.908
28657W        W 1071  40.474  19.107   2.899
28658W        W 1072  24.592  28.681  13.519
28659W        W 1073   6.322  21.150  11.569
28660W        W 1074   7.366  24.987   0.805
28661W        W 1075  20.654   4.259  11.092
28662W        W 1076  20.606   3.822  11.923
28663W        W 1077   4.250  41.906  12.990
28664W        W 1078  40.418  11.258  13.420
28665W        W 1079  30.951  19.653  10.476
28666W        W 1080  39.975  11.314   3.235
28667W        W 1081  38.967  37.573   4.678
28668W        W 1082   5.855  40.850   5.626
28669W        W 1083  41.489   0.348   1.264
28670W        W 1084   8.200  12.762   1.895
28671W        W 1085  32.421  38.486  14.351
28672W        W 1086   4.425   1.792   2.217
28673W        W 1087  17.693  38.533   4.747
28674W        W 1088  23.072  43.840  13.527
28675W        W 1089  35.574  13.184   0.879
28676W        W 1090  22.671  30.956  10.524
28677W        W 1091  20.262  25.707  13.509
28678W        W 1092  28.159  15.784   5.110
28679W        W 1093  28.011  42.933   2.260
28680W        W 1094  38.859   6.328   2.797
28681W        W 1095  22.687  10.717  11.571
28682W        W 1096   9.851  37.052  13.978
28683W        W 1097  44.475   4.795   2.708
28684W        W 1098  39.897  43.912   4.685
28685W        W 1099  24.587  12.808  11.993
28686W        W 1100  33.978  29.113  11.039
28687W        W 1101  23.668  12.299  11.554
28688W        W 1102  39.808  24.510  13.317
28689W        W 1103  28.465  28.042  11.531
28690W        W 1104  19.085  16.713   1.741
28691W        W 1105   2.966  34.047  14.340
28692W        W 1106   7.384  40.050  10.575
28693W        W 1107  39.470  42.029   0.818
28694W        W 1108  16.167  37.883  10.487
28695W        W 1109   6.902  18.592  10.640
28696W        W 1110  44.341  32.610  13.913
28697W        W 1111  27.595   0.417   1.791
28698W        W 1112  38.516  10.819  12.422
28699W        W 1113   9.226  33.993  11.509
28700W        W 1114  17.134  34.547   4.333
28701W        W 1115  35.870  23.184  11.017
28702W        W 1116  29.669  25.217   2.735
28703W        W 1117  37.898  38.844  13.017
28704W        W 1118  43.772  31.420  12.493
28705W        W 1119  41.893  41.422   0.248
28706W        W 1120  33.960  17.084  10.520
28707W        W 1121  16.225  43.764  14.427
28708W        W 1122  18.284  12.309  10.969
28709W        W 1123  22.209  40.011  12.848
28710W        W 1124   7.690  38.838  14.443
28711W        W 1125  31.096   5.319  14.991
28712W        W 1126  40.316  26.661  12.036
28713W        W 1127   7.388  40.349   4.334
28714W        W 1128  21.072   9.370  12.027
28715W        W 1129  27.598  17.152  12.983
28716W        W 1130  41.471  10.750  14.276
28717W        W 1131  39.023   2.843  10.947
28718W        W 1132  17.111   1.390   1.774
28719W        W 1133   2.809  39.968   3.179
28720W        W 1134   8.290  25.165   0.782
28721W        W 1135   5.267  18.199   3.304
28722W        W 1136  34.600  26.204   1.774
28723W        W 1137  32.029  20.142   4.293
28724W        W 1138  11.705  18.639  13.906
28725W        W 1139  12.117  28.115  11.914
28726W        W 1140  11.152  22.031  12.564
28727W        W 1141  27.949  14.291  10.154
28728W        W 1142  41.514  29.503   3.818
28729W        W 1143  23.068  32.408   0.376
28730W        W 1144  39.396   4.930  12.906
28731W        W 1145  35.501   3.423   0.802
28732W        W 1146  40.997  41.317  12.083
28733W        W 1147   1.961   5.253  12.523
28734W        W 1148  13.120  41.889  12.828
28735W        W 1149  28.484   8.263   1.832
28736W        W 1150  12.138  16.783   1.260
28737W        W 1151  16.166  36.022   2.866
28738W        W 1152  13.684  26.033   2.273
28739W        W 1153  27.580   8.222  13.312
28740W        W 1154  29.525   6.703  12.399
28741W        W 1155  11.358   8.775  13.859
28742W        W 1156  41.998  12.209  12.880
28743W        W 1157  42.318  43.002  12.881
28744W        W 1158  36.535   9.294  13.019
28745W        W 1159  20.677  16.621   1.285
28746W        W 1160   5.715  36.583   4.198
28747W        W 1161  15.230  10.674  10.460
28748W        W 1162  38.452  18.765  10.515
28749W        W 1163  26.544   2.770   2.784
28750W        W 1164  20.061  43.788   3.266
28751W        W 1165  17.740   9.676   1.426
28752W        W 1166  38.958  36.020   1.752
28753W        W 1167  30.032   2.307  13.414
28754W        W 1168   4.758   1.855  14.398
28755W        W 1169  36.462  21.046   2.747
28756W        W 1170  38.016  19.215   0.482
28757W        W 1171  40.383  27.992   3.207
28758W        W 1172  19.627   3.328  14.820
28759W        W 1173  35.036  24.610  13.546
28760W        W 1174  15.300  28.146   1.373
28761W        W 1175  39.904  12.677   1.881
28762W        W 1176   7.764  17.178  12.469
28763W        W 1177  44.886  12.314   2.709
28764W        W 1178  19.690  43.844  12.433
28765W        W 1179  11.750   2.855   3.768
28766W        W 1180  18.203  30.459   4.139
28767W        W 1181  32.904  34.469   3.329
28768W        W 1182   9.232   3.867   0.739
28769W        W 1183  24.633  44.993   1.789
28770W        W 1184  34.516  32.556   4.647
28771W        W 1185  26.476  10.691   0.746
28772W        W 1186  31.514  20.670  10.614
28773W        W 1187  36.927  41.951   1.284
28774W        W 1188  15.150  19.618  10.607
28775W        W 1189  16.765   3.320  12.551
28776W        W 1190  31.992   7.783  12.462
28777W        W 1191   3.821   8.315   1.738
28778W        W 1192  31.565   2.826   4.815
28779W        W 1193  17.631  14.220  14.349
28780W        W 1194  44.353  19.122  13.805
28781W        W 1195  42.337   7.236   4.344
28782W        W 1196  29.080   2.450   4.824
28783W        W 1197  31.997  34.489  14.813
28784W        W 1198   4.898  10.288  10.619
28785W        W 1199  18.156   0.977  13.860
28786W        W 1200  32.053   9.707   2.264
28787W        W 1201  37.918  27.948   4.283
28788W        W 1202  37.010  31.141  12.442
28789W        W 1203  26.063   3.338   0.927
28790W        W 1204  44.772  31.104  13.414
28791W        W 1205  12.772  25.572  14.456
28792W        W 1206  40.527   1.904  14.276
28793W        W 1207  29.447  22.206   3.269
28794W        W 1208  14.165  38.001   2.344
28795W        W 1209  21.649   1.737  10.475
28796W        W 1210   8.852  18.597  12.996
28797W        W 1211   3.829   3.949   3.179
28798W        W 1212   1.475  20.619  13.485
28799W        W 1213  28.598  33.077  11.905
28800W        W 1214  43.873  33.428   0.315
28801W        W 1215  25.490  40.410  10.541
28802W        W 1216  38.012  42.930   3.255
28803W        W 1217  16.689  13.601  11.899
28804W        W 1218  43.477  36.469   2.876
28805W        W 1219   2.293  34.535   1.331
28806W        W 1220  34.056   0.438   3.730
28807W        W 1221  27.156  42.415  10.888
28808W        W 1222  40.802  41.960  14.349
28809W        W 1223  35.525  34.373   3.243
28810W        W 1224   7.318  10.349   4.334
28811W        W 1225   9.301   5.690  14.364
28812W        W 1226  28.067   5.909  13.058
28813W        W 1227  44.502  35.479   0.244
28814W        W 1228  21.034  10.184  12.085
28815W        W 1229  14.252  42.485   1.357
28816W        W 1230  10.800  34.595   0.830
28817W        W 1231  19.610  27.049  12.409
28818W        W 1232   0.446   2.836   1.325
28819W        W 1233  33.979   5.232   3.170
28820W        W 1234  37.387  35.438  14.865
28821W        W 1235  29.119  38.378   3.323
28822W        W 1236  26.611  37.875  13.362
28823W        W 1237  44.815  42.512   0.435
28824W        W 1238  15.756  41.845  14.322
28825W        W 1239   7.276  43.964  11.980
28826W        W 1240  44.406   6.866  14.370
28827W        W 1241  29.574   7.724   2.804
28828W        W 1242  28.569  27.074  12.451
28829W        W 1243  27.503  34.984  13.417
28830W        W 1244  21.208  40.381   3.797
28831W        W 1245  35.000  18.766   1.783
28832W        W 1246  30.999  29.082   1.829
28833W        W 1247  10.346  19.780  10.026
28834W        W 1248  25.099  35.568   2.820
28835W        W 1249  36.513   1.409   1.862
28836W        W 1250  43.883   1.884   3.156
28837W        W 1251  26.478  27.943  11.418
28838W        W 1252  21.115  41.032   3.725
28839W        W 1253  40.911   2.368  10.428
28840W        W 1254   4.922  22.712   0.768
28841W        W 1255  36.475   4.754  12.430
28842W        W 1256  20.654  40.836  14.941
28843W        W 1257  17.765  42.380   0.905
28844W        W 1258   4.702  11.304   4.670
28845W        W 1259  26.966  16.789  14.895
28846W        W 1260   7.343  41.821   1.403
28847W        W 1261  28.499  33.486  11.405
28848W        W 1262  18.589  34.959  11.079
28849W        W 1263   8.848  31.013  10.529
28850W        W 1264  24.695  24.190  14.502
28851W        W 1265   4.787  43.490   2.876
28852W        W 1266   2.359   0.389   4.657
28853W        W 1267  27.197   7.251   2.684
28854W        W 1268  32.428  32.512  13.062
28855W        W 1269  42.027  34.530  13.996
28856W        W 1270  44.819   6.703   2.246
28857W        W 1271  24.557  37.527   1.270
28858W        W 1272  12.123  28.088   3.850
28859W        W 1273  35.061  26.464  12.832
28860W        W 1274  22.048  41.479   2.217
28861W        W 1275  44.803  13.716  10.573
28862W        W 1276  12.773  20.569   4.718
28863W        W 1277  16.219  43.789  11.407
28864W        W 1278  38.010  25.663  13.359
28865W        W 1279  15.816  23.151   3.206
28866W        W 1280  42.509   8.296  11.089
28867W        W 1281  24.605  21.743   3.835
28868W        W 1282  17.795  18.075  12.380
28869W        W 1283  36.346  19.704   2.407
28870W        W 1284   1.817  30.626  14.424
28871W        W 1285  18.259   0.764  14.382
28872W        W 1286   3.720  19.214   3.696
28873W        W 1287   4.252  42.914   4.326
28874W        W 1288  16.263  15.185  10.583
28875W        W 1289  25.655  44.343   3.844
28876W        W 1290  18.744  18.611   0.447
28877W        W 1291  21.051  12.780  12.063
28878W        W 1292  17.100  36.515  12.508
28879W        W 1293  26.580  30.564   3.697
28880W        W 1294  13.318  34.900  13.833
28881W        W 1295  17.764  36.387  11.532
28882W        W 1296  36.486  24.508  13.356
28883W        W 1297  35.055   1.831  14.973
28884W        W 1298  20.703  37.969   2.185
28885W        W 1299  44.378  27.064  10.408
28886W        W 1300  40.483   4.784  11.063
28887W        W 1301  27.189  35.580   4.175
28888W        W 1302  35.867  24.089  13.938
28889W        W 1303  37.985   2.748   1.931
28890W        W 1304  38.951   8.337   1.440
28891W        W 1305  16.145  15.657  12.415
28892W        W 1306  29.004   7.232   0.931
28893W        W 1307  15.790  44.973   1.279
28894W        W 1308  31.947  38.445  13.874
28895W        W 1309  37.356  11.850   2.865
28896W        W 1310  24.590  28.003  13.952
28897W        W 1311  17.204   4.379  10.957
28898W        W 1312  12.820  33.955   2.860
28899W        W 1313  16.254   0.454   0.953
28900W        W 1314   4.273  10.758   0.736
28901W        W 1315   4.796  15.601  11.091
28902W        W 1316   7.272  41.839  12.937
28903W        W 1317  27.953   9.376   4.152
28904W        W 1318  20.042   8.804  11.956
28905W        W 1319  42.346  20.156  13.958
28906W        W 1320  41.964  31.516  13.926
28907W        W 1321   8.833  42.884  12.853
28908W        W 1322  42.852  24.688  13.800
28909W        W 1323  21.027  30.468  10.497
28910W        W 1324  19.567  23.012  14.021
28911W        W 1325   1.355  32.419   1.267
28912W        W 1326  17.185  38.868   1.350
28913W        W 1327  25.621  36.557  13.308
28914W        W 1328  33.934  35.017   3.341
28915W        W 1329  20.194  32.507  12.378
28916W        W 1330  32.939  15.110  13.809
28917W        W 1331  44.973  36.544  14.925
28918W        W 1332  24.066   8.293   0.302
28919W        W 1333  38.994  10.316   5.112
28920W        W 1334   4.352  20.210  10.957
28921W        W 1335  14.241  34.043  10.495
28922W        W 1336  20.560   7.826   2.784
28923W        W 1337  42.502   1.447  13.343
28924W        W 1338   5.851  19.538   3.319
28925W        W 1339   1.397  30.491  14.306
28926W        W 1340   0.917  40.311   2.311
28927W        W 1341   9.718  33.928  10.559
28928W        W 1342  19.277   0.765   5.198
28929W        W 1343  16.573  21.741   2.869
28930W        W 1344   4.743  31.435  14.512
28931W        W 1345  44.886  40.033  12.847
28932W        W 1346   6.255  18.565   2.874
28933W        W 1347  26.990  15.211   4.696
28934W        W 1348  33.550   8.283  14.414
28935W        W 1349  27.044  15.124  11.540
28936W        W 1350  40.422  10.293   1.778
28937W        W 1351  21.544   5.890  13.391
28938W        W 1352  24.599   2.387   0.304
28939W        W 1353  25.121   5.197   3.702
28940W        W 1354  29.536  38.855   1.373
28941W        W 1355   2.822   3.921   4.290
28942W        W 1356  17.799  42.320   2.680
28943W        W 1357  11.819  25.504   3.762
28944W        W 1358  24.650  11.810   4.740
28945W        W 1359  33.465  40.475   1.251
28946W        W 1360  14.311   5.243   3.642
28947W        W 1361  38.550   6.191   0.341
28948W        W 1362  38.052  27.958   0.276
28949W        W 1363  12.276  25.212   4.628
28950W        W 1364  31.481  17.783   1.733
28951W        W 1365  38.870  10.746   9.950
28952W        W 1366  23.663   8.180   2.859
28953W        W 1367  14.273  36.090  14.910
28954W        W 1368  33.127  11.310   1.771
28955W        W 1369   0.850  32.118   4.209
28956W        W 1370  35.907  24.138  11.925
28957W        W 1371  23.505  17.691   5.225
28958W        W 1372   5.782  32.009   1.739
28959W        W 1373  23.517  19.735  11.927
28960W        W 1374  15.637  21.069  11.030
28961W        W 1375  27.638  25.535  10.935
28962W        W 1376  40.364  27.589  10.460
28963W        W 1377  14.143  30.111   4.736
28964W        W 1378  15.659  32.953  11.083
28965W        W 1379   6.418  39.915  12.845
28966W        W 1380  34.585  43.988  13.891
28967W        W 1381   5.204   8.292   4.138
28968W        W 1382  44.995  24.719  11.424
28969W        W 1383  13.160   8.693   0.897
28970W        W 1384   3.818   2.728  10.980
28971W        W 1385   6.237   0.788  11.956
28972W        W 1386  44.434  41.440   5.316
28973W        W 1387  35.456  12.219  13.461
28974W        W 1388  31.483  19.156  12.576
28975W        W 1389  32.445  24.224  14.934
28976W        W 1390  21.713  27.445   3.719
28977W        W 1391  36.388  13.616   4.684
28978W        W 1392   3.225  40.493   3.309
28979W        W 1393  40.335  15.694   1.896
28980W        W 1394  29.442  23.166   2.224
28981W        W 1395  31.604  40.396  12.483
28982W        W 1396   9.210   8.255   4.637
28983W        W 1397  33.944  24.111   1.393
28984W        W 1398   3.325  27.185   2.684
28985W        W 1399  34.425  37.399   4.151
28986W        W 1400  41.444  18.214  13.401
28987W        W 1401  34.591  12.634  13.031
28988W        W 1402  40.829  27.541  14.383
28989W        W 1403   3.282  25.033   3.263
28990W        W 1404   7.363  27.999   3.733
28991W        W 1405  39.485  23.659   0.939
28992W        W 1406   8.867  22.595   1.743
28993W        W 1407  21.591  27.632   3.249
28994W        W 1408   4.274  22.161   1.361
28995W        W 1409   7.340   9.296   1.909
28996W        W 1410  12.851   7.905  12.426
28997W        W 1411  18.110   5.863  10.584
28998W        W 1412  41.952   5.741   1.785
28999W        W 1413   2.270   7.840  14.426
29000W        W 1414  15.713  12.158  13.813
29001W        W 1415  44.814  29.004  14.775
29002W        W 1416  38.897   7.329   5.155
29003W        W 1417  37.340  18.716   1.402
29004W        W 1418  17.789  21.261   1.420
29005W        W 1419   7.678  10.139  11.877
29006W        W 1420  24.984   3.390   4.152
29007W        W 1421   4.922  27.490   9.525
29008W        W 1422  40.442  31.483   0.944
29009W        W 1423  25.569  36.892  14.852
29010W        W 1424  24.515  19.266   5.203
29011W        W 1425  14.736  32.476   1.320
29012W        W 1426  18.242  18.121   0.962
29013W        W 1427  17.706  22.576  13.347
29014W        W 1428  24.186  43.792   4.345
29015W        W 1429  40.846   3.451   3.275
29016W        W 1430  20.083  39.373   0.733
29017W        W 1431   2.812  29.592  12.937
29018W        W 1432  26.961  26.535  12.907
29019W        W 1433  13.160   2.316   1.893
29020W        W 1434  23.529  40.514   0.907
29021W        W 1435  41.837   4.728   5.291
29022W        W 1436  12.129  35.583  13.363
29023W        W 1437  41.896  30.118  13.966
29024W        W 1438  35.040  22.182   1.736
29025W        W 1439   9.186  31.468  11.415
29026W        W 1440  34.994  35.929  13.483
29027W        W 1441  25.604  16.738  13.913
29028W        W 1442  29.106  37.928   1.881
29029W        W 1443  41.518  39.015   0.477
29030W        W 1444  35.853  32.957   3.363
29031W        W 1445   7.342  32.976  14.476
29032W        W 1446   2.438  43.480  13.368
29033W        W 1447  26.070  13.165   3.820
29034W        W 1448  36.421  35.494  14.930
29035W        W 1449  29.017   2.778   3.801
29036W        W 1450  27.611   6.864  11.044
29037W        W 1451   2.740  10.664  11.876
29038W        W 1452  23.123   0.276   2.342
29039W        W 1453  18.606  11.865   1.793
29040W        W 1454  17.619  17.754  12.457
29041W        W 1455  25.132  40.831  11.523
29042W        W 1456  13.261  11.647  12.544
29043W        W 1457  18.632  33.580   4.701
29044W        W 1458  44.368  19.118  11.113
29045W        W 1459  31.590  22.009  14.298
29046W        W 1460  18.079   4.450  10.404
29047W        W 1461  39.390  12.735   3.721
29048W        W 1462  44.892  31.438  13.518
29049W        W 1463  27.974   0.861   5.258
29050W        W 1464  22.151   3.895  10.449
29051W        W 1465  19.090  34.429  13.500
29052W        W 1466  13.125  20.767  14.375
29053W        W 1467   5.695  32.039   2.823
29054W        W 1468  41.385  19.647   1.722
29055W        W 1469  13.345   2.340   4.604
29056W        W 1470  13.625   3.221  11.936
29057W        W 1471  22.163  28.471   4.219
29058W        W 1472  25.498  39.438   1.332
29059W        W 1473  22.738  25.655  12.517
29060W        W 1474  21.032   3.276  11.083
29061W        W 1475  41.788  26.504   4.350
29062W        W 1476  24.177  24.987   1.737
29063W        W 1477  13.142   5.426  12.423
29064W        W 1478  18.244  13.243   3.356
29065W        W 1479   3.351  32.018   1.364
29066W        W 1480  22.508  11.331   3.725
29067W        W 1481  11.351  20.701  14.954
29068W        W 1482  42.011  10.149   4.620
29069W        W 1483  44.941  10.678   1.775
29070W        W 1484  33.993  32.625  13.325
29071W        W 1485  36.988  17.100  14.914
29072W        W 1486  25.014  40.886   3.658
29073W        W 1487  26.548   7.831  14.311
29074W        W 1488   9.873  35.010  11.893
29075W        W 1489  21.261  30.926  11.125
29076W        W 1490  29.138  15.161   0.253
29077W        W 1491   1.441  31.571   3.822
29078W        W 1492  12.183  37.942  13.332
29079W        W 1493   6.852   4.742  11.601
29080W        W 1494   0.907  38.829  13.791
29081W        W 1495  35.104  38.454  13.458
29082W        W 1496  34.090  19.193   0.407
29083W        W 1497   5.437  25.178   1.383
29084W        W 1498   9.696  42.952  14.975
29085W        W 1499  16.589  34.986   4.746
29086W        W 1500  27.567  28.504   2.761
29087W        W 1501  17.061   8.198   1.906
29088W        W 1502   0.387  11.731   1.280
29089W        W 1503  30.041  22.605  14.863
29090W        W 1504  10.782  13.123  14.979
29091W        W 1505  42.318  33.451  14.874
29092W        W 1506  11.645  33.529   4.186
29093W        W 1507  21.128  14.140  12.466
29094W        W 1508  12.243  29.532   2.719
29095W        W 1509  33.964  22.176  13.962
29096W        W 1510  35.994  41.512   2.306
29097W        W 1511  37.429   3.743   3.201
29098W        W 1512  28.451  22.091  12.432
29099W        W 1513  20.191  43.405  11.467
29100W        W 1514  24.671  14.738   2.736
29101W        W 1515  43.923  29.500  11.950
29102W        W 1516  32.489   0.873  12.416
29103W        W 1517  34.568   7.825  13.509
29104W        W 1518  36.876  39.460  12.431
29105W        W 1519  22.575  24.616   4.127
29106W        W 1520  36.364  20.089  12.859
29107W        W 1521   9.818  41.852   4.172
29108W        W 1522  29.141  32.997  11.544
29109W        W 1523  38.431   0.813   4.130
29110W        W 1524  11.779  19.154   3.745
29111W        W 1525  17.204  43.435   1.850
29112W        W 1526  27.964   0.948   4.329
29113W        W 1527  23.616  21.239   0.758
29114W        W 1528  40.947   3.437  12.420
29115W        W 1529   9.296  30.976   2.664
29116W        W 1530  26.554   9.263  11.444
29117W        W 1531  12.628  22.679  13.038
29118W        W 1532  28.448   3.927  11.871
29119W        W 1533  25.573   0.843  12.488
29120W        W 1534  38.835  11.315   2.797
29121W        W 1535  11.727   9.814   1.904
29122W        W 1536   4.807   5.890  14.792
29123W        W 1537  38.449  34.946   1.804
29124W        W 1538  15.315  42.833   2.290
29125W        W 1539  44.004  34.088  13.909
29126W        W 1540  17.619   8.686   0.838
29127W        W 1541  44.302  43.833  14.407
29128W        W 1542  31.079  32.400  14.373
29129W        W 1543   7.729  22.533   0.876
29130W        W 1544   4.750  27.031  11.907
29131W        W 1545  30.446  24.091  11.573
29132W        W 1546  23.126  14.270  10.613
29133W        W 1547  40.419  41.428   4.279
29134W        W 1548  41.842   2.429   3.333
29135W        W 1549  25.008   4.836   2.879
29136W        W 1550  27.530  35.000  13.059
29137W        W 1551  35.429   5.809  11.865
29138W        W 1552  33.470  17.126   0.891
29139W        W 1553  37.351   4.731  10.509
29140W        W 1554   3.309  19.712  13.474
29141W        W 1555  14.117  28.091   5.260
29142W        W 1556  24.006  16.633   4.781
29143W        W 1557  13.169  21.244  11.589
29144W        W 1558  44.320  35.576  13.015
29145W        W 1559  33.110  20.528  11.567
29146W        W 1560  33.943  40.007  13.953
29147W        W 1561  21.713  39.961  14.974
29148W        W 1562   5.925  30.020   3.649
29149W        W 1563  10.350  31.528  13.811
29150W        W 1564   0.786  39.317  12.924
29151W        W 1565  12.268   7.242   4.678
29152W        W 1566  11.226  20.543  12.574
29153W        W 1567  37.052  40.353   3.722
29154W        W 1568  27.605  26.635  13.062
29155W        W 1569  15.288  17.651   0.432
29156W        W 1570  38.503  22.578   0.766
29157W        W 1571  16.625  36.383  10.489
29158W        W 1572  29.971   6.868   2.788
29159W        W 1573  28.534  25.530  12.879
29160W        W 1574  42.331   5.831  13.830
29161W        W 1575  41.877   9.253   1.756
29162W        W 1576   6.288   2.242  10.953
29163W        W 1577  34.428  23.621   3.338
29164W        W 1578  16.155  34.395  14.439
29165W        W 1579   9.862  11.838   3.354
29166W        W 1580   3.825  28.662   2.776
29167W        W 1581  34.905  14.726  11.870
29168W        W 1582   2.313  44.381  10.412
29169W        W 1583  34.086   6.887  12.995
29170W        W 1584  32.576   4.436  14.453
29171W        W 1585  20.138  39.815   2.670
29172W        W 1586  19.066  16.217   0.299
29173W        W 1587  19.060  40.920  14.845
29174W        W 1588  30.156  41.835   0.337
29175W        W 1589  29.627  39.487   2.357
29176W        W 1590   4.403   8.768   2.688
29177W        W 1591  19.668   0.444  11.496
29178W        W 1592  14.746  22.105  14.950
29179W        W 1593  41.522  38.363  12.476
29180W        W 1594  24.607  18.179   0.854
29181W        W 1595  37.565  34.120  10.104
29182W        W 1596  23.132   2.874  11.964
29183W        W 1597  28.656   6.310   2.747
29184W        W 1598   8.327  38.412  11.981
29185W        W 1599  41.897  20.031   0.964
29186W        W 1600  30.997  27.518  13.890
29187W        W 1601  40.917   4.268   3.645
29188W        W 1602  10.287  37.447   5.191
29189W        W 1603   1.275  25.125   3.669
29190W        W 1604  44.499  17.576   2.903
29191W        W 1605  23.525  32.889  14.401
29192W        W 1606  18.730   2.238  12.957
29193W        W 1607  41.961  11.328  12.577
29194W        W 1608  27.009   6.851  13.899
29195W        W 1609  12.298  18.625  14.337
29196W        W 1610  12.674  24.612   1.847
29197W        W 1611   9.204  23.564   3.261
29198W        W 1612   7.300  25.076  11.009
29199W        W 1613   2.913  15.157  12.883
29200W        W 1614  17.080  42.470   2.202
29201W        W 1615   0.441   8.662   0.380
29202W        W 1616  40.914   1.871   4.726
29203W        W 1617   2.327  17.682   0.250
29204W        W 1618  36.032   7.702  12.516
29205W        W 1619  37.517  10.218  11.955
29206W        W 1620  24.067   3.318   1.854
29207W        W 1621   0.794  25.025  11.028
29208W        W 1622  38.925  30.080  13.827
29209W        W 1623  40.314  29.434  13.317
29210W        W 1624   0.334  28.127   3.731
29211W        W 1625  41.000   7.367   0.361
29212W        W 1626  25.683  40.945   0.802
29213W        W 1627  19.137  43.438  12.987
29214W        W 1628  10.638  19.643  14.351
29215W        W 1629  33.120  18.761   2.349
29216W        W 1630  42.995  30.447  12.848
29217W        W 1631  37.995  28.641  14.907
29218W        W 1632  38.068   5.410   3.748
29219W        W 1633  38.892   0.433   3.253
29220W        W 1634  33.894  31.943  11.484
29221W        W 1635  27.530  26.166   1.705
29222W        W 1636  41.909  33.525   0.765
29223W        W 1637   4.267   5.438  10.463
29224W        W 1638   8.712   5.395  14.314
29225W        W 1639  44.844  10.141  13.329
29226W        W 1640  38.927  40.537   3.791
29227W        W 1641   7.289  40.361  10.958
29228W        W 1642  23.507   2.330  11.534
29229W        W 1643  44.897  18.128   5.271
29230W        W 1644   9.683  38.876   4.726
29231W        W 1645  15.697  44.299  11.075
29232W        W 1646  31.593  33.031   4.349
29233W        W 1647  36.987  27.646   2.662
29234W        W 1648   8.836  13.771  14.374
29235W        W 1649  34.395   0.494  12.976
29236W        W 1650  27.561  15.199   1.727
29237W        W 1651  22.551  22.555   2.393
29238W        W 1652  37.460   9.307  10.472
29239W        W 1653  12.841  21.228  13.036
29240W        W 1654  11.666  36.573   2.776
29241W        W 1655  26.951   7.809   0.865
29242W        W 1656   9.850  31.082   1.421
29243W        W 1657   6.916  43.335  14.353
29244W        W 1658  26.116   3.770  10.532
29245W        W 1659  33.053  30.444  13.970
29246W        W 1660  41.831   7.308   2.359
29247W        W 1661  36.921  33.971  13.445
29248W        W 1662  18.585   2.724  13.891
29249W        W 1663  40.895  27.614   2.264
29250W        W 1664   5.720  26.591  12.435
29251W        W 1665  10.725  18.648  14.387
29252W        W 1666  17.612   2.270  13.323
29253W        W 1667  30.581  29.091   0.369
29254W        W 1668  35.598  22.250   0.910
29255W        W 1669  43.421  44.967  14.963
29256W        W 1670  17.302  25.131   2.291
29257W        W 1671   6.709  33.006  13.976
29258W        W 1672   0.943  32.006   1.732
29259W        W 1673  27.024  43.490  12.498
29260W        W 1674  11.287  22.111  11.044
29261W        W 1675  21.127  17.741  12.834
29262W        W 1676  18.617  41.837   1.372
29263W        W 1677  29.636   6.354   4.690
29264W        W 1678  13.720  41.297  12.468
29265W        W 1679   6.223  20.760  11.921
29266W        W 1680  38.827  15.197   2.682
29267W        W 1681  24.053  13.834  12.385
29268W        W 1682  42.793  30.588  14.953
29269W        W 1683  39.314   2.824   3.781
29270W        W 1684  29.073  35.444  11.047
29271W        W 1685   4.351  42.816   0.263
29272W        W 1686  22.108  40.414   4.269
29273W        W 1687   6.905  26.180   3.254
29274W        W 1688  10.665  15.757   3.719
29275W        W 1689   2.801  29.558  13.859
29276W        W 1690   6.899  32.573   1.908
29277W        W 1691  15.818  35.953  10.427
29278W        W 1692  20.246  28.542  13.851
29279W        W 1693  12.185   1.341   2.892
29280W        W 1694  21.635  21.558  14.887
29281W        W 1695  20.700  41.963  12.513
29282W        W 1696  19.284  36.084  12.370
29283W        W 1697  26.137  11.804   1.867
29284W        W 1698  10.792  40.006   3.645
29285W        W 1699  26.001  25.672   1.369
29286W        W 1700   0.873  14.705  14.788
29287W        W 1701  39.853   7.355   2.354
29288W        W 1702  13.616  20.549  11.948
29289W        W 1703  17.712  35.381  13.311
29290W        W 1704  39.425  41.909  12.551
29291W        W 1705  42.299  24.076   0.447
29292W        W 1706  23.019  36.581   1.712
29293W        W 1707  21.030  44.349   0.918
29294W        W 1708  13.218   2.966   0.264
29295W        W 1709  35.901  35.047  10.125
29296W        W 1710  39.455  14.771   2.718
29297W        W 1711  42.792  10.349  12.924
29298W        W 1712  24.995  19.228  10.978
29299W        W 1713  37.873  26.046  11.877
29300W        W 1714  35.885  17.616   0.396
29301W        W 1715  41.908  15.175  13.320
29302W        W 1716  11.330  33.020  14.996
29303W        W 1717  40.812  12.231  12.850
29304W        W 1718  41.858  28.982  12.993
29305W        W 1719  25.119  39.985   0.735
29306W        W 1720  23.170  12.264  14.030
29307W        W 1721  18.628   2.897   2.296
29308W        W 1722   2.922  42.513  12.523
29309W        W 1723  37.053   0.885   3.305
29310W        W 1724  16.240   7.877  10.105
29311W        W 1725  42.473  36.531   0.775
29312W        W 1726   0.849   5.714  11.955
29313W        W 1727  34.521  43.407  14.277
29314W        W 1728  41.351  13.746   0.816
29315W        W 1729  20.032  41.824  14.866
29316W        W 1730  43.404  18.106   1.449
29317W        W 1731  37.450  18.054   3.176
29318W        W 1732  33.090  22.100  14.334
29319W        W 1733  10.816   8.320  10.474
29320W        W 1734   5.820  35.077   2.329
29321W        W 1735  19.707   8.209   3.678
29322W        W 1736  38.875  11.349   4.322
29323W        W 1737  10.297  20.733   0.802
29324W        W 1738   0.479  29.470   0.755
29325W        W 1739  34.422  37.888   1.394
29326W        W 1740  16.625  21.539  14.313
29327W        W 1741  31.122  33.564  11.385
29328W        W 1742  17.688  39.441  11.076
29329W        W 1743  25.638  18.689   1.716
29330W        W 1744  14.274  43.779   4.202
29331W        W 1745  15.293  18.623  14.277
29332W        W 1746  30.960  34.041   4.174
29333W        W 1747  28.055  27.959  14.443
29334W        W 1748  40.343  39.326   0.843
29335W        W 1749  19.185  19.584   4.204
29336W        W 1750  23.016   4.902  14.407
29337W        W 1751  20.617  33.565  10.591
29338W        W 1752   3.887   2.940   2.413
29339W        W 1753   6.395  17.756  14.761
29340W        W 1754  39.542  15.645  10.110
29341W        W 1755  14.125   3.340  14.338
29342W        W 1756   3.317  36.844  11.064
29343W        W 1757  30.951   5.907  12.909
29344W        W 1758  35.922   8.660   1.356
29345W        W 1759  37.362  19.191   3.271
29346W        W 1760  26.979   0.923   0.939
29347W        W 1761  31.974  25.992   1.249
29348W        W 1762  15.305  16.264  11.884
29349W        W 1763  15.187  20.745   0.361
29350W        W 1764  14.665  20.235   1.842
29351W        W 1765  15.301  27.621  12.907
29352W        W 1766  19.281  36.069  10.942
29353W        W 1767  31.011   3.283   4.270
29354W        W 1768   6.192  35.564  12.444
29355W        W 1769  35.074   4.248   2.274
29356W        W 1770  38.856  26.489   5.161
29357W        W 1771  27.632  28.943   3.779
29358W        W 1772  23.531   4.772  12.492
29359W        W 1773  19.764  16.700   0.846
29360W        W 1774  24.632  37.070   4.276
29361W        W 1775  26.457  20.570  14.963
29362W        W 1776  21.038  36.940   1.281
29363W        W 1777   1.736  36.975  13.521
29364W        W 1778  38.966  33.043  14.962
29365W        W 1779  44.450   4.392   3.336
29366W        W 1780  29.032  21.141   4.804
29367W        W 1781  38.826  14.233   4.836
29368W        W 1782  28.057  44.980  14.444
29369W        W 1783   4.217  21.048   2.749
29370W        W 1784  44.498  36.391  12.342
29371W        W 1785  10.297   1.440  12.037
29372W        W 1786   8.824  41.495   3.208
29373W        W 1787  23.733  36.461  10.566
29374W        W 1788   4.833   5.331  10.619
29375W        W 1789  32.049  18.125   0.428
29376W        W 1790  10.638  41.336  12.965
29377W        W 1791  34.047  43.832  13.915
29378W        W 1792  39.836  29.646  14.910
29379W        W 1793  31.970  23.101   0.376
29380W        W 1794  39.861   1.318  14.974
29381W        W 1795  11.793  30.584  11.070
29382W        W 1796  21.633  14.612  12.462
29383W        W 1797  37.918  14.706   4.652
29384W        W 1798  17.110   4.742   4.790
29385W        W 1799  22.734  21.550   4.659
29386W        W 1800  26.537  33.896  10.930
29387W        W 1801  35.472  12.298   4.146
29388W        W 1802  25.976  19.101  11.494
29389W        W 1803   1.935   9.383  12.074
29390W        W 1804  24.125   0.931  13.386
29391W        W 1805   4.879  38.445  10.565
29392W        W 1806  42.524  40.319   1.410
29393W        W 1807  32.046  31.904   2.312
29394W        W 1808  28.555  26.135   1.367
29395W        W 1809  29.971   1.450  11.928
29396W        W 1810  21.531  13.233   2.764
29397W        W 1811   9.158  12.764  13.041
29398W        W 1812  30.441   1.407  13.930
29399W        W 1813  11.663  34.532   4.257
29400W        W 1814  26.106  10.657  13.468
29401W        W 1815  29.607  18.567  12.972
29402W        W 1816  36.081   4.792  13.020
29403W        W 1817  37.035  15.766   2.266
29404W        W 1818  23.123  24.620   0.899
29405W        W 1819  43.363  27.477  10.918
29406W        W 1820  32.889  21.750   3.332
29407W        W 1821   4.875   2.285  13.399
29408W        W 1822  33.902  11.243  11.427
29409W        W 1823  28.588  19.107   4.129
29410W        W 1824  39.326  41.378  14.314
29411W        W 1825   6.294  20.644   4.345
29412W        W 1826  30.926  10.829   4.338
29413W        W 1827  25.704  27.569  11.447
29414W        W 1828  11.787  41.471  14.880
29415W        W 1829   4.778  23.535  10.484
29416W        W 1830  38.514  29.522  13.425
29417W        W 1831  42.492  23.542  11.499
29418W        W 1832  25.501  38.998   2.709
29419W        W 1833   1.743  43.412  11.573
29420W        W 1834   1.907   1.899   2.328
29421W        W 1835  26.568  17.588   2.893
29422W        W 1836  27.035  33.542  13.541
29423W        W 1837  34.601  40.946   1.736
29424W        W 1838  16.256  21.098   4.805
29425W        W 1839   0.291  13.634  14.930
29426W        W 1840  14.156  40.020   3.694
29427W        W 1841  33.075  41.919  11.060
29428W        W 1842   8.179  42.901  11.962
29429W        W 1843  37.527   9.745   0.838
29430W        W 1844  20.272  16.623  13.529
29431W        W 1845  18.275  17.230  12.495
29432W        W 1846  17.099  29.124   0.798
29433W        W 1847  26.553  15.188  14.467
29434W        W 1848  15.824   1.916  12.507
29435W        W 1849  24.615  32.580   1.242
29436W        W 1850  42.382  37.959  11.039
29437W        W 1851   0.370   3.383  11.126
29438W        W 1852  30.939   8.864   0.757
29439W        W 1853   5.265   2.787   2.834
29440W        W 1854  13.106  44.485   0.309
29441W        W 1855  41.819  11.851   4.826
29442W        W 1856  42.527  16.646  11.490
29443W        W 1857  23.569  12.202  11.112
29444W        W 1858   3.780  26.528  11.408
29445W        W 1859  30.926   2.728  14.901
29446W        W 1860  37.412  19.714  14.319
29447W        W 1861  13.636  23.664  13.057
29448W        W 1862  30.075  35.960   4.682
29449W        W 1863  27.067  43.003  10.054
29450W        W 1864  36.029  17.589  12.570
29451W        W 1865  37.839  39.500   0.432
29452W        W 1866  43.995   4.808   4.672
29453W        W 1867  12.305   7.815   2.671
29454W        W 1868   8.216  23.169   2.790
29455W        W 1869  24.563  42.373   4.138
29456W        W 1870  34.078  19.731  13.803
29457W        W 1871  31.112  10.235  11.946
29458W        W 1872  24.628  41.837  12.940
29459W        W 1873  37.891  29.954   3.742
29460W        W 1874   8.709  12.347  12.066
29461W        W 1875   0.434   5.299   2.770
29462W        W 1876  44.464  20.686  12.378
29463W        W 1877  15.192  32.039   2.261
29464W        W 1878  27.084   7.829  10.984
29465W        W 1879  41.814  41.807   2.295
29466W        W 1880  20.135  14.242   3.728
29467W        W 1881   1.943   2.337  14.025
29468W        W 1882   3.239   1.430  13.935
29469W        W 1883  41.468  33.908  11.978
29470W        W 1884  36.010  39.540   0.313
29471W        W 1885  32.028  27.942  10.415
29472W        W 1886  16.782  35.403  13.417
29473W        W 1887  35.474  34.434  10.151
29474W        W 1888   1.365  19.637   4.318
29475W        W 1889  14.603  23.028   3.737
29476W        W 1890  36.915  18.699   3.356
29477W        W 1891   9.752  39.373  14.492
29478W        W 1892  28.180   6.686  10.554
29479W        W 1893  40.419  26.986  12.482
29480W        W 1894   3.750  27.582   5.263
29481W        W 1895  27.112  14.283  13.342
29482W        W 1896  40.008  44.870  14.313
29483W        W 1897  44.433  44.360  14.845
29484W        W 1898  39.340  32.098  14.421
29485W        W 1899  10.672   5.719  13.386
29486W        W 1900  29.024  11.307   4.177
29487W        W 1901  33.499  33.083   1.289
29488W        W 1902   1.360  27.594  12.453
29489W        W 1903  41.032   3.453   2.259
29490W        W 1904  13.105   4.377   0.444
29491W        W 1905  17.069   7.242   3.687
29492W        W 1906  40.934  29.618   3.699
29493W        W 1907  14.799  22.729  10.133
29494W        W 1908   4.746  26.587  11.980
29495W        W 1909  11.865   4.766  11.441
29496W        W 1910  25.035  26.480  14.904
29497W        W 1911  33.415  21.039  12.971
29498W        W 1912   5.789  32.970   4.169
29499W        W 1913  22.214  23.173   3.716
29500W        W 1914  12.182   4.824  12.356
29501W        W 1915  22.676  24.044   9.975
29502W        W 1916   5.914  10.859   3.270
29503W        W 1917  44.916   6.892  10.451
29504W        W 1918  10.704  27.563  12.504
29505W        W 1919  34.910  23.108   2.343
29506W        W 1920  31.465  17.580   2.200
29507W        W 1921  24.685  20.533  13.820
29508W        W 1922   9.214  26.673   1.367
29509W        W 1923  28.472  13.796   3.642
29510W        W 1924   4.945  14.743   2.893
29511W        W 1925  42.028  40.324   3.799
29512W        W 1926  28.458  21.716   4.190
29513W        W 1927  12.625  15.124   4.810
29514W        W 1928   0.815   6.298  14.027
29515W        W 1929  13.814  16.115  14.357
29516W        W 1930  23.135  42.789   2.899
29517W        W 1931  36.852  18.574  12.984
29518W        W 1932  13.166  11.852   9.992
29519W        W 1933  16.130  19.542  10.641
29520W        W 1934  13.803  19.222  13.363
29521W        W 1935  32.935  21.085  10.507
29522W        W 1936  17.105   9.689  14.820
29523W        W 1937  10.346  26.501   3.843
29524W        W 1938  21.038  19.636   2.704
29525W        W 1939  24.531  43.766   5.619
29526W        W 1940   1.814  19.597   2.328
29527W        W 1941  30.947  30.635   3.629
29528W        W 1942  11.806  27.093  13.822
29529W        W 1943  39.316  12.194   3.310
29530W        W 1944  16.168  17.207   3.305
29531W        W 1945  19.683   8.314  14.773
29532W        W 1946  15.609   3.366  14.514
29533W        W 1947  38.888  17.598  13.819
29534W        W 1948  40.344  36.526  11.099
29535W        W 1949   4.430  14.232   0.304
29536W        W 1950  11.152  30.147  13.889
29537W        W 1951  36.954   0.984  12.978
29538W        W 1952  39.440  32.975  13.522
29539W        W 1953  16.568  34.003   4.134
29540W        W 1954  35.042  28.951   2.747
29541W        W 1955  15.295   2.392  14.012
29542W        W 1956  33.476  15.592   1.899
29543W        W 1957  15.639  19.051  11.376
29544W        W 1958   7.311  35.106   3.250
29545W        W 1959  24.708  24.539  10.425
29546W        W 1960   5.749   8.177   4.340
29547W        W 1961  25.105  11.719  13.411
29548W        W 1962  33.965  18.749  10.552
29549W        W 1963  32.988  11.181  12.373
29550W        W 1964   2.401  41.934   9.456
29551W        W 1965  39.830  18.107   2.736
29552W        W 1966  15.798  26.155   2.256
29553W        W 1967  17.106  12.189  14.913
29554W        W 1968  43.019  38.885  11.579
29555W        W 1969  29.943  13.653  12.066
29556W        W 1970  21.091  40.530   2.856
29557W        W 1971   5.693  29.083  14.780
29558W        W 1972  20.718  24.692  13.340
29559W        W 1973  33.481  11.196  12.899
29560W        W 1974   0.855  28.525  13.857
29561W        W 1975  18.070   2.449   1.934
29562W        W 1976  26.001  30.060  14.428
29563W        W 1977  37.431   0.748  10.498
29564W        W 1978  43.971  16.759  14.374
29565W        W 1979  30.627  26.521   2.835
29566W        W 1980  18.285  25.498  13.016
29567W        W 1981  26.675  29.586   3.214
29568W        W 1982   3.277  14.138   4.637
29569W        W 1983  35.477  22.736   0.758
29570W        W 1984  15.304   5.396  13.538
29571W        W 1985  14.620  22.698  12.390
29572W        W 1986  27.110  44.806   2.813
29573W        W 1987  38.946  14.220  12.559
29574W        W 1988  44.468  26.492   1.705
29575W        W 1989  17.783  31.424  13.420
29576W        W 1990   2.313   0.494  14.999
29577W        W 1991  28.036  40.435  13.359
29578W        W 1992  26.198  21.727  11.373
29579W        W 1993   8.686  36.894  11.378
29580W        W 1994  19.730  33.541  10.537
29581W        W 1995   5.720  23.032   2.738
29582W        W 1996  30.486  25.574  14.973
29583W        W 1997  18.619  19.078   2.838
29584W        W 1998   3.872  17.240  11.380
29585W        W 1999  31.639  42.024   2.374
29586W        W 2000  20.194  28.018  14.457
29587W        W 2001  44.397  19.585  10.937
29588W        W 2002   4.240  23.650   4.229
29589W        W 2003  34.034  14.143   4.626
29590W        W 2004   8.283  36.557  11.055
29591W        W 2005   6.809  14.616   9.498
29592W        W 2006  44.936  22.034  13.396
29593W        W 2007  34.466  24.034   4.655
29594W        W 2008   8.174  34.492   4.838
29595W        W 2009  30.415  33.620   0.258
29596W        W 2010  34.870  20.550  13.494
29597W        W 2011   1.962  44.865   4.823
29598W        W 2012  11.334  29.066  14.874
29599W        W 2013  20.550  39.827   0.920
29600W        W 2014   6.858  31.068   2.288
29601W        W 2015  21.571   3.265  11.125
29602W        W 2016  24.185  32.579   4.821
29603W        W 2017  29.593   9.644   2.895
29604W        W 2018  32.935  35.453   1.261
29605W        W 2019   6.287  12.813   2.306
29606W        W 2020  41.336  43.978   4.814
29607W        W 2021  26.099  21.209  14.480
29608W        W 2022  43.337  11.187  14.468
29609W        W 2023  38.461  30.040  12.932
29610W        W 2024  31.543  34.058   2.370
29611W        W 2025  37.056  44.391   3.202
29612W        W 2026  33.425  35.438   1.233
29613W        W 2027  20.691   2.945   0.755
29614W        W 2028  19.071  34.557   3.640
29615W        W 2029  34.446   8.401  13.040
29616W        W 2030  39.357  34.975  13.423
29617W        W 2031   0.369  15.327  13.924
29618W        W 2032  25.089  14.805   3.332
29619W        W 2033  25.102  43.309  11.567
29620W        W 2034   1.284   6.908   4.206
29621W        W 2035   2.461  24.172   3.183
29622W        W 2036   0.277   9.307  14.772
29623W        W 2037  34.114   3.267   0.893
29624W        W 2038  19.208  43.415  12.479
29625W        W 2039  26.529  18.230   1.330
29626W        W 2040   9.190  12.278   3.799
29627W        W 2041  20.734  12.318  14.344
29628W        W 2042  15.232  15.223  13.058
29629W        W 2043  11.273   1.420  13.958
29630W        W 2044  42.409  24.563  13.910
29631W        W 2045  11.725  29.497   2.872
29632W        W 2046  16.778  31.478   4.622
29633W        W 2047  25.147  33.080  12.860
29634W        W 2048   9.295   0.335  10.964
29635W        W 2049  29.028   0.473   1.900
29636W        W 2050  12.335   6.390   9.971
29637W        W 2051  27.509  32.082   1.433
29638W        W 2052  41.995  23.029  14.869
29639W        W 2053  32.526  37.867   2.692
29640W        W 2054  32.111  18.721   2.296
29641W        W 2055   4.926   6.874   4.769
29642W        W 2056  31.961  17.614   4.817
29643W        W 2057  14.105  16.261   4.142
29644W        W 2058  23.614  32.087   0.458
29645W        W 2059  25.604  28.935  14.953
29646W        W 2060   6.860   0.947   0.265
29647W        W 2061  23.513   0.748   5.676
29648W        W 2062  27.037   0.295  11.512
29649W        W 2063   5.310  14.123  12.923
29650W        W 2064  24.568   3.294   1.902
29651W        W 2065  12.768  35.385   3.637
29652W        W 2066  22.121  40.916   0.300
29653W        W 2067   4.907  13.841   0.357
29654W        W 2068  17.208  20.142   1.854
29655W        W 2069   4.362  42.506   3.742
29656W        W 2070  17.183  15.288   2.878
29657W        W 2071  30.042  19.703   4.116
29658W        W 2072  42.880  17.210  10.561
29659W        W 2073  35.537  25.571   0.417
29660W        W 2074  18.176  34.880   4.114
29661W        W 2075  11.776  15.300  14.911
29662W        W 2076  24.225  31.600   1.826
29663W        W 2077  11.322   2.329   4.336
29664W        W 2078  22.723  26.136  11.961
29665W        W 2079  27.083   1.243   3.158
29666W        W 2080   9.699  36.372  14.360
29667W        W 2081   4.227   5.195  12.970
29668W        W 2082  26.634   0.965   2.190
29669W        W 2083  11.362  13.139   3.730
29670W        W 2084   2.815  15.639   0.306
29671W        W 2085  28.456  37.895  13.948
29672W        W 2086  38.531  20.602  13.827
29673W        W 2087   6.771  13.141   4.219
29674W        W 2088  33.515   9.384  11.886
29675W        W 2089  18.680  30.424   0.479
29676W        W 2090   9.865  26.180  11.479
29677W        W 2091  13.813  10.768  14.930
29678W        W 2092   7.765   4.889  13.812
29679W        W 2093  33.417  16.572  14.876
29680W        W 2094   1.820   9.871   4.680
29681W        W 2095  23.095  32.001   0.861
29682W        W 2096   7.758  10.297   4.168
29683W        W 2097  28.932   3.743   3.797
29684W        W 2098  17.659  31.508  10.560
29685W        W 2099   8.761  44.799   2.853
29686W        W 2100  25.157  25.656  14.835
29687W        W 2101   8.734  40.889  12.495
29688W        W 2102  38.889   2.438   4.645
29689W        W 2103  43.897  43.795   4.160
29690W        W 2104  37.374  18.650  10.555
29691W        W 2105  27.482  28.611  12.479
29692W        W 2106  40.397  19.691   1.373
29693W        W 2107  10.684   6.328  11.469
29694W        W 2108  19.735  37.582  13.824
29695W        W 2109  29.136   4.261  11.932
29696W        W 2110   8.386  33.462  13.982
29697W        W 2111  12.116  37.948   1.911
29698W        W 2112   3.229   7.889   2.723
29699W        W 2113   0.385   8.841  13.428
29700W        W 2114  11.343  34.987  10.419
29701W        W 2115  35.521   1.777  11.537
29702W        W 2116   8.714  34.925   0.393
29703W        W 2117  18.625  17.732   0.360
29704W        W 2118  14.272  28.660   1.373
29705W        W 2119  28.021   3.384   4.204
29706W        W 2120  37.901  35.916   2.401
29707W        W 2121  30.004   3.229  13.813
29708W        W 2122  43.441   2.857   2.387
29709W        W 2123  21.723   4.848   0.432
29710W        W 2124  41.301   6.299   0.264
29711W        W 2125   0.809  11.644   4.599
29712W        W 2126  12.180  25.500  12.848
29713W        W 2127  38.432  43.276  13.035
29714W        W 2128   5.329   8.876  11.042
29715W        W 2129  31.539   9.320   2.385
29716W        W 2130  39.535  33.459  11.931
29717W        W 2131  36.024  42.498  11.123
29718W        W 2132  20.119  40.312   0.275
29719W        W 2133  24.082  13.131   1.321
29720W        W 2134  40.514  25.567   1.423
29721W        W 2135  19.272  43.840  14.274
29722W        W 2136   2.935  36.491  12.056
29723W        W 2137  11.195  25.121   2.339
29724W        W 2138  44.794  23.178   0.278
29725W        W 2139  37.081  28.648  11.521
29726W        W 2140   1.416  19.242  11.070
29727W        W 2141  20.647  43.364  13.802
29728W        W 2142   4.776  17.190  13.345
29729W        W 2143  30.540   4.879  13.000
29730W        W 2144  25.636  28.524   1.369
29731W        W 2145   6.803  27.948   1.761
29732W        W 2146   3.315  22.525   4.177
29733W        W 2147  44.826   0.445   1.389
29734W        W 2148  34.883  19.090  11.571
29735W        W 2149  41.917  18.085  10.929
29736W        W 2150   6.238  10.223   3.342
29737W        W 2151  22.198   3.277   5.210
29738W        W 2152   7.198  42.825  10.559
29739W        W 2153   8.274  36.953  12.569
29740W        W 2154  30.471  11.820   0.451
29741W        W 2155   2.727  41.843   0.462
29742W        W 2156   4.882  17.082  14.468
29743W        W 2157  22.197  23.166  14.296
29744W        W 2158   7.766  29.125  11.466
29745W        W 2159  15.710  22.014  10.111
29746W        W 2160  34.074  29.164   1.247
29747W        W 2161   8.167  33.483   0.891
29748W        W 2162  30.110  20.184   1.289
29749W        W 2163  16.618  32.904   2.379
29750W        W 2164  38.021  17.160  10.072
29751W        W 2165  23.110  23.537  12.422
29752W        W 2166  37.494   2.396   4.175
29753W        W 2167   5.879  42.454   4.706
29754W        W 2168  12.305   9.783   0.425
29755W        W 2169  39.933  30.425  10.562
29756W        W 2170   5.291   8.757   0.395
29757W        W 2171   7.172   3.366   3.217
29758W        W 2172  29.432  26.476   5.214
29759W        W 2173   5.429  34.974   3.674
29760W        W 2174  22.227  29.038  12.442
29761W        W 2175  16.276  24.518  13.838
29762W        W 2176  22.087   3.889   3.176
29763W        W 2177  13.635  21.159  14.819
29764W        W 2178  22.606   4.722   4.615
29765W        W 2179  42.811  42.464   1.247
29766W        W 2180  38.406   2.430  12.980
29767W        W 2181  12.760  11.806  11.375
29768W        W 2182  40.419  30.511  12.065
29769W        W 2183  31.514   5.716   3.791
29770W        W 2184  21.531  36.022   1.415
29771W        W 2185  21.228  42.469   4.654
29772W        W 2186  37.964   8.222   1.238
29773W        W 2187   2.259   8.326   2.847
29774W        W 2188  38.363  22.197  12.469
29775W        W 2189  15.146  38.840   4.782
29776W        W 2190  20.556   8.252  13.529
29777W        W 2191   8.788  12.640   0.343
29778W        W 2192   4.344  18.184   4.754
29779W        W 2193   9.834   0.270  14.430
29780W        W 2194   9.700  39.020   4.314
29781W        W 2195  28.968  37.844   3.816
29782W        W 2196  35.098   8.174   4.748
29783W        W 2197  39.538  37.433   2.215
29784W        W 2198  42.409  34.956  12.911
29785W        W 2199  13.645   5.800  11.584
29786W        W 2200  19.245  19.095  11.062
29787W        W 2201  36.481   7.340   2.840
29788W        W 2202  43.363  26.193   4.129
29789W        W 2203  24.695  12.330   1.712
29790W        W 2204   5.315  22.623   0.795
29791W        W 2205  21.636  29.669   2.364
29792W        W 2206  25.146  16.230   3.777
29793W        W 2207  43.417  34.374  11.120
29794W        W 2208  35.392   7.809   1.211
29795W        W 2209  21.637  13.347   0.395
29796W        W 2210  16.098  25.125  14.332
29797W        W 2211  42.951  14.200   2.240
29798W        W 2212  13.247   9.350  13.543
29799W        W 2213  34.050  22.669  14.880
29800W        W 2214  34.464  39.432  14.481
29801W        W 2215   8.264  23.704  11.575
29802W        W 2216  36.466   0.932   2.682
29803W        W 2217  38.829  31.526   4.771
29804W        W 2218   4.355  12.738  14.338
29805W        W 2219  37.438  35.021   1.307
29806W        W 2220  22.675  24.572   0.951
29807W        W 2221   4.853  13.650  11.910
29808W        W 2222  27.137  26.467  13.890
29809W        W 2223   1.329   9.873  11.093
29810W        W 2224  17.095   2.931  14.471
29811W        W 2225   7.379  40.397   4.834
29812W        W 2226  27.470  20.125   4.764
29813W        W 2227  14.670  25.637  11.943
29814W        W 2228  20.630  33.537   2.693
29815W        W 2229  31.998  14.753   3.212
29816W        W 2230  43.982  14.719   4.611
29817W        W 2231  38.856  33.030   9.557
29818W        W 2232  21.063  23.508   1.809
29819W        W 2233  24.700   7.342  11.410
29820W        W 2234  20.616   5.733   4.647
29821W        W 2235  13.703  30.924   3.742
29822W        W 2236  28.596  12.211   4.642
29823W        W 2237  12.797  18.655  10.917
29824W        W 2238   3.315  18.122  11.963
29825W        W 2239  30.930  44.284  12.905
29826W        W 2240  37.061  21.225  12.361
29827W        W 2241  27.523  38.349  14.429
29828W        W 2242  34.467  12.338   1.416
29829W        W 2243  33.544   2.354   3.758
29830W        W 2244  22.582  21.692   0.252
29831W        W 2245  14.816  34.995  11.125
29832W        W 2246  44.754  20.209   2.312
29833W        W 2247  27.016  28.164  11.492
29834W        W 2248   2.890   1.837  12.569
29835W        W 2249  34.472  22.544   1.297
29836W        W 2250   5.435  17.076  14.990
29837W        W 2251  25.655  29.066  11.963
29838W        W 2252  19.162  35.948   4.212
29839W        W 2253   4.248   3.825   1.345
29840W        W 2254   4.836  25.597  11.036
29841W        W 2255  22.068  37.059  13.814
29842W        W 2256  13.138  16.106   0.470
29843W        W 2257  39.372  11.213   4.835
29844W        W 2258  36.545  32.926   4.156
29845W        W 2259  30.950  32.475   2.840
29846W        W 2260  19.639   6.880  14.762
29847W        W 2261  18.544  11.259   1.275
29848W        W 2262   5.293   9.154   2.803
29849W        W 2263  32.634  39.892   0.904
29850W        W 2264  38.025  12.188  10.951
29851W        W 2265  38.460  17.626  11.413
29852W        W 2266  25.509  17.602  13.888
29853W        W 2267  21.686  14.668  14.806
29854W        W 2268   7.860  37.392  10.096
29855W        W 2269   6.402  33.897  13.330
29856W        W 2270   5.707  19.659   2.419
29857W        W 2271  32.604  37.930  12.573
29858W        W 2272  16.183  13.763   2.714
29859W        W 2273  25.106  44.806  12.404
29860W        W 2274   4.228   4.747   0.345
29861W        W 2275   1.380   6.696   0.371
29862W        W 2276  14.284   6.813  13.885
29863W        W 2277  15.718   2.401   1.695
29864W        W 2278  21.195  18.604   3.256
29865W        W 2279  38.860  33.876  13.493
29866W        W 2280  25.660  44.777   4.123
29867W        W 2281   7.847  25.675   1.905
29868W        W 2282  40.502   0.375   2.862
29869W        W 2283   6.245   2.933   3.685
29870W        W 2284  18.291  23.128   3.741
29871W        W 2285   3.934  24.064   4.343
29872W        W 2286  43.317  19.618  13.319
29873W        W 2287  35.951  27.016   2.692
29874W        W 2288  34.119   7.827   2.735
29875W        W 2289  18.169  12.221   4.332
29876W        W 2290  36.941  42.805  12.393
29877W        W 2291  23.233  28.025  12.081
29878W        W 2292  42.474  18.257   3.711
29879W        W 2293  16.305  20.596   1.893
29880W        W 2294   4.785   3.911   2.755
29881W        W 2295  39.838  38.437  14.391
29882W        W 2296  36.984   7.416  14.393
29883W        W 2297  41.313  28.067   5.113
29884W        W 2298   6.409  30.656  13.903
29885W        W 2299  13.176  11.208  13.969
29886W        W 2300  37.048  23.990  10.549
29887W        W 2301   5.830   0.255  12.065
29888W        W 2302  13.350  31.032   1.424
29889W        W 2303  34.468  25.473  14.347
29890W        W 2304   8.185  41.485  13.490
29891W        W 2305  24.546  42.330   3.849
29892W        W 2306   1.930   6.217   4.795
29893W        W 2307  38.486  42.839  12.454
29894W        W 2308  13.303  26.506  12.990
29895W        W 2309  10.374  42.969  12.997
29896W        W 2310   2.284   8.406  10.937
29897W        W 2311   8.797   8.202   4.280
29898W        W 2312   9.160  32.395  14.980
29899W        W 2313   9.838  21.570  10.636
29900W        W 2314  16.722  44.848   1.713
29901W        W 2315  11.645   8.390   2.759
29902W        W 2316  32.032  29.565  11.589
29903W        W 2317  27.166  18.611  14.982
29904W        W 2318   1.306  25.625  12.428
29905W        W 2319  27.006   7.886   1.732
29906W        W 2320   4.328  11.842   4.682
29907W        W 2321   2.323  35.037  12.946
29908W        W 2322  28.626  17.797  12.058
29909W        W 2323  33.499  23.655  14.860
29910W        W 2324  12.245  15.324  13.813
29911W        W 2325  18.555  27.449  12.095
29912W        W 2326   8.374  38.968  14.018
29913W        W 2327  31.454  30.630  13.976
29914W        W 2328  41.503   7.890   1.705
29915W        W 2329  27.472   8.674  10.580
29916W        W 2330   8.776  23.235   2.805
29917W        W 2331   4.406   4.347   0.412
29918W        W 2332  17.691  15.811   2.833
29919W        W 2333  25.640  14.328  11.097
29920W        W 2334  36.467   7.884   2.199
29921W        W 2335  35.579  25.024   3.272
29922W        W 2336   6.189  23.692  14.855
29923W        W 2337  30.459   5.740  11.125
29924W        W 2338  20.574  13.216   3.270
29925W        W 2339   9.229  11.160   0.729
29926W        W 2340  27.537  21.043  12.489
29927W        W 2341  38.550  29.491  14.914
29928W        W 2342  43.428  41.896  13.343
29929W        W 2343  17.722  34.395  13.536
29930W        W 2344  27.664  29.626   4.629
29931W        W 2345  23.582  25.613  14.818
29932W        W 2346  35.946  13.844   2.188
29933W        W 2347  39.395  31.934   4.677
29934W        W 2348  20.631  32.104   2.713
29935W        W 2349   8.206  33.430   2.780
29936W        W 2350  23.058  19.166  11.514
29937W        W 2351  13.788  11.752  12.910
29938W        W 2352  35.935  38.955  14.890
29939W        W 2353  15.671  19.710   1.709
29940W        W 2354   0.286  38.537  13.874
29941W        W 2355  26.597  31.988  11.883
29942W        W 2356   0.824  20.145  14.482
29943W        W 2357   8.742  10.317   3.228
29944W        W 2358  42.899   3.764  12.549
29945W        W 2359  32.009   9.387   0.467
29946W        W 2360  16.622   9.827   0.810
29947W        W 2361  17.245  25.494   3.744
29948W        W 2362  44.005   2.748  10.925
29949W        W 2363  34.110  24.992   0.436
29950W        W 2364  42.489  34.577  13.920
29951W        W 2365   8.312  41.037  13.358
29952W        W 2366  14.243  38.902  12.008
29953W        W 2367  32.443  29.008  12.898
29954W        W 2368   8.818  13.600   3.661
29955W        W 2369  21.224  37.405  12.542
29956W        W 2370  25.621   1.417   3.368
29957W        W 2371  38.827  39.366  14.813
29958W        W 2372  30.474  34.431   4.722
29959W        W 2373   5.771  14.271   0.795
29960W        W 2374  15.303   9.338   1.304
29961W        W 2375  35.990  17.113   2.265
29962W        W 2376  21.601  18.660  11.073
29963W        W 2377  19.147  41.350   2.776
29964W        W 2378   0.911   0.401   1.294
29965W        W 2379  33.963   9.356  12.825
29966W        W 2380   0.281  37.519   0.955
29967W        W 2381  28.117  21.104  13.817
29968W        W 2382   9.650   7.682  11.374
29969W        W 2383  20.666  19.213  13.022
29970W        W 2384   1.947  28.154   4.190
29971W        W 2385  27.460  38.345   2.732
29972W        W 2386  14.730  37.932  14.776
29973W        W 2387  30.521   9.289  14.822
29974W        W 2388  12.331  15.697  12.497
29975W        W 2389  36.974  37.361  14.792
29976W        W 2390  28.515   3.448  10.898
29977W        W 2391  25.026  13.820  12.998
29978W        W 2392  24.620   7.795  12.453
29979W        W 2393  30.995   5.329   3.687
29980W        W 2394  25.053  27.056  10.633
29981W        W 2395  43.933  33.027  13.447
29982W        W 2396  30.541  15.315   3.676
29983W        W 2397  39.540  15.777  12.543
29984W        W 2398  38.889   7.194   3.276
29985W        W 2399   2.852  15.203   9.580
29986W        W 2400  42.783  11.750  10.629
29987W        W 2401  21.697  37.438  10.919
29988W        W 2402  12.812  32.921   2.339
29989W        W 2403  23.131  22.232   4.135
29990W        W 2404  43.949  43.928  11.546
29991W        W 2405  43.001   9.309  14.287
29992W        W 2406   8.866  28.165  12.471
29993W        W 2407   0.397  11.318  11.432
29994W        W 2408  43.925  26.521   1.700
29995W        W 2409  16.640   8.714   4.114
29996W        W 2410  43.322  44.990   0.438
29997W        W 2411  15.755  20.660   3.161
29998W        W 2412  35.051  24.021   5.626
29999W        W 2413  42.362  32.428   0.443
30000W        W 2414  44.808  44.825  11.377
30001W        W 2415   6.387   8.709   0.407
30002W        W 2416  25.177  43.510  10.012
30003W        W 2417   9.760  21.065   1.694
30004W        W 2418   3.301  37.524   2.248
30005W        W 2419  43.453  43.978   0.261
30006W        W 2420   2.811  36.874   4.163
30007W        W 2421  21.228  18.141   3.744
30008W        W 2422  14.259  10.335   4.740
30009W        W 2423  31.573  15.652  12.930
30010W        W 2424  44.898   3.852  12.935
30011W        W 2425  17.692  28.525  10.547
30012W        W 2426  16.124   7.378  11.409
30013W        W 2427  42.508  32.016  10.025
30014W        W 2428  40.824   5.401   1.271
30015W        W 2429   4.931  10.288  11.007
30016W        W 2430  31.433  31.061  14.016
30017W        W 2431  38.965   1.785   9.980
30018W        W 2432  29.117   2.901  14.783
30019W        W 2433  27.004   3.894  11.381
30020W        W 2434  21.531  30.928  12.074
30021W        W 2435  21.704  20.618   4.741
30022W        W 2436  14.274  40.017  11.568
30023W        W 2437   9.724   9.379  12.346
30024W        W 2438  14.824   9.675   0.317
30025W        W 2439  34.081   7.343  11.024
30026W        W 2440  34.026  28.119   3.773
30027W        W 2441   8.228  26.023   2.327
30028W        W 2442  12.251  16.286  13.466
30029W        W 2443  24.676  17.661   2.282
30030W        W 2444   7.327  21.516   4.228
30031W        W 2445  43.372  34.474   2.820
30032W        W 2446  25.963  39.063  12.487
30033W        W 2447  35.997   9.380  11.550
30034W        W 2448   8.355  23.148  13.023
30035W        W 2449  41.882  42.831   2.401
30036W        W 2450  29.504  37.527   1.705
30037W        W 2451  26.515  41.012   2.682
30038W        W 2452  36.394  33.951  12.902
30039W        W 2453  16.696  27.577  11.096
30040W        W 2454  42.017  11.753   3.280
30041W        W 2455  33.952  18.669   3.348
30042W        W 2456   3.293  32.135  11.968
30043W        W 2457  42.519  21.105  13.415
30044W        W 2458  10.673  31.043   4.806
30045W        W 2459  15.258  28.608   0.434
30046W        W 2460  17.572   7.903  13.542
30047W        W 2461  27.947  44.820   1.344
30048W        W 2462   3.875  36.921  11.585
30049W        W 2463  31.972   7.729   1.273
30050W        W 2464  23.616  25.534  13.971
30051W        W 2465   4.733  34.906   2.752
30052W        W 2466  42.365   3.411   2.293
30053W        W 2467   5.250  36.976  12.065
30054W        W 2468  41.417  15.631  14.473
30055W        W 2469   9.712  19.261  11.547
30056W        W 2470  36.456  36.366  13.895
30057W        W 2471  29.432  38.863   3.349
30058W        W 2472  39.936   1.325  12.963
30059W        W 2473   1.350  15.797  11.372
30060W        W 2474   6.733  44.265   2.810
30061W        W 2475  37.432  40.344   4.678
30062W        W 2476  44.404  23.131   3.327
30063W        W 2477   3.222  17.194   2.775
30064W        W 2478  17.602  35.107  12.826
30065W        W 2479  14.614  14.221  12.863
30066W        W 2480  22.123  35.062  10.542
30067W        W 2481   6.829  20.589  14.872
30068W        W 2482  30.519  20.238  12.837
30069W        W 2483  28.507  29.077  12.930
30070W        W 2484  12.849  16.804  11.549
30071W        W 2485  11.742  22.032  11.537
30072W        W 2486  14.236   9.659   1.758
30073W        W 2487  15.781   9.349   5.257
30074W        W 2488  12.835   8.401   4.141
30075W        W 2489  43.371  43.994   2.366
30076W        W 2490  21.241  29.018   1.697
30077W        W 2491   2.954  11.255   0.806
30078W        W 2492  28.533  15.214   4.177
30079W        W 2493   7.221  42.872   1.761
30080W        W 2494   7.237   9.282  12.085
30081W        W 2495  16.212   9.676  14.460
30082W        W 2496  10.696  20.192  14.512
30083W        W 2497   8.762  25.039   2.688
30084W        W 2498  36.982  29.929  11.856
30085W        W 2499  28.152   6.245  13.502
30086W        W 2500  22.745  13.341   2.336
30087W        W 2501  44.296   5.337   1.298
30088W        W 2502   2.872   8.787   4.186
30089W        W 2503  40.999  20.161   0.926
30090W        W 2504  28.044  15.680   1.444
30091W        W 2505  19.215  43.930   3.689
30092W        W 2506  11.282  17.621  10.920
30093W        W 2507   7.846  19.232  10.606
30094W        W 2508  38.493   0.967   1.834
30095W        W 2509  35.893   2.232   4.710
30096W        W 2510  28.950  29.983   3.794
30097W        W 2511  40.377  21.591   4.263
30098W        W 2512   3.404  37.936  14.805
30099W        W 2513   7.381  10.310  10.633
30100W        W 2514  14.713  19.225   0.889
30101W        W 2515  11.274  31.606   1.698
30102W        W 2516   5.320  22.130  14.801
30103W        W 2517  25.588  43.331   4.712
30104W        W 2518  44.296  28.009   1.878
30105W        W 2519  19.196   5.917   2.689
30106W        W 2520  42.432   3.386   1.324
30107W        W 2521  41.904   7.403  14.769
30108W        W 2522  42.793  38.945   2.205
30109W        W 2523  29.991  36.860   0.771
30110W        W 2524  37.955  29.533   1.753
30111W        W 2525  23.697  44.435   2.737
30112W        W 2526  39.442  40.459   4.821
30113W        W 2527  25.023   7.882   3.288
30114W        W 2528   4.440  43.404  13.488
30115W        W 2529   6.405  21.678  14.424
30116W        W 2530   2.349   1.246   0.804
30117W        W 2531  36.864  41.357   1.361
30118W        W 2532  28.968  44.887  12.916
30119W        W 2533  43.290  41.392   3.330
30120W        W 2534  35.584  26.101  10.410
30121W        W 2535  38.566  36.982   4.682
30122W        W 2536  13.618   4.750   4.829
30123W        W 2537  31.070  20.565   0.779
30124W        W 2538  42.018   9.852  12.442
30125W        W 2539  38.482  30.065  13.437
30126W        W 2540  33.923   8.347  14.463
30127W        W 2541  34.881  26.673  13.326
30128W        W 2542  23.185  14.265   4.643
30129W        W 2543  27.661  22.086  12.862
30130W        W 2544  22.150  23.509  10.583
30131W        W 2545  14.315  28.949   0.778
30132W        W 2546  37.952  23.681   0.424
30133W        W 2547  44.982  32.141  14.483
30134W        W 2548   7.788   4.938   4.254
30135W        W 2549  34.460   2.770  11.126
30136W        W 2550  33.452  21.129  10.473
30137W        W 2551  41.829   5.758   3.178
30138W        W 2552  31.574  10.138   2.839
30139W        W 2553  19.267  23.161  13.367
30140W        W 2554  25.204  24.100   4.139
30141W        W 2555  34.100   3.885   4.812
30142W        W 2556  41.368   4.756   1.220
30143W        W 2557  16.199  27.480   1.428
30144W        W 2558  22.201  11.760  12.020
30145W        W 2559  11.700   1.968  11.566
30146W        W 2560  42.826  43.967  11.082
30147W        W 2561  38.864  26.472   4.127
30148W        W 2562  33.552  42.010  12.549
30149W        W 2563   3.262   2.949  11.911
30150W        W 2564  31.066   6.825   4.743
30151W        W 2565  35.013   2.438  13.015
30152W        W 2566  32.139  28.076  11.549
30153W        W 2567  28.137  33.380   2.780
30154W        W 2568   6.338  20.203  14.469
30155W        W 2569  43.977   6.193  11.543
30156W        W 2570  14.671  36.350  11.470
30157W        W 2571   5.872   5.316  13.003
30158W        W 2572  15.814  16.134   1.265
30159W        W 2573  40.521  13.237  14.776
30160W        W 2574  37.070  31.527  10.512
30161W        W 2575  15.262  26.490   2.283
30162W        W 2576   0.272   7.385   0.297
30163W        W 2577  33.115  26.511  14.018
30164W        W 2578  28.593  34.523   3.754
30165W        W 2579   2.928  42.013   1.859
30166W        W 2580  10.183  22.643  11.936
30167W        W 2581  42.301  26.620  14.843
30168W        W 2582  41.325   1.944  13.336
30169W        W 2583  19.119  29.960   0.784
30170W        W 2584  30.011  34.921   2.893
30171W        W 2585  27.558  15.593  12.446
30172W        W 2586   8.815  29.025   9.965
30173W        W 2587  33.478  11.285   3.170
30174W        W 2588  39.470  39.977   2.361
30175W        W 2589  35.997   4.384   1.323
30176W        W 2590   7.310  12.772  14.847
30177W        W 2591  19.233  19.111  14.926
30178W        W 2592  23.074   9.213  10.634
30179W        W 2593  32.607  30.565   2.276
30180W        W 2594   2.290  30.926  12.370
30181W        W 2595  23.712  34.967   0.833
30182W        W 2596  36.547  41.829   1.699
30183W        W 2597  34.939  28.603  11.063
30184W        W 2598  43.909  21.229  10.600
30185W        W 2599   8.792  26.123   3.314
30186W        W 2600  11.681  44.336  10.045
30187W        W 2601  20.672  38.426   1.251
30188W        W 2602  27.143  32.567  10.589
30189W        W 2603  19.146  24.024  11.593
30190W        W 2604  27.084  42.388   3.333
30191W        W 2605  37.507  31.446   3.284
30192W        W 2606  43.792   7.791  14.856
30193W        W 2607  13.328  44.502  14.365
30194W        W 2608  41.365   6.385   4.761
30195W        W 2609  31.955  29.089  11.581
30196W        W 2610   8.255  33.033  11.066
30197W        W 2611  31.123  14.100   4.189
30198W        W 2612   8.227  32.404  13.953
30199W        W 2613  34.872  38.837  10.497
30200W        W 2614  17.240  21.710   3.242
30201W        W 2615  35.475   9.176  14.353
30202W        W 2616  29.950  26.467  14.810
30203W        W 2617   1.477   6.301   4.660
30204W        W 2618  11.366  13.703  12.857
30205W        W 2619  43.846  19.185  12.574
30206W        W 2620  12.343  30.069  13.323
30207W        W 2621  37.365  37.048  14.406
30208W        W 2622   4.838   4.898   3.184
30209W        W 2623   1.911  41.418   0.779
30210W        W 2624   3.893  10.725   4.297
30211W        W 2625   2.748   7.203   0.312
30212W        W 2626  27.101  17.248  11.979
30213W        W 2627  34.497  20.252  12.921
30214W        W 2628  22.745  41.481  12.463
30215W        W 2629  17.562   1.439  14.510
30216W        W 2630  14.797  20.068   2.250
30217W        W 2631  29.009  35.058   1.337
30218W        W 2632   2.440   2.305   3.763
30219W        W 2633  20.216   6.816  12.030
30220W        W 2634   5.261  39.958   3.353
30221W        W 2635   5.218  17.557  14.804
30222W        W 2636   3.825  16.095  10.627
30223W        W 2637  40.040  26.155   4.256
30224W        W 2638   4.842  30.039   3.363
30225W        W 2639   7.279  42.379  12.545
30226W        W 2640  12.813  18.233   1.841
30227W        W 2641  13.244  33.101  12.076
30228W        W 2642  41.355   1.480  10.458
30229W        W 2643   2.379  14.145  12.062
30230W        W 2644  23.161  18.717  12.340
30231W        W 2645  18.129  32.912  14.405
30232W        W 2646  25.157  25.172  12.840
30233W        W 2647   6.273  15.172  11.422
30234W        W 2648   3.815   3.882  13.311
30235W        W 2649  28.499  42.306   3.188
30236W        W 2650  23.059  36.386  13.058
30237W        W 2651  42.322   5.791   1.251
30238W        W 2652  22.523  11.367  11.581
30239W        W 2653   3.319  11.730   4.330
30240W        W 2654  33.968  17.245  11.953
30241W        W 2655  20.242  32.584  13.533
30242W        W 2656  41.507  42.294   4.228
30243W        W 2657  13.105  37.893  13.921
30244W        W 2658  35.556  19.652   2.354
30245W        W 2659   4.210  20.684   1.914
30246W        W 2660  27.489  25.633  11.977
30247W        W 2661   7.671   9.194   2.800
30248W        W 2662  13.309  31.952   0.464
30249W        W 2663  10.152  24.051  11.593
30250W        W 2664  19.210  13.144  10.448
30251W        W 2665   4.246   5.836  13.476
30252W        W 2666   2.460  41.426   0.810
30253W        W 2667  44.940  18.130   0.454
30254W        W 2668  27.596  18.275   2.829
30255W        W 2669  17.301  27.149   2.676
30256W        W 2670   8.279  35.581  12.926
30257W        W 2671  23.699  28.181   0.747
30258W        W 2672  40.910  25.164  11.597
30259W        W 2673  22.674  16.100  12.851
30260W        W 2674  34.965  35.099  11.111
30261W        W 2675   9.728  43.455   1.263
30262W        W 2676  10.199  15.756   1.715
30263W        W 2677  37.415   9.845  13.406
30264W        W 2678  13.678  27.155  11.498
30265W        W 2679  38.512  14.181   3.850
30266W        W 2680  10.212  22.227  11.518
30267W        W 2681  11.205  44.975  10.925
30268W        W 2682   4.264  44.936  11.890
30269W        W 2683  41.912  21.043  10.574
30270W        W 2684  19.539  40.493   1.339
30271W        W 2685   6.260  15.617   2.239
30272W        W 2686  36.356  44.916  14.866
30273W        W 2687  15.663  29.637   3.349
30274W        W 2688  20.228  28.043   0.297
30275W        W 2689  27.182   1.966   2.263
30276W        W 2690  36.097  14.692  12.490
30277W        W 2691  25.702  13.336  13.964
30278W        W 2692  16.585  44.961   3.235
30279W        W 2693   4.932  42.399  12.939
30280W        W 2694  28.005  20.080   4.706
30281W        W 2695   4.795  35.579  10.427
30282W        W 2696  18.755  31.634  10.567
30283W        W 2697  21.115  21.756   2.889
30284W        W 2698  20.737  27.068   4.117
30285W        W 2699  20.633  25.002   0.409
30286W        W 2700  32.946  37.882   2.275
30287W        W 2701   2.780   6.725  14.814
30288W        W 2702  30.995  42.030   0.786
30289W        W 2703  23.984   9.160   2.206
30290W        W 2704  32.081  27.116   4.177
30291W        W 2705  14.248  29.659  12.930
30292W        W 2706  13.189  36.096   0.396
30293W        W 2707  21.064  19.159  12.020
30294W        W 2708  43.965  10.174   4.838
30295W        W 2709  29.000  13.623   2.286
30296W        W 2710   3.331  24.535   4.259
30297W        W 2711   8.296  41.915   1.798
30298W        W 2712  13.167   6.337   0.887
30299W        W 2713  11.275  20.721   0.865
30300W        W 2714  17.104   0.916   4.650
30301W        W 2715  38.413   6.284   3.310
30302W        W 2716   3.798  15.131   9.952
30303W        W 2717  23.124   3.843   2.378
30304W        W 2718  16.148  28.644   2.710
30305W        W 2719  44.840  19.196   4.609
30306W        W 2720   9.395  37.087  14.786
30307W        W 2721   4.359  28.174   1.391
30308W        W 2722  25.168  20.271  11.996
30309W        W 2723  41.821  17.677   2.374
30310W        W 2724   8.319  42.944  13.813
30311W        W 2725  19.755  14.305   2.263
30312W        W 2726  37.433  21.639  11.445
30313W        W 2727  24.102   6.367   1.398
30314W        W 2728   9.720   8.888   3.785
30315W        W 2729   4.235   6.321   4.638
30316W        W 2730   1.418  10.747   4.764
30317W        W 2731  38.948   6.690   2.213
30318W        W 2732   4.280  42.485  14.885
30319W        W 2733   4.282  30.088   4.341
30320W        W 2734   3.858  20.139  14.420
30321W        W 2735  33.496  22.195  12.877
30322W        W 2736  12.346  17.109   2.302
30323W        W 2737  27.116   5.868   2.866
30324W        W 2738   1.934   3.857  13.990
30325W        W 2739  33.128  20.571   2.830
30326W        W 2740  27.965  42.420  14.759
30327W        W 2741  33.452  35.943  10.920
30328W        W 2742  16.728  15.736  10.445
30329W        W 2743   0.365  26.997  13.008
30330W        W 2744   3.929   7.857   0.483
30331W        W 2745  22.546  27.450  13.999
30332W        W 2746   8.812  41.433  12.537
30333W        W 2747  39.339  42.032  13.545
30334W        W 2748  27.499  42.521  14.853
30335W        W 2749  17.218  21.115   3.311
30336W        W 2750  10.170   9.331   2.330
30337W        W 2751   0.780  23.684   4.277
30338W        W 2752  15.178   4.842  13.850
30339W        W 2753  17.225  28.543   4.679
30340W        W 2754   4.702  26.536  13.001
30341W        W 2755   5.256   0.815   9.952
30342W        W 2756  11.232  36.878  10.971
30343W        W 2757  29.625  35.545   2.864
30344W        W 2758  28.520  35.050  11.959
30345W        W 2759  42.949   9.819   9.931
30346W        W 2760  34.466  16.624   2.310
30347W        W 2761   0.969   9.869   4.710
30348W        W 2762  39.872  28.046   1.861
30349W        W 2763  17.101   1.788  13.457
30350W        W 2764  13.251  42.400   2.794
30351W        W 2765   5.861   4.419   0.841
30352W        W 2766  16.133  14.123   3.649
30353W        W 2767   9.350  36.018   2.262
30354W        W 2768  27.475  11.709  14.419
30355W        W 2769  43.854  23.684   3.277
30356W        W 2770  40.952  35.970  11.470
30357W        W 2771  34.555   7.749   2.734
30358W        W 2772   2.346  42.913  10.947
30359W        W 2773  19.644   9.861   1.706
30360W        W 2774  31.587  12.233   4.320
30361W        W 2775   7.720  40.863  12.494
30362W        W 2776  34.022  24.617  13.463
30363W        W 2777   6.308  23.660   3.263
30364W        W 2778  21.535  27.173  14.000
30365W        W 2779  34.459  12.224  14.888
30366W        W 2780  26.587   4.944   4.723
30367W        W 2781  27.986  24.049  14.356
30368W        W 2782  16.807  40.975   3.291
30369W        W 2783   2.944   8.341   2.867
30370W        W 2784  27.165   7.827  14.327
30371W        W 2785  32.021   7.251  14.910
30372W        W 2786  23.122  32.098   3.708
30373W        W 2787  32.565  19.048  13.916
30374W        W 2788  17.103   4.309   3.156
30375W        W 2789   3.375  22.179   2.357
30376W        W 2790  21.034  43.816  14.772
30377W        W 2791   1.900  36.992  12.508
30378W        W 2792  27.537  18.654  11.408
30379W        W 2793  22.190  42.841   1.761
30380W        W 2794  13.628   4.283  13.443
30381W        W 2795  27.490  30.002   4.248
30382W        W 2796  35.361   2.900   3.154
30383W        W 2797  11.714  22.669   3.258
30384W        W 2798  14.294   9.255  10.604
30385W        W 2799  16.196  10.799   1.860
30386W        W 2800  29.439  43.354   2.736
30387W        W 2801  32.394  29.162   3.206
30388W        W 2802  18.726   0.389  10.918
30389W        W 2803  42.963  41.398  10.020
30390W        W 2804  40.001  32.422   0.804
30391W        W 2805  12.793  20.246  11.952
30392W        W 2806  42.457  28.054  11.373
30393W        W 2807  30.088  15.615  10.143
30394W        W 2808  30.936  31.482  14.011
30395W        W 2809  11.320  13.737   2.290
30396W        W 2810  39.058  37.887   4.135
30397W        W 2811  27.051  35.486  10.618
30398W        W 2812  25.525  41.369  13.372
30399W        W 2813   6.848   2.899   3.733
30400W        W 2814  28.674  14.651  12.504
30401W        W 2815  38.832   8.785   0.350
30402W        W 2816  43.772  32.578   4.610
30403W        W 2817  22.237  30.044  10.913
30404W        W 2818   7.702  37.362   5.296
30405W        W 2819  43.000  15.698  10.561
30406W        W 2820  36.475  36.486   1.226
30407W        W 2821  32.889  32.527   0.315
30408W        W 2822   4.845   9.350  11.412
30409W        W 2823  12.667  24.048   2.204
30410W        W 2824  13.221  23.643  13.836
30411W        W 2825   1.835   8.699  11.127
30412W        W 2826  39.540  21.138  13.474
30413W        W 2827  37.949  16.142  11.480
30414W        W 2828  29.492   7.361  11.911
30415W        W 2829  37.900   1.879   1.345
30416W        W 2830   0.824   8.660  11.956
30417W        W 2831  33.127  19.695  11.446
30418W        W 2832  38.463   2.766  13.871
30419W        W 2833  33.398   5.229   4.802
30420W        W 2834  13.676  15.784  10.915
30421W        W 2835  38.848  43.931   4.710
30422W        W 2836  23.568   3.748   2.269
30423W        W 2837  30.016  18.198   3.363
30424W        W 2838  16.172  13.150  10.928
30425W        W 2839  27.685  27.012  14.760
30426W        W 2840  34.554  25.708  12.404
30427W        W 2841  29.159  37.897   2.832
30428W        W 2842   7.755  18.129   2.682
30429W        W 2843  26.048  41.475   2.187
30430W        W 2844  35.933  38.354   0.338
30431W        W 2845   6.832  12.191  11.929
30432W        W 2846  26.682  37.940   3.793
30433W        W 2847  19.725  42.358  11.858
30434W        W 2848  39.485   0.271  13.386
30435W        W 2849   0.254  40.891  13.532
30436W        W 2850   1.863  39.524   0.325
30437W        W 2851  18.056  15.220  13.333
30438W        W 2852   4.235  14.717   4.821
30439W        W 2853  19.209  33.569   2.326
30440W        W 2854  42.984  23.207  12.915
30441W        W 2855   7.755   0.945  10.598
30442W        W 2856  25.197  10.384  10.941
30443W        W 2857   4.360  19.631  14.973
30444W        W 2858  36.857  21.568   1.779
30445W        W 2859  12.727  29.641  13.042
30446W        W 2860  16.605  17.126   1.435
30447W        W 2861  41.310  23.082   1.814
30448W        W 2862  27.155  44.382  14.978
30449W        W 2863  17.731   5.780  13.410
30450W        W 2864  21.092  24.097  14.763
30451W        W 2865  30.659  35.917  12.956
30452W        W 2866  32.425  24.553  10.473
30453W        W 2867  32.980  11.784   2.679
30454W        W 2868  19.678  34.031   4.232
30455W        W 2869  22.613  26.062   0.939
30456W        W 2870  17.573  33.094   4.678
30457W        W 2871   9.220  35.446   3.632
30458W        W 2872  16.748  38.941  11.409
30459W        W 2873  41.371  23.614  11.920
30460W        W 2874  14.340  15.241  11.923
30461W        W 2875  12.647  14.263  13.920
30462W        W 2876  16.596  32.420   0.761
30463W        W 2877  42.898  12.734  14.015
30464W        W 2878  15.640  19.114   2.350
30465W        W 2879   5.243   4.224   2.191
30466W        W 2880  13.748  34.053   0.748
30467W        W 2881  17.582  12.742  13.512
30468W        W 2882   5.203  27.627  13.932
30469W        W 2883  40.376   0.901  13.320
30470W        W 2884  31.924  30.539   0.450
30471W        W 2885  10.315  42.505   4.788
30472W        W 2886  29.425   0.263  12.356
30473W        W 2887  16.675  24.512  14.869
30474W        W 2888  27.941  28.608  14.373
30475W        W 2889   9.715   4.292  13.331
30476W        W 2890  38.379  13.130  10.964
30477W        W 2891   2.234  41.018   0.424
30478W        W 2892  24.496   0.385  10.898
30479W        W 2893  29.926   9.162  14.285
30480W        W 2894  37.953  34.492   3.822
30481W        W 2895  11.827  24.611  11.905
30482W        W 2896  14.193   0.434   3.702
30483W        W 2897  35.571  43.331  14.867
30484W        W 2898  41.812  30.564  12.425
30485W        W 2899  18.162  41.994   3.701
30486W        W 2900  39.042   8.841  12.885
30487W        W 2901  23.635  24.112   1.284
30488W        W 2902  34.908   4.414   0.886
30489W        W 2903  18.264  22.615   2.224
30490W        W 2904   7.389  27.173   2.260
30491W        W 2905  36.889  41.299   0.306
30492W        W 2906  42.394   0.800   4.345
30493W        W 2907  19.087  24.686   0.346
30494W        W 2908  44.969  19.083  14.995
30495W        W 2909  40.926   0.399   2.799
30496W        W 2910  25.074  33.416   1.414
30497W        W 2911  11.217  42.027   0.321
30498W        W 2912   5.219  20.204   0.834
30499W        W 2913  23.081  31.586  11.922
30500W        W 2914  19.131  21.254   0.852
30501W        W 2915  21.571  43.791   1.248
30502W        W 2916   4.410  11.657  12.070
30503W        W 2917  25.979  38.991  14.825
30504W        W 2918   4.942   3.278   1.893
30505W        W 2919  12.725  26.646   2.852
30506W        W 2920   6.371   4.701  14.323
30507W        W 2921   8.378   7.320  13.389
30508W        W 2922   9.847  21.554   2.295
30509W        W 2923   3.946   1.951   0.926
30510W        W 2924  28.942  24.017  10.460
30511W        W 2925  32.011   0.797  11.064
30512W        W 2926   8.729  34.376  12.902
30513W        W 2927  40.367  15.815   3.777
30514W        W 2928  27.096  25.552  10.463
30515W        W 2929  28.930  39.882  10.440
30516W        W 2930  34.554   6.682  13.937
30517W        W 2931  22.592  22.020  11.129
30518W        W 2932  30.538  27.070  12.520
30519W        W 2933  23.636   0.387   3.795
30520W        W 2934  33.519  43.963  14.941
30521W        W 2935  24.980  10.254   0.917
30522W        W 2936   3.344  31.414   3.224
30523W        W 2937  25.509  34.424   1.728
30524W        W 2938   6.819   1.251  11.527
30525W        W 2939  10.781  30.120  11.550
30526W        W 2940  37.884  14.166  14.019
30527W        W 2941  23.677  38.541   0.251
30528W        W 2942  16.267  22.743  14.970
30529W        W 2943  38.941  10.687   0.916
30530W        W 2944  21.618  24.543   1.836
30531W        W 2945  17.190  14.720   2.778
30532W        W 2946  20.624  21.244   3.654
30533W        W 2947  22.692  42.824  14.958
30534W        W 2948  14.114   1.971  11.106
30535W        W 2949  17.800  40.814  12.835
30536W        W 2950   4.273  42.411   9.950
30537W        W 2951  26.570  15.674   5.089
30538W        W 2952  33.385  20.055  13.932
30539W        W 2953  17.176  18.265  11.461
30540W        W 2954  27.593  29.648  13.994
30541W        W 2955  32.507  30.522  14.307
30542W        W 2956  42.305   0.483  13.999
30543W        W 2957  11.196  38.491   3.217
30544W        W 2958  23.074  16.753   2.697
30545W        W 2959   2.344  15.636  11.443
30546W        W 2960  42.951  35.451  14.317
30547W        W 2961   5.239   1.896   0.463
30548W        W 2962  12.682   3.451  10.487
30549W        W 2963   3.369   0.772   2.404
30550W        W 2964   8.669   9.734  14.493
30551W        W 2965   4.242  40.017   1.353
30552W        W 2966  24.587  10.262  11.093
30553W        W 2967  30.480  20.698   4.789
30554W        W 2968  22.664  30.655   1.858
30555W        W 2969  40.996  37.032   1.361
30556W        W 2970  25.481  38.356  13.906
30557W        W 2971   6.704  10.654   0.436
30558W        W 2972  39.000  27.640  14.362
30559W        W 2973  24.148   3.864  10.536
30560W        W 2974  42.996   2.278  13.452
30561W        W 2975  23.689  44.840  14.364
30562W        W 2976  12.654  15.613   4.174
30563W        W 2977   3.923  21.065   0.281
30564W        W 2978  42.859  35.902   4.687
30565W        W 2979  39.023  37.979  13.063
30566W        W 2980   5.240  33.091   0.339
30567W        W 2981  27.457   2.232   0.450
30568W        W 2982  13.701  22.579  12.565
30569W        W 2983  25.548  21.093   3.343
30570W        W 2984  40.539  28.564   3.811
30571W        W 2985  21.708   9.182  14.365
30572W        W 2986   4.213   3.309  10.971
30573W        W 2987  38.841  10.351  11.883
30574W        W 2988  11.195   5.306  12.850
30575W        W 2989  35.376  23.229   0.401
30576W        W 2990   5.282   8.666   5.262
30577W        W 2991  20.062  40.035   9.973
30578W        W 2992  28.066  35.464  13.915
30579W        W 2993   5.238   9.159  12.449
30580W        W 2994  28.979  20.144  14.973
30581W        W 2995  39.503   9.259  13.438
30582W        W 2996  25.672   3.314  12.409
30583W        W 2997  19.176  41.924   1.389
30584W        W 2998  31.046  12.615  13.025
30585W        W 2999  39.896  42.987   4.837
30586W        W 3000  28.671  35.959   2.358
30587W        W 3001  37.387  18.710  11.869
30588W        W 3002  15.809  19.719  12.837
30589W        W 3003  32.094  33.018  11.418
30590W        W 3004  23.629  18.278  11.493
30591W        W 3005  13.135  17.662   3.255
30592W        W 3006  34.939  39.972   3.862
30593W        W 3007   5.302   6.326  11.428
30594W        W 3008  13.608  30.448   2.188
30595W        W 3009  23.120  39.908  11.579
30596W        W 3010   8.225  40.023  14.406
30597W        W 3011  29.134  41.044  14.375
30598W        W 3012   1.862   5.320  14.782
30599W        W 3013   3.758  22.100  12.443
30600W        W 3014  39.415  30.423  13.349
30601W        W 3015  25.079  25.582  11.113
30602W        W 3016   3.242  43.294   1.396
30603W        W 3017  15.741  24.214   4.179
30604W        W 3018  39.344  17.108  10.534
30605W        W 3019  14.592   4.306  13.937
30606W        W 3020  26.640   4.872  12.900
30607W        W 3021   8.684  12.207   0.865
30608W        W 3022   2.848   5.360   4.346
30609W        W 3023  23.204  44.489   3.704
30610W        W 3024  28.434  19.547   2.679
30611W        W 3025  29.553  16.629  14.938
30612W        W 3026   6.726  26.069  12.861
30613W        W 3027  10.231  31.923   4.814
30614W        W 3028  43.492  28.656   4.657
30615W        W 3029   7.773  18.755  12.933
30616W        W 3030  33.610   4.392  10.058
30617W        W 3031   5.836  24.104   3.341
30618W        W 3032  14.112  43.372   0.772
30619W        W 3033  40.901  15.781   1.710
30620W        W 3034  37.445  15.714   0.764
30621W        W 3035  13.166  11.170   3.844
30622W        W 3036  31.055  29.521   3.283
30623W        W 3037  33.036  23.615   5.741
30624W        W 3038   3.369  13.175  10.035
30625W        W 3039  42.898   6.885  12.476
30626W        W 3040  15.179  23.230   1.406
30627W        W 3041  21.630   5.309  14.006
30628W        W 3042  10.713  43.387   4.161
30629W        W 3043  38.890  16.751   0.440
30630W        W 3044  42.421  26.700   2.301
30631W        W 3045  35.857  22.554   4.251
30632W        W 3046  10.805  37.944   2.229
30633W        W 3047  26.603  39.992  14.438
30634W        W 3048   5.327   2.795  13.887
30635W        W 3049  16.630  30.048   3.245
30636W        W 3050  21.623   3.754   2.868
30637W        W 3051  16.601  19.622   1.445
30638W        W 3052   0.872   3.291   0.837
30639W        W 3053  21.027   4.287   1.215
30640W        W 3054  37.932  36.530   0.881
30641W        W 3055  13.351  16.704  13.914
30642W        W 3056  18.783   0.793   1.218
30643W        W 3057  34.880  35.860  11.096
30644W        W 3058  11.823  22.734   5.183
30645W        W 3059   4.380  16.653  12.045
30646W        W 3060  37.545  27.597  13.539
30647W        W 3061  29.532  21.189  12.000
30648W        W 3062  22.142  20.123   1.769
30649W        W 3063  13.644  31.586  12.902
30650W        W 3064  36.948  19.128  12.550
30651W        W 3065   9.720   0.949  10.439
30652W        W 3066  41.839   9.306  14.868
30653W        W 3067  40.815  39.340   4.122
30654W        W 3068   0.835  10.745   3.229
30655W        W 3069  14.309  18.634  13.847
30656W        W 3070  12.728  38.042  13.868
30657W        W 3071   1.380   1.367   3.641
30658W        W 3072  20.523   9.660  11.597
30659W        W 3073  23.632  40.477   3.645
30660W        W 3074  44.419  43.859  14.942
30661W        W 3075   0.340  10.155  11.031
30662W        W 3076   0.844  14.604  14.471
30663W        W 3077  30.596  40.801  14.972
30664W        W 3078  31.606  21.021  11.113
30665W        W 3079  44.886   2.782   3.270
30666W        W 3080   8.209  30.577   2.286
30667W        W 3081  22.535  18.564  11.538
30668W        W 3082  30.541  32.455  14.907
30669W        W 3083  39.035  22.586  12.095
30670W        W 3084  14.797  26.508   0.260
30671W        W 3085  35.444  18.766   4.809
30672W        W 3086   8.781  15.097  13.374
30673W        W 3087  43.482  30.512   5.182
30674W        W 3088  20.661  44.403  13.017
30675W        W 3089  10.710   8.331   1.436
30676W        W 3090  10.245   2.291  14.445
30677W        W 3091  31.642  40.877   2.207
30678W        W 3092  39.842  43.329   1.355
30679W        W 3093  26.523  25.212   2.414
30680W        W 3094  33.556  43.285   4.717
30681W        W 3095  28.023   8.306   4.653
30682W        W 3096  40.912  27.615  12.051
30683W        W 3097   0.271   1.334  13.406
30684W        W 3098  37.872   6.740   2.327
30685W        W 3099  15.587   7.230   0.868
30686W        W 3100  34.112  31.548  14.299
30687W        W 3101  33.501   7.284   3.345
30688W        W 3102  33.055   1.251  13.960
30689W        W 3103  44.475   3.265   4.172
30690W        W 3104  18.279  43.449   2.862
30691W        W 3105  10.315  34.381  14.879
30692W        W 3106  29.579  12.672   0.748
30693W        W 3107  20.107   4.434  11.607
30694W        W 3108  14.204   1.733   4.770
30695W        W 3109  42.848  42.498   4.354
30696W        W 3110  29.108  36.925  11.068
30697W        W 3111  15.090  11.263  11.543
30698W        W 3112  25.569  11.299  14.760
30699W        W 3113  15.602  32.423   1.815
30700W        W 3114  24.065  11.644   0.267
30701W        W 3115  15.793  18.714  13.362
30702W        W 3116  15.305   1.784   1.379
30703W        W 3117   0.947  39.466   4.169
30704W        W 3118  12.189  13.616  11.590
30705W        W 3119  14.809  10.698  13.393
30706W        W 3120  23.590  40.443  12.457
30707W        W 3121  14.642   2.918  10.980
30708W        W 3122  21.756  31.455   3.294
30709W        W 3123  34.028  34.954   3.722
30710W        W 3124  17.684  15.300  13.370
30711W        W 3125  15.633  43.845   2.857
30712W        W 3126  12.685  36.498   0.908
30713W        W 3127  43.985  42.775  14.302
30714W        W 3128   9.726  23.546   3.210
30715W        W 3129  27.506  35.491  10.896
30716W        W 3130  18.294  29.066  11.442
30717W        W 3131  18.603  31.996   3.193
30718W        W 3132  42.975  31.090  12.980
30719W        W 3133  28.151  34.082   4.163
30720W        W 3134   9.781   7.363   1.258
30721W        W 3135  11.217  27.152  14.010
30722W        W 3136  36.562   7.903  11.606
30723W        W 3137  23.103  21.084   3.224
30724W        W 3138   7.775  34.472  13.045
30725W        W 3139  22.702  30.508  13.876
30726W        W 3140  26.620  31.934  12.855
30727W        W 3141  30.979  14.602  10.456
30728W        W 3142  23.541  29.074  13.025
30729W        W 3143  43.401  22.518  14.472
30730W        W 3144  18.287  33.054   3.156
30731W        W 3145  20.704   8.353  11.105
30732W        W 3146  28.091  18.056  10.048
30733W        W 3147  43.773  33.130   0.472
30734W        W 3148  34.013   8.706  12.363
30735W        W 3149  16.290  15.646   4.138
30736W        W 3150  19.187  44.989  10.121
30737W        W 3151  29.931  40.981   4.681
30738W        W 3152  18.565  40.990  11.602
30739W        W 3153  32.117  18.095   4.743
30740W        W 3154  37.530  13.234   4.250
30741W        W 3155  10.652  28.107   0.327
30742W        W 3156   0.813  32.983  10.494
30743W        W 3157  22.057  32.604  14.311
30744W        W 3158  11.729  26.144   3.180
30745W        W 3159  43.946  37.470   4.718
30746W        W 3160  36.913  32.569   3.655
30747W        W 3161  19.603  33.600  10.976
30748W        W 3162  26.160  32.448  12.564
30749W        W 3163  21.026  18.768  11.924
30750W        W 3164  40.374   8.347   4.290
30751W        W 3165   4.430  15.792   9.549
30752W        W 3166  26.588  33.905   0.380
30753W        W 3167  36.991  34.014  13.952
30754W        W 3168  27.181  16.154  11.474
30755W        W 3169  12.727  24.545   2.841
30756W        W 3170  23.159  39.023  10.568
30757W        W 3171  12.785  38.565  14.788
30758W        W 3172  16.726  28.171   0.793
30759W        W 3173  28.065  37.976  14.435
30760W        W 3174  14.315  16.311  12.373
30761W        W 3175  41.874  24.595   3.211
30762W        W 3176  20.599  39.062  11.587
30763W        W 3177  21.188   4.769   3.749
30764W        W 3178   7.226   4.265  12.995
30765W        W 3179   5.701  43.013  12.499
30766W        W 3180   2.759  27.066   3.722
30767W        W 3181  42.320  44.938   2.797
30768W        W 3182  43.444   4.698  11.472
30769W        W 3183   8.270  21.548   0.316
30770W        W 3184  37.415  37.480   0.812
30771W        W 3185  32.952  12.127   4.722
30772W        W 3186  30.054  15.199   2.882
30773W        W 3187  35.064  17.561   0.964
30774W        W 3188  26.022   7.843  13.314
30775W        W 3189   0.439  24.493  12.551
30776W        W 3190  31.616  24.228   1.402
30777W        W 3191   2.239  19.158  13.522
30778W        W 3192  40.473   3.303   1.262
30779W        W 3193   6.683  28.088   2.342
30780W        W 3194  30.653  34.046   4.282
30781W        W 3195  14.265   4.942  11.467
30782W        W 3196   3.234  24.660  12.056
30783W        W 3197   8.758  17.757   4.124
30784W        W 3198  37.337  21.064   5.263
30785W        W 3199  26.202  29.159   4.307
30786W        W 3200  17.590  39.040   1.896
30787W        W 3201  25.553  31.616  10.902
30788W        W 3202  33.901  21.536  11.497
30789W        W 3203  15.640  13.171   0.246
30790W        W 3204  14.759   0.789   2.695
30791W        W 3205  44.962   0.812   3.183
30792W        W 3206  41.426  21.185   0.426
30793W        W 3207   5.324  32.447   2.375
30794W        W 3208   8.677  38.545  13.974
30795W        W 3209  30.575  34.515   4.303
30796W        W 3210  39.000  17.719  14.944
30797W        W 3211  27.638  35.996  14.372
30798W        W 3212  23.619  18.207   2.357
30799W        W 3213  12.318  10.801  12.874
30800W        W 3214   3.822  19.674   3.729
30801W        W 3215  22.065  17.563   3.369
30802W        W 3216   0.762   7.799  14.790
30803W        W 3217  41.494   2.859   1.864
30804W        W 3218  36.359   4.853  10.533
30805W        W 3219  36.949  21.193  10.970
30806W        W 3220  38.381  23.624  12.824
30807W        W 3221  32.119  35.011  14.373
30808W        W 3222   8.203  43.452   2.215
30809W        W 3223  15.247  12.806   3.791
30810W        W 3224  30.534  13.778   4.193
30811W        W 3225  32.477  20.576   2.381
30812W        W 3226  19.187   9.657   1.435
30813W        W 3227  44.981  40.392  13.939
30814W        W 3228  41.349  31.934   4.153
30815W        W 3229  22.124  28.115   2.748
30816W        W 3230  33.533  10.194  14.386
30817W        W 3231  38.862  16.586  12.441
30818W        W 3232  40.398  15.642   0.282
30819W        W 3233  30.145  10.872  11.479
30820W        W 3234   0.859  15.649   0.332
30821W        W 3235  21.569   2.939  10.527
30822W        W 3236  22.083  37.528   0.361
30823W        W 3237  41.460   9.211  14.494
30824W        W 3238  44.759  17.698  11.581
30825W        W 3239  17.151   6.789  12.447
30826W        W 3240  37.939  24.132  14.373
30827W        W 3241  28.472   9.194   4.723
30828W        W 3242  39.327  21.618  13.045
30829W        W 3243  32.415  33.417  14.822
30830W        W 3244  29.634  42.984  11.044
30831W        W 3245  24.016  32.114  13.836
30832W        W 3246  22.121  13.265  12.940
30833W        W 3247  33.041  28.550  10.616
30834W        W 3248  32.431  31.488   2.768
30835W        W 3249  17.204   8.299  12.502
30836W        W 3250  16.735  36.427  11.867
30837W        W 3251  26.005  13.806  13.515
30838W        W 3252   3.286  39.396  10.626
30839W        W 3253  25.208  12.831   1.245
30840W        W 3254   5.837  11.762  14.027
30841W        W 3255  40.354   3.375   2.360
30842W        W 3256  13.737   9.862  12.578
30843W        W 3257   7.686  37.849  14.948
30844W        W 3258  14.642  28.970  14.405
30845W        W 3259   8.349  19.090   3.360
30846W        W 3260  16.307   5.765  12.975
30847W        W 3261  35.004  26.521   5.296
30848W        W 3262  22.072  22.019  11.513
30849W        W 3263  29.614  40.006  10.495
30850W        W 3264  43.794   4.942   1.333
30851W        W 3265   9.376  15.689  10.587
30852W        W 3266  33.114  40.891   1.849
30853W        W 3267  41.364  18.110   1.385
30854W        W 3268  30.648  18.624   4.215
30855W        W 3269  21.027  25.984   1.837
30856W        W 3270   9.756   7.860  12.494
30857W        W 3271  39.064  12.647   3.750
30858W        W 3272  16.710  29.020  10.631
30859W        W 3273  12.618  31.911  12.578
30860W        W 3274   2.961  14.700   0.333
30861W        W 3275  28.570  40.815  12.570
30862W        W 3276  28.536  18.087   0.895
30863W        W 3277  14.778   4.800   1.343
30864W        W 3278  22.724  22.576  12.519
30865W        W 3279  35.010  19.547   1.787
30866W        W 3280  11.279  39.045  11.516
30867W        W 3281  25.594  30.964  13.994
30868W        W 3282  27.164  42.504  10.456
30869W        W 3283   8.829  11.774   0.878
30870W        W 3284  23.639   6.330  11.975
30871W        W 3285  16.294  41.522   2.202
30872W        W 3286  31.018  32.404  12.402
30873W        W 3287  36.484  21.629  13.054
30874W        W 3288   4.421  40.908   3.350
30875W        W 3289  38.866   1.907  12.833
30876W        W 3290  38.415   7.276   0.284
30877W        W 3291  18.568  24.521  10.643
30878W        W 3292  28.494  22.170   1.700
30879W        W 3293  33.092   9.354  10.575
30880W        W 3294  11.852  36.027  12.427
30881W        W 3295  41.297  26.988   1.410
30882W        W 3296   7.858  11.293   4.238
30883W        W 3297  24.550  18.664   0.828
30884W        W 3298  28.538  29.635   4.795
30885W        W 3299  35.876   7.813  13.866
30886W        W 3300  32.636  30.956  11.960
30887W        W 3301  19.561  11.789   2.257
30888W        W 3302  20.248  37.535   5.141
30889W        W 3303  29.428   7.258  10.136
30890W        W 3304  16.251   2.753   3.215
30891W        W 3305  37.852  23.684  10.889
30892W        W 3306  25.016   9.763  11.395
30893W        W 3307  25.173  32.035   5.292
30894W        W 3308  28.995  15.762  13.899
30895W        W 3309  23.105  44.968   3.235
30896W        W 3310   0.979  12.781   5.110
30897W        W 3311  25.003   9.653  13.861
30898W        W 3312   2.835  12.242   3.171
30899W        W 3313   9.720  20.628  12.978
30900W        W 3314  26.046  25.562  11.021
30901W        W 3315   9.649  38.998   0.252
30902W        W 3316  19.219  25.629  11.871
30903W        W 3317  40.410  27.612   1.446
30904W        W 3318  44.008   6.393   2.891
30905W        W 3319   2.226  20.253   0.443
30906W        W 3320   7.387  37.025   1.770
30907W        W 3321  42.511  12.360  11.999
30908W        W 3322  43.968  43.928   2.705
30909W        W 3323  29.999   4.780  12.521
30910W        W 3324  42.331  26.993  12.054
30911W        W 3325  26.026  12.355   0.357
30912W        W 3326  17.756  41.537  12.908
30913W        W 3327   8.754  12.238  10.587
30914W        W 3328  17.146  18.235  12.002
30915W        W 3329   8.285  39.002  11.384
30916W        W 3330  18.269   6.426   2.706
30917W        W 3331  43.393  14.278  13.001
30918W        W 3332  31.965  11.132   1.341
30919W        W 3333  26.527   5.282  14.967
30920W        W 3334  16.700  24.725  12.981
30921W        W 3335  33.600  16.314   3.671
30922W        W 3336  44.385  39.548  13.056
30923W        W 3337  22.139  44.474   3.850
30924W        W 3338  37.359   1.258   4.821
30925W        W 3339   0.424  17.750   2.180
30926W        W 3340  16.780   5.259  13.910
30927W        W 3341  38.923  39.912  11.534
30928W        W 3342   7.712  42.028  13.966
30929W        W 3343  20.719  24.633   1.428
30930W        W 3344  32.590  16.736  13.402
30931W        W 3345  10.297  22.720   4.689
30932W        W 3346  10.701  23.511   0.852
30933W        W 3347  44.282  30.558  12.988
30934W        W 3348  33.890  15.695  13.811
30935W        W 3349  11.690  24.513  10.888
30936W        W 3350  43.290  11.625  14.402
30937W        W 3351   2.407  44.305   3.697
30938W        W 3352  12.182  37.032  13.371
30939W        W 3353  18.782  25.619   3.793
30940W        W 3354  18.062   3.884   0.392
30941W        W 3355  31.431   0.408   1.863
30942W        W 3356  32.444   9.257   0.450
30943W        W 3357  37.890  39.010  13.812
30944W        W 3358  15.651  15.606  14.495
30945W        W 3359   4.286  12.128  13.463
30946W        W 3360   7.708  38.822   0.405
30947W        W 3361  25.053   6.715   3.751
30948W        W 3362  38.459  17.750  10.587
30949W        W 3363  16.796   6.710  10.446
30950W        W 3364  13.168   7.850  10.967
30951W        W 3365   3.327  19.285  13.405
30952W        W 3366  26.499  15.326   2.199
30953W        W 3367  15.611  27.011  13.904
30954W        W 3368  16.283  23.701  12.854
30955W        W 3369  19.099  38.394  12.367
30956W        W 3370  43.501  35.530   2.284
30957W        W 3371  41.957   4.222  12.405
30958W        W 3372  26.097  12.118  13.064
30959W        W 3373  15.703   8.657   3.249
30960W        W 3374  39.038  20.206  12.954
30961W        W 3375  15.750  26.205  10.645
30962W        W 3376  18.171  21.210  13.338
30963W        W 3377   7.874  40.459   2.788
30964W        W 3378  36.965   4.378   0.413
30965W        W 3379  25.040   4.425  12.525
30966W        W 3380  36.561  31.489  14.321
30967W        W 3381  17.098  11.839  13.485
30968W        W 3382  34.989  44.449   2.888
30969W        W 3383  11.167   8.837   3.280
30970W        W 3384  17.714   9.878  14.997
30971W        W 3385   3.883  32.896  10.966
30972W        W 3386   7.746   2.303   1.277
30973W        W 3387  34.472   5.316   0.399
30974W        W 3388  26.693  44.841   5.687
30975W        W 3389  31.455  43.362  10.643
30976W        W 3390  19.740  22.008   4.620
30977W        W 3391  32.947  18.242   4.209
30978W        W 3392  16.807  11.331   4.132
30979W        W 3393  38.351  37.969  13.470
30980W        W 3394  25.006  36.941  14.835
30981W        W 3395  43.935  36.592   0.872
30982W        W 3396  40.527  42.354  10.906
30983W        W 3397  32.405  15.281   0.279
30984W        W 3398  15.084  31.465  11.053
30985W        W 3399  25.207  37.991   1.803
30986W        W 3400  27.569  40.493   3.667
30987W        W 3401  26.652  16.595   0.432
30988W        W 3402  27.961  14.628  13.018
30989W        W 3403  27.150  26.172  10.501
30990W        W 3404  24.634  28.991  14.933
30991W        W 3405   9.714  21.751   1.407
30992W        W 3406  31.407  30.550   1.708
30993W        W 3407  17.218   4.328  13.540
30994W        W 3408  38.434   5.818  12.506
30995W        W 3409   3.944   4.913   9.954
30996W        W 3410   9.358  30.026   1.213
30997W        W 3411  22.252   7.275  14.410
30998W        W 3412  31.420  29.021   4.785
30999W        W 3413  37.457  30.983  12.965
31000W        W 3414   8.234  23.181   4.774
31001W        W 3415  22.743   9.338   1.878
31002W        W 3416   6.870  12.835   3.868
31003W        W 3417  15.271   5.334  11.950
31004W        W 3418  12.270  24.093   0.310
31005W        W 3419  15.172  41.993   3.201
31006W        W 3420  21.182  26.544   5.081
31007W        W 3421  10.707  19.198  11.372
31008W        W 3422   4.860  10.242  12.373
31009W        W 3423  15.155  29.928   0.343
31010W        W 3424   8.255  15.325   3.748
31011W        W 3425   6.402   1.315   1.323
31012W        W 3426   8.690  34.994   2.332
31013W        W 3427   3.384  10.330   2.295
31014W        W 3428   4.842  44.434   4.310
31015W        W 3429  36.508  31.118   1.257
31016W        W 3430   8.394  13.715  13.965
31017W        W 3431  37.862  28.153   3.758
31018W        W 3432  30.615  39.437   3.759
31019W        W 3433  34.045  41.992  10.551
31020W        W 3434  41.516  39.559  11.995
31021W        W 3435  33.121  44.966  13.857
31022W        W 3436  32.636  15.098  10.408
31023W        W 3437  18.290  13.611   1.846
31024W        W 3438   8.755  13.111   5.270
31025W        W 3439  13.339  31.140   0.904
31026W        W 3440  33.988  40.449  13.421
31027W        W 3441  33.441  24.515   3.156
31028W        W 3442  43.395  18.711   2.807
31029W        W 3443  41.311   2.865   0.855
31030W        W 3444   6.729  26.473   3.242
31031W        W 3445  25.530  28.614   0.458
31032W        W 3446  12.360  28.028  14.460
31033W        W 3447  26.020   7.309   1.246
31034W        W 3448  13.339  19.691  13.380
31035W        W 3449  42.915  32.587   1.774
31036W        W 3450  11.319  34.533   3.792
31037W        W 3451  26.107  32.530  11.946
31038W        W 3452  16.582  32.546   2.405
31039W        W 3453   8.233  35.998  14.374
31040W        W 3454  22.044   7.237  10.978
31041W        W 3455  32.454  26.476   4.223
31042W        W 3456  17.078   1.927  14.011
31043W        W 3457  14.298  15.712  14.817
31044W        W 3458  33.003  26.202  14.363
31045W        W 3459  32.984   0.314  10.985
31046W        W 3460   5.754   9.669  11.574
31047W        W 3461  28.580  30.995   3.310
31048W        W 3462  32.987   7.354   4.347
31049W        W 3463  32.081   0.467  12.541
31050W        W 3464   9.721  25.507   3.173
31051W        W 3465   5.397  27.075  14.306
31052W        W 3466  27.118  12.811  14.843
31053W        W 3467  42.293  42.004   3.763
31054W        W 3468  16.759  29.063   2.684
31055W        W 3469  30.993  35.949   2.417
31056W        W 3470  28.073  15.215   1.337
31057W        W 3471   1.452  26.176   2.847
31058W        W 3472  24.996  18.769  14.839
31059W        W 3473  29.560  42.910   3.791
31060W        W 3474  22.219   3.424  12.343
31061W        W 3475  29.004   5.401   1.876
31062W        W 3476   7.355  28.947  14.905
31063W        W 3477  34.029  13.671   0.808
31064W        W 3478   9.665  39.840  11.009
31065W        W 3479  44.474  12.190   2.896
31066W        W 3480  25.638  24.496  10.606
31067W        W 3481   3.293  18.170  14.426
31068W        W 3482   3.715  44.991   2.312
31069W        W 3483  33.946  13.799  13.927
31070W        W 3484  32.921   7.271  11.965
31071W        W 3485  17.289  29.430   0.732
31072W        W 3486  11.848  15.292  13.799
31073W        W 3487  36.877  41.852   3.761
31074W        W 3488  10.791   0.868  14.507
31075W        W 3489   7.417  41.491  12.434
31076W        W 3490  20.636  16.586   2.418
31077W        W 3491  20.168  16.716   0.849
31078W        W 3492  35.910  43.949   3.686
31079W        W 3493   6.216  14.664   0.744
31080W        W 3494  32.444  37.362   3.716
31081W        W 3495  25.993  34.957   2.216
31082W        W 3496  12.298  38.922   3.208
31083W        W 3497  15.676  20.757   4.220
31084W        W 3498  13.697  44.306   1.212
31085W        W 3499   8.784  43.769  14.474
31086W        W 3500  43.771  29.040   0.270
31087W        W 3501   3.828   0.809  11.092
31088W        W 3502  37.519  12.315   4.647
31089W        W 3503   3.283  34.580   2.268
31090W        W 3504   3.777   0.869  12.437
31091W        W 3505   5.353  14.785   2.295
31092W        W 3506  27.107  32.491   2.417
31093W        W 3507   4.382  35.099  14.997
31094W        W 3508  12.628   4.909  12.463
31095W        W 3509  41.025  35.904  11.992
31096W        W 3510  32.620   5.733  13.051
31097W        W 3511  14.812  17.258   4.818
31098W        W 3512  29.940  30.137  11.548
31099W        W 3513  17.082  33.492   1.302
31100W        W 3514  17.109  37.062   2.386
31101W        W 3515  20.590  32.563  14.493
31102W        W 3516   8.711   6.206   1.289
31103W        W 3517  39.387   2.784   1.400
31104W        W 3518  34.893  19.771  14.307
31105W        W 3519  15.178  32.938   1.837
31106W        W 3520  20.115  22.590  14.951
31107W        W 3521  19.096  25.011  14.467
31108W        W 3522   1.872  27.462   3.744
31109W        W 3523   9.184  41.452  10.544
31110W        W 3524  30.447  24.705   0.444
31111W        W 3525  26.503  27.450   3.697
31112W        W 3526   4.313  32.581   3.650
31113W        W 3527   4.757  12.712   4.273
31114W        W 3528  24.621  32.934  14.009
31115W        W 3529  34.875  18.196   1.344
31116W        W 3530  36.935  29.623  13.495
31117W        W 3531  31.146  29.609   2.668
31118W        W 3532  17.709   9.881   3.198
31119W        W 3533   1.855   2.903   4.227
31120W        W 3534  10.871  26.164  12.069
31121W        W 3535  35.908   2.307   2.712
31122W        W 3536  12.679  35.396  11.073
31123W        W 3537  12.308  42.881  14.513
31124W        W 3538  16.698  35.430   0.301
31125W        W 3539   1.296  11.868  14.411
31126W        W 3540  42.993  33.960   2.699
31127W        W 3541  16.743  13.739  14.937
31128W        W 3542  38.523  13.231  13.977
31129W        W 3543   5.895   7.755  13.504
31130W        W 3544  24.003  19.733   0.908
31131W        W 3545  38.832  21.048   3.230
31132W        W 3546  14.834  29.988  11.600
31133W        W 3547  42.919  13.285  10.588
31134W        W 3548  24.213  20.268   3.745
31135W        W 3549  30.658  41.524   1.771
31136W        W 3550  41.537  26.564   4.163
31137W        W 3551   9.873  29.533   1.408
31138W        W 3552  26.633  17.680  10.966
31139W        W 3553  28.159   0.298  11.452
31140W        W 3554  24.593  34.508   1.430
31141W        W 3555  19.652  13.192   2.793
31142W        W 3556  25.478  26.097  14.346
31143W        W 3557  11.213  11.775   2.317
31144W        W 3558   3.360  16.133  10.432
31145W        W 3559  23.006   8.717  14.437
31146W        W 3560  28.521  33.487   3.639
31147W        W 3561  18.591  10.337  10.927
31148W        W 3562  34.015  38.516  14.883
31149W        W 3563  32.023  12.797  10.160
31150W        W 3564  28.584  39.006   0.948
31151W        W 3565  31.470  38.056   2.357
31152W        W 3566  20.099  32.047  13.885
31153W        W 3567  29.030  43.931   0.960
31154W        W 3568  15.813  28.068  12.460
31155W        W 3569  34.068   0.934   3.332
31156W        W 3570  34.537  36.008  13.011
31157W        W 3571  28.654  15.674   2.268
31158W        W 3572  31.065  44.464   0.411
31159W        W 3573   3.924  34.471  12.868
31160W        W 3574  20.111  22.713  11.031
31161W        W 3575  29.932   2.241  11.500
31162W        W 3576  16.739  10.285  11.523
31163W        W 3577   7.862  11.775  10.973
31164W        W 3578  18.178  31.043  11.577
31165W        W 3579  20.126  22.129  11.887
31166W        W 3580  14.285  12.728  14.360
31167W        W 3581  26.050   0.888   1.309
31168W        W 3582  42.380  15.735   3.324
31169W        W 3583  44.757  31.947  13.369
31170W        W 3584  31.068  16.744   0.755
31171W        W 3585   9.691  27.019   1.443
31172W        W 3586   8.841  21.221  12.846
31173W        W 3587  42.952  39.960  13.932
31174W        W 3588  41.303  24.140   3.382
31175W        W 3589  37.026  31.534   0.316
31176W        W 3590   1.833   5.867   1.789
31177W        W 3591  18.756  10.259   3.693
31178W        W 3592  19.080  44.909  12.017
31179W        W 3593  38.563  25.521   0.781
31180W        W 3594  41.860  24.212   3.801
31181W        W 3595  12.767  14.719  10.455
31182W        W 3596  38.027  34.001  11.465
31183W        W 3597  26.500  40.393   0.423
31184W        W 3598  40.049  30.939  10.463
31185W        W 3599  22.563  41.832  12.856
31186W        W 3600  15.764  32.906  11.482
31187W        W 3601  25.519  11.358   3.676
31188W        W 3602  35.542   6.785  14.024
31189W        W 3603   8.740  38.333   3.750
31190W        W 3604  28.624  14.820  11.592
31191W        W 3605  25.094   9.679  14.812
31192W        W 3606  21.082  40.000  13.367
31193W        W 3607   9.734   4.220  14.997
31194W        W 3608   1.343  37.963  11.523
31195W        W 3609  25.627  17.660   4.221
31196W        W 3610  34.090   5.286  13.806
31197W        W 3611   1.871  26.479   4.306
31198W        W 3612   3.750  29.136   4.297
31199W        W 3613   1.271  29.489   2.252
31200W        W 3614  29.667  40.317   2.351
31201W        W 3615  24.072  17.623   3.818
31202W        W 3616  27.045  34.561  14.829
31203W        W 3617  14.113  31.537   2.900
31204W        W 3618   1.790  33.932  12.074
31205W        W 3619  29.163  32.571  10.912
31206W        W 3620   3.363  29.114  13.797
31207W        W 3621  43.947  20.204   0.268
31208W        W 3622  44.389  15.731   0.465
31209W        W 3623   3.262  22.242  10.522
31210W        W 3624  27.490  11.352   3.195
31211W        W 3625  32.535  34.879  14.382
31212W        W 3626  12.672   7.253   2.339
31213W        W 3627  26.486  17.797  11.907
31214W        W 3628  18.583  15.639   1.432
31215W        W 3629  20.526  13.224   2.697
31216W        W 3630  17.710  17.798  11.940
31217W        W 3631  16.786  20.137  12.431
31218W        W 3632  23.694  30.519   4.783
31219W        W 3633  44.304  29.066  13.842
31220W        W 3634  44.828  29.646   2.318
31221W        W 3635  12.332  10.207  13.875
31222W        W 3636  34.473  32.935  14.933
31223W        W 3637  10.291  38.023  14.459
31224W        W 3638  36.968  32.581  13.044
31225W        W 3639  37.552  31.401   2.255
31226W        W 3640  29.979   1.828   1.865
31227W        W 3641   4.312  13.311   9.494
31228W        W 3642   9.696   8.383  14.947
31229W        W 3643  37.946  41.373   2.278
31230W        W 3644  28.611   4.325   1.756
31231W        W 3645   6.212  12.678  10.953
31232W        W 3646  23.180  29.080   3.330
31233W        W 3647  15.158  42.466   2.873
31234W        W 3648  20.769  34.104   4.334
31235W        W 3649  41.344  34.506  13.389
31236W        W 3650   1.975  23.135  13.470
31237W        W 3651   4.218   3.791  12.880
31238W        W 3652  15.181  28.527  13.417
31239W        W 3653  44.362   2.364   3.339
31240W        W 3654  29.118  18.200   0.435
31241W        W 3655  11.373  40.484   2.802
31242W        W 3656  15.629  31.056  14.301
31243W        W 3657  30.461   3.391   3.159
31244W        W 3658   4.368   3.232  12.386
31245W        W 3659  33.620  23.492   2.220
31246W        W 3660  17.791  29.060   2.736
31247W        W 3661  11.804  17.160  10.587
31248W        W 3662  31.905  35.057   0.850
31249W        W 3663  31.140  29.658   3.854
31250W        W 3664  43.502  25.980   4.691
31251W        W 3665   5.250  33.453  14.781
31252W        W 3666  42.443  16.643   1.903
31253W        W 3667   7.406  42.942   1.449
31254W        W 3668   3.382  40.929   2.747
31255W        W 3669  19.079  31.900  10.973
31256W        W 3670  37.485  18.756  14.848
31257W        W 3671   4.743  11.699  14.020
31258W        W 3672  11.652  30.026   0.458
31259W        W 3673  42.502  44.262  14.869
31260W        W 3674  31.098   9.755   4.825
31261W        W 3675  43.902  17.716   4.681
31262W        W 3676  17.610  22.105   2.240
31263W        W 3677   4.941  25.126  13.888
31264W        W 3678   4.939   7.273   2.390
31265W        W 3679  40.918   9.675  14.372
31266W        W 3680  20.695   4.369   3.709
31267W        W 3681   4.226  17.192  12.465
31268W        W 3682   6.234  32.553   1.340
31269W        W 3683  44.401  26.982  14.812
31270W        W 3684  27.010  41.023  10.449
31271W        W 3685  32.018   4.775   4.280
31272W        W 3686  18.096  14.715   4.189
31273W        W 3687  23.083  31.955  14.289
31274W        W 3688   3.415   8.194  14.784
31275W        W 3689   1.260  35.571   2.252
31276W        W 3690  42.369  26.109   1.334
31277W        W 3691   3.385  43.972  14.434
31278W        W 3692   3.322   2.313  12.916
31279W        W 3693  27.536   5.905  11.117
31280W        W 3694  32.138  17.100  12.510
31281W        W 3695  15.130   4.806   0.814
31282W        W 3696  21.116  11.657  14.375
31283W        W 3697  34.935  38.493   0.876
31284W        W 3698  34.021  11.683  11.962
31285W        W 3699   1.409  36.511   0.815
31286W        W 3700  14.128  34.979   0.848
31287W        W 3701  14.731  44.480  13.925
31288W        W 3702  32.431  25.005  13.063
31289W        W 3703  40.438  31.969  14.905
31290W        W 3704  41.825  22.714   3.152
31291W        W 3705  43.988  33.927   4.606
31292W        W 3706  40.891  16.242   2.869
31293W        W 3707  32.576  21.588  10.931
31294W        W 3708  15.799  43.871   4.133
31295W        W 3709  25.023  43.906  13.900
31296W        W 3710  17.218  42.843  12.350
31297W        W 3711   5.688  17.080  12.996
31298W        W 3712   5.833  22.663  14.943
31299W        W 3713  29.600  35.090   5.185
31300W        W 3714   2.301  14.739   4.628
31301W        W 3715  36.527  16.695  13.818
31302W        W 3716   2.885   4.915   4.220
31303W        W 3717  32.637  18.790   4.713
31304W        W 3718  16.574  23.084   4.835
31305W        W 3719  20.156  23.652   0.824
31306W        W 3720  43.372  29.613  11.475
31307W        W 3721  24.998  42.321   0.289
31308W        W 3722   0.410  35.996   3.829
31309W        W 3723  12.691  26.079   4.791
31310W        W 3724  29.664  33.076   3.846
31311W        W 3725  20.197  39.983  12.862
31312W        W 3726  15.109   2.900   4.155
31313W        W 3727  36.048  39.864   3.785
31314W        W 3728  41.981  21.681   1.785
31315W        W 3729  17.305  42.911   1.437
31316W        W 3730  24.554   3.393   4.699
31317W        W 3731  31.602  29.135   1.341
31318W        W 3732  33.115  12.228  14.947
31319W        W 3733   6.401   1.334  10.531
31320W        W 3734   3.938   5.237  11.398
31321W        W 3735  40.054  20.692  13.815
31322W        W 3736   6.193  22.578   3.642
31323W        W 3737  44.498  42.028  12.361
31324W        W 3738  15.325  43.352   4.817
31325W        W 3739   1.790  44.267  14.358
31326W        W 3740   8.324  37.378   1.818
31327W        W 3741  38.415   6.680  14.829
31328W        W 3742  26.047  13.733  10.908
31329W        W 3743  28.026  31.592   2.828
31330W        W 3744  16.138  43.325  12.982
31331W        W 3745  22.080  11.737  11.093
31332W        W 3746  43.961  19.695  12.937
31333W        W 3747  24.586  32.099  10.546
31334W        W 3748  20.173  23.166   0.359
31335W        W 3749  13.660  41.301  12.043
31336W        W 3750   0.439  20.251  13.481
31337W        W 3751  29.488   2.738   2.796
31338W        W 3752  22.587   9.849   4.724
31339W        W 3753  22.213  13.255   4.786
31340W        W 3754   7.853  16.682   3.179
31341W        W 3755   8.198  43.896  11.998
31342W        W 3756  37.345   5.816  11.429
31343W        W 3757  23.564  38.545   3.772
31344W        W 3758  35.000  36.066  10.158
31345W        W 3759  28.013  26.142   1.780
31346W        W 3760  11.832  32.487  13.535
31347W        W 3761  40.800   3.232   2.802
31348W        W 3762   1.835  33.061  10.561
31349W        W 3763   4.856  30.619  14.915
31350W        W 3764  44.830  29.465   2.873
31351W        W 3765  38.887  15.609   3.702
31352W        W 3766  33.001  19.121  14.765
31353W        W 3767  12.233  18.699  14.848
31354W        W 3768  23.731  38.489  12.939
31355W        W 3769  18.288  31.056   2.359
31356W        W 3770  38.530  14.185  13.395
31357W        W 3771   4.876  30.149   0.921
31358W        W 3772   2.777  23.701  11.080
31359W        W 3773   0.252   4.297   3.285
31360W        W 3774  13.319  24.592  11.565
31361W        W 3775  36.923   0.745  10.456
31362W        W 3776  28.117  26.994   2.200
31363W        W 3777  23.014  38.364   3.668
31364W        W 3778   7.757  28.489   4.172
31365W        W 3779  17.783  37.408   2.795
31366W        W 3780  18.213   3.320  11.994
31367W        W 3781  26.187  23.025   2.347
31368W        W 3782   2.384   0.745   2.411
31369W        W 3783  22.065  38.363   2.351
31370W        W 3784  39.401   7.764   4.764
31371W        W 3785  10.347  31.538  14.419
31372W        W 3786  24.989  24.662   3.664
31373W        W 3787   6.814  25.596   0.733
31374W        W 3788  33.468  35.027  14.324
31375W        W 3789  43.976  34.380   3.342
31376W        W 3790  44.288  25.552  10.474
31377W        W 3791  10.852  31.502  13.486
31378W        W 3792  16.135  24.485  12.080
31379W        W 3793  33.890  35.006   4.175
31380W        W 3794  23.992  37.948  13.041
31381W        W 3795  35.549  32.449   3.641
31382W        W 3796   1.884   7.725  14.492
31383W        W 3797  20.199  33.942   3.359
31384W        W 3798  40.976  18.090   2.294
31385W        W 3799  21.151  28.183  12.999
31386W        W 3800  21.707  21.115   1.223
31387W        W 3801  19.123  22.690  12.388
31388W        W 3802  27.635  38.454  13.428
31389W        W 3803  41.512  37.472   0.407
31390W        W 3804  35.585  43.912   1.307
31391W        W 3805  20.231  30.153   3.779
31392W        W 3806   4.383  21.553  14.471
31393W        W 3807  44.945   1.399   4.327
31394W        W 3808   8.832  20.125  10.973
31395W        W 3809  18.605  33.560  11.974
31396W        W 3810   5.767   9.285   1.758
31397W        W 3811  34.598  25.006  11.494
31398W        W 3812  22.724   2.952  14.943
31399W        W 3813  27.149   0.365   3.851
31400W        W 3814  43.499   8.269   3.844
31401W        W 3815  13.186  26.061   0.259
31402W        W 3816  17.771  30.119  13.937
31403W        W 3817  27.056  13.127   3.860
31404W        W 3818  32.623   0.793   3.772
31405W        W 3819  39.040  13.249  12.899
31406W        W 3820   2.939  38.058   1.879
31407W        W 3821  17.290  35.383   2.840
31408W        W 3822   8.901  15.777  13.062
31409W        W 3823  22.041  42.796   2.791
31410W        W 3824   1.410  29.651   1.447
31411W        W 3825   0.877  19.767   2.764
31412W        W 3826  15.240  22.079  14.322
31413W        W 3827   6.258   0.367   0.278
31414W        W 3828  25.178   8.828  14.789
31415W        W 3829  34.869   1.295   1.389
31416W        W 3830  23.204   1.413  13.311
31417W        W 3831  22.068  42.949  14.355
31418W        W 3832  25.617  19.135   3.863
31419W        W 3833  35.570   9.644  13.895
31420W        W 3834  39.539  16.638  13.812
31421W        W 3835   7.379  35.543  12.016
31422W        W 3836  24.551  13.267   2.294
31423W        W 3837  26.615  37.006   2.806
31424W        W 3838  23.167  40.330  13.990
31425W        W 3839   9.864  27.568  10.937
31426W        W 3840  31.117  21.127   2.841
31427W        W 3841  38.832  39.926   4.231
31428W        W 3842  38.980  29.054   2.761
31429W        W 3843  36.434  23.663   9.978
31430W        W 3844   0.479   5.899  11.925
31431W        W 3845  23.083  31.404  12.882
31432W        W 3846  24.188  35.106  10.629
31433W        W 3847  14.741  10.365   1.744
31434W        W 3848  11.274   0.756   2.868
31435W        W 3849  27.141  28.979  11.968
31436W        W 3850  36.078  12.637  10.531
31437W        W 3851  26.663  30.916   0.464
31438W        W 3852  43.937  42.896   3.861
31439W        W 3853  10.363  14.728  14.431
31440W        W 3854  35.469  40.437  14.992
31441W        W 3855  11.264  10.369   0.906
31442W        W 3856  34.057   9.197   1.418
31443W        W 3857   1.785  41.920  11.449
31444W        W 3858  10.360  29.660   3.162
31445W        W 3859  11.646   4.262   4.690
31446W        W 3860  38.017  24.984  14.441
31447W        W 3861   9.380  15.097   2.400
31448W        W 3862  11.641  23.680   5.255
31449W        W 3863   8.880   2.305   5.169
31450W        W 3864  29.657  10.667   2.749
31451W        W 3865   2.809  22.675   1.271
31452W        W 3866   6.921  38.566   1.732
31453W        W 3867   4.273   7.347  13.384
31454W        W 3868  25.580  41.413  12.853
31455W        W 3869  12.645   5.882   2.851
31456W        W 3870  42.985  25.199  10.602
31457W        W 3871   4.257   9.808   0.750
31458W        W 3872  33.065  42.440   2.393
31459W        W 3873  22.100   0.278   4.644
31460W        W 3874   1.463  37.951   0.348
31461W        W 3875   8.314   2.398  10.508
31462W        W 3876  18.686  20.200  11.913
31463W        W 3877  27.981  36.486  14.338
31464W        W 3878  16.653   6.187   2.374
31465W        W 3879  44.800  21.750  10.967
31466W        W 3880  25.049  37.377  13.874
31467W        W 3881  25.550  28.524  12.011
31468W        W 3882  10.838  10.290   1.216
31469W        W 3883   8.185  40.358  12.429
31470W        W 3884  17.196  24.110   3.270
31471W        W 3885  31.971   8.250   3.855
31472W        W 3886   5.435  12.120   9.578
31473W        W 3887  11.668   7.194  13.978
31474W        W 3888  11.811   3.861   4.242
31475W        W 3889  33.001  27.471   4.760
31476W        W 3890   6.710   4.726   2.845
31477W        W 3891  14.687  30.622  11.429
31478W        W 3892  18.271  39.344   0.795
31479W        W 3893   9.837  34.047   3.178
31480W        W 3894  33.912  22.550   4.597
31481W        W 3895  22.121  11.632  11.531
31482W        W 3896   2.921  39.977  11.585
31483W        W 3897  28.069  31.619   4.627
31484W        W 3898  28.607   6.233  14.766
31485W        W 3899  10.299  19.255   1.880
31486W        W 3900  17.177  29.137  14.931
31487W        W 3901  34.480  37.391   2.891
31488W        W 3902  43.404  22.539  10.991
31489W        W 3903  25.493  28.623   3.204
31490W        W 3904  31.073  17.080   3.204
31491W        W 3905  27.584   4.334   1.907
31492W        W 3906  40.839  41.480  14.953
31493W        W 3907  28.579   9.386  14.969
31494W        W 3908  28.476  34.908   0.298
31495W        W 3909  26.464  10.820   3.376
31496W        W 3910  11.230   3.297   1.323
31497W        W 3911  15.166  21.733   0.788
31498W        W 3912   2.917  30.462   2.313
31499W        W 3913  16.600   6.314   0.304
31500W        W 3914   7.391  29.174   4.190
31501W        W 3915  20.117   5.793   4.738
31502W        W 3916  27.950  35.982   4.605
31503W        W 3917  17.561  13.235   3.806
31504W        W 3918  38.568  10.836   3.808
31505W        W 3919  27.043  40.932  11.874
31506W        W 3920  12.137   1.264   1.866
31507W        W 3921  19.604   8.864  12.431
31508W        W 3922   3.418   9.672  14.954
31509W        W 3923  27.023  35.870   3.686
31510W        W 3924   4.787  34.500  14.334
31511W        W 3925  21.215   0.383   4.338
31512W        W 3926  44.505   5.891   0.872
31513W        W 3927  19.087  34.566   4.282
31514W        W 3928  13.158   9.669   4.280
31515W        W 3929   5.898  26.193   0.293
31516W        W 3930  28.582  28.168   1.821
31517W        W 3931  38.935  23.083  13.505
31518W        W 3932  44.789   2.961  12.933
31519W        W 3933   5.431  44.970   1.353
31520W        W 3934  10.234   8.751   1.804
31521W        W 3935  23.564  23.069  12.990
31522W        W 3936  43.884   0.466  10.985
31523W        W 3937  16.645  35.599  12.351
31524W        W 3938  35.106   0.288  11.494
31525W        W 3939  28.142   0.408  10.641
31526W        W 3940   8.402   4.350  11.391
31527W        W 3941  12.173  28.112  11.418
31528W        W 3942  24.627  26.518   2.243
31529W        W 3943  11.690  23.653  11.516
31530W        W 3944  40.441  40.990  10.408
31531W        W 3945   1.404   7.324   1.282
31532W        W 3946  10.786  41.923  11.386
31533W        W 3947  31.008  29.991  11.122
31534W        W 3948  27.154  25.470   3.862
31535W        W 3949  14.698  15.768  10.997
31536W        W 3950   8.289  13.228   3.149
31537W        W 3951   6.774   0.763  11.578
31538W        W 3952   6.414  16.749  10.485
31539W        W 3953  33.579   3.922   4.171
31540W        W 3954  41.958   8.784   1.788
31541W        W 3955   2.346  24.986  14.324
31542W        W 3956  10.214  33.521   5.155
31543W        W 3957  43.377   2.301   1.847
31544W        W 3958  22.014  24.206  13.892
31545W        W 3959   4.257  28.631   3.724
31546W        W 3960  44.986   7.879  11.965
31547W        W 3961  13.845  18.709  12.006
31548W        W 3962  41.305  39.465  10.480
31549W        W 3963  38.978   7.804   1.897
31550W        W 3964   4.723  33.624   4.320
31551W        W 3965  44.259  17.558  10.040
31552W        W 3966   2.244   9.219  12.492
31553W        W 3967  18.727   9.677  10.985
31554W        W 3968   0.840   1.773  13.829
31555W        W 3969   0.802   6.906   1.723
31556W        W 3970  26.991  10.235   4.342
31557W        W 3971   6.919  12.311  13.402
31558W        W 3972  21.567  15.174   4.319
31559W        W 3973   1.874  23.508  14.939
31560W        W 3974   1.377  30.935  13.416
31561W        W 3975  11.711  13.328   0.796
31562W        W 3976  42.964  42.407   2.375
31563W        W 3977  32.987  40.810  13.895
31564W        W 3978  34.041  41.519   4.156
31565W        W 3979  44.994  38.478  11.419
31566W        W 3980   5.818   4.339  13.897
31567W        W 3981  19.683  35.439   4.139
31568W        W 3982  29.942  23.173  11.884
31569W        W 3983  35.491   0.949   1.933
31570W        W 3984  28.471  16.095  12.434
31571W        W 3985  25.129   3.255  12.945
31572W        W 3986   5.372  29.986  11.392
31573W        W 3987  26.499  44.988   0.916
31574W        W 3988  13.837  16.641   3.253
31575W        W 3989  13.670  36.035   0.248
31576W        W 3990  20.169   9.749   2.849
31577W        W 3991  17.700  14.146  13.845
31578W        W 3992  31.615  31.939  12.542
31579W        W 3993   5.781  30.008   4.623
31580W        W 3994  17.728  21.541   0.342
31581W        W 3995  30.539   4.870   1.340
31582W        W 3996   4.787  14.641  10.639
31583W        W 3997  28.539   2.246  12.559
31584W        W 3998  39.472  17.081   4.663
31585W        W 3999  15.701  32.085   4.657
31586W        W 4000  36.904  10.639   3.771
31587W        W 4001  40.927  15.256   4.297
31588W        W 4002  41.894  12.835   0.855
31589W        W 4003   8.878  23.494   2.752
31590W        W 4004  12.282  42.334  13.873
31591W        W 4005   8.171  41.321  14.936
31592W        W 4006  40.508  22.219   3.758
31593W        W 4007   7.312  34.904   4.695
31594W        W 4008   7.315  11.260   0.456
31595W        W 4009  15.124  41.923  11.544
31596W        W 4010  18.609  16.143   0.851
31597W        W 4011  10.222   7.378   1.878
31598W        W 4012  30.482  19.735  13.922
31599W        W 4013  34.424  29.074  13.543
31600W        W 4014  30.920  10.366   1.885
31601W        W 4015  24.138  10.876  12.357
31602W        W 4016  27.184  11.812   2.190
31603W        W 4017  17.300  29.146   4.773
31604W        W 4018  11.797  18.183   3.324
31605W        W 4019   8.396  41.894  14.921
31606W        W 4020  34.110  44.964  14.331
31607W        W 4021  33.438  39.449  11.551
31608W        W 4022  24.559  30.942   0.934
31609W        W 4023  20.221  38.456   2.741
31610W        W 4024  23.554  18.730   9.608
31611W        W 4025  33.881   0.831   4.187
31612W        W 4026  40.348  31.452  11.402
31613W        W 4027  23.022  10.731  12.497
31614W        W 4028  39.870  36.587  12.912
31615W        W 4029  29.980  23.603   2.400
31616W        W 4030  20.680  10.865   1.782
31617W        W 4031   2.839  22.139  11.454
31618W        W 4032   6.309  44.350  13.062
31619W        W 4033  41.809   1.436   4.205
31620W        W 4034  11.260  44.278   2.364
31621W        W 4035  16.211  12.273   2.900
31622W        W 4036  24.015  35.441  14.355
31623W        W 4037  16.313  12.231  12.055
31624W        W 4038  19.211  13.156   2.707
31625W        W 4039  29.983  44.296   1.817
31626W        W 4040  11.678  11.637  10.070
31627W        W 4041  39.918  27.490  11.074
31628W        W 4042  10.637  32.088  10.524
31629W        W 4043  35.017  13.771   1.356
31630W        W 4044   6.729  23.208   2.727
31631W        W 4045   8.896  37.882  12.917
31632W        W 4046  26.110   0.879   1.755
31633W        W 4047  30.977   3.812  14.893
31634W        W 4048   4.387  37.556  11.395
31635W        W 4049  29.081  21.176  13.407
31636W        W 4050  42.291  27.546   0.930
31637W        W 4051  14.304  22.645   2.331
31638W        W 4052  17.609  15.585   1.405
31639W        W 4053   9.865  19.616  13.825
31640W        W 4054  36.463   4.292  11.992
31641W        W 4055  38.447  11.203  10.978
31642W        W 4056  20.204  35.092   1.813
31643W        W 4057  28.025  36.926   2.314
31644W        W 4058   6.303  25.031  11.409
31645W        W 4059  16.729   1.282  13.346
31646W        W 4060  30.076  33.607  12.059
31647W        W 4061   9.809  39.489   2.253
31648W        W 4062  17.693   7.183  11.111
31649W        W 4063   1.270   2.307  14.418
31650W        W 4064  35.047  42.460   3.777
31651W        W 4065  16.266   8.896  12.092
31652W        W 4066   6.272  20.541  13.987
31653W        W 4067  26.469  42.297  10.552
31654W        W 4068  11.828  43.300  12.012
31655W        W 4069  19.630  14.801  12.434
31656W        W 4070   8.695   0.446   2.183
31657W        W 4071  18.211  26.579   4.219
31658W        W 4072  36.454  37.999  10.603
31659W        W 4073  14.800  36.027  12.926
31660W        W 4074   5.903  17.667   1.272
31661W        W 4075   6.725  34.381  13.432
31662W        W 4076   7.343  10.351   0.270
31663W        W 4077  31.044   0.912   0.758
31664W        W 4078  20.651   4.264   2.815
31665W        W 4079  43.880  42.412  14.385
31666W        W 4080  22.612  40.420   2.875
31667W        W 4081  16.579  31.481  14.448
31668W        W 4082  30.919  13.234   2.833
31669W        W 4083   2.876  21.126   0.391
31670W        W 4084  20.099  24.633   2.278
31671W        W 4085   0.332   6.880  10.622
31672W        W 4086   1.976  24.703   3.655
31673W        W 4087  38.571   9.702  12.045
31674W        W 4088  32.551  14.221   0.774
31675W        W 4089  19.168   0.300   5.183
31676W        W 4090   5.327  29.079  13.964
31677W        W 4091   5.292   0.874  13.394
31678W        W 4092  10.673  37.007   4.277
31679W        W 4093  38.968  39.484   2.260
31680W        W 4094  42.846  40.025   0.883
31681W        W 4095  10.731  14.693  12.877
31682W        W 4096  10.224  34.460  10.993
31683W        W 4097   6.742  18.622  11.079
31684W        W 4098  42.900  42.302   0.793
31685W        W 4099   3.791  42.452   0.813
31686W        W 4100  29.920  19.216   0.457
31687W        W 4101  26.043  34.867   3.833
31688W        W 4102  27.963  37.074  12.861
31689W        W 4103  36.556  35.056  12.080
31690W        W 4104  33.970  29.060   1.858
31691W        W 4105  42.386  40.432  12.095
31692W        W 4106  27.118   8.362  11.395
31693W        W 4107  32.451  38.066   4.227
31694W        W 4108  18.712  42.411   0.958
31695W        W 4109   5.205   6.885   0.786
31696W        W 4110  39.990  19.055  12.469
31697W        W 4111  35.946   5.915  14.803
31698W        W 4112   6.755  17.068  13.030
31699W        W 4113  19.213  24.716   2.231
31700W        W 4114   2.317  38.432   4.632
31701W        W 4115  40.823   4.449   0.374
31702W        W 4116  15.166  11.716   2.771
31703W        W 4117  23.002   9.337   1.869
31704W        W 4118  29.449  34.587   3.326
31705W        W 4119  21.642  21.202   0.829
31706W        W 4120  20.608  31.549  10.540
31707W        W 4121  23.020  18.285  11.500
31708W        W 4122  42.835  41.998   2.206
31709W        W 4123  39.867  33.914  11.983
31710W        W 4124   8.789   2.801   2.791
31711W        W 4125  34.615   8.889  10.996
31712W        W 4126   0.378   6.397  10.636
31713W        W 4127  44.934  38.965  11.410
31714W        W 4128  41.916  27.165   3.693
31715W        W 4129   4.781  24.609   4.755
31716W        W 4130  33.123  39.952  13.887
31717W        W 4131   1.478  21.024   4.144
31718W        W 4132   1.266  39.450  12.851
31719W        W 4133   3.361  24.676   3.795
31720W        W 4134  43.015  39.442   3.648
31721W        W 4135   9.325  43.407   2.286
31722W        W 4136   0.485  32.891  10.404
31723W        W 4137  29.568  23.105  12.956
31724W        W 4138   0.777   5.356   0.775
31725W        W 4139  17.797   3.405   4.645
31726W        W 4140  24.629   7.738   2.259
31727W        W 4141  21.162  11.202  13.522
31728W        W 4142  31.508  20.645  12.087
31729W        W 4143   8.316  40.852   1.905
31730W        W 4144  27.170   9.150   1.829
31731W        W 4145  10.683  23.144  11.977
31732W        W 4146  26.458  16.120  12.937
31733W        W 4147   9.285   4.229  14.019
31734W        W 4148  23.167   7.327   0.877
31735W        W 4149  37.508  17.709  10.523
31736W        W 4150  19.744  14.248   0.293
31737W        W 4151  27.600  20.563   2.797
31738W        W 4152  41.468  31.548  13.514
31739W        W 4153  40.412   0.435  11.542
31740W        W 4154   9.879  41.342   4.198
31741W        W 4155  13.244  19.244   2.846
31742W        W 4156  18.226   5.382  14.923
31743W        W 4157  30.047  21.747  12.356
31744W        W 4158   1.474   4.757  12.484
31745W        W 4159   7.173  25.144   3.334
31746W        W 4160  15.291  41.511   4.616
31747W        W 4161  23.652  10.340  13.388
31748W        W 4162  27.098  32.134  13.437
31749W        W 4163   5.697  37.918   0.470
31750W        W 4164  37.571  43.449  13.477
31751W        W 4165   5.805  15.104   1.931
31752W        W 4166  10.866  20.141   4.197
31753W        W 4167  18.235  33.096   2.383
31754W        W 4168  19.625  38.444  14.422
31755W        W 4169  26.963   0.832  11.893
31756W        W 4170  39.844  23.143   1.325
31757W        W 4171   3.904  23.130   4.255
31758W        W 4172   8.249  33.917   0.920
31759W        W 4173  37.349   8.864  14.385
31760W        W 4174  37.356  38.457   1.928
31761W        W 4175  23.240  36.492   0.748
31762W        W 4176   0.805  17.237   2.727
31763W        W 4177  10.745  28.647   4.630
31764W        W 4178  35.009  40.501   1.784
31765W        W 4179   0.757  33.044   4.200
31766W        W 4180  27.556  25.175   0.411
31767W        W 4181  42.879  19.683  14.442
31768W        W 4182  44.372  38.419   0.359
31769W        W 4183  39.455  28.590  14.317
31770W        W 4184  20.692  42.324   3.798
31771W        W 4185   8.858  29.564  10.468
31772W        W 4186  40.924  44.498  14.847
31773W        W 4187   3.887   1.942  14.952
31774W        W 4188  12.284  43.313  13.864
31775W        W 4189  36.514  23.558   4.827
31776W        W 4190   5.790  17.615   3.737
31777W        W 4191  36.403   4.887   4.729
31778W        W 4192  30.523  40.414  12.041
31779W        W 4193  27.576  25.514   4.642
31780W        W 4194  30.539  30.454   3.696
31781W        W 4195  12.759  20.153   0.811
31782W        W 4196   4.750  40.396  13.435
31783W        W 4197   1.879  14.101   2.251
31784W        W 4198  29.646  42.428   3.241
31785W        W 4199  22.162   9.874  11.904
31786W        W 4200  11.816  19.627  11.554
31787W        W 4201  23.493  33.575   4.208
31788W        W 4202  22.102  37.985  14.891
31789W        W 4203  32.410  44.781   4.661
31790W        W 4204   3.821  36.496  14.354
31791W        W 4205  14.715  26.971  11.063
31792W        W 4206  13.682  11.183   3.664
31793W        W 4207  24.126   1.338   3.360
31794W        W 4208   9.753   7.253  14.451
31795W        W 4209  41.447  24.657   1.832
31796W        W 4210  26.685  26.033   3.284
31797W        W 4211  36.409   1.355  13.500
31798W        W 4212  10.648  39.427   1.734
31799W        W 4213   1.801  27.094   1.436
31800W        W 4214  20.143  11.204  11.895
31801W        W 4215  25.216  38.864   0.252
31802W        W 4216  12.755  33.098  11.409
31803W        W 4217  42.324  18.165   1.714
31804W        W 4218  25.664   9.158   0.361
31805W        W 4219  34.878  16.804  11.112
31806W        W 4220  39.449  34.454   5.761
31807W        W 4221  11.667   5.362  12.376
31808W        W 4222   4.304  15.263  13.355
31809W        W 4223   6.829  39.887  12.039
31810W        W 4224  34.942  10.782  10.588
31811W        W 4225  39.382  31.010   2.411
31812W        W 4226  34.377  35.018  10.635
31813W        W 4227  44.939   3.786   4.782
31814W        W 4228  28.495  23.700  12.919
31815W        W 4229  24.660   9.735   2.744
31816W        W 4230  10.313   8.849  14.417
31817W        W 4231  11.290  40.483  13.938
31818W        W 4232  23.491  44.318   4.762
31819W        W 4233  35.056  34.079  10.408
31820W        W 4234  35.882  15.142   1.340
31821W        W 4235  17.232   5.212  11.534
31822W        W 4236  18.603  14.182  13.344
31823W        W 4237  35.484  34.575  12.836
31824W        W 4238  25.604  18.575   3.380
31825W        W 4239   5.420  30.113   3.867
31826W        W 4240   5.835   3.340   4.222
31827W        W 4241   5.797  22.213   4.268
31828W        W 4242   5.225  32.056  12.025
31829W        W 4243  24.198  14.110   0.885
31830W        W 4244  38.551  32.979   2.205
31831W        W 4245  13.343   9.192   3.190
31832W        W 4246  43.875   9.698   4.819
31833W        W 4247  14.734  42.346  12.406
31834W        W 4248  17.303  30.978   1.307
31835W        W 4249  20.676  36.065   3.752
31836W        W 4250  30.489   9.734   3.289
31837W        W 4251  34.933  44.268  11.121
31838W        W 4252  20.601  43.332   0.380
31839W        W 4253  14.174  27.550   4.651
31840W        W 4254  31.520  39.863  11.431
31841W        W 4255  12.839  35.021   2.267
31842W        W 4256  35.473  13.324   1.882
31843W        W 4257  31.519   0.494   0.858
31844W        W 4258   8.761  19.700  12.938
31845W        W 4259  27.971  37.346  13.032
31846W        W 4260   9.768  16.308  13.480
31847W        W 4261   1.331  14.157  11.385
31848W        W 4262   8.188   3.370  12.955
31849W        W 4263  33.448  16.729   2.224
31850W        W 4264  30.121  26.602  13.878
31851W        W 4265  32.540  41.436  13.399
31852W        W 4266  26.159   6.211  12.869
31853W        W 4267  29.637  36.862   3.768
31854W        W 4268  35.093  38.502   0.247
31855W        W 4269   5.302   0.249  12.446
31856W        W 4270  13.197  36.437  11.000
31857W        W 4271  10.375  21.068   3.268
31858W        W 4272  29.607  26.055  12.560
31859W        W 4273  15.812  27.669  11.450
31860W        W 4274  21.711  40.417   2.662
31861W        W 4275   5.335  13.763  12.526
31862W        W 4276  36.992   6.909  12.095
31863W        W 4277  18.105  15.083  14.913
31864W        W 4278  18.283  28.060   1.425
31865W        W 4279   0.948  32.966  11.103
31866W        W 4280  17.702  26.971  13.029
31867W        W 4281   5.404  42.447   1.725
31868W        W 4282  18.276  18.699   3.220
31869W        W 4283  23.228   8.173   0.838
31870W        W 4284  36.489  31.086   4.161
31871W        W 4285   3.343   5.286   3.665
31872W        W 4286  28.469  13.262  11.938
31873W        W 4287  11.642  25.525  10.636
31874W        W 4288  44.911   5.854   1.815
31875W        W 4289   1.819   3.787  14.880
31876W        W 4290   1.860  32.090  10.017
31877W        W 4291  11.721   3.421   2.403
31878W        W 4292  26.664  30.974  12.409
31879W        W 4293  14.823  20.075   2.676
31880W        W 4294  27.670  43.949   4.776
31881W        W 4295  31.996  10.668   1.794
31882W        W 4296  33.053   4.446   1.413
31883W        W 4297  18.664   6.303  10.586
31884W        W 4298  17.637  41.401  14.279
31885W        W 4299  13.838  14.216  13.957
31886W        W 4300   3.259  20.065   4.332
31887W        W 4301  14.671  35.911   2.692
31888W        W 4302  30.610  27.196  14.970
31889W        W 4303  35.503  24.509  11.109
31890W        W 4304  17.588  22.627  11.512
31891W        W 4305  44.396   9.836  11.988
31892W        W 4306   7.344  12.734  13.799
31893W        W 4307  23.595  20.087   3.351
31894W        W 4308  10.260  33.496   4.239
31895W        W 4309  21.696  18.126   0.471
31896W        W 4310  38.453  42.993  14.958
31897W        W 4311  12.164  33.119   1.312
31898W        W 4312   3.233  20.700   2.310
31899W        W 4313  12.189  11.307  14.890
31900W        W 4314  24.147   2.855   4.654
31901W        W 4315  25.668  14.112  10.144
31902W        W 4316   5.807  30.472   4.164
31903W        W 4317  11.803  38.439  14.455
31904W        W 4318  36.049  40.315   3.378
31905W        W 4319  44.947  28.947   4.136
31906W        W 4320  24.565  34.034  14.760
31907W        W 4321  42.357   5.770  14.352
31908W        W 4322  19.084   6.368   1.330
31909W        W 4323  29.444  41.391   3.647
31910W        W 4324   2.361  23.681  14.841
31911W        W 4325  38.849   0.950   3.286
31912W        W 4326   9.793   0.905  11.029
31913W        W 4327  33.590  16.581  14.367
31914W        W 4328  30.995  21.595   2.684
31915W        W 4329   2.364  15.160   2.380
31916W        W 4330  12.725  44.837   3.858
31917W        W 4331  17.558  32.048   4.174
31918W        W 4332  20.710  42.466   1.292
31919W        W 4333  35.898  43.499  13.310
31920W        W 4334  28.122   3.744   0.270
31921W        W 4335   8.757  22.131  14.419
31922W        W 4336   7.256  11.811  11.416
31923W        W 4337   6.887   3.933   1.387
31924W        W 4338  16.262   6.846  11.534
31925W        W 4339  43.904  14.298  12.920
31926W        W 4340   0.883  14.301  14.901
31927W        W 4341  32.392  20.623  12.435
31928W        W 4342  27.194  19.599   4.231
31929W        W 4343  38.951  16.661   2.855
31930W        W 4344   1.481  24.672   1.217
31931W        W 4345  41.874  27.642   0.869
31932W        W 4346  11.798  17.797   3.764
31933W        W 4347  39.322  41.864  13.878
31934W        W 4348  22.662  36.039   2.411
31935W        W 4349   2.409  20.174   3.371
31936W        W 4350  37.474  18.688   3.651
31937W        W 4351  44.282  44.762  13.973
31938W        W 4352  33.517  12.795   2.698
31939W        W 4353  28.088  25.078   0.363
31940W        W 4354  37.434  22.614  13.498
31941W        W 4355  44.469  19.078   3.237
31942W        W 4356  39.316  19.719   0.455
31943W        W 4357  36.553  22.524  12.370
31944W        W 4358  20.251  12.674  14.888
31945W        W 4359  21.618   0.304  10.509
31946W        W 4360   6.348  38.423  13.404
31947W        W 4361  43.358  27.959   3.853
31948W        W 4362  18.175  15.664  11.548
31949W        W 4363  31.624  11.312  12.024
31950W        W 4364  13.671  25.479   1.232
31951W        W 4365  24.486   9.280   3.304
31952W        W 4366  34.521  23.168   4.242
31953W        W 4367  36.349  17.664  14.354
31954W        W 4368   6.370  11.139  11.446
31955W        W 4369  41.351  22.571   1.917
31956W        W 4370  37.438  42.391  14.002
31957W        W 4371  40.513  24.019   2.873
31958W        W 4372   7.365   7.189   4.323
31959W        W 4373  44.501  37.517  11.535
31960W        W 4374  15.598  31.553  11.951
31961W        W 4375  40.906  11.713   3.330
31962W        W 4376  21.029   3.406  14.992
31963W        W 4377   1.377  37.514   1.904
31964W        W 4378  22.222  32.998   3.646
31965W        W 4379   7.891  16.746   0.393
31966W        W 4380  40.375   0.337   4.252
31967W        W 4381   3.432  43.276   0.324
31968W        W 4382   1.882  14.589  12.937
31969W        W 4383   7.889  10.215   2.331
31970W        W 4384  44.834  22.224   0.857
31971W        W 4385  10.740  32.462  11.968
31972W        W 4386   0.901  21.030  14.373
31973W        W 4387   1.434   0.851  13.004
31974W        W 4388  16.214  20.169   2.205
31975W        W 4389   1.884  27.103  13.369
31976W        W 4390  28.572  37.870  12.461
31977W        W 4391  12.338  44.469  11.959
31978W        W 4392   3.887  25.606  12.451
31979W        W 4393  43.414  28.548  14.425
31980W        W 4394  33.987  26.962   2.362
31981W        W 4395  17.605  27.193  10.559
31982W        W 4396  15.173  38.437  14.314
31983W        W 4397  33.554  18.569   2.668
31984W        W 4398  38.840   4.851  14.913
31985W        W 4399   9.843  24.183  14.414
31986W        W 4400   9.395  16.780  14.426
31987W        W 4401  28.680  18.055   2.703
31988W        W 4402   0.752  37.412  11.543
31989W        W 4403  19.123  28.491   1.276
31990W        W 4404  31.946  32.524   2.395
31991W        W 4405  18.243  11.206   4.185
31992W        W 4406   1.852   3.344  12.991
31993W        W 4407  19.596  31.943  13.895
31994W        W 4408  33.083   9.368   4.253
31995W        W 4409   4.260  41.349  10.539
31996W        W 4410   6.296  27.584   0.434
31997W        W 4411  21.043   8.687   2.761
31998W        W 4412  28.607  30.448  12.408
31999W        W 4413   8.236  32.054   1.447
32000W        W 4414  37.578  14.118   1.437
32001W        W 4415  37.358  19.716   4.619
32002W        W 4416  38.389  30.431  14.285
32003W        W 4417  44.454  36.552   2.720
32004W        W 4418  25.584  22.116   4.145
32005W        W 4419  32.097  22.741   1.344
32006W        W 4420  29.091  26.185  11.427
32007W        W 4421  17.634  41.534  12.488
32008W        W 4422  23.145  43.293  11.473
32009W        W 4423  33.564  42.301  10.023
32010W        W 4424   2.789  12.838   5.249
32011W        W 4425  44.435  26.055   2.277
32012W        W 4426  38.992   8.277  14.379
32013W        W 4427   3.825  11.808  12.094
32014W        W 4428  36.962  18.618  13.536
32015W        W 4429   1.353  34.403  12.473
32016W        W 4430  15.277   7.198   3.168
32017W        W 4431  18.199   1.303   4.749
32018W        W 4432  14.692   7.739  11.914
32019W        W 4433  22.173  34.960   3.648
32020W        W 4434  31.623  31.547  12.432
32021W        W 4435  21.586  30.079   1.424
32022W        W 4436  11.792  33.478  11.109
32023W        W 4437  44.985   5.427   4.731
32024W        W 4438  36.008  32.635   3.160
32025W        W 4439   4.924   9.731  14.280
32026W        W 4440  16.237  18.676   9.500
32027W        W 4441  28.092   6.206  14.375
32028W        W 4442  42.395   0.467  14.496
32029W        W 4443  27.970  35.099   4.631
32030W        W 4444  11.368   1.734   2.722
32031W        W 4445  33.481  28.569   0.841
32032W        W 4446  38.560  26.683   3.318
32033W        W 4447  13.337  38.407  12.069
32034W        W 4448  35.941  37.912  13.953
32035W        W 4449  41.915   9.751   0.249
32036W        W 4450  14.793  38.044   2.227
32037W        W 4451  38.957  25.084  13.386
32038W        W 4452  10.350  27.627  14.285
32039W        W 4453  39.972  31.958  14.500
32040W        W 4454   5.812  34.947  10.973
32041W        W 4455   9.816  41.441  13.799
32042W        W 4456  22.674  19.571   0.864
32043W        W 4457   7.852  33.555  11.418
32044W        W 4458  20.183  32.896  14.965
32045W        W 4459  37.433   1.873  12.092
32046W        W 4460  18.263  10.381  13.403
32047W        W 4461  35.887   8.671  11.517
32048W        W 4462  20.704  27.509  12.351
32049W        W 4463  11.748   2.931   1.918
32050W        W 4464  35.883  44.445  12.453
32051W        W 4465  38.481  33.594  14.799
32052W        W 4466  20.228  42.431  10.600
32053W        W 4467  29.101   6.365  12.356
32054W        W 4468  44.891  40.457  11.892
32055W        W 4469   5.808  26.166  10.113
32056W        W 4470  18.167  29.548   1.278
32057W        W 4471  43.397  41.456   2.786
32058W        W 4472  15.793  43.318  14.408
32059W        W 4473  28.072  18.217  13.056
32060W        W 4474  42.489  28.024   4.314
32061W        W 4475   3.821  36.473   0.395
32062W        W 4476  17.802  24.146   3.213
32063W        W 4477  32.422  27.032   1.858
32064W        W 4478  20.692  22.698   2.302
32065W        W 4479  25.655  24.701   0.790
32066W        W 4480   1.268  39.492   4.721
32067W        W 4481   7.747  43.459   2.728
32068W        W 4482  43.428  18.061  14.411
32069W        W 4483   4.252   7.310  11.390
32070W        W 4484  17.766  18.236   4.721
32071W        W 4485   8.251  32.995   0.424
32072W        W 4486   7.728  34.992   1.805
32073W        W 4487  42.979  38.996  12.079
32074W        W 4488  19.186  14.333   3.310
32075W        W 4489   3.756  27.052   4.672
32076W        W 4490  28.650  30.428  14.343
32077W        W 4491  41.441  32.444  14.282
32078W        W 4492   8.728  21.539   0.918
32079W        W 4493  25.508   7.712  10.522
32080W        W 4494  28.073  36.870   2.857
32081W        W 4495  38.075  23.720  12.462
32082W        W 4496  17.597  34.522   1.739
32083W        W 4497  26.701  21.054   5.240
32084W        W 4498  43.345  12.226   4.235
32085W        W 4499  13.609  12.142  11.109
32086W        W 4500  13.779  37.859   1.932
32087W        W 4501  20.053  37.347   3.216
32088W        W 4502   2.794   5.901   3.202
32089W        W 4503  42.431  34.906   1.896
32090W        W 4504   3.803   8.305  10.592
32091W        W 4505  10.741  37.993  12.062
32092W        W 4506  14.746  15.097   0.913
32093W        W 4507   9.794  30.149  13.502
32094W        W 4508   0.888   6.314  12.894
32095W        W 4509  29.523  34.877   4.743
32096W        W 4510   0.806  22.090   3.190
32097W        W 4511  12.844  22.622   4.638
32098W        W 4512  10.157  33.002   0.897
32099W        W 4513  42.881  43.894   0.335
32100W        W 4514   6.835   8.833   5.218
32101W        W 4515  43.287  37.075   2.276
32102W        W 4516  15.597  18.218   5.304
32103W        W 4517  21.682  23.558   0.751
32104W        W 4518  39.486  37.026  12.969
32105W        W 4519  29.567   4.783  14.965
32106W        W 4520  41.478   8.827   2.295
32107W        W 4521  16.259  30.593  11.402
32108W        W 4522  37.424   5.354   2.414
32109W        W 4523  15.214  23.536   4.622
32110W        W 4524  25.519  17.628   5.320
32111W        W 4525   3.713   2.438   3.718
32112W        W 4526  11.816  25.105   0.365
32113W        W 4527  32.079  23.996   3.266
32114W        W 4528  34.109  29.012  11.602
32115W        W 4529  26.481  22.729  10.484
32116W        W 4530  16.136  22.585   3.677
32117W        W 4531  12.271   0.296   3.810
32118W        W 4532  11.740   7.808   0.831
32119W        W 4533   2.470  10.250   3.328
32120W        W 4534  41.311  33.417   5.185
32121W        W 4535  38.934  24.183  11.110
32122W        W 4536  36.419  43.404  13.382
32123W        W 4537  11.286  32.622  11.878
32124W        W 4538  31.448   0.872  14.772
32125W        W 4539  23.043  15.287   0.881
32126W        W 4540  27.069  15.219  11.018
32127W        W 4541  21.597  36.989   2.193
32128W        W 4542  37.348  27.948  14.484
32129W        W 4543   3.352  36.029   3.763
32130W        W 4544  21.232   0.809  13.009
32131W        W 4545  37.540  44.980  11.054
32132W        W 4546   9.727  30.141   1.371
32133W        W 4547   2.771  27.478  13.489
32134W        W 4548  28.439  14.796  12.058
32135W        W 4549  12.825  33.410  12.441
32136W        W 4550  20.235  42.395  12.993
32137W        W 4551  34.042  15.638   3.335
32138W        W 4552  38.927   3.822  13.492
32139W        W 4553  15.176   5.739   0.470
32140W        W 4554  35.067   6.811  11.380
32141W        W 4555  10.362  25.980   1.867
32142W        W 4556  44.292  23.080   1.337
32143W        W 4557  32.580   8.841  12.966
32144W        W 4558  16.144  20.730   4.123
32145W        W 4559   8.237  27.593   2.215
32146W        W 4560  26.127  23.636   0.881
32147W        W 4561   6.847  22.663   4.327
32148W        W 4562  24.106  33.595   4.769
32149W        W 4563  25.618  22.142   1.382
32150W        W 4564   8.719  35.946   2.251
32151W        W 4565  14.179  23.002  11.983
32152W        W 4566  18.108  19.278   1.244
32153W        W 4567  44.449  25.490   1.251
32154W        W 4568  17.283   7.763  13.425
32155W        W 4569  24.104  43.818   0.813
32156W        W 4570  14.113  44.362   3.387
32157W        W 4571  18.182  22.013   2.412
32158W        W 4572  37.543  11.634  13.479
32159W        W 4573  25.662  23.701  12.374
32160W        W 4574  27.098  17.236   1.381
32161W        W 4575  27.020   8.663  12.570
32162W        W 4576  39.491   5.437   3.288
32163W        W 4577  26.059   2.722   3.720
32164W        W 4578  29.647  38.392   4.733
32165W        W 4579   1.833  43.470  13.431
32166W        W 4580   8.289   3.919  12.367
32167W        W 4581  20.757  11.249   4.300
32168W        W 4582  34.966  28.025   0.780
32169W        W 4583  35.952   5.860   2.190
32170W        W 4584  12.805  24.109   4.810
32171W        W 4585  15.794  15.290   1.429
32172W        W 4586   1.359  35.087   2.362
32173W        W 4587  25.706  19.190  10.548
32174W        W 4588  10.785  36.535   2.219
32175W        W 4589  35.012   9.353  12.939
32176W        W 4590  18.067   5.349  11.970
32177W        W 4591  42.450   2.441   1.361
32178W        W 4592  24.709   7.371  12.947
32179W        W 4593   0.983  19.181   4.119
32180W        W 4594  39.821   5.905  11.596
32181W        W 4595  25.016   0.350   2.327
32182W        W 4596  18.088  15.214   1.897
32183W        W 4597  32.047  39.356  11.980
32184W        W 4598   3.930  43.787   0.446
32185W        W 4599  36.576   4.805  11.553
32186W        W 4600  16.779  29.482  12.361
32187W        W 4601  20.126  18.291   1.433
32188W        W 4602  41.895  44.866  14.925
32189W        W 4603  36.941  22.105   2.247
32190W        W 4604  15.211  39.504   4.810
32191W        W 4605  37.890   9.880   1.760
32192W        W 4606  16.807   8.274  11.864
32193W        W 4607   9.662   3.792  13.965
32194W        W 4608  35.457  42.290  14.940
32195W        W 4609  24.524  40.499  13.960
32196W        W 4610  43.483   4.254   4.638
32197W        W 4611   4.708  14.334   3.156
32198W        W 4612  38.333  11.239  12.863
32199W        W 4613   2.310  33.602  10.920
32200W        W 4614  18.741  25.619   4.832
32201W        W 4615  43.961  16.681   2.722
32202W        W 4616  22.744   2.288  13.526
32203W        W 4617  40.953  16.728  14.379
32204W        W 4618  40.348  10.768  12.927
32205W        W 4619  21.621  25.652  11.901
32206W        W 4620  15.716   8.670  10.081
32207W        W 4621  10.226  30.949  13.420
32208W        W 4622   8.749  13.270   2.707
32209W        W 4623  22.539  40.940  13.990
32210W        W 4624  26.667  41.381   3.840
32211W        W 4625  28.481   3.388   4.606
32212W        W 4626  16.208   4.418   2.871
32213W        W 4627  44.425   1.922  12.852
32214W        W 4628  34.473  22.561  12.453
32215W        W 4629  31.537  38.890  10.445
32216W        W 4630  24.188  15.209  13.509
32217W        W 4631  14.120   5.279   2.218
32218W        W 4632  25.642  43.888  12.048
32219W        W 4633  35.891  10.209  12.386
32220W        W 4634  25.110  13.791  14.277
32221W        W 4635  36.042  21.190  14.966
32222W        W 4636   0.413  35.489   4.822
32223W        W 4637  27.115   3.750   0.420
32224W        W 4638   3.313  29.565  12.911
32225W        W 4639  16.207  42.485   0.262
32226W        W 4640  40.875  28.497  12.529
32227W        W 4641  13.288  34.506  10.531
32228W        W 4642  14.131  34.958   3.300
32229W        W 4643   3.826  18.586   4.198
32230W        W 4644  41.376   5.689   3.209
32231W        W 4645  30.056  35.912  10.944
32232W        W 4646  17.086  20.078  12.004
32233W        W 4647  28.478  13.673   2.296
32234W        W 4648  22.073  39.414  11.024
32235W        W 4649  26.621  35.563   1.399
32236W        W 4650  40.980  15.137   3.354
32237W        W 4651   0.748  23.194   0.862
32238W        W 4652  11.198   3.728   0.934
32239W        W 4653  23.163  26.103  14.032
32240W        W 4654  10.849  30.584   1.808
32241W        W 4655  12.305  17.680  13.521
32242W        W 4656  11.760  30.062  14.937
32243W        W 4657   7.707  44.270  14.963
32244W        W 4658  39.484  44.299  11.030
32245W        W 4659   7.792  11.282   2.312
32246W        W 4660  14.158  25.673   5.236
32247W        W 4661   0.835   1.796  14.821
32248W        W 4662  39.524  17.077  13.836
32249W        W 4663   2.919   0.428   3.212
32250W        W 4664   0.842   3.872  12.952
32251W        W 4665  13.770   4.880   4.335
32252W        W 4666  35.391   4.312  10.929
32253W        W 4667  22.738  27.580  11.453
32254W        W 4668  13.200  36.508   1.781
32255W        W 4669   6.896   5.766   2.257
32256W        W 4670   6.778  39.928   3.269
32257W        W 4671   5.416  29.008  11.609
32258W        W 4672  42.508   1.928  12.388
32259W        W 4673  27.045   2.909   1.871
32260W        W 4674  13.665  30.087   1.427
32261W        W 4675  38.882  43.478   1.927
32262W        W 4676   6.319  15.804  11.874
32263W        W 4677  30.933  30.148  14.330
32264W        W 4678  41.332   6.733  13.010
32265W        W 4679  10.300  38.833  12.049
32266W        W 4680  27.096  12.263  14.986
32267W        W 4681  16.808   1.753  13.815
32268W        W 4682  30.638  25.628   2.860
32269W        W 4683  31.110  26.025  14.952
32270W        W 4684  10.766  27.157  11.475
32271W        W 4685  12.259  11.698  10.521
32272W        W 4686   1.390  30.532  11.511
32273W        W 4687  13.112   3.809  14.842
32274W        W 4688  31.458  28.472  10.471
32275W        W 4689  32.926  30.648  11.908
32276W        W 4690   4.361  32.630  13.402
32277W        W 4691  40.348  25.190  13.959
32278W        W 4692   7.217   2.471  13.529
32279W        W 4693  39.365  36.459  11.873
32280W        W 4694   6.756   2.813  12.522
32281W        W 4695  33.084  29.453  10.981
32282W        W 4696  43.900  42.029   4.203
32283W        W 4697  16.723  22.562   4.791
32284W        W 4698  36.356  41.890  11.533
32285W        W 4699  37.942  18.769  10.890
32286W        W 4700  10.748  11.689  14.962
32287W        W 4701   5.774  34.596   4.831
32288W        W 4702  21.687  18.679  14.968
32289W        W 4703  20.118  20.748  14.295
32290W        W 4704   9.731  30.154  10.587
32291W        W 4705  20.234  35.391   1.711
32292W        W 4706   0.766   4.419  13.426
32293W        W 4707  15.314  19.748   1.286
32294W        W 4708  40.548  25.095  11.396
32295W        W 4709   2.411  26.507  12.049
32296W        W 4710  41.390  15.708   4.245
32297W        W 4711   1.799   3.761  12.941
32298W        W 4712  30.627  38.896  14.948
32299W        W 4713  34.604   7.366  14.846
32300W        W 4714   0.248  32.571  13.361
32301W        W 4715   6.707   0.415   0.857
32302W        W 4716  32.600  34.570  13.364
32303W        W 4717  26.512  43.005  14.861
32304W        W 4718  38.834  41.481   4.173
32305W        W 4719  28.471  18.708   3.264
32306W        W 4720  10.319  19.770   2.700
32307W        W 4721  32.074  36.409  13.922
32308W        W 4722   9.796  41.348  11.884
32309W        W 4723  12.737  22.147   3.197
32310W        W 4724  39.976  35.600  10.626
32311W        W 4725   0.943  15.213  12.862
32312W        W 4726  41.880  44.812   1.443
32313W        W 4727  43.432   5.210   1.385
32314W        W 4728  17.653  28.549   4.758
32315W        W 4729  14.684   0.281   1.807
32316W        W 4730  14.229  13.801  13.352
32317W        W 4731  35.534  25.523   2.833
32318W        W 4732   5.833  41.409   0.299
32319W        W 4733  28.494  20.076  13.037
32320W        W 4734  43.929  39.049   1.407
32321W        W 4735   2.956  25.471   2.814
32322W        W 4736  31.609  39.452  11.612
32323W        W 4737  23.028   3.726   3.306
32324W        W 4738  27.490  41.489   0.965
32325W        W 4739  37.376  25.104   2.186
32326W        W 4740  38.022  20.696  10.956
32327W        W 4741  23.988  41.003   4.821
32328W        W 4742  11.811  38.049   4.622
32329W        W 4743  20.546  19.660  11.954
32330W        W 4744  26.538   0.810   3.243
32331W        W 4745   0.428  28.596  13.881
32332W        W 4746  29.935  27.487   3.386
32333W        W 4747  29.090   9.194  12.073
32334W        W 4748  23.227  20.072  11.954
32335W        W 4749  29.073  15.767   3.813
32336W        W 4750  38.885  20.723   1.264
32337W        W 4751  21.189  31.042  11.421
32338W        W 4752   5.404   1.360   1.808
32339W        W 4753  33.066   4.247  12.971
32340W        W 4754  13.233  15.765  13.854
32341W        W 4755  32.636  29.527  13.341
32342W        W 4756  26.173  33.080  14.766
32343W        W 4757  25.603  17.588   2.225
32344W        W 4758  30.161  42.487   1.446
32345W        W 4759  21.167   3.250   2.815
32346W        W 4760  42.507  35.401   2.804
32347W        W 4761   7.803   3.893   3.225
32348W        W 4762   0.310   4.871   3.274
32349W        W 4763   0.871  43.947  13.471
32350W        W 4764  21.642  29.004   0.266
32351W        W 4765   5.861  14.114  10.431
32352W        W 4766  33.390  30.061  14.281
32353W        W 4767  34.884  22.637   1.932
32354W        W 4768  28.082  22.704   0.308
32355W        W 4769   3.877  41.946   2.733
32356W        W 4770  24.725   5.871  12.377
32357W        W 4771  38.824  14.750   0.248
32358W        W 4772  34.958  27.608   1.773
32359W        W 4773  32.998   6.369  13.313
32360W        W 4774  37.459  22.591  13.042
32361W        W 4775  34.034  31.484  13.314
32362W        W 4776   9.291  15.136   2.779
32363W        W 4777   2.881  17.264   0.905
32364W        W 4778  39.554  32.000  13.831
32365W        W 4779   0.810  40.489  10.579
32366W        W 4780   0.953  11.622  14.983
32367W        W 4781  22.997   3.755   3.867
32368W        W 4782  19.597   6.694  14.349
32369W        W 4783  25.625  43.955  14.462
32370W        W 4784  33.971  16.704   2.696
32371W        W 4785  28.990  20.673  13.883
32372W        W 4786  20.107   0.835   1.349
32373W        W 4787   2.305  14.317   0.821
32374W        W 4788   5.751  22.246  10.479
32375W        W 4789   1.277  39.978  13.521
32376W        W 4790  32.610   6.700  11.898
32377W        W 4791   3.283  20.049  10.538
32378W        W 4792  25.519  41.500   3.835
32379W        W 4793   3.844  31.515   2.327
32380W        W 4794  34.005  27.180   0.856
32381W        W 4795   5.397  31.922   3.237
32382W        W 4796   1.785   7.186  10.480
32383W        W 4797  30.421  12.326  13.862
32384W        W 4798  33.094  28.992  13.791
32385W        W 4799   6.377  41.860   3.757
32386W        W 4800  39.337  28.021  10.620
32387W        W 4801  35.967   6.786   3.743
32388W        W 4802  34.969  36.914  13.859
32389W        W 4803  37.469  42.026   5.152
32390W        W 4804  39.478  39.877  13.045
32391W        W 4805  35.452  41.971   3.259
32392W        W 4806  38.381  21.612   4.134
32393W        W 4807  17.111  42.509  14.029
32394W        W 4808  18.606  26.070  11.879
32395W        W 4809  13.714   7.748  11.577
32396W        W 4810  14.785  16.807   9.491
32397W        W 4811  39.346  25.041   0.365
32398W        W 4812  31.915   4.789   3.860
32399W        W 4813   6.899   0.452   1.334
32400W        W 4814  44.856  14.211  14.435
32401W        W 4815  39.059  24.535   3.358
32402W        W 4816  20.581  22.146  11.483
32403W        W 4817  38.930  20.710  13.983
32404W        W 4818  39.540  25.468  14.287
32405W        W 4819  26.988   8.198  13.887
32406W        W 4820  24.579   5.690   4.838
32407W        W 4821  36.864  30.162  13.857
32408W        W 4822  11.728  22.663  12.034
32409W        W 4823  28.604  36.975   0.252
32410W        W 4824  38.371  16.770  14.334
32411W        W 4825   4.887   4.873  12.018
32412W        W 4826  42.302  42.961  12.434
32413W        W 4827   5.324  44.791   4.813
32414W        W 4828  31.563   8.272  14.441
32415W        W 4829  13.128  12.791   2.770
32416W        W 4830   0.482  24.480   2.220
32417W        W 4831   5.367  10.264   1.284
32418W        W 4832  24.066   4.437  14.911
32419W        W 4833  28.462  11.665   2.895
32420W        W 4834  32.485  23.547  11.859
32421W        W 4835  41.813  22.196   4.724
32422W        W 4836  43.442  30.501  14.361
32423W        W 4837   3.336   7.308   2.330
32424W        W 4838  36.074  26.997  13.477
32425W        W 4839  10.755  44.464   2.747
32426W        W 4840  35.490  13.719   3.304
32427W        W 4841  28.449  31.579   1.809
32428W        W 4842   2.464   2.358  12.011
32429W        W 4843  28.571   8.706  12.837
32430W        W 4844  26.956   3.737  14.327
32431W        W 4845   4.943  31.143  12.443
32432W        W 4846   9.199  20.691  13.905
32433W        W 4847   7.674  32.075  10.928
32434W        W 4848  34.893  13.660  11.473
32435W        W 4849  29.044  16.786   1.739
32436W        W 4850   5.922   9.252   0.729
32437W        W 4851  21.562   5.882  11.014
32438W        W 4852  17.799  37.885  10.523
32439W        W 4853  27.650  31.132   1.256
32440W        W 4854   0.292  29.971  12.976
32441W        W 4855  23.050  26.512  14.402
32442W        W 4856  28.967  35.962   3.208
32443W        W 4857  27.665   8.722  11.071
32444W        W 4858  14.695  23.023  14.376
32445W        W 4859  27.070  33.594  14.356
32446W        W 4860  39.817  12.232   3.759
32447W        W 4861  14.199  22.540  13.041
32448W        W 4862  17.117  29.509   3.650
32449W        W 4863  32.020  23.725  10.592
32450W        W 4864  22.039  28.601   1.370
32451W        W 4865   7.675   0.264  14.784
32452W        W 4866  19.687   1.292   4.790
32453W        W 4867  21.515  37.349   1.699
32454W        W 4868  17.734  29.518  14.337
32455W        W 4869  29.926  22.126  11.592
32456W        W 4870  20.604  20.615  11.097
32457W        W 4871   5.821  42.370  14.916
32458W        W 4872  30.145  34.434  11.389
32459W        W 4873  18.238  11.177   4.761
32460W        W 4874  31.952  12.638   3.748
32461W        W 4875  19.731  11.758   1.338
32462W        W 4876  21.577  17.073   4.324
32463W        W 4877   2.389  19.227  10.571
32464W        W 4878  23.601  24.604   3.152
32465W        W 4879   4.793  35.416   1.423
32466W        W 4880   7.176  30.540  10.470
32467W        W 4881  28.053  40.052  13.422
32468W        W 4882  14.735  23.052   0.784
32469W        W 4883  29.924  33.963   4.746
32470W        W 4884  32.598   1.870   4.243
32471W        W 4885  31.593  44.322   0.452
32472W        W 4886   1.824   7.172  12.908
32473W        W 4887   0.928  28.545  12.949
32474W        W 4888  17.219  29.574   5.246
32475W        W 4889  40.890   3.365   1.306
32476W        W 4890  39.462  16.806   3.735
32477W        W 4891  10.866  22.674  14.032
32478W        W 4892   2.844  15.578   5.312
32479W        W 4893   0.931  38.384   1.259
32480W        W 4894  44.324  43.388  12.479
32481W        W 4895  21.689   8.840  11.603
32482W        W 4896   5.778   5.909  10.418
32483W        W 4897  27.613   3.711  13.846
32484W        W 4898  18.763  39.932  14.361
32485W        W 4899  31.528  11.699  13.007
32486W        W 4900  32.443  39.463  14.457
32487W        W 4901  13.191   6.905   2.824
32488W        W 4902  41.922  17.254   1.380
32489W        W 4903  21.018  15.744  11.451
32490W        W 4904  42.902   9.188  11.047
32491W        W 4905  37.866  26.686   1.732
32492W        W 4906  37.982  20.742  14.503
32493W        W 4907  41.520  12.802  10.491
32494W        W 4908   0.788  40.829   4.144
32495W        W 4909  23.491  28.636  14.315
32496W        W 4910   1.960   3.234  11.037
32497W        W 4911  32.506  24.117  12.389
32498W        W 4912  27.664  19.060   0.825
32499W        W 4913  24.497  17.212  11.945
32500W        W 4914  13.730  33.539  11.861
32501W        W 4915  24.593  25.600   4.306
32502W        W 4916  16.277  41.343  12.958
32503W        W 4917  27.171  18.547   1.225
32504W        W 4918   7.311  31.979   1.884
32505W        W 4919   3.310  33.570   2.789
32506W        W 4920  39.954  24.194   0.265
32507W        W 4921   1.445  17.110  14.837
32508W        W 4922  38.995  44.754   3.861
32509W        W 4923   3.354  27.176   4.214
32510W        W 4924  44.784  10.844   1.245
32511W        W 4925  13.158  29.444  11.582
32512W        W 4926   8.287  40.546  12.878
32513W        W 4927  23.088  39.432   4.661
32514W        W 4928  25.040   7.189   0.391
32515W        W 4929  14.279  21.070   4.808
32516W        W 4930  19.210   2.351   2.834
32517W        W 4931  36.053  43.460   1.771
32518W        W 4932  21.701   3.413   1.696
32519W        W 4933  34.966  43.019   4.646
32520W        W 4934  38.352  40.373  13.859
32521W        W 4935  26.482  29.920   4.328
32522W        W 4936  43.820  38.029   4.182
32523W        W 4937   6.722  20.214   3.736
32524W        W 4938   1.953   6.780   0.380
32525W        W 4939  41.041  35.529   1.777
32526W        W 4940  10.741  19.557  13.040
32527W        W 4941  23.541   4.944  13.051
32528W        W 4942   4.415   0.263   3.275
32529W        W 4943  42.420  32.573   4.695
32530W        W 4944   4.941  18.116   0.384
32531W        W 4945  38.935  34.008   3.746
32532W        W 4946  22.239  24.650   1.752
32533W        W 4947  30.485   4.293   0.345
32534W        W 4948  38.398  38.338   3.385
32535W        W 4949   1.808  35.488   4.820
32536W        W 4950  40.313  12.713   4.609
32537W        W 4951  27.100   0.380   5.302
32538W        W 4952  19.059   0.810   2.238
32539W        W 4953  43.507  37.438  11.992
32540W        W 4954   6.322  43.855   3.769
32541W        W 4955   6.736  14.774   4.317
32542W        W 4956  25.548  23.547   0.791
32543W        W 4957  24.008   5.336  10.515
32544W        W 4958  22.710  33.042   2.375
32545W        W 4959  11.711  26.978  14.427
32546W        W 4960   4.860  28.144   4.786
32547W        W 4961  12.135  38.922   4.258
32548W        W 4962  13.282  17.757  12.486
32549W        W 4963  38.553  31.058  11.117
32550W        W 4964   4.888  21.167   1.410
32551W        W 4965  22.181  35.361  12.060
32552W        W 4966  24.070  30.655  12.401
32553W        W 4967   2.364   2.854   0.851
32554W        W 4968  33.884   0.771  13.390
32555W        W 4969  32.407  37.915   1.723
32556W        W 4970   2.840  16.170   1.402
32557W        W 4971  40.398   4.865  11.456
32558W        W 4972   3.755  23.123   0.425
32559W        W 4973  19.071  30.532   2.864
32560W        W 4974  44.404  11.700   0.286
32561W        W 4975  12.239  39.828  11.507
32562W        W 4976  36.010   0.435  11.869
32563W        W 4977   3.759   6.905   0.935
32564W        W 4978  12.781  38.332   2.864
32565W        W 4979  30.161  34.370   4.810
32566W        W 4980  42.441  34.886   3.854
32567W        W 4981  22.222   8.241   2.180
32568W        W 4982  16.566   4.271  13.042
32569W        W 4983  13.317  11.162  14.356
32570W        W 4984   6.337  16.160   4.663
32571W        W 4985  39.819  16.798  10.552
32572W        W 4986  12.133   4.941   2.321
32573W        W 4987  15.238  14.720  14.796
32574W        W 4988  10.824  33.415   4.276
32575W        W 4989  31.969   4.370  13.915
32576W        W 4990   3.453  12.275  14.958
32577W        W 4991  13.224  26.968  10.593
32578W        W 4992  22.214  34.512   1.797
32579W        W 4993  11.225  42.845   1.833
32580W        W 4994  11.867   8.682   5.269
32581W        W 4995  12.696  30.090  12.929
32582W        W 4996  39.841  11.325   4.804
32583W        W 4997  25.054   4.911  10.502
32584W        W 4998   1.389  16.275   4.682
32585W        W 4999  13.735  15.782  12.895
32586W        W 5000  11.676  14.620   2.774
32587W        W 5001   2.949  36.567  10.479
32588W        W 5002  35.364  13.707   1.292
32589W        W 5003  30.649  17.167  12.370
32590W        W 5004  19.278  13.215   2.254
32591W        W 5005   3.322   1.265  10.547
32592W        W 5006   1.874  38.463   0.403
32593W        W 5007  14.628   3.427   0.323
32594W        W 5008  21.693  44.383   1.215
32595W        W 5009  43.399   2.425   0.415
32596W        W 5010  20.559   8.724   4.671
32597W        W 5011   3.340  43.457  14.378
32598W        W 5012  11.232  18.064   2.776
32599W        W 5013  24.512  18.284   5.208
32600W        W 5014  19.759  12.706   4.123
32601W        W 5015   4.770  24.503  11.468
32602W        W 5016  27.126  12.270   0.399
32603W        W 5017  28.547  28.051  11.008
32604W        W 5018  37.502   7.330  13.016
32605W        W 5019   6.819   2.444   1.330
32606W        W 5020   4.846  42.356  14.313
32607W        W 5021  33.471   1.957  10.420
32608W        W 5022  13.800   0.866   3.281
32609W        W 5023  15.619   7.907   2.819
32610W        W 5024  21.710   3.916  14.025
32611W        W 5025  16.611   3.410  14.999
32612W        W 5026  42.412  43.943  10.962
32613W        W 5027  37.366  39.343  12.884
32614W        W 5028   4.331  19.104   3.185
32615W        W 5029  32.892   3.371   0.923
32616W        W 5030  30.460  10.648  12.945
32617W        W 5031   8.226   5.382   1.349
32618W        W 5032  11.752  32.615   0.283
32619W        W 5033  41.992  38.456   0.765
32620W        W 5034  31.478  37.534   2.725
32621W        W 5035  23.708  43.954  10.595
32622W        W 5036  18.099  24.994   3.653
32623W        W 5037  21.053   7.697  11.606
32624W        W 5038  31.113  15.106   2.852
32625W        W 5039  22.065   3.760  12.543
32626W        W 5040  14.819   9.725   2.837
32627W        W 5041  20.583  10.773  11.887
32628W        W 5042  42.851  14.099  10.991
32629W        W 5043  16.722  40.532  12.069
32630W        W 5044   5.277  32.543   3.720
32631W        W 5045  38.914  26.182  13.919
32632W        W 5046  37.346   9.270   0.864
32633W        W 5047  23.171   8.822  10.640
32634W        W 5048   3.942   4.842   1.788
32635W        W 5049  40.352   2.457   4.308
32636W        W 5050  37.397  32.451   2.342
32637W        W 5051   0.397  19.566   3.708
32638W        W 5052  23.112  27.682   1.900
32639W        W 5053  27.950  23.066  10.157
32640W        W 5054  33.993  22.084  10.627
32641W        W 5055  11.674  19.722  12.903
32642W        W 5056  23.203  33.025   2.730
32643W        W 5057  28.624  29.619  10.612
32644W        W 5058  40.886   6.419  11.000
32645W        W 5059   5.845  11.673  14.506
32646W        W 5060  19.247  10.801   3.179
32647W        W 5061  21.075   9.857  13.924
32648W        W 5062  20.261  23.558   4.816
32649W        W 5063  35.550  32.928   3.674
32650W        W 5064  39.368  28.051  11.017
32651W        W 5065  40.909  14.213  10.638
32652W        W 5066  41.791  37.984   1.325
32653W        W 5067   8.395  25.515  11.492
32654W        W 5068   1.241  11.642  12.434
32655W        W 5069  16.179  26.480  11.473
32656W        W 5070  35.399  38.935   2.414
32657W        W 5071  23.653  44.325  14.283
32658W        W 5072  25.488  10.663  14.383
32659W        W 5073   7.311  33.899   1.706
32660W        W 5074   0.407  24.588  12.923
32661W        W 5075  33.991   2.934   4.761
32662W        W 5076  10.677   5.815  10.528
32663W        W 5077  25.652  30.492  11.564
32664W        W 5078  18.754  14.223   5.189
32665W        W 5079  34.105  17.602   4.734
32666W        W 5080  33.896  29.927   1.706
32667W        W 5081  17.284  14.139   4.197
32668W        W 5082  26.098  38.419   0.351
32669W        W 5083  29.134  32.122  10.620
32670W        W 5084  13.670  34.590  11.970
32671W        W 5085  19.155  37.346  12.862
32672W        W 5086   3.267  32.934   9.929
32673W        W 5087  42.454  31.057   2.178
32674W        W 5088   3.731  40.039   2.901
32675W        W 5089  26.958  14.248   0.948
32676W        W 5090  35.398  42.458   2.878
32677W        W 5091  21.211   6.408  10.958
32678W        W 5092  38.522  15.316   4.121
32679W        W 5093  33.073   8.322  10.449
32680W        W 5094   8.319  30.459  13.980
32681W        W 5095  30.466  20.536  12.377
32682W        W 5096  10.230   1.462   3.369
32683W        W 5097  34.086   7.300  11.864
32684W        W 5098  16.605   6.919  14.873
32685W        W 5099  14.100  33.475   4.676
32686W        W 5100  21.237  31.972   4.282
32687W        W 5101  24.210  28.160   5.125
32688W        W 5102  12.645   1.865   1.809
32689W        W 5103  16.214   6.192  14.489
32690W        W 5104  12.124  30.601   2.334
32691W        W 5105  42.469  21.758   1.272
32692W        W 5106  40.322  30.603  13.490
32693W        W 5107  40.970  11.302  12.003
32694W        W 5108  41.322  31.594  12.038
32695W        W 5109   2.751  11.703   2.766
32696W        W 5110  43.922  24.625   2.361
32697W        W 5111  22.591   5.337  13.025
32698W        W 5112  22.024  11.315   4.803
32699W        W 5113  17.273  43.796  13.957
32700W        W 5114  27.481  39.934   2.220
32701W        W 5115  34.079   3.258   3.328
32702W        W 5116  18.544  26.659  12.930
32703W        W 5117  19.590  26.114  11.917
32704W        W 5118  44.839  38.428  14.338
32705W        W 5119  12.736  20.268   2.881
32706W        W 5120   6.427  16.580   2.400
32707W        W 5121  16.793  44.797   2.702
32708W        W 5122  26.553   4.371   3.177
32709W        W 5123  38.043  34.481   5.220
32710W        W 5124  44.940  44.390   0.909
32711W        W 5125  19.616  37.390  10.975
32712W        W 5126  27.108  22.058  12.485
32713W        W 5127   0.846  21.251   9.962
32714W        W 5128  11.733  31.597   4.739
32715W        W 5129  35.429  11.773   0.954
32716W        W 5130  11.765  33.985   0.954
32717W        W 5131  17.589  18.665  13.423
32718W        W 5132  36.369  37.901   2.787
32719W        W 5133  34.605  26.167   4.288
32720W        W 5134  40.322  19.604  10.460
32721W        W 5135  42.483  16.173  13.441
32722W        W 5136  21.198  14.155   2.244
32723W        W 5137  10.741  17.228  10.613
32724W        W 5138  24.560  39.340   1.704
32725W        W 5139   3.845  17.610   4.194
32726W        W 5140   7.237  38.992   1.441
32727W        W 5141  33.556  21.691  13.902
32728W        W 5142   4.383  37.031   4.696
32729W        W 5143  22.011  32.404  14.965
32730W        W 5144   0.826   8.386  12.410
32731W        W 5145  24.145  40.859  14.504
32732W        W 5146   9.867  11.149   4.650
32733W        W 5147  36.452  41.851  14.278
32734W        W 5148  15.664  39.340  11.867
32735W        W 5149  34.918  38.469  11.858
32736W        W 5150  25.002  12.853   3.790
32737W        W 5151  30.088  43.462   0.806
32738W        W 5152  14.294   0.318  14.449
32739W        W 5153   1.473  13.775   0.858
32740W        W 5154  26.504  44.491   1.382
32741W        W 5155  42.463  44.924  14.354
32742W        W 5156  28.126  37.399   0.446
32743W        W 5157  41.963  21.544  12.054
32744W        W 5158   0.959  19.553   2.288
32745W        W 5159  17.793  13.690  12.827
32746W        W 5160  15.088  32.049   5.306
32747W        W 5161  13.186  26.964  14.977
32748W        W 5162  27.031  16.751   3.339
32749W        W 5163  23.995  28.635   1.891
32750W        W 5164  27.126  17.579  10.431
32751W        W 5165   4.736  16.305   3.629
32752W        W 5166   9.173  14.140   5.136
32753W        W 5167  34.965  23.161   5.150
32754W        W 5168  19.204   9.319   3.858
32755W        W 5169  38.059  11.733   3.252
32756W        W 5170  40.939  41.513  11.393
32757W        W 5171  20.079   9.834  11.405
32758W        W 5172  11.331  39.323   2.396
32759W        W 5173  14.620  32.469  10.918
32760W        W 5174  22.606   2.285   0.293
32761W        W 5175  32.580  38.927  12.558
32762W        W 5176  30.465  17.130   4.724
32763W        W 5177  27.181   7.265   1.795
32764W        W 5178  33.600  18.154   3.847
32765W        W 5179  22.648   3.947   4.709
32766W        W 5180  24.086  16.777  13.795
32767W        W 5181  12.288  31.561   4.346
32768W        W 5182   3.956  10.241   3.306
32769W        W 5183  30.927  30.918   1.912
32770W        W 5184   1.237  17.756   3.291
32771W        W 5185   5.209  18.077   4.294
32772W        W 5186  15.223  33.067  14.866
32773W        W 5187  36.464  28.009  10.575
32774W        W 5188  40.330  42.838   5.307
32775W        W 5189  29.004  29.438   4.237
32776W        W 5190  42.373   6.756  11.430
32777W        W 5191  27.612   7.296  14.986
32778W        W 5192  19.168  42.819  14.006
32779W        W 5193  19.200  24.645  13.924
32780W        W 5194   4.808  22.677  13.994
32781W        W 5195  18.219  27.091   1.431
32782W        W 5196  39.050  26.697  13.342
32783W        W 5197  40.821  36.076   4.215
32784W        W 5198  40.016   8.380  12.936
32785W        W 5199  22.143  17.617  13.865
32786W        W 5200  40.840   7.821  12.867
32787W        W 5201   2.273   4.256   3.834
32788W        W 5202  37.426  22.502   0.894
32789W        W 5203   7.811  21.711  14.281
32790W        W 5204   8.709   5.826   4.145
32791W        W 5205   7.259  44.894  11.056
32792W        W 5206  20.750   2.832   2.323
32793W        W 5207  10.178  13.264  10.898
32794W        W 5208   2.952  35.871   2.901
32795W        W 5209   7.174  31.415   3.384
32796W        W 5210  40.875   8.807   4.599
32797W        W 5211  15.787  17.796  12.970
32798W        W 5212  44.855  15.162   1.714
32799W        W 5213  38.418  28.145   2.818
32800W        W 5214   2.265   9.376  11.080
32801W        W 5215  33.081  35.551   4.231
32802W        W 5216   8.215  22.715   3.258
32803W        W 5217  10.220   6.901   1.449
32804W        W 5218   9.180  11.740   0.301
32805W        W 5219  22.201  11.361  12.506
32806W        W 5220  36.581  12.675   2.325
32807W        W 5221  15.199  34.429  13.489
32808W        W 5222  18.101  41.943  14.397
32809W        W 5223  44.381  44.418   0.356
32810W        W 5224   9.369  36.398   4.350
32811W        W 5225   6.796  40.477   4.735
32812W        W 5226  11.688  38.495   0.263
32813W        W 5227   2.797  40.415   0.364
32814W        W 5228   8.257  37.859   1.750
32815W        W 5229  44.964  44.366  10.547
32816W        W 5230  40.358  23.575   4.693
32817W        W 5231  40.844   2.347  13.853
32818W        W 5232  16.131  23.053  10.931
32819W        W 5233   8.802  44.292  13.062
32820W        W 5234   6.888  38.955  13.040
32821W        W 5235  16.721  40.945   0.373
32822W        W 5236  39.964  15.627   2.374
32823W        W 5237  23.170  18.681   1.288
32824W        W 5238  11.360  26.970   3.815
32825W        W 5239  44.399  21.157   1.296
32826W        W 5240   3.266  42.295   1.824
32827W        W 5241  13.226   9.376  14.883
32828W        W 5242  22.177   0.378  12.477
32829W        W 5243  13.253  20.664   3.799
32830W        W 5244  14.688   6.214   9.544
32831W        W 5245  35.403  13.744   2.358
32832W        W 5246  32.011  40.995  14.479
32833W        W 5247  13.262  44.285   2.902
32834W        W 5248   2.909  17.598  10.482
32835W        W 5249  17.788  23.165   1.771
32836W        W 5250  10.375  18.215   3.297
32837W        W 5251   3.758  22.519   1.780
32838W        W 5252  36.453  17.093  11.541
32839W        W 5253  20.674  44.911  10.530
32840W        W 5254  31.941  23.576   1.342
32841W        W 5255  21.216   8.232   1.820
32842W        W 5256  44.405  43.843  10.095
32843W        W 5257   0.461  21.691  11.574
32844W        W 5258   4.400   9.349   4.142
32845W        W 5259  25.616   9.658   0.303
32846W        W 5260  33.032  38.050   3.689
32847W        W 5261  19.729  16.568  14.901
32848W        W 5262  25.567   3.233  13.873
32849W        W 5263  43.907  36.575  14.293
32850W        W 5264  37.927  21.757  13.945
32851W        W 5265  43.304  10.282   1.922
32852W        W 5266  44.354  36.846   2.288
32853W        W 5267  33.557   3.267   0.293
32854W        W 5268  20.544  12.777   4.309
32855W        W 5269  27.016  34.048   3.710
32856W        W 5270  42.003  44.477   0.760
32857W        W 5271   6.293   4.715   2.366
32858W        W 5272  44.378  11.818   2.693
32859W        W 5273  21.684   1.788   4.268
32860W        W 5274  26.121  12.809  11.917
32861W        W 5275  23.616  14.718   2.370
32862W        W 5276  44.807  41.424  12.826
32863W        W 5277   3.720   8.403  11.103
32864W        W 5278   2.789  26.502   5.175
32865W        W 5279  27.165  19.756  12.079
32866W        W 5280   6.290  42.334  10.997
32867W        W 5281  36.867  35.029   0.391
32868W        W 5282  15.085  44.964  13.413
32869W        W 5283   4.705  12.736   1.393
32870W        W 5284   0.360  31.619  11.020
32871W        W 5285  41.845  39.557   0.411
32872W        W 5286  12.644   4.786   3.801
32873W        W 5287   7.873   8.289   0.822
32874W        W 5288  13.213  10.321  13.996
32875W        W 5289  23.073  20.650   1.706
32876W        W 5290  14.302   8.752  12.434
32877W        W 5291  24.678  18.687   1.444
32878W        W 5292  23.540  30.078   0.913
32879W        W 5293  22.065  40.455  14.978
32880W        W 5294  34.470   3.423  14.872
32881W        W 5295  43.853   6.404   0.331
32882W        W 5296   4.759   3.767  14.494
32883W        W 5297  31.048  11.186   2.382
32884W        W 5298   3.417  31.121   1.239
32885W        W 5299  43.999  30.597   1.778
32886W        W 5300  19.551  27.094  10.456
32887W        W 5301  32.115   7.675  11.872
32888W        W 5302  38.001  13.845  11.462
32889W        W 5303  44.978  28.134   3.229
32890W        W 5304   7.824  28.512  12.425
32891W        W 5305  28.954  18.086  10.931
32892W        W 5306  37.373  25.193   0.247
32893W        W 5307   0.251  23.546  11.459
32894W        W 5308  44.500  28.012  10.482
32895W        W 5309  21.044  26.687   0.728
32896W        W 5310   8.714   2.789   0.742
32897W        W 5311  39.379   7.184   4.277
32898W        W 5312  30.929  20.247  11.884
32899W        W 5313   9.753   5.754  12.989
32900W        W 5314  43.005  35.414  12.469
32901W        W 5315  42.937  30.454  14.513
32902W        W 5316   0.897  21.203   3.708
32903W        W 5317   3.782   5.820   1.768
32904W        W 5318  11.672  31.452  13.829
32905W        W 5319  38.996   5.430   4.634
32906W        W 5320  18.573  39.477   4.721
32907W        W 5321  34.490  36.427   0.883
32908W        W 5322  20.710  37.835   0.803
32909W        W 5323   2.899  11.691   3.800
32910W        W 5324  26.089  44.994  10.515
32911W        W 5325  19.744  17.800   1.242
32912W        W 5326   9.803  41.833   3.198
32913W        W 5327   9.372  34.514   3.683
32914W        W 5328  26.205  30.579   3.364
32915W        W 5329  11.310   6.345   1.240
32916W        W 5330   0.311  44.275  10.578
32917W        W 5331   6.906  39.436  10.585
32918W        W 5332  37.434   0.892  10.971
32919W        W 5333  24.535  36.036   0.826
32920W        W 5334   5.753   4.239  11.892
32921W        W 5335  15.155   1.482   1.724
32922W        W 5336  43.977  35.586  13.951
32923W        W 5337   5.417  30.096   0.372
32924W        W 5338  41.983  19.184  12.089
32925W        W 5339  11.166  11.757  13.850
32926W        W 5340   7.786  33.516   0.742
32927W        W 5341  30.960  31.602   0.937
32928W        W 5342  12.662  15.316   2.868
32929W        W 5343  18.270  13.107   2.698
32930W        W 5344  37.574  27.135   0.962
32931W        W 5345  13.784   3.285  12.936
32932W        W 5346  30.960  32.113   0.347
32933W        W 5347   4.309  17.243  11.016
32934W        W 5348  33.399  23.142  14.017
32935W        W 5349  35.418  34.478   5.753
32936W        W 5350  38.333  16.099   3.793
32937W        W 5351   6.356  14.610  14.944
32938W        W 5352  33.542  17.668  12.897
32939W        W 5353  27.682   1.766  14.809
32940W        W 5354   8.740  13.301  14.414
32941W        W 5355  20.650  29.627   0.281
32942W        W 5356  14.114  44.870   0.789
32943W        W 5357   7.837  36.925  11.085
32944W        W 5358  26.062  35.891  13.872
32945W        W 5359   1.873   7.781  13.819
32946W        W 5360  24.550  34.966  12.902
32947W        W 5361   9.876  40.861  10.475
32948W        W 5362  26.483  37.438  11.378
32949W        W 5363   5.695  23.043   1.765
32950W        W 5364  15.626  28.042  12.998
32951W        W 5365  10.365  25.470  13.336
32952W        W 5366  42.324  32.597  12.472
32953W        W 5367   5.827   5.388  12.357
32954W        W 5368  34.565  38.468  13.535
32955W        W 5369  23.528  40.932  14.450
32956W        W 5370  19.113  43.928  11.487
32957W        W 5371   6.870  40.898  14.011
32958W        W 5372  19.275  31.019  14.315
32959W        W 5373  30.594   8.219   0.747
32960W        W 5374  33.943  29.122  14.793
32961W        W 5375  16.162   9.843  10.556
32962W        W 5376  34.569  18.180  10.426
32963W        W 5377  29.084  22.539  14.275
32964W        W 5378  36.061  36.585  12.087
32965W        W 5379  29.495  39.871  14.891
32966W        W 5380  35.017  43.937  12.554
32967W        W 5381  41.487   6.721  12.557
32968W        W 5382  30.089  41.425   2.713
32969W        W 5383  38.418  34.094   0.749
32970W        W 5384  10.779  31.085  11.893
32971W        W 5385  12.161  12.723  14.508
32972W        W 5386  31.039  25.686  14.335
32973W        W 5387  16.243  44.923   2.688
32974W        W 5388  18.103   6.420   3.227
32975W        W 5389  16.631   4.807   2.340
32976W        W 5390   8.293  32.424  14.813
32977W        W 5391  37.841  38.541  11.985
32978W        W 5392  32.529  35.952  11.416
32979W        W 5393  37.906  13.678   1.297
32980W        W 5394  10.676  34.444  14.463
32981W        W 5395  27.563  40.490   2.326
32982W        W 5396  44.983  18.284  12.872
32983W        W 5397   4.432  12.712   3.639
32984W        W 5398  27.675  24.010  11.985
32985W        W 5399  16.765  30.945   2.875
32986W        W 5400  34.419  13.200   3.259
32987W        W 5401  41.355  20.630   1.806
32988W        W 5402  14.296  41.975  13.828
32989W        W 5403   4.926  10.259   4.629
32990W        W 5404   7.186   9.673  10.436
32991W        W 5405  18.091  21.083   2.791
32992W        W 5406  30.519   1.820  11.880
32993W        W 5407  38.335  38.410  12.525
32994W        W 5408  36.041  22.052  11.083
32995W        W 5409  16.098  43.356  13.327
32996W        W 5410  36.886   8.350  14.829
32997W        W 5411  10.166  36.438  10.481
32998W        W 5412  21.155  36.368   2.714
32999W        W 5413   7.910  23.222   4.795
33000W        W 5414   9.835  22.056   4.809
33001W        W 5415  14.680  36.046   2.322
33002W        W 5416   6.869   6.362   4.170
33003W        W 5417  42.282  17.581   3.365
33004W        W 5418  36.375   9.762  11.001
33005W        W 5419  15.282   1.748   4.123
33006W        W 5420  34.933  25.148  13.818
33007W        W 5421  31.590  44.385   4.184
33008W        W 5422  27.002   0.319  10.543
33009W        W 5423   9.818  15.741   4.278
33010W        W 5424  36.094  15.720   4.329
33011W        W 5425  43.496  15.233  11.394
33012W        W 5426  18.230  36.857  11.982
33013W        W 5427  43.459  21.663  11.373
33014W        W 5428  32.997   4.210   4.699
33015W        W 5429  43.805  40.885  11.015
33016W        W 5430  20.709  27.974  11.451
33017W        W 5431  12.342  39.918   3.295
33018W        W 5432  43.441   7.391   3.300
33019W        W 5433   1.332  17.651   1.365
33020W        W 5434   2.303   4.449  12.935
33021W        W 5435   9.166  38.925   9.965
33022W        W 5436  14.601  25.704   4.718
33023W        W 5437   3.442  10.656   2.788
33024W        W 5438  10.181  19.258  13.805
33025W        W 5439  31.085  13.616  11.902
33026W        W 5440  16.294  31.913   4.347
33027W        W 5441   0.859   7.232   0.409
33028W        W 5442  40.322   4.910   4.285
33029W        W 5443  42.912  42.948  11.502
33030W        W 5444  37.897   7.705  14.888
33031W        W 5445  31.477   4.419   1.243
33032W        W 5446  14.730  18.764  12.555
33033W        W 5447  31.152   7.349   2.825
33034W        W 5448   2.849  17.638  14.809
33035W        W 5449  34.386  35.989  11.931
33036W        W 5450  34.018  42.451  12.967
33037W        W 5451  37.026  24.101   2.246
33038W        W 5452   4.873  28.075   2.329
33039W        W 5453  35.546  22.020   3.272
33040W        W 5454  17.669   9.305  12.570
33041W        W 5455  29.657  15.177  12.399
33042W        W 5456   5.301  12.181  10.474
33043W        W 5457  18.605   0.899   0.275
33044W        W 5458  26.657  26.539  11.533
33045W        W 5459  14.788  27.552   3.246
33046W        W 5460  25.015  32.931   0.738
33047W        W 5461  13.834  33.959   0.433
33048W        W 5462   1.831  42.507  11.483
33049W        W 5463  22.230  15.821   3.221
33050W        W 5464  33.038  17.095   4.203
33051W        W 5465  25.576   7.756  12.344
33052W        W 5466  30.652  19.145  14.998
33053W        W 5467   7.666  35.443  13.868
33054W        W 5468  40.945   9.826   3.642
33055W        W 5469  12.666  15.818  11.036
33056W        W 5470  10.307  40.979   1.869
33057W        W 5471   8.732  29.531   1.932
33058W        W 5472  30.127  25.595  11.917
33059W        W 5473  19.735  41.381  11.906
33060W        W 5474   3.826  39.815   4.766
33061W        W 5475   6.780  20.544  14.285
33062W        W 5476  30.075  28.676   2.199
33063W        W 5477   3.839  33.443   1.901
33064W        W 5478   9.839  19.129  14.763
33065W        W 5479  34.871  33.397   1.447
33066W        W 5480  42.954  14.706  11.575
33067W        W 5481  11.635   3.822   3.183
33068W        W 5482  16.580   5.805   1.273
33069W        W 5483  17.749  16.575   4.599
33070W        W 5484  39.518  41.400   0.342
33071W        W 5485  39.458  39.015  10.933
33072W        W 5486  44.393  25.071   9.982
33073W        W 5487  43.454   8.830   0.807
33074W        W 5488  25.025  33.019   1.752
33075W        W 5489  44.838   8.814   0.322
33076W        W 5490  16.097   9.170   2.771
33077W        W 5491  17.184  44.299  11.603
33078W        W 5492   4.409  20.247   0.729
33079W        W 5493  24.105  40.363  14.939
33080W        W 5494  41.450  28.622  12.968
33081W        W 5495   0.843  36.531  11.602
33082W        W 5496  38.483  41.021   4.234
33083W        W 5497   7.894   4.426   3.810
33084W        W 5498  22.516   2.945  13.370
33085W        W 5499   8.290   2.403   1.828
33086W        W 5500  18.212  44.856   5.629
33087W        W 5501  24.204  20.748   1.404
33088W        W 5502  40.815  34.540   1.433
33089W        W 5503  28.165  28.072  11.449
33090W        W 5504  25.096   7.404  13.391
33091W        W 5505  26.981  28.979  10.545
33092W        W 5506   5.201  29.041   2.764
33093W        W 5507  22.707  22.650  11.541
33094W        W 5508  35.414  38.944  14.897
33095W        W 5509  12.144  15.655   3.854
33096W        W 5510  43.881  32.102  11.072
33097W        W 5511  11.769  40.832   2.879
33098W        W 5512  31.494  39.363   0.812
33099W        W 5513  34.011   6.363  12.532
33100W        W 5514  11.776  32.021  14.861
33101W        W 5515  24.625  10.865   0.271
33102W        W 5516   2.242   1.947   0.300
33103W        W 5517  17.209  24.983   3.783
33104W        W 5518   2.402  11.227   3.257
33105W        W 5519  37.029  30.033   2.206
33106W        W 5520  39.512   4.792  14.296
33107W        W 5521   2.754   8.250  13.486
33108W        W 5522   8.734  22.021   9.929
33109W        W 5523  11.158   1.383   2.876
33110W        W 5524  18.200  42.455  12.885
33111W        W 5525   1.896  25.990   4.801
33112W        W 5526  39.854  35.463   0.966
33113W        W 5527  12.243  14.666  11.099
33114W        W 5528  22.622  30.066  13.895
33115W        W 5529  23.093  36.412  14.479
33116W        W 5530   4.416  14.773   1.933
33117W        W 5531   5.801  39.368   2.265
33118W        W 5532  18.289  13.136   4.787
33119W        W 5533  37.047  12.350   1.260
33120W        W 5534  40.367  31.904  14.402
33121W        W 5535  28.648  25.973   3.758
33122W        W 5536   6.316  16.195  11.120
33123W        W 5537  33.037  27.992   1.451
33124W        W 5538  29.653   8.161  10.608
33125W        W 5539  39.823  20.258   2.886
33126W        W 5540  42.294  19.642  14.448
33127W        W 5541   3.899  24.626  14.826
33128W        W 5542  37.518  22.144   3.689
33129W        W 5543  16.287  21.714   4.203
33130W        W 5544  30.605  10.212   3.267
33131W        W 5545  34.377   9.339  12.893
33132W        W 5546  12.219  40.405   1.711
33133W        W 5547   1.470   1.896  14.306
33134W        W 5548  14.702  23.592   2.376
33135W        W 5549  25.475  43.006   4.342
33136W        W 5550   4.770   5.383  10.981
33137W        W 5551  11.818   9.693  13.935
33138W        W 5552  34.564  15.629   2.809
33139W        W 5553   8.303  24.164   0.847
33140W        W 5554   7.687  41.803   2.724
33141W        W 5555   8.176  31.099   1.403
33142W        W 5556  10.311   2.906   0.245
33143W        W 5557  23.067  35.422   4.646
33144W        W 5558   3.316  17.271  13.342
33145W        W 5559  12.675  44.971  13.459
33146W        W 5560  27.104  27.658   3.340
33147W        W 5561  38.922  15.110  13.937
33148W        W 5562   0.799  30.940  10.625
33149W        W 5563  26.989   0.395   3.304
33150W        W 5564  43.325  26.145  12.007
33151W        W 5565  17.672  15.785   0.301
33152W        W 5566  36.021  34.108  14.483
33153W        W 5567  25.214  22.696  11.390
33154W        W 5568  33.390  16.582   3.330
33155W        W 5569  42.015  21.653  13.817
33156W        W 5570  22.096  14.754  14.411
33157W        W 5571  37.539  40.805   2.742
33158W        W 5572  32.532  32.132   1.922
33159W        W 5573  25.569  30.489   3.301
33160W        W 5574  31.919  41.457   1.822
33161W        W 5575  20.270  42.976  11.872
33162W        W 5576  26.670  33.409   0.466
33163W        W 5577  43.961  40.851  11.929
33164W        W 5578  44.880  44.359  14.299
33165W        W 5579  31.940  15.744   5.227
33166W        W 5580  33.416  41.327   0.316
33167W        W 5581  26.970   7.202   0.316
33168W        W 5582  23.726  33.020   1.218
33169W        W 5583  22.510  10.237  12.979
33170W        W 5584   5.196  38.528  10.891
33171W        W 5585  34.432   5.870  11.479
33172W        W 5586  11.310  36.983  12.568
33173W        W 5587   4.263  31.606   0.342
33174W        W 5588  44.344  33.456  11.999
33175W        W 5589  20.664  44.340  12.391
33176W        W 5590  40.498  32.958   4.213
33177W        W 5591  42.394  40.938   3.349
33178W        W 5592  29.034  29.974   2.747
33179W        W 5593   9.328  31.934  12.058
33180W        W 5594  35.914   8.290  11.914
33181W        W 5595  28.546  30.010  13.035
33182W        W 5596  25.544  34.938   0.749
33183W        W 5597  12.252  38.361   0.268
33184W        W 5598  21.658   6.327   4.816
33185W        W 5599  20.686  25.553   0.759
33186W        W 5600   3.358   5.305   2.336
33187W        W 5601  43.373  36.053   5.198
33188W        W 5602  37.088  33.016  13.381
33189W        W 5603  38.514  41.822  12.344
33190W        W 5604   5.801  11.785   2.791
33191W        W 5605  41.984  34.954  11.458
33192W        W 5606  23.562  16.700  13.499
33193W        W 5607  12.733  23.157   2.280
33194W        W 5608  42.942   9.752   3.238
33195W        W 5609  19.275   8.350   0.470
33196W        W 5610  16.200   7.241   0.284
33197W        W 5611  15.711  22.190   4.612
33198W        W 5612  40.864   8.229   4.344
33199W        W 5613  31.982  33.130  10.002
33200W        W 5614  18.747  33.384   2.839
33201W        W 5615  33.067  29.589   1.306
33202W        W 5616  28.605  42.020   3.839
33203W        W 5617  24.200  26.002   1.858
33204W        W 5618  19.235  42.324  11.480
33205W        W 5619  24.549  17.097  10.071
33206W        W 5620   7.301   7.322  13.800
33207W        W 5621  32.593  25.185  13.893
33208W        W 5622  26.168  15.614  14.501
33209W        W 5623  22.076  12.275  14.495
33210W        W 5624  19.203  22.234  14.497
33211W        W 5625  38.939  40.965   2.390
33212W        W 5626  20.552   5.803  13.404
33213W        W 5627   1.470  38.466  12.082
33214W        W 5628   7.238  19.614   0.822
33215W        W 5629   8.722   5.353   4.810
33216W        W 5630  12.350  24.525   0.893
33217W        W 5631  37.936  13.844  11.049
33218W        W 5632  24.083  32.397  10.535
33219W        W 5633  36.990  24.111   3.319
33220W        W 5634  21.677   0.262  11.106
33221W        W 5635  22.090   3.943  13.909
33222W        W 5636  29.993  41.446  13.437
33223W        W 5637  22.173  17.258   4.628
33224W        W 5638  33.078  25.652   1.823
33225W        W 5639   2.772   7.311  11.981
33226W        W 5640  26.033  11.178  12.559
33227W        W 5641  11.165  18.287   0.760
33228W        W 5642  13.163  40.002  13.833
33229W        W 5643  40.928  33.409   4.236
33230W        W 5644   2.848   5.819   1.718
33231W        W 5645   2.358  38.854  13.399
33232W        W 5646  20.672  41.373   2.369
33233W        W 5647  32.425  26.181   2.272
33234W        W 5648  34.866  34.570   3.217
33235W        W 5649  39.490  22.523  14.306
33236W        W 5650  14.120  16.103   3.635
33237W        W 5651  29.431  26.079  14.451
33238W        W 5652   9.783  28.073  11.380
33239W        W 5653  42.326  38.558   1.430
33240W        W 5654  42.873  39.841   0.415
33241W        W 5655  32.423  20.047  13.975
33242W        W 5656   3.932  18.236  10.439
33243W        W 5657   6.259  10.273  12.345
33244W        W 5658   3.263  17.793  12.032
33245W        W 5659  33.921  21.578   0.265
33246W        W 5660  42.504  25.182   1.382
33247W        W 5661  22.676  36.053  12.009
33248W        W 5662  17.217  34.893  14.926
33249W        W 5663  27.054  42.997  12.535
33250W        W 5664  32.056  15.717   0.962
33251W        W 5665  10.681  35.988  14.325
33252W        W 5666  22.520  38.849  12.352
33253W        W 5667   0.887  11.156  10.964
33254W        W 5668  23.567   9.717  12.834
33255W        W 5669   7.745  12.670   1.326
33256W        W 5670  34.041  30.964  13.017
33257W        W 5671  12.256  34.028  13.855
33258W        W 5672  33.617  31.639  14.366
33259W        W 5673  40.418  21.604  11.484
33260W        W 5674  30.942  14.196  10.896
33261W        W 5675  19.642   0.319  10.495
33262W        W 5676   3.724  31.479  14.401
33263W        W 5677  27.162   5.290  13.316
33264W        W 5678  16.713  13.329  11.995
33265W        W 5679  41.031  14.723  12.036
33266W        W 5680  12.721   8.254  11.477
33267W        W 5681   4.390  15.263  11.078
33268W        W 5682  25.476  16.743  12.549
33269W        W 5683  34.433  38.503  10.921
33270W        W 5684  19.072  44.343   4.265
33271W        W 5685  40.848   8.394   0.961
33272W        W 5686  20.523  29.639  12.864
33273W        W 5687  20.221  43.358  11.946
33274W        W 5688   3.789  29.625   0.933
33275W        W 5689   8.163  29.159   3.751
33276W        W 5690   0.754  22.243   3.856
33277W        W 5691  17.640   8.677   1.353
33278W        W 5692   9.726   6.381  13.518
33279W        W 5693   6.409  12.713  12.939
33280W        W 5694  25.101  44.265   1.330
33281W        W 5695   8.687  18.599   5.108
33282W        W 5696  15.219  36.944   0.880
33283W        W 5697  25.679   6.802  14.480
33284W        W 5698  41.944  39.406   3.818
33285W        W 5699  36.415  42.889   4.350
33286W        W 5700   7.358  44.471  12.347
33287W        W 5701   1.898   8.828  12.043
33288W        W 5702  10.221  33.565   1.909
33289W        W 5703   2.344  15.140   0.443
33290W        W 5704  32.500  14.163  14.929
33291W        W 5705   5.823  41.538   5.218
33292W        W 5706  14.303   6.422   3.718
33293W        W 5707  11.184  35.873   2.204
33294W        W 5708  17.181  42.967   9.940
33295W        W 5709   6.332   6.386   1.831
33296W        W 5710  16.669  34.896   0.423
33297W        W 5711  24.192   1.884   3.763
33298W        W 5712  10.233  13.179  12.377
33299W        W 5713  24.064   9.379  13.998
33300W        W 5714  20.096  17.667  12.554
33301W        W 5715  31.588   9.755  14.937
33302W        W 5716   3.418  35.866  13.003
33303W        W 5717  42.790  22.583   5.318
33304W        W 5718  40.363  22.077  11.455
33305W        W 5719  19.617  43.946   0.789
33306W        W 5720   4.710  41.793   2.351
33307W        W 5721  20.160  34.048   0.434
33308W        W 5722   5.789  31.411  14.281
33309W        W 5723  29.504  29.168  10.024
33310W        W 5724  19.680  19.207   3.698
33311W        W 5725  35.402   8.686   4.127
33312W        W 5726  13.838   2.339   1.718
33313W        W 5727   5.333  25.094   2.265
33314W        W 5728  33.105  37.837  10.994
33315W        W 5729  16.760  29.986  10.491
33316W        W 5730  29.997  23.151   4.205
33317W        W 5731   8.260  28.071  11.095
33318W        W 5732  27.941  12.643  12.994
33319W        W 5733  33.625   6.832  13.977
33320W        W 5734   9.199  27.468  13.874
33321W        W 5735   5.843   0.366   0.258
33322W        W 5736   0.937  10.793   0.407
33323W        W 5737  32.084  40.374   0.951
33324W        W 5738  16.237  36.385  13.398
33325W        W 5739  42.854  11.677   4.690
33326W        W 5740   9.243  21.638   1.909
33327W        W 5741  26.158  22.555  10.640
33328W        W 5742   4.375  34.519  12.966
33329W        W 5743  12.639  18.125  11.581
33330W        W 5744  30.476  14.300  14.032
33331W        W 5745  23.079   7.334  13.339
33332W        W 5746  12.294   8.710  12.423
33333W        W 5747  25.680  13.230   4.298
33334W        W 5748   3.833  17.573   4.808
33335W        W 5749   0.916   7.754   1.838
33336W        W 5750   6.870   0.323  11.605
33337W        W 5751  36.078  40.494   4.719
33338W        W 5752  29.165  32.590  13.409
33339W        W 5753  23.048  43.882   4.690
33340W        W 5754   0.456  16.247   1.786
33341W        W 5755  40.382  31.431   2.267
33342W        W 5756   7.171  28.027   3.238
33343W        W 5757  43.782  17.293   0.417
33344W        W 5758  32.010  37.574  12.873
33345W        W 5759  25.515  12.647  12.868
33346W        W 5760  43.427   4.353  12.982
33347W        W 5761   1.849  19.181  10.554
33348W        W 5762   0.804  33.888   0.348
33349W        W 5763  39.405  20.659  14.760
33350W        W 5764  15.126  39.861   0.276
33351W        W 5765  41.375  32.077   3.251
33352W        W 5766  16.698  32.099  11.583
33353W        W 5767  18.636  17.614   2.872
33354W        W 5768  43.875  12.176  12.020
33355W        W 5769  35.417  20.553   3.219
33356W        W 5770  14.656   5.737   2.837
33357W        W 5771   1.478  43.424   0.784
33358W        W 5772  17.186   7.381  12.339
33359W        W 5773  38.399  26.188   0.259
33360W        W 5774  40.907  40.445   1.359
33361W        W 5775  13.254  18.101   1.896
33362W        W 5776  44.391  30.605  12.390
33363W        W 5777  18.094  17.116  13.391
33364W        W 5778  31.503  17.300   0.447
33365W        W 5779  16.782   3.717   0.384
33366W        W 5780   1.266  25.187   3.298
33367W        W 5781  25.710  31.609  10.632
33368W        W 5782  43.345  17.123   2.803
33369W        W 5783   3.815  43.774  12.054
33370W        W 5784  15.236   6.376   5.721
33371W        W 5785  36.347  34.534   1.879
33372W        W 5786   3.322  17.210   2.401
33373W        W 5787  23.573  15.670   2.798
33374W        W 5788  18.063  40.353   0.811
33375W        W 5789   5.727  30.974  14.937
33376W        W 5790  37.960  23.155   2.836
33377W        W 5791  20.072  32.586  11.377
33378W        W 5792   2.880  36.587   3.663
33379W        W 5793  33.508  10.729  12.018
33380W        W 5794  26.053  41.896   0.890
33381W        W 5795   8.896  41.816  13.416
33382W        W 5796  44.268  35.530  13.423
33383W        W 5797  16.174  42.438  12.876
33384W        W 5798  11.346   9.751   3.643
33385W        W 5799   1.769  17.302   3.208
33386W        W 5800  33.898  12.272   2.818
33387W        W 5801   4.323   9.291   4.610
33388W        W 5802  41.429   5.813   1.889
33389W        W 5803   1.896   5.914  11.897
33390W        W 5804  19.178   8.710   3.201
33391W        W 5805   5.876  14.613   9.511
33392W        W 5806  31.507  15.614   1.323
33393W        W 5807  13.713  25.482   0.297
33394W        W 5808  30.637  39.532  14.433
33395W        W 5809  10.638  16.140   0.407
33396W        W 5810  35.513   2.256   0.780
33397W        W 5811  28.640  44.956   3.839
33398W        W 5812  12.721  39.036  14.022
33399W        W 5813   0.406  40.334  11.037
33400W        W 5814  39.340  18.669  12.919
33401W        W 5815  31.517   5.793  10.937
33402W        W 5816  18.087   4.342   1.761
33403W        W 5817  32.451  12.125  13.913
33404W        W 5818   6.182  37.372   1.786
33405W        W 5819   9.750   8.250  13.415
33406W        W 5820  37.035  14.273  12.854
33407W        W 5821   7.838   8.762  13.814
33408W        W 5822  10.807  28.566  14.367
33409W        W 5823  17.264   6.187  14.454
33410W        W 5824   0.394  29.932   3.314
33411W        W 5825  29.543  24.997  12.575
33412W        W 5826  37.436  33.048   4.804
33413W        W 5827   1.783  31.452   3.374
33414W        W 5828  38.565   8.349  11.943
33415W        W 5829   3.880  40.847   3.198
33416W        W 5830  44.877  21.719   1.421
33417W        W 5831  13.808  32.901  14.939
33418W        W 5832  22.050  35.399  13.528
33419W        W 5833  25.098   7.327  13.873
33420W        W 5834  25.470  31.127   4.839
33421W        W 5835  34.382  39.994   2.224
33422W        W 5836  12.813   8.667  12.062
33423W        W 5837  18.627  35.943  10.427
33424W        W 5838  43.833  23.210   1.244
33425W        W 5839  19.754  15.734  13.442
33426W        W 5840  39.452  36.098  13.535
33427W        W 5841  25.683  40.387   4.758
33428W        W 5842  40.927  31.981   3.785
33429W        W 5843  23.561   9.880  14.500
33430W        W 5844  16.237  22.138   4.712
33431W        W 5845  25.144   0.354   3.700
33432W        W 5846   0.799  20.231   2.835
33433W        W 5847  36.919  35.060   1.364
33434W        W 5848   5.361  10.852  10.924
33435W        W 5849  44.883  25.482   4.798
33436W        W 5850   5.286   4.802   4.766
33437W        W 5851  26.522   8.853   4.120
33438W        W 5852   1.263  28.082  10.583
33439W        W 5853  39.926  17.711  12.992
33440W        W 5854  40.360  21.089   0.814
33441W        W 5855  39.341  11.213  13.533
33442W        W 5856  24.992  27.191   3.315
33443W        W 5857  43.502  22.040  13.543
33444W        W 5858  16.796  30.909  12.082
33445W        W 5859  41.813  13.114   2.702
33446W        W 5860  20.747  27.466  13.820
33447W        W 5861  43.471   4.261  12.405
33448W        W 5862   4.207  41.333  13.324
33449W        W 5863  12.257   9.207   0.787
33450W        W 5864  31.638  44.837  11.022
33451W        W 5865  44.954  11.710  13.042
33452W        W 5866  30.620  40.427   4.657
33453W        W 5867  12.714   5.913  14.997
33454W        W 5868  14.218  39.015  11.463
33455W        W 5869  34.081  24.025   0.900
33456W        W 5870   0.316  44.446   1.329
33457W        W 5871  40.472  38.344   3.225
33458W        W 5872  39.040   8.322   4.338
33459W        W 5873  30.540  22.737  10.516
33460W        W 5874  22.236  32.583  12.043
33461W        W 5875  41.317   8.820   1.803
33462W        W 5876  31.618   3.937  12.023
33463W        W 5877  34.519  18.240   1.755
33464W        W 5878  12.721   4.226  11.094
33465W        W 5879   2.283  12.626   2.230
33466W        W 5880  17.752  16.778   2.705
33467W        W 5881  18.580  10.209   0.323
33468W        W 5882  13.268   2.753  13.904
33469W        W 5883   4.892  15.602  14.292
33470W        W 5884  12.692  25.011   3.275
33471W        W 5885  42.802  18.771   2.814
33472W        W 5886  16.274  37.855  13.408
33473W        W 5887  10.327  14.201   2.375
33474W        W 5888   5.361   6.729   4.607
33475W        W 5889  38.864  21.083   1.816
33476W        W 5890  11.850  14.301  10.016
33477W        W 5891  23.241   9.782   1.751
33478W        W 5892  35.899   2.467   2.187
33479W        W 5893  16.619   8.235  10.556
33480W        W 5894  20.624  31.607   4.193
33481W        W 5895  37.508  28.613  13.890
33482W        W 5896  20.125  20.130  13.912
33483W        W 5897   2.227  24.047   1.210
33484W        W 5898  43.777   1.389  11.534
33485W        W 5899  37.869   7.271  13.448
33486W        W 5900  33.021  43.364   0.331
33487W        W 5901  44.322  28.937   4.157
33488W        W 5902  39.538  44.829  13.486
33489W        W 5903   6.762  10.790   1.437
33490W        W 5904  41.911   4.853   4.137
33491W        W 5905  30.002   8.780   0.376
33492W        W 5906   0.844  44.878   2.350
33493W        W 5907   3.230  16.756   4.648
33494W        W 5908  16.153  29.599  10.564
33495W        W 5909  30.614  18.076   3.228
33496W        W 5910   7.784  38.056   0.934
33497W        W 5911  35.916  17.168   0.369
33498W        W 5912  15.737  14.675  14.936
33499W        W 5913  43.348  22.594   2.346
33500W        W 5914  41.807   0.474   2.751
33501W        W 5915  35.484  24.691  13.984
33502W        W 5916   9.212  22.739   3.299
33503W        W 5917  34.598  36.512   1.363
33504W        W 5918  40.040  11.198  14.865
33505W        W 5919  18.788  22.500   0.771
33506W        W 5920   6.261  44.914  12.368
33507W        W 5921  19.574  14.696   1.250
33508W        W 5922  38.031   8.393  13.036
33509W        W 5923   9.255  37.864  10.891
33510W        W 5924   9.160   1.270  10.449
33511W        W 5925  18.773  20.701  14.938
33512W        W 5926  10.702  24.044   4.616
33513W        W 5927   9.343  27.963  14.910
33514W        W 5928  14.188  20.047  13.474
33515W        W 5929  10.234  14.672   4.238
33516W        W 5930   6.683  23.238   0.279
33517W        W 5931   5.834  21.626  14.027
33518W        W 5932  42.883  28.104  14.315
33519W        W 5933  16.807  26.681  11.077
33520W        W 5934  38.408  36.907   3.313
33521W        W 5935  28.944  44.492   2.212
33522W        W 5936  24.046   6.853   4.774
33523W        W 5937  16.177  18.700  10.438
33524W        W 5938  26.005  34.506  12.021
33525W        W 5939  19.733  17.604  11.610
33526W        W 5940  42.966   3.292  11.038
33527W        W 5941  21.091  19.230   4.811
33528W        W 5942   0.895  12.792   1.380
33529W        W 5943  25.677  35.375  14.031
33530W        W 5944   9.207   0.319   3.808
33531W        W 5945  37.043  30.500  13.851
33532W        W 5946  27.025  38.366   0.276
33533W        W 5947   0.746   8.159  14.326
33534W        W 5948   3.376   1.433  11.046
33535W        W 5949  30.619  33.012   3.811
33536W        W 5950  20.704  35.067   1.868
33537W        W 5951   1.322   7.230   3.357
33538W        W 5952  28.560  43.955   2.758
33539W        W 5953  14.694  11.780  13.320
33540W        W 5954  12.295  18.059   2.366
33541W        W 5955  11.245  13.316   3.371
33542W        W 5956  21.712   5.826   2.901
33543W        W 5957   3.454  44.811   0.275
33544W        W 5958   8.830  15.655  14.818
33545W        W 5959  35.432   6.350  14.972
33546W        W 5960  25.514  41.497  10.573
33547W        W 5961  26.638  40.539   3.698
33548W        W 5962  25.054   3.925   1.740
33549W        W 5963  14.707  38.037  12.461
33550W        W 5964   1.752  16.699   1.801
33551W        W 5965   0.883  39.925   3.815
33552W        W 5966   4.346  17.082   4.754
33553W        W 5967  15.188  25.620   4.779
33554W        W 5968  31.459  42.317  13.888
33555W        W 5969  41.927  26.666   4.685
33556W        W 5970  40.802  29.433   1.759
33557W        W 5971  17.702  32.962   2.330
33558W        W 5972  20.742   4.935  14.861
33559W        W 5973  26.687  20.626   3.653
33560W        W 5974  16.086  33.524  14.421
33561W        W 5975  15.305  36.910  10.907
33562W        W 5976  42.333  44.905   4.776
33563W        W 5977  34.991  16.653   9.934
33564W        W 5978  24.500  37.838  11.056
33565W        W 5979  32.481  40.021   4.132
33566W        W 5980   8.802  16.661   1.848
33567W        W 5981  26.112  23.015   4.234
33568W        W 5982  16.613  30.139   2.358
33569W        W 5983  13.740   6.810   5.144
33570W        W 5984  39.556  32.033  10.903
33571W        W 5985  16.233  33.416   2.853
33572W        W 5986  19.633  38.066   1.889
33573W        W 5987  20.256  28.477   0.408
33574W        W 5988  28.060  43.369   4.602
33575W        W 5989  18.650  30.576   2.830
33576W        W 5990  31.957  18.787  12.951
33577W        W 5991  12.823  34.964   3.161
33578W        W 5992  37.348   0.308  10.055
33579W        W 5993   0.305  39.051  14.828
33580W        W 5994  41.333   4.258  12.529
33581W        W 5995  11.781  20.160  14.879
33582W        W 5996  23.599  24.564  13.988
33583W        W 5997  11.129  26.691   1.924
33584W        W 5998  31.121  42.883   4.700
33585W        W 5999  33.120  14.669   2.797
33586W        W 6000   8.203  43.283  12.870
33587W        W 6001   2.876   4.749  13.471
33588W        W 6002  38.412  40.031   1.244
33589W        W 6003   6.892   7.872  13.398
33590W        W 6004   8.887  38.963   3.729
33591W        W 6005  14.200  19.775  11.123
33592W        W 6006  11.195  35.100   1.368
33593W        W 6007  42.426  20.588  11.975
33594W        W 6008  28.680  39.504   2.411
33595W        W 6009  11.337  28.958   4.148
33596W        W 6010   6.680  34.602   1.441
33597W        W 6011  33.978  17.622  14.759
33598W        W 6012   3.797  40.910  10.590
33599W        W 6013   3.891  16.261  13.926
33600W        W 6014  31.973  23.677  14.359
33601W        W 6015  22.236   5.722  13.395
33602W        W 6016  34.916  13.279  11.110
33603W        W 6017  18.759  42.820  10.048
33604W        W 6018   5.326  31.039  11.105
33605W        W 6019  40.376  20.057   3.276
33606W        W 6020   9.294   4.342  11.909
33607W        W 6021   4.257   1.895  12.048
33608W        W 6022  10.183  18.191  11.120
33609W        W 6023  36.950  37.966  12.845
33610W        W 6024   2.737   6.854   4.303
33611W        W 6025   1.917  34.027   3.299
33612W        W 6026  29.945  16.267  12.464
33613W        W 6027   0.356  32.935   1.446
33614W        W 6028  13.160  36.424  12.529
33615W        W 6029  29.570  11.704   0.392
33616W        W 6030  18.109  17.170   1.280
33617W        W 6031  40.045  21.246  12.346
33618W        W 6032  44.285  20.724   4.610
33619W        W 6033  34.917  20.170   0.251
33620W        W 6034   0.317  13.798  10.529
33621W        W 6035  32.510  26.572   1.422
33622W        W 6036  10.653   8.677   4.775
33623W        W 6037  15.659   7.898   0.408
33624W        W 6038  42.327  10.138  14.869
33625W        W 6039  31.544  28.000  11.464
33626W        W 6040   2.950  25.483   2.185
33627W        W 6041   2.857  43.369   3.318
33628W        W 6042  21.142  35.103   1.211
33629W        W 6043   0.304  40.516  12.409
33630W        W 6044  27.608   7.842  12.951
33631W        W 6045  33.619  19.603  11.578
33632W        W 6046  22.188   5.910   2.710
33633W        W 6047  18.164  24.201  11.902
33634W        W 6048   2.804  14.667   3.148
33635W        W 6049  26.471  36.008  11.947
33636W        W 6050  35.996  23.036  12.943
33637W        W 6051   0.970  34.092  13.000
33638W        W 6052  31.622   5.832   3.249
33639W        W 6053  14.335  29.175  12.879
33640W        W 6054  37.897   4.298  14.804
33641W        W 6055  25.173   4.310  11.037
33642W        W 6056  39.974   9.285  11.418
33643W        W 6057  42.377   4.874   1.253
33644W        W 6058  36.957  35.480  10.474
33645W        W 6059  34.041  13.692  11.965
33646W        W 6060  36.458  41.458   2.723
33647W        W 6061  13.158  19.041   9.647
33648W        W 6062  33.959  10.856  11.495
33649W        W 6063  44.815  34.905  12.473
33650W        W 6064  38.980  15.258  11.880
33651W        W 6065  30.516   2.814  11.893
33652W        W 6066  28.493  44.279   1.441
33653W        W 6067   5.901  16.089  13.976
33654W        W 6068   8.401  31.459  13.452
33655W        W 6069  14.627  36.375   1.775
33656W        W 6070  42.330  43.765  13.952
33657W        W 6071  16.208  36.375   0.803
33658W        W 6072  11.255  38.010  13.479
33659W        W 6073  21.134  28.945  12.938
33660W        W 6074  26.153  41.842   1.441
33661W        W 6075  39.964  41.970  12.430
33662W        W 6076   5.294  22.667   4.307
33663W        W 6077  15.237  30.488   1.438
33664W        W 6078   5.420  20.170   2.825
33665W        W 6079  29.491   9.702   3.172
33666W        W 6080  24.052   0.310  11.498
33667W        W 6081  12.296  30.546   1.834
33668W        W 6082  29.464  43.859   4.256
33669W        W 6083  43.461  31.406   4.159
33670W        W 6084   7.281  41.812   0.392
33671W        W 6085  15.298  25.708  14.327
33672W        W 6086  12.289  16.295   3.271
33673W        W 6087  28.652  16.649  14.457
33674W        W 6088   5.713  10.798  13.870
33675W        W 6089   4.853  42.025  10.047
33676W        W 6090  36.379  31.622   4.309
33677W        W 6091  15.651  40.308  11.021
33678W        W 6092  31.439   4.309   4.228
33679W        W 6093   8.660  26.566  11.002
33680W        W 6094  19.779  41.908  10.979
33681W        W 6095   3.440  28.974  10.973
33682W        W 6096  18.171  17.733  14.485
33683W        W 6097  35.937  20.136   3.180
33684W        W 6098  10.270  24.068  13.818
33685W        W 6099  21.719  19.263  10.911
33686W        W 6100  36.898  19.144  10.466
33687W        W 6101  39.413  17.129   1.796
33688W        W 6102  16.301  43.791  10.584
33689W        W 6103   1.789  38.560  10.901
33690W        W 6104   0.373  10.711  13.034
33691W        W 6105  34.922   6.192  11.957
33692W        W 6106  24.505   8.774  12.470
33693W        W 6107  19.065  21.571  11.914
33694W        W 6108  39.505  14.120  13.329
33695W        W 6109   8.883  22.698   0.834
33696W        W 6110  29.598  16.736  10.503
33697W        W 6111   4.264  16.140   0.806
33698W        W 6112  24.581  31.597   2.280
33699W        W 6113  36.960  33.938   2.326
33700W        W 6114  11.366   2.917   4.124
33701W        W 6115   9.684   6.367  10.898
33702W        W 6116  16.307   8.262   4.297
33703W        W 6117  22.706  22.501   2.794
33704W        W 6118  26.565  17.730  14.839
33705W        W 6119  25.514  12.631   1.715
33706W        W 6120  38.350  20.272   2.726
33707W        W 6121  32.635  38.956  12.915
33708W        W 6122   1.286  40.456   4.798
33709W        W 6123  17.080  20.264   2.336
33710W        W 6124   3.815  17.759   3.755
33711W        W 6125   5.373  17.775   4.304
33712W        W 6126  42.868   6.883   1.823
33713W        W 6127  30.567  12.243   4.795
33714W        W 6128  32.460   0.351   4.743
33715W        W 6129  35.067   9.365   1.305
33716W        W 6130   2.339  13.212   0.925
33717W        W 6131  35.577   8.183  12.368
33718W        W 6132  15.185  24.488  12.039
33719W        W 6133  29.548  42.437   4.671
33720W        W 6134  34.441   6.870  13.365
33721W        W 6135  20.186  30.432  11.904
33722W        W 6136   9.656  21.543  11.601
33723W        W 6137  29.983  12.352  14.984
33724W        W 6138   9.214   7.666  14.956
33725W        W 6139   4.365  27.575  13.363
33726W        W 6140  41.876  20.681   1.810
33727W        W 6141  17.264  24.597  14.794
33728W        W 6142   6.740  29.046  14.300
33729W        W 6143  21.621  40.530   1.316
33730W        W 6144  16.184  31.413   0.864
33731W        W 6145   6.385  31.495  12.399
33732W        W 6146  22.672  26.557   2.791
33733W        W 6147  43.284  26.646  11.041
33734W        W 6148  44.799  40.473   2.798
33735W        W 6149  26.186  11.195  10.458
33736W        W 6150   3.435  30.965   0.439
33737W        W 6151  41.789  15.172  10.485
33738W        W 6152  37.964  16.679   1.896
33739W        W 6153  21.605  19.637   1.851
33740W        W 6154   0.748  28.452  12.515
33741W        W 6155   1.966  21.179   2.192
33742W        W 6156  21.173  21.704  11.868
33743W        W 6157  17.208  23.059  13.312
33744W        W 6158  38.985  33.511   0.321
33745W        W 6159  44.847  15.181  13.858
33746W        W 6160  42.286  42.777  14.021
33747W        W 6161  34.881  39.495  14.317
33748W        W 6162  15.278  42.787  11.909
33749W        W 6163   9.849  15.649  12.502
33750W        W 6164  20.099  14.291  12.011
33751W        W 6165  22.146   1.439   0.840
33752W        W 6166  22.068  41.963  13.424
33753W        W 6167  33.884   8.363   2.867
33754W        W 6168  21.677  12.675   2.252
33755W        W 6169  22.583   4.329   4.280
33756W        W 6170  17.793   4.908   0.356
33757W        W 6171  18.631  32.133  14.482
33758W        W 6172  31.605   4.938   1.892
33759W        W 6173  11.692  32.024  12.832
33760W        W 6174  24.580   8.889  11.431
33761W        W 6175   6.308  35.082  12.484
33762W        W 6176  21.735  18.123  11.975
33763W        W 6177   9.304   1.739   2.177
33764W        W 6178  28.980  30.960  11.439
33765W        W 6179  35.435  19.586   4.696
33766W        W 6180  23.648   0.425   0.416
33767W        W 6181  26.991  35.966   2.284
33768W        W 6182  12.218  31.521   3.197
33769W        W 6183  22.143  42.887   3.179
33770W        W 6184  27.638   4.889  10.532
33771W        W 6185  31.498  38.557   2.767
33772W        W 6186  40.449  33.099  13.544
33773W        W 6187  31.958  16.235  13.977
33774W        W 6188  21.238  18.613  13.871
33775W        W 6189  33.617   4.232   3.720
33776W        W 6190  36.589   5.905   3.870
33777W        W 6191   3.762  30.505   3.253
33778W        W 6192  32.902  43.297  12.462
33779W        W 6193  31.529  42.917  11.517
33780W        W 6194  42.319  23.230   1.435
33781W        W 6195  11.354  41.824   1.232
33782W        W 6196  41.320  43.496   2.901
33783W        W 6197  36.884  16.615   1.424
33784W        W 6198  38.894  37.079  13.898
33785W        W 6199  33.105  22.062   3.206
33786W        W 6200  37.362   8.292  13.971
33787W        W 6201  16.156  32.012   3.867
33788W        W 6202  23.612  25.625   2.249
33789W        W 6203   2.895  40.998  12.864
33790W        W 6204  16.268  27.116  10.610
33791W        W 6205  32.906  13.823  14.395
33792W        W 6206  27.169  28.657   2.185
33793W        W 6207  43.361  19.161   1.899
33794W        W 6208   7.401  16.756  13.489
33795W        W 6209  26.569  19.721   5.185
33796W        W 6210   9.787  40.522   4.118
33797W        W 6211  31.646   1.296   3.673
33798W        W 6212  27.510  40.845  10.988
33799W        W 6213  16.633  20.582   3.376
33800W        W 6214  23.187  17.084   4.152
33801W        W 6215  40.032   9.748  11.064
33802W        W 6216  38.834  18.239  11.530
33803W        W 6217  20.219  35.024  12.952
33804W        W 6218  42.516  41.457  13.825
33805W        W 6219  29.563  29.471  10.969
33806W        W 6220  14.182   5.764   2.381
33807W        W 6221  16.167   3.224  12.409
33808W        W 6222   6.292  32.558  12.089
33809W        W 6223  21.150  36.464   4.231
33810W        W 6224  28.026  12.261   4.660
33811W        W 6225  35.373  32.432   2.395
33812W        W 6226  31.151  39.983   3.332
33813W        W 6227  20.031  33.933  10.509
33814W        W 6228  30.957  35.058  13.897
33815W        W 6229   5.896  13.297  12.075
33816W        W 6230  14.096  31.901  12.396
33817W        W 6231  43.331   0.399   2.824
33818W        W 6232  43.002  25.570  14.383
33819W        W 6233  31.047  13.813   3.304
33820W        W 6234  13.112  13.254   2.307
33821W        W 6235  22.222  23.588   1.366
33822W        W 6236  44.457  41.807   3.358
33823W        W 6237  33.018  44.448  14.867
33824W        W 6238   2.838  25.675  12.397
33825W        W 6239  37.018  41.372  13.499
33826W        W 6240  42.792   7.292  12.892
33827W        W 6241  13.122  25.970   4.761
33828W        W 6242   7.755  38.003  12.407
33829W        W 6243  19.580  37.355  13.506
33830W        W 6244  37.869  30.041  10.926
33831W        W 6245  20.238  19.582  11.909
33832W        W 6246  12.280   9.889  12.449
33833W        W 6247  22.741   5.791  11.126
33834W        W 6248  26.628  19.046  13.369
33835W        W 6249  22.013  32.944   0.765
33836W        W 6250  40.485  36.510  11.543
33837W        W 6251  27.641  21.723  13.441
33838W        W 6252  14.148  34.967  10.425
33839W        W 6253  25.175  27.190   2.403
33840W        W 6254  41.032  21.114   0.872
33841W        W 6255  34.372   1.898  11.027
33842W        W 6256  15.591  41.399   2.358
33843W        W 6257  31.552   6.872  12.480
33844W        W 6258  37.949  39.506   3.283
33845W        W 6259  15.802  14.796   4.264
33846W        W 6260  22.241   2.934  11.525
33847W        W 6261  31.039  30.916  11.956
33848W        W 6262  25.483   4.331  12.570
33849W        W 6263  25.494  35.977  13.877
33850W        W 6264   5.291  34.409  12.404
33851W        W 6265   2.832  39.464   1.861
33852W        W 6266  28.609  42.441  13.346
33853W        W 6267  31.552   9.163  14.480
33854W        W 6268  26.653  41.995  14.319
33855W        W 6269  25.038  31.599   0.410
33856W        W 6270  43.509   4.210   3.741
33857W        W 6271  18.765  22.605   2.179
33858W        W 6272  24.123   7.391  14.845
33859W        W 6273  21.066  41.418  13.904
33860W        W 6274  16.204   9.317  12.430
33861W        W 6275  42.785   0.331   0.762
33862W        W 6276  15.253   6.754   3.323
33863W        W 6277  40.866  40.012   4.786
33864W        W 6278   3.888  37.084  12.093
33865W        W 6279  30.941  19.632   3.706
33866W        W 6280  23.220   5.211   0.277
33867W        W 6281  25.614  13.713  13.381
33868W        W 6282   6.397  25.176  12.003
33869W        W 6283  13.268  16.588   1.913
33870W        W 6284  14.809  30.076   0.843
33871W        W 6285  18.766  39.467  13.939
33872W        W 6286  29.629  15.664  14.810
33873W        W 6287  39.559   4.865  14.008
33874W        W 6288  44.462  37.027   2.813
33875W        W 6289  29.156  17.765  14.952
33876W        W 6290   1.437   1.901   0.799
33877W        W 6291   9.746  31.450   2.674
33878W        W 6292  34.960  42.820  11.957
33879W        W 6293  18.105  19.731   3.319
33880W        W 6294  16.115   7.377   4.326
33881W        W 6295  38.054   8.201  14.446
33882W        W 6296  36.084  30.512   2.867
33883W        W 6297  29.926  24.024  12.420
33884W        W 6298  41.987  31.145  10.458
33885W        W 6299  31.997  28.497   3.167
33886W        W 6300  26.122  39.419   2.855
33887W        W 6301  22.694  36.392   3.842
33888W        W 6302  12.287  44.406  13.506
33889W        W 6303  12.742  20.177  11.498
33890W        W 6304  15.590  33.056  13.832
33891W        W 6305   1.757  25.051   4.351
33892W        W 6306  12.193   5.774   4.692
33893W        W 6307  20.683  20.554   3.771
33894W        W 6308  44.812  31.026   0.254
33895W        W 6309   5.431  30.413   4.736
33896W        W 6310   7.336  44.314   2.218
33897W        W 6311  18.258  42.016  14.811
33898W        W 6312  38.566  43.352  10.538
33899W        W 6313  29.442  18.615   1.780
33900W        W 6314   2.890   2.921   3.286
33901W        W 6315  29.458  23.672   4.618
33902W        W 6316  26.055  32.617   3.696
33903W        W 6317  40.432  13.343   0.456
33904W        W 6318  27.541  14.306   3.866
33905W        W 6319  33.127  32.973   0.294
33906W        W 6320  31.518  28.080   1.765
33907W        W 6321  29.522  20.594  12.083
33908W        W 6322  24.611   1.831  14.341
33909W        W 6323  33.438  11.690   0.892
33910W        W 6324  24.623  25.584   0.410
33911W        W 6325   5.356  41.022  11.569
33912W        W 6326  41.298  44.984   0.854
33913W        W 6327  30.433  40.447  11.084
33914W        W 6328  13.169  19.234  14.953
33915W        W 6329   2.835   2.269   1.718
33916W        W 6330  42.489  29.069  10.510
33917W        W 6331  31.896  43.774   2.855
33918W        W 6332  43.827  34.587   3.794
33919W        W 6333   8.869  43.341   3.300
33920W        W 6334   0.862  22.623  13.461
33921W        W 6335   9.824  34.098   1.223
33922W        W 6336  14.645   6.399   4.641
33923W        W 6337  31.451  15.788   9.948
33924W        W 6338  22.676  31.014  10.127
33925W        W 6339  33.904  30.466  10.417
33926W        W 6340   2.732  38.535   2.411
33927W        W 6341   0.867   7.300  10.525
33928W        W 6342  38.861   7.783   2.667
33929W        W 6343  19.668  22.116   3.147
33930W        W 6344   4.807  33.561  13.801
33931W        W 6345   0.281  23.568  11.091
33932W        W 6346  24.213  14.793  11.403
33933W        W 6347  29.996  16.797  10.965
33934W        W 6348  29.590  35.547   3.868
33935W        W 6349  35.370  44.423  14.852
33936W        W 6350  33.978  28.130  13.994
33937W        W 6351  33.547  34.863  11.442
33938W        W 6352  37.923  21.654  11.440
33939W        W 6353  34.576  15.674   4.215
33940W        W 6354  14.138  17.210  14.901
33941W        W 6355   0.794   4.749   4.245
33942W        W 6356  12.345  28.497  13.004
33943W        W 6357   0.972  22.569  13.052
33944W        W 6358  44.867  14.217   3.151
33945W        W 6359  27.044  31.450   1.767
33946W        W 6360   2.451  42.341  12.841
33947W        W 6361   8.804   0.402   4.797
33948W        W 6362   8.259  26.176   2.762
33949W        W 6363  35.560  19.043  14.515
33950W        W 6364  23.218  29.472  13.020
33951W        W 6365  38.896  20.677   4.333
33952W        W 6366   3.352  19.657  14.893
33953W        W 6367  37.540  21.557  14.859
33954W        W 6368   1.278   6.287   0.833
33955W        W 6369   3.346  44.343   2.869
33956W        W 6370  37.902   9.325   2.375
33957W        W 6371  28.118  42.426  10.048
33958W        W 6372  38.343  12.730  13.492
33959W        W 6373  42.028   2.458  10.420
33960W        W 6374  32.589  18.288  11.919
33961W        W 6375  18.715  39.524   3.691
33962W        W 6376  29.520  10.822  12.578
33963W        W 6377   2.383  28.103   0.872
33964W        W 6378  27.451  32.575   3.270
33965W        W 6379  32.456  34.929   3.764
33966W        W 6380  24.710   1.302   3.640
33967W        W 6381   8.728   0.473  13.355
33968W        W 6382  40.901  43.493  12.387
33969W        W 6383   1.957  31.575  11.909
33970W        W 6384   4.839  23.133  12.550
33971W        W 6385   5.402  11.290   3.351
33972W        W 6386  27.018  29.074  13.547
33973W        W 6387  28.595  29.158   0.424
33974W        W 6388  14.270  21.743  13.985
33975W        W 6389   3.871  32.545   0.341
33976W        W 6390  15.206  37.063  13.416
33977W        W 6391  12.680  27.690  13.844
33978W        W 6392   9.822   4.302  12.925
33979W        W 6393  33.522  31.530  10.005
33980W        W 6394   8.730  22.650  11.992
33981W        W 6395  32.122  39.866  11.484
33982W        W 6396  14.291  23.641   1.738
33983W        W 6397  32.066  44.487  11.515
33984W        W 6398  32.466   4.899   3.645
33985W        W 6399  33.467  14.812   2.759
33986W        W 6400   9.671  20.051  11.561
33987W        W 6401  13.304   0.329   0.269
33988W        W 6402  33.903   3.786  13.520
33989W        W 6403  22.018  38.974   2.231
33990W        W 6404  23.237  28.638   1.792
33991W        W 6405  37.522  34.591  11.881
33992W        W 6406  38.507  42.396   4.828
33993W        W 6407  16.599  30.988  10.635
33994W        W 6408   9.674  24.529   4.260
33995W        W 6409   4.710  26.579  14.487
33996W        W 6410  32.469  24.180  13.813
33997W        W 6411  28.952  31.573  11.547
33998W        W 6412   4.795  31.565  14.994
33999W        W 6413  13.214  10.253   4.699
34000W        W 6414  32.033  28.111  13.909
34001W        W 6415  10.270   7.773   2.404
34002W        W 6416  29.941  19.126   3.815
34003W        W 6417   6.187  25.604   0.406
34004W        W 6418  14.320  19.220   3.653
34005W        W 6419  30.523   2.826  13.914
34006W        W 6420   2.773  41.005  10.430
34007W        W 6421  44.371  28.508  10.112
34008W        W 6422   1.970  37.568  11.387
34009W        W 6423   8.814   7.844   3.644
34010W        W 6424   6.732  31.964   2.298
34011W        W 6425  39.972  26.589   0.964
34012W        W 6426  36.927  27.125  14.409
34013W        W 6427  33.102  22.210   1.780
34014W        W 6428   1.787  32.592   2.178
34015W        W 6429  24.637   3.413  10.146
34016W        W 6430   8.279   8.706  13.811
34017W        W 6431   3.949   0.376   4.114
34018W        W 6432  18.587  16.635   1.694
34019W        W 6433  36.378   7.826  14.383
34020W        W 6434  30.162  23.155   3.350
34021W        W 6435  20.576  32.479   0.318
34022W        W 6436   4.710  42.864  13.827
34023W        W 6437  25.080  11.151  14.312
34024W        W 6438  39.368   8.376   0.298
34025W        W 6439   6.800  19.119   0.833
34026W        W 6440   1.788  33.928   2.183
34027W        W 6441  34.613   3.362  11.923
34028W        W 6442  22.239  24.654   1.267
34029W        W 6443  35.393  30.620  13.881
34030W        W 6444   4.219  35.105  12.564
34031W        W 6445  19.755   6.412   2.747
34032W        W 6446   9.703  14.285   3.703
34033W        W 6447  28.089  11.806   1.311
34034W        W 6448  11.150  25.662  11.461
34035W        W 6449  25.710  37.887   1.822
34036W        W 6450  37.009   3.312   3.217
34037W        W 6451  44.939   8.858  12.449
34038W        W 6452   7.697  22.606   1.782
34039W        W 6453  11.176  34.077   2.371
34040W        W 6454  25.646   2.415  13.988
34041W        W 6455  19.226   6.373   3.732
34042W        W 6456  25.103  26.079   0.264
34043W        W 6457  25.521   5.900   0.429
34044W        W 6458  37.472  35.432  10.984
34045W        W 6459  25.640  19.699   2.301
34046W        W 6460  25.578  28.149   3.219
34047W        W 6461  13.642  36.906  14.287
34048W        W 6462  34.411  20.129  12.459
34049W        W 6463   8.854  38.860   0.322
34050W        W 6464  14.818  27.543  14.910
34051W        W 6465  28.168   3.718   1.250
34052W        W 6466  14.169  31.060   4.623
34053W        W 6467   4.915  21.137  11.878
34054W        W 6468   4.890  30.068   1.433
34055W        W 6469  20.664   8.837  14.871
34056W        W 6470  34.005   6.781  14.982
34057W        W 6471  39.024   1.753  14.334
34058W        W 6472  32.506  17.294   3.241
34059W        W 6473  27.498   6.405   2.263
34060W        W 6474  29.514  23.504   3.690
34061W        W 6475   6.376  43.844  13.485
34062W        W 6476  38.559  23.994   3.706
34063W        W 6477  24.161  30.480  11.564
34064W        W 6478  21.259  16.246   1.766
34065W        W 6479   9.236  23.233  11.493
34066W        W 6480  36.876  38.478   2.832
34067W        W 6481  15.727  13.830   9.939
34068W        W 6482  11.238   2.309   1.433
34069W        W 6483   1.340  16.294  12.828
34070W        W 6484  23.014  26.595  11.472
34071W        W 6485   0.395  14.816  13.515
34072W        W 6486  44.452  17.301  11.582
34073W        W 6487   6.765  21.181  10.579
34074W        W 6488  27.091   8.268  13.348
34075W        W 6489   7.397  17.560  13.805
34076W        W 6490   1.929  23.524   2.725
34077W        W 6491   7.684  14.189   3.208
34078W        W 6492  37.082  23.064  13.791
34079W        W 6493  16.725  26.540   4.210
34080W        W 6494  39.874  32.965   2.764
34081W        W 6495  23.030  25.147   2.782
34082W        W 6496  35.588  12.807   0.262
34083W        W 6497  16.113   6.738   2.765
34084W        W 6498  15.305  32.903  14.335
34085W        W 6499   3.774   9.356  11.117
34086W        W 6500   7.187  31.998  13.870
34087W        W 6501  32.399  39.823   2.200
34088W        W 6502  35.425   3.377  11.869
34089W        W 6503  17.748  19.607  14.026
34090W        W 6504  26.134  13.766   4.186
34091W        W 6505  41.456  33.426  13.863
34092W        W 6506  21.103  24.593  10.638
34093W        W 6507  39.322  43.484  13.455
34094W        W 6508   6.846  41.016  10.891
34095W        W 6509  43.999  14.294  14.427
34096W        W 6510  25.679  22.215  11.861
34097W        W 6511  26.669  30.142   3.827
34098W        W 6512  23.576   3.457   4.340
34099W        W 6513   7.866  29.020   3.635
34100W        W 6514  14.692  31.119  13.310
34101W        W 6515   0.786  44.427  12.906
34102W        W 6516  31.520  32.442  12.982
34103W        W 6517   4.241  39.056  11.085
34104W        W 6518  30.527  28.512  12.431
34105W        W 6519   9.366  13.223  13.824
34106W        W 6520  41.350  27.186   4.814
34107W        W 6521  37.978   0.847  10.097
34108W        W 6522  38.534   4.852  12.067
34109W        W 6523  42.378   5.258  12.355
34110W        W 6524  43.372  27.595  11.591
34111W        W 6525  16.760  43.985   3.852
34112W        W 6526   5.704   4.875  11.971
34113W        W 6527  35.378   9.781   3.801
34114W        W 6528  17.797  31.582   1.356
34115W        W 6529  10.641  11.330   4.186
34116W        W 6530  19.708  36.553  11.463
34117W        W 6531  30.045  23.504   4.746
34118W        W 6532  13.706  14.313  10.915
34119W        W 6533  23.563   4.855   3.213
34120W        W 6534  15.742  21.079   0.283
34121W        W 6535  30.463   6.348  10.992
34122W        W 6536  15.775  37.032   3.724
34123W        W 6537  28.134  11.623  10.572
34124W        W 6538  30.435   7.733  12.954
34125W        W 6539  35.060  32.627  14.368
34126W        W 6540  33.079  15.583  12.044
34127W        W 6541  16.751  42.510  12.932
34128W        W 6542  24.518   7.899   4.155
34129W        W 6543  35.537  40.533  11.445
34130W        W 6544  36.970   7.882   2.828
34131W        W 6545  22.251  21.098   1.772
34132W        W 6546  35.029  20.670  10.919
34133W        W 6547  15.298  34.373   4.260
34134W        W 6548  18.548  31.472  13.540
34135W        W 6549  21.044  42.891   3.781
34136W        W 6550  40.305  11.136   2.337
34137W        W 6551  37.546  17.621  11.584
34138W        W 6552  26.098   2.726   1.789
34139W        W 6553   5.201   7.299  12.487
34140W        W 6554  28.071  39.530  13.320
34141W        W 6555  14.674  30.063   3.652
34142W        W 6556  31.921   1.248  13.987
34143W        W 6557  42.351  28.571  12.385
34144W        W 6558  38.978  37.058   3.299
34145W        W 6559  24.074  11.706  14.975
34146W        W 6560   9.870  26.987  11.082
34147W        W 6561  34.457  22.078   1.762
34148W        W 6562  15.678  41.813   4.678
34149W        W 6563  11.222  12.637  12.506
34150W        W 6564  15.628  27.099   2.220
34151W        W 6565  39.538  34.391  10.566
34152W        W 6566  37.389  24.058   2.405
34153W        W 6567   9.825  18.131  14.773
34154W        W 6568   6.740   3.828  10.942
34155W        W 6569  25.115  35.011  11.393
34156W        W 6570   3.878  34.873  14.942
34157W        W 6571  15.179   5.918  12.551
34158W        W 6572  44.839   1.432   3.276
34159W        W 6573  34.417  39.486   1.291
34160W        W 6574  24.112  38.561  12.472
34161W        W 6575  19.566  29.080   4.158
34162W        W 6576  35.369  44.793  12.933
34163W        W 6577  41.526   8.193  13.919
34164W        W 6578   0.750  16.730  13.455
34165W        W 6579   3.865  15.247   4.752
34166W        W 6580   7.195  39.964  11.091
34167W        W 6581  24.717   6.849   0.732
34168W        W 6582   3.796  29.654   5.213
34169W        W 6583  11.724  15.786   2.775
34170W        W 6584  16.270  33.885  10.477
34171W        W 6585   8.878  31.501   0.801
34172W        W 6586  30.916  36.593   0.892
34173W        W 6587  25.051  18.179  14.444
34174W        W 6588  24.023  15.315  13.044
34175W        W 6589   6.757  41.388  14.483
34176W        W 6590  14.810   6.405   3.785
34177W        W 6591  35.518  39.810  10.979
34178W        W 6592  23.674   9.827   2.386
34179W        W 6593  20.153  37.052  12.367
34180W        W 6594   8.402  18.238  14.824
34181W        W 6595  19.612  20.529   2.365
34182W        W 6596  44.840  18.575  12.486
34183W        W 6597  22.091  12.343   0.810
34184W        W 6598  37.433  15.813  10.457
34185W        W 6599   7.906  10.864   0.345
34186W        W 6600  16.748  25.494   2.355
34187W        W 6601  40.856  21.748   3.278
34188W        W 6602  13.189  36.020  10.013
34189W        W 6603  21.631   8.825   2.856
34190W        W 6604  20.031  17.659  11.073
34191W        W 6605  13.153  11.281   3.303
34192W        W 6606  26.170  19.599   4.345
34193W        W 6607   4.873   5.403   3.676
34194W        W 6608  32.477  23.191  14.004
34195W        W 6609   9.787  24.194   0.891
34196W        W 6610   7.375   1.761  12.864
34197W        W 6611   1.370  27.597  11.933
34198W        W 6612  21.031  35.364   4.339
34199W        W 6613  17.240  38.382   0.360
34200W        W 6614  16.307   0.460   4.245
34201W        W 6615  17.100  19.229   0.320
34202W        W 6616  38.456  41.998  10.428
34203W        W 6617  25.553  33.062   0.417
34204W        W 6618  42.859   5.301   1.832
34205W        W 6619  42.981  31.961   1.427
34206W        W 6620  42.975  11.832   0.272
34207W        W 6621  36.566  25.555  14.939
34208W        W 6622  11.782  30.612   0.747
34209W        W 6623  23.693  18.235   1.775
34210W        W 6624  16.188  15.271   1.449
34211W        W 6625  13.731   7.749  13.537
34212W        W 6626   8.801  39.863  11.896
34213W        W 6627  37.504  25.014  11.954
34214W        W 6628  25.084   8.805   2.393
34215W        W 6629  43.301   8.843  10.615
34216W        W 6630  42.870  14.647   3.632
34217W        W 6631   3.857   9.352  13.998
34218W        W 6632   2.355  19.142  14.851
34219W        W 6633   4.325  36.923   2.685
34220W        W 6634  22.147   0.273  13.813
34221W        W 6635  40.339  38.538  11.070
34222W        W 6636  22.668   8.808  12.497
34223W        W 6637  43.426   9.710  11.589
34224W        W 6638  41.841  22.732  10.562
34225W        W 6639  38.006  23.152   0.861
34226W        W 6640  24.686  26.153  11.597
34227W        W 6641  35.872  25.529  13.969
34228W        W 6642  44.414  41.021   2.765
34229W        W 6643   4.355  10.273  11.902
34230W        W 6644  30.998  12.736  11.514
34231W        W 6645  21.193  28.078   4.630
34232W        W 6646  31.104  14.288   3.810
34233W        W 6647   7.754  15.209  12.068
34234W        W 6648  43.793  36.945  11.946
34235W        W 6649  16.281  22.210   2.698
34236W        W 6650  40.831  39.486  13.062
34237W        W 6651  29.603   6.298  14.374
34238W        W 6652  17.634  39.459   0.456
34239W        W 6653  27.076  25.093   5.196
34240W        W 6654   5.756  34.107  14.493
34241W        W 6655   3.727  24.510  12.388
34242W        W 6656   7.399  28.483   2.245
34243W        W 6657  42.880  34.011   0.913
34244W        W 6658  14.293   2.833   2.290
34245W        W 6659  35.944  19.105   2.669
34246W        W 6660   9.264  23.557   3.811
34247W        W 6661  36.356   9.691   4.122
34248W        W 6662  43.459  21.158   2.273
34249W        W 6663  35.548  24.023  12.496
34250W        W 6664  44.487  39.859  14.838
34251W        W 6665   7.702  39.505   3.652
34252W        W 6666   5.257  41.016   5.089
34253W        W 6667  28.157  37.830  12.456
34254W        W 6668  20.582   8.167   0.934
34255W        W 6669  23.695  21.721  10.457
34256W        W 6670   2.813   2.321   2.842
34257W        W 6671  20.257  39.881   4.789
34258W        W 6672  39.383  19.102   1.886
34259W        W 6673  44.854  18.574  10.488
34260W        W 6674   8.330  36.466   2.302
34261W        W 6675  23.178  28.008  10.438
34262W        W 6676  44.936  24.166  11.099
34263W        W 6677  36.901  27.009   3.702
34264W        W 6678  13.257  15.150   2.262
34265W        W 6679  33.424  40.354  13.818
34266W        W 6680  11.222  27.165   3.252
34267W        W 6681  37.487  10.830  12.424
34268W        W 6682  36.438  16.215  12.976
34269W        W 6683  12.244  17.102   3.830
34270W        W 6684  37.996  11.841  12.010
34271W        W 6685  35.512  26.458  14.875
34272W        W 6686  28.178  38.439  12.010
34273W        W 6687  37.930  23.021  14.950
34274W        W 6688  17.203  22.745  14.024
34275W        W 6689  10.670   2.846   4.624
34276W        W 6690  17.598  39.963  10.553
34277W        W 6691  18.137  38.416   3.278
34278W        W 6692  30.576   2.771  13.055
34279W        W 6693  18.775   9.710  13.491
34280W        W 6694   0.331  34.610  13.884
34281W        W 6695  43.422  12.311  14.001
34282W        W 6696  27.466  23.731   3.241
34283W        W 6697   2.943  17.114   0.381
34284W        W 6698   8.669  27.532   0.300
34285W        W 6699  25.009   6.210  14.314
34286W        W 6700  34.919  26.477   3.197
34287W        W 6701  38.351  23.036   2.316
34288W        W 6702  17.193  24.703   2.874
34289W        W 6703  42.307  37.387   2.349
34290W        W 6704  22.625  30.137  14.296
34291W        W 6705  25.088  24.549   2.373
34292W        W 6706  10.381  12.156  12.003
34293W        W 6707   8.798   0.744  11.904
34294W        W 6708  33.974  37.524   2.811
34295W        W 6709  40.862  17.189  12.399
34296W        W 6710  37.005   8.377   0.734
34297W        W 6711  30.618  36.543  11.975
34298W        W 6712  24.588  24.980  13.864
34299W        W 6713  32.584  18.567  10.428
34300W        W 6714  15.324  12.189  12.916
34301W        W 6715  19.257   4.829  12.997
34302W        W 6716  32.975  17.275   2.672
34303W        W 6717  20.119  36.029   0.327
34304W        W 6718  28.614   7.285  11.036
34305W        W 6719  12.333   5.932  11.074
34306W        W 6720  30.594  29.635   4.633
34307W        W 6721  43.347  12.808  10.906
34308W        W 6722  27.623   9.350  11.898
34309W        W 6723   6.706  14.121   4.816
34310W        W 6724  42.800   5.824   3.771
34311W        W 6725  26.565   1.742  10.484
34312W        W 6726  10.729   7.180  11.975
34313W        W 6727  43.875  36.350   3.271
34314W        W 6728  26.600  29.981   2.886
34315W        W 6729  40.997   5.854   3.682
34316W        W 6730  33.036  42.520   0.255
34317W        W 6731  33.905  14.598   4.714
34318W        W 6732   0.487  19.203   4.166
34319W        W 6733  31.907  31.994   0.337
34320W        W 6734  41.334  22.189  12.577
34321W        W 6735  11.737  16.584   0.469
34322W        W 6736  24.036  31.449  10.479
34323W        W 6737  13.131   2.865  14.444
34324W        W 6738  44.992   0.765  10.579
34325W        W 6739  29.147   9.816  14.971
34326W        W 6740  24.140  10.635  11.109
34327W        W 6741  32.960   8.828  14.919
34328W        W 6742  39.971  26.637   4.297
34329W        W 6743  38.491  17.272  12.413
34330W        W 6744  37.546  25.016  14.787
34331W        W 6745  34.608  16.267   4.795
34332W        W 6746  30.567  18.646  10.545
34333W        W 6747  35.105  14.163  14.461
34334W        W 6748  39.442  39.504  13.826
34335W        W 6749  27.448  32.586   4.332
34336W        W 6750  28.570  11.682   4.817
34337W        W 6751  24.489  38.397   1.363
34338W        W 6752  22.621  42.381  12.562
34339W        W 6753  22.139  26.661  10.958
34340W        W 6754  19.632  27.677   4.642
34341W        W 6755   9.392  12.768   1.228
34342W        W 6756  22.046  24.670  13.799
34343W        W 6757   7.725   4.411  11.998
34344W        W 6758  40.367  11.251  11.459
34345W        W 6759  17.664  21.112   1.877
34346W        W 6760  37.991   1.475   0.873
34347W        W 6761  34.443  37.888  11.452
34348W        W 6762  28.998  44.986  11.397
34349W        W 6763  18.625  17.207   1.819
34350W        W 6764  39.398  22.625   1.372
34351W        W 6765  19.581   1.415  12.015
34352W        W 6766  33.468  36.378   4.732
34353W        W 6767  39.410  39.442  11.128
34354W        W 6768  12.803  16.181   4.117
34355W        W 6769  29.125   1.434   4.200
34356W        W 6770  14.176  33.095  13.986
34357W        W 6771  21.121  36.971   4.122
34358W        W 6772  39.444  40.870  13.392
34359W        W 6773  10.378  23.569   4.162
34360W        W 6774  14.696  14.111   3.340
34361W        W 6775   4.229  25.636  14.840
34362W        W 6776  16.251   6.729  10.476
34363W        W 6777   1.442  21.586  11.064
34364W        W 6778  26.182  27.198   3.339
34365W        W 6779  26.528  27.106  10.535
34366W        W 6780  29.047   9.715  11.392
34367W        W 6781  28.007  36.931   0.255
34368W        W 6782  38.547  29.432  14.467
34369W        W 6783  20.639  26.573  10.150
34370W        W 6784   3.756  20.614  11.908
34371W        W 6785  19.635  21.170  13.427
34372W        W 6786  36.517  18.107  12.347
34373W        W 6787  19.703  31.056   0.261
34374W        W 6788  30.592  29.510  14.982
34375W        W 6789  39.506  22.679   2.227
34376W        W 6790  34.876  14.199   4.769
34377W        W 6791  26.098  20.037   3.149
34378W        W 6792   5.822   5.333  11.531
34379W        W 6793  26.666   7.196   3.729
34380W        W 6794  31.046  20.072  14.372
34381W        W 6795   9.237  16.726  11.895
34382W        W 6796  10.343  35.993   3.664
34383W        W 6797  24.082  42.397   4.808
34384W        W 6798  23.603  44.340  11.021
34385W        W 6799  32.606  10.302  10.440
34386W        W 6800  43.290  16.603  13.389
34387W        W 6801  20.209  42.507  11.035
34388W        W 6802  22.602  21.514  11.435
34389W        W 6803   9.168  26.497   0.909
34390W        W 6804  19.137  41.495  11.031
34391W        W 6805   6.859  23.010  12.940
34392W        W 6806   3.854  10.369   0.900
34393W        W 6807  12.830  38.840   3.237
34394W        W 6808  17.238  25.120  12.891
34395W        W 6809  23.022  24.674  13.444
34396W        W 6810  12.779   6.372   4.245
34397W        W 6811  25.114  29.589  13.311
34398W        W 6812  14.682   5.424   1.870
34399W        W 6813  38.512  29.433  13.956
34400W        W 6814   2.825  29.533   3.209
34401W        W 6815  32.070  20.734   3.658
34402W        W 6816  20.689   1.732   3.805
34403W        W 6817  27.081  43.323  13.947
34404W        W 6818  31.607  43.791   0.403
34405W        W 6819  34.398  20.556  13.451
34406W        W 6820  35.099  29.600   2.389
34407W        W 6821  32.475  19.700  11.949
34408W        W 6822  16.623  40.048  11.436
34409W        W 6823  15.275  12.174   1.279
34410W        W 6824   2.933  35.364   4.794
34411W        W 6825  13.841  17.301   1.791
34412W        W 6826  33.125  23.170  14.404
34413W        W 6827  32.571  28.449  10.898
34414W        W 6828  18.238  38.380   1.763
34415W        W 6829  35.424  19.711   1.932
34416W        W 6830   7.191  35.070  11.967
34417W        W 6831  28.046  42.888  10.904
34418W        W 6832   0.483   4.266   0.772
34419W        W 6833   3.398  27.158   0.344
34420W        W 6834  39.492  35.433   2.703
34421W        W 6835  32.544  38.422   0.258
34422W        W 6836  28.436  43.339   1.919
34423W        W 6837  30.443  24.191  13.526
34424W        W 6838  34.597  28.486  12.509
34425W        W 6839  22.745  41.533   2.273
34426W        W 6840  40.941   6.820  13.877
34427W        W 6841   1.977  31.962  12.954
34428W        W 6842   1.919  44.332   3.636
34429W        W 6843  31.909  41.031  13.938
34430W        W 6844  29.536  38.020   3.246
34431W        W 6845   6.286   9.285  10.436
34432W        W 6846   6.281   3.850   3.166
34433W        W 6847  19.652  21.711  12.997
34434W        W 6848   5.836  18.117   1.399
34435W        W 6849  16.194  29.469  11.583
34436W        W 6850  34.538  17.127  11.984
34437W        W 6851  44.912   8.374   3.259
34438W        W 6852  22.245  43.008  11.606
34439W        W 6853  10.717  25.073   3.166
34440W        W 6854  38.871  24.532   2.730
34441W        W 6855  44.370   2.317   4.200
34442W        W 6856  40.853  29.978  13.487
34443W        W 6857  16.139   2.829  11.473
34444W        W 6858   9.730  25.573  12.990
34445W        W 6859  43.977   7.194  14.289
34446W        W 6860  38.364  26.083  11.388
34447W        W 6861   9.803  23.229   4.171
34448W        W 6862  33.965   8.693   3.207
34449W        W 6863  36.478  39.511   0.910
34450W        W 6864  23.034  11.140   1.362
34451W        W 6865  33.990  39.480  11.857
34452W        W 6866  16.206  41.946  11.563
34453W        W 6867   6.714  30.466  13.454
34454W        W 6868  43.331  40.324  11.599
34455W        W 6869  34.597  18.650  14.358
34456W        W 6870  20.222  17.174  11.513
34457W        W 6871  10.166  35.414   3.648
34458W        W 6872  33.891  26.485  14.381
34459W        W 6873   2.769  24.651   2.829
34460W        W 6874  23.001   8.663  12.355
34461W        W 6875  10.801  14.167   4.722
34462W        W 6876   2.467  36.411  11.086
34463W        W 6877  20.604  40.316   3.714
34464W        W 6878  23.633  44.777   5.182
34465W        W 6879  15.787  38.871  11.562
34466W        W 6880  13.313   6.317  12.878
34467W        W 6881  21.146  39.851  12.991
34468W        W 6882  13.254  10.857  12.062
34469W        W 6883  10.265  28.123   2.373
34470W        W 6884  13.286  21.741  11.375
34471W        W 6885  23.236   3.766   0.786
34472W        W 6886   7.733  27.521   2.726
34473W        W 6887  35.377   2.239   4.243
34474W        W 6888   7.231  35.032   3.644
34475W        W 6889  44.358  32.439   2.868
34476W        W 6890  33.997  23.720   3.715
34477W        W 6891   4.884  27.999   4.223
34478W        W 6892  29.949   1.471  10.538
34479W        W 6893  41.954   5.809   3.755
34480W        W 6894  16.083  17.293   4.163
34481W        W 6895  14.153   8.723   4.164
34482W        W 6896  33.082   7.682   1.212
34483W        W 6897  39.005  25.625   1.726
34484W        W 6898   2.398  23.986  14.463
34485W        W 6899  42.436  31.070  11.538
34486W        W 6900  29.953   7.212   2.819
34487W        W 6901  23.554  21.693  14.990
34488W        W 6902  16.634  28.498   1.736
34489W        W 6903   5.851  43.321   2.399
34490W        W 6904   2.923  17.643  11.562
34491W        W 6905   5.851  44.979  14.464
34492W        W 6906   6.279  19.201   3.367
34493W        W 6907   8.167  25.548   1.723
34494W        W 6908   0.936  14.647   2.744
34495W        W 6909  10.271  10.810   3.818
34496W        W 6910  15.177  33.508  13.545
34497W        W 6911  17.589  40.007   3.813
34498W        W 6912   4.378  31.974  13.499
34499W        W 6913  43.964  23.647  13.536
34500W        W 6914   7.346  35.372  12.391
34501W        W 6915   4.942   3.360  11.380
34502W        W 6916   5.886  32.020  12.957
34503W        W 6917  34.993  17.784   3.221
34504W        W 6918  23.706   3.424   3.292
34505W        W 6919  33.060  33.399   1.816
34506W        W 6920  11.147   4.309   1.388
34507W        W 6921  19.650   5.307   0.959
34508W        W 6922  40.455   3.735  11.879
34509W        W 6923  29.114   7.243  13.341
34510W        W 6924  37.551  16.203   4.262
34511W        W 6925  19.233   0.413   2.276
34512W        W 6926   5.865  44.279   2.254
34513W        W 6927  37.446  38.439  11.375
34514W        W 6928  18.208  34.543  10.893
34515W        W 6929  22.014  18.149   2.291
34516W        W 6930  13.602  28.482  13.416
34517W        W 6931   9.298  25.154  13.493
34518W        W 6932  38.453   6.297  13.529
34519W        W 6933  30.071  32.085  13.975
34520W        W 6934  11.688  31.946   4.146
34521W        W 6935  12.850  23.056   4.341
34522W        W 6936  29.429  34.607   3.815
34523W        W 6937   3.352  20.037  13.900
34524W        W 6938  37.572  36.417   2.225
34525W        W 6939  21.079  25.468  11.373
34526W        W 6940   5.776  13.651  12.015
34527W        W 6941   9.252  37.575   2.382
34528W        W 6942   8.252  32.627   0.824
34529W        W 6943  44.423  11.339  10.159
34530W        W 6944   7.241  11.257   2.416
34531W        W 6945  14.713  23.656   3.324
34532W        W 6946  27.581  12.809  14.022
34533W        W 6947   0.958  19.175   0.262
34534W        W 6948  12.187  34.936  10.471
34535W        W 6949  33.994  36.382  10.460
34536W        W 6950  18.733  24.115  12.973
34537W        W 6951  21.756  16.722   1.876
34538W        W 6952   2.925  43.287   1.890
34539W        W 6953  10.729  31.061   3.203
34540W        W 6954  26.070  15.083  14.783
34541W        W 6955  15.793  14.613   3.318
34542W        W 6956  20.266  44.839   0.939
34543W        W 6957  20.694  37.985  11.510
34544W        W 6958  27.967  22.168  10.564
34545W        W 6959  30.561   5.730   1.893
34546W        W 6960  18.180  25.632   0.445
34547W        W 6961   0.420  16.251  13.475
34548W        W 6962  27.946   8.780   2.836
34549W        W 6963  33.048  33.596   0.802
34550W        W 6964  37.582  43.866   0.261
34551W        W 6965   2.893  14.196  14.474
34552W        W 6966  36.993  10.232   4.678
34553W        W 6967  25.609  28.002   4.829
34554W        W 6968  44.768  17.229   4.169
34555W        W 6969  44.320  14.299   0.787
34556W        W 6970  25.082  14.605  13.482
34557W        W 6971  20.145  33.483  11.467
34558W        W 6972  27.134  23.016   2.699
34559W        W 6973  26.495  44.431   4.780
34560W        W 6974  16.662  13.713  12.341
34561W        W 6975  38.495  33.898  14.493
34562W        W 6976  42.900  38.060   1.817
34563W        W 6977  29.918  19.203  14.920
34564W        W 6978  16.750  27.046   4.237
34565W        W 6979   8.782   1.808   3.809
34566W        W 6980  14.249  17.141   9.986
34567W        W 6981  23.095  21.709   3.251
34568W        W 6982  12.157  12.360  10.913
34569W        W 6983   8.321  41.000  14.467
34570W        W 6984  18.738  20.657  13.997
34571W        W 6985  17.657  15.329   2.715
34572W        W 6986  10.763   1.361   4.271
34573W        W 6987   0.360  24.682   2.843
34574W        W 6988  31.452  27.577   3.752
34575W        W 6989   9.221  14.103  14.506
34576W        W 6990   8.659   2.730  14.474
34577W        W 6991  36.917   0.342   4.822
34578W        W 6992  14.298  16.085   1.348
34579W        W 6993  29.610  35.413  11.054
34580W        W 6994  20.111  13.836   3.282
34581W        W 6995  25.158  14.232   4.335
34582W        W 6996   3.457  25.984   0.840
34583W        W 6997  35.481  19.242   3.630
34584W        W 6998  18.753  42.874   0.484
34585W        W 6999   4.928  23.151  12.002
34586W        W 7000  21.152  39.334   2.299
34587W        W 7001   9.188  20.692  12.917
34588W        W 7002   3.764  32.043  12.091
34589W        W 7003   5.831   0.450   1.876
34590W        W 7004  36.409   6.368   2.771
34591W        W 7005  20.273  39.434   3.251
34592W        W 7006  29.070   2.845  13.918
34593W        W 7007   8.184  36.852  11.538
34594W        W 7008  40.323  22.650   4.687
34595W        W 7009   4.449  33.899   4.133
34596W        W 7010  29.547   8.288   1.246
34597W        W 7011  34.977   8.346  11.389
34598W        W 7012  10.260  44.902   4.324
34599W        W 7013  43.425  18.648   3.176
34600W        W 7014   5.757  38.862   3.174
34601W        W 7015  22.688  44.303   4.766
34602W        W 7016  23.083  16.679  12.839
34603W        W 7017  43.286   9.316   2.249
34604W        W 7018   0.290   7.367   3.727
34605W        W 7019  40.909  26.147  10.561
34606W        W 7020  42.877  39.505  13.506
34607W        W 7021  22.020  18.194   3.231
34608W        W 7022  14.803   1.909   0.303
34609W        W 7023   2.260  40.387  12.954
34610W        W 7024   4.886   3.259  13.908
34611W        W 7025  18.081  43.453   3.711
34612W        W 7026  24.679   7.195   4.655
34613W        W 7027  23.668   1.811   3.804
34614W        W 7028  43.347  17.269   4.744
34615W        W 7029  20.218  42.889   0.776
34616W        W 7030   1.264   7.281   2.833
34617W        W 7031  35.453  35.066   1.814
34618W        W 7032  35.575   4.892   4.699
34619W        W 7033  13.830   1.827   2.688
34620W        W 7034  21.168  16.713  12.886
34621W        W 7035  18.235  13.784  10.521
34622W        W 7036  39.843  40.419   0.348
34623W        W 7037  44.292  24.038  10.985
34624W        W 7038  17.061  37.883   4.126
34625W        W 7039  36.480  35.403  10.069
34626W        W 7040  23.688  42.436   3.744
34627W        W 7041  43.310  17.574  11.525
34628W        W 7042  25.477   2.423  14.467
34629W        W 7043  21.175  36.865  13.517
34630W        W 7044   3.901  34.867   3.746
34631W        W 7045  30.157  22.734  13.470
34632W        W 7046  11.629  13.772   0.388
34633W        W 7047  11.163  20.179   1.367
34634W        W 7048  32.599   5.425   3.834
34635W        W 7049   9.254  37.513  14.950
34636W        W 7050  18.575  32.052   4.621
34637W        W 7051   6.688   0.315  12.951
34638W        W 7052  10.328  32.431   2.288
34639W        W 7053  37.978   8.892   2.747
34640W        W 7054  22.995  34.408  13.022
34641W        W 7055  18.750   4.707  11.117
34642W        W 7056  36.407  25.024   1.331
34643W        W 7057  36.476  34.920   2.692
34644W        W 7058  38.430  37.533   3.797
34645W        W 7059  28.123  14.338   4.629
34646W        W 7060  30.591  11.714  13.955
34647W        W 7061  20.657  15.744  11.572
34648W        W 7062  17.746  41.034  14.915
34649W        W 7063  10.762   3.770   0.773
34650W        W 7064  24.131  41.889  11.601
34651W        W 7065  14.263  20.646  13.414
34652W        W 7066   8.374  28.949   1.718
34653W        W 7067  17.763  11.370  14.933
34654W        W 7068  44.497  26.978   2.344
34655W        W 7069  40.312   6.830   2.699
34656W        W 7070  12.823  22.747   4.291
34657W        W 7071  41.438  24.015  11.466
34658W        W 7072  39.957  34.413   2.839
34659W        W 7073  11.308   6.197  10.919
34660W        W 7074  17.201   0.935  12.409
34661W        W 7075  36.897  37.859  13.535
34662W        W 7076  27.628  10.672  14.764
34663W        W 7077   2.957  44.942  12.063
34664W        W 7078  28.963   1.383  12.533
34665W        W 7079   4.349   2.856  11.057
34666W        W 7080  19.657  12.629   2.339
34667W        W 7081  22.051   3.884  11.586
34668W        W 7082   2.238  27.623  14.025
34669W        W 7083  17.268  19.044   4.675
34670W        W 7084  25.514  10.308  12.507
34671W        W 7085  10.365  41.418  13.532
34672W        W 7086  31.041  40.319   3.298
34673W        W 7087   9.383  33.070  11.000
34674W        W 7088  28.118  14.175   0.428
34675W        W 7089  32.494   5.744   2.194
34676W        W 7090  41.387  27.606  11.997
34677W        W 7091  22.158  10.267  13.453
34678W        W 7092   6.683  32.615  10.941
34679W        W 7093   2.911   2.957   3.832
34680W        W 7094   6.237  42.315   2.206
34681W        W 7095   6.839  13.635  10.438
34682W        W 7096   7.788  40.832   4.831
34683W        W 7097  41.867  16.726   4.672
34684W        W 7098  10.825  17.233   0.839
34685W        W 7099  34.041  28.973  12.440
34686W        W 7100  33.124  35.909  14.493
34687W        W 7101  11.789  23.699  14.784
34688W        W 7102  10.717  21.093   3.786
34689W        W 7103  11.133   3.798  13.406
34690W        W 7104   7.272  16.257   1.272
34691W        W 7105   3.872  44.360   1.767
34692W        W 7106  16.221  27.665  14.364
34693W        W 7107  42.803  16.198  13.852
34694W        W 7108  25.999  40.317  14.796
34695W        W 7109  16.283  36.374   2.824
34696W        W 7110  19.077  38.436   4.244
34697W        W 7111  40.316  40.821   3.790
34698W        W 7112  22.227  13.840   0.941
34699W        W 7113   1.825  28.066   1.896
34700W        W 7114   3.904  37.908   2.379
34701W        W 7115  13.226  10.349  10.892
34702W        W 7116   0.743   4.262   0.961
34703W        W 7117  24.518  20.097  13.890
34704W        W 7118  11.695  15.584   0.456
34705W        W 7119  36.968   7.250  13.343
34706W        W 7120  44.902  38.012   2.859
34707W        W 7121  30.506  14.318  11.039
34708W        W 7122  21.531  36.849  13.315
34709W        W 7123  41.998  16.113   0.795
34710W        W 7124  36.402   2.744  14.785
34711W        W 7125   8.335  41.428   4.781
34712W        W 7126   6.786  17.731  14.380
34713W        W 7127   2.419  14.694   1.694
34714W        W 7128   8.851  24.115   3.769
34715W        W 7129  29.147  30.926   0.800
34716W        W 7130  36.983  13.675  11.421
34717W        W 7131  21.116  28.090   1.434
34718W        W 7132  37.043   8.210   1.721
34719W        W 7133  13.200  29.587   1.912
34720W        W 7134  40.519  41.936   3.363
34721W        W 7135  22.508  41.327  10.515
34722W        W 7136  36.939  42.866   4.256
34723W        W 7137  26.702   2.961   2.239
34724W        W 7138   0.354   9.164  14.342
34725W        W 7139   3.251  15.111  14.439
34726W        W 7140   8.279   1.255   4.694
34727W        W 7141  19.773   0.337  12.523
34728W        W 7142  41.837   8.866   3.326
34729W        W 7143  35.475  29.661   0.921
34730W        W 7144  36.512  37.985   0.735
34731W        W 7145  38.956  17.097   4.660
34732W        W 7146   2.758  36.863   0.910
34733W        W 7147  29.521  34.121  14.907
34734W        W 7148  44.465  30.484  11.084
34735W        W 7149  13.242  44.873   2.396
34736W        W 7150   4.776  21.666  10.637
34737W        W 7151  41.977  15.617  10.047
34738W        W 7152  41.419   7.261  10.532
34739W        W 7153  30.514  39.946   3.348
34740W        W 7154   2.922  44.994  10.542
34741W        W 7155  31.983  30.930  11.088
34742W        W 7156  26.083  19.696   0.878
34743W        W 7157  34.886  31.151  14.346
34744W        W 7158  27.542  20.612   0.915
34745W        W 7159  15.194   7.411  13.418
34746W        W 7160  20.757  15.197   3.814
34747W        W 7161   1.446  24.208   2.191
34748W        W 7162   8.861  41.848  13.011
34749W        W 7163   0.251   5.332   0.395
34750W        W 7164  34.113  37.851   0.816
34751W        W 7165  28.048  13.798  12.975
34752W        W 7166  32.090  34.548   0.357
34753W        W 7167  18.652   8.714  14.874
34754W        W 7168  17.679  10.377   0.444
34755W        W 7169  33.397  13.609  10.007
34756W        W 7170  33.610  23.233   3.827
34757W        W 7171  21.664  41.859  11.954
34758W        W 7172   7.328  24.588  11.105
34759W        W 7173   7.882  32.449  12.367
34760W        W 7174  41.501  33.459  12.478
34761W        W 7175  29.968   2.727  11.026
34762W        W 7176  30.469  22.694   0.949
34763W        W 7177   2.401   1.897  11.987
34764W        W 7178  38.016  33.541   1.416
34765W        W 7179  38.852  33.595  11.553
34766W        W 7180  41.482  17.273   3.800
34767W        W 7181  11.681  14.258  12.867
34768W        W 7182  42.975  31.414   0.367
34769W        W 7183  23.990  21.025   4.156
34770W        W 7184  13.258  10.780   1.876
34771W        W 7185  29.437  15.258   1.761
34772W        W 7186  16.573  44.298  11.404
34773W        W 7187   9.297  44.369   2.352
34774W        W 7188  39.014  39.037  12.049
34775W        W 7189  13.810   4.778   0.257
34776W        W 7190  32.461  33.018   3.749
34777W        W 7191  17.278  40.451  10.123
34778W        W 7192   8.828  27.168  14.910
34779W        W 7193  29.659  25.165   4.707
34780W        W 7194  30.415  31.979  12.471
34781W        W 7195  20.700  18.065  13.516
34782W        W 7196  44.758   8.222   2.741
34783W        W 7197  25.118  29.435   2.689
34784W        W 7198   8.217  21.744  14.457
34785W        W 7199   0.415  15.102   3.853
34786W        W 7200   2.910  21.747  12.434
34787W        W 7201  36.050  28.635  13.374
34788W        W 7202  29.978  18.711   1.814
34789W        W 7203  19.741  19.281  11.074
34790W        W 7204  34.573  23.150   3.315
34791W        W 7205  34.998  27.677  12.557
34792W        W 7206  23.058  13.194  11.427
34793W        W 7207  17.176  36.928  11.494
34794W        W 7208  18.751  28.601   0.914
34795W        W 7209   9.707  40.813  11.492
34796W        W 7210  24.227  11.748  14.508
34797W        W 7211  35.970   6.414   1.763
34798W        W 7212  44.983  33.082   2.687
34799W        W 7213  41.029  30.659   0.924
34800W        W 7214  13.210  10.272   3.720
34801W        W 7215  38.558  37.832  11.511
34802W        W 7216  12.786  37.467   0.480
34803W        W 7217  22.678  40.358  10.939
34804W        W 7218  20.049   6.801   4.206
34805W        W 7219   3.846  36.589  10.472
34806W        W 7220  36.920  23.501   3.794
34807W        W 7221  14.718  40.989   0.329
34808W        W 7222  36.033  14.125  12.085
34809W        W 7223   6.899  12.163   0.250
34810W        W 7224  31.145  10.365   4.331
34811W        W 7225  40.940  15.327   1.345
34812W        W 7226  23.993   3.232   0.251
34813W        W 7227  22.742  22.074  13.506
34814W        W 7228   7.687  32.613  14.359
34815W        W 7229  33.037  31.940  13.912
34816W        W 7230  10.666  12.241   3.743
34817W        W 7231   4.707   1.880  10.103
34818W        W 7232  31.055  32.996   3.347
34819W        W 7233   2.320   7.297   3.372
34820W        W 7234  22.163  38.032   2.732
34821W        W 7235  15.323  40.969   3.165
34822W        W 7236  31.968  25.587   0.325
34823W        W 7237  33.062  14.742  12.828
34824W        W 7238   0.863  13.671  10.940
34825W        W 7239  35.099   6.231   4.297
34826W        W 7240  41.877  20.183   0.359
34827W        W 7241   6.189  28.632   9.932
34828W        W 7242  16.207  22.707  14.428
34829W        W 7243  21.753   5.851   1.835
34830W        W 7244  16.692   1.406  11.053
34831W        W 7245  12.816  34.965  14.384
34832W        W 7246  41.424  36.029  14.808
34833W        W 7247  11.177  23.710  13.815
34834W        W 7248  21.201  25.972  13.524
34835W        W 7249  27.574  22.715  12.417
34836W        W 7250  35.858  40.344  10.516
34837W        W 7251  18.228  39.392  12.878
34838W        W 7252  18.780  15.205   1.799
34839W        W 7253   7.407  44.374  12.946
34840W        W 7254  10.712  40.460  14.893
34841W        W 7255  10.352  28.667   1.307
34842W        W 7256  20.058   1.474   4.671
34843W        W 7257  19.143  14.138   3.816
34844W        W 7258  30.579  17.197  13.881
34845W        W 7259  29.968  36.423  12.361
34846W        W 7260  26.125   4.381  11.526
34847W        W 7261  33.046   9.257  12.908
34848W        W 7262  13.118   4.412   0.764
34849W        W 7263  22.608   1.834  11.024
34850W        W 7264  20.613  19.688  13.957
34851W        W 7265  31.590  11.245   3.852
34852W        W 7266  19.159  44.449  12.930
34853W        W 7267  30.933  23.629  10.494
34854W        W 7268  11.273   4.375   0.359
34855W        W 7269   4.796  23.135   0.436
34856W        W 7270  27.051   8.395   1.241
34857W        W 7271  37.833  30.071   3.367
34858W        W 7272   6.225  29.647   2.375
34859W        W 7273   2.259  24.707  12.458
34860W        W 7274  34.614  16.584   3.717
34861W        W 7275   4.926  26.486   3.720
34862W        W 7276   6.676  35.412  11.115
34863W        W 7277  40.311   3.233   0.732
34864W        W 7278  23.225   0.744   3.371
34865W        W 7279   9.693  24.133  11.982
34866W        W 7280   0.811  39.985  12.837
34867W        W 7281  27.008   3.760  10.454
34868W        W 7282  10.846   6.352  14.510
34869W        W 7283   2.332   6.301   3.766
34870W        W 7284  34.495  22.135   3.646
34871W        W 7285  30.645  11.774   2.850
34872W        W 7286  10.793   5.892   4.348
34873W        W 7287  10.210  13.241  14.445
34874W        W 7288  35.400   5.791  14.409
34875W        W 7289  44.966  17.794  13.413
34876W        W 7290   9.677  25.548   4.186
34877W        W 7291   5.872  15.257  13.444
34878W        W 7292  19.145   9.365  10.496
34879W        W 7293  15.178  33.490   3.341
34880W        W 7294  20.178  42.913   3.645
34881W        W 7295  12.749  44.010  14.993
34882W        W 7296  28.675  32.949  10.501
34883W        W 7297   2.922  24.009  14.811
34884W        W 7298  31.113  16.707  12.897
34885W        W 7299  35.560  36.386  11.864
34886W        W 7300  20.085  28.460  13.319
34887W        W 7301  42.503   3.362   0.328
34888W        W 7302  43.328  43.900  13.990
34889W        W 7303  11.186   3.301  10.482
34890W        W 7304   6.726   5.832   3.784
34891W        W 7305   5.738  42.878   1.739
34892W        W 7306  13.243  24.195   0.741
34893W        W 7307  20.259  11.136   1.870
34894W        W 7308  44.284  20.194   3.715
34895W        W 7309  37.947  37.469   0.456
34896W        W 7310   6.896   4.346  11.532
34897W        W 7311   9.759   9.687   2.809
34898W        W 7312  11.639   3.821  12.396
34899W        W 7313  42.294  35.569   4.299
34900W        W 7314  21.184  44.292   1.294
34901W        W 7315  12.283  12.835  10.896
34902W        W 7316  13.825  27.992  13.434
34903W        W 7317  21.113  29.131   2.209
34904W        W 7318  30.963  43.830  14.875
34905W        W 7319  28.556   0.927  11.408
34906W        W 7320   7.671  27.620  11.121
34907W        W 7321  20.161  11.345  10.996
34908W        W 7322  41.836  10.702   3.837
34909W        W 7323  11.334  44.991  11.566
34910W        W 7324  24.133   2.340  10.489
34911W        W 7325  11.354   7.761   0.844
34912W        W 7326  29.170   5.714  14.777
34913W        W 7327  11.685  23.039  13.375
34914W        W 7328  26.027  35.380  14.847
34915W        W 7329  12.662  21.536   4.297
34916W        W 7330  14.730   8.793  12.545
34917W        W 7331  17.261  32.425  12.510
34918W        W 7332  32.498  10.848  14.426
34919W        W 7333  29.936  28.565   2.672
34920W        W 7334  17.688  35.484   2.671
34921W        W 7335   1.323  32.018   2.902
34922W        W 7336  23.146  39.893   0.796
34923W        W 7337  21.044  17.779   0.765
34924W        W 7338  10.681   8.371   3.209
34925W        W 7339   2.409  34.950   9.951
34926W        W 7340  36.403   2.874   2.250
34927W        W 7341  13.349  21.225   1.697
34928W        W 7342   3.295  18.616  14.811
34929W        W 7343  30.968  29.992   4.612
34930W        W 7344  14.225  38.503  12.844
34931W        W 7345   5.296   0.950   4.619
34932W        W 7346  29.637  40.302  10.466
34933W        W 7347  42.921  10.816  12.040
34934W        W 7348  39.952  18.627  14.277
34935W        W 7349  43.980  24.228   0.806
34936W        W 7350  39.483  31.122  13.915
34937W        W 7351  25.664  30.130   1.434
34938W        W 7352  16.216  39.433   3.233
34939W        W 7353  11.676  28.988   3.671
34940W        W 7354  30.943  19.565   2.834
34941W        W 7355   3.358  26.505  11.988
34942W        W 7356  21.074   6.867  10.888
34943W        W 7357  19.594  20.742   0.730
34944W        W 7358  43.324  44.344  12.059
34945W        W 7359   1.390  32.922  12.043
34946W        W 7360  38.452  15.683  10.118
34947W        W 7361  39.847  12.689  13.327
34948W        W 7362  23.138  21.098  11.044
34949W        W 7363  30.093  42.975   3.864
34950W        W 7364   0.868  42.868   1.254
34951W        W 7365  20.212  32.886  12.453
34952W        W 7366   9.297   0.752  14.876
34953W        W 7367   7.790  29.664  11.977
34954W        W 7368   0.407  14.136   4.611
34955W        W 7369  31.044  40.461  10.113
34956W        W 7370  24.025   5.874  14.799
34957W        W 7371  32.599  19.273   4.809
34958W        W 7372   2.776  19.044   0.406
34959W        W 7373  34.546  17.286  10.526
34960W        W 7374   8.199  25.534  13.808
34961W        W 7375  40.908  19.638  11.002
34962W        W 7376   1.320  23.122   1.449
34963W        W 7377  27.034  40.362   1.395
34964W        W 7378  11.186   0.385   1.366
34965W        W 7379  33.946   2.907   3.845
34966W        W 7380  44.393  36.381   0.866
34967W        W 7381   4.419  44.889   0.800
34968W        W 7382  26.196  32.944  11.606
34969W        W 7383  18.151   9.652  12.554
34970W        W 7384  17.709  44.808   9.524
34971W        W 7385   8.259  43.933   2.275
34972W        W 7386  19.099  30.492   0.765
34973W        W 7387  23.077  31.053  13.333
34974W        W 7388  21.546  20.248   0.892
34975W        W 7389  15.810  14.200  14.945
34976W        W 7390  28.501  26.627   3.379
34977W        W 7391  18.196   0.972   4.247
34978W        W 7392  12.358  31.906   5.305
34979W        W 7393  37.424  38.841  12.845
34980W        W 7394  29.167   1.454   2.289
34981W        W 7395   8.837  37.835   2.854
34982W        W 7396  28.046   4.833   0.899
34983W        W 7397  35.532  37.378  14.365
34984W        W 7398  34.409  33.935   0.430
34985W        W 7399  24.532  39.058  12.487
34986W        W 7400  18.672  35.870   4.256
34987W        W 7401  12.834  29.149   1.240
34988W        W 7402  13.291  32.487  13.957
34989W        W 7403  44.503   5.832   5.207
34990W        W 7404  42.840   2.848   2.342
34991W        W 7405   1.251  36.446  10.552
34992W        W 7406  22.134  23.671   3.645
34993W        W 7407   2.259  44.825   4.827
34994W        W 7408  29.607  12.187  11.561
34995W        W 7409  32.582   2.828  14.759
34996W        W 7410  38.428  30.921  14.400
34997W        W 7411   4.838  17.569   4.118
34998W        W 7412  24.977  26.490   0.961
34999W        W 7413  27.038  13.814  11.436
35000W        W 7414  43.391   3.276   0.767
35001W        W 7415   4.301  13.640   4.271
35002W        W 7416  34.553  40.981  12.501
35003W        W 7417  22.520  31.959  10.638
35004W        W 7418  19.586   4.752   1.338
35005W        W 7419  19.736  44.930   3.851
35006W        W 7420  31.120  12.799   2.885
35007W        W 7421  10.263  43.512   4.716
35008W        W 7422  35.973  29.484  13.058
35009W        W 7423  41.329  15.286   2.688
35010W        W 7424   9.166  40.802   2.876
35011W        W 7425  24.179   2.280   2.686
35012W        W 7426  27.981  36.347  12.359
35013W        W 7427   7.761   9.345   3.709
35014W        W 7428  32.463  36.355   1.282
35015W        W 7429  36.892  33.497   3.768
35016W        W 7430  24.189  21.195  10.075
35017W        W 7431  21.049  25.670  12.505
35018W        W 7432   3.430  28.552   1.329
35019W        W 7433  17.126  24.654   4.821
35020W        W 7434  30.533  12.696  14.769
35021W        W 7435  20.732   9.869   1.835
35022W        W 7436  28.657  40.385   0.325
35023W        W 7437  14.806  35.409  12.000
35024W        W 7438  44.331  29.464  12.052
35025W        W 7439  15.256  40.938  10.893
35026W        W 7440  34.390  21.552  14.449
35027W        W 7441  12.219  19.715   3.372
35028W        W 7442  13.308  34.000  14.770
35029W        W 7443   5.358   9.360  10.477
35030W        W 7444  10.700   2.755   4.179
35031W        W 7445  39.470  28.091  11.454
35032W        W 7446  28.167  22.532  12.034
35033W        W 7447   5.246  10.874   1.707
35034W        W 7448   4.420  35.392  13.878
35035W        W 7449  14.651  40.525  12.531
35036W        W 7450  37.852  29.159   0.396
35037W        W 7451   6.197  31.073  13.538
35038W        W 7452  15.284  23.185  11.894
35039W        W 7453  24.508  25.648   0.953
35040W        W 7454  42.963  44.471  11.576
35041W        W 7455  16.262  19.659   3.216
35042W        W 7456  42.012  10.321   3.270
35043W        W 7457   5.336  12.850   0.379
35044W        W 7458  24.532  18.790   3.274
35045W        W 7459  14.592  25.546   0.472
35046W        W 7460  39.998   8.874   3.365
35047W        W 7461  24.670  23.098  11.388
35048W        W 7462  34.580   7.681   2.352
35049W        W 7463   5.706   9.383   1.349
35050W        W 7464  41.874   3.755   0.871
35051W        W 7465   5.889  14.631   5.140
35052W        W 7466  28.589  29.581  14.871
35053W        W 7467   3.357  43.926  13.938
35054W        W 7468  34.484  11.326   3.370
35055W        W 7469  29.641   1.413  11.532
35056W        W 7470  12.666   6.271  12.374
35057W        W 7471  34.530  42.890  14.981
35058W        W 7472   2.750  38.375   4.156
35059W        W 7473  17.720  31.069  13.366
35060W        W 7474   5.213  26.019  14.974
35061W        W 7475  37.524  21.583  14.398
35062W        W 7476  20.046  19.687  14.331
35063W        W 7477  27.497  37.533  13.491
35064W        W 7478  44.819  40.322   4.817
35065W        W 7479  44.359   2.740  11.905
35066W        W 7480  43.917  40.031   2.233
35067W        W 7481  26.183  16.639  13.045
35068W        W 7482   7.790  27.680  12.339
35069W        W 7483  20.204  21.617  11.054
35070W        W 7484  43.807  13.111   2.314
35071W        W 7485  33.959   3.743  11.941
35072W        W 7486   7.705  33.422   4.297
35073W        W 7487  26.569  37.496   1.268
35074W        W 7488  35.059   4.852   3.663
35075W        W 7489  12.176  28.161   2.696
35076W        W 7490  22.722   3.304  10.943
35077W        W 7491  23.106  27.991   3.799
35078W        W 7492  25.006  15.623  12.446
35079W        W 7493  22.169   6.284   1.267
35080W        W 7494  27.171   6.370   3.869
35081W        W 7495  12.732  31.468  13.384
35082W        W 7496   2.424  33.390   0.775
35083W        W 7497  15.126  27.192  12.835
35084W        W 7498  34.116  26.553   0.847
35085W        W 7499  23.241  17.722  10.586
35086W        W 7500  36.581  41.470  14.475
35087W        W 7501  22.144  23.048   2.225
35088W        W 7502   3.764  21.669  11.429
35089W        W 7503  33.607  39.991  13.957
35090W        W 7504   5.390   5.422   0.890
35091W        W 7505   4.739   3.854   1.310
35092W        W 7506   1.826  18.743   3.275
35093W        W 7507   7.831  24.502   0.819
35094W        W 7508  14.717   7.209   2.859
35095W        W 7509  42.495   1.426   2.813
35096W        W 7510  33.545  33.578   3.774
35097W        W 7511  10.223   4.933   2.286
35098W        W 7512  21.140  17.130  10.592
35099W        W 7513  36.425  41.928   4.225
35100W        W 7514  20.662  26.690   0.776
35101W        W 7515  37.888  25.183  12.347
35102W        W 7516  11.146  28.661   1.339
35103W        W 7517  41.356   9.873   3.166
35104W        W 7518   6.422  32.585  10.026
35105W        W 7519  32.512  11.845   4.699
35106W        W 7520  37.946  13.298  12.543
35107W        W 7521  18.569  40.404   3.712
35108W        W 7522   2.402  36.078  10.073
35109W        W 7523  26.095   7.311   1.935
35110W        W 7524  19.755  42.354  11.413
35111W        W 7525  33.606   7.897   1.418
35112W        W 7526  32.451  12.617   2.302
35113W        W 7527   4.401  22.510  11.987
35114W        W 7528  36.910  28.170  14.297
35115W        W 7529  29.516  19.568   3.724
35116W        W 7530  38.952  39.033  10.138
35117W        W 7531   5.842  25.692  11.061
35118W        W 7532  32.461  13.732  10.496
35119W        W 7533   7.789  35.950   0.785
35120W        W 7534  16.768  32.433  13.309
35121W        W 7535  12.188  37.012  11.398
35122W        W 7536  35.545  27.080  11.397
35123W        W 7537   3.430   0.359   2.395
35124W        W 7538  24.486  32.012  11.111
35125W        W 7539   5.199  37.985  13.960
35126W        W 7540  39.992  12.148   0.282
35127W        W 7541  18.293  33.612   0.887
35128W        W 7542  29.982  42.879  10.436
35129W        W 7543  31.126   6.313  14.306
35130W        W 7544   9.823  23.985  11.009
35131W        W 7545  38.381  19.219  10.475
35132W        W 7546  16.133  44.308  13.024
35133W        W 7547   0.255  38.405   4.198
35134W        W 7548  29.150  26.482   0.943
35135W        W 7549  27.115  39.425  14.412
35136W        W 7550   5.202  12.734   3.746
35137W        W 7551  41.934  17.171  11.059
35138W        W 7552  19.654   6.360   5.155
35139W        W 7553  17.788  30.113   2.787
35140W        W 7554  28.625   0.878   3.382
35141W        W 7555   7.396  21.114   2.760
35142W        W 7556  20.769  27.638  10.419
35143W        W 7557  12.177  13.281   0.897
35144W        W 7558  23.066  31.453   4.812
35145W        W 7559  33.894   2.841   0.833
35146W        W 7560   2.932  24.576   1.429
35147W        W 7561  18.280  36.090   2.338
35148W        W 7562  39.394  30.510   2.820
35149W        W 7563   9.300   5.212   1.370
35150W        W 7564  20.205  41.037   0.363
35151W        W 7565  44.501   1.398  13.840
35152W        W 7566  13.285  41.527   0.867
35153W        W 7567  22.038   0.308  14.394
35154W        W 7568   7.697  26.136  12.072
35155W        W 7569  26.003  44.785  13.901
35156W        W 7570   0.282   3.374  11.483
35157W        W 7571  18.175  41.818  11.088
35158W        W 7572  27.595   8.226  14.299
35159W        W 7573  22.157  19.569   4.658
35160W        W 7574  42.947  14.150   3.151
35161W        W 7575  30.997   8.389  10.980
35162W        W 7576  23.053  10.304   4.812
35163W        W 7577   3.760   8.756   4.608
35164W        W 7578   8.173  28.473   0.449
35165W        W 7579  20.156  34.485  12.966
35166W        W 7580   4.203  23.647   4.735
35167W        W 7581   7.403  14.642  12.888
35168W        W 7582   9.759  16.183  10.567
35169W        W 7583   1.284   4.218  11.126
35170W        W 7584  24.195   4.334   2.230
35171W        W 7585  14.261  14.339  13.379
35172W        W 7586  20.138  12.183  11.035
35173W        W 7587  27.013  17.563   4.144
35174W        W 7588  40.497  13.741   4.598
35175W        W 7589  27.494  20.115   0.889
35176W        W 7590  21.106   9.151   5.300
35177W        W 7591  43.300   5.918   0.807
35178W        W 7592  29.557  10.219   4.658
35179W        W 7593  18.734  37.391  10.645
35180W        W 7594  10.201  42.452  11.536
35181W        W 7595  33.470   2.753  13.873
35182W        W 7596  10.193  39.875  14.803
35183W        W 7597  19.546   3.362   1.902
35184W        W 7598  12.163  30.586  13.906
35185W        W 7599  37.432  27.661  12.455
35186W        W 7600  32.430  36.516   2.728
35187W        W 7601  32.476  34.938  11.604
35188W        W 7602  18.212  20.105  11.864
35189W        W 7603  33.018   8.172  12.853
35190W        W 7604  23.586   3.358   4.609
35191W        W 7605  39.937  28.062   1.220
35192W        W 7606  16.669  15.586   4.722
35193W        W 7607  19.746  30.053   0.398
35194W        W 7608  39.873  16.281  11.917
35195W        W 7609   0.259  20.148  13.955
35196W        W 7610  40.475  17.752  10.614
35197W        W 7611  33.109  40.915  10.536
35198W        W 7612  37.908  16.239  14.440
35199W        W 7613  16.650  12.715   3.858
35200W        W 7614  40.817   8.856   0.778
35201W        W 7615  21.534  19.186  13.394
35202W        W 7616  22.057   8.804   4.722
35203W        W 7617   5.724  37.038   4.644
35204W        W 7618   3.936  20.711  11.450
35205W        W 7619  22.562  31.486   0.432
35206W        W 7620   8.228  22.583  13.515
35207W        W 7621   4.231  31.453   2.191
35208W        W 7622   1.341  34.386  14.358
35209W        W 7623  13.222   4.441   1.723
35210W        W 7624   8.777   3.772  12.407
35211W        W 7625  18.756  32.141   0.330
35212W        W 7626  38.378  23.995   1.919
35213W        W 7627  44.358   2.873   1.808
35214W        W 7628   6.907   7.413  11.585
35215W        W 7629   6.311  20.118   2.870
35216W        W 7630  41.307  26.176  12.482
35217W        W 7631   9.845   7.228   4.611
35218W        W 7632  26.093  37.905   3.338
35219W        W 7633   8.160  25.997   4.634
35220W        W 7634  27.130  37.553  10.943
35221W        W 7635  40.050   8.887   0.938
35222W        W 7636  24.136  41.451  13.982
35223W        W 7637  23.140  22.134  10.904
35224W        W 7638  34.574  22.514   5.237
35225W        W 7639  23.112  21.063  13.538
35226W        W 7640  17.654   8.769  14.809
35227W        W 7641  10.277  15.807  12.911
35228W        W 7642   9.823  29.991  14.839
35229W        W 7643  33.081  39.324   0.350
35230W        W 7644  16.755  21.053   3.269
35231W        W 7645   3.712   8.818   0.924
35232W        W 7646   3.816   2.817  11.943
35233W        W 7647   0.389  25.019   4.775
35234W        W 7648  44.793  41.519  11.918
35235W        W 7649  21.754  26.009   4.788
35236W        W 7650  40.460   8.245   0.364
35237W        W 7651  22.723  19.702   4.331
35238W        W 7652   0.933  16.121   1.912
35239W        W 7653  13.832  37.006   1.240
35240W        W 7654  24.118  22.551  12.409
35241W        W 7655  18.644  40.414  11.989
35242W        W 7656  18.125  44.961   9.459
35243W        W 7657   7.339   5.873   4.602
35244W        W 7658  37.927  36.471  11.127
35245W        W 7659  19.752  39.511   4.175
35246W        W 7660  13.633  13.753  14.329
35247W        W 7661   8.838  42.509   2.883
35248W        W 7662  41.335   0.902   4.830
35249W        W 7663  27.637  33.123  13.973
35250W        W 7664  17.132   8.365  11.982
35251W        W 7665  42.466  15.175  11.042
35252W        W 7666  40.944  36.408   3.711
35253W        W 7667   0.871   4.712   3.168
35254W        W 7668  21.241  44.850   4.680
35255W        W 7669   5.409   4.370   0.952
35256W        W 7670  15.204   4.802   4.215
35257W        W 7671   8.241  32.460   3.732
35258W        W 7672  31.098  40.375  13.316
35259W        W 7673  26.693  43.910  10.547
35260W        W 7674   8.672  43.506  13.845
35261W        W 7675  26.986  27.605  11.446
35262W        W 7676  13.703  39.005  11.045
35263W        W 7677  30.487  19.684   0.820
35264W        W 7678  37.832  27.666  14.915
35265W        W 7679  37.453   4.382  12.485
35266W        W 7680  29.010   9.665  10.939
35267W        W 7681  37.081  11.665  11.421
35268W        W 7682   0.879  35.522  13.438
35269W        W 7683   9.863  43.945  14.874
35270W        W 7684  44.961   9.656  13.494
35271W        W 7685  24.661  40.985  11.371
35272W        W 7686  14.769   2.964  13.936
35273W        W 7687  31.945  16.218  12.927
35274W        W 7688  28.522  34.863  10.584
35275W        W 7689  11.229  33.434  14.983
35276W        W 7690  17.116  30.980   2.230
35277W        W 7691  26.019  26.095  11.871
35278W        W 7692  42.020  40.008  13.966
35279W        W 7693  16.280  27.599   1.720
35280W        W 7694  19.257  27.491  13.449
35281W        W 7695  32.491  12.310   1.367
35282W        W 7696   0.272  27.495  14.912
35283W        W 7697  21.660  43.820   0.731
35284W        W 7698   6.870   8.800  12.085
35285W        W 7699   7.752  18.688  11.439
35286W        W 7700  20.115  29.154   1.706
35287W        W 7701  38.382   5.755   2.311
35288W        W 7702   2.459  37.372   0.275
35289W        W 7703  10.228  43.333   4.233
35290W        W 7704   2.920  42.980   1.766
35291W        W 7705  36.890  18.711  10.473
35292W        W 7706  19.659  37.939   3.291
35293W        W 7707   1.301  28.021  12.403
35294W        W 7708   4.383  11.229  14.982
35295W        W 7709  41.376  25.059  11.936
35296W        W 7710  35.043  35.588   1.708
35297W        W 7711   3.451  44.357   2.413
35298W        W 7712  15.325  31.517  13.358
35299W        W 7713   2.452   4.820  10.135
35300W        W 7714  30.427   9.245  13.054
35301W        W 7715  39.494  38.899  10.057
35302W        W 7716   7.872  17.743  14.857
35303W        W 7717  30.516  24.048   0.927
35304W        W 7718  24.049   2.880  12.381
35305W        W 7719   5.691   0.922  11.869
35306W        W 7720  23.655  37.885   3.223
35307W        W 7721  40.421   0.871   5.189
35308W        W 7722   5.869  26.643   3.157
35309W        W 7723  43.997  39.894  11.937
35310W        W 7724  44.762   3.432   0.808
35311W        W 7725  18.131  33.496   4.202
35312W        W 7726  14.631  43.958  14.938
35313W        W 7727   3.871  14.318   0.946
35314W        W 7728  20.071  37.885   1.735
35315W        W 7729  22.563  21.643  13.796
35316W        W 7730  24.520  23.096   4.782
35317W        W 7731  35.582   4.237  10.616
35318W        W 7732  44.935  31.405   3.315
35319W        W 7733  33.430  40.313   4.151
35320W        W 7734  37.499   3.362   3.871
35321W        W 7735  17.613   0.394   5.181
35322W        W 7736  31.465  26.969   4.331
35323W        W 7737   2.415  24.688   4.675
35324W        W 7738  37.570  11.358   3.832
35325W        W 7739   0.800  29.463  10.644
35326W        W 7740  34.102  26.015  12.503
35327W        W 7741  17.132   6.390  12.566
35328W        W 7742  38.425   0.821  12.361
35329W        W 7743  43.851  35.984   0.441
35330W        W 7744  33.046  21.159  11.572
35331W        W 7745  34.564  24.140   3.366
35332W        W 7746  31.089  12.226   3.658
35333W        W 7747  35.494  31.896   2.415
35334W        W 7748  41.934  27.506   0.353
35335W        W 7749  39.450  30.926  12.381
35336W        W 7750   5.869   6.262   3.653
35337W        W 7751  11.834  25.043   2.856
35338W        W 7752   8.774  19.097   0.345
35339W        W 7753  28.534  21.600  12.903
35340W        W 7754  35.017  15.206   1.239
35341W        W 7755  27.611  37.935  11.427
35342W        W 7756  43.008  31.442   0.838
35343W        W 7757   8.221  24.142   3.827
35344W        W 7758  38.369   0.429   4.245
35345W        W 7759  42.345  13.724  11.425
35346W        W 7760  22.512  19.588   2.710
35347W        W 7761  20.620   2.256  13.383
35348W        W 7762   7.354  42.398   3.181
35349W        W 7763  42.513  10.250   4.201
35350W        W 7764   1.762   3.932   1.853
35351W        W 7765   6.825  24.667   3.372
35352W        W 7766   9.701  18.753  12.527
35353W        W 7767  32.519  43.374  11.933
35354W        W 7768  41.883  37.577  13.848
35355W        W 7769  29.133   0.954  11.082
35356W        W 7770  42.390  16.108   0.437
35357W        W 7771  37.997  37.847  11.946
35358W        W 7772  35.432  21.624  13.955
35359W        W 7773  12.633  32.542   0.331
35360W        W 7774  14.713   7.192   4.188
35361W        W 7775  34.505  43.455   2.820
35362W        W 7776   5.302   5.261  11.063
35363W        W 7777  31.963  43.923   4.667
35364W        W 7778  17.732  18.057  10.985
35365W        W 7779  28.064  17.691  12.043
35366W        W 7780  17.269  39.503   4.626
35367W        W 7781  42.924  24.081  13.858
35368W        W 7782  22.676   0.270  14.512
35369W        W 7783  43.802   1.941  14.839
35370W        W 7784   5.331   8.784  14.763
35371W        W 7785  36.410  12.165   0.930
35372W        W 7786  31.063  43.000  14.898
35373W        W 7787   2.771   3.948   3.303
35374W        W 7788  18.771   4.252   3.717
35375W        W 7789  24.603  40.312   4.749
35376W        W 7790  17.195  29.942   4.739
35377W        W 7791  25.693  37.952   0.365
35378W        W 7792  20.263  31.446   1.428
35379W        W 7793  43.961  24.534   1.270
35380W        W 7794  10.339  22.103   3.841
35381W        W 7795  13.328  20.543  11.483
35382W        W 7796  26.967  18.558   4.779
35383W        W 7797  34.441  43.905   2.388
35384W        W 7798  26.046  30.616   1.257
35385W        W 7799  23.015  28.015  10.974
35386W        W 7800  22.740  15.582   1.924
35387W        W 7801   6.397  17.153   3.315
35388W        W 7802  18.214  42.891   3.700
35389W        W 7803  20.256  26.060   2.745
35390W        W 7804  31.919  25.018  11.904
35391W        W 7805  38.991  11.372  13.882
35392W        W 7806  40.331   4.713   9.945
35393W        W 7807  42.365   9.869   3.637
35394W        W 7808  27.183  17.298   2.743
35395W        W 7809  13.843   9.302  10.920
35396W        W 7810   0.360  18.101   4.218
35397W        W 7811  12.617   3.820   2.353
35398W        W 7812  40.318  44.800  13.987
35399W        W 7813  11.171  41.999  11.404
35400W        W 7814  19.277  35.524  11.411
35401W        W 7815  24.212  18.284   2.279
35402W        W 7816   8.741  21.115   4.612
35403W        W 7817  41.957   8.358  13.905
35404W        W 7818   8.742  11.823   2.880
35405W        W 7819   6.681  17.652   2.756
35406W        W 7820  43.432  30.962  10.610
35407W        W 7821  41.433   7.326   0.819
35408W        W 7822  29.639  44.899  11.478
35409W        W 7823  25.705  19.092  12.447
35410W        W 7824  11.661  20.062   1.434
35411W        W 7825  25.101   7.747  11.987
35412W        W 7826   0.989  22.137   1.782
35413W        W 7827  34.433  27.957  12.980
35414W        W 7828  15.580  21.534  14.982
35415W        W 7829  15.182  34.375  14.414
35416W        W 7830  43.836  39.915   4.225
35417W        W 7831   2.912  35.395  12.059
35418W        W 7832  18.099  14.275  12.367
35419W        W 7833  41.357  16.249   4.251
35420W        W 7834   5.886  22.626   2.688
35421W        W 7835  14.202   1.322   3.288
35422W        W 7836  29.115  14.292  11.861
35423W        W 7837  11.259  14.166  12.044
35424W        W 7838   3.264  39.912   5.222
35425W        W 7839  11.343  12.220   0.810
35426W        W 7840  26.987   9.803  13.033
35427W        W 7841  23.567  43.326   4.219
35428W        W 7842  28.672  15.582   3.709
35429W        W 7843  34.094  15.686  12.530
35430W        W 7844   9.755  19.191   4.335
35431W        W 7845  35.397  37.461   4.718
35432W        W 7846  12.702  42.489   3.727
35433W        W 7847  21.663  37.370  13.958
35434W        W 7848  20.696  25.590  10.453
35435W        W 7849   0.989   0.851   3.821
35436W        W 7850  29.111  29.582   1.849
35437W        W 7851  44.989  31.524   2.217
35438W        W 7852  43.347  16.686   2.353
35439W        W 7853  41.786   2.896  11.090
35440W        W 7854  26.676  36.952  13.948
35441W        W 7855  15.257   4.810  14.472
35442W        W 7856  36.552  26.650  11.081
35443W        W 7857  36.954  16.736  13.952
35444W        W 7858  10.175   1.801  12.091
35445W        W 7859  35.096  11.310   3.811
35446W        W 7860  41.981  42.781  13.399
35447W        W 7861  26.036  11.358  14.975
35448W        W 7862  42.906  15.087   4.779
35449W        W 7863  37.542   2.899   3.851
35450W        W 7864  34.535  17.203   0.448
35451W        W 7865  22.746  12.771   3.373
35452W        W 7866  25.482  24.976  12.447
35453W        W 7867  21.558  43.352  13.958
35454W        W 7868  30.139   1.891  13.925
35455W        W 7869  27.477  34.956   0.856
35456W        W 7870  37.930  25.153  11.978
35457W        W 7871   7.235   7.220  11.079
35458W        W 7872  28.566   1.903  12.924
35459W        W 7873  17.725  30.993  12.918
35460W        W 7874  15.287  39.915   2.401
35461W        W 7875  10.803  21.658   2.245
35462W        W 7876  28.547  29.053   0.960
35463W        W 7877   1.428  26.474   0.403
35464W        W 7878  11.666  27.477  13.338
35465W        W 7879  34.479  10.848   4.154
35466W        W 7880  22.525   6.307   2.180
35467W        W 7881  18.171  25.164  13.038
35468W        W 7882   9.729  21.586   1.834
35469W        W 7883   6.231  16.119   2.882
35470W        W 7884  19.137   1.819  13.809
35471W        W 7885  32.011  39.037   3.210
35472W        W 7886  17.726   3.386   2.884
35473W        W 7887  19.769   7.231   3.360
35474W        W 7888  24.588  17.732   3.704
35475W        W 7889  31.440  30.454   2.317
35476W        W 7890  32.471  42.001   0.888
35477W        W 7891  22.059  41.916  11.446
35478W        W 7892   0.416  19.202   3.382
35479W        W 7893  32.571  35.027  12.526
35480W        W 7894   5.780   1.899   3.812
35481W        W 7895  25.150   1.377  10.465
35482W        W 7896  21.632   0.307  12.419
35483W        W 7897  21.055   1.364   0.450
35484W        W 7898  12.238  38.030   0.846
35485W        W 7899  19.132  14.118   1.772
35486W        W 7900  19.272  26.096  13.505
35487W        W 7901  36.006  31.597  10.619
35488W        W 7902  10.154  20.574  14.884
35489W        W 7903  30.503  37.045   2.217
35490W        W 7904  10.171  13.182   1.699
35491W        W 7905  20.568   6.771   3.336
35492W        W 7906  23.591   6.384   0.363
35493W        W 7907  22.171   8.214  13.055
35494W        W 7908  41.994  36.397   2.351
35495W        W 7909   2.955  18.069   1.747
35496W        W 7910   3.217  37.958  14.469
35497W        W 7911  18.636  20.143   0.388
35498W        W 7912  42.488  36.572   4.705
35499W        W 7913  13.290  23.727   9.965
35500W        W 7914   7.861  14.324  12.089
35501W        W 7915  31.536  39.948   2.762
35502W        W 7916  17.680   9.680  10.627
35503W        W 7917  31.973  42.371   0.465
35504W        W 7918   8.779  20.668   0.425
35505W        W 7919   0.824  30.932  13.041
35506W        W 7920  25.151  38.031  12.084
35507W        W 7921  24.026   3.248  14.781
35508W        W 7922  33.610   3.912   3.216
35509W        W 7923  10.849  44.329   3.671
35510W        W 7924  21.203   6.858   3.213
35511W        W 7925  23.608  39.540  12.883
35512W        W 7926   6.255   3.953   2.350
35513W        W 7927   8.854   9.358  13.491
35514W        W 7928  27.682  17.163  10.910
35515W        W 7929  30.151  36.903   1.451
35516W        W 7930  42.845  37.877   4.322
35517W        W 7931   2.289   1.331  11.595
35518W        W 7932  11.190   6.816   1.796
35519W        W 7933  19.158  35.413   1.242
35520W        W 7934  34.903  17.765  14.995
35521W        W 7935   2.870  23.126  13.896
35522W        W 7936   0.904  42.496   2.729
35523W        W 7937  31.916   6.264   1.345
35524W        W 7938  30.126  39.814  11.994
35525W        W 7939  36.554  43.340  14.966
35526W        W 7940  27.655  43.835   3.313
35527W        W 7941  13.726  10.199   4.700
35528W        W 7942  21.699  43.448  11.497
35529W        W 7943   2.871  17.290  12.554
35530W        W 7944  41.524  25.548   2.771
35531W        W 7945   9.374  26.097   0.441
35532W        W 7946  17.679  24.975  13.506
35533W        W 7947  32.630  14.143  12.050
35534W        W 7948  32.022   9.362   1.869
35535W        W 7949   6.776   7.319  13.892
35536W        W 7950   0.380   4.236  14.774
35537W        W 7951  11.204  40.446  11.976
35538W        W 7952  41.005  38.339   3.192
35539W        W 7953  39.462  17.190  11.939
35540W        W 7954  40.898  19.141   1.812
35541W        W 7955  13.290  30.079  10.516
35542W        W 7956  40.361  27.512  13.517
35543W        W 7957  25.609  21.089   1.749
35544W        W 7958   5.368  14.260   0.298
35545W        W 7959  27.137   2.826  14.922
35546W        W 7960  34.903  24.097   2.379
35547W        W 7961  22.150  20.138   1.283
35548W        W 7962   8.362  27.594   0.374
35549W        W 7963  23.108  37.896  12.874
35550W        W 7964  26.019  18.680  14.481
35551W        W 7965  27.135   4.902  14.420
35552W        W 7966  15.183  25.677  12.351
35553W        W 7967  27.167  28.934  13.043
35554W        W 7968  13.245  28.023  10.409
35555W        W 7969   4.258   4.790   1.933
35556W        W 7970   6.285  13.210   4.319
35557W        W 7971  24.675  30.049   0.465
35558W        W 7972   0.338   6.886   2.276
35559W        W 7973  27.133  34.108   2.250
35560W        W 7974  13.218  36.456   0.821
35561W        W 7975   7.291  18.274   2.362
35562W        W 7976  16.650  41.304   2.733
35563W        W 7977  40.034  17.615   4.120
35564W        W 7978  29.506   0.987  10.946
35565W        W 7979  12.654  25.182   2.793
35566W        W 7980   8.238   5.732   2.200
35567W        W 7981  31.642   9.287  11.576
35568W        W 7982  29.561  20.696  13.848
35569W        W 7983  30.457  17.274   2.722
35570W        W 7984  18.174  14.780   2.709
35571W        W 7985   2.753  26.128   0.885
35572W        W 7986  26.623   0.881   0.379
35573W        W 7987  39.472  34.523   1.416
35574W        W 7988  42.967  15.796  14.516
35575W        W 7989   6.290   2.923  11.866
35576W        W 7990  25.004   1.905   4.181
35577W        W 7991  17.224  20.214  12.453
35578W        W 7992  13.198  30.425  14.515
35579W        W 7993  31.583   9.807  13.808
35580W        W 7994  37.047   7.212  10.428
35581W        W 7995  12.272  27.193   0.838
35582W        W 7996  21.222  39.352  14.009
35583W        W 7997   5.381  22.612   3.306
35584W        W 7998  34.103  26.163  14.348
35585W        W 7999  19.776   9.213  14.854
35586W        W 8000  21.591   2.353   4.275
35587W        W 8001  14.614  18.185   1.267
35588W        W 8002  33.573  37.552   0.749
35589W        W 8003  15.752  35.435  13.917
35590W        W 8004   3.236   4.254   0.438
35591W        W 8005  29.442   8.802   2.892
35592W        W 8006  18.623   0.363   1.753
35593W        W 8007   6.266  31.448  14.966
35594W        W 8008  22.240  41.905   4.794
35595W        W 8009  14.811  16.136   1.312
35596W        W 8010   8.360  19.665   3.326
35597W        W 8011  22.581  36.953  12.374
35598W        W 8012  31.461  11.725   0.255
35599W        W 8013  15.174  20.188   1.338
35600W        W 8014  25.655  38.861   3.325
35601W        W 8015  14.687  28.173   1.845
35602W        W 8016   8.736  28.680  11.976
35603W        W 8017  31.589   9.252  10.474
35604W        W 8018  10.256   8.886   1.286
35605W        W 8019  14.756  20.678  12.834
35606W        W 8020  13.840   6.405   2.809
35607W        W 8021  12.276  13.347  12.379
35608W        W 8022  37.549  25.962   9.966
35609W        W 8023  18.599  23.114   2.811
35610W        W 8024  13.202  21.723   3.368
35611W        W 8025  10.801  28.114   3.655
35612W        W 8026  33.487  20.154   3.728
35613W        W 8027  32.074   2.796   1.766
35614W        W 8028  30.946  31.414  12.420
35615W        W 8029  43.503  11.327   2.710
35616W        W 8030  27.625  37.920  10.917
35617W        W 8031  23.162   8.259  13.807
35618W        W 8032  20.265  39.900   3.861
35619W        W 8033  40.402   1.452   1.734
35620W        W 8034  21.701   9.160   4.603
35621W        W 8035  17.604  17.133   2.700
35622W        W 8036  37.017   0.462   1.839
35623W        W 8037  11.855  36.458  14.830
35624W        W 8038  29.578  16.217  11.479
35625W        W 8039  11.187   0.877  11.069
35626W        W 8040   0.449  30.988   4.126
35627W        W 8041  33.429  34.881   4.671
35628W        W 8042  40.875  13.295   4.280
35629W        W 8043  11.196  36.430  11.975
35630W        W 8044  21.561  38.397   2.374
35631W        W 8045  26.659   3.342   2.824
35632W        W 8046   8.875   6.786   1.335
35633W        W 8047  13.240   0.829   4.654
35634W        W 8048  16.131  40.499   3.701
35635W        W 8049  23.577  43.946   2.803
35636W        W 8050  34.369  33.922  10.937
35637W        W 8051   8.816  40.010  12.830
35638W        W 8052  39.466  40.942   1.840
35639W        W 8053  44.865  15.194   4.153
35640W        W 8054   4.784   0.795  11.396
35641W        W 8055   6.894  41.926  11.431
35642W        W 8056   0.306   7.245   3.336
35643W        W 8057  30.540  36.462   4.184
35644W        W 8058  18.660  32.127   0.855
35645W        W 8059   0.816   9.334   0.435
35646W        W 8060   9.181  35.435  10.546
35647W        W 8061  30.587  29.494  12.353
35648W        W 8062   0.850  31.564  11.954
35649W        W 8063  13.216  18.290  14.842
35650W        W 8064  32.136  24.556  14.942
35651W        W 8065  41.465   2.331   4.138
35652W        W 8066  42.395  24.542   0.812
35653W        W 8067   0.746  21.095   0.926
35654W        W 8068  30.030  31.442  13.340
35655W        W 8069   1.249  39.023  11.077
35656W        W 8070  18.114  44.764   4.278
35657W        W 8071   8.258  37.568  14.828
35658W        W 8072  34.115   7.674  12.047
35659W        W 8073  25.009  13.714   2.756
35660W        W 8074  28.474  24.567   4.614
35661W        W 8075  30.069  30.091   0.885
35662W        W 8076  18.288  29.985   1.776
35663W        W 8077   0.472   0.381  14.987
35664W        W 8078  27.664  15.609  12.069
35665W        W 8079   6.299  20.137  11.066
35666W        W 8080  41.356  41.518   2.862
35667W        W 8081  26.552  34.075   0.810
35668W        W 8082  40.480  39.456   1.251
35669W        W 8083   4.760   8.801  14.388
35670W        W 8084  25.160  26.563   0.300
35671W        W 8085   8.396  31.435   4.330
35672W        W 8086  16.641  30.449  13.406
35673W        W 8087  37.538  31.023   4.703
35674W        W 8088   8.703  27.961  11.900
35675W        W 8089  11.635  32.465  14.947
35676W        W 8090   4.860   7.201   3.184
35677W        W 8091  37.559  21.548  12.853
35678W        W 8092   4.366  43.924   4.751
35679W        W 8093  15.246  35.417   0.258
35680W        W 8094   4.945  21.567   4.759
35681W        W 8095  19.222  25.219  10.561
35682W        W 8096   7.371  31.130  11.375
35683W        W 8097  23.550  29.086   1.897
35684W        W 8098  20.190  12.764  13.986
35685W        W 8099  11.773   0.854  10.926
35686W        W 8100   6.740  11.664  11.087
35687W        W 8101  28.459   4.405  13.927
35688W        W 8102  16.758  11.740  12.445
35689W        W 8103   3.920  36.920  14.408
35690W        W 8104  22.523   0.933  12.092
35691W        W 8105  17.303  39.029  12.370
35692W        W 8106  23.733  23.176  12.402
35693W        W 8107  25.977  27.037   1.230
35694W        W 8108  36.962   1.378   1.445
35695W        W 8109  35.087  14.632  11.597
35696W        W 8110  36.037  35.549   3.869
35697W        W 8111   0.466  14.825  10.518
35698W        W 8112  18.613  39.439   0.388
35699W        W 8113  42.778  26.509   2.336
35700W        W 8114  22.663  28.457   0.403
35701W        W 8115  33.426  37.397   5.257
35702W        W 8116  40.417  40.496  10.063
35703W        W 8117  21.550  33.440  10.480
35704W        W 8118  38.462   2.732  11.072
35705W        W 8119  42.984  40.960  13.410
35706W        W 8120  15.173  42.408  11.538
35707W        W 8121  29.011  20.202   1.343
35708W        W 8122  26.620   1.296  14.830
35709W        W 8123  21.242  43.964   3.799
35710W        W 8124  30.134  13.275  11.445
35711W        W 8125  22.554   9.154  10.960
35712W        W 8126  32.001   9.179   3.742
35713W        W 8127  11.865  23.048  14.331
35714W        W 8128   2.429  17.083   0.289
35715W        W 8129  25.645   2.472  10.551
35716W        W 8130  29.049  30.074  12.549
35717W        W 8131  43.424   9.746   4.180
35718W        W 8132  16.178  38.484  14.890
35719W        W 8133  41.413  21.249   4.213
35720W        W 8134  16.576   4.840   4.709
35721W        W 8135  21.099  16.213  10.893
35722W        W 8136  29.561  25.194   0.903
35723W        W 8137  24.522   8.859   0.246
35724W        W 8138  33.924  43.887  10.504
35725W        W 8139  39.871   0.299   2.805
35726W        W 8140  43.005  32.139   2.317
35727W        W 8141  43.384  41.940  13.847
35728W        W 8142  21.159  39.322   3.165
35729W        W 8143  32.628  17.165  12.838
35730W        W 8144  16.635  23.211  12.394
35731W        W 8145   0.424  39.412   1.762
35732W        W 8146  20.194  30.455  14.761
35733W        W 8147  26.513  31.975  10.568
35734W        W 8148  38.014  33.129   4.725
35735W        W 8149  39.539  15.784   3.303
35736W        W 8150  22.040  37.959   3.871
35737W        W 8151  21.700  28.615   0.339
35738W        W 8152  22.614   9.686  10.903
35739W        W 8153  33.995   3.906  13.969
35740W        W 8154   2.266  22.020  14.476
35741W        W 8155  29.026  41.387   4.815
35742W        W 8156  22.018  37.559  13.532
35743W        W 8157  24.074   3.877   1.776
35744W        W 8158  17.170  32.002   2.237
35745W        W 8159  14.161  36.419  13.412
35746W        W 8160  37.083  11.826   4.702
35747W        W 8161  13.332   6.225  14.405
35748W        W 8162  20.658  31.500  12.973
35749W        W 8163  17.735  37.874   1.775
35750W        W 8164   2.386  38.402   0.823
35751W        W 8165  36.854  16.232  13.531
35752W        W 8166  10.817  14.186  12.834
35753W        W 8167  33.521  43.984  11.582
35754W        W 8168  38.839  39.851   2.266
35755W        W 8169  24.228  18.091   5.586
35756W        W 8170  26.178  24.489  13.824
35757W        W 8171   7.691  39.353  14.417
35758W        W 8172  36.097  33.054  11.044
35759W        W 8173   2.272  16.075  12.542
35760W        W 8174  39.336  35.883   0.832
35761W        W 8175  36.392  35.529   0.475
35762W        W 8176  34.005   0.886   0.279
35763W        W 8177  28.142   9.170   1.849
35764W        W 8178  39.330  41.921  12.048
35765W        W 8179  41.996  29.162  14.917
35766W        W 8180  15.104  28.475   2.796
35767W        W 8181  40.863   8.215  13.468
35768W        W 8182  16.647  37.039   3.366
35769W        W 8183  30.966  38.943  13.876
35770W        W 8184   5.361  15.745   4.152
35771W        W 8185  11.669  22.201   4.323
35772W        W 8186  26.608   7.282   4.695
35773W        W 8187  17.094   2.965  10.580
35774W        W 8188  13.635  16.804   3.632
35775W        W 8189  35.065  42.904  13.337
35776W        W 8190  39.939  23.213   2.348
35777W        W 8191  12.122  16.668   0.333
35778W        W 8192   7.208  27.568   3.707
35779W        W 8193   2.841  42.509  13.968
35780W        W 8194  17.200  33.574  13.390
35781W        W 8195   2.412  16.674   4.732
35782W        W 8196  15.272  36.392   3.819
35783W        W 8197  41.859  21.110  13.442
35784W        W 8198  27.084  38.837  10.611
35785W        W 8199  10.331  12.700   9.935
35786W        W 8200  10.253  31.972   5.138
35787W        W 8201  41.482   9.200  11.077
35788W        W 8202  20.084   2.254   0.833
35789W        W 8203   6.263  37.933   3.355
35790W        W 8204  42.514  28.974   0.289
35791W        W 8205   4.397   5.849  10.451
35792W        W 8206  15.799  25.607  10.457
35793W        W 8207   0.355  28.106  11.584
35794W        W 8208  12.246  19.767   1.337
35795W        W 8209  28.960  11.834   2.903
35796W        W 8210  13.727  32.409   2.690
35797W        W 8211  18.620  17.735   0.923
35798W        W 8212  12.132   5.414   3.655
35799W        W 8213  40.454  16.270   3.855
35800W        W 8214   3.854  18.652   3.356
35801W        W 8215  18.077  25.113   1.306
35802W        W 8216  28.013  38.462  10.568
35803W        W 8217   2.463   4.930   2.858
35804W        W 8218  18.759  16.226  12.992
35805W        W 8219  34.511  31.413  12.395
35806W        W 8220  31.451  25.632   2.353
35807W        W 8221  37.415  24.189  12.537
35808W        W 8222  20.218  35.593  13.855
35809W        W 8223   9.304  35.854   1.893
35810W        W 8224  25.664   4.322   4.803
35811W        W 8225  21.179  13.696  12.547
35812W        W 8226  25.656  35.926   2.775
35813W        W 8227  30.974  20.178   2.747
35814W        W 8228   6.898  43.765  14.858
35815W        W 8229  42.520  37.468   3.711
35816W        W 8230  20.120   5.697   2.746
35817W        W 8231  37.024  13.694   4.172
35818W        W 8232  23.082  35.892  14.960
35819W        W 8233  17.590   7.762  13.901
35820W        W 8234  10.748  21.261  12.858
35821W        W 8235  32.934  16.575  14.795
35822W        W 8236   8.734  16.129   4.825
35823W        W 8237   8.794  18.063   3.161
35824W        W 8238  26.199  18.580   3.292
35825W        W 8239   6.338   4.908  13.519
35826W        W 8240  33.494   1.285  12.038
35827W        W 8241  29.562  37.893   4.262
35828W        W 8242  11.757  15.639   0.777
35829W        W 8243   0.834   0.856  10.592
35830W        W 8244  20.156   7.228   3.798
35831W        W 8245  42.867  24.180   0.349
35832W        W 8246   7.671  26.645   1.426
35833W        W 8247  15.812  11.755   3.837
35834W        W 8248  28.521  30.449  13.035
35835W        W 8249   7.364   2.778   4.623
35836W        W 8250  43.933  40.517   0.484
35837W        W 8251  24.569  20.108   2.260
35838W        W 8252  14.656  20.239   0.887
35839W        W 8253   7.316  23.100  11.410
35840W        W 8254  30.646  42.793   0.887
35841W        W 8255  26.701  21.142   2.311
35842W        W 8256   7.707  14.107   3.642
35843W        W 8257   5.401   4.718  11.461
35844W        W 8258  40.806  34.501  13.797
35845W        W 8259  33.523  11.701  11.578
35846W        W 8260  32.924  40.988  12.903
35847W        W 8261  39.421  32.986  11.924
35848W        W 8262  22.049   8.801  11.553
35849W        W 8263   6.792   7.758   4.151
35850W        W 8264  44.396  31.956  10.056
35851W        W 8265  17.211  44.815  11.594
35852W        W 8266  12.747  20.611   3.639
35853W        W 8267  31.124  43.433   3.310
35854W        W 8268   0.830  36.372  12.377
35855W        W 8269  42.833  42.780   3.298
35856W        W 8270  31.556  39.948  13.322
35857W        W 8271  20.576  14.824   2.181
35858W        W 8272  13.772  13.702  10.452
35859W        W 8273   1.757  36.353  13.010
35860W        W 8274  19.550  37.399  14.325
35861W        W 8275  19.231  17.109   1.360
35862W        W 8276   8.364  37.073  13.990
35863W        W 8277  40.336  23.702   2.268
35864W        W 8278  33.478  15.187  12.017
35865W        W 8279  25.581  31.403  14.969
35866W        W 8280  14.672  32.063   4.805
35867W        W 8281  44.944  34.005  14.299
35868W        W 8282  16.656  16.090   2.886
35869W        W 8283  18.154   2.237   4.688
35870W        W 8284   1.250  44.377  14.919
35871W        W 8285  39.445  25.709   2.859
35872W        W 8286  36.481  44.319   4.113
35873W        W 8287  23.708  34.371   4.820
35874W        W 8288  30.116  36.072  11.490
35875W        W 8289  35.492  23.087   3.230
35876W        W 8290   4.395  32.524  12.418
35877W        W 8291  34.547  27.940   1.306
35878W        W 8292  31.571   8.773   4.142
35879W        W 8293   2.947  29.154   3.323
35880W        W 8294   3.766   4.288  12.847
35881W        W 8295  14.307  31.594  12.841
35882W        W 8296   7.254  23.116   4.794
35883W        W 8297  42.443   5.389  11.122
35884W        W 8298  32.072  41.367  11.881
35885W        W 8299  14.307  33.523   2.316
35886W        W 8300  40.936   1.307   4.674
35887W        W 8301  16.157  28.000  14.511
35888W        W 8302  16.572  21.240   1.414
35889W        W 8303  37.521  32.394   0.251
35890W        W 8304  13.696  19.710  10.463
35891W        W 8305  27.137  26.169  11.942
35892W        W 8306  32.564  24.150   1.910
35893W        W 8307  29.660   2.443  11.375
35894W        W 8308  23.656  15.303  13.402
35895W        W 8309   4.262  12.203   9.660
35896W        W 8310  31.424  37.028  11.004
35897W        W 8311  13.673  33.958   2.884
35898W        W 8312  21.685  27.130   4.778
35899W        W 8313   2.939  23.568  14.949
35900W        W 8314  39.833   5.405  10.505
35901W        W 8315  37.054  41.888  14.772
35902W        W 8316  16.675  23.173   2.896
35903W        W 8317  39.380  34.965   4.345
35904W        W 8318  15.628  16.119  11.387
35905W        W 8319  29.002   7.345   4.147
35906W        W 8320   6.243   6.284   3.644
35907W        W 8321  30.580   6.729  14.789
35908W        W 8322  39.331  28.651  13.503
35909W        W 8323  13.747  12.636  14.860
35910W        W 8324  15.172  20.534   4.802
35911W        W 8325  32.624  24.623   0.898
35912W        W 8326  20.119  34.547  11.094
35913W        W 8327   1.925  21.663  14.963
35914W        W 8328  37.572  25.981  11.007
35915W        W 8329  37.021  32.118  14.911
35916W        W 8330   9.305  40.392  10.484
35917W        W 8331   6.373   3.362  11.381
35918W        W 8332  35.558  16.254   1.744
35919W        W 8333   8.735  14.181  10.481
35920W        W 8334   8.403  41.976  12.408
35921W        W 8335  25.538  12.286  11.021
35922W        W 8336  34.422  25.576   2.263
35923W        W 8337  40.463  25.508   4.817
35924W        W 8338   1.410  33.477   4.326
35925W        W 8339  40.493  23.074  13.518
35926W        W 8340  35.448  28.586  11.088
35927W        W 8341  12.190   9.889   4.605
35928W        W 8342  36.913  38.039   2.235
35929W        W 8343  19.044  15.696  13.424
35930W        W 8344   4.843  30.534   4.608
35931W        W 8345  12.188  31.027  14.458
35932W        W 8346  44.907  41.449   3.778
35933W        W 8347   3.446  28.077   0.745
35934W        W 8348   3.768   9.166  13.503
35935W        W 8349   5.886  26.641   0.341
35936W        W 8350  10.729  23.017  14.362
35937W        W 8351  18.573  32.940   1.326
35938W        W 8352   4.752  40.502   3.748
35939W        W 8353  19.745  43.902   4.816
35940W        W 8354  24.544  11.749  14.364
35941W        W 8355  39.054  38.866  12.857
35942W        W 8356  19.053  35.393   4.128
35943W        W 8357  38.903  21.194  12.862
35944W        W 8358   5.777  28.444   0.961
35945W        W 8359  14.817  23.036  10.937
35946W        W 8360  17.295  24.107  11.948
35947W        W 8361  29.589   7.210  10.551
35948W        W 8362  28.487  36.496  14.792
35949W        W 8363  15.816  44.830   2.689
35950W        W 8364  13.711  28.609   1.275
35951W        W 8365  29.015  33.104  13.411
35952W        W 8366  38.517  17.761   2.759
35953W        W 8367   0.353   9.769  13.472
35954W        W 8368   2.842  37.993   4.278
35955W        W 8369  39.867  28.984  13.025
35956W        W 8370  40.883  44.485  10.911
35957W        W 8371  20.665   3.926  12.368
35958W        W 8372  37.009  35.393  14.009
35959W        W 8373  13.733   9.176  10.598
35960W        W 8374  13.151  40.925  14.352
35961W        W 8375  15.194  22.511  13.974
35962W        W 8376   2.852  25.613  10.074
35963W        W 8377   9.835  22.663  14.022
35964W        W 8378  37.568   6.911  14.502
35965W        W 8379  39.859  21.667   0.272
35966W        W 8380   5.394  21.034   0.285
35967W        W 8381  27.680  11.798  14.010
35968W        W 8382  11.764  44.780  11.023
35969W        W 8383  35.528  16.701  10.450
35970W        W 8384  42.378   9.341   4.355
35971W        W 8385  40.330  20.576  14.303
35972W        W 8386  21.571  28.186   2.194
35973W        W 8387  12.697  31.492   1.264
35974W        W 8388  31.061   2.730  13.825
35975W        W 8389  38.524  14.677  11.111
35976W        W 8390  28.649   0.842   3.704
35977W        W 8391  41.305   0.284   0.413
35978W        W 8392  14.210  41.035   0.737
35979W        W 8393  23.173  20.176  14.880
35980W        W 8394  39.469   1.442   4.639
35981W        W 8395  29.558   5.718   0.763
35982W        W 8396   5.699  27.618   5.764
35983W        W 8397  19.136  42.371   2.209
35984W        W 8398   2.966  42.937   5.165
35985W        W 8399  10.223   8.698  13.508
35986W        W 8400  38.916   9.679   1.873
35987W        W 8401  44.839  25.169   0.315
35988W        W 8402  20.051  19.069   3.145
35989W        W 8403  34.101  12.735   1.257
35990W        W 8404  17.712  38.339   4.352
35991W        W 8405  29.625  28.664  14.441
35992W        W 8406  11.629  33.439   1.389
35993W        W 8407  16.298  19.050  12.484
35994W        W 8408  33.963  12.192   4.712
35995W        W 8409  41.331  23.042   0.758
35996W        W 8410   5.306  21.522  13.048
35997W        W 8411  36.361  17.119  11.943
35998W        W 8412  20.135  41.907  13.480
35999W        W 8413  20.692  31.086  10.499
36000W        W 8414  34.465   8.817   1.911
36001W        W 8415  34.551   7.252  13.337
36002W        W 8416  15.146  34.949   2.223
36003W        W 8417  12.843  39.442  13.795
36004W        W 8418  40.321  18.584   1.833
36005W        W 8419  44.302  30.544  12.066
36006W        W 8420  13.345   8.256   3.803
36007W        W 8421   2.278  10.215   5.212
36008W        W 8422   2.271  13.701  10.010
36009W        W 8423   7.843  25.590   4.325
36010W        W 8424   6.264  32.633  10.895
36011W        W 8425  12.314  26.085   2.738
36012W        W 8426  34.905   2.890  14.769
36013W        W 8427  43.401  43.295  11.539
36014W        W 8428  10.354  34.039  12.395
36015W        W 8429  37.881   1.391   3.267
36016W        W 8430   5.719  23.157  13.421
36017W        W 8431  36.909   9.796   2.367
36018W        W 8432   1.417   2.379  11.467
36019W        W 8433  42.442   8.225   4.346
36020W        W 8434   0.838  24.631  12.385
36021W        W 8435  31.097  26.526  13.934
36022W        W 8436  22.083  34.065   3.678
36023W        W 8437  10.819   0.304   1.880
36024W        W 8438  20.726  44.802   2.820
36025W        W 8439  25.529  37.908  13.935
36026W        W 8440  43.973  38.490  12.542
36027W        W 8441  27.987   1.298  12.527
36028W        W 8442  10.878  23.636  10.558
36029W        W 8443  39.047  12.222  11.902
36030W        W 8444   5.287  15.653  11.080
36031W        W 8445  35.561  24.702   2.860
36032W        W 8446  44.375  28.020   4.349
36033W        W 8447  26.150  27.970   2.189
36034W        W 8448  20.704  39.360  10.428
36035W        W 8449  31.905  29.656  10.925
36036W        W 8450   9.269  38.345   1.761
36037W        W 8451  10.336   9.337   3.319
36038W        W 8452  37.023  10.243  10.468
36039W        W 8453  23.095  28.446   0.915
36040W        W 8454  29.924   3.848  10.474
36041W        W 8455  27.192   1.939   0.346
36042W        W 8456   9.291  37.023   1.226
36043W        W 8457  26.691   7.906  12.963
36044W        W 8458  31.081  22.528  14.280
36045W        W 8459  43.884  37.472   1.783
36046W        W 8460  33.908  41.354  14.875
36047W        W 8461  27.616  34.979  12.570
36048W        W 8462  14.329  27.619  12.536
36049W        W 8463  30.109  23.996  13.427
36050W        W 8464   4.735  18.159   3.283
36051W        W 8465   7.822   2.253  12.016
36052W        W 8466   1.329  26.676  14.944
36053W        W 8467  34.118  10.782   2.715
36054W        W 8468  40.413  11.136   4.623
36055W        W 8469  35.383  31.057  12.063
36056W        W 8470  19.154  33.480   3.799
36057W        W 8471  18.719  19.772  11.041
36058W        W 8472  11.146  31.427  11.958
36059W        W 8473  24.076  31.954  12.035
36060W        W 8474  42.340  30.416   3.696
36061W        W 8475  14.661  14.759  13.440
36062W        W 8476  32.499   9.327  12.094
36063W        W 8477  24.607  29.122  12.403
36064W        W 8478   5.867  25.175   0.414
36065W        W 8479  32.966   1.850  10.917
36066W        W 8480  41.376  36.929   0.811
36067W        W 8481  25.674  37.482   4.310
36068W        W 8482  32.440  14.149   1.921
36069W        W 8483   6.804  27.173   1.255
36070W        W 8484  27.462  43.766  11.126
36071W        W 8485  42.853   9.825   1.726
36072W        W 8486  26.464  35.086  10.889
36073W        W 8487  28.946  38.472   1.829
36074W        W 8488  38.494  29.583  12.356
36075W        W 8489   4.920  34.897   1.362
36076W        W 8490  31.927   4.884   1.935
36077W        W 8491  28.482  38.498   0.302
36078W        W 8492   5.233  31.463  12.836
36079W        W 8493  20.549   0.285  11.104
36080W        W 8494  32.059  43.458  11.124
36081W        W 8495  15.618  28.996  14.015
36082W        W 8496  35.496  11.340  10.612
36083W        W 8497  33.006  24.072   0.338
36084W        W 8498  34.031   8.251   1.303
36085W        W 8499  23.623   4.305  11.550
36086W        W 8500  30.946   7.768  11.394
36087W        W 8501  29.170  36.354  12.341
36088W        W 8502  15.676  35.603  11.376
36089W        W 8503  10.663  10.340   2.373
36090W        W 8504   5.872  36.968   1.855
36091W        W 8505  20.123  25.121  10.987
36092W        W 8506  11.781  44.484  12.833
36093W        W 8507   2.300   3.275  11.568
36094W        W 8508  19.262  17.113   3.706
36095W        W 8509  32.467   7.324  11.095
36096W        W 8510  27.966  36.083   2.855
36097W        W 8511  38.049  37.456  12.862
36098W        W 8512  10.260   9.698   3.385
36099W        W 8513  34.011  20.036   2.265
36100W        W 8514  23.999  36.924   2.790
36101W        W 8515  21.738  10.746   2.243
36102W        W 8516  16.132  35.378  12.024
36103W        W 8517  33.379  14.728  12.871
36104W        W 8518  13.112   8.780   4.341
36105W        W 8519  43.021   4.426   9.995
36106W        W 8520  21.699   7.773   0.746
36107W        W 8521  41.865  33.544   9.966
36108W        W 8522  16.210  30.035   0.757
36109W        W 8523   9.855  21.106  10.423
36110W        W 8524   2.946   1.805   3.811
36111W        W 8525  37.027  26.188   4.128
36112W        W 8526  27.676  16.151   3.222
36113W        W 8527  14.182   6.182   1.283
36114W        W 8528  18.267   0.358   3.171
36115W        W 8529  11.307  33.936  12.359
36116W        W 8530  25.115  26.189   4.208
36117W        W 8531  37.476  33.583   1.221
36118W        W 8532  35.536  19.083  10.416
36119W        W 8533  44.353   7.303   1.218
36120W        W 8534  14.229  14.692  11.574
36121W        W 8535  35.065  17.178  10.891
36122W        W 8536   2.281  38.902   0.267
36123W        W 8537  28.439   2.338  11.006
36124W        W 8538   2.235   8.869  13.061
36125W        W 8539   6.255  38.334  12.090
36126W        W 8540   4.208  41.370  12.096
36127W        W 8541  42.519   5.744   0.913
36128W        W 8542  36.505  17.113   4.244
36129W        W 8543   5.427  26.664  13.460
36130W        W 8544  36.897  10.373   2.861
36131W        W 8545  12.670  16.614   4.260
36132W        W 8546  40.827  40.408  11.526
36133W        W 8547  44.340  37.958  12.409
36134W        W 8548  22.728  13.187   0.314
36135W        W 8549  26.549  32.111   0.282
36136W        W 8550  26.039   6.906   0.348
36137W        W 8551  24.724  21.209   1.697
36138W        W 8552   2.862  34.940   3.231
36139W        W 8553  12.187  28.652  13.307
36140W        W 8554  22.658  11.307  12.546
36141W        W 8555  17.140  28.177   1.430
36142W        W 8556   0.764  32.075  10.450
36143W        W 8557  31.025  13.820  11.393
36144W        W 8558  44.915  32.629   4.636
36145W        W 8559   8.675  21.028   3.745
36146W        W 8560  13.347  10.769   1.409
36147W        W 8561   2.454  37.363  13.474
36148W        W 8562  31.034  35.066   0.362
36149W        W 8563  32.021   4.330  12.981
36150W        W 8564  23.234  22.535  14.389
36151W        W 8565  41.869   9.264  10.603
36152W        W 8566  26.112  33.105  13.361
36153W        W 8567  43.281   8.273  13.010
36154W        W 8568  13.733  19.187  13.813
36155W        W 8569  18.779   0.341   3.286
36156W        W 8570  13.827  16.765   1.787
36157W        W 8571  43.822  23.056  10.463
36158W        W 8572  15.287  26.051  14.944
36159W        W 8573  13.640  37.977   3.779
36160W        W 8574  14.114  18.080   2.901
36161W        W 8575  15.602  28.450   2.416
36162W        W 8576  13.838   7.869   0.918
36163W        W 8577  36.978  40.838  13.018
36164W        W 8578  24.040  28.472   2.196
36165W        W 8579   5.894  41.953  13.330
36166W        W 8580  11.674  32.441  11.533
36167W        W 8581  27.112  29.104   4.653
36168W        W 8582   5.432   7.247   3.716
36169W        W 8583  30.644   1.757   0.901
36170W        W 8584  37.935  33.118   5.194
36171W        W 8585  14.105  31.647  10.954
36172W        W 8586  30.486   3.348   4.228
36173W        W 8587  18.783   6.692  13.329
36174W        W 8588  24.019  39.855   2.817
36175W        W 8589  17.278  16.270   3.327
36176W        W 8590  27.009  11.209  14.409
36177W        W 8591  32.391  22.701   2.211
36178W        W 8592  35.099   2.952   4.829
36179W        W 8593  33.440  37.382  13.841
36180W        W 8594   5.771   8.288   3.283
36181W        W 8595  25.711  42.346  14.501
36182W        W 8596   1.908  11.341   3.303
36183W        W 8597  35.039   2.832   1.858
36184W        W 8598  20.597  13.678  13.524
36185W        W 8599  34.988  28.181  13.868
36186W        W 8600  30.050  34.452  13.007
36187W        W 8601   5.797  15.201  14.422
36188W        W 8602   8.372  39.336   4.340
36189W        W 8603   3.911  41.986  11.460
36190W        W 8604   4.324  38.914   3.670
36191W        W 8605  21.023  12.618   1.818
36192W        W 8606  16.097   2.900   4.297
36193W        W 8607  10.367  28.593  12.497
36194W        W 8608  30.014   7.183  12.504
36195W        W 8609  37.056  11.631  12.489
36196W        W 8610  31.138  32.974   0.854
36197W        W 8611  38.998  32.566  10.629
36198W        W 8612  33.078   5.720  12.852
36199W        W 8613   4.391  12.778   3.331
36200W        W 8614  27.014  15.612   2.288
36201W        W 8615  22.069   4.857  11.403
36202W        W 8616  41.840  41.913  11.534
36203W        W 8617  17.602   2.416  12.071
36204W        W 8618   9.195  22.678   2.362
36205W        W 8619   7.744  44.363  10.075
36206W        W 8620   6.420  12.855  14.906
36207W        W 8621  35.441  26.656   3.348
36208W        W 8622  29.516  22.079   1.792
36209W        W 8623  24.027  15.648   5.133
36210W        W 8624  11.796  42.027   0.376
36211W        W 8625   3.865  29.032   9.675
36212W        W 8626   8.346  12.142  11.895
36213W        W 8627  25.979  26.576   3.858
36214W        W 8628  24.713  21.111  13.000
36215W        W 8629  31.117  28.459  10.525
36216W        W 8630   5.309   9.759   0.272
36217W        W 8631  27.527   1.282   4.791
36218W        W 8632   6.206  39.451   3.288
36219W        W 8633   3.311  25.472  13.876
36220W        W 8634   0.313  24.193   0.953
36221W        W 8635   5.278  29.503   2.317
36222W        W 8636  42.824  33.095   1.702
36223W        W 8637   9.882   9.872   4.715
36224W        W 8638   4.796   3.442  12.434
36225W        W 8639   6.277  11.232  12.006
36226W        W 8640  40.981  19.193  13.818
36227W        W 8641  23.651  35.094  13.925
36228W        W 8642  10.870   1.957  13.046
36229W        W 8643  43.887  34.959  12.924
36230W        W 8644  32.476  27.095  14.963
36231W        W 8645   5.916  10.699   1.747
36232W        W 8646   7.190   2.395   3.820
36233W        W 8647  35.022  28.976  13.904
36234W        W 8648   2.752  44.501   3.674
36235W        W 8649  20.552  22.209   2.355
36236W        W 8650  25.213  10.343  14.960
36237W        W 8651  28.633   6.794  13.996
36238W        W 8652   6.772  41.410   3.319
36239W        W 8653  24.559  31.588  14.347
36240W        W 8654  35.051  21.083   5.260
36241W        W 8655  35.457   9.688  13.441
36242W        W 8656  44.904   5.355  12.538
36243W        W 8657  40.457  40.044   0.832
36244W        W 8658  10.306  27.585   4.349
36245W        W 8659  21.694  34.919   4.744
36246W        W 8660   8.367  41.320   1.721
36247W        W 8661  32.959  19.220   3.328
36248W        W 8662  25.574  32.450  11.506
36249W        W 8663   2.351  30.908   2.824
36250W        W 8664   2.458  26.187   5.109
36251W        W 8665  31.498  11.259   3.384
36252W        W 8666  19.194  37.454  10.924
36253W        W 8667   9.855  44.284   2.699
36254W        W 8668  26.587  16.582   2.686
36255W        W 8669  19.128  31.599  14.893
36256W        W 8670  26.964  15.815  14.862
36257W        W 8671  13.832   0.273   0.870
36258W        W 8672  11.127  30.532  11.866
36259W        W 8673  12.322  25.008  13.023
36260W        W 8674  35.060  15.298   2.667
36261W        W 8675  31.580  40.979  11.863
36262W        W 8676  35.061  39.361  11.468
36263W        W 8677  18.561  31.581   2.703
36264W        W 8678  15.177  30.514  11.958
36265W        W 8679  31.146  28.005   4.826
36266W        W 8680  29.108  11.198  11.059
36267W        W 8681   1.898  11.253  11.007
36268W        W 8682  20.753  25.204   4.821
36269W        W 8683  41.315  18.639   0.786
36270W        W 8684  41.985  21.600  13.058
36271W        W 8685  37.365  33.398  10.924
36272W        W 8686  15.309   9.712   2.851
36273W        W 8687  12.274  34.063  12.385
36274W        W 8688  32.391   2.747   2.231
36275W        W 8689  30.421  35.531   4.767
36276W        W 8690   4.925  33.093  10.642
36277W        W 8691  25.480  35.521  11.918
36278W        W 8692  41.889  22.579  14.415
36279W        W 8693   6.389  27.020   1.275
36280W        W 8694   6.680  43.826  14.394
36281W        W 8695   5.227  28.608  13.928
36282W        W 8696   3.267   7.238   4.808
36283W        W 8697   6.271   2.812  13.913
36284W        W 8698  17.588  42.371  12.873
36285W        W 8699  39.924  29.151   3.804
36286W        W 8700  18.235  14.146   1.809
36287W        W 8701  16.763   8.339  14.940
36288W        W 8702  20.179  35.979   2.404
36289W        W 8703  31.040  25.694  10.636
36290W        W 8704  33.602   3.404   2.246
36291W        W 8705   4.347  16.202   2.794
36292W        W 8706  14.120  31.546   3.311
36293W        W 8707  44.797  36.862   2.809
36294W        W 8708  13.217  31.480  12.552
36295W        W 8709  43.002  16.269  14.281
36296W        W 8710  28.142   3.419   4.682
36297W        W 8711  39.553  32.637  12.963
36298W        W 8712  24.576   1.322  14.400
36299W        W 8713  15.311  42.895   1.768
36300W        W 8714  39.398  17.760   3.261
36301W        W 8715  24.110  10.176  11.901
36302W        W 8716  34.497  34.017   1.920
36303W        W 8717  44.977  20.572   4.640
36304W        W 8718  27.009   7.193  11.976
36305W        W 8719  32.394  26.495  12.027
36306W        W 8720  13.286   1.813   5.234
36307W        W 8721  13.139   8.164  10.499
36308W        W 8722  30.589  11.258   3.354
36309W        W 8723   8.656   0.846   2.322
36310W        W 8724  11.867  35.084  11.060
36311W        W 8725  39.053  36.572   4.177
36312W        W 8726  28.177  44.404   4.624
36313W        W 8727  11.363  24.097   4.783
36314W        W 8728  16.208  35.969   1.849
36315W        W 8729  36.969  10.654  10.970
36316W        W 8730  25.219  29.949  14.942
36317W        W 8731  26.010  33.579   1.380
36318W        W 8732  27.472  31.644  10.473
36319W        W 8733  40.899  38.431  14.278
36320W        W 8734  44.786   2.951   2.775
36321W        W 8735  43.343  44.420   4.283
36322W        W 8736  32.555  14.196   2.686
36323W        W 8737  38.566  23.990   4.268
36324W        W 8738  36.588   5.786  10.563
36325W        W 8739  26.130  44.298   3.301
36326W        W 8740  10.757  42.396   4.727
36327W        W 8741   5.907   6.320   3.310
36328W        W 8742  26.702  29.015   3.759
36329W        W 8743  38.448  35.899  14.408
36330W        W 8744  29.175  19.127  13.858
36331W        W 8745  38.387  27.948  11.004
36332W        W 8746  27.640  44.008   2.691
36333W        W 8747  35.391  33.920  10.561
36334W        W 8748   4.325  23.513   3.712
36335W        W 8749   5.201  35.561   4.735
36336W        W 8750  34.576  44.894  10.503
36337W        W 8751  43.001  41.795  13.931
36338W        W 8752  35.027  27.640  14.938
36339W        W 8753   9.229   5.307   3.805
36340W        W 8754   1.797  31.484   2.274
36341W        W 8755  21.248  43.409   0.473
36342W        W 8756   7.789  18.232  12.947
36343W        W 8757  31.636   6.774   1.276
36344W        W 8758  26.586  32.101  13.989
36345W        W 8759  23.611  11.331   3.385
36346W        W 8760   1.380  40.897  12.544
36347W        W 8761   4.392  18.272  13.800
36348W        W 8762  27.091  15.653   3.341
36349W        W 8763   4.840   3.395  14.766
36350W        W 8764  38.415  10.838   3.377
36351W        W 8765  12.774  27.148   0.329
36352W        W 8766  34.959   6.390  13.845
36353W        W 8767   6.688  14.193   3.273
36354W        W 8768  10.799  29.455  12.080
36355W        W 8769   1.871  12.203   0.828
36356W        W 8770   6.407   6.741  11.116
36357W        W 8771   4.335  42.858  11.124
36358W        W 8772  12.719  39.319   1.815
36359W        W 8773  43.421  35.897  13.820
36360W        W 8774  39.476   1.769   1.883
36361W        W 8775  32.533  16.230   4.658
36362W        W 8776  13.738   4.209   3.765
36363W        W 8777  15.716  40.349   5.225
36364W        W 8778  17.745  15.139  10.585
36365W        W 8779   7.256  20.058   2.814
36366W        W 8780  16.613  42.448  11.031
36367W        W 8781  39.489  10.137   4.693
36368W        W 8782  17.690  43.315   4.235
36369W        W 8783   5.367   3.451  11.414
36370W        W 8784  26.582  10.208  12.019
36371W        W 8785  18.101  23.668   2.759
36372W        W 8786   0.336  41.876  13.365
36373W        W 8787  32.942   1.440  13.043
36374W        W 8788  24.657  16.075   4.641
36375W        W 8789   1.753  21.614  11.404
36376W        W 8790  14.699  21.682  14.882
36377W        W 8791   0.259  22.127  11.415
36378W        W 8792  22.152   8.868  12.480
36379W        W 8793  19.577  10.878   4.678
36380W        W 8794   4.893  42.319   0.811
36381W        W 8795   9.236  12.755   3.746
36382W        W 8796  17.575  24.086   4.733
36383W        W 8797  21.056   4.349  13.052
36384W        W 8798   4.319   7.758  10.542
36385W        W 8799  42.965   4.907  11.578
36386W        W 8800  11.790  44.471  13.900
36387W        W 8801  43.511  25.506  14.395
36388W        W 8802  23.668  39.530   4.831
36389W        W 8803  40.921  42.806   1.235
36390W        W 8804  12.350  12.739  13.028
36391W        W 8805  28.029  24.619  10.122
36392W        W 8806  42.807   7.363  11.896
36393W        W 8807  20.103  24.722   0.935
36394W        W 8808  28.568  32.911   4.269
36395W        W 8809   9.212  27.586  11.863
36396W        W 8810  41.520  38.076  13.541
36397W        W 8811  44.851  43.321  13.060
36398W        W 8812  29.920  26.531   2.285
36399W        W 8813   1.742  18.073   1.725
36400W        W 8814   7.891  25.592  10.442
36401W        W 8815  21.207  19.731  10.153
36402W        W 8816   4.792  26.207   0.803
36403W        W 8817  28.620  33.100   4.655
36404W        W 8818  24.176  44.995  11.389
36405W        W 8819  30.034  43.886   2.349
36406W        W 8820  36.950   2.878   1.275
36407W        W 8821  18.192   0.287   1.214
36408W        W 8822  28.635  44.993   1.724
36409W        W 8823  28.626  42.507   1.694
36410W        W 8824  28.524  14.333  12.461
36411W        W 8825   6.282  27.092  13.410
36412W        W 8826  21.565   0.920   1.391
36413W        W 8827   4.745  39.812   3.383
36414W        W 8828  21.582  38.424   3.663
36415W        W 8829  12.834  28.461  13.991
36416W        W 8830  12.327  30.981   3.149
36417W        W 8831  27.994  25.504  13.956
36418W        W 8832  30.555   8.168   2.337
36419W        W 8833   5.240  33.529   1.267
36420W        W 8834  15.775  25.080   2.298
36421W        W 8835  11.788   7.899   4.661
36422W        W 8836  25.519  36.541   2.259
36423W        W 8837  17.126   2.409   3.384
36424W        W 8838  16.108   9.320   4.297
36425W        W 8839   8.763  16.689   4.249
36426W        W 8840   1.940  20.652  11.868
36427W        W 8841  27.066  33.466   2.676
36428W        W 8842   6.262   0.444  12.004
36429W        W 8843  44.981   1.773  12.040
36430W        W 8844  19.740  28.611   2.289
36431W        W 8845   9.269  16.726  10.596
36432W        W 8846  20.523  30.586  11.381
36433W        W 8847   2.900  28.601  14.356
36434W        W 8848   0.314  27.681  11.043
36435W        W 8849  28.464  27.187   1.899
36436W        W 8850  40.866  31.915   5.315
36437W        W 8851  11.362  44.349  14.926
36438W        W 8852  43.810   8.891  11.394
36439W        W 8853  32.036  35.078   3.313
36440W        W 8854  30.465  12.801   2.358
36441W        W 8855  13.803  29.561   0.910
36442W        W 8856  44.815  28.096   2.727
36443W        W 8857  12.226  36.043   2.782
36444W        W 8858  43.829   8.163  12.532
36445W        W 8859  36.983  36.408   0.337
36446W        W 8860  31.582  40.353  13.444
36447W        W 8861  29.038  23.690   3.777
36448W        W 8862   5.897  13.233   1.420
36449W        W 8863  10.638  43.838  13.049
36450W        W 8864  20.760   7.685   4.669
36451W        W 8865  16.586  40.509   0.255
36452W        W 8866  17.079  15.311  10.490
36453W        W 8867   7.753  44.986  11.605
36454W        W 8868  33.044  40.324  10.962
36455W        W 8869  16.812  31.021  11.381
36456W        W 8870  39.555  33.889  14.409
36457W        W 8871  24.025  34.413  11.021
36458W        W 8872   3.326  42.812  12.034
36459W        W 8873  11.326  16.613  13.492
36460W        W 8874  43.884  34.512  10.937
36461W        W 8875  32.958  40.541   3.792
36462W        W 8876  26.672   2.394   4.236
36463W        W 8877  12.227  25.083  11.109
36464W        W 8878  16.104  15.126  13.877
36465W        W 8879  25.482  38.859  14.496
36466W        W 8880  11.867   8.832  12.469
36467W        W 8881  41.906   3.926   1.710
36468W        W 8882  21.238  18.204   2.293
36469W        W 8883   5.211  33.497   4.628
36470W        W 8884   4.838  30.440  10.012
36471W        W 8885  22.093  42.423   4.607
36472W        W 8886  43.889   6.369   3.384
36473W        W 8887  19.562  29.170  14.954
36474W        W 8888   6.257  14.241   9.531
36475W        W 8889  40.411  18.651   4.627
36476W        W 8890  23.567  15.739  11.985
36477W        W 8891   0.806  37.876  13.448
36478W        W 8892  21.098  29.098   4.825
36479W        W 8893  22.596   5.722   1.728
36480W        W 8894  41.343  37.424   1.394
36481W        W 8895  37.456  37.875   3.329
36482W        W 8896  36.905  34.057   1.831
36483W        W 8897  36.040  33.416   0.927
36484W        W 8898  21.069  40.538  14.770
36485W        W 8899  43.823   0.913   1.852
36486W        W 8900  10.256  34.423   1.838
36487W        W 8901  16.106   0.752   4.133
36488W        W 8902  11.792   0.356   2.240
36489W        W 8903  10.363  40.418  13.964
36490W        W 8904  36.964  40.856   4.754
36491W        W 8905   3.879  37.926  13.929
36492W        W 8906  14.248   8.354  13.060
36493W        W 8907  32.095  32.572   0.935
36494W        W 8908  43.440  25.016  11.541
36495W        W 8909  40.353  41.873  13.872
36496W        W 8910  19.082  39.482   3.355
36497W        W 8911  23.630  24.002   3.700
36498W        W 8912  21.712   7.337   2.179
36499W        W 8913  22.712  14.599  14.430
36500W        W 8914  22.224   4.275   1.828
36501W        W 8915  24.190   2.293   0.254
36502W        W 8916  34.066  10.163   3.333
36503W        W 8917   8.372  26.574  11.404
36504W        W 8918  26.601  12.302  11.416
36505W        W 8919  31.427  22.033   0.407
36506W        W 8920  35.449   8.773   1.443
36507W        W 8921   5.428   3.235  13.367
36508W        W 8922   1.903   2.771  11.912
36509W        W 8923  24.185  18.157  12.565
36510W        W 8924   4.398  20.191   4.686
36511W        W 8925  42.994  35.984  14.367
36512W        W 8926  14.271  24.607  12.576
36513W        W 8927  16.792  22.010  14.415
36514W        W 8928   0.878  14.638   0.941
36515W        W 8929  12.187  43.484  10.559
36516W        W 8930  42.408  42.336   4.660
36517W        W 8931  35.418  41.862   0.244
36518W        W 8932  31.065   2.405   0.270
36519W        W 8933  28.146   2.466  12.970
36520W        W 8934  36.366  15.139   3.219
36521W        W 8935  13.779   3.928   0.854
36522W        W 8936   7.319   5.349  11.860
36523W        W 8937  41.297  31.079  13.906
36524W        W 8938  37.954  41.412  13.440
36525W        W 8939   8.222  13.794  12.069
36526W        W 8940  28.008  36.912   1.312
36527W        W 8941  20.069  14.283   0.467
36528W        W 8942  44.978   8.260   1.333
36529W        W 8943  13.652   9.160   0.465
36530W        W 8944  43.419  24.213  11.093
36531W        W 8945  32.521  11.312   2.348
36532W        W 8946  32.907  43.984   2.306
36533W        W 8947  34.100  26.123  14.808
36534W        W 8948  32.549  33.390   3.726
36535W        W 8949   0.985  10.698   1.234
36536W        W 8950  40.016  43.463   4.267
36537W        W 8951   9.715  36.413  13.340
36538W        W 8952  44.920  25.191  13.030
36539W        W 8953  29.636  11.658   3.158
36540W        W 8954   5.421  10.254  10.483
36541W        W 8955  24.575  34.976  14.987
36542W        W 8956  32.482  23.722  11.386
36543W        W 8957   0.824  31.108   2.898
36544W        W 8958  43.947  13.645  12.580
36545W        W 8959  10.310  13.729   3.271
36546W        W 8960   3.296  26.458   1.429
36547W        W 8961  32.947  38.424  12.942
36548W        W 8962  12.778  40.405   2.835
36549W        W 8963   0.492  11.735   1.817
36550W        W 8964   5.363  23.526  12.363
36551W        W 8965  37.981  38.063  14.969
36552W        W 8966  10.207  25.509  12.555
36553W        W 8967  43.912  15.253   3.671
36554W        W 8968  36.913  20.743  13.318
36555W        W 8969  41.857  39.522   1.420
36556W        W 8970  34.898  42.006   2.193
36557W        W 8971  36.357  44.912   1.423
36558W        W 8972  35.031  43.341  12.532
36559W        W 8973   1.290  10.862  10.591
36560W        W 8974  42.490  24.187  12.027
36561W        W 8975  13.343  29.606   0.827
36562W        W 8976  17.729  13.719  11.422
36563W        W 8977  26.193  43.786  10.533
36564W        W 8978  42.468  24.563   1.445
36565W        W 8979   1.876  16.577  11.987
36566W        W 8980  14.254  12.764  14.867
36567W        W 8981  21.056   8.867   4.652
36568W        W 8982  35.396  19.104  12.960
36569W        W 8983  26.175  42.920  11.105
36570W        W 8984  20.229   7.668  12.347
36571W        W 8985  39.360  38.010   1.230
36572W        W 8986  27.629  13.652  13.015
36573W        W 8987  39.824   8.880  12.940
36574W        W 8988  14.636  38.436   4.324
36575W        W 8989  40.856  32.407  13.368
36576W        W 8990  11.705  30.946   4.793
36577W        W 8991  16.803   2.312   3.686
36578W        W 8992  40.391  28.120   1.737
36579W        W 8993  42.860  37.529  11.047
36580W        W 8994  20.598   8.867  10.564
36581W        W 8995  14.625   8.708   1.404
36582W        W 8996   5.903  24.030   0.326
36583W        W 8997  24.602  36.067  11.490
36584W        W 8998  17.234  16.786  10.091
36585W        W 8999  12.117  39.057  14.835
36586W        W 9000  42.479  25.106   1.755
36587W        W 9001  38.539  35.407   2.767
36588W        W 9002  32.552   3.405   1.232
36589W        W 9003  36.464   8.170   3.748
36590W        W 9004  43.882   1.825   0.391
36591W        W 9005  36.965  36.374  10.569
36592W        W 9006  34.608  42.852   4.750
36593W        W 9007  14.787   0.915   4.164
36594W        W 9008  36.485  26.979  14.363
36595W        W 9009   6.828   5.203  10.477
36596W        W 9010  10.830   7.821   4.718
36597W        W 9011  10.749   8.807  12.567
36598W        W 9012  35.551  33.416   5.089
36599W        W 9013  10.279  42.283  13.829
36600W        W 9014   8.708  24.695  14.790
36601W        W 9015  39.332  21.163  11.593
36602W        W 9016  31.901  30.117   2.192
36603W        W 9017  15.769  22.076  12.876
36604W        W 9018   1.439  11.137  13.052
36605W        W 9019  32.420  44.866  11.083
36606W        W 9020   1.377  41.851  13.011
36607W        W 9021   2.835  21.677  13.871
36608W        W 9022  23.092  40.806  12.340
36609W        W 9023  37.483  14.305  12.069
36610W        W 9024  36.571  24.055   0.279
36611W        W 9025  20.196  26.986   4.723
36612W        W 9026  21.649  26.477   3.346
36613W        W 9027  44.285  44.425   4.234
36614W        W 9028  30.023  15.632   0.953
36615W        W 9029  20.081  34.420  11.990
36616W        W 9030  31.447   1.471   2.232
36617W        W 9031  35.419  12.820  11.504
36618W        W 9032  18.119   9.878   4.276
36619W        W 9033  13.795   9.282  12.935
36620W        W 9034  30.418   3.231   4.737
36621W        W 9035   8.887  44.487   1.241
36622W        W 9036   3.945  16.620   3.648
36623W        W 9037  41.398  17.624   3.348
36624W        W 9038  23.678  42.427  11.422
36625W        W 9039  32.618   6.206  13.443
36626W        W 9040  25.571  22.049   3.364
36627W        W 9041   7.690   4.204  13.055
36628W        W 9042  22.146  22.734  13.960
36629W        W 9043  14.656  39.819   4.264
36630W        W 9044   8.780   0.365  11.047
36631W        W 9045   0.868   8.382  13.320
36632W        W 9046  32.597  28.976  12.476
36633W        W 9047   2.401  14.280   4.259
36634W        W 9048  30.963  41.377  13.314
36635W        W 9049  31.564  26.601  14.369
36636W        W 9050  35.526  43.802   0.811
36637W        W 9051  36.896   3.843  12.053
36638W        W 9052  26.097   9.268   0.270
36639W        W 9053   1.476  32.051   4.146
36640W        W 9054  16.686  12.835  14.387
36641W        W 9055  21.140  13.306  10.559
36642W        W 9056  23.199  19.650   4.308
36643W        W 9057  14.271  24.479   3.202
36644W        W 9058  43.952  19.724   4.835
36645W        W 9059   9.671  29.132  13.947
36646W        W 9060  16.636  26.135   0.418
36647W        W 9061  14.127  23.158  13.954
36648W        W 9062  23.518  13.158   4.175
36649W        W 9063   0.918  30.041   3.778
36650W        W 9064  24.709  34.099  13.057
36651W        W 9065  44.421  43.431  11.070
36652W        W 9066  31.068  24.566  10.608
36653W        W 9067  10.868   4.303   3.728
36654W        W 9068  26.123  37.453   0.359
36655W        W 9069  10.723  12.706  12.936
36656W        W 9070  27.641  27.154   0.814
36657W        W 9071  22.171  41.030   4.745
36658W        W 9072  36.512  43.414  12.008
36659W        W 9073   8.281  37.496  11.112
36660W        W 9074  23.043  17.701   2.741
36661W        W 9075   0.960  29.429   1.426
36662W        W 9076  10.803  37.024   0.326
36663W        W 9077   9.285  39.319   2.793
36664W        W 9078  41.019  15.751  14.405
36665W        W 9079  44.373   2.778   2.244
36666W        W 9080   7.218  13.637   2.247
36667W        W 9081   6.230   7.228  12.095
36668W        W 9082  38.513  33.983  11.993
36669W        W 9083   8.192   4.891  13.943
36670W        W 9084  22.665  34.506   2.742
36671W        W 9085   5.259  40.049   0.466
36672W        W 9086  31.075  25.601   4.833
36673W        W 9087   8.806  25.674   5.125
36674W        W 9088  15.580  44.857  11.065
36675W        W 9089  29.173  10.852  10.536
36676W        W 9090  22.712  12.154  12.876
36677W        W 9091   8.391  34.514  11.107
36678W        W 9092  36.913   3.426   0.463
36679W        W 9093  36.967  17.085  12.524
36680W        W 9094  24.642  11.643   2.809
36681W        W 9095  17.597  27.473  10.499
36682W        W 9096  37.906  42.864  13.406
36683W        W 9097  10.201  44.348   0.933
36684W        W 9098   5.733  29.156  11.904
36685W        W 9099  39.320   8.845  14.983
36686W        W 9100  13.774  43.846  14.023
36687W        W 9101   8.284  43.830   4.747
36688W        W 9102  32.120   9.292   5.276
36689W        W 9103  30.547  11.237   3.705
36690W        W 9104  33.989  42.378  10.621
36691W        W 9105  40.481   2.469  10.889
36692W        W 9106  42.285  26.588  11.895
36693W        W 9107  34.010  30.457   1.919
36694W        W 9108  11.651  27.969  10.622
36695W        W 9109  23.593   8.183   3.168
36696W        W 9110   4.698  36.887   0.251
36697W        W 9111  18.667   7.214   0.935
36698W        W 9112   2.278  17.725   3.844
36699W        W 9113  33.971   5.368   3.807
36700W        W 9114  10.371   3.246   9.922
36701W        W 9115  43.427  11.314  14.954
36702W        W 9116  25.653  24.084   3.817
36703W        W 9117   0.807  42.909   2.732
36704W        W 9118  23.030  42.524   4.275
36705W        W 9119  32.496  39.539   4.347
36706W        W 9120  22.150   1.804   0.842
36707W        W 9121  37.560   7.845   5.191
36708W        W 9122   7.197  33.459  14.883
36709W        W 9123  21.643   2.227  10.565
36710W        W 9124  12.664  25.022   0.328
36711W        W 9125   2.952  28.167   9.484
36712W        W 9126  31.954   5.427   4.617
36713W        W 9127  34.965  27.489   4.288
36714W        W 9128  22.683  18.769  13.871
36715W        W 9129   6.812   0.946  11.099
36716W        W 9130  13.744  42.414  14.811
36717W        W 9131  31.919  20.746  12.967
36718W        W 9132  20.697  19.691  14.946
36719W        W 9133   2.312  42.015   0.860
36720W        W 9134  19.239  35.943  14.901
36721W        W 9135  43.813   2.771   0.737
36722W        W 9136  14.650  13.744  14.019
36723W        W 9137   4.352  25.084   5.157
36724W        W 9138  23.124  11.201   0.829
36725W        W 9139  40.847  21.630   2.753
36726W        W 9140  35.366  18.633   0.354
36727W        W 9141  28.117  16.223   2.812
36728W        W 9142  29.574  21.553  14.486
36729W        W 9143  20.220  11.850  10.411
36730W        W 9144  42.367  44.362  11.464
36731W        W 9145   0.782   2.440  13.000
36732W        W 9146  25.214   8.395  11.965
36733W        W 9147  36.970   9.196  12.836
36734W        W 9148  40.054   9.314  12.915
36735W        W 9149   2.888  26.536   1.782
36736W        W 9150  29.532  41.920  11.937
36737W        W 9151  32.918   5.934   0.463
36738W        W 9152   0.385   7.768  12.421
36739W        W 9153   3.283  26.963  14.814
36740W        W 9154   8.332  34.432   2.798
36741W        W 9155  41.799  36.882   1.299
36742W        W 9156   5.703  29.020   1.792
36743W        W 9157  25.996   1.450   5.145
36744W        W 9158   7.672  44.825  13.442
36745W        W 9159  40.969   9.670  10.970
36746W        W 9160   5.770  20.572   4.740
36747W        W 9161  43.769  44.964  14.796
36748W        W 9162   2.226   4.237   4.323
36749W        W 9163   0.915  42.032   2.227
36750W        W 9164  23.679  23.225  13.455
36751W        W 9165  20.218   6.699  10.930
36752W        W 9166   7.870  31.026  14.026
36753W        W 9167  32.406  12.670   1.432
36754W        W 9168  23.531   4.286   1.254
36755W        W 9169  32.095  33.982  12.493
36756W        W 9170  31.032  35.432   3.147
36757W        W 9171  20.646   9.316   2.745
36758W        W 9172  16.779  25.532  14.381
36759W        W 9173   5.437  39.422  10.494
36760W        W 9174  22.566   9.803   3.377
36761W        W 9175  43.806   5.328  14.317
36762W        W 9176  17.560  23.003  12.835
36763W        W 9177   2.282  10.834  14.417
36764W        W 9178  10.206  11.168  14.818
36765W        W 9179  26.190  27.020  10.434
36766W        W 9180  36.013  37.569   3.240
36767W        W 9181  12.154  17.108  10.948
36768W        W 9182  43.899   7.391   1.354
36769W        W 9183  43.277   4.873  13.516
36770W        W 9184  10.829   1.752   1.304
36771W        W 9185  37.887   5.918  10.994
36772W        W 9186  37.434  36.864   1.822
36773W        W 9187  25.657   0.345  13.866
36774W        W 9188   7.308   5.340   3.738
36775W        W 9189  32.498  29.619   0.777
36776W        W 9190  22.639  32.606   4.334
36777W        W 9191  11.251   4.770  12.021
36778W        W 9192  36.027   4.438  11.498
36779W        W 9193   1.915  12.123   1.888
36780W        W 9194  43.908  37.842   2.296
36781W        W 9195  24.133  41.437  11.917
36782W        W 9196   9.329  12.286   1.783
36783W        W 9197   3.426  24.655  11.597
36784W        W 9198  28.464  25.659  10.549
36785W        W 9199  35.422  24.155   1.266
36786W        W 9200  24.624   3.812   1.863
36787W        W 9201   7.910   6.727   3.340
36788W        W 9202  30.929   7.796   0.425
36789W        W 9203   8.368  44.422   1.819
36790W        W 9204  37.940  15.329  12.558
36791W        W 9205   2.369   3.904  11.935
36792W        W 9206  10.825  26.610   0.967
36793W        W 9207  22.586  37.870  14.274
36794W        W 9208  34.040  18.588   0.248
36795W        W 9209   5.198  23.220  14.374
36796W        W 9210  16.230   2.406   3.818
36797W        W 9211  19.229  19.779  13.525
36798W        W 9212  36.522  42.501  10.899
36799W        W 9213  19.106  11.175  13.475
36800W        W 9214  27.118   2.319  13.990
36801W        W 9215  29.482  34.428  14.810
36802W        W 9216   4.729  44.965   2.270
36803W        W 9217   9.236  32.397   1.221
36804W        W 9218   1.395  14.152   2.414
36805W        W 9219  11.862  33.590   2.180
36806W        W 9220  38.909   6.354   2.257
36807W        W 9221  40.877   4.846  13.056
36808W        W 9222  39.903  40.847   0.338
36809W        W 9223   1.861   0.796   1.385
36810W        W 9224  35.383  21.024   5.210
36811W        W 9225  40.397  39.507  12.037
36812W        W 9226  33.902   0.916   2.830
36813W        W 9227  10.715   4.796  13.479
36814W        W 9228   8.285  16.690  14.923
36815W        W 9229  44.835  20.686   1.225
36816W        W 9230  12.665  10.258   3.255
36817W        W 9231   8.693  37.569  12.421
36818W        W 9232  31.555   9.875   4.642
36819W        W 9233  41.946   7.910   3.645
36820W        W 9234  41.510   3.330   3.232
36821W        W 9235   5.890  42.839  11.873
36822W        W 9236  19.075  25.641  14.504
36823W        W 9237  36.399  35.528   5.223
36824W        W 9238  18.774  19.750  14.439
36825W        W 9239  23.232  31.410  12.412
36826W        W 9240  12.740  10.691  14.336
36827W        W 9241  27.080   3.352   4.159
36828W        W 9242   9.729  34.103  12.902
36829W        W 9243  33.035  25.007  13.374
36830W        W 9244   7.319  42.431  13.507
36831W        W 9245  23.499  17.291   3.787
36832W        W 9246  38.044  44.924  10.458
36833W        W 9247   6.761   6.904  14.455
36834W        W 9248  37.463  31.039   4.270
36835W        W 9249   2.868  21.253  10.553
36836W        W 9250   5.217  15.712   3.772
36837W        W 9251  13.764  25.974  12.569
36838W        W 9252  13.668  11.681  11.421
36839W        W 9253  14.623   3.421   2.320
36840W        W 9254  35.891  35.938   3.236
36841W        W 9255  33.124  34.009  10.505
36842W        W 9256   2.273  25.700   1.255
36843W        W 9257  22.580   8.674   1.239
36844W        W 9258  42.412  17.208   3.233
36845W        W 9259  27.168   5.830  11.484
36846W        W 9260  13.805  24.187  10.901
36847W        W 9261  14.217  40.943  14.871
36848W        W 9262  36.014  30.990  10.533
36849W        W 9263  26.486  30.151  12.358
36850W        W 9264   2.360  40.822  12.425
36851W        W 9265  34.909  32.009  11.869
36852W        W 9266  38.482  35.602  13.842
36853W        W 9267  18.575  25.081   5.248
36854W        W 9268   8.227  40.353   2.736
36855W        W 9269  44.276  37.840   5.086
36856W        W 9270  40.047  43.478   2.771
36857W        W 9271  38.338   3.370   3.271
36858W        W 9272  28.529   3.253   2.813
36859W        W 9273  28.633   8.825  13.918
36860W        W 9274   1.368  21.661   1.701
36861W        W 9275  27.180  19.687   2.368
36862W        W 9276  35.527  22.112  14.441
36863W        W 9277  29.097  33.626   0.806
36864W        W 9278  18.722  18.155  14.372
36865W        W 9279   3.236  30.648   3.344
36866W        W 9280  15.651  20.220   4.175
36867W        W 9281  34.603   4.852  12.096
36868W        W 9282  33.585   6.864   2.251
36869W        W 9283  24.480  37.369   3.813
36870W        W 9284  44.824   3.795  11.072
36871W        W 9285  37.365  25.571   2.333
36872W        W 9286  32.476  35.928  12.951
36873W        W 9287  39.344   9.752  12.905
36874W        W 9288  40.370  28.440  12.465
36875W        W 9289  33.990  19.681  14.466
36876W        W 9290   4.324  33.995   3.366
36877W        W 9291  21.213  23.134   1.414
36878W        W 9292  44.329   7.725  11.454
36879W        W 9293  16.646  34.433   1.749
36880W        W 9294  39.999  30.620  14.916
36881W        W 9295  32.945  38.401   0.932
36882W        W 9296  14.616  27.010   3.854
36883W        W 9297  25.695   2.820  11.881
36884W        W 9298  39.367  32.504  12.477
36885W        W 9299  16.311  27.984  11.039
36886W        W 9300  26.562   3.793   2.741
36887W        W 9301   6.296   7.361   2.715
36888W        W 9302  11.152   6.191   1.739
36889W        W 9303  12.775  18.264   0.435
36890W        W 9304  33.616  27.949   4.748
36891W        W 9305  34.876   3.225  10.614
36892W        W 9306  22.233  29.017  13.503
36893W        W 9307   3.918  18.676  12.085
36894W        W 9308  12.754   4.256   0.400
36895W        W 9309   2.304  24.652   2.267
36896W        W 9310  30.581   3.740   4.796
36897W        W 9311  39.044  39.859  11.867
36898W        W 9312  22.653  38.400   3.790
36899W        W 9313  11.710  15.098  13.355
36900W        W 9314  39.887  14.668  11.901
36901W        W 9315   2.287  22.250   1.935
36902W        W 9316  27.585  44.367   3.228
36903W        W 9317  20.141   9.668  11.070
36904W        W 9318  14.320   0.435  13.886
36905W        W 9319   2.444  19.712  13.908
36906W        W 9320  31.080  38.553  13.544
36907W        W 9321  10.325  34.991   0.728
36908W        W 9322  33.436   4.270  14.484
36909W        W 9323  28.022  26.062  12.488
36910W        W 9324  44.942  19.238   3.869
36911W        W 9325   8.400  40.811   0.943
36912W        W 9326   8.841  40.497  12.074
36913W        W 9327  34.451  19.226  10.512
36914W        W 9328  17.712  38.502  14.773
36915W        W 9329  28.946   8.310  13.317
36916W        W 9330   4.874  16.588   3.827
36917W        W 9331  21.743   3.386  12.420
36918W        W 9332  27.586  14.591  13.823
36919W        W 9333  26.470   7.378  10.545
36920W        W 9334  31.994  43.843  12.514
36921W        W 9335  39.025  17.648   3.783
36922W        W 9336  37.947  31.432  10.424
36923W        W 9337   5.911  13.346  13.832
36924W        W 9338  18.586  11.373  10.582
36925W        W 9339  25.705  40.844   4.715
36926W        W 9340  32.000  40.940  11.497
36927W        W 9341   5.211  16.777  12.852
36928W        W 9342  37.986  28.513  11.003
36929W        W 9343  22.522  43.781   4.350
36930W        W 9344  25.711  18.779   2.829
36931W        W 9345  22.023  26.688   0.923
36932W        W 9346  33.526  24.561  13.402
36933W        W 9347  17.721  38.369  13.933
36934W        W 9348  22.549  21.120  14.763
36935W        W 9349  30.959   7.715  12.024
36936W        W 9350   0.429  16.574  13.861
36937W        W 9351   8.864   3.891  11.047
36938W        W 9352  18.172   2.303   0.464
36939W        W 9353   0.475  12.159   0.329
36940W        W 9354  44.997  25.111  13.357
36941W        W 9355  18.553   9.804  12.482
36942W        W 9356  33.122  27.574   2.895
36943W        W 9357  27.611  33.575  10.622
36944W        W 9358   3.325  40.493  12.859
36945W        W 9359   8.346  15.652  12.988
36946W        W 9360   0.362  33.995   0.949
36947W        W 9361  15.655  25.137  10.096
36948W        W 9362  18.734  37.430   4.750
36949W        W 9363  40.528   1.745   5.187
36950W        W 9364  29.046  39.041   3.353
36951W        W 9365  22.655  43.274  13.821
36952W        W 9366   8.898  39.853   4.152
36953W        W 9367  42.389  36.018   0.372
36954W        W 9368  39.468  24.721   0.947
36955W        W 9369  37.056  22.083  13.866
36956W        W 9370  28.987  20.119  10.499
36957W        W 9371  19.125  10.327   4.813
36958W        W 9372   2.277  32.042  14.948
36959W        W 9373  36.568  35.505  10.925
36960W        W 9374  34.481  24.583   3.698
36961W        W 9375   5.781  44.471   2.849
36962W        W 9376  11.252  39.364  14.385
36963W        W 9377   4.851   6.337  13.817
36964W        W 9378   7.701  37.389  13.052
36965W        W 9379  13.239   1.253   0.954
36966W        W 9380  42.411  36.846   4.668
36967W        W 9381  34.482  18.253   4.762
36968W        W 9382  43.953   3.849   0.837
36969W        W 9383  40.380   4.866  11.925
36970W        W 9384  37.371   3.237  13.510
36971W        W 9385   1.741  29.955  13.013
36972W        W 9386   7.671  13.705   4.153
36973W        W 9387  23.093   6.676  13.509
36974W        W 9388  44.486  22.091   4.645
36975W        W 9389  33.427  30.941  14.802
36976W        W 9390  20.041  25.597  11.919
36977W        W 9391  31.524  44.359   4.734
36978W        W 9392  28.561  28.480  10.460
36979W        W 9393  34.483  42.776  14.365
36980W        W 9394  17.577   7.375   0.747
36981W        W 9395  39.429  39.506   3.323
36982W        W 9396  29.165  15.096   2.205
36983W        W 9397  35.897   3.904  13.508
36984W        W 9398  31.101  23.570  14.286
36985W        W 9399  18.774  28.142  14.830
36986W        W 9400   7.801  36.495  13.926
36987W        W 9401  34.071  38.327  13.937
36988W        W 9402  43.297  34.482  11.899
36989W        W 9403  41.866  21.020  10.161
36990W        W 9404  30.529  43.368   4.660
36991W        W 9405  44.404  22.602   9.993
36992W        W 9406  14.721  21.095  13.446
36993W        W 9407  44.489  18.735  12.444
36994W        W 9408  44.268  21.626  10.460
36995W        W 9409  10.288  22.246  14.484
36996W        W 9410  43.495  33.874  14.317
36997W        W 9411  39.006  24.534   3.854
36998W        W 9412  31.980  42.015   0.890
36999W        W 9413  12.649  28.582  14.768
37000W        W 9414  42.960  29.970  12.966
37001W        W 9415  20.075  23.611  11.012
37002W        W 9416  37.840   4.890   3.323
37003W        W 9417   9.208   3.796  10.422
37004W        W 9418   0.388  15.714   3.360
37005W        W 9419  16.795  42.462  13.524
37006W        W 9420  21.203   2.393   2.380
37007W        W 9421  15.610  19.176   1.840
37008W        W 9422  23.520  42.332   4.838
37009W        W 9423  23.057   8.215   2.869
37010W        W 9424  29.669  41.306   2.313
37011W        W 9425  22.079  17.265   1.261
37012W        W 9426  12.831  27.060  11.862
37013W        W 9427   8.787  30.632   2.243
37014W        W 9428  12.362   7.771  10.977
37015W        W 9429  24.682  23.564  14.466
37016W        W 9430   9.773  22.999  11.558
37017W        W 9431  25.478  40.876  14.435
37018W        W 9432   9.763  38.005   0.956
37019W        W 9433   2.806  13.184   4.772
37020W        W 9434  14.657   7.326  10.422
37021W        W 9435  26.192  35.453   3.308
37022W        W 9436  15.675  37.066   2.249
37023W        W 9437  13.830  19.283  11.006
37024W        W 9438   7.333   4.720  10.955
37025W        W 9439   5.704  39.905   0.424
37026W        W 9440   1.415  38.459   3.765
37027W        W 9441   0.357  36.432  13.379
37028W        W 9442  24.212  36.920   0.927
37029W        W 9443  18.249   6.199   4.813
37030W        W 9444  31.008  29.629  13.821
37031W        W 9445  16.670   5.390   3.802
37032W        W 9446  22.561  24.546   4.794
37033W        W 9447  32.610   0.261   2.254
37034W        W 9448  11.622  22.245  12.083
37035W        W 9449  15.755  21.118  12.543
37036W        W 9450  28.679  20.205  14.965
37037W        W 9451  27.546  40.910  12.568
37038W        W 9452   2.259  14.098   2.742
37039W        W 9453  24.697  25.681  11.036
37040W        W 9454  31.555   2.752   0.263
37041W        W 9455  13.215  22.079   0.386
37042W        W 9456  17.731  31.905  12.063
37043W        W 9457  14.123  37.562   0.886
37044W        W 9458  33.545  33.999   3.285
37045W        W 9459  30.161  32.074   4.681
37046W        W 9460  18.256  30.481  14.352
37047W        W 9461  39.334   9.823   3.357
37048W        W 9462  43.463  25.706  13.017
37049W        W 9463  35.579  27.047   3.718
37050W        W 9464  26.980  24.545  12.462
37051W        W 9465  36.474   0.900   3.846
37052W        W 9466  21.512  24.027   3.343
37053W        W 9467  43.445  24.033   4.721
37054W        W 9468   0.982  41.806   3.371
37055W        W 9469  30.440  37.438   2.396
37056W        W 9470  17.122   2.912   1.290
37057W        W 9471   7.673   0.276   3.385
37058W        W 9472  25.123  31.105  10.972
37059W        W 9473   0.324  39.995  14.382
37060W        W 9474  10.782   1.266  14.834
37061W        W 9475  19.137  16.115   1.810
37062W        W 9476  17.614  20.184  11.554
37063W        W 9477  34.565  42.463  14.855
37064W        W 9478  29.503  20.620  12.437
37065W        W 9479  22.031  38.519  13.313
37066W        W 9480  11.361  21.639   0.251
37067W        W 9481   5.276   9.369  11.966
37068W        W 9482  21.606  20.730   3.858
37069W        W 9483  12.210   5.405  13.398
37070W        W 9484  41.344  24.589   0.751
37071W        W 9485   6.740  38.007   4.208
37072W        W 9486   6.340  31.950  12.053
37073W        W 9487  17.767  11.138  13.056
37074W        W 9488  12.781  14.733   3.187
37075W        W 9489  22.010   0.875  11.612
37076W        W 9490  25.564  39.405  14.985
37077W        W 9491  11.290  28.523   4.745
37078W        W 9492   3.272  16.641  10.448
37079W        W 9493  23.618  42.990  13.906
37080W        W 9494  38.549  26.522   4.749
37081W        W 9495  25.536   0.491   3.343
37082W        W 9496   6.390  32.910   4.241
37083W        W 9497  19.203  14.127   1.256
37084W        W 9498   6.780   7.197   3.631
37085W        W 9499  31.140  39.401   4.816
37086W        W 9500  29.534  13.700   3.750
37087W        W 9501  20.103   7.212  12.910
37088W        W 9502  38.336  12.818  11.589
37089W        W 9503   3.841  39.426  14.453
37090W        W 9504   3.745   3.714  10.977
37091W        W 9505  32.557  10.269  11.961
37092W        W 9506  30.154  28.151  14.479
37093W        W 9507  39.989  15.776  10.595
37094W        W 9508  42.830  16.697  12.476
37095W        W 9509   3.863  29.956   1.290
37096W        W 9510  22.219  33.066   3.180
37097W        W 9511  28.122   0.485  11.019
37098W        W 9512  31.961   3.929  14.963
37099W        W 9513  13.135  43.884  11.885
37100W        W 9514   4.285   0.758  14.919
37101W        W 9515  17.686  44.334   3.191
37102W        W 9516  34.078  38.540   0.747
37103W        W 9517   6.327   7.346  13.523
37104W        W 9518   2.404  31.550   1.762
37105W        W 9519  33.624   8.180   2.365
37106W        W 9520   8.765   3.804   4.353
37107W        W 9521  12.687  38.325  11.114
37108W        W 9522  29.101  33.048   4.602
37109W        W 9523   6.189  39.821  13.326
37110W        W 9524  19.110  42.387  13.432
37111W        W 9525  32.482  16.272  14.864
37112W        W 9526   5.902  13.126   2.722
37113W        W 9527  16.132  33.409  10.041
37114W        W 9528   9.311  16.794   3.708
37115W        W 9529  41.423  10.734   2.387
37116W        W 9530  44.313  44.436  12.032
37117W        W 9531  31.447   2.789  12.425
37118W        W 9532  31.491   6.240   0.880
37119W        W 9533  40.403  21.261   9.976
37120W        W 9534  34.960  37.424   0.424
37121W        W 9535   6.869   0.363   4.202
37122W        W 9536   1.918  42.019  10.931
37123W        W 9537  15.727  32.032  14.008
37124W        W 9538  25.510   6.793  13.981
37125W        W 9539   4.722  20.699  12.856
37126W        W 9540  30.131  36.500  14.939
37127W        W 9541  21.639   1.260   3.789
37128W        W 9542   3.268  27.123  13.054
37129W        W 9543  33.583  17.692   1.420
37130W        W 9544  43.391  41.454  14.007
37131W        W 9545  28.059  18.700   4.666
37132W        W 9546  35.543   1.384  10.491
37133W        W 9547  21.604  25.492  14.903
37134W        W 9548   5.411  22.144   4.657
37135W        W 9549  42.301  14.271  13.054
37136W        W 9550  42.956  36.526  14.833
37137W        W 9551  39.395  29.144   1.330
37138W        W 9552  28.544   9.766   0.827
37139W        W 9553  15.671  30.152  10.484
37140W        W 9554  13.341   9.718   3.220
37141W        W 9555  22.611  12.689  10.511
37142W        W 9556  19.534  30.978   4.743
37143W        W 9557  14.228  38.075   4.737
37144W        W 9558  34.957  31.414   2.717
37145W        W 9559  38.851  24.686  10.599
37146W        W 9560  12.170  15.786  10.617
37147W        W 9561  43.371  19.566   2.227
37148W        W 9562  31.032   8.403  14.404
37149W        W 9563  19.547  16.183   1.805
37150W        W 9564   6.351  15.722  10.916
37151W        W 9565  43.823  43.789  14.475
37152W        W 9566   5.820  44.915   2.882
37153W        W 9567  34.451  12.676   1.784
37154W        W 9568  26.995  23.515  14.777
37155W        W 9569  21.218  38.448   4.674
37156W        W 9570  32.607  34.018   2.182
37157W        W 9571  36.949  42.408   1.444
37158W        W 9572  39.939  28.477   0.397
37159W        W 9573   8.285  19.736   1.793
37160W        W 9574  21.017  44.349   3.217
37161W        W 9575  17.252  37.397   0.966
37162W        W 9576  36.409  11.190   2.310
37163W        W 9577  34.959  32.569  11.496
37164W        W 9578  18.620  41.021   1.930
37165W        W 9579  35.588  41.039  13.406
37166W        W 9580  23.220   4.354   4.236
37167W        W 9581  13.183  12.787   3.299
37168W        W 9582  20.171   2.844   1.892
37169W        W 9583  42.985   1.462   3.731
37170W        W 9584  20.725  23.068   1.911
37171W        W 9585  12.204   0.317   2.419
37172W        W 9586  38.349  20.700  13.053
37173W        W 9587  15.210   9.739   4.149
37174W        W 9588  10.870  40.004   1.367
37175W        W 9589  31.622   3.922   0.862
37176W        W 9590  13.606  17.201   1.245
37177W        W 9591  15.191  27.662   3.364
37178W        W 9592  13.287  40.341   4.782
37179W        W 9593  26.983   3.449  14.495
37180W        W 9594   7.754  11.758   2.776
37181W        W 9595  27.082  18.182  11.472
37182W        W 9596  14.727  38.967  14.002
37183W        W 9597   4.268  25.557   2.680
37184W        W 9598  32.539  43.504  11.121
37185W        W 9599  27.604  13.303  12.350
37186W        W 9600  41.432  32.611  12.015
37187W        W 9601   1.473  41.485  11.585
37188W        W 9602  35.580  42.393  12.434
37189W        W 9603   7.900   4.316   2.711
37190W        W 9604   3.459   6.378   0.415
37191W        W 9605  44.294   3.727   4.688
37192W        W 9606   9.769  22.250  10.524
37193W        W 9607   0.320  26.993  12.059
37194W        W 9608  11.173  36.491   0.268
37195W        W 9609   3.436  42.912   3.313
37196W        W 9610  22.745  34.456  14.969
37197W        W 9611   1.391  38.426  13.519
37198W        W 9612  14.270   6.373   4.353
37199W        W 9613   2.756  44.875  14.890
37200W        W 9614   7.369  11.248  12.030
37201W        W 9615  15.584   1.396  12.854
37202W        W 9616  43.428   0.447   4.638
37203W        W 9617  41.896  27.046   3.330
37204W        W 9618   6.680  32.395   2.313
37205W        W 9619  15.696   9.833  11.430
37206W        W 9620   8.799   8.212  13.538
37207W        W 9621   5.244  25.195  12.351
37208W        W 9622  30.497  44.787   4.697
37209W        W 9623  31.543   9.359   3.676
37210W        W 9624   5.740   9.262  10.975
37211W        W 9625   4.790   6.310  11.443
37212W        W 9626  41.802  17.258   5.268
37213W        W 9627  42.913   8.856   0.763
37214W        W 9628   6.812  29.631  12.033
37215W        W 9629  13.831   3.411   0.937
37216W        W 9630   8.749  31.932   2.407
37217W        W 9631  16.800  36.087   3.338
37218W        W 9632  18.174  18.652   2.667
37219W        W 9633  31.967  15.329  14.763
37220W        W 9634  10.362  13.810  12.522
37221W        W 9635  32.911  36.520  10.484
37222W        W 9636  37.869  38.356  10.970
37223W        W 9637   7.281  27.096   3.266
37224W        W 9638  17.126  27.672  11.975
37225W        W 9639  30.116  26.512   4.217
37226W        W 9640  27.522  20.552  11.378
37227W        W 9641  34.524  12.318  12.897
37228W        W 9642  41.960  25.125   0.904
37229W        W 9643  18.667  33.591   1.420
37230W        W 9644   5.835  16.095  10.942
37231W        W 9645  24.608  17.573  10.035
37232W        W 9646  40.329   3.856  13.837
37233W        W 9647   7.340  20.240   4.812
37234W        W 9648  18.765  12.791  12.403
37235W        W 9649  34.022   4.246  14.438
37236W        W 9650  29.957   2.453  14.504
37237W        W 9651  14.109   1.858  12.849
37238W        W 9652  36.859  22.177  10.988
37239W        W 9653   0.443   3.879  14.908
37240W        W 9654  25.656   7.298  14.397
37241W        W 9655  34.459   6.385  14.862
37242W        W 9656   7.196   3.774  10.486
37243W        W 9657  39.558   0.402  13.057
37244W        W 9658  13.264  34.903  11.541
37245W        W 9659  17.799  44.881  13.941
37246W        W 9660  11.756   7.191   1.309
37247W        W 9661  16.144   1.406  14.388
37248W        W 9662  23.580   1.389  12.864
37249W        W 9663  30.546  39.541   2.886
37250W        W 9664  15.818  41.303   1.367
37251W        W 9665  17.683  10.676   3.366
37252W        W 9666  18.187  13.738   0.387
37253W        W 9667  36.433  30.649   2.218
37254W        W 9668   5.409  28.533   3.699
37255W        W 9669  11.801  20.193   4.774
37256W        W 9670  32.066  27.493   3.347
37257W        W 9671   6.407   2.310  14.929
37258W        W 9672  40.945  43.272  14.792
37259W        W 9673  15.702   8.660   4.624
37260W        W 9674  44.355  37.500   1.356
37261W        W 9675   1.747  21.206   4.252
37262W        W 9676   7.372   1.425   3.314
37263W        W 9677  24.559  32.533  13.336
37264W        W 9678  41.451  23.008   2.757
37265W        W 9679  22.136  40.846  10.970
37266W        W 9680  16.599   4.839  13.902
37267W        W 9681  14.206  42.782   3.260
37268W        W 9682   3.362   8.263   1.801
37269W        W 9683  10.295  11.253   1.815
37270W        W 9684  11.216  35.428   0.769
37271W        W 9685  31.920  33.503   1.796
37272W        W 9686  32.616  25.085   2.360
37273W        W 9687  32.486  30.506   9.962
37274W        W 9688  14.692   3.924   0.417
37275W        W 9689  12.360  33.615  11.517
37276W        W 9690  25.482  21.545   3.825
37277W        W 9691  30.063  29.492  12.016
37278W        W 9692  30.606  35.065  10.598
37279W        W 9693  43.348   0.452   0.945
37280W        W 9694  18.160  39.833   4.285
37281W        W 9695  42.311  18.586  10.469
37282W        W 9696  29.507   8.245   1.759
37283W        W 9697  25.639  26.467   2.217
37284W        W 9698  14.632  42.875  13.510
37285W        W 9699   0.267  15.204   1.772
37286W        W 9700  14.235  25.993  14.504
37287W        W 9701  44.339  27.065  13.382
37288W        W 9702   5.301  38.434  12.509
37289W        W 9703   4.935  37.400   1.910
37290W        W 9704   2.394  31.635  10.991
37291W        W 9705   9.687  26.167  12.943
37292W        W 9706  23.140  39.029   2.298
37293W        W 9707  11.187  34.433  13.364
37294W        W 9708   3.845  13.638   4.623
37295W        W 9709  15.151  35.883  12.546
37296W        W 9710  27.043  39.953  12.044
37297W        W 9711  24.661  30.069   3.217
37298W        W 9712  38.943  23.139   1.745
37299W        W 9713  39.556  25.547  13.029
37300W        W 9714  44.817  15.240   2.707
37301W        W 9715  29.945  17.065  11.036
37302W        W 9716  11.327  35.949   4.210
37303W        W 9717   4.377  14.746   3.748
37304W        W 9718   9.706   7.884   4.276
37305W        W 9719  19.210  39.060  12.858
37306W        W 9720  21.059   5.914   1.812
37307W        W 9721  34.588  34.099   3.272
37308W        W 9722  43.485  30.929  11.458
37309W        W 9723  32.982  35.453  12.372
37310W        W 9724  16.174  10.794  10.513
37311W        W 9725  26.090   7.727  14.978
37312W        W 9726  21.724  16.303   3.629
37313W        W 9727  29.009  31.427   3.851
37314W        W 9728  38.457  30.646   1.855
37315W        W 9729   2.853  13.750  13.366
37316W        W 9730  37.041  22.547  10.588
37317W        W 9731  14.295  24.092  14.473
37318W        W 9732  22.565  28.098  11.095
37319W        W 9733  13.781   9.754   2.859
37320W        W 9734  36.093  43.356   2.230
37321W        W 9735   5.721   5.810   0.377
37322W        W 9736  42.316  36.386  14.504
37323W        W 9737  21.069  12.772  11.400
37324W        W 9738   3.785  43.990   4.694
37325W        W 9739  15.626  41.899  12.563
37326W        W 9740   1.866  39.908  14.859
37327W        W 9741  31.946  24.139   1.366
37328W        W 9742  19.271  28.090  12.022
37329W        W 9743  34.469  24.666   3.310
37330W        W 9744  14.182  43.441   3.210
37331W        W 9745  42.379  30.110   3.846
37332W        W 9746  26.037   2.727  14.482
37333W        W 9747  26.573   8.848  12.827
37334W        W 9748  28.662  34.114   2.226
37335W        W 9749   8.790   5.434   2.769
37336W        W 9750  39.516  24.181  11.410
37337W        W 9751  17.109  16.178  13.420
37338W        W 9752   3.390  25.486  14.368
37339W        W 9753  24.988  34.440   3.347
37340W        W 9754   3.938  12.191  12.039
37341W        W 9755   6.757  36.531   4.352
37342W        W 9756  41.911  13.173   2.371
37343W        W 9757  36.393  20.265   4.334
37344W        W 9758  29.980  32.419   1.845
37345W        W 9759  21.514  23.594   3.720
37346W        W 9760   2.296  35.372   0.321
37347W        W 9761  30.089  26.037  12.377
37348W        W 9762  10.743  30.955   0.360
37349W        W 9763  34.938  33.625  13.540
37350W        W 9764  16.158  10.754   2.212
37351W        W 9765   3.896  43.419   4.825
37352W        W 9766  29.435   0.906   5.160
37353W        W 9767  31.474  22.168   3.362
37354W        W 9768   9.208  35.509   0.906
37355W        W 9769  44.008  25.135  14.907
37356W        W 9770  17.796   0.882  13.051
37357W        W 9771  37.477  26.207  10.595
37358W        W 9772  42.893  29.539  12.828
37359W        W 9773  39.030  16.180   4.611
37360W        W 9774  19.114   8.668  11.912
37361W        W 9775   9.293  17.258   2.230
37362W        W 9776  35.083   7.782   2.328
37363W        W 9777  25.523   0.293   4.644
37364W        W 9778  17.136   3.388   4.235
37365W        W 9779  19.242  31.619   2.407
37366W        W 9780  35.537  39.549  13.462
37367W        W 9781   4.419  39.984   0.289
37368W        W 9782  27.084   9.753   0.357
37369W        W 9783  29.577  13.840   4.276
37370W        W 9784  24.717  31.989  10.037
37371W        W 9785   5.261  11.629  13.347
37372W        W 9786  13.250  35.505  14.899
37373W        W 9787  39.491   7.777   2.754
37374W        W 9788  25.098  10.666   1.889
37375W        W 9789  14.302  25.671   3.341
37376W        W 9790   3.302  43.947   3.344
37377W        W 9791   0.482  33.511  13.527
37378W        W 9792  39.829  19.044   0.406
37379W        W 9793  13.749  41.484  14.015
37380W        W 9794  25.679   8.843  12.551
37381W        W 9795  10.648  16.790  14.783
37382W        W 9796  24.587  22.611  12.929
37383W        W 9797  42.826   1.298   0.809
37384W        W 9798   1.902  28.077  10.058
37385W        W 9799   6.685   3.787  14.012
37386W        W 9800  32.994  37.071  13.361
37387W        W 9801  19.154  23.530  12.058
37388W        W 9802   8.225  19.649   2.251
37389W        W 9803  24.049  18.187  10.054
37390W        W 9804  31.520  28.554   0.476
37391W        W 9805  30.598   7.198  12.393
37392W        W 9806   7.843  26.589   3.696
37393W        W 9807  32.912  40.373  11.388
37394W        W 9808   3.293  19.546  11.109
37395W        W 9809  10.720  11.750  10.488
37396W        W 9810  12.819   4.781  13.893
37397W        W 9811  28.644  39.814  10.484
37398W        W 9812  21.691  10.139   2.806
37399W        W 9813  39.524  31.920   1.334
37400W        W 9814  24.137   1.918  12.493
37401W        W 9815  30.981  37.897  13.350
37402W        W 9816  42.353  41.308   1.839
37403W        W 9817  39.972   1.821   2.199
37404W        W 9818   8.848   0.367   1.734
37405W        W 9819  27.474  41.990   1.886
37406W        W 9820   0.771  33.021   0.305
37407W        W 9821  10.231   5.781  11.890
37408W        W 9822  21.046  12.611  10.460
37409W        W 9823  44.285   1.334   1.728
37410W        W 9824   9.721  19.117  13.514
37411W        W 9825  26.628  39.016  13.399
37412W        W 9826   0.779  23.536  10.933
37413W        W 9827  29.443  37.070   0.470
37414W        W 9828  14.781  42.889   0.478
37415W        W 9829  15.793  12.703  12.887
37416W        W 9830  41.418   6.762  14.290
37417W        W 9831  38.884  28.538   2.401
37418W        W 9832   2.820  34.613  11.602
37419W        W 9833  34.547   1.350   4.792
37420W        W 9834  16.699  41.295   1.852
37421W        W 9835  15.188  10.219  12.392
37422W        W 9836  44.852   1.801  11.493
37423W        W 9837  33.053  15.775  12.528
37424W        W 9838  17.086  34.576   3.233
37425W        W 9839  19.129  18.164   4.217
37426W        W 9840  32.615  13.226   3.696
37427W        W 9841  25.053   7.815   0.897
37428W        W 9842  39.893  33.913   0.736
37429W        W 9843   5.272  33.589  11.902
37430W        W 9844   5.391  32.623  11.930
37431W        W 9845  22.745  24.164   1.395
37432W        W 9846   6.691  11.863   4.789
37433W        W 9847  44.846   4.807   0.847
37434W        W 9848   4.883   9.343  10.474
37435W        W 9849  23.594  24.061  14.935
37436W        W 9850  40.371   3.312   5.239
37437W        W 9851  12.202  13.336   1.780
37438W        W 9852  28.117   4.848  12.377
37439W        W 9853   6.780  41.809   4.676
37440W        W 9854   3.754  43.301   1.733
37441W        W 9855  40.847  19.543  12.512
37442W        W 9856  31.567  22.554   4.669
37443W        W 9857  26.666  31.496   4.228
37444W        W 9858   4.737   2.268   0.295
37445W        W 9859  10.877   9.772  11.044
37446W        W 9860  26.606  40.943  13.794
37447W        W 9861  16.178   5.219  11.568
37448W        W 9862   8.273  40.380  10.462
37449W        W 9863  44.797  30.625  12.926
37450W        W 9864  10.350   4.782  14.945
37451W        W 9865  14.687   7.734  13.375
37452W        W 9866   0.308  21.707   2.320
37453W        W 9867  39.319  27.946   2.822
37454W        W 9868  43.322  11.772  14.821
37455W        W 9869  44.272  22.586  13.885
37456W        W 9870  36.985  27.656  11.408
37457W        W 9871  29.483  37.525  13.814
37458W        W 9872  42.389  32.006  14.899
37459W        W 9873  43.891   2.282  12.492
37460W        W 9874  35.043  26.204   2.709
37461W        W 9875   3.862  43.475  10.605
37462W        W 9876  21.664  13.725  14.847
37463W        W 9877   1.405  34.454   0.781
37464W        W 9878  35.505  24.500   1.274
37465W        W 9879  33.525   4.874  10.124
37466W        W 9880  18.719  43.823   4.820
37467W        W 9881  30.412  41.481   9.984
37468W        W 9882  43.813  30.949   2.404
37469W        W 9883  29.481  34.587   1.849
37470W        W 9884   3.729  27.673  13.511
37471W        W 9885   4.817  23.006   1.447
37472W        W 9886  23.620  27.471   1.217
37473W        W 9887  10.774  40.052  11.022
37474W        W 9888  44.285   4.313   4.182
37475W        W 9889  36.377  16.612  12.963
37476W        W 9890   9.164  23.519   4.642
37477W        W 9891  35.452  25.696  11.888
37478W        W 9892  41.370  26.472   1.369
37479W        W 9893  31.064  27.671   2.373
37480W        W 9894   5.718  17.120   2.902
37481W        W 9895  26.109  37.521  10.590
37482W        W 9896  35.909  16.142  13.916
37483W        W 9897   0.807  30.908  14.758
37484W        W 9898  34.906  38.922  13.873
37485W        W 9899  11.624   2.782  14.766
37486W        W 9900  11.705  19.131   1.414
37487W        W 9901  20.558  39.973   3.321
37488W        W 9902  10.146  41.314   0.298
37489W        W 9903  27.097  34.933   2.735
37490W        W 9904  24.644  29.494  12.848
37491W        W 9905  26.115  44.859  14.424
37492W        W 9906  28.147  44.885   0.390
37493W        W 9907  42.925   9.653  13.838
37494W        W 9908  10.317  16.213   2.296
37495W        W 9909  33.900  21.613  13.342
37496W        W 9910  35.558  28.571  11.885
37497W        W 9911  14.600   8.697   0.880
37498W        W 9912   6.342  42.490  13.528
37499W        W 9913  43.395  44.368   3.671
37500W        W 9914  42.458   6.363   4.824
37501W        W 9915  17.297  40.453   4.156
37502W        W 9916  18.588   3.288   3.149
37503W        W 9917  34.435  22.536  10.629
37504W        W 9918  38.913  10.268   4.191
37505W        W 9919  13.115  38.031   0.780
37506W        W 9920  27.619  32.073   4.146
37507W        W 9921  44.434  37.440  14.966
37508W        W 9922  28.943  21.561  14.966
37509W        W 9923  28.966  40.874   3.301
37510W        W 9924  23.597  11.629  14.411
37511W        W 9925  31.522  19.128   2.196
37512W        W 9926  16.732  23.991   0.269
37513W        W 9927  12.802  27.947   2.237
37514W        W 9928  24.130  39.013  13.863
37515W        W 9929   9.299  17.605  11.902
37516W        W 9930  24.540  36.576  12.466
37517W        W 9931  44.405  31.609   0.748
37518W        W 9932  25.502  28.121  13.893
37519W        W 9933  33.480   5.389   4.328
37520W        W 9934  33.611  19.104  13.358
37521W        W 9935   3.782   3.377   4.308
37522W        W 9936  39.435   5.712  11.119
37523W        W 9937  24.549  22.649   1.449
37524W        W 9938  15.176  24.689  11.535
37525W        W 9939  33.962  26.057   4.179
37526W        W 9940  13.806  17.761   3.378
37527W        W 9941  34.061  39.818   2.377
37528W        W 9942  27.956  28.487   2.819
37529W        W 9943  39.490  13.721   2.880
37530W        W 9944  36.532  16.804   0.272
37531W        W 9945  25.000  38.993  12.072
37532W        W 9946  36.009   7.248   2.832
37533W        W 9947  32.102  43.371   2.377
37534W        W 9948   1.834  37.480  14.870
37535W        W 9949   1.326  12.689  12.553
37536W        W 9950   8.162  21.168   0.317
37537W        W 9951   2.962   4.856   2.234
37538W        W 9952  23.004  36.991  13.324
37539W        W 9953   7.208  40.531   3.194
37540W        W 9954  38.486  38.931   0.290
37541W        W 9955  43.889   8.825   0.796
37542W        W 9956   8.290   8.655   1.220
37543W        W 9957   9.171  36.879  13.415
37544W        W 9958  44.423  18.060  10.102
37545W        W 9959  26.972   1.776   0.800
37546W        W 9960  32.104  34.978  11.083
37547W        W 9961  29.943   0.437   0.305
37548W        W 9962  40.979  24.982  13.876
37549W        W 9963  26.027  44.864   4.148
37550W        W 9964  26.174  30.923   0.781
37551W        W 9965   4.824  26.527  10.121
37552W        W 9966  27.157  16.685  10.496
37553W        W 9967   0.391  34.932  12.950
37554W        W 9968   5.830  32.979   0.767
37555W        W 9969  38.494   6.898   0.315
37556W        W 9970  12.680  19.195  14.293
37557W        W 9971  34.517  13.668  10.974
37558W        W 9972  23.623   2.294   1.434
37559W        W 9973  11.682   2.839   1.295
37560W        W 9974  43.270  23.527  10.606
37561W        W 9975  13.741  28.030  10.972
37562W        W 9976  19.655  32.951   4.680
37563W        W 9977  12.322  14.191   2.814
37564W        W 9978  20.050  23.672   1.375
37565W        W 9979  10.329  16.190   4.143
37566W        W 9980  32.979  34.417   2.734
37567W        W 9981  24.034  30.513   4.224
37568W        W 9982  33.102  43.462  12.875
37569W        W 9983  19.673  11.624  13.062
37570W        W 9984  42.810  16.645  11.858
37571W        W 9985  31.017   7.183   2.399
37572W        W 9986  27.999  43.984  11.074
37573W        W 9987   2.345  18.566   0.357
37574W        W 9988  22.997   3.264  10.552
37575W        W 9989  22.502   8.239  10.472
37576W        W 9990  29.945  20.640   0.477
37577W        W 9991  41.468  22.672   1.406
37578W        W 9992  22.081   7.236   0.765
37579W        W 9993  18.649  20.169  14.888
37580W        W 9994  27.985   3.233   1.785
37581W        W 9995  13.823  36.953   4.299
37582W        W 9996   1.792   2.937   2.285
37583W        W 9997  24.543   6.391  13.021
37584W        W 9998  41.393  10.777  13.433
37585W        W 9999   4.802  23.701   3.285
37586W        W10000  41.984  26.082   0.378
37587W        W10001  21.668   0.304   2.250
37588W        W10002  26.600  29.539   2.254
37589W        W10003  44.828  10.766   0.339
37590W        W10004  44.904  23.090   1.369
37591W        W10005  17.297  28.957  11.124
37592W        W10006   2.898   6.740  10.911
37593W        W10007  22.153  11.312  11.471
37594W        W10008  15.651  42.917   1.905
37595W        W10009  22.536  39.529  13.028
37596W        W10010  30.466  17.307  12.017
37597W        W10011  24.019  25.146   5.304
37598W        W10012  43.492   0.480  13.883
37599W        W10013  38.531  25.693  14.922
37600W        W10014   2.907  44.270  12.071
37601W        W10015  12.753  40.517   2.299
37602W        W10016  35.567   8.797  14.864
37603W        W10017  11.187  20.603   4.792
37604W        W10018   5.800  39.883  12.351
37605W        W10019  25.140  19.189   3.351
37606W        W10020  12.134  26.562  10.990
37607W        W10021  23.675   6.921   3.861
37608W        W10022   6.743  20.177  10.629
37609W        W10023   1.892  34.868   2.346
37610W        W10024  24.076  28.945  14.835
37611W        W10025  25.096  23.021   2.327
37612W        W10026   6.190  18.101   3.223
37613W        W10027  40.537  15.098  13.364
37614W        W10028  29.924  12.230   0.773
37615W        W10029  18.600  22.577  12.496
37616W        W10030  27.054  28.181  12.987
37617W        W10031   1.910  42.030  10.553
37618W        W10032  43.978  22.528  11.391
37619W        W10033  35.358   9.332  12.384
37620W        W10034  29.452  19.677  13.820
37621W        W10035  21.518  25.163  10.920
37622W        W10036  12.158  39.898  12.039
37623W        W10037  21.629   3.458  13.850
37624W        W10038  44.965  22.226   2.823
37625W        W10039  15.125  37.017   3.777
37626W        W10040  31.547  28.460  12.977
37627W        W10041  20.073  23.009   2.379
37628W        W10042   7.751   0.787  14.843
37629W        W10043  13.797  18.746   1.304
37630W        W10044  14.770  41.318  12.081
37631W        W10045  22.734  14.287   0.938
37632W        W10046  40.801  13.258   2.407
37633W        W10047  13.724  19.190  14.387
37634W        W10048  10.203   0.758   0.402
37635W        W10049  40.938  12.210  14.296
37636W        W10050   4.273  35.508  10.519
37637W        W10051  33.451  17.792   0.328
37638W        W10052   7.667  27.118  11.040
37639W        W10053  23.115  28.574  13.421
37640W        W10054   7.227  40.924   3.694
37641W        W10055  39.834  42.492  13.543
37642W        W10056  31.953  38.872  10.408
37643W        W10057  39.928  23.601  11.981
37644W        W10058  11.362  41.460   4.344
37645W        W10059  38.521  25.554   0.355
37646W        W10060   1.923  36.942  12.863
37647W        W10061  36.354  44.298   3.764
37648W        W10062   5.725  44.442  14.297
37649W        W10063  24.087  16.583  10.422
37650W        W10064  31.946   5.320  14.468
37651W        W10065  38.408  22.126   4.305
37652W        W10066  13.763  21.650  13.399
37653W        W10067  12.743  36.024  14.879
37654W        W10068   3.327   6.700   4.140
37655W        W10069   0.859  39.813   0.415
37656W        W10070  35.965  39.474   0.868
37657W        W10071   7.682  15.816  12.063
37658W        W10072  20.228  43.314  14.813
37659W        W10073  10.775  11.703   3.289
37660W        W10074  23.677  32.529   4.193
37661W        W10075  25.509  16.770  10.073
37662W        W10076  18.137  28.085  14.360
37663W        W10077  32.037  14.728  13.514
37664W        W10078   8.169  29.015  13.854
37665W        W10079  28.183  19.542   9.974
37666W        W10080  26.461   6.721  11.381
37667W        W10081  28.028  36.900   4.808
37668W        W10082  33.548  13.719  12.426
37669W        W10083  37.495   1.333   0.281
37670W        W10084  15.579  13.775  10.463
37671W        W10085  21.081  13.264   0.846
37672W        W10086  44.433  10.159   1.747
37673W        W10087  12.776  42.352   3.175
37674W        W10088   0.361   1.975   4.724
37675W        W10089  15.158  12.125  10.501
37676W        W10090  30.120  30.953   3.629
37677W        W10091  27.041   6.838   0.822
37678W        W10092  40.370  15.322   3.288
37679W        W10093  40.316   9.386   0.804
37680W        W10094   7.238  42.452   4.134
37681W        W10095  37.439  42.471   2.407
37682W        W10096  21.703  27.015  12.419
37683W        W10097  37.991  32.050   0.334
37684W        W10098  12.635  30.009  14.941
37685W        W10099  21.199  33.111   2.898
37686W        W10100  38.830  11.834  14.355
37687W        W10101  42.341  40.517   1.864
37688W        W10102  15.127  30.476   3.303
37689W        W10103   3.333   5.820  10.988
37690W        W10104  44.987  17.736   0.838
37691W        W10105   0.279  11.256  13.333
37692W        W10106  34.933  16.741   3.197
37693W        W10107  34.589   9.157  13.852
37694W        W10108  17.667   0.322   2.372
37695W        W10109  31.505  44.302  10.998
37696W        W10110  16.191  17.228  12.406
37697W        W10111   4.754  44.369  10.513
37698W        W10112   5.308  13.696   1.379
37699W        W10113  15.168  22.508  12.485
37700W        W10114  21.755  30.989   2.721
37701W        W10115  42.029  24.548   4.615
37702W        W10116  30.515  31.062  14.817
37703W        W10117  24.585  22.683   0.737
37704W        W10118  11.761   8.878  13.308
37705W        W10119  37.470   4.833  13.321
37706W        W10120  13.777  40.388   4.230
37707W        W10121   6.692  40.391  11.110
37708W        W10122  11.692  36.957   2.392
37709W        W10123  15.739  41.483   1.857
37710W        W10124  43.849  43.976   1.377
37711W        W10125   6.895  17.216  10.514
37712W        W10126  18.779  16.197   3.711
37713W        W10127  11.801   0.812   1.850
37714W        W10128  38.984  21.527  11.908
37715W        W10129  41.799  12.759  12.036
37716W        W10130   6.230  19.072  12.855
37717W        W10131  40.413  22.250   2.335
37718W        W10132  12.803  31.083   3.334
37719W        W10133   0.806  16.635   1.887
37720W        W10134  15.681  42.801   0.912
37721W        W10135   1.286   1.743   2.785
37722W        W10136  32.929  14.827  14.999
37723W        W10137  18.208  34.937  11.929
37724W        W10138   0.782  10.334  13.042
37725W        W10139  26.497  10.294   4.753
37726W        W10140  23.572  38.017   4.755
37727W        W10141  33.466  19.172  10.556
37728W        W10142  26.492   7.895   1.828
37729W        W10143  37.370  20.273  13.981
37730W        W10144  20.695  31.147  11.911
37731W        W10145  20.616  36.574  13.893
37732W        W10146  43.996  12.690  13.331
37733W        W10147  29.556  39.336   1.818
37734W        W10148  29.630  43.275  12.875
37735W        W10149   8.682  18.586   4.290
37736W        W10150  35.908  22.532   0.446
37737W        W10151   3.244  28.091   3.791
37738W        W10152  32.885   7.830  11.988
37739W        W10153  18.278  13.192   4.204
37740W        W10154  32.526  10.729   0.359
37741W        W10155  42.805  15.203   0.427
37742W        W10156  13.246  24.073   2.664
37743W        W10157  22.708  40.544   3.668
37744W        W10158   3.902  40.893  11.452
37745W        W10159  41.990  35.495   0.451
37746W        W10160  14.772  14.238   3.819
37747W        W10161  32.529  11.816  14.406
37748W        W10162  15.103   3.939  11.955
37749W        W10163  16.634  31.625   0.417
37750W        W10164  42.432  35.996  10.890
37751W        W10165  18.289  27.687   1.851
37752W        W10166  38.339  41.449  12.500
37753W        W10167   3.439   3.307  12.029
37754W        W10168  33.434  35.573   3.666
37755W        W10169  19.283   5.422  13.864
37756W        W10170  19.068  10.810  13.991
37757W        W10171  38.552   4.369   3.637
37758W        W10172   0.937  34.121   0.795
37759W        W10173  16.158   3.386   2.722
37760W        W10174  28.941  21.240  10.426
37761W        W10175   7.746   7.827   0.448
37762W        W10176  44.342  10.278  12.018
37763W        W10177  14.677  13.835   2.233
37764W        W10178   8.762   1.856  14.345
37765W        W10179  37.389   0.474   1.808
37766W        W10180  31.407  36.079   1.927
37767W        W10181  33.958  31.522   2.767
37768W        W10182  10.844  15.624   4.675
37769W        W10183  43.899   0.921   0.815
37770W        W10184  27.570  14.311   1.773
37771W        W10185  13.333  21.733   4.270
37772W        W10186  31.931   5.919   4.791
37773W        W10187  43.377  39.530   0.311
37774W        W10188  17.637   0.351  10.448
37775W        W10189  43.398  39.529   1.840
37776W        W10190  29.976  21.728   4.599
37777W        W10191   0.263  18.631  11.918
37778W        W10192  35.072  36.881   2.808
37779W        W10193   2.438  33.563   3.674
37780W        W10194  27.083  12.244  13.814
37781W        W10195   1.786  39.987  13.317
37782W        W10196  10.330  34.062  14.468
37783W        W10197  32.535  30.143   4.163
37784W        W10198   3.320  10.820   1.708
37785W        W10199  36.080  15.215  10.922
37786W        W10200  39.365  27.043   1.215
37787W        W10201  30.510  14.619  13.536
37788W        W10202  36.579  24.149   1.384
37789W        W10203  35.049  25.690   4.811
37790W        W10204  31.403  41.030   0.810
37791W        W10205  17.236  11.743   0.901
37792W        W10206  31.518  27.011  13.420
37793W        W10207   4.204   4.931  12.887
37794W        W10208  31.573  38.415   0.785
37795W        W10209   6.813  19.582  13.326
37796W        W10210  34.877  41.822   4.137
37797W        W10211  26.469  13.672   2.693
37798W        W10212  38.062  29.117   0.947
37799W        W10213  36.087  31.641  13.056
37800W        W10214  30.977  32.523   1.787
37801W        W10215  15.282  12.759  12.894
37802W        W10216   8.756  15.791  11.553
37803W        W10217  26.953  19.744  12.535
37804W        W10218  17.277   1.306  13.038
37805W        W10219   5.334   8.759  10.622
37806W        W10220  40.349  22.746  10.549
37807W        W10221   5.827  12.708   4.174
37808W        W10222  25.594  30.604  14.975
37809W        W10223   9.748  40.880  12.378
37810W        W10224  18.139   1.385  13.965
37811W        W10225  36.469  23.671  10.902
37812W        W10226  24.605  22.075   1.399
37813W        W10227  16.647  20.177  12.067
37814W        W10228  36.465  44.975   2.721
37815W        W10229  35.039  41.309   1.440
37816W        W10230  11.178  28.586  12.575
37817W        W10231   8.167  12.358  11.101
37818W        W10232  43.397  22.512   1.785
37819W        W10233  15.285   8.394   0.833
37820W        W10234  44.873  18.060   1.438
37821W        W10235  33.591  20.706  13.926
37822W        W10236   0.788  10.713   3.858
37823W        W10237  23.124   4.898  11.453
37824W        W10238  30.100  29.937  14.381
37825W        W10239   5.359   8.795  11.578
37826W        W10240  35.107  18.632   3.690
37827W        W10241  22.722  38.562   3.210
37828W        W10242  35.567  17.564  10.927
37829W        W10243  15.701  11.245  11.434
37830W        W10244  14.690  17.603  11.491
37831W        W10245  33.913  24.140   2.842
37832W        W10246  31.467  32.437   0.763
37833W        W10247   1.850  13.343   2.695
37834W        W10248  29.949  39.838  11.488
37835W        W10249   4.345  12.847  10.092
37836W        W10250   9.656  34.101   3.752
37837W        W10251  30.943  34.601  11.952
37838W        W10252  23.597  21.555  12.961
37839W        W10253   2.914  10.746  14.421
37840W        W10254   1.804   5.806  13.877
37841W        W10255  27.602  15.094  11.037
37842W        W10256  14.275  25.585  13.450
37843W        W10257  33.992  29.164   2.388
37844W        W10258  39.814  30.448   1.782
37845W        W10259  31.059  28.509   2.708
37846W        W10260  19.665  36.506   5.179
37847W        W10261  12.725  29.937   0.339
37848W        W10262  32.070  15.136   0.402
37849W        W10263  11.311  10.164   1.227
37850W        W10264  17.113   0.293   4.241
37851W        W10265  40.896   1.426   1.391
37852W        W10266  39.506  30.655   1.266
37853W        W10267   2.319  28.009  12.521
37854W        W10268  40.331  35.480   3.373
37855W        W10269  39.965  22.542   3.380
37856W        W10270  17.570   8.886   4.811
37857W        W10271  29.001  29.168  13.386
37858W        W10272  23.588  17.122  10.505
37859W        W10273   6.829   9.711   0.435
37860W        W10274  29.585  23.719  13.905
37861W        W10275  29.633  30.445   1.855
37862W        W10276  33.964   7.205  14.835
37863W        W10277  40.913  15.287   1.921
37864W        W10278  31.989  40.450  12.506
37865W        W10279  43.940   4.774   1.744
37866W        W10280  16.277  44.921  13.479
37867W        W10281  44.487   7.768   1.365
37868W        W10282  34.393  32.942   0.314
37869W        W10283  17.154  38.388   1.870
37870W        W10284  14.751  37.964  14.322
37871W        W10285   4.385  24.017   1.239
37872W        W10286   0.421   0.808  13.804
37873W        W10287  18.233  17.753   0.447
37874W        W10288   7.892  23.639   2.308
37875W        W10289  28.552  14.674   2.805
37876W        W10290  19.129  33.397   1.727
37877W        W10291  19.733  30.616  12.847
37878W        W10292  42.325  28.474   0.878
37879W        W10293  37.351  39.814  11.002
37880W        W10294  33.961  44.288   0.831
37881W        W10295   4.334  13.767  12.552
37882W        W10296   3.457  43.274  10.893
37883W        W10297  23.676   3.804  10.439
37884W        W10298  44.775   3.817   0.258
37885W        W10299  32.011  36.962  14.803
37886W        W10300  24.632  10.846  14.951
37887W        W10301  12.340   2.230   2.699
37888W        W10302   5.390  15.730  14.492
37889W        W10303  38.324  24.599  11.599
37890W        W10304  36.347   3.710  13.803
37891W        W10305  20.046  14.778  13.813
37892W        W10306  27.555  30.613  11.872
37893W        W10307  12.237  43.293  12.855
37894W        W10308  31.588  34.880   3.747
37895W        W10309  20.715  30.918   3.799
37896W        W10310  35.459   5.816   1.793
37897W        W10311  43.452   1.264   2.713
37898W        W10312  37.508  42.904   0.417
37899W        W10313   7.395  43.975  10.426
37900W        W10314  25.175  34.876  14.354
37901W        W10315  31.566   3.434  11.449
37902W        W10316  30.552   7.309  11.856
37903W        W10317  11.204  42.925   4.142
37904W        W10318  10.819   6.740   4.778
37905W        W10319   4.938  19.276  14.800
37906W        W10320  24.114  42.932  10.111
37907W        W10321  33.553  42.920   4.812
37908W        W10322  11.320  36.973   2.678
37909W        W10323  34.436  21.032  11.965
37910W        W10324   9.748   7.675   2.302
37911W        W10325  23.150  18.211  13.819
37912W        W10326  36.350  30.652   4.827
37913W        W10327  20.671   5.416   0.274
37914W        W10328  28.480  10.845  12.519
37915W        W10329  39.486  10.204   4.201
37916W        W10330  16.141  22.154  12.004
37917W        W10331  13.840  21.028  13.916
37918W        W10332   7.363  10.317   2.707
37919W        W10333   9.779  13.781  12.898
37920W        W10334   3.438   6.748  14.293
37921W        W10335  44.875  43.820   2.678
37922W        W10336  26.012   9.883   2.759
37923W        W10337  33.045  41.898  13.045
37924W        W10338  26.017  34.588   1.746
37925W        W10339   7.723   7.226  11.999
37926W        W10340  40.325   7.251   5.208
37927W        W10341  33.442   7.738  13.398
37928W        W10342  10.741  20.083   0.899
37929W        W10343   9.655  11.224   3.324
37930W        W10344  24.077  15.122   3.737
37931W        W10345  38.552  30.064  11.397
37932W        W10346  10.723  22.635   2.668
37933W        W10347  19.766   7.715  12.464
37934W        W10348   5.335  15.634   1.379
37935W        W10349   9.863  15.602  11.081
37936W        W10350  41.335  14.340  10.991
37937W        W10351  12.203   7.222  12.539
37938W        W10352  26.626  31.943   2.801
37939W        W10353  12.718  28.955   3.801
37940W        W10354  28.004   5.317  10.527
37941W        W10355  35.409  26.154  11.032
37942W        W10356   0.742   0.336  12.909
37943W        W10357  14.757  16.648   3.368
37944W        W10358   3.359  16.801   2.743
37945W        W10359  29.525  32.610  10.986
37946W        W10360  11.319  20.599   3.665
37947W        W10361  14.674  27.667  12.994
37948W        W10362  15.582  38.973  14.283
37949W        W10363  16.313  13.675   1.446
37950W        W10364  38.975  33.050  13.007
37951W        W10365  17.204  21.108   2.694
37952W        W10366   8.863   9.291   2.310
37953W        W10367  23.604   3.721  14.298
37954W        W10368  39.904  39.400   1.850
37955W        W10369  39.023  11.348   3.163
37956W        W10370  25.706  44.764  13.868
37957W        W10371   5.902  44.389  11.492
37958W        W10372  35.959  27.596  10.619
37959W        W10373  38.401   8.715  14.509
37960W        W10374  16.258  38.423   1.328
37961W        W10375   5.380  38.953   1.804
37962W        W10376  13.344  18.762  13.522
37963W        W10377  10.735  26.018   4.232
37964W        W10378   1.738  41.299  14.922
37965W        W10379  14.136  28.463  12.432
37966W        W10380  30.523  17.685   2.247
37967W        W10381   0.443  38.357   2.864
37968W        W10382  30.503  21.239   3.839
37969W        W10383  16.244  30.069  13.933
37970W        W10384   6.684  31.064   0.885
37971W        W10385  41.001   9.819   2.329
37972W        W10386  31.560  14.191   2.692
37973W        W10387   2.946  20.102  14.372
37974W        W10388  12.283   9.715   1.437
37975W        W10389  15.704   3.805   2.889
37976W        W10390  22.203  11.760  13.372
37977W        W10391  15.658  33.408  10.590
37978W        W10392  34.943   1.909   4.201
37979W        W10393   5.196   9.779   2.860
37980W        W10394  10.180   8.744   2.755
37981W        W10395  23.657  44.883   5.703
37982W        W10396  41.345   8.230   3.857
37983W        W10397  24.496  41.475  14.299
37984W        W10398  37.567  40.475   5.316
37985W        W10399   0.904   3.778  12.077
37986W        W10400   3.768  40.340  14.837
37987W        W10401  29.161  24.490   4.781
37988W        W10402  24.167   1.795  10.962
37989W        W10403  35.562   6.283  13.884
37990W        W10404  16.273  42.849   4.638
37991W        W10405  43.358   3.400   1.836
37992W        W10406   8.895  10.145  11.992
37993W        W10407  27.485  31.497  13.372
37994W        W10408  34.555  31.518  11.425
37995W        W10409  41.295  13.140  12.030
37996W        W10410  10.879  26.662   3.225
37997W        W10411   9.887  15.301   2.801
37998W        W10412  27.943  12.299   1.755
37999W        W10413  23.089   7.689   4.268
38000W        W10414  18.783  14.335  10.001
38001W        W10415  10.238  31.986   3.302
38002W        W10416  18.253  12.772   2.682
38003W        W10417  29.924  39.009  12.897
38004W        W10418  22.147  23.057  11.057
38005W        W10419  23.717  39.422   1.282
38006W        W10420  21.095  34.032  11.488
38007W        W10421  24.720   5.237   0.409
38008W        W10422  10.723   8.375  12.945
38009W        W10423  12.286  43.330   0.319
38010W        W10424  13.615  40.995   0.777
38011W        W10425  44.334   0.378  12.383
38012W        W10426  34.947  31.584   3.319
38013W        W10427  33.051  37.940  12.043
38014W        W10428  23.616  14.645   2.900
38015W        W10429  41.908  29.039   1.741
38016W        W10430  40.819  13.720   1.365
38017W        W10431  33.392  15.096   1.917
38018W        W10432   2.825   6.769  13.809
38019W        W10433  24.566   7.725   0.799
38020W        W10434  15.624  33.426  13.941
38021W        W10435  39.013  36.399   2.223
38022W        W10436  14.326  15.269  13.413
38023W        W10437  21.163  42.778   0.373
38024W        W10438  31.422   8.295  12.938
38025W        W10439  42.895  42.806   2.217
38026W        W10440  15.117   7.250  10.561
38027W        W10441   9.852  34.987   0.296
38028W        W10442  38.522  42.910   4.600
38029W        W10443  26.523  11.745  11.106
38030W        W10444  44.995  10.157   1.827
38031W        W10445  15.211   2.754  12.573
38032W        W10446  25.057  23.030   3.766
38033W        W10447  18.690  10.713  13.540
38034W        W10448  44.836  13.719  11.576
38035W        W10449  24.679  33.044  12.545
38036W        W10450  33.579  15.772   2.329
38037W        W10451  16.755  28.445  11.039
38038W        W10452  32.499  23.564   1.852
38039W        W10453  22.595  20.235   0.389
38040W        W10454  12.344  10.147  14.496
38041W        W10455  42.440   8.835   1.772
38042W        W10456  22.175  15.281  11.019
38043W        W10457  21.695   7.265  13.804
38044W        W10458  42.481  34.864   1.424
38045W        W10459  23.008  42.398   0.350
38046W        W10460  19.255  29.097   2.821
38047W        W10461  10.714  10.682  13.347
38048W        W10462  10.666  10.735   0.479
38049W        W10463   5.388  11.770  13.965
38050W        W10464  14.589  31.984  12.901
38051W        W10465  22.144   2.869  10.470
38052W        W10466  29.963   2.955   2.758
38053W        W10467  33.961   0.756  11.069
38054W        W10468  34.451  20.101   2.731
38055W        W10469  18.110  20.058   1.257
38056W        W10470  43.985  19.779  13.452
38057W        W10471  30.485   6.886   1.865
38058W        W10472   1.843  17.107  14.934
38059W        W10473  20.109  15.673  11.999
38060W        W10474  42.285  39.505  14.328
38061W        W10475  44.499  40.372  13.357
38062W        W10476  44.485   7.211  11.523
38063W        W10477  26.485   5.917   2.204
38064W        W10478   2.908  11.368   3.263
38065W        W10479  42.930  17.628   4.151
38066W        W10480  12.138  17.125  13.926
38067W        W10481  42.356  25.607  12.407
38068W        W10482  41.786  11.674  13.516
38069W        W10483  25.472  33.537   3.749
38070W        W10484   5.745   0.492   3.162
38071W        W10485   2.376   8.370   3.830
38072W        W10486  27.090  31.105  14.471
38073W        W10487  34.501  32.009  11.507
38074W        W10488   6.247  20.208   0.840
38075W        W10489  33.405  27.940  12.436
38076W        W10490  44.344   5.255  14.835
38077W        W10491   9.348  17.076  14.419
38078W        W10492  30.086  21.748   1.703
38079W        W10493  27.677  24.631   0.841
38080W        W10494   9.280  38.967   1.838
38081W        W10495  10.857  33.570   0.404
38082W        W10496  33.882  43.447  14.019
38083W        W10497   8.342  27.583   4.634
38084W        W10498  42.007  18.581  14.848
38085W        W10499  41.466  13.346   2.234
38086W        W10500  41.491  40.797   3.842
38087W        W10501  21.587  28.088  14.309
38088W        W10502   0.287  44.385   2.851
38089W        W10503  31.147  10.683   1.375
38090W        W10504  10.201  31.986   4.301
38091W        W10505  19.041  24.168   2.702
38092W        W10506  13.297   5.378   2.873
38093W        W10507   3.357   6.260   2.783
38094W        W10508  13.181  29.452   2.244
38095W        W10509  33.463   9.230  14.461
38096W        W10510   5.885  43.365  13.060
38097W        W10511  40.346  19.281  13.795
38098W        W10512   4.347  29.656   3.797
38099W        W10513  32.115   1.282   0.445
38100W        W10514  10.811   2.800   1.447
38101W        W10515  14.106  10.222   0.358
38102W        W10516  35.102  44.011  11.941
38103W        W10517  38.854  16.128   0.399
38104W        W10518  19.079  14.778  12.575
38105W        W10519  36.068  28.500   3.753
38106W        W10520   4.897   9.835  11.942
38107W        W10521  14.595   8.707  13.458
38108W        W10522  42.806  38.428   3.161
38109W        W10523  37.013  19.572   3.360
38110W        W10524   7.781  11.269  12.940
38111W        W10525  12.857  30.044   3.745
38112W        W10526  24.488   0.490   2.208
38113W        W10527  12.301  38.330   1.921
38114W        W10528  39.930  42.360   0.769
38115W        W10529   3.422   3.744   5.095
38116W        W10530  15.754  40.321   3.252
38117W        W10531  11.282   5.896  12.511
38118W        W10532  13.269   3.879   4.291
38119W        W10533  44.440  33.961  14.958
38120W        W10534  41.818  19.647   2.409
38121W        W10535  14.097  11.777  13.819
38122W        W10536  12.724  17.145  10.448
38123W        W10537  26.572   5.881  12.908
38124W        W10538  28.161  17.722  10.940
38125W        W10539  41.482  26.531   9.948
38126W        W10540  40.841  15.611   1.238
38127W        W10541  16.696  33.548  10.987
38128W        W10542  15.207  17.709   1.320
38129W        W10543  10.659   4.944   4.223
38130W        W10544  43.378   5.796   1.859
38131W        W10545  25.198  11.336   4.735
38132W        W10546  12.357  37.973  10.981
38133W        W10547  20.658  11.242  12.417
38134W        W10548  35.101  44.429  14.030
38135W        W10549  19.143   0.341  11.458
38136W        W10550  34.395  29.940   0.784
38137W        W10551   8.404  22.008   1.764
38138W        W10552  15.125   9.366   2.867
38139W        W10553  21.563  16.804   1.299
38140W        W10554  11.793  19.576  12.545
38141W        W10555   3.242  11.357  12.859
38142W        W10556  17.638  32.394   1.345
38143W        W10557  30.478   6.380   0.946
38144W        W10558  15.754  27.560  14.879
38145W        W10559  13.114  12.736  11.502
38146W        W10560  34.070   0.917   0.766
38147W        W10561  44.272  22.679  11.569
38148W        W10562  28.671  32.502   2.226
38149W        W10563  34.613  34.992  13.896
38150W        W10564  17.203   0.316   0.270
38151W        W10565  17.132  28.128   2.776
38152W        W10566  33.623   7.314  11.956
38153W        W10567   7.770  23.672   1.299
38154W        W10568   3.948  31.619  12.870
38155W        W10569  29.511  34.090  13.030
38156W        W10570  44.919  20.587  12.989
38157W        W10571  16.161  35.437   4.208
38158W        W10572  26.653  14.320  11.064
38159W        W10573  17.287   3.852  12.563
38160W        W10574  30.433  12.639  13.060
38161W        W10575  37.848  44.889  13.953
38162W        W10576  12.155   5.319   3.246
38163W        W10577  36.467   4.391  14.367
38164W        W10578  22.588  11.854   4.713
38165W        W10579   7.268   6.211   0.732
38166W        W10580   9.275  12.155   3.321
38167W        W10581  35.422   5.222  11.608
38168W        W10582  17.088  16.630  14.513
38169W        W10583  20.178  14.802  13.516
38170W        W10584  25.522   9.694  11.518
38171W        W10585  15.613  26.488   2.229
38172W        W10586   5.846  18.192   4.758
38173W        W10587  37.017   1.477   4.686
38174W        W10588  24.533  28.605   4.347
38175W        W10589  21.662  10.216  12.944
38176W        W10590  43.431  14.289  14.440
38177W        W10591   7.350  17.605   2.690
38178W        W10592   6.852  24.675  14.939
38179W        W10593  40.519  32.935  12.899
38180W        W10594   8.394   3.309  14.869
38181W        W10595  43.894  12.129  12.870
38182W        W10596  16.206   3.916   3.247
38183W        W10597  22.589  27.036   4.736
38184W        W10598   2.848  14.802  11.956
38185W        W10599   3.883  12.681  14.973
38186W        W10600  26.682  30.556  12.440
38187W        W10601  20.637  28.572  12.067
38188W        W10602  24.179   1.798   0.820
38189W        W10603  40.477  36.024  13.545
38190W        W10604  22.203  11.248   2.679
38191W        W10605  39.457  40.898   3.301
38192W        W10606   3.801  19.059  12.002
38193W        W10607  17.570  38.839  13.546
38194W        W10608  36.375  39.543  11.061
38195W        W10609  29.031  16.162  11.524
38196W        W10610  32.404  33.576  14.291
38197W        W10611  26.181  31.115  13.472
38198W        W10612  16.707  14.776  11.005
38199W        W10613  18.608  16.573   3.272
38200W        W10614  35.961   3.330   4.287
38201W        W10615  33.386   8.757   0.757
38202W        W10616  12.718  12.795   4.113
38203W        W10617  10.726  25.640   2.700
38204W        W10618   1.385   6.280  10.456
38205W        W10619  11.861   8.661  14.485
38206W        W10620  30.007  10.640   1.833
38207W        W10621  11.858   5.339  10.552
38208W        W10622  22.186  31.938   0.252
38209W        W10623  30.104  35.044  10.593
38210W        W10624   9.860  21.216   4.734
38211W        W10625  30.575  28.542   4.695
38212W        W10626  12.209  17.751   3.836
38213W        W10627  21.756  31.046  11.376
38214W        W10628  14.620  13.257   4.185
38215W        W10629  32.999  41.305   1.403
38216W        W10630  15.802  21.584   3.750
38217W        W10631   6.233  27.581   4.710
38218W        W10632  25.602  14.108  13.962
38219W        W10633  34.417  10.842  12.026
38220W        W10634  25.656  33.482  10.968
38221W        W10635  38.441  24.663  13.392
38222W        W10636  40.339  37.026  10.976
38223W        W10637  35.084  29.020   1.748
38224W        W10638   7.858  25.191  14.355
38225W        W10639   2.360   6.317  14.442
38226W        W10640  31.899  23.155  10.629
38227W        W10641  14.302   4.806  13.931
38228W        W10642   4.373   7.683   2.727
38229W        W10643  18.283  14.127  14.862
38230W        W10644  39.346  23.516   2.181
38231W        W10645  39.860   6.851   0.344
38232W        W10646   7.265   4.804   0.743
38233W        W10647  14.680   7.888   3.639
38234W        W10648  20.708   2.248  10.496
38235W        W10649  41.862  42.376  11.016
38236W        W10650  37.911  10.869  13.975
38237W        W10651  28.604  31.997  14.395
38238W        W10652   1.472  21.245   4.801
38239W        W10653  25.510  38.878   4.735
38240W        W10654  24.008  15.657   0.735
38241W        W10655  33.953  27.964   3.206
38242W        W10656  17.284  28.013   4.133
38243W        W10657  29.024  39.530  12.447
38244W        W10658  16.601  30.165  10.923
38245W        W10659  31.510  18.739   0.946
38246W        W10660  35.371  21.135  13.969
38247W        W10661  28.988  33.131  10.569
38248W        W10662  20.645   6.792  11.909
38249W        W10663   6.245  43.308   2.349
38250W        W10664   5.703  31.471   4.343
38251W        W10665  17.598   1.734   2.396
38252W        W10666   5.798  23.646  12.490
38253W        W10667  44.975  11.779   3.359
38254W        W10668  26.641  29.150   1.216
38255W        W10669  16.796  33.024   3.385
38256W        W10670   1.887  36.897   1.353
38257W        W10671   9.161  24.614   4.799
38258W        W10672  21.260  33.898  14.992
38259W        W10673  20.531   6.327  14.763
38260W        W10674   1.425  41.363  13.005
38261W        W10675  44.775  37.510  13.041
38262W        W10676  13.177   6.195   1.878
38263W        W10677   6.392   5.759   4.674
38264W        W10678  44.495  38.060   2.397
38265W        W10679   1.284  21.583   3.662
38266W        W10680  34.395  19.696  14.827
38267W        W10681  25.087  27.665  10.115
38268W        W10682  24.134   7.770   3.696
38269W        W10683  12.837  26.466   0.346
38270W        W10684   3.885  19.268   2.407
38271W        W10685  38.439  25.139  11.062
38272W        W10686   8.873  12.854   1.734
38273W        W10687  31.559  20.150   0.464
38274W        W10688   0.370  32.443   4.220
38275W        W10689   5.318  10.879   4.245
38276W        W10690  27.646  15.750   0.954
38277W        W10691   0.407  24.182  10.975
38278W        W10692  36.993  44.866  10.497
38279W        W10693  41.824  44.351  13.531
38280W        W10694  29.629  19.109   1.705
38281W        W10695  20.592  12.140   3.310
38282W        W10696  44.808  37.487  14.467
38283W        W10697  15.749  10.694  12.863
38284W        W10698  40.322  25.467   0.325
38285W        W10699  38.366  11.797  13.353
38286W        W10700  40.042  11.826   1.863
38287W        W10701  40.384   9.255  10.414
38288W        W10702  16.250  32.009   1.742
38289W        W10703  19.764  16.685   1.720
38290W        W10704   6.282   1.927  13.029
38291W        W10705  42.959   0.974   4.616
38292W        W10706  16.122   1.271  14.861
38293W        W10707  30.958  19.053  13.983
38294W        W10708   1.382  18.757  13.972
38295W        W10709  21.157  27.523  14.274
38296W        W10710   4.297   8.171   2.373
38297W        W10711  37.057  43.919  11.886
38298W        W10712  42.473  10.298  13.309
38299W        W10713  34.446  43.481   3.150
38300W        W10714  32.968  20.120  14.394
38301W        W10715  15.704  39.876   2.285
38302W        W10716   9.272   2.430   2.844
38303W        W10717  10.835  41.885   1.752
38304W        W10718  12.324  40.936  11.967
38305W        W10719  36.083  44.933   1.409
38306W        W10720  23.101  11.269  10.414
38307W        W10721  28.030   5.432  14.395
38308W        W10722  23.158  24.484   0.304
38309W        W10723  11.805  25.550  11.518
38310W        W10724  35.358  28.094  12.933
38311W        W10725  27.562  31.082   0.379
38312W        W10726  43.963  42.380  13.034
38313W        W10727   2.856   3.341   3.733
38314W        W10728  10.636  44.370  11.945
38315W        W10729   1.923  17.691   0.476
38316W        W10730   6.856  10.871   4.166
38317W        W10731  26.621  27.138  13.001
38318W        W10732  20.219   8.708  14.780
38319W        W10733   3.711  40.388  10.924
38320W        W10734  16.135  25.100   1.760
38321W        W10735  41.377  40.315  13.504
38322W        W10736  30.146   9.884  10.913
38323W        W10737  25.048  26.546   4.689
38324W        W10738  10.665  43.403   3.169
38325W        W10739  19.638  28.929   2.271
38326W        W10740  28.133  24.017   2.317
38327W        W10741  14.296   4.439   0.734
38328W        W10742  10.236  24.211  10.923
38329W        W10743  21.229   4.427  14.859
38330W        W10744  10.857  28.600  13.378
38331W        W10745  18.771   9.821   1.709
38332W        W10746  35.079   5.894  14.470
38333W        W10747  11.328  20.267   4.164
38334W        W10748   6.859  37.850  13.455
38335W        W10749  14.131  20.063   4.825
38336W        W10750  35.082  15.240  11.404
38337W        W10751  41.492  15.776   0.928
38338W        W10752  18.274   2.820  12.528
38339W        W10753  36.982  21.230   0.864
38340W        W10754  19.239  12.709   2.850
38341W        W10755   8.665  23.018   3.777
38342W        W10756  36.497   2.296   2.264
38343W        W10757  32.521   8.386   3.184
38344W        W10758  33.089  44.761  10.405
38345W        W10759   0.854  26.109   3.724
38346W        W10760  44.863  38.340   4.603
38347W        W10761  28.555  21.583   4.705
38348W        W10762  16.150  33.387   4.667
38349W        W10763  43.361  12.799  14.420
38350W        W10764  20.175  25.499   1.233
38351W        W10765  27.665   1.768   0.886
38352W        W10766  39.432   1.821  14.499
38353W        W10767  29.172  39.950  13.467
38354W        W10768  19.184  44.947   4.352
38355W        W10769   2.234  29.151  10.041
38356W        W10770  31.142  18.287  12.976
38357W        W10771  29.480  34.061   4.722
38358W        W10772   4.741  40.047  11.855
38359W        W10773  36.480  42.819   0.932
38360W        W10774   5.856   6.283   0.728
38361W        W10775  18.770   0.249   5.237
38362W        W10776   3.927  33.098  13.865
38363W        W10777  14.661  33.047  14.390
38364W        W10778  14.697  29.426   1.788
38365W        W10779  27.185  40.945   0.476
38366W        W10780  37.566  40.816   4.168
38367W        W10781   1.357   0.254   0.439
38368W        W10782  30.512  14.790   4.291
38369W        W10783   3.290   5.296  11.916
38370W        W10784  42.892  30.907  14.285
38371W        W10785  24.076   7.370   2.416
38372W        W10786  21.753  13.247  10.560
38373W        W10787  31.554   6.359  14.352
38374W        W10788  43.970   3.413  11.597
38375W        W10789  42.335  19.231  11.931
38376W        W10790   2.759  19.652   4.701
38377W        W10791  29.007  18.251  10.446
38378W        W10792  31.536  40.942  11.019
38379W        W10793  30.437   3.298  10.604
38380W        W10794  17.625   2.928  14.012
38381W        W10795   4.825   5.314   0.329
38382W        W10796   2.778   7.687  13.887
38383W        W10797  15.230  21.569  11.013
38384W        W10798  41.416  21.238  10.569
38385W        W10799  41.945  33.006   2.861
38386W        W10800  37.852  44.311   3.284
38387W        W10801  42.879  22.718   4.658
38388W        W10802  44.804  23.032   1.908
38389W        W10803   9.673  26.519   3.789
38390W        W10804   6.287  33.524  10.489
38391W        W10805  25.588  17.716  14.304
38392W        W10806  30.418  31.538   0.277
38393W        W10807  13.643  12.239   0.843
38394W        W10808  26.123  13.693   2.667
38395W        W10809  41.473  23.497   1.754
38396W        W10810  29.599  14.821   4.644
38397W        W10811   8.666  10.714   0.442
38398W        W10812  29.130  22.121  14.024
38399W        W10813   0.790  39.516  13.805
38400W        W10814  34.479   1.911  14.363
38401W        W10815  17.588  37.847   3.735
38402W        W10816  29.548  18.548  12.402
38403W        W10817  20.033   1.803  13.800
38404W        W10818   5.879  25.058   2.295
38405W        W10819  32.028  36.986   0.409
38406W        W10820  19.745  28.087  12.052
38407W        W10821  20.250  16.770  11.547
38408W        W10822  18.674  20.118  11.461
38409W        W10823  43.874  21.088  12.085
38410W        W10824  28.988  39.473   1.882
38411W        W10825  18.206  29.981  11.916
38412W        W10826  43.769  16.758   4.756
38413W        W10827  25.210  20.032  14.985
38414W        W10828  41.366  26.512  12.394
38415W        W10829  28.096  15.118   4.124
38416W        W10830  22.571  11.169  13.876
38417W        W10831   1.764  35.373   4.326
38418W        W10832   4.447  29.967  11.121
38419W        W10833  33.975  37.349   4.807
38420W        W10834  15.180  13.213  12.939
38421W        W10835  44.297  33.576  12.432
38422W        W10836  20.272  29.470   4.296
38423W        W10837  41.423  11.318   4.225
38424W        W10838  13.208  32.589  10.444
38425W        W10839  19.635  32.580   4.608
38426W        W10840  14.287  22.571   1.274
38427W        W10841  12.265  21.162   3.795
38428W        W10842  27.445  38.942  13.928
38429W        W10843  31.940  42.966   0.808
38430W        W10844   8.345  43.293  11.056
38431W        W10845  42.980  13.731  12.459
38432W        W10846  22.092   9.350  11.988
38433W        W10847   8.796   6.834   3.673
38434W        W10848  42.326   4.862   1.909
38435W        W10849  17.078  17.211   0.463
38436W        W10850  43.978  40.473  13.901
38437W        W10851  14.784  29.960   3.152
38438W        W10852  30.608  17.694  13.062
38439W        W10853   7.771   2.251  13.389
38440W        W10854  40.360   9.714   1.274
38441W        W10855   5.723  21.236  13.405
38442W        W10856   5.883  37.455  14.842
38443W        W10857  12.829  37.916  12.441
38444W        W10858  18.237   8.841   0.392
38445W        W10859  11.305  35.419  11.884
38446W        W10860  12.804  36.064   4.159
38447W        W10861  42.513   9.694   4.757
38448W        W10862  14.767  16.231   0.900
38449W        W10863  41.854  44.891   2.191
38450W        W10864  21.069   4.395   1.879
38451W        W10865   6.357  43.815  13.047
38452W        W10866  39.357  18.626  13.439
38453W        W10867  35.391  21.525   0.267
38454W        W10868  10.675  17.603   4.780
38455W        W10869  30.521   4.897  14.465
38456W        W10870  36.020  32.046   2.679
38457W        W10871  39.422  21.078   1.933
38458W        W10872  41.948  43.825  11.955
38459W        W10873   4.330  44.344   4.164
38460W        W10874   9.327  27.048  11.583
38461W        W10875  31.627  14.143   1.820
38462W        W10876  28.154   0.433   0.426
38463W        W10877  39.449  44.795   3.641
38464W        W10878   7.293   4.921  12.982
38465W        W10879  12.613  15.672   1.301
38466W        W10880  32.936  33.443  14.953
38467W        W10881  39.905  43.015  12.869
38468W        W10882  41.362  35.380  14.317
38469W        W10883  30.556  27.461  14.489
38470W        W10884  36.859   2.461  13.944
38471W        W10885   2.305  41.990  11.468
38472W        W10886  44.337  42.031   5.083
38473W        W10887  26.123  42.352   3.661
38474W        W10888  26.112  30.576  12.523
38475W        W10889  22.078   7.351   1.727
38476W        W10890  29.921  43.336   0.368
38477W        W10891  14.687   7.898   4.267
38478W        W10892  37.932   2.469   4.214
38479W        W10893   8.270  17.256   4.152
38480W        W10894  16.294  15.233  12.085
38481W        W10895  16.155  12.238  12.381
38482W        W10896   1.376   1.837  10.515
38483W        W10897   9.728   8.726  14.384
38484W        W10898  43.958  32.037   0.349
38485W        W10899  10.672   5.825  12.932
38486W        W10900  18.761  20.179   3.765
38487W        W10901  29.919   1.876  13.407
38488W        W10902  31.118  28.043   0.866
38489W        W10903  40.029  14.619   1.801
38490W        W10904  24.585  33.085   1.294
38491W        W10905  37.860  27.134   0.902
38492W        W10906  24.031  22.546  14.761
38493W        W10907  27.531  41.827  14.347
38494W        W10908  31.424  36.920   1.338
38495W        W10909  32.563  27.446   4.724
38496W        W10910   7.358  19.081  13.048
38497W        W10911  18.059  28.537   1.305
38498W        W10912   5.910   9.831   3.821
38499W        W10913  43.777   7.750   4.124
38500W        W10914  33.486  25.098  14.422
38501W        W10915  32.563   6.791  14.333
38502W        W10916  19.185  33.497  12.095
38503W        W10917  33.110  11.285  11.465
38504W        W10918   3.241  15.155   5.639
38505W        W10919  36.900  40.547   2.689
38506W        W10920  32.072   2.922   3.660
38507W        W10921  33.538  25.682  14.906
38508W        W10922  17.148  15.708   2.812
38509W        W10923  23.001  16.210   3.723
38510W        W10924  40.496  14.155  13.799
38511W        W10925  30.416  30.452   0.290
38512W        W10926   1.452  36.874   1.236
38513W        W10927  17.072  37.554  14.401
38514W        W10928  16.216  26.635   3.824
38515W        W10929  14.098  44.379   1.224
38516W        W10930  12.174   7.341  14.798
38517W        W10931  15.199  33.047  12.857
38518W        W10932   8.220  22.587  14.515
38519W        W10933  42.952  12.183   1.361
38520W        W10934  30.147  30.631   0.459
38521W        W10935  27.108  24.705  14.031
38522W        W10936  25.208  41.398  12.067
38523W        W10937  24.030  15.709  14.386
38524W        W10938  33.586  42.960   1.315
38525W        W10939   9.223   6.253   1.389
38526W        W10940  13.736  25.554  13.378
38527W        W10941  38.001  34.390  10.456
38528W        W10942  44.372  10.820  12.542
38529W        W10943  38.395  29.162  14.403
38530W        W10944  12.623  31.546  14.966
38531W        W10945  30.483  25.481   3.781
38532W        W10946  41.960  26.039   3.188
38533W        W10947  41.852   2.740  14.330
38534W        W10948  36.886   7.808   1.695
38535W        W10949   4.738  26.527  14.869
38536W        W10950  11.157  34.427   0.837
38537W        W10951  43.385  39.357   1.329
38538W        W10952   9.308  43.792  14.362
38539W        W10953  29.592  34.052   0.332
38540W        W10954   3.268  44.316  11.930
38541W        W10955  10.711  19.144   1.701
38542W        W10956   4.223  25.161   2.858
38543W        W10957  36.522  19.170  13.829
38544W        W10958   7.283  30.431   2.356
38545W        W10959  23.570  42.296  13.876
38546W        W10960   8.402  26.091   0.416
38547W        W10961   1.903  28.449   0.268
38548W        W10962  37.436  34.583  13.797
38549W        W10963  43.015  33.897  11.973
38550W        W10964  30.122   3.889   2.709
38551W        W10965  21.634  25.622   0.839
38552W        W10966  41.432  25.469   2.305
38553W        W10967  38.515   1.448  12.951
38554W        W10968  20.182  25.162  10.420
38555W        W10969  20.080  15.701  11.501
38556W        W10970  18.281  33.098  12.966
38557W        W10971  39.980  24.052   3.798
38558W        W10972  30.641  14.215  13.457
38559W        W10973  31.920  44.479  13.388
38560W        W10974  11.204   1.336  11.564
38561W        W10975  26.197  31.628  14.413
38562W        W10976  23.202  31.549   3.751
38563W        W10977  26.639  13.139   4.206
38564W        W10978  34.864  39.469  14.806
38565W        W10979  34.372  25.707   0.962
38566W        W10980  36.088  24.654   1.883
38567W        W10981  10.764  40.991  11.898
38568W        W10982   4.752  28.477  14.026
38569W        W10983  40.961  14.664  10.414
38570W        W10984  32.632  29.934  12.842
38571W        W10985  33.982  41.032   1.322
38572W        W10986   2.282  37.498  14.281
38573W        W10987  33.470   6.311   2.684
38574W        W10988  17.284   1.791   9.999
38575W        W10989  18.619  22.009  14.345
38576W        W10990  27.993  36.534   0.318
38577W        W10991   2.252  39.039  13.883
38578W        W10992  26.585  43.347   2.252
38579W        W10993  30.149  10.645   3.250
38580W        W10994  12.180   3.808   3.736
38581W        W10995  19.543  19.246  12.002
38582W        W10996  12.707  20.628   2.745
38583W        W10997  15.108  18.572   3.706
38584W        W10998  32.445  16.801  12.473
38585W        W10999  21.242  43.813   3.327
38586W        W11000  20.175  28.968  13.452
38587W        W11001   1.393  26.547  13.979
38588W        W11002  29.578  21.023   5.249
38589W        W11003  40.861  24.603  14.417
38590W        W11004  41.900  10.762  13.373
38591W        W11005  26.651  18.564  14.969
38592W        W11006  38.012  28.613   2.331
38593W        W11007  37.833  18.591   1.930
38594W        W11008   3.955  27.994   5.789
38595W        W11009   1.788  13.223   0.756
38596W        W11010  14.767   3.738   4.702
38597W        W11011  43.501  15.803  14.279
38598W        W11012  17.668  17.620  12.976
38599W        W11013  39.964  17.123  14.285
38600W        W11014   8.690  27.194  11.582
38601W        W11015  13.716  29.125   2.183
38602W        W11016  29.463   4.403  12.527
38603W        W11017   6.729   8.164  14.288
38604W        W11018  31.513   0.949   2.772
38605W        W11019  35.976  24.097   3.375
38606W        W11020  38.416  38.052  10.456
38607W        W11021  18.551   6.353  12.472
38608W        W11022  14.754  20.150  10.018
38609W        W11023  31.612  34.903  10.432
38610W        W11024   3.899  41.442  14.278
38611W        W11025  16.580  37.455  11.508
38612W        W11026  31.984  16.795  12.484
38613W        W11027  27.565  17.712   1.740
38614W        W11028  43.944   5.271   0.950
38615W        W11029  28.166  27.021  14.840
38616W        W11030  21.210  27.035  11.529
38617W        W11031  11.804  17.181  14.882
38618W        W11032  31.017  17.785   0.389
38619W        W11033   7.253   6.759  10.505
38620W        W11034  16.636  20.241   0.381
38621W        W11035  44.332  23.692   1.764
38622W        W11036  10.671   2.445  13.018
38623W        W11037  16.081  43.994   1.347
38624W        W11038  40.935  39.937  11.931
38625W        W11039  37.921  15.265   4.734
38626W        W11040  23.733  37.510  11.857
38627W        W11041  28.658  26.970  10.515
38628W        W11042   6.754  38.539   2.387
38629W        W11043  13.796   1.834   3.309
38630W        W11044  42.394  44.946   2.271
38631W        W11045  11.330   5.301  12.079
38632W        W11046  43.318  29.610  10.888
38633W        W11047  17.242   3.343   2.409
38634W        W11048   3.858  15.624   5.187
38635W        W11049   1.805  37.453  14.343
38636W        W11050   8.306  30.001   1.832
38637W        W11051  27.472  20.148   2.314
38638W        W11052  18.199  41.982  11.972
38639W        W11053  15.131  31.419  14.310
38640W        W11054   3.880  22.621   3.239
38641W        W11055  42.952   1.241  12.397
38642W        W11056  31.934  36.580  13.488
38643W        W11057  11.855   2.867   0.917
38644W        W11058  33.447  36.009  12.413
38645W        W11059  29.041  36.523   1.827
38646W        W11060  35.891  38.464  13.993
38647W        W11061  10.642  33.469  14.366
38648W        W11062  38.036   1.327  12.471
38649W        W11063   9.351  24.205  12.914
38650W        W11064  44.441  21.623   2.383
38651W        W11065   5.193  21.740  13.416
38652W        W11066  15.708  36.946   1.902
38653W        W11067  35.030  18.229  12.426
38654W        W11068   5.310  30.991   4.299
38655W        W11069  16.236  27.575  12.477
38656W        W11070  36.027  34.466  12.514
38657W        W11071  20.696  37.072   1.309
38658W        W11072  38.493   8.168  10.956
38659W        W11073  41.902  39.013   3.323
38660W        W11074  35.980  14.763   4.133
38661W        W11075  27.010   6.898  10.605
38662W        W11076  35.417  22.599   3.732
38663W        W11077   4.449  33.398   3.861
38664W        W11078  35.537  12.261   1.331
38665W        W11079  26.958   1.389  12.849
38666W        W11080   5.411  13.348  13.936
38667W        W11081  38.372  28.544   2.664
38668W        W11082  35.087  29.569   3.718
38669W        W11083  33.425   6.909   1.835
38670W        W11084   0.814  15.246   1.337
38671W        W11085  19.539  43.898   2.732
38672W        W11086  39.401  11.188   2.772
38673W        W11087  40.959  22.636  11.124
38674W        W11088   9.671  22.180   3.236
38675W        W11089   7.413   5.309   2.785
38676W        W11090  18.731  34.033   3.383
38677W        W11091  31.572   7.408  13.499
38678W        W11092   6.758   4.265   4.827
38679W        W11093  28.631   5.749   3.785
38680W        W11094  34.428  38.557   3.305
38681W        W11095  28.585  31.637   2.354
38682W        W11096  13.307  23.121  13.983
38683W        W11097  39.815  29.920   0.908
38684W        W11098  14.747  39.832  13.805
38685W        W11099  32.919  19.700  14.416
38686W        W11100  24.511   7.376   2.666
38687W        W11101  10.686   1.334   3.866
38688W        W11102   0.810  20.169   3.774
38689W        W11103  22.141   4.247  11.957
38690W        W11104  25.160  24.694  11.873
38691W        W11105  10.254  19.117  10.956
38692W        W11106  17.762  15.692   3.221
38693W        W11107  19.706  25.505   5.125
38694W        W11108  44.807  41.973  13.018
38695W        W11109   8.189  18.051   1.227
38696W        W11110  32.405  20.163   4.228
38697W        W11111  26.130  10.782  12.365
38698W        W11112   7.253  43.414  11.072
38699W        W11113   8.201   2.780   3.302
38700W        W11114  38.414  43.998  11.546
38701W        W11115  44.469   4.209  10.550
38702W        W11116  39.935  22.112   0.468
38703W        W11117  22.180  39.512   1.227
38704W        W11118   9.828  18.591   4.613
38705W        W11119   6.423  11.363  13.026
38706W        W11120  42.002  20.581  13.020
38707W        W11121  13.166  33.576   2.342
38708W        W11122  24.708   1.430  12.485
38709W        W11123  43.392   8.874  12.942
38710W        W11124   1.460   9.340   0.789
38711W        W11125  44.916  37.365  11.408
38712W        W11126  15.789  38.558   1.219
38713W        W11127  28.028   7.331   0.772
38714W        W11128   9.316   9.218   0.831
38715W        W11129  16.086  39.513   0.410
38716W        W11130  40.376   3.944  14.935
38717W        W11131  31.017  21.716   4.633
38718W        W11132  38.451   1.759   1.895
38719W        W11133  15.123   9.236  10.507
38720W        W11134  21.636  12.362   0.757
38721W        W11135  21.166  30.078   3.170
38722W        W11136  40.468  41.497  12.408
38723W        W11137   5.273  35.017  11.554
38724W        W11138   5.800   5.333   3.229
38725W        W11139  40.412  16.715   0.911
38726W        W11140   9.882  30.059   1.737
38727W        W11141  26.124  10.251   4.731
38728W        W11142  26.990   0.972  10.589
38729W        W11143  13.634  35.876   1.785
38730W        W11144   3.421  11.186   9.923
38731W        W11145  14.128  19.639   0.398
38732W        W11146  37.462  38.074  10.935
38733W        W11147  40.050  13.824  13.940
38734W        W11148   4.916  12.243   5.628
38735W        W11149   7.851  42.894   9.946
38736W        W11150  40.338  41.956   0.966
38737W        W11151  28.594  16.128   2.213
38738W        W11152  30.161  12.330  12.925
38739W        W11153  19.175   7.225  14.899
38740W        W11154   5.735  27.489  12.849
38741W        W11155  25.698   4.728   3.310
38742W        W11156  26.562  24.074   3.191
38743W        W11157   8.177  12.653   2.736
38744W        W11158   9.310  23.538   2.223
38745W        W11159  34.027   3.821   4.336
38746W        W11160  28.024  15.635  14.890
38747W        W11161   4.444  15.673  13.396
38748W        W11162   3.854   3.883  11.573
38749W        W11163   7.702  22.059   0.325
38750W        W11164   5.697   5.788   3.638
38751W        W11165  31.441  11.311  12.578
38752W        W11166  42.420  12.169  14.867
38753W        W11167  34.429  12.704   2.736
38754W        W11168  36.489  25.098  12.978
38755W        W11169  42.920  30.415   1.417
38756W        W11170  40.386  17.773  11.387
38757W        W11171  28.499  20.145   1.894
38758W        W11172  30.951  11.840   3.725
38759W        W11173  23.168   6.763  13.903
38760W        W11174  32.002   4.366   0.841
38761W        W11175   4.910   6.364  13.338
38762W        W11176  35.026  18.702   3.345
38763W        W11177   9.687  23.645  14.869
38764W        W11178  11.362  39.419  11.600
38765W        W11179   7.865  15.773  13.420
38766W        W11180  39.927  40.502   4.227
38767W        W11181  34.591  21.158  12.472
38768W        W11182  24.992  22.061  14.984
38769W        W11183  36.491  23.679  14.315
38770W        W11184  25.696  14.263  12.033
38771W        W11185   0.304   3.804   0.935
38772W        W11186  18.085  23.191   2.223
38773W        W11187  25.586  31.443  13.823
38774W        W11188   3.332  10.666  14.318
38775W        W11189   1.324  43.995  12.424
38776W        W11190   1.831  14.330  14.310
38777W        W11191  42.437   8.313  11.964
38778W        W11192  20.220  12.140   1.721
38779W        W11193  27.188   0.948   1.823
38780W        W11194   7.684  18.688  13.336
38781W        W11195   9.716  41.990  11.564
38782W        W11196   5.860  16.262   1.397
38783W        W11197  26.650   4.312  11.979
38784W        W11198  16.296  43.920  11.949
38785W        W11199  13.260  22.095   1.805
38786W        W11200  14.707  35.524   3.358
38787W        W11201   7.878   8.278   1.813
38788W        W11202  23.690  43.979  10.074
38789W        W11203  36.528  25.998  13.358
38790W        W11204  41.305  16.567   4.621
38791W        W11205   1.239  31.502   4.169
38792W        W11206  40.852  41.890   0.826
38793W        W11207  31.450  28.151   3.736
38794W        W11208  27.479  28.164   1.855
38795W        W11209  19.706  10.333   4.156
38796W        W11210  31.405  33.086   1.751
38797W        W11211  44.397   1.329   9.958
38798W        W11212   3.911  38.018  14.491
38799W        W11213  33.974  42.491   3.194
38800W        W11214  15.705  16.586   2.792
38801W        W11215  44.981  29.427  12.532
38802W        W11216  23.010  23.119   3.348
38803W        W11217   1.829  19.159   4.723
38804W        W11218  33.503   6.420   2.365
38805W        W11219   3.224   2.424  13.987
38806W        W11220   9.739   9.292   2.237
38807W        W11221  26.023  36.076  11.861
38808W        W11222  43.970  42.368   4.319
38809W        W11223  21.103  27.010  11.007
38810W        W11224   9.384  42.907  11.087
38811W        W11225  28.985  20.737   1.371
38812W        W11226   3.944  43.923  11.124
38813W        W11227  43.354   2.420   2.774
38814W        W11228   5.417  17.187   2.871
38815W        W11229  25.975  20.753  12.048
38816W        W11230  33.085  34.378  12.356
38817W        W11231  20.229  25.639   3.289
38818W        W11232   5.216  37.421   3.670
38819W        W11233   1.254  11.291   4.264
38820W        W11234  40.028  39.474  12.067
38821W        W11235  21.076  12.295  10.939
38822W        W11236  23.626  16.290   2.794
38823W        W11237  40.465   8.719   1.833
38824W        W11238   2.928  28.015  12.501
38825W        W11239  26.644   8.257   5.173
38826W        W11240  39.056  27.571   4.133
38827W        W11241  11.743   7.354  12.860
38828W        W11242   9.787  31.574   2.211
38829W        W11243  22.649  10.170  10.608
38830W        W11244  42.444  43.441   3.707
38831W        W11245  15.613  43.012  11.603
38832W        W11246  11.808  34.592  13.411
38833W        W11247  37.043   6.421  13.810
38834W        W11248  19.738  44.371  12.844
38835W        W11249  17.706  32.971   0.868
38836W        W11250  22.601  19.118  13.815
38837W        W11251   1.269  43.776  11.887
38838W        W11252  24.514  30.471  13.310
38839W        W11253  11.224  14.325  14.990
38840W        W11254  23.557  31.992   0.858
38841W        W11255  29.496  39.333   4.770
38842W        W11256  12.656  13.788   0.738
38843W        W11257  18.603  42.358   1.375
38844W        W11258  36.016  24.641  13.791
38845W        W11259  29.461   2.292   4.254
38846W        W11260  23.005  18.685   4.828
38847W        W11261  38.932  37.997  13.525
38848W        W11262  36.456   5.359   4.126
38849W        W11263   7.190  38.052  13.315
38850W        W11264  43.906  40.492   0.768
38851W        W11265  13.798  13.146   1.436
38852W        W11266  37.515   1.382  14.768
38853W        W11267  35.462   6.717   4.638
38854W        W11268   5.416  39.879   3.861
38855W        W11269  23.604  13.185  13.853
38856W        W11270  42.924  20.603   3.369
38857W        W11271  34.965  11.305  12.453
38858W        W11272   5.401  37.343   0.876
38859W        W11273  14.679  44.911   2.329
38860W        W11274  16.283  24.170   1.776
38861W        W11275   0.820  22.199   0.441
38862W        W11276  11.740   3.844   3.724
38863W        W11277  41.976   7.789  13.398
38864W        W11278   7.700  29.592   4.165
38865W        W11279  26.621  36.355   0.783
38866W        W11280   6.182  23.673   3.819
38867W        W11281  20.082  28.978  14.280
38868W        W11282  22.038  15.165  13.449
38869W        W11283  20.732  15.583  11.012
38870W        W11284   0.465  28.681  14.815
38871W        W11285   7.723  14.768   1.220
38872W        W11286  25.009  27.122  12.535
38873W        W11287   6.882  26.597   4.193
38874W        W11288   5.437   0.372  13.349
38875W        W11289  29.076  24.224  14.511
38876W        W11290   4.743  13.837  12.440
38877W        W11291   5.325  26.048   3.695
38878W        W11292   4.719  25.645   4.199
38879W        W11293  43.346  31.644  10.414
38880W        W11294  41.347  18.548  11.511
38881W        W11295   5.222  29.056  12.501
38882W        W11296  20.216  10.637  12.959
38883W        W11297  24.600  40.798   3.753
38884W        W11298   8.794  23.055   3.320
38885W        W11299  25.538  17.181  13.829
38886W        W11300  39.868  16.174  13.833
38887W        W11301  31.106  11.196  12.523
38888W        W11302   8.736  14.659  11.865
38889W        W11303  17.290  23.567   1.860
38890W        W11304  21.733  27.680  13.462
38891W        W11305  40.989  14.245   1.304
38892W        W11306   1.973  25.535   3.208
38893W        W11307   4.359  29.502   2.296
38894W        W11308  13.708  28.062   4.690
38895W        W11309  43.002  44.265   2.766
38896W        W11310  12.263   8.717  13.402
38897W        W11311  24.107   9.662  12.824
38898W        W11312  15.203  43.358  12.841
38899W        W11313   7.292  11.221   4.123
38900W        W11314  29.621  30.107   1.444
38901W        W11315  28.000  27.019  13.441
38902W        W11316  20.663  43.888  14.976
38903W        W11317  12.680  25.656  10.547
38904W        W11318  33.903  13.199  11.011
38905W        W11319  22.720  28.075   2.368
38906W        W11320   1.402  30.632   1.808
38907W        W11321  24.538  12.223  11.460
38908W        W11322  20.273  19.233  14.786
38909W        W11323  27.460  37.868  14.360
38910W        W11324  41.529  35.558   0.871
38911W        W11325  10.784  17.159   4.664
38912W        W11326  10.717  44.812  11.588
38913W        W11327  27.012  34.574   4.788
38914W        W11328  43.816  12.805  14.790
38915W        W11329  15.120  40.488   2.401
38916W        W11330  22.225  37.499  14.873
38917W        W11331  20.680   0.772   1.249
38918W        W11332  27.950  28.608   1.839
38919W        W11333  39.551   5.869   3.181
38920W        W11334  18.605  37.550   0.828
38921W        W11335  22.118  20.707  12.498
38922W        W11336  14.284  34.568  12.399
38923W        W11337  39.361  34.880   3.661
38924W        W11338  21.564  34.562  11.994
38925W        W11339   1.967  24.567  11.494
38926W        W11340  39.353  31.459   2.216
38927W        W11341  22.583  33.979  12.840
38928W        W11342  31.081  21.084  12.959
38929W        W11343   7.308   9.200  12.837
38930W        W11344  29.959  24.072  11.033
38931W        W11345  43.904  21.133   2.313
38932W        W11346  28.935   5.256   3.253
38933W        W11347  32.119  40.983   2.350
38934W        W11348   4.903  16.232   0.254
38935W        W11349  22.996  17.267  10.506
38936W        W11350  20.032  38.891  11.397
38937W        W11351   4.243   8.334   3.849
38938W        W11352  28.178  25.472   2.189
38939W        W11353  37.460  39.030  10.931
38940W        W11354   2.311  14.738   0.855
38941W        W11355  18.080  44.905  13.022
38942W        W11356  18.060  11.683  12.002
38943W        W11357  11.666   9.272  13.941
38944W        W11358   9.373  27.196   1.277
38945W        W11359  19.573  23.197   0.726
38946W        W11360  37.011  34.483   4.723
38947W        W11361   5.737  41.373  14.448
38948W        W11362  32.051   4.792   4.672
38949W        W11363  15.132   8.376   4.668
38950W        W11364  10.350  30.080  11.100
38951W        W11365  13.142  19.779   3.194
38952W        W11366   4.230   2.470  14.322
38953W        W11367  24.579  27.561  11.539
38954W        W11368  26.099  23.505  14.973
38955W        W11369   0.390  15.684  12.436
38956W        W11370  31.043  10.793  13.359
38957W        W11371   7.357  43.316  12.870
38958W        W11372  23.673  38.380  14.290
38959W        W11373  40.477   5.732  11.424
38960W        W11374   6.339  42.953   2.406
38961W        W11375  38.951  14.781  10.465
38962W        W11376  35.954  41.978  12.871
38963W        W11377   9.663  18.255   1.445
38964W        W11378  44.300  27.137   4.617
38965W        W11379  23.997  16.137  13.309
38966W        W11380  16.656  10.871  12.494
38967W        W11381  10.768  42.286  11.609
38968W        W11382  26.681   4.407  11.513
38969W        W11383  15.639  39.338   3.645
38970W        W11384   8.306  27.615  13.934
38971W        W11385  42.953  32.116   2.695
38972W        W11386  28.641   7.276  13.387
38973W        W11387  43.791  21.525  14.382
38974W        W11388  29.993  24.538   2.831
38975W        W11389  14.706  14.781   4.711
38976W        W11390   0.926  42.347  14.400
38977W        W11391  27.560  36.968  14.353
38978W        W11392  15.644   2.384   4.137
38979W        W11393   6.701  33.031  12.929
38980W        W11394  33.563  29.535  14.472
38981W        W11395  44.315  16.286  12.940
38982W        W11396   3.218   2.796   1.425
38983W        W11397  25.968  28.618  12.828
38984W        W11398  31.409   9.247   2.792
38985W        W11399  23.593  36.011   0.374
38986W        W11400   1.370  11.138  11.393
38987W        W11401  23.092  39.490   3.638
38988W        W11402   5.430   7.236   1.884
38989W        W11403  38.489   3.270  14.927
38990W        W11404  34.899  14.272  10.993
38991W        W11405  27.523  41.795   3.362
38992W        W11406   1.787  37.946  14.406
38993W        W11407  11.650  19.185   4.672
38994W        W11408   5.373  11.670  12.950
38995W        W11409  34.084  11.290  13.374
38996W        W11410  28.459  40.356  11.861
38997W        W11411  37.336  18.145  14.962
38998W        W11412  42.506  43.478  11.524
38999W        W11413  13.176   1.404  11.429
39000W        W11414  33.611   2.868   3.258
39001W        W11415   7.337  17.174  10.579
39002W        W11416  44.833  34.584   3.234
39003W        W11417  44.310  41.518  11.965
39004W        W11418  39.981  30.079   1.882
39005W        W11419  30.983  25.005  11.401
39006W        W11420  39.433  12.781  13.794
39007W        W11421   6.826  27.672   0.953
39008W        W11422  36.866  12.766   1.868
39009W        W11423   4.728  39.554   4.671
39010W        W11424  21.118  28.011   3.771
39011W        W11425  14.242  16.783   5.190
39012W        W11426  23.548  20.761   2.182
39013W        W11427  12.726  21.165   3.261
39014W        W11428  38.536  21.137   3.822
39015W        W11429   2.806  13.140  14.864
39016W        W11430  41.005  36.502  10.914
39017W        W11431   6.291  29.475  14.944
39018W        W11432  29.576  13.243  13.968
39019W        W11433  41.430   6.207  11.484
39020W        W11434  19.200  19.080  13.886
39021W        W11435  44.324  17.278  13.425
39022W        W11436  19.272   7.713  13.011
39023W        W11437  10.165  14.661  13.935
39024W        W11438  15.732  41.951   2.901
39025W        W11439  40.833  12.155   1.356
39026W        W11440  16.755  22.060  12.029
39027W        W11441  31.019   5.711  12.017
39028W        W11442  20.757  37.391   3.341
39029W        W11443  19.249   8.752   4.828
39030W        W11444  17.631  28.980  11.909
39031W        W11445  25.537  22.196  14.511
39032W        W11446  29.601  24.145   1.738
39033W        W11447  17.563  23.624   1.921
39034W        W11448  44.448  37.546  14.395
39035W        W11449   9.688   2.752   2.188
39036W        W11450   5.240  30.479   2.664
39037W        W11451  16.262  33.022  14.802
39038W        W11452  11.782  42.485  12.059
39039W        W11453  10.319  15.292   4.146
39040W        W11454   9.268  21.143   1.741
39041W        W11455  36.937   9.877   3.161
39042W        W11456  29.527  39.945   2.328
39043W        W11457  10.859  16.283   2.384
39044W        W11458  40.027  41.474  11.007
39045W        W11459  39.455  23.597   4.659
39046W        W11460  17.796  10.341   0.941
39047W        W11461  39.014  21.616  11.423
39048W        W11462   8.840  41.796   2.780
39049W        W11463   0.922  20.650   3.156
39050W        W11464  40.474  10.217   4.711
39051W        W11465   8.715  35.533   3.235
39052W        W11466  22.709  34.076   4.719
39053W        W11467  37.873  18.062  14.463
39054W        W11468  22.718  30.517  13.405
39055W        W11469  30.485   0.473  12.080
39056W        W11470  37.833  27.100  13.491
39057W        W11471  31.089  33.901  13.548
39058W        W11472  38.362  13.783   0.933
39059W        W11473   9.795  20.670   4.161
39060W        W11474  31.471  42.934   0.322
39061W        W11475  32.433  25.578   3.828
39062W        W11476   6.787  29.482  11.567
39063W        W11477   5.808  28.562   0.264
39064W        W11478  16.317  24.018  14.867
39065W        W11479  41.404  12.822   0.811
39066W        W11480   6.685  40.987   4.118
39067W        W11481  25.612  23.658  14.294
39068W        W11482  41.429  36.372  11.400
39069W        W11483  24.065  29.100  14.015
39070W        W11484  19.143  43.370  13.505
39071W        W11485  40.878  31.534  12.096
39072W        W11486  21.515  14.614   4.202
39073W        W11487  16.277   7.276   5.682
39074W        W11488  33.525  34.607  11.518
39075W        W11489  39.012  14.156  12.882
39076W        W11490  44.341  29.000   5.257
39077W        W11491  26.008  38.898  11.447
39078W        W11492  16.623  32.096   0.406
39079W        W11493  41.010  39.557  10.588
39080W        W11494  29.428  18.684  10.443
39081W        W11495  16.203  44.288  11.997
39082W        W11496  26.032  10.144  12.949
39083W        W11497  44.937  17.240  11.884
39084W        W11498  21.686  40.988   1.875
39085W        W11499  11.694  11.346  10.471
39086W        W11500  33.917   8.841   0.963
39087W        W11501  29.546  13.758  10.510
39088W        W11502   9.666   3.935  14.350
39089W        W11503  22.063  13.773  11.972
39090W        W11504  24.578  37.038  14.277
39091W        W11505   5.428  31.627   0.936
39092W        W11506   1.766  29.553   4.167
39093W        W11507  32.553  43.313  10.489
39094W        W11508  38.419   8.210   4.256
39095W        W11509  15.303  28.461  10.937
39096W        W11510  30.147  38.983  10.468
39097W        W11511  29.080  28.562  13.488
39098W        W11512  19.551  12.198   0.469
39099W        W11513  18.070  29.623  14.476
39100W        W11514  23.215  10.746  14.441
39101W        W11515  38.011  30.621   2.406
39102W        W11516  22.657  20.137   1.283
39103W        W11517   4.736  16.729  11.528
39104W        W11518  35.003  32.424  13.344
39105W        W11519   9.250  14.298   3.755
39106W        W11520  28.991  31.096   0.465
39107W        W11521  28.080   9.305  13.463
39108W        W11522   0.260  42.527  14.759
39109W        W11523  36.432  33.919   4.597
39110W        W11524  16.617   7.829  12.009
39111W        W11525  21.619   8.366   2.201
39112W        W11526   4.443  16.133   4.814
39113W        W11527   8.302  33.538   1.833
39114W        W11528   7.736  34.564   2.239
39115W        W11529   1.784   6.740   4.214
39116W        W11530  42.340  11.130  14.894
39117W        W11531  36.466  28.511  11.032
39118W        W11532  41.941  14.164  14.008
39119W        W11533  20.162  37.020   3.307
39120W        W11534  21.566  38.954  12.447
39121W        W11535  26.073  30.075   0.413
39122W        W11536   1.439  41.994  10.439
39123W        W11537  15.306  31.423  13.973
39124W        W11538  35.874  40.046  14.287
39125W        W11539  38.472   7.238  11.469
39126W        W11540  35.428  41.496   0.829
39127W        W11541  39.988  43.349  12.037
39128W        W11542   8.380   6.892   1.845
39129W        W11543  16.782   8.808   5.198
39130W        W11544   8.785  11.789   4.675
39131W        W11545  31.552  18.545  13.939
39132W        W11546  39.031  23.621   1.751
39133W        W11547  10.280  29.132  11.488
39134W        W11548  33.887  40.910   4.151
39135W        W11549  23.590   8.262   4.231
39136W        W11550  19.263   5.721  10.933
39137W        W11551  37.017   9.348   0.387
39138W        W11552  28.445   4.848   3.645
39139W        W11553  22.516  41.373   3.336
39140W        W11554  11.698  38.426  13.811
39141W        W11555   4.726   0.841   2.364
39142W        W11556  28.495  36.006  11.980
39143W        W11557   3.730  42.454   3.663
39144W        W11558  19.550   7.225   2.273
39145W        W11559  27.070  12.233   4.164
39146W        W11560   6.237  25.100  12.928
39147W        W11561  25.968  38.388   4.736
39148W        W11562  19.594  33.126   1.791
39149W        W11563   5.833  18.146   2.219
39150W        W11564   2.420  39.898  13.803
39151W        W11565  25.577   8.866   1.920
39152W        W11566  26.604  26.120  11.566
39153W        W11567  39.332  21.134   2.334
39154W        W11568  16.123  42.304  14.988
39155W        W11569  34.410   6.802   4.124
39156W        W11570  28.622  44.845  10.514
39157W        W11571  41.954  25.575   0.902
39158W        W11572  19.693  20.156   5.122
39159W        W11573  20.125  30.914  14.961
39160W        W11574   1.820  22.634   4.835
39161W        W11575  42.793  26.593  10.443
39162W        W11576  10.715  17.238  11.990
39163W        W11577  42.372  40.918   1.219
39164W        W11578  24.652  15.329   1.874
39165W        W11579  13.130  11.719   1.244
39166W        W11580   0.267  22.641   4.743
39167W        W11581  18.107  25.031  11.917
39168W        W11582   8.795  30.078   0.449
39169W        W11583  24.525  44.297  14.890
39170W        W11584  42.822  24.125   0.730
39171W        W11585   1.343   0.901  11.861
39172W        W11586   1.918  27.583  10.038
39173W        W11587   4.828  15.183  13.384
39174W        W11588  32.910  31.630  11.464
39175W        W11589  20.589  32.489  10.515
39176W        W11590  14.760  38.424   1.410
39177W        W11591   8.316  37.967  12.563
39178W        W11592  23.574  33.052   3.811
39179W        W11593  21.031   8.731   1.278
39180W        W11594  17.162  20.680   3.650
39181W        W11595  32.905   5.234   1.377
39182W        W11596  13.322  24.675   3.668
39183W        W11597  24.186  15.146   1.424
39184W        W11598  21.110  36.469   5.128
39185W        W11599   4.733   6.862  12.504
39186W        W11600  36.535  21.207   1.432
39187W        W11601   9.387   1.268  14.856
39188W        W11602  18.245  11.723   1.916
39189W        W11603  12.780  32.620   1.284
39190W        W11604   3.288  20.030   0.828
39191W        W11605  29.568  28.968   2.353
39192W        W11606  17.240  31.525   4.351
39193W        W11607  31.410   3.710   2.895
39194W        W11608  41.980  14.155   3.826
39195W        W11609   4.437   2.909   4.303
39196W        W11610  19.665  40.865   3.385
39197W        W11611  26.136  29.515  12.505
39198W        W11612  10.207  29.951  12.431
39199W        W11613  24.556   4.416  13.936
39200W        W11614  39.397  43.364   2.388
39201W        W11615   9.783  20.050  14.514
39202W        W11616  11.653  39.895   0.954
39203W        W11617  23.558  37.555  12.982
39204W        W11618  12.634  40.387   1.893
39205W        W11619  42.809  24.623   3.822
39206W        W11620   9.254  39.353  12.887
39207W        W11621  29.166  25.989   2.206
39208W        W11622   8.279  10.841   2.302
39209W        W11623  39.447   3.859   4.650
39210W        W11624   3.324  44.275   4.620
39211W        W11625  22.730  34.111  14.877
39212W        W11626  15.087  43.481   3.679
39213W        W11627  23.641   1.816   0.466
39214W        W11628  18.292   4.940  11.115
39215W        W11629  15.130   1.952   0.816
39216W        W11630  42.009  42.957   4.172
39217W        W11631  11.153   5.761   3.246
39218W        W11632  40.880   6.811   1.714
39219W        W11633  26.106  15.170  14.304
39220W        W11634   5.413   5.776  14.774
39221W        W11635  33.092  42.970  14.885
39222W        W11636  37.465   5.742   1.359
39223W        W11637  11.346  43.900   2.757
39224W        W11638  30.460   2.326   3.633
39225W        W11639  38.962   2.837   0.318
39226W        W11640   9.386  14.802  13.498
39227W        W11641   6.246  34.590  12.502
39228W        W11642  34.918   5.410  12.523
39229W        W11643  38.063  25.506  10.966
39230W        W11644  27.014  43.826   0.310
39231W        W11645  14.291  27.455   3.262
39232W        W11646  17.656  37.517   3.381
39233W        W11647   2.777  41.951   4.127
39234W        W11648  40.413   6.323  10.607
39235W        W11649  19.589  19.195   3.353
39236W        W11650  15.690  14.700  12.426
39237W        W11651  12.650  42.364   4.230
39238W        W11652   3.727  10.161  13.853
39239W        W11653  13.187  15.680  12.973
39240W        W11654  40.414  10.709   1.294
39241W        W11655  42.323  17.616   1.408
39242W        W11656  17.288  31.142  11.869
39243W        W11657   9.172  26.177  13.059
39244W        W11658  29.501  15.600   5.183
39245W        W11659   7.364  38.536   3.813
39246W        W11660  43.013  43.494  12.828
39247W        W11661  22.679  39.396  13.898
39248W        W11662  19.763  25.655  12.880
39249W        W11663  41.946  39.437  11.937
39250W        W11664  17.729   2.424  11.487
39251W        W11665  29.135  36.374  13.928
39252W        W11666  28.070   9.664   3.740
39253W        W11667   3.721  33.008   1.300
39254W        W11668  33.452  20.119   1.756
39255W        W11669  13.813  29.119   3.194
39256W        W11670   1.906  40.424   2.394
39257W        W11671  14.805  38.015   1.916
39258W        W11672   8.718   4.270  12.370
39259W        W11673  10.708  31.556   2.216
39260W        W11674  11.211  33.061   0.429
39261W        W11675  13.779  10.726   2.346
39262W        W11676  26.057  23.577   2.347
39263W        W11677  35.858   6.725   2.187
39264W        W11678  44.785  13.137  11.598
39265W        W11679  32.130  23.702   4.601
39266W        W11680  42.413  32.585  13.348
39267W        W11681   9.727  34.942  13.009
39268W        W11682  33.548  40.866   1.451
39269W        W11683  33.117  34.868   1.787
39270W        W11684  37.376   1.267   1.774
39271W        W11685  42.883  44.462  12.953
39272W        W11686   5.830  15.584  13.055
39273W        W11687  37.383   9.740   1.379
39274W        W11688   8.308  19.177   4.168
39275W        W11689  22.077   8.663   0.826
39276W        W11690   6.343  14.751  10.580
39277W        W11691  37.465   7.248   3.316
39278W        W11692  33.444  29.571  10.892
39279W        W11693  33.049  32.453  12.347
39280W        W11694  34.990  13.672  12.041
39281W        W11695  15.720  38.536  12.555
39282W        W11696  25.158  30.531  14.022
39283W        W11697   5.751  25.170   3.334
39284W        W11698  10.261  36.001   2.245
39285W        W11699  29.507  14.619   1.838
39286W        W11700  23.676  44.976   9.440
39287W        W11701  10.633  35.493   4.774
39288W        W11702  38.047  37.434  11.528
39289W        W11703  35.878  24.665  13.380
39290W        W11704  30.116  20.232  11.491
39291W        W11705  40.506  38.545   2.691
39292W        W11706  32.913   6.822   3.748
39293W        W11707  28.111   3.434   2.735
39294W        W11708  17.650  43.397  13.447
39295W        W11709   5.400  11.718   2.800
39296W        W11710  36.562  40.446   1.358
39297W        W11711   9.394  32.466  13.510
39298W        W11712  35.050  35.549  13.970
39299W        W11713  23.595  44.883   2.674
39300W        W11714  36.460  31.987  11.960
39301W        W11715  14.163  31.023   2.667
39302W        W11716   2.422  27.963  14.511
39303W        W11717  27.194  38.503   1.697
39304W        W11718  42.795  26.470  14.887
39305W        W11719  30.929  32.042  13.363
39306W        W11720  39.847  20.613  12.439
39307W        W11721  17.099  17.236  11.423
39308W        W11722  10.756  26.544   2.194
39309W        W11723  42.972  44.950   3.179
39310W        W11724  36.566  29.613  13.879
39311W        W11725   6.689  18.294   0.929
39312W        W11726  14.284  32.117   1.385
39313W        W11727  17.633  36.852   4.205
39314W        W11728  34.088  36.934   1.229
39315W        W11729  34.517   3.747  13.387
39316W        W11730  23.140  15.244   1.819
39317W        W11731   3.893  35.499   4.604
39318W        W11732  21.614  44.970  13.810
39319W        W11733  22.727  41.942  12.391
39320W        W11734  17.574   4.412  12.375
39321W        W11735  42.441  10.183  10.611
39322W        W11736  22.252  43.497  14.460
39323W        W11737  41.491  40.829   2.381
39324W        W11738  43.325   7.667  10.455
39325W        W11739  16.176  31.058   4.235
39326W        W11740   2.246  20.235   1.929
39327W        W11741  19.630  42.969   2.284
39328W        W11742   6.261  23.553   2.784
39329W        W11743  11.322   3.846  12.561
39330W        W11744  34.991  37.455   5.133
39331W        W11745  11.633  26.181  12.388
39332W        W11746   3.945   6.376  14.378
39333W        W11747   4.853  17.189   5.178
39334W        W11748  13.658  27.574  10.598
39335W        W11749  21.076  41.460  14.984
39336W        W11750  15.691  44.778  14.416
39337W        W11751  25.202  35.934  14.852
39338W        W11752   0.977  25.001  12.545
39339W        W11753  42.493  14.611   3.169
39340W        W11754  30.438  14.113   3.636
39341W        W11755  43.298  23.719  11.922
39342W        W11756  15.198  38.430   4.753
39343W        W11757  44.390  16.687  10.590
39344W        W11758   7.275  11.774  12.972
39345W        W11759  40.399  22.210   3.359
39346W        W11760  11.660  41.444  13.979
39347W        W11761  41.421   9.282   1.226
39348W        W11762  27.173  30.517  13.505
39349W        W11763   9.797   6.369  14.811
39350W        W11764  28.485  33.939  14.316
39351W        W11765   4.294  16.146  12.545
39352W        W11766  29.445  33.471  11.934
39353W        W11767  27.592   6.258  14.305
39354W        W11768  32.553  37.030  13.943
39355W        W11769  27.643   4.321  12.924
39356W        W11770  36.466  10.252   2.734
39357W        W11771  20.117  36.910   1.743
39358W        W11772  30.989  13.323   3.780
39359W        W11773  16.206   9.235   5.203
39360W        W11774  36.055  13.263  12.374
39361W        W11775  14.627  43.457  13.332
39362W        W11776  24.081  38.049   0.439
39363W        W11777  31.052  12.159   4.115
39364W        W11778  42.882  29.956  10.445
39365W        W11779  43.983  15.773   3.641
39366W        W11780  41.406  20.254  10.608
39367W        W11781  36.373  31.117  14.361
39368W        W11782  21.192  22.744  14.291
39369W        W11783  10.228  31.089   4.806
39370W        W11784   8.880  30.086  14.850
39371W        W11785  20.696  17.657   4.355
39372W        W11786  25.217  27.039   4.636
39373W        W11787   0.905  39.848  11.992
39374W        W11788  39.422  18.662  11.974
39375W        W11789  42.800  20.151  14.802
39376W        W11790  30.611  23.560   2.793
39377W        W11791  33.588  24.696   1.434
39378W        W11792  38.952  43.415  10.538
39379W        W11793   4.317  13.709   1.264
39380W        W11794   9.653  36.087  12.360
39381W        W11795  11.658  43.937   1.367
39382W        W11796  25.557  25.700   1.367
39383W        W11797   1.907  23.223  14.289
39384W        W11798  44.281  41.366  10.600
39385W        W11799  15.206  23.653  12.513
39386W        W11800  36.455  24.639  14.887
39387W        W11801   5.336  17.167   3.704
39388W        W11802   0.286   6.875   4.296
39389W        W11803  44.769  26.088  14.974
39390W        W11804  36.431   3.716   2.890
39391W        W11805  22.695  18.663  14.983
39392W        W11806  10.164  37.852  11.461
39393W        W11807  21.606   3.226   5.307
39394W        W11808   8.846  16.086   3.222
39395W        W11809  43.320  21.113  14.434
39396W        W11810  14.296  23.135  13.495
39397W        W11811  13.296  42.820   5.223
39398W        W11812  18.284  22.618   1.419
39399W        W11813  29.504   9.169  13.812
39400W        W11814   2.420  15.245  12.017
39401W        W11815  16.275   5.713   4.273
39402W        W11816  23.532  18.583  11.860
39403W        W11817  35.883  30.991   4.598
39404W        W11818  44.972   7.681  13.839
39405W        W11819  12.250  37.008  10.411
39406W        W11820  19.738   3.394   0.452
39407W        W11821  35.104  25.564  13.845
39408W        W11822   9.687  25.045   3.860
39409W        W11823  43.942   5.351  12.370
39410W        W11824  10.656   8.714  11.518
39411W        W11825  31.604  30.508   3.384
39412W        W11826   6.183  13.227   1.926
39413W        W11827  20.666   4.307   1.416
39414W        W11828  40.325   8.218  13.859
39415W        W11829  15.821   8.212   4.700
39416W        W11830  23.545  33.995  14.428
39417W        W11831   8.661  41.469  14.844
39418W        W11832  21.110  33.125  10.496
39419W        W11833  35.067  18.776  12.533
39420W        W11834  38.899  40.489  11.876
39421W        W11835  22.696  20.238  10.550
39422W        W11836  29.590  36.423  11.888
39423W        W11837   5.762   2.811  13.462
39424W        W11838  26.105  35.875  10.427
39425W        W11839  43.300  36.531   3.766
39426W        W11840  19.079  34.944  13.479
39427W        W11841  32.487  33.424   2.282
39428W        W11842  22.729  27.587   1.360
39429W        W11843  44.438  10.353   2.182
39430W        W11844  21.253  32.552   4.212
39431W        W11845  30.434  11.802   2.318
39432W        W11846  25.001  30.962  12.938
39433W        W11847  35.940  36.552  13.369
39434W        W11848  41.536  22.251  14.466
39435W        W11849   2.841  21.018   0.748
39436W        W11850  27.941   2.826   0.405
39437W        W11851   1.813  26.087   0.450
39438W        W11852  42.284  12.729   4.158
39439W        W11853  14.835  25.987  11.952
39440W        W11854  34.957  39.391  14.012
39441W        W11855  44.841  27.079   2.745
39442W        W11856  35.003  34.533  10.444
39443W        W11857   6.221   3.299  12.543
39444W        W11858   3.753  13.776  14.779
39445W        W11859   0.420  38.016  11.377
39446W        W11860   4.838   8.259   2.286
39447W        W11861  27.474   6.918   0.954
39448W        W11862   1.731  10.336  10.427
39449W        W11863  29.938   1.781  12.500
39450W        W11864  23.192   0.321   1.874
39451W        W11865  27.035  38.409  14.416
39452W        W11866  34.987  16.117   0.263
39453W        W11867   2.800  34.565   1.327
39454W        W11868   9.666  19.739  11.486
39455W        W11869  24.479  20.261   3.854
39456W        W11870  16.072  43.975   3.788
39457W        W11871  26.158  29.944  11.510
39458W        W11872  40.035   3.812  12.028
39459W        W11873  11.147  39.472  12.862
39460W        W11874   2.320  42.975  12.834
39461W        W11875  37.939  33.405   3.768
39462W        W11876  32.568  22.723  12.431
39463W        W11877  13.718  19.139   3.787
39464W        W11878  13.702  16.209  10.985
39465W        W11879  29.106  34.055   3.784
39466W        W11880   3.841  22.193  12.843
39467W        W11881  32.433  38.408  12.475
39468W        W11882  31.482   1.434  11.055
39469W        W11883  12.823  11.264   0.864
39470W        W11884  25.596  19.582   0.309
39471W        W11885   2.957  39.038  12.922
39472W        W11886  43.821  14.704  12.845
39473W        W11887  20.066  13.328  12.496
39474W        W11888  12.303  36.039   4.599
39475W        W11889   1.477  22.147   1.821
39476W        W11890  13.708  28.582   4.314
39477W        W11891  20.655  10.874  12.536
39478W        W11892   9.765   8.387  12.420
39479W        W11893  18.645  18.135  14.868
39480W        W11894   6.744   8.190  12.865
39481W        W11895  29.110  43.988   1.273
39482W        W11896  16.802  31.901   3.636
39483W        W11897  32.412   7.830   4.264
39484W        W11898  28.181   9.674   9.984
39485W        W11899  33.531  38.369  14.483
39486W        W11900  13.754  20.265  13.022
39487W        W11901  20.566   3.306  11.501
39488W        W11902  27.685   9.788   0.787
39489W        W11903   2.240  11.651  11.986
39490W        W11904  16.095   2.877  10.625
39491W        W11905  18.218   2.900   1.214
39492W        W11906  32.530  24.001  14.387
39493W        W11907  44.441   6.789   3.301
39494W        W11908  30.159  42.928   1.420
39495W        W11909  39.546   9.761   0.242
39496W        W11910  22.014  13.776   0.296
39497W        W11911  15.274  24.218   4.729
39498W        W11912   4.239  19.151   1.915
39499W        W11913  29.082  21.173   2.260
39500W        W11914  16.718   7.897   1.342
39501W        W11915  42.844   8.378  12.950
39502W        W11916   6.795  23.565  11.906
39503W        W11917  41.528   1.760  14.958
39504W        W11918  12.737  33.989  11.886
39505W        W11919   3.386   9.181  13.908
39506W        W11920   6.784  38.434   0.932
39507W        W11921   9.835  40.969   0.868
39508W        W11922  35.037  15.654   4.344
39509W        W11923  30.021  38.018  14.824
39510W        W11924  36.481  37.551  11.526
39511W        W11925   1.376  15.261   4.143
39512W        W11926  25.103  18.247   5.095
39513W        W11927  24.725  14.608  13.879
39514W        W11928  18.760  22.224   2.868
39515W        W11929  17.179   6.802  11.450
39516W        W11930  33.596  14.806   3.161
39517W        W11931   5.251  14.267  14.441
39518W        W11932  21.165   7.823  12.545
39519W        W11933  37.066  14.268   2.193
39520W        W11934   0.777   2.732   2.254
39521W        W11935  15.677  16.658  10.094
39522W        W11936  38.053  22.181  13.314
39523W        W11937  23.121   5.806   3.863
39524W        W11938  30.566  31.448  11.943
39525W        W11939  16.570  19.539  11.120
39526W        W11940  38.398  17.787   1.451
39527W        W11941   7.393  39.819  13.945
39528W        W11942  16.735  21.679  13.896
39529W        W11943  23.209  36.378  12.425
39530W        W11944  24.209  30.521  13.535
39531W        W11945   5.381   7.270  10.964
39532W        W11946  43.385  22.099   2.308
39533W        W11947  18.690  35.439   4.753
39534W        W11948   2.350  28.033   3.207
39535W        W11949   5.204  42.929   3.782
39536W        W11950  11.277   9.834   1.353
39537W        W11951  42.972   7.334   1.818
39538W        W11952  27.610   6.774   4.808
39539W        W11953  32.490  33.465   2.665
39540W        W11954  25.481  31.926   9.963
39541W        W11955  15.268  12.304  11.376
39542W        W11956  31.478  32.061   4.239
39543W        W11957  10.733  39.403   1.371
39544W        W11958  44.833  13.744   3.784
39545W        W11959   0.368  44.432   1.815
39546W        W11960  14.325  18.114  11.861
39547W        W11961  42.786  18.060   1.357
39548W        W11962  32.142  14.601   4.158
39549W        W11963  16.281  18.140  13.316
39550W        W11964  19.596  30.133  13.016
39551W        W11965  27.596  19.741   3.772
39552W        W11966  44.297  32.610  14.946
39553W        W11967  32.040  17.280   4.798
39554W        W11968   4.292  28.450   1.329
39555W        W11969  40.323   5.260   4.618
39556W        W11970  36.363  32.492  11.482
39557W        W11971  15.261  30.029  12.355
39558W        W11972  33.959  28.657  10.978
39559W        W11973  40.352  41.416   5.149
39560W        W11974  20.645   9.218  13.058
39561W        W11975  37.485  43.795   4.346
39562W        W11976   2.887  30.149   3.817
39563W        W11977   2.721  12.788   4.815
39564W        W11978  38.519  41.374   4.736
39565W        W11979  10.243   0.311  10.962
39566W        W11980   5.226  41.795  10.911
39567W        W11981  36.045  41.300  13.533
39568W        W11982   0.335  14.220  12.028
39569W        W11983  13.297  25.126  12.482
39570W        W11984  35.381   1.762  14.881
39571W        W11985  25.612  28.940  12.877
39572W        W11986  40.022  14.665   3.314
39573W        W11987   2.471  32.939   1.788
39574W        W11988  19.632   8.810   0.437
39575W        W11989  37.067   8.323  14.294
39576W        W11990  35.892   4.436   0.479
39577W        W11991  27.121  34.566  12.034
39578W        W11992  18.169  42.952   2.810
39579W        W11993  32.436  18.570  14.457
39580W        W11994  44.319  25.086  10.920
39581W        W11995  17.616  40.302   2.269
39582W        W11996   9.778  17.063  12.930
39583W        W11997   6.897  14.636   0.463
39584W        W11998  15.224  21.531  14.431
39585W        W11999   2.821  41.441   1.889
39586W        W12000  25.140  41.420  14.774
39587W        W12001  15.328  34.433  12.091
39588W        W12002  20.526   3.328   4.285
39589W        W12003  40.370  42.408  11.563
39590W        W12004   2.891  29.658   1.928
39591W        W12005  19.188   4.882  13.881
39592W        W12006   4.889  26.600   3.291
39593W        W12007  20.679   3.229  14.795
39594W        W12008  24.055  38.009   4.599
39595W        W12009  11.220  43.346   1.893
39596W        W12010  17.125  11.739   4.804
39597W        W12011  25.997  41.356  10.420
39598W        W12012  25.129  30.022   1.709
39599W        W12013  43.359  23.995  12.992
39600W        W12014  36.983  25.695  10.524
39601W        W12015   3.733  37.428   3.272
39602W        W12016  37.358  20.222  12.401
39603W        W12017  18.152  35.037   0.430
39604W        W12018  15.717  36.972   2.729
39605W        W12019  13.339  18.240   5.646
39606W        W12020  19.625   4.400  14.472
39607W        W12021  34.585   9.265  14.315
39608W        W12022  40.381   3.806  12.375
39609W        W12023  42.925  10.358   1.430
39610W        W12024   5.372  41.320   1.919
39611W        W12025   9.173  21.196   9.941
39612W        W12026  34.480  33.449  13.499
39613W        W12027  16.171   7.760  12.915
39614W        W12028  42.853  32.917  14.861
39615W        W12029  30.947   8.813   5.152
39616W        W12030  21.738  22.603  12.020
39617W        W12031  38.889  19.675   4.272
39618W        W12032  15.101  18.251   4.652
39619W        W12033   3.946  41.385  12.025
39620W        W12034  38.053  10.861  13.369
39621W        W12035  44.890  13.728   1.268
39622W        W12036  38.003   8.209  10.548
39623W        W12037  14.305  42.327  11.458
39624W        W12038  13.679  32.500   1.789
39625W        W12039  20.739  30.504  10.494
39626W        W12040  25.510  15.649   3.744
39627W        W12041  25.603  13.155   0.915
39628W        W12042   0.779  34.889   2.881
39629W        W12043   5.720  10.793   0.818
39630W        W12044   8.257  17.669   4.614
39631W        W12045   5.766  11.201   1.859
39632W        W12046  16.140  24.101  12.514
39633W        W12047  29.065   7.182  11.478
39634W        W12048  36.476  39.029   1.916
39635W        W12049  11.697  26.503  11.429
39636W        W12050  35.066  16.761   1.412
39637W        W12051  40.333  30.935   2.865
39638W        W12052   1.849  17.626  12.546
39639W        W12053  37.072  17.173  11.397
39640W        W12054  29.069  38.076  11.899
39641W        W12055  25.089  24.691  10.539
39642W        W12056  29.496  20.169  14.804
39643W        W12057  40.999   2.429  12.494
39644W        W12058  43.863  35.513   3.181
39645W        W12059  24.529  40.990   4.116
39646W        W12060   9.710  30.639  13.326
39647W        W12061  39.829  25.123  11.002
39648W        W12062  26.547  42.436  13.941
39649W        W12063  28.657  33.994   1.314
39650W        W12064   5.291  29.072  10.561
39651W        W12065   1.817  43.330   3.359
39652W        W12066  39.000   0.879  14.487
39653W        W12067   9.377   8.315  10.553
39654W        W12068  18.672  10.756   2.722
39655W        W12069   7.841  27.655  14.894
39656W        W12070  38.449  39.485  13.057
39657W        W12071  27.071  28.516  14.817
39658W        W12072  28.647  28.085   2.809
39659W        W12073  18.739  39.380   3.229
39660W        W12074  21.199  36.957   2.285
39661W        W12075   3.353  26.463   3.835
39662W        W12076   3.427  10.187   4.201
39663W        W12077  13.614   4.743  11.440
39664W        W12078   1.750  15.700   5.203
39665W        W12079   0.330   6.797   2.901
39666W        W12080  28.488   9.764   1.707
39667W        W12081  25.588   3.811  12.410
39668W        W12082  12.642  11.172   4.220
39669W        W12083  39.857  29.604  13.992
39670W        W12084  25.519   1.804  10.631
39671W        W12085  37.356  20.726  12.517
39672W        W12086  30.636  43.941  14.359
39673W        W12087  26.486  43.329   1.896
39674W        W12088   3.279  21.565   4.221
39675W        W12089  16.663  19.269  11.955
39676W        W12090  16.643  37.552  13.873
39677W        W12091  25.626  26.664  13.479
39678W        W12092   0.912  21.630  14.390
39679W        W12093  17.655   1.760   3.230
39680W        W12094  26.036  34.108  10.616
39681W        W12095  15.688  12.358   0.735
39682W        W12096  41.398  43.461   0.356
39683W        W12097  24.104  36.428   3.836
39684W        W12098   4.219  44.342  12.945
39685W        W12099   6.688  38.008   4.796
39686W        W12100   1.322   6.914  10.902
39687W        W12101  27.547  42.526   2.202
39688W        W12102  38.899  34.376  12.447
39689W        W12103   8.706   6.381   3.676
39690W        W12104  24.009  16.593   2.396
39691W        W12105  33.612  19.217  10.977
39692W        W12106  40.488   0.467   3.773
39693W        W12107  22.094  35.473  13.925
39694W        W12108  21.698  12.817  12.520
39695W        W12109  31.430  37.388  14.010
39696W        W12110  10.249  14.298   2.747
39697W        W12111  41.359  25.550  11.558
39698W        W12112  11.243   5.251  11.571
39699W        W12113  21.141  20.573  11.022
39700W        W12114   5.908  22.193   1.771
39701W        W12115  22.124   5.274   1.263
39702W        W12116  21.042  37.927  12.032
39703W        W12117  31.577  17.557   3.303
39704W        W12118   1.297   5.850   0.481
39705W        W12119  20.557  14.178  11.435
39706W        W12120  20.057   9.268   0.448
39707W        W12121  13.107  42.311   0.922
39708W        W12122  41.338  10.364  12.370
39709W        W12123  10.203  40.025  12.897
39710W        W12124  41.411   6.398  13.459
39711W        W12125  22.184  14.762   3.703
39712W        W12126  41.471  21.068   5.199
39713W        W12127  43.386  33.474  13.874
39714W        W12128   3.727  11.821   2.666
39715W        W12129   5.822   3.878   2.687
39716W        W12130  19.754  41.328  14.461
39717W        W12131   0.835  16.669  14.923
39718W        W12132  25.079  25.712   4.115
39719W        W12133  26.978  22.574  13.823
39720W        W12134  14.823  40.050   1.814
39721W        W12135  44.289  11.686  10.915
39722W        W12136  28.118  13.835   0.840
39723W        W12137  39.331   7.765   1.872
39724W        W12138  44.349  22.699  11.984
39725W        W12139  33.958   9.883  10.539
39726W        W12140   0.329  37.567  11.922
39727W        W12141  19.539   0.307  13.056
39728W        W12142  37.879  22.140  14.860
39729W        W12143  25.659  39.365   0.269
39730W        W12144  22.250   8.228  10.531
39731W        W12145  16.627  31.525  12.495
39732W        W12146   0.379  31.582  12.941
39733W        W12147  18.692   3.910  10.486
39734W        W12148   0.447  38.870   1.759
39735W        W12149  22.180  33.082  13.380
39736W        W12150   0.834  26.511   3.242
39737W        W12151  43.484   3.785  12.091
39738W        W12152  32.578  42.291  14.992
39739W        W12153  40.809  21.555  10.487
39740W        W12154   5.882  30.973  14.337
39741W        W12155   6.320   0.493  13.429
39742W        W12156  12.650  43.919  13.433
39743W        W12157   3.846  31.630   2.803
39744W        W12158   6.802  13.681  11.882
39745W        W12159  25.633   2.278   0.246
39746W        W12160  42.390  13.328   0.908
39747W        W12161  25.468  35.419   0.853
39748W        W12162   8.778  32.620  12.352
39749W        W12163  37.346  41.990  14.358
39750W        W12164   5.834  43.436   0.840
39751W        W12165  21.061  41.925  10.603
39752W        W12166  11.366  22.231  14.017
39753W        W12167  37.545  10.730   2.885
39754W        W12168  12.279  31.455  13.341
39755W        W12169   2.335  35.465  14.842
39756W        W12170   7.776  35.562  14.916
39757W        W12171  31.947  21.643   2.204
39758W        W12172   2.917  25.142   2.291
39759W        W12173  42.784  21.139  11.894
39760W        W12174  41.321   4.781   3.801
39761W        W12175  29.065  42.339   4.220
39762W        W12176  24.679  34.913   0.949
39763W        W12177   5.215  40.318  13.988
39764W        W12178  30.535  17.241  13.000
39765W        W12179  14.185  34.090  11.949
39766W        W12180  14.770  35.910  13.997
39767W        W12181  35.939   9.240  12.356
39768W        W12182  40.500   2.261  14.773
39769W        W12183  34.509  18.235  12.354
39770W        W12184   3.921  16.627  14.364
39771W        W12185  38.492  31.114   1.780
39772W        W12186   7.867  32.474   2.836
39773W        W12187  14.164  26.036   4.831
39774W        W12188  26.586  35.897   4.194
39775W        W12189   7.303  33.442  13.371
39776W        W12190  19.713  10.851  13.309
39777W        W12191  12.627  40.909   4.261
39778W        W12192  36.068   1.340   0.845
39779W        W12193  13.736  18.089  11.949
39780W        W12194  34.044  43.947  14.461
39781W        W12195  36.574  15.266  13.521
39782W        W12196   1.931  37.443   2.700
39783W        W12197  30.515  38.000   1.317
39784W        W12198  31.407   0.972  13.875
39785W        W12199  15.266  38.455  11.922
39786W        W12200  35.596   7.409  11.935
39787W        W12201  23.725  18.648   1.445
39788W        W12202  23.216   5.250   0.838
39789W        W12203  40.916   1.312   3.221
39790W        W12204   3.280  37.422  13.950
39791W        W12205   2.946  22.506  12.935
39792W        W12206  42.910  33.450  10.967
39793W        W12207  26.699   8.851  10.969
39794W        W12208  22.129  34.002  10.441
39795W        W12209  22.533  23.683   5.225
39796W        W12210   3.816  39.387   2.838
39797W        W12211  13.263  38.401  14.450
39798W        W12212  31.978  11.202  14.811
39799W        W12213  13.147  21.083   4.138
39800W        W12214   2.754  14.155  13.007
39801W        W12215  36.098  10.296   1.396
39802W        W12216  23.101  15.625  12.443
39803W        W12217  38.474  38.994   3.796
39804W        W12218  14.246  26.087  13.980
39805W        W12219  32.094   1.812   4.676
39806W        W12220  18.562   4.726   2.313
39807W        W12221  30.563  22.033  13.853
39808W        W12222  26.133  33.116  14.006
39809W        W12223  36.591  13.137  13.965
39810W        W12224   3.312  31.426  11.397
39811W        W12225  24.075  17.127   2.672
39812W        W12226  20.127  34.587  14.494
39813W        W12227  37.349  28.968  11.522
39814W        W12228  18.179   0.492  12.431
39815W        W12229  44.444   5.309  14.031
39816W        W12230  19.112  36.950  13.059
39817W        W12231  24.484  38.560   2.275
39818W        W12232  35.016   8.244   2.202
39819W        W12233  44.873  42.971   2.413
39820W        W12234   4.211  38.374  14.022
39821W        W12235   7.315   2.364   4.704
39822W        W12236   2.265  27.473   9.968
39823W        W12237   0.417  43.329  12.003
39824W        W12238   0.768  11.153   1.417
39825W        W12239  34.550  34.981   1.271
39826W        W12240  16.605  22.088  10.992
39827W        W12241  14.166  43.476   1.795
39828W        W12242   2.737  21.628  10.986
39829W        W12243  26.518  23.130  13.934
39830W        W12244  14.806  42.321   3.173
39831W        W12245  11.738   7.390   1.725
39832W        W12246  34.566  24.658  10.124
39833W        W12247  15.580  16.082   4.197
39834W        W12248  18.096  22.627   3.671
39835W        W12249  24.641   0.890   2.237
39836W        W12250  22.621  14.824   4.330
39837W        W12251  41.958  34.948   3.285
39838W        W12252  33.946  38.844   4.250
39839W        W12253   0.866  30.575  13.061
39840W        W12254  19.116  24.146  12.938
39841W        W12255  32.617  13.647  14.890
39842W        W12256  34.001  27.449  14.367
39843W        W12257  44.810   5.847  13.396
39844W        W12258  14.286  31.421  14.433
39845W        W12259   3.313   0.855  11.027
39846W        W12260  25.028  10.184   0.355
39847W        W12261  13.615  25.527  10.600
39848W        W12262  21.646  17.631  11.101
39849W        W12263  29.992  41.397   3.655
39850W        W12264   2.229  20.553   1.747
39851W        W12265  20.749  23.538   0.387
39852W        W12266  16.217  43.465  10.990
39853W        W12267  27.074  38.982  13.402
39854W        W12268  29.144  28.081  10.560
39855W        W12269  33.128  33.952   1.371
39856W        W12270  27.943  26.593   4.619
39857W        W12271  18.150  31.982  14.331
39858W        W12272  44.895  30.955   1.418
39859W        W12273  26.029  37.569   5.194
39860W        W12274  22.556  32.049  11.506
39861W        W12275  18.689  30.164   2.699
39862W        W12276  23.984  11.757  11.886
39863W        W12277  23.061  18.746   9.984
39864W        W12278   4.237  20.147  10.599
39865W        W12279  10.178  25.550  11.433
39866W        W12280  27.495  25.206  14.416
39867W        W12281  35.034  23.658   0.374
39868W        W12282  28.464  22.574   3.294
39869W        W12283  38.936  26.640   0.904
39870W        W12284  18.283  31.492   3.377
39871W        W12285   7.852  22.172  12.071
39872W        W12286  30.014  32.033   1.276
39873W        W12287  10.384  27.960  11.995
39874W        W12288  41.405  16.712  14.888
39875W        W12289  35.953  39.449  12.421
39876W        W12290  11.814   2.902  10.514
39877W        W12291  43.997  38.419   2.354
39878W        W12292   5.391   0.415  14.407
39879W        W12293  25.685  32.096  14.370
39880W        W12294  33.978   5.284   4.621
39881W        W12295   7.701  24.707   4.300
39882W        W12296  35.529   3.413  10.563
39883W        W12297  35.950  35.936  10.524
39884W        W12298  25.489  31.004   2.734
39885W        W12299  23.043  40.329   2.787
39886W        W12300  35.534  29.458  11.560
39887W        W12301  33.965  38.000   3.805
39888W        W12302  34.913  43.377  13.524
39889W        W12303  42.356   9.327  10.640
39890W        W12304  30.080  20.210   3.312
39891W        W12305  24.514  17.572   0.287
39892W        W12306  15.317  12.834  11.119
39893W        W12307  24.102  23.111  12.528
39894W        W12308  29.605   2.911  12.866
39895W        W12309  37.832  15.102   2.224
39896W        W12310  22.629   4.379   3.326
39897W        W12311  28.596   6.238  13.985
39898W        W12312   4.864   7.672  11.108
39899W        W12313  42.373  29.012   0.920
39900W        W12314  15.253  17.179  10.485
39901W        W12315  32.504  30.566   1.383
39902W        W12316   0.848   6.900   0.447
39903W        W12317   3.373   1.808   0.890
39904W        W12318   0.276  24.523  13.353
39905W        W12319   3.402  21.066   4.205
39906W        W12320   3.732  19.701   0.796
39907W        W12321   2.289  17.178  12.352
39908W        W12322  33.022  24.717   4.284
39909W        W12323  20.742  31.915  13.965
39910W        W12324  44.980  16.660  11.393
39911W        W12325  24.076  33.015  14.416
39912W        W12326  38.862   2.726  11.492
39913W        W12327   3.282  13.811  10.589
39914W        W12328   9.868   0.411   4.296
39915W        W12329  19.075  19.086  14.398
39916W        W12330  15.141  17.296  11.549
39917W        W12331   7.758  31.102   1.737
39918W        W12332  29.604  23.636   5.285
39919W        W12333  21.165   6.809  11.866
39920W        W12334  25.127  11.271   2.387
39921W        W12335  30.453  19.125  10.637
39922W        W12336  32.890  16.184   4.165
39923W        W12337  34.591   0.818   3.203
39924W        W12338  42.953  26.606   3.223
39925W        W12339   8.692   7.690  14.350
39926W        W12340  41.933  27.526  11.073
39927W        W12341  13.307  15.628   3.797
39928W        W12342  27.962  31.942   0.399
39929W        W12343  12.835  43.283   2.683
39930W        W12344  35.051  15.609  11.108
39931W        W12345   8.718  29.033  14.858
39932W        W12346  44.499  43.852   1.725
39933W        W12347  39.333  38.492   1.309
39934W        W12348  15.780  24.548  12.091
39935W        W12349  38.561  39.053   1.448
39936W        W12350  33.003  37.544  10.610
39937W        W12351   7.182   3.744  14.935
39938W        W12352  12.312  42.869   3.190
39939W        W12353  42.466  11.634  11.480
39940W        W12354   5.928  22.708  11.898
39941W        W12355   7.783  35.922  12.527
39942W        W12356  35.390  35.078   3.637
39943W        W12357   4.914   1.405   4.269
39944W        W12358   4.743  34.461   1.734
39945W        W12359  42.342  41.316  11.121
39946W        W12360  42.385   2.942   4.351
39947W        W12361  38.051  36.047   5.756
39948W        W12362  26.588  10.645   0.400
39949W        W12363  36.052  44.387   3.800
39950W        W12364  18.223   4.855   0.432
39951W        W12365  31.006  36.890   1.803
39952W        W12366  39.325   2.940  12.048
39953W        W12367  11.782  30.120   1.447
39954W        W12368  28.998  35.010  12.083
39955W        W12369   9.688  38.938  10.546
39956W        W12370  33.433  37.380   1.922
39957W        W12371  40.322  44.959  14.833
39958W        W12372  21.234  23.718  14.000
39959W        W12373   6.366   9.224  14.921
39960W        W12374  22.745  29.070   2.192
39961W        W12375  42.312  21.067   2.702
39962W        W12376  19.730  18.064  13.945
39963W        W12377  29.007  41.032   4.822
39964W        W12378  40.489   4.881  10.509
39965W        W12379  22.729  13.677  11.520
39966W        W12380  10.287  18.245   2.287
39967W        W12381  26.161  27.489  14.801
39968W        W12382  19.136  19.684  12.514
39969W        W12383  13.621  24.115   3.198
39970W        W12384  43.283  10.355   3.375
39971W        W12385  12.768  19.536   0.328
39972W        W12386  26.513  17.299   1.868
39973W        W12387   6.316   0.331  13.915
39974W        W12388   7.376  40.797   2.227
39975W        W12389  10.174  18.149  12.505
39976W        W12390  38.441  36.496  13.446
39977W        W12391  22.036  21.576   3.683
39978W        W12392  29.570  39.874  14.423
39979W        W12393   4.756   0.381   0.873
39980W        W12394   5.202  21.107   0.792
39981W        W12395  12.656  36.448  13.519
39982W        W12396  41.861  25.495   3.870
39983W        W12397  10.752  18.762   1.264
39984W        W12398  14.132   9.706   0.943
39985W        W12399  41.940  40.814  12.000
39986W        W12400  36.854  44.009   4.805
39987W        W12401  10.358   2.457  13.959
39988W        W12402   6.284  36.084  12.355
39989W        W12403  37.446  13.602   2.292
39990W        W12404  24.583  38.052   4.824
39991W        W12405   1.875  31.962  13.830
39992W        W12406  18.575  21.599  12.902
39993W        W12407   1.436  37.834   1.315
39994W        W12408  25.679  14.826   0.356
39995W        W12409  42.023  36.900   4.142
39996W        W12410   2.413   2.957   1.694
39997W        W12411  44.276  39.477  10.573
39998W        W12412  41.442  21.537   1.827
39999W        W12413  13.179  37.574   4.337
40000W        W12414  35.059   6.734  12.488
40001W        W12415  34.532  22.085   2.775
40002W        W12416  18.703  13.184  12.939
40003W        W12417  28.088  40.428  14.398
40004W        W12418  25.085  23.682  12.568
40005W        W12419  12.630  16.217  13.973
40006W        W12420   5.754  23.995  11.984
40007W        W12421  17.630  42.881  11.972
40008W        W12422  40.853  20.102  14.377
40009W        W12423  22.642  44.911  14.278
40010W        W12424  15.319  38.865   2.398
40011W        W12425  42.292  37.953  12.507
40012W        W12426  38.410  31.085  10.457
40013W        W12427  37.952   1.336   1.269
40014W        W12428  28.568  15.687   1.907
40015W        W12429  37.355  41.364  10.535
40016W        W12430  42.879   5.932  10.576
40017W        W12431  23.190  17.586   4.300
40018W        W12432  30.579  41.519   0.330
40019W        W12433  38.831  23.121  10.967
40020W        W12434  11.313  31.904  13.976
40021W        W12435   8.778  37.834   4.612
40022W        W12436  34.092  32.071   1.819
40023W        W12437   3.363  41.843   4.793
40024W        W12438  35.101  40.004  13.994
40025W        W12439   2.796  40.403  10.963
40026W        W12440  13.807   6.393  14.426
40027W        W12441  24.195  35.002   1.808
40028W        W12442  40.043  18.680   1.279
40029W        W12443  17.198  18.181  14.794
40030W        W12444  20.125  32.135  13.517
40031W        W12445  12.174  27.049   1.379
40032W        W12446  13.187  26.685  13.540
40033W        W12447  31.574  34.904  11.080
40034W        W12448  32.921  15.791   2.192
40035W        W12449  44.491   6.238  10.943
40036W        W12450  39.888  39.913  10.597
40037W        W12451  24.587  41.041  14.018
40038W        W12452   0.248  42.890   3.354
40039W        W12453  35.591  33.563  13.441
40040W        W12454   2.254  12.622  11.503
40041W        W12455   3.890  44.389  10.934
40042W        W12456  11.814  13.146  14.947
40043W        W12457  10.277  32.936  11.531
40044W        W12458  42.923  35.025  12.979
40045W        W12459  32.990  15.717  12.900
40046W        W12460  11.732  25.506  10.974
40047W        W12461  41.456  32.107  11.965
40048W        W12462  25.087  30.138  13.356
40049W        W12463  21.690  31.537  10.529
40050W        W12464  25.522  20.270  10.553
40051W        W12465  42.016   8.360  14.805
40052W        W12466   2.936   6.363   1.904
40053W        W12467  41.948  10.196  10.461
40054W        W12468  29.469  40.872   3.798
40055W        W12469   0.309  40.826  11.595
40056W        W12470  25.522  25.024   3.630
40057W        W12471  13.617   4.715   2.888
40058W        W12472   0.910   1.824   0.788
40059W        W12473  24.603  21.193  11.515
40060W        W12474  10.217  23.993   3.309
40061W        W12475  41.369  24.662   2.185
40062W        W12476  19.232  39.494   1.932
40063W        W12477  43.946  13.633  14.969
40064W        W12478  39.983  39.863   1.434
40065W        W12479  37.886  32.046   1.403
40066W        W12480  30.629  10.804  10.959
40067W        W12481  33.593  34.467  14.385
40068W        W12482  24.572  27.549   0.380
40069W        W12483  24.116   9.840   2.686
40070W        W12484   8.731  40.449  13.506
40071W        W12485  13.193   2.806   4.141
40072W        W12486  37.854  31.995   3.772
40073W        W12487   9.159  31.030  13.821
40074W        W12488  42.519  38.837  14.015
40075W        W12489  20.543  15.281   3.250
40076W        W12490  37.520   6.887  14.796
40077W        W12491  27.183  30.471  12.422
40078W        W12492   8.762  34.968   3.768
40079W        W12493  23.004  28.948  14.423
40080W        W12494  18.754  32.452  14.900
40081W        W12495  14.189   3.340  13.510
40082W        W12496  41.944  22.148  14.367
40083W        W12497  41.463   6.694  11.521
40084W        W12498  36.550   3.370  13.524
40085W        W12499  13.232  42.789   3.210
40086W        W12500  24.993  27.560  10.513
40087W        W12501  20.714  15.602   4.667
40088W        W12502  43.368   4.919   0.269
40089W        W12503  30.088   7.818   3.696
40090W        W12504  41.979  42.828   1.232
40091W        W12505   9.332   4.862  12.024
40092W        W12506  12.780  24.125   3.716
40093W        W12507  11.634  34.542   2.899
40094W        W12508  41.452  10.336  14.892
40095W        W12509  34.070  10.864   3.237
40096W        W12510  41.894  31.524   2.358
40097W        W12511  41.852  13.133   0.953
40098W        W12512  28.528  44.891  12.883
40099W        W12513  18.734   1.456  14.313
40100W        W12514  37.904  16.669  14.376
40101W        W12515  13.234  26.604  12.034
40102W        W12516  33.017  19.222  11.973
40103W        W12517   3.396  40.887  10.568
40104W        W12518  22.653  36.355   1.829
40105W        W12519  38.327  19.126   4.598
40106W        W12520  18.277  27.101   1.928
40107W        W12521   5.751  21.190   2.211
40108W        W12522  37.544  34.557  14.952
40109W        W12523  29.952   1.732  14.782
40110W        W12524  38.982  24.007   3.230
40111W        W12525  15.795  25.977   0.830
40112W        W12526   4.449  29.112   0.793
40113W        W12527  22.630  37.953  12.445
40114W        W12528  20.539  14.330   3.735
40115W        W12529  25.044   3.822  13.426
40116W        W12530   5.213  18.770  13.039
40117W        W12531  25.472  26.964   3.386
40118W        W12532  35.897  14.679   1.396
40119W        W12533  38.343  34.892   4.149
40120W        W12534  13.790  17.662   5.746
40121W        W12535   7.794   1.871   3.260
40122W        W12536  21.693  29.574   4.609
40123W        W12537  37.963  42.427   0.771
40124W        W12538  43.970  24.588  12.861
40125W        W12539  25.476  27.148  11.951
40126W        W12540  41.389  24.505   2.798
40127W        W12541  13.844  17.222  14.377
40128W        W12542   0.807  31.615   3.270
40129W        W12543   6.305   1.303   0.739
40130W        W12544  44.005  18.550   3.160
40131W        W12545  44.800  37.027   0.919
40132W        W12546  41.478  38.427   3.816
40133W        W12547  23.640  19.055  13.464
40134W        W12548  16.149   1.801   1.745
40135W        W12549   3.859  40.342  13.319
40136W        W12550  26.473   4.861   3.241
40137W        W12551  20.529   7.725  11.888
40138W        W12552   3.455  37.064  12.910
40139W        W12553  29.156  20.595  13.379
40140W        W12554  17.598  12.313  13.486
40141W        W12555  11.180  22.566  11.025
40142W        W12556  22.721  27.143  14.504
40143W        W12557  35.457  22.602   5.243
40144W        W12558  33.975  25.153   4.719
40145W        W12559  29.047   6.422  13.968
40146W        W12560   1.817  29.160   4.350
40147W        W12561   3.308  39.992  13.967
40148W        W12562  18.731  24.545   3.665
40149W        W12563  12.195  11.813  12.422
40150W        W12564   4.416  18.238   1.729
40151W        W12565  25.591  37.067  13.923
40152W        W12566  15.591  38.026   1.260
40153W        W12567  39.484  20.523  14.408
40154W        W12568  39.873  25.469  12.869
40155W        W12569  42.342  15.606   4.735
40156W        W12570  12.753  25.548   4.258
40157W        W12571   6.195  20.207   0.419
40158W        W12572   4.899  18.053  11.052
40159W        W12573  41.981  37.337   0.850
40160W        W12574  19.138  28.125   3.772
40161W        W12575  30.426   5.285   1.226
40162W        W12576   8.873  19.072  11.563
40163W        W12577  25.572  17.300   0.876
40164W        W12578  44.379  17.643  11.481
40165W        W12579  31.049  11.286   1.274
40166W        W12580  38.947  37.558  13.946
40167W        W12581  36.459  30.053  14.836
40168W        W12582  42.928  41.313   0.466
40169W        W12583  43.476  36.054  12.076
40170W        W12584   0.279  38.336   4.711
40171W        W12585  17.142  35.532  14.795
40172W        W12586   0.917  23.606  11.966
40173W        W12587  23.984  23.544  10.075
40174W        W12588   3.733  25.184   3.213
40175W        W12589  18.156   6.310  10.636
40176W        W12590  23.629  16.225  11.017
40177W        W12591  44.419  44.307   0.819
40178W        W12592  38.004  37.461  10.953
40179W        W12593  26.993  26.063  12.850
40180W        W12594  33.969  41.861  12.510
40181W        W12595   9.784  22.587  12.484
40182W        W12596  37.062  19.145  14.796
40183W        W12597   9.803  27.088  12.454
40184W        W12598  39.035  12.200   5.115
40185W        W12599  34.547  29.649   1.835
40186W        W12600  16.289  23.555   4.313
40187W        W12601  39.337  15.285   4.181
40188W        W12602  31.594  11.782  11.469
40189W        W12603  22.205  19.672  13.437
40190W        W12604  32.587   1.789  11.435
40191W        W12605  41.928  27.173  14.813
40192W        W12606  28.949  19.609   0.272
40193W        W12607  38.056  23.158   3.152
40194W        W12608   2.440  17.567  11.051
40195W        W12609  38.325  21.163  10.524
40196W        W12610  31.992  41.443  10.423
40197W        W12611   2.770  43.021   4.709
40198W        W12612  31.482   6.920  10.406
40199W        W12613   2.887  44.905   0.901
40200W        W12614  22.239  19.552   0.800
40201W        W12615   3.391   7.366  11.459
40202W        W12616  11.358  29.135   4.632
40203W        W12617  38.997   7.750   4.171
40204W        W12618  37.985  32.620  14.015
40205W        W12619   6.767  11.140   0.878
40206W        W12620  11.728  40.499  11.097
40207W        W12621  39.941  25.060  10.534
40208W        W12622  23.587  42.380   0.916
40209W        W12623   1.359  25.634  12.907
40210W        W12624  10.794  15.125  14.908
40211W        W12625   2.336  10.688   4.687
40212W        W12626  12.810  31.491  11.883
40213W        W12627  31.566   8.311  10.610
40214W        W12628  31.430  22.224   1.794
40215W        W12629   8.369  10.635   3.306
40216W        W12630   8.770  10.220  13.360
40217W        W12631  37.428  29.599   1.728
40218W        W12632  15.716  35.011  14.997
40219W        W12633  43.416  23.219   0.796
40220W        W12634  14.785   9.728   0.893
40221W        W12635  28.175  43.392  10.962
40222W        W12636  26.067   3.792   1.320
40223W        W12637   2.832  30.622  12.473
40224W        W12638  28.494  27.533   2.713
40225W        W12639  39.959   0.394  11.548
40226W        W12640  24.664  19.587   1.787
40227W        W12641  39.465  36.887   2.878
40228W        W12642  16.755  33.963   2.316
40229W        W12643   7.803  13.289  13.348
40230W        W12644  20.093   1.333   3.759
40231W        W12645   0.265   4.834  12.538
40232W        W12646  41.476   0.796   3.630
40233W        W12647  20.575  17.194  11.984
40234W        W12648  22.698  17.271   3.842
40235W        W12649  11.822  34.510  14.406
40236W        W12650  34.589  18.686  11.529
40237W        W12651  13.209  25.188   1.276
40238W        W12652   5.883  33.974  11.066
40239W        W12653   8.228  11.725   0.386
40240W        W12654  30.053  37.843   2.797
40241W        W12655  43.776  35.502   4.704
40242W        W12656  13.645  42.367   0.939
40243W        W12657  29.642  26.549  13.792
40244W        W12658  26.534  40.494  13.482
40245W        W12659   5.324  17.177   0.349
40246W        W12660   8.350   5.377  10.912
40247W        W12661  35.044   8.738   0.405
40248W        W12662   7.893  24.976  10.068
40249W        W12663   3.816  34.533  11.588
40250W        W12664  30.163  24.629  14.333
40251W        W12665  43.891  25.576  13.504
40252W        W12666  21.567  10.177   3.805
40253W        W12667  21.694   3.377   1.410
40254W        W12668  15.778   4.412  11.979
40255W        W12669  43.394  40.875   1.917
40256W        W12670  21.057  36.454  12.869
40257W        W12671  32.037  32.132  12.488
40258W        W12672  13.824  17.075   3.846
40259W        W12673  44.931   1.296  11.863
40260W        W12674  13.204  32.022   2.277
40261W        W12675  38.899  34.489   5.668
40262W        W12676  38.436  35.530  14.275
40263W        W12677  24.006  42.948   0.908
40264W        W12678  37.514  18.052  12.378
40265W        W12679  23.160  32.027  13.352
40266W        W12680  33.116  13.740  13.415
40267W        W12681  39.059  13.200  13.412
40268W        W12682  26.196  32.481   0.393
40269W        W12683   5.827  44.369   1.743
40270W        W12684  34.937  37.041   3.778
40271W        W12685  42.793  40.915   2.836
40272W        W12686  25.688  39.808  14.293
40273W        W12687  13.715   8.379  14.329
40274W        W12688   9.818  19.585   1.424
40275W        W12689  28.119  31.505   4.280
40276W        W12690  30.042  18.184  11.453
40277W        W12691  36.406  25.509  11.524
40278W        W12692  32.539   2.897  13.368
40279W        W12693  23.083  39.054  11.449
40280W        W12694  26.680  43.336  10.578
40281W        W12695  23.089  43.935   3.147
40282W        W12696  35.947  31.926   4.246
40283W        W12697   2.962  41.435   2.802
40284W        W12698  32.585   1.271  13.469
40285W        W12699   2.293  42.897   0.452
40286W        W12700  17.099   5.719  11.916
40287W        W12701   1.442   8.256  13.395
40288W        W12702  14.323  34.916  12.036
40289W        W12703  43.429  25.613  12.077
40290W        W12704   2.418   3.307   5.191
40291W        W12705  44.469  40.500  12.534
40292W        W12706  38.344  26.081   1.788
40293W        W12707  12.693   8.223   0.429
40294W        W12708  39.469  14.708   3.375
40295W        W12709  29.601  12.828  13.998
40296W        W12710  28.958  34.562  10.905
40297W        W12711  37.849  13.208   1.762
40298W        W12712  23.196  24.028  10.896
40299W        W12713  32.024  20.648   0.285
40300W        W12714  44.494   0.855   3.654
40301W        W12715  13.731  22.182  10.897
40302W        W12716  44.436  19.281  14.337
40303W        W12717  43.441  44.789  12.069
40304W        W12718  36.413   7.861   4.233
40305W        W12719  33.124  26.595   2.241
40306W        W12720  31.987  24.522  14.418
40307W        W12721  39.891  23.612   0.316
40308W        W12722  24.625  14.319  11.916
40309W        W12723  22.067  21.172  12.377
40310W        W12724  20.233   1.794   0.272
40311W        W12725  42.509  21.254  10.409
40312W        W12726   5.863  11.365   0.950
40313W        W12727  15.589  25.480  11.531
40314W        W12728  25.130   6.310  11.458
40315W        W12729  37.381  39.888   2.845
40316W        W12730  41.009   0.414  11.522
40317W        W12731  31.931  11.844  10.465
40318W        W12732  35.587  22.715  10.499
40319W        W12733  27.134  26.006  14.987
40320W        W12734  20.047  26.595  14.897
40321W        W12735   2.951  28.434  10.058
40322W        W12736  13.723   9.199   5.748
40323W        W12737   9.825   6.347  11.892
40324W        W12738  34.015   4.214  11.093
40325W        W12739  20.671  42.841  13.880
40326W        W12740  10.767  10.667   3.276
40327W        W12741   1.307  29.964   1.332
40328W        W12742  33.045  33.448   3.265
40329W        W12743  41.821   5.196   0.768
40330W        W12744  21.205  44.370  13.322
40331W        W12745   5.424  40.396   4.734
40332W        W12746  13.229   7.827  12.401
40333W        W12747  30.019  14.194  12.387
40334W        W12748   5.353  15.148   5.206
40335W        W12749   6.224   3.454  12.899
40336W        W12750  34.479  27.631   4.342
40337W        W12751  17.731   7.903  11.929
40338W        W12752  41.423  34.565  10.519
40339W        W12753  18.075  26.051  11.611
40340W        W12754  14.756  19.763  14.856
40341W        W12755  11.157  41.374  13.457
40342W        W12756  19.056  25.157  13.852
40343W        W12757  14.265  17.737   0.363
40344W        W12758   9.181  14.807   3.374
40345W        W12759  13.688  23.716   3.167
40346W        W12760   6.384  36.063   1.738
40347W        W12761  42.440   7.199  12.375
40348W        W12762  24.695  18.119  11.515
40349W        W12763  30.501  23.151   1.819
40350W        W12764  13.319  31.119   1.775
40351W        W12765   7.710  32.896   1.725
40352W        W12766  31.437  33.960  12.945
40353W        W12767  35.938   3.370   0.813
40354W        W12768  22.071  35.877   0.838
40355W        W12769  12.248   2.309  13.461
40356W        W12770  41.038   7.776   3.669
40357W        W12771  37.572  32.915  13.474
40358W        W12772  41.390  14.318   3.222
40359W        W12773  38.980  42.796  12.566
40360W        W12774  25.159  30.950  11.597
40361W        W12775  32.444  26.588  11.380
40362W        W12776  36.589  29.668  11.436
40363W        W12777   0.417  36.426   4.742
40364W        W12778   0.930  26.702  13.542
40365W        W12779  38.027   7.233   3.196
40366W        W12780  27.183  12.731  14.509
40367W        W12781   8.839  44.959  14.416
40368W        W12782  44.980  28.169   1.291
40369W        W12783  29.017  19.098  14.485
40370W        W12784   7.873  37.472  14.339
40371W        W12785  38.048  21.195   0.399
40372W        W12786  34.876  11.258   0.439
40373W        W12787  35.413  33.595  12.536
40374W        W12788  27.509  23.635  13.883
40375W        W12789  18.102  21.514   4.657
40376W        W12790  29.659  21.120  12.823
40377W        W12791  44.390   8.856   2.791
40378W        W12792  39.482  42.495   4.318
40379W        W12793   0.248  20.749   3.298
40380W        W12794  40.483   2.283   0.951
40381W        W12795   9.651  37.462  11.108
40382W        W12796  29.595   5.197  14.865
40383W        W12797  11.195  21.752  11.913
40384W        W12798  25.032  15.795  14.956
40385W        W12799  20.166  38.875   3.761
40386W        W12800  28.081  27.672  13.948
40387W        W12801  39.052  10.773  11.604
40388W        W12802  28.125  43.973  13.523
40389W        W12803  10.177  11.274   0.354
40390W        W12804  11.290  36.041   1.444
40391W        W12805  16.159   1.808  14.885
40392W        W12806  27.570  12.227  12.384
40393W        W12807  25.525  29.502  10.622
40394W        W12808  14.835  40.323  12.080
40395W        W12809  28.004  35.430  11.963
40396W        W12810  24.670   6.751   2.679
40397W        W12811  31.455  10.376   4.786
40398W        W12812  29.066  26.179  14.389
40399W        W12813  23.026  35.387   1.924
40400W        W12814  42.514  37.887   1.319
40401W        W12815  38.041   1.786   3.661
40402W        W12816  11.803  43.279  10.465
40403W        W12817   0.986  22.592  10.539
40404W        W12818   7.823   5.838   3.713
40405W        W12819  40.909   4.895   3.633
40406W        W12820  22.162  16.092   0.860
40407W        W12821  39.436   9.221  14.914
40408W        W12822   1.828  24.196  12.384
40409W        W12823  37.837  21.256  10.552
40410W        W12824   1.462  12.775   2.901
40411W        W12825  22.235  18.627  14.289
40412W        W12826  28.615  38.853  10.617
40413W        W12827   4.434  42.862  14.310
40414W        W12828   6.684  26.526  13.547
40415W        W12829  14.290   2.778   3.261
40416W        W12830  29.654  12.748  12.841
40417W        W12831  40.337   9.855   3.180
40418W        W12832  36.907  25.105  12.010
40419W        W12833  36.992  14.249   0.965
40420W        W12834  18.730  16.113   2.817
40421W        W12835  25.670  37.920  10.629
40422W        W12836  42.493  43.017  14.839
40423W        W12837  40.404   0.888   1.767
40424W        W12838  36.963  40.913   2.360
40425W        W12839  40.893   3.772  11.094
40426W        W12840  22.516  15.185   0.780
40427W        W12841  42.501  18.791   2.350
40428W        W12842   1.797  38.446  13.900
40429W        W12843  44.874  44.002  13.906
40430W        W12844  20.728  32.113   1.934
40431W        W12845  43.892  18.729   0.957
40432W        W12846  26.503  28.983   4.295
40433W        W12847   9.797  31.928  13.030
40434W        W12848   4.720  44.297  13.055
40435W        W12849   6.704  10.266  13.836
40436W        W12850  19.131   6.892   2.841
40437W        W12851   9.817  17.593   3.715
40438W        W12852   9.174  22.142  12.070
40439W        W12853  13.624  27.461  13.049
40440W        W12854  18.722  22.609  10.418
40441W        W12855  10.224  38.411  13.506
40442W        W12856  29.980   5.803   0.298
40443W        W12857  28.533  28.489   1.439
40444W        W12858  17.787  21.637  14.841
40445W        W12859  44.357  25.105  13.395
40446W        W12860  32.532  12.802  10.559
40447W        W12861   4.411  31.576  13.879
40448W        W12862  15.316  33.446  12.579
40449W        W12863  31.548  16.797  14.924
40450W        W12864  28.033  36.375  13.063
40451W        W12865  35.359  32.972   4.765
40452W        W12866  14.171  24.017  11.998
40453W        W12867  43.844  39.907   4.735
40454W        W12868  32.520   4.738   9.933
40455W        W12869  29.498  44.334   0.295
40456W        W12870  28.608  17.270   2.209
40457W        W12871  21.573  18.157  11.542
40458W        W12872  29.108  25.155   2.822
40459W        W12873  27.686  23.990  13.848
40460W        W12874  44.848   5.328   4.220
40461W        W12875  18.566  40.033   4.330
40462W        W12876  22.554   1.908   4.270
40463W        W12877   8.375   1.297   3.250
40464W        W12878  16.161   4.414  10.999
40465W        W12879  24.603  41.368  12.536
40466W        W12880  10.782   1.239  13.859
40467W        W12881  19.119   6.387  12.840
40468W        W12882  18.261   1.326  11.577
40469W        W12883   1.960  11.313  13.348
40470W        W12884  38.404  35.466  13.382
40471W        W12885  21.723   4.711   0.882
40472W        W12886  27.986  19.144  12.823
40473W        W12887  21.517  32.404   4.704
40474W        W12888   1.782  44.473   3.344
40475W        W12889  21.752  20.598  13.917
40476W        W12890   2.809  13.725   4.611
40477W        W12891  41.538  42.356   3.183
40478W        W12892  38.929  15.099  12.970
40479W        W12893  38.392   4.388  10.490
40480W        W12894  14.109  11.825  12.381
40481W        W12895  27.658  14.100  14.981
40482W        W12896  35.470  24.085  12.910
40483W        W12897  41.457  22.580  13.322
40484W        W12898  11.637  15.606  10.981
40485W        W12899  38.549  33.471  13.964
40486W        W12900   0.799  23.020   2.326
40487W        W12901  38.548  25.983  10.557
40488W        W12902  16.126  28.013   4.180
40489W        W12903  38.942  42.985   3.374
40490W        W12904   1.898   2.874  11.015
40491W        W12905  16.199   9.322   1.713
40492W        W12906  11.844  20.264  13.402
40493W        W12907  24.022  36.441  12.994
40494W        W12908  31.991  40.444   3.812
40495W        W12909  41.866   3.765  12.914
40496W        W12910  21.561  31.090   3.231
40497W        W12911   8.325  40.406  14.915
40498W        W12912   8.778  18.675  12.010
40499W        W12913  30.987  23.633   2.231
40500W        W12914  24.704  39.849   4.779
40501W        W12915   2.249  30.435   2.399
40502W        W12916  34.541  36.997   3.770
40503W        W12917  31.085   0.903  10.432
40504W        W12918  32.033  22.244  12.544
40505W        W12919  15.104  11.825  13.938
40506W        W12920  23.574  15.605   9.493
40507W        W12921  14.282  16.138  13.417
40508W        W12922   7.246  15.626   2.800
40509W        W12923  16.702   1.379   4.760
40510W        W12924  40.037  37.382   0.839
40511W        W12925  22.206  30.628   2.881
40512W        W12926  11.254  25.210  14.874
40513W        W12927  14.153  39.009   0.851
40514W        W12928  29.103   2.231   3.807
40515W        W12929   7.308  10.765   3.205
40516W        W12930  25.610  26.011  13.502
40517W        W12931   7.362  10.785  14.978
40518W        W12932  31.583  30.514   0.892
40519W        W12933  30.552   4.935  14.787
40520W        W12934  41.388   0.387  14.376
40521W        W12935   7.271   3.402  14.766
40522W        W12936   6.769  21.756   0.834
40523W        W12937   3.327  24.087  11.077
40524W        W12938  21.168  13.843  13.986
40525W        W12939   5.348   9.742  14.787
40526W        W12940  14.315  44.858   2.750
40527W        W12941  13.677  12.161   2.309
40528W        W12942   8.348  18.271  12.421
40529W        W12943   8.664  22.102   2.846
40530W        W12944  14.799  19.627  11.612
40531W        W12945  21.530   2.258   0.459
40532W        W12946  33.091   1.268   4.739
40533W        W12947  30.066  10.657   3.770
40534W        W12948   8.855  24.146  14.393
40535W        W12949  35.015   4.224  11.410
40536W        W12950   6.228  13.690  10.108
40537W        W12951  32.523  11.653  11.077
40538W        W12952  16.209  28.981   1.283
40539W        W12953  33.485  17.180  12.570
40540W        W12954  10.761  25.196  10.898
40541W        W12955  11.822  28.080   3.630
40542W        W12956  27.975  15.315   2.206
40543W        W12957  27.066  36.062  10.510
40544W        W12958   6.321   8.848   3.164
40545W        W12959  25.200   2.962  11.432
40546W        W12960  14.213   6.348  14.491
40547W        W12961   2.409   3.267   4.623
40548W        W12962  37.535  19.279  11.507
40549W        W12963  26.191  32.548   0.885
40550W        W12964  23.213  15.105   4.610
40551W        W12965  20.724  12.720   2.715
40552W        W12966  33.544  15.762   2.829
40553W        W12967  42.952  28.017  11.461
40554W        W12968  12.714   0.412   1.306
40555W        W12969   8.279  44.476   3.339
40556W        W12970   1.854  26.985  10.435
40557W        W12971   0.321  27.566   3.346
40558W        W12972  33.894  16.192   3.153
40559W        W12973  43.283  16.580   2.888
40560W        W12974  14.208  24.657   4.756
40561W        W12975   2.266  23.528  14.339
40562W        W12976   4.317  16.169   3.728
40563W        W12977  15.702  10.208   0.415
40564W        W12978  35.061  41.455  14.880
40565W        W12979  26.112  22.203  11.125
40566W        W12980  22.514  18.119  11.548
40567W        W12981  19.130  23.015   2.725
40568W        W12982  27.059  41.383   4.184
40569W        W12983  23.060   3.378   2.293
40570W        W12984  31.097  24.119   3.211
40571W        W12985  21.541  27.631  11.066
40572W        W12986  14.750   3.907  12.996
40573W        W12987  26.009  42.444   1.819
40574W        W12988  41.013  10.860  13.444
40575W        W12989  37.430   7.171  10.456
40576W        W12990  19.070   6.762   0.741
40577W        W12991   8.377  41.883  14.454
40578W        W12992  27.677  42.916   3.166
40579W        W12993  16.174  33.379   1.733
40580W        W12994  25.081  17.663  12.914
40581W        W12995   2.757   9.298   2.222
40582W        W12996  37.547  28.163   0.350
40583W        W12997   2.407  31.547   3.266
40584W        W12998   7.277  32.497   1.701
40585W        W12999  10.262  43.910  10.147
40586W        W13000  31.028  21.698  10.927
40587W        W13001  29.664  21.552   1.694
40588W        W13002  18.661  18.104  13.989
40589W        W13003  25.699  12.330  11.958
40590W        W13004   3.753   1.866   3.328
40591W        W13005  36.064   6.264   0.804
40592W        W13006  43.973   4.447  14.393
40593W        W13007  19.699  10.258  13.547
40594W        W13008   5.427  23.087  12.482
40595W        W13009  42.888   1.380   1.374
40596W        W13010  30.071  34.612   0.877
40597W        W13011  17.643  44.260   1.240
40598W        W13012  24.480  39.972  14.938
40599W        W13013  42.295  38.418   4.801
40600W        W13014   9.303  44.326   2.728
40601W        W13015   5.210   6.839   1.697
40602W        W13016   5.776  16.664   1.709
40603W        W13017  40.331   9.189  11.494
40604W        W13018  11.235  26.561   4.296
40605W        W13019  31.027  19.752   0.846
40606W        W13020   7.804  17.131  13.373
40607W        W13021  42.432  31.628   4.696
40608W        W13022  24.697  40.810   3.374
40609W        W13023  33.457  17.222   2.398
40610W        W13024  40.503  28.542   0.392
40611W        W13025  26.027  10.674   3.272
40612W        W13026  34.069  43.885  13.413
40613W        W13027  32.561  37.571   4.613
40614W        W13028  14.823  43.851   2.751
40615W        W13029  37.836  25.602   1.315
40616W        W13030  34.612  28.074   0.834
40617W        W13031  35.493  33.432   0.775
40618W        W13032  26.645   8.794  11.996
40619W        W13033  15.108  17.614  10.543
40620W        W13034  43.461   6.364  14.383
40621W        W13035  36.939  35.949  10.038
40622W        W13036  39.501   9.821  14.445
40623W        W13037  23.545  41.398   0.245
40624W        W13038  22.672  41.925  11.486
40625W        W13039   7.198   4.248  14.496
40626W        W13040   1.445  38.939   2.194
40627W        W13041  22.738  21.573   1.404
40628W        W13042  19.064  39.433  13.979
40629W        W13043  28.162  31.467   3.790
40630W        W13044   8.794  35.017   3.367
40631W        W13045  44.352  10.229  12.532
40632W        W13046  12.249  32.416  13.384
40633W        W13047  22.655  41.449  14.789
40634W        W13048  38.460  31.567   3.747
40635W        W13049  19.539   1.274   2.755
40636W        W13050  33.958  14.630   2.357
40637W        W13051  38.968  25.108   2.884
40638W        W13052  33.053  26.537   1.905
40639W        W13053  11.754  37.013  14.956
40640W        W13054   8.398   4.724  11.066
40641W        W13055  31.950  44.395   1.871
40642W        W13056  17.125  31.613  10.577
40643W        W13057  37.544   8.202  12.442
40644W        W13058  21.541  26.522  10.580
40645W        W13059  22.009  16.781  13.888
40646W        W13060   9.650  37.022   1.314
40647W        W13061  25.649  40.394  12.511
40648W        W13062  43.972   1.885   3.743
40649W        W13063   9.675  36.966  10.460
40650W        W13064  32.937  17.660  11.566
40651W        W13065   1.770  16.721   1.251
40652W        W13066   4.249  33.486   0.845
40653W        W13067  43.325   3.444  14.826
40654W        W13068  32.614  35.597   1.430
40655W        W13069  27.475   7.223   0.481
40656W        W13070   2.410  24.706   0.769
40657W        W13071  40.023  33.464   4.231
40658W        W13072   9.201  29.996   4.173
40659W        W13073   1.761  44.005   0.886
40660W        W13074  33.439  37.837   3.373
40661W        W13075  43.394  15.623   0.242
40662W        W13076   9.820  24.197   1.277
40663W        W13077  19.283  12.797  12.938
40664W        W13078  22.745   0.803  14.924
40665W        W13079   4.720  25.213  13.406
40666W        W13080   8.701  13.126   1.449
40667W        W13081  43.014   2.373   0.468
40668W        W13082  43.990   9.702   2.682
40669W        W13083  36.901  35.540  13.346
40670W        W13084  10.698  31.995   1.314
40671W        W13085  31.087  42.450  11.446
40672W        W13086  19.275  12.680   1.815
40673W        W13087  36.091  44.791  11.563
40674W        W13088  37.866  18.637  13.946
40675W        W13089   6.718  29.597   2.208
40676W        W13090  23.568  38.996  11.592
40677W        W13091   0.420   3.401   0.781
40678W        W13092  41.490  26.966  11.903
40679W        W13093  16.742  21.628  11.023
40680W        W13094  31.066  36.034   3.331
40681W        W13095  11.809  33.441  14.504
40682W        W13096  44.936  34.086  10.983
40683W        W13097  34.589  26.501   2.686
40684W        W13098  23.141  44.880   0.734
40685W        W13099   4.878   1.299   0.414
40686W        W13100  37.840  17.061   4.635
40687W        W13101  44.991  22.243   3.703
40688W        W13102  38.871  21.642   0.266
40689W        W13103  15.677  22.661  13.855
40690W        W13104  31.049  18.221  10.918
40691W        W13105  39.415   8.673  14.382
40692W        W13106  21.253  14.826  13.515
40693W        W13107   8.878  15.628   4.350
40694W        W13108   9.710  20.590   4.801
40695W        W13109   1.775  12.801   0.928
40696W        W13110  11.776  10.243  13.545
40697W        W13111  15.286  27.094   1.866
40698W        W13112   8.889  32.053  10.890
40699W        W13113  23.203  17.225  14.872
40700W        W13114   2.883  12.233  10.963
40701W        W13115  20.601  25.708   3.690
40702W        W13116  39.992   1.393   2.783
40703W        W13117   4.701  12.807   3.682
40704W        W13118   1.929  38.984  13.802
40705W        W13119  15.308  20.577   3.802
40706W        W13120  42.463  19.096   0.851
40707W        W13121  19.211  27.597  11.008
40708W        W13122  43.834  33.494   2.781
40709W        W13123  14.324  41.292  14.513
40710W        W13124  33.523  33.046   4.739
40711W        W13125  11.361   2.872   3.197
40712W        W13126  33.553  33.425   5.146
40713W        W13127  30.536  30.510  12.060
40714W        W13128   1.460  43.826  14.790
40715W        W13129  23.633  11.859  11.963
40716W        W13130  11.136   1.911   4.278
40717W        W13131  14.762  13.291  11.393
40718W        W13132  15.173  42.795  13.430
40719W        W13133  21.120  37.067  13.021
40720W        W13134  15.634  26.095   4.727
40721W        W13135  32.079  11.336  13.537
40722W        W13136  33.016   8.763   4.701
40723W        W13137  29.564  31.453   0.866
40724W        W13138  38.989   1.474   0.256
40725W        W13139  36.367  35.003   0.253
40726W        W13140   3.456   7.749   0.410
40727W        W13141  40.310  38.852   4.599
40728W        W13142  37.524  31.633   4.343
40729W        W13143  34.945  27.511   2.218
40730W        W13144  29.512  32.901   3.197
40731W        W13145  41.797   0.308  11.591
40732W        W13146  37.549   2.240   3.335
40733W        W13147  33.883  35.984   3.633
40734W        W13148   1.874  34.047  12.423
40735W        W13149  16.246   2.464   4.198
40736W        W13150   0.433  14.321  14.354
40737W        W13151  31.445  16.124   3.177
40738W        W13152  38.456  23.141  14.474
40739W        W13153  24.654  21.092   0.820
40740W        W13154  33.131  37.415  12.852
40741W        W13155  26.002  30.968  14.356
40742W        W13156  29.923  13.741  14.389
40743W        W13157  37.960   8.844  13.865
40744W        W13158  40.310  25.003   2.404
40745W        W13159  33.587   6.884  12.940
40746W        W13160  41.322   2.282   1.899
40747W        W13161  36.915  35.079  14.321
40748W        W13162  37.031  20.750  10.484
40749W        W13163  29.510  16.152  13.400
40750W        W13164  27.173  21.034  10.462
40751W        W13165  44.495  11.180   1.366
40752W        W13166  43.943  24.720  10.519
40753W        W13167  24.163  30.527  13.948
40754W        W13168  27.583   9.386  13.374
40755W        W13169  15.678  26.119  14.344
40756W        W13170   4.708  40.970  10.013
40757W        W13171   4.404  18.196   4.268
40758W        W13172  41.421  35.069  13.805
40759W        W13173   7.412  15.601   0.377
40760W        W13174  39.941  21.259   2.853
40761W        W13175   3.888  20.601   4.750
40762W        W13176  27.074  15.579  11.106
40763W        W13177   2.731  38.937  14.864
40764W        W13178  21.019   4.278   2.741
40765W        W13179  34.375   5.307   3.774
40766W        W13180  15.265  24.725   3.238
40767W        W13181  38.383  41.486   2.763
40768W        W13182  23.721  38.484  10.558
40769W        W13183  14.248  30.525  14.892
40770W        W13184  39.336   5.795   1.224
40771W        W13185  34.960  14.110   3.332
40772W        W13186  10.343   9.713   3.799
40773W        W13187  16.714  25.085   2.216
40774W        W13188  27.035  30.506  14.022
40775W        W13189  33.957  26.486  13.316
40776W        W13190  23.699   9.658   3.690
40777W        W13191   0.745  27.167   4.278
40778W        W13192  38.441  24.664   2.663
40779W        W13193  16.282  24.625   0.375
40780W        W13194  24.204  25.980   0.472
40781W        W13195   3.331  19.207   4.317
40782W        W13196   9.806  29.938   4.153
40783W        W13197  10.264  35.007  12.978
40784W        W13198  43.273  32.040  11.074
40785W        W13199  12.146  25.062   2.187
40786W        W13200   6.408  23.070  10.492
40787W        W13201  35.875  39.948  12.381
40788W        W13202  11.243  27.110  10.951
40789W        W13203  30.116   8.739   1.710
40790W        W13204  32.993  30.459  10.444
40791W        W13205  25.191   7.400  14.774
40792W        W13206   3.725  42.383   4.807
40793W        W13207  13.125  25.504  14.999
40794W        W13208  15.177  13.759  13.908
40795W        W13209  23.604   7.865   1.803
40796W        W13210   4.367  41.024  12.977
40797W        W13211  37.506  14.101  11.032
40798W        W13212  19.732   2.826  11.603
40799W        W13213  10.878  37.395   4.246
40800W        W13214  15.687  24.597   0.901
40801W        W13215  16.250  20.710  11.962
40802W        W13216  33.490  28.627  12.859
40803W        W13217  28.176  37.530   2.389
40804W        W13218  41.377  21.658  11.900
40805W        W13219   3.944  17.148  14.783
40806W        W13220  31.955  42.433  11.076
40807W        W13221  22.597  39.537   1.840
40808W        W13222  21.566  36.036   3.817
40809W        W13223   6.803  30.536   3.742
40810W        W13224   3.939   6.702  10.522
40811W        W13225  41.514  26.475   2.816
40812W        W13226  28.642  27.658   4.131
40813W        W13227  35.047  24.481   5.186
40814W        W13228  15.814  12.261   2.749
40815W        W13229  26.603   2.820   1.352
40816W        W13230  24.031  19.567   4.805
40817W        W13231  17.663   3.350  12.421
40818W        W13232  38.006   9.856   3.146
40819W        W13233  25.149   0.877   5.591
40820W        W13234  30.556  39.414  13.058
40821W        W13235  31.606  35.856   4.651
40822W        W13236  11.137  19.656   2.210
40823W        W13237  35.961   8.827   2.234
40824W        W13238   9.722  39.444   0.344
40825W        W13239  10.303   4.384  10.969
40826W        W13240  32.636  44.465   4.755
40827W        W13241  16.661   2.256  11.995
40828W        W13242  16.296  38.432   0.753
40829W        W13243   5.341  19.125   2.281
40830W        W13244  27.563  12.196  13.457
40831W        W13245   0.282  33.061   4.337
40832W        W13246  28.019   0.431   3.220
40833W        W13247   5.763  21.214  14.309
40834W        W13248  31.096  41.444   2.346
40835W        W13249   6.706   2.350  10.466
40836W        W13250   5.296  22.514  14.324
40837W        W13251  31.995  17.622   2.771
40838W        W13252  39.027   7.362  10.561
40839W        W13253  30.007  29.946   3.692
40840W        W13254   8.684  27.598   1.899
40841W        W13255  35.534  39.981  14.857
40842W        W13256  22.167   4.329   3.367
40843W        W13257  31.430  12.233  14.838
40844W        W13258  31.584  26.532  11.032
40845W        W13259  12.327  31.646   2.755
40846W        W13260  15.203  13.784   3.748
40847W        W13261  39.329  23.730   3.661
40848W        W13262   1.804   9.719  14.316
40849W        W13263  30.990   1.812  10.431
40850W        W13264  22.721  37.488  13.398
40851W        W13265  18.770  33.034   2.687
40852W        W13266  42.393  24.593  14.429
40853W        W13267  32.043  42.944   2.322
40854W        W13268  30.427  13.613   3.338
40855W        W13269  44.321   1.863   3.796
40856W        W13270  33.981  34.407  13.908
40857W        W13271  27.536  22.122   3.679
40858W        W13272  34.523  34.972   1.814
40859W        W13273  25.614  34.416   3.159
40860W        W13274   9.753  27.647   4.192
40861W        W13275  22.241  31.509   3.247
40862W        W13276  19.153  10.828  14.447
40863W        W13277  19.721  15.303  10.930
40864W        W13278  20.581  39.448   2.851
40865W        W13279   3.298  25.216   4.326
40866W        W13280  18.104  35.516  11.892
40867W        W13281  12.717  34.036  10.564
40868W        W13282  41.042  14.784  11.030
40869W        W13283   4.920   0.975   0.300
40870W        W13284   1.822  44.982   2.673
40871W        W13285   7.675  29.020   0.806
40872W        W13286  12.294  42.291   3.755
40873W        W13287   2.259  23.710   0.842
40874W        W13288  40.928  31.492  14.960
40875W        W13289  31.413  20.742   3.367
40876W        W13290  13.295   6.720   3.837
40877W        W13291  22.738  26.597   4.125
40878W        W13292  44.436  10.849  10.912
40879W        W13293  28.997  43.500   4.684
40880W        W13294  39.932  34.051   2.793
40881W        W13295   9.687  27.464   3.733
40882W        W13296  27.558  44.286  13.950
40883W        W13297  26.032  24.090   4.188
40884W        W13298  27.056  36.540   0.306
40885W        W13299  17.650  34.593   4.153
40886W        W13300   7.236  22.553  13.798
40887W        W13301  15.234  12.762  12.532
40888W        W13302  36.854   9.740   2.893
40889W        W13303  19.140  29.542  14.508
40890W        W13304  41.940  20.242  13.840
40891W        W13305  14.733  37.955   4.318
40892W        W13306  28.130  15.598  13.529
40893W        W13307  21.197  41.380   1.866
40894W        W13308  22.506  31.582   2.738
40895W        W13309  30.950  31.912   3.344
40896W        W13310  37.341   5.200  12.529
40897W        W13311  14.828  14.221  13.445
40898W        W13312  37.350  44.849   4.685
40899W        W13313  28.459  36.928  12.382
40900W        W13314   6.712  13.152   4.712
40901W        W13315  30.651  30.450   2.682
40902W        W13316  27.472   7.319  12.949
40903W        W13317  29.136  20.244  12.090
40904W        W13318  22.691   3.291   4.190
40905W        W13319  25.482  19.064  14.941
40906W        W13320  12.724  29.048   1.887
40907W        W13321  14.753   3.351  11.434
40908W        W13322  31.982  10.839  12.867
40909W        W13323  13.179  20.590  11.102
40910W        W13324  22.245  10.202   3.258
40911W        W13325  19.691  35.484  11.094
40912W        W13326  41.924   1.434  13.534
40913W        W13327  28.481   3.420   0.944
40914W        W13328  16.312  34.527  13.544
40915W        W13329   9.874  42.408   1.796
40916W        W13330  41.372  20.051  11.998
40917W        W13331  36.041  19.183   3.718
40918W        W13332  32.955   8.220  11.600
40919W        W13333  17.715   6.699   0.913
40920W        W13334  14.277  30.591  13.917
40921W        W13335  12.128  19.635   2.240
40922W        W13336  32.951   8.880  12.066
40923W        W13337  19.775  11.759  13.335
40924W        W13338   2.887   0.854   4.827
40925W        W13339  34.455  22.019   0.791
40926W        W13340   0.914  25.124   3.163
40927W        W13341  24.042  40.305  13.046
40928W        W13342  31.579  14.603  14.822
40929W        W13343  38.508   3.733   2.239
40930W        W13344  13.771  36.421  12.946
40931W        W13345  22.627   1.933   1.698
40932W        W13346  11.622  22.688   4.344
40933W        W13347   8.171  13.739  12.574
40934W        W13348  36.389  22.029   3.803
40935W        W13349  25.995  41.478   1.763
40936W        W13350  36.939  43.411  12.506
40937W        W13351  34.028  11.291  12.901
40938W        W13352  34.001   1.795  14.462
40939W        W13353  15.194  31.500  10.464
40940W        W13354  32.604  41.926  11.987
40941W        W13355  15.270  37.578  13.428
40942W        W13356  24.151  34.533  14.429
40943W        W13357  32.000   0.801  10.597
40944W        W13358   4.294  28.436  11.963
40945W        W13359  34.390  33.462   2.736
40946W        W13360   2.468   5.380   3.254
40947W        W13361   2.316  43.792   4.328
40948W        W13362   7.740  28.158   1.755
40949W        W13363  26.114  12.706   1.226
40950W        W13364  37.398  25.587   3.704
40951W        W13365  10.360  19.677   4.236
40952W        W13366  22.693  21.669  13.062
40953W        W13367   8.193   1.885   0.783
40954W        W13368  21.241  34.912   4.150
40955W        W13369  43.403  44.373   0.436
40956W        W13370  14.162  29.432  11.947
40957W        W13371  43.364  19.703  14.321
40958W        W13372  33.013  43.893  13.058
40959W        W13373  24.142  21.196  13.377
40960W        W13374   1.965  32.536  14.837
40961W        W13375  10.217   1.860   1.249
40962W        W13376   2.431  23.570  12.048
40963W        W13377   3.349  17.150   1.907
40964W        W13378  18.220  44.973   2.383
40965W        W13379  18.106   1.880  13.873
40966W        W13380  34.880  38.056   1.791
40967W        W13381  24.633  18.701  13.837
40968W        W13382  12.772   2.803  12.495
40969W        W13383  11.237  24.693   1.350
40970W        W13384  35.874  38.041   2.284
40971W        W13385  40.988  24.706   3.839
40972W        W13386  33.614  41.830  13.886
40973W        W13387  44.463  28.088  12.016
40974W        W13388  43.274  25.098  13.397
40975W        W13389   7.322  18.789   1.711
40976W        W13390  20.076   0.876   0.894
40977W        W13391  17.624   5.765   2.663
40978W        W13392  30.925  21.157  14.361
40979W        W13393  18.746  16.602   0.764
40980W        W13394  13.790  19.187   2.210
40981W        W13395  16.743  24.062   1.766
40982W        W13396  44.004  34.056  12.522
40983W        W13397  42.910  21.045  13.911
40984W        W13398  27.183  15.288   3.219
40985W        W13399  31.950  30.631   3.798
40986W        W13400  35.427   6.202   0.285
40987W        W13401  44.808  33.429   2.316
40988W        W13402  21.743  15.188  12.977
40989W        W13403  29.542  42.432   1.423
40990W        W13404  31.496   6.376  12.510
40991W        W13405  21.573   7.406  13.392
40992W        W13406   9.198  20.538   1.431
40993W        W13407  14.718  39.042   1.278
40994W        W13408   6.210  38.930  11.002
40995W        W13409  31.131  19.594   1.907
40996W        W13410  18.155   5.358   3.336
40997W        W13411  11.684   9.372   9.945
40998W        W13412  35.470  32.635   1.820
40999W        W13413  36.390  23.735   1.392
41000W        W13414  13.748  25.647   4.651
41001W        W13415   8.386  35.425   3.841
41002W        W13416   7.289  22.676   3.831
41003W        W13417  14.674  29.168  14.810
41004W        W13418  24.975  28.578  14.019
41005W        W13419  28.150  15.820  11.430
41006W        W13420   6.257  30.055  13.800
41007W        W13421  32.026  42.014   1.800
41008W        W13422  18.772   9.349  12.574
41009W        W13423  13.744   6.909   3.716
41010W        W13424   8.811  36.522   4.663
41011W        W13425  27.151   2.267   0.737
41012W        W13426  38.352  42.880   0.438
41013W        W13427  17.575  32.537  14.825
41014W        W13428  40.867  28.186   2.821
41015W        W13429   9.781  44.378  12.426
41016W        W13430  11.220  22.542  12.912
41017W        W13431   7.208  23.609  12.504
41018W        W13432  38.525  10.149   2.208
41019W        W13433   4.857   3.952   0.439
41020W        W13434  28.604  33.400  12.465
41021W        W13435   7.713  44.844   4.757
41022W        W13436  13.195  12.641  10.593
41023W        W13437   4.879  15.265  14.817
41024W        W13438  40.968   0.396  11.855
41025W        W13439  26.524  19.760  13.806
41026W        W13440  15.615  17.225   1.732
41027W        W13441  39.503  10.139  11.560
41028W        W13442  35.880  42.359   3.701
41029W        W13443   2.744  29.972   1.817
41030W        W13444  19.070  38.434  11.065
41031W        W13445   8.704   8.821  10.068
41032W        W13446  12.128  39.810   1.729
41033W        W13447   4.366  29.038   3.274
41034W        W13448  40.817  27.941   1.769
41035W        W13449  28.630   2.955   2.687
41036W        W13450  34.043  19.601   4.238
41037W        W13451  31.943  25.058  13.912
41038W        W13452   0.433  37.894  13.838
41039W        W13453  30.433  43.869   2.711
41040W        W13454   6.801  35.087   0.834
41041W        W13455  20.570  15.302  13.037
41042W        W13456  27.655  40.037  10.973
41043W        W13457  37.370   1.818   1.926
41044W        W13458  25.087  41.464   2.744
41045W        W13459   1.738  28.660   3.167
41046W        W13460   6.305  35.926  10.083
41047W        W13461  25.580  15.596   1.378
41048W        W13462   5.364  44.935   2.404
41049W        W13463   1.285  21.694  14.450
41050W        W13464   5.399  38.563   4.811
41051W        W13465  13.230  26.487  11.535
41052W        W13466   8.322  44.936   1.295
41053W        W13467  12.135   8.213   3.721
41054W        W13468  29.464   0.424  10.516
41055W        W13469   0.389  25.981  12.042
41056W        W13470  40.879  38.047  11.958
41057W        W13471  44.497  15.728   3.325
41058W        W13472  20.028  36.378   4.181
41059W        W13473  27.111   9.320  12.010
41060W        W13474  33.875  34.378   2.288
41061W        W13475   1.869  16.099  13.330
41062W        W13476  13.297  18.665  11.404
41063W        W13477  33.585  34.076   1.245
41064W        W13478  15.755  36.545  11.898
41065W        W13479  18.055  22.068   0.346
41066W        W13480  25.964  23.988   4.726
41067W        W13481  12.672  40.022   2.697
41068W        W13482  16.760  32.440   3.731
41069W        W13483  28.980  22.730   4.184
41070W        W13484   4.924  39.974   1.345
41071W        W13485  21.746  17.063   1.256
41072W        W13486  44.265  41.833  10.994
41073W        W13487  31.128   4.323  14.384
41074W        W13488   7.870  38.853  12.023
41075W        W13489  40.394  36.365  13.830
41076W        W13490   6.312  25.634  11.516
41077W        W13491  37.395  25.189  13.407
41078W        W13492  44.867   2.419   3.316
41079W        W13493   8.179  34.971   0.395
41080W        W13494  11.351  27.611  13.401
41081W        W13495  41.527  20.124   3.178
41082W        W13496  11.783  16.094  10.415
41083W        W13497   2.732  21.535  14.806
41084W        W13498  27.021   3.951   4.254
41085W        W13499  24.554   5.804   4.251
41086W        W13500   1.461   2.771   2.324
41087W        W13501  23.610   0.950   0.416
41088W        W13502  31.020  43.473  14.838
41089W        W13503   6.224  35.534  11.388
41090W        W13504   6.894  11.866   2.224
41091W        W13505   0.307   4.383  12.864
41092W        W13506  40.896  18.286  12.478
41093W        W13507  28.518  36.014  13.466
41094W        W13508   1.942   8.820   1.721
41095W        W13509   5.741  33.929   0.340
41096W        W13510  38.887   4.368   3.344
41097W        W13511  14.338  37.895   3.727
41098W        W13512  29.645   0.374   2.295
41099W        W13513  34.905   9.851  10.538
41100W        W13514  39.973   0.449  10.436
41101W        W13515  10.300  28.007  12.894
41102W        W13516  44.301  28.947   3.189
41103W        W13517  22.722   6.408  12.413
41104W        W13518  29.668  31.994   1.932
41105W        W13519  28.476  17.557   2.715
41106W        W13520  38.830  36.879  10.447
41107W        W13521  14.303  15.199  12.473
41108W        W13522  16.279  24.653   4.819
41109W        W13523  13.781  29.057  13.867
41110W        W13524  17.692  29.108   1.364
41111W        W13525  41.456  11.762  14.423
41112W        W13526  11.732  20.228  10.610
41113W        W13527  43.786   7.689   3.331
41114W        W13528  39.831  17.773  11.049
41115W        W13529  38.036  31.043   3.170
41116W        W13530  40.911  11.145   1.781
41117W        W13531  24.157  21.161  12.374
41118W        W13532  24.686   5.844   2.302
41119W        W13533  37.427  15.090   4.148
41120W        W13534  37.872   9.710   2.858
41121W        W13535  25.487   7.414   2.734
41122W        W13536  32.118   2.911   2.755
41123W        W13537  15.241  43.001   3.831
41124W        W13538  16.783  12.704   3.372
41125W        W13539   2.890  24.483   0.737
41126W        W13540   3.241  44.404   4.162
41127W        W13541   3.453  37.512  10.899
41128W        W13542   8.400  22.634  11.065
41129W        W13543  21.579  18.781   2.288
41130W        W13544  37.072   8.315   1.430
41131W        W13545   8.733  23.585   3.731
41132W        W13546  13.288  26.958  11.539
41133W        W13547  14.669  19.617   0.733
41134W        W13548  17.104  18.701   2.236
41135W        W13549  29.075  21.669  14.306
41136W        W13550  12.748  35.535   1.260
41137W        W13551  42.915  25.627   2.893
41138W        W13552  41.518  40.489   4.248
41139W        W13553   4.227  38.446   0.874
41140W        W13554  28.050  40.051   3.273
41141W        W13555  26.989  14.164  12.041
41142W        W13556  35.522   3.895  12.837
41143W        W13557  35.938  36.875   1.772
41144W        W13558  10.251  43.960   0.297
41145W        W13559  10.354  15.265  14.412
41146W        W13560   1.410  30.033  13.921
41147W        W13561   0.814  10.368  14.904
41148W        W13562   0.778  18.736   2.810
41149W        W13563  24.573   1.889   0.316
41150W        W13564  39.535  33.432  12.493
41151W        W13565  38.383  44.811  13.442
41152W        W13566   5.402   8.667   3.186
41153W        W13567  34.392  38.829  14.030
41154W        W13568  25.624  34.555   1.213
41155W        W13569  21.213   7.693   0.353
41156W        W13570   3.944  21.669   1.806
41157W        W13571  25.011  16.742   3.320
41158W        W13572  42.488  19.239  14.796
41159W        W13573  25.217   7.788   1.710
41160W        W13574  42.292  25.076   3.829
41161W        W13575   5.392  22.550  10.565
41162W        W13576  29.919  40.360  10.418
41163W        W13577   4.256  43.503   2.758
41164W        W13578  15.640   0.363  14.323
41165W        W13579  13.249   6.409  11.042
41166W        W13580   6.807  12.183   2.823
41167W        W13581  25.588  41.789   2.864
41168W        W13582   1.938  24.116  14.986
41169W        W13583  35.467  20.210   0.960
41170W        W13584  32.032  37.916   4.297
41171W        W13585  18.712  43.419   3.327
41172W        W13586  41.028  28.996  12.000
41173W        W13587  27.950  31.035  13.922
41174W        W13588  24.576  32.911  12.836
41175W        W13589  32.546  26.200  12.906
41176W        W13590  34.895  16.770  11.924
41177W        W13591  28.172  30.531   1.233
41178W        W13592  21.632  28.641  10.912
41179W        W13593  11.219  43.924   4.282
41180W        W13594  25.059  13.713  14.000
41181W        W13595  43.793   4.408   0.452
41182W        W13596  22.637  15.615  10.616
41183W        W13597   0.812   9.756   4.138
41184W        W13598  27.683  22.661  10.572
41185W        W13599  23.064  25.175   4.646
41186W        W13600  41.868   8.766  13.347
41187W        W13601  27.061  12.223   4.636
41188W        W13602   0.755  25.161  13.845
41189W        W13603  36.862  12.792  14.003
41190W        W13604   1.354  31.440  12.576
41191W        W13605  32.572   3.769  13.846
41192W        W13606   0.829  36.956   0.281
41193W        W13607   0.803  27.591  10.644
41194W        W13608  10.770  37.370  10.472
41195W        W13609  38.928  28.526   1.296
41196W        W13610  22.583  31.920   4.289
41197W        W13611  35.528   7.895   0.341
41198W        W13612  18.224  33.403  13.927
41199W        W13613  14.765  33.392   0.413
41200W        W13614   3.351  23.106   1.930
41201W        W13615  42.364  14.130   1.773
41202W        W13616  25.081  13.308   4.795
41203W        W13617  32.033  17.684  12.550
41204W        W13618   3.240  37.353   2.776
41205W        W13619  18.558  37.860   4.227
41206W        W13620  19.601  26.006   3.159
41207W        W13621  27.684  37.872   2.291
41208W        W13622  41.386  28.083  14.859
41209W        W13623  34.560  35.946   4.658
41210W        W13624  37.449  14.654  11.517
41211W        W13625   0.899  41.015   0.730
41212W        W13626  36.506  11.196  11.552
41213W        W13627  36.005  44.992   3.646
41214W        W13628   6.400  20.077  13.947
41215W        W13629  24.058  39.474   0.365
41216W        W13630  11.207   1.771   1.253
41217W        W13631   7.834  27.174  12.996
41218W        W13632  19.118  18.203  14.456
41219W        W13633  40.459  32.899   3.282
41220W        W13634  25.508   4.241  14.416
41221W        W13635  18.110  24.190  13.317
41222W        W13636   5.371  31.552  14.965
41223W        W13637  42.330   6.291  10.538
41224W        W13638  29.596  35.478   0.373
41225W        W13639  14.230  11.202  12.575
41226W        W13640  14.120  22.501  11.511
41227W        W13641   0.384   0.480   4.206
41228W        W13642  39.937  31.610  12.547
41229W        W13643  29.522  44.351   1.923
41230W        W13644  27.157  15.168  14.975
41231W        W13645  35.906   7.323  11.052
41232W        W13646  24.212  43.943  10.980
41233W        W13647  11.134  10.738   4.251
41234W        W13648   1.481  23.073   2.404
41235W        W13649  10.845  30.097  12.486
41236W        W13650  38.454  39.383  10.638
41237W        W13651  10.664  17.559  10.619
41238W        W13652  12.687  43.983  11.555
41239W        W13653  16.294  44.813  11.987
41240W        W13654  41.519  37.566   4.706
41241W        W13655  18.144  12.621   3.818
41242W        W13656  31.531  20.140  13.857
41243W        W13657  24.611   0.401  10.628
41244W        W13658  30.589  25.063  10.991
41245W        W13659  41.955  38.024   0.290
41246W        W13660  19.239  13.805  13.535
41247W        W13661  36.951  38.435   4.645
41248W        W13662   1.738  40.549   1.888
41249W        W13663  10.636  42.900   2.369
41250W        W13664  41.457  32.066   2.693
41251W        W13665  35.056  12.200  10.999
41252W        W13666  35.923  27.982  14.857
41253W        W13667  44.371  27.659   3.308
41254W        W13668  12.242  32.527   0.387
41255W        W13669  44.392  34.893  11.503
41256W        W13670  28.574  38.063   4.794
41257W        W13671  21.547  12.189   1.226
41258W        W13672   6.839  34.016  11.878
41259W        W13673  30.514   9.743  10.621
41260W        W13674  36.581  39.035  11.859
41261W        W13675   4.757  21.523  13.022
41262W        W13676  43.932   3.827   3.287
41263W        W13677  30.107   8.673   2.223
41264W        W13678  44.378  24.047  13.314
41265W        W13679  38.916  22.228   3.805
41266W        W13680  24.096  26.679  14.394
41267W        W13681  33.477   8.341  13.016
41268W        W13682   3.323   9.302   1.301
41269W        W13683  17.628  41.978  12.922
41270W        W13684  26.972  15.668   1.801
41271W        W13685  30.907  19.673  12.494
41272W        W13686  19.548   4.371  10.594
41273W        W13687  32.538  10.187  14.030
41274W        W13688  14.639  24.156   1.832
41275W        W13689  27.108  22.713   9.992
41276W        W13690  18.614  14.211   4.744
41277W        W13691  29.612  20.201   2.704
41278W        W13692  28.631  24.981  11.076
41279W        W13693  35.476  32.971  11.466
41280W        W13694  32.920  44.936   2.730
41281W        W13695  23.540  15.706  14.971
41282W        W13696  13.789  25.663   2.901
41283W        W13697  27.674  18.186   3.867
41284W        W13698  24.138   0.810   2.314
41285W        W13699  31.539  41.925  14.023
41286W        W13700  37.488  30.140   1.235
41287W        W13701   5.877  44.325   0.288
41288W        W13702  32.037  36.080  10.461
41289W        W13703   7.193  43.490  14.768
41290W        W13704   3.878  25.695   4.207
41291W        W13705  27.658  39.822  13.859
41292W        W13706  40.937   4.301  12.528
41293W        W13707  37.848  18.078  12.848
41294W        W13708  34.961  41.348  12.425
41295W        W13709  33.028  38.335   3.260
41296W        W13710  11.354  39.398   1.787
41297W        W13711   9.296  44.392  13.473
41298W        W13712  21.232  22.114  12.831
41299W        W13713  29.436  12.662  12.465
41300W        W13714  21.729  24.596   4.798
41301W        W13715  33.881  23.024  11.419
41302W        W13716  14.699  35.539  10.544
41303W        W13717  36.368  43.933  10.436
41304W        W13718  40.328  14.733  12.957
41305W        W13719  19.056  42.328   4.243
41306W        W13720  30.931  32.465  13.497
41307W        W13721  43.927  33.621   1.303
41308W        W13722  36.450   7.343   1.927
41309W        W13723  32.612  42.894   3.808
41310W        W13724  21.580  39.968  13.953
41311W        W13725  35.069  18.618  11.943
41312W        W13726  35.449  34.092  13.336
41313W        W13727   6.861  34.064  10.456
41314W        W13728   9.283  32.021  10.962
41315W        W13729  17.566  14.595  10.520
41316W        W13730  21.613  30.441  11.081
41317W        W13731  31.023  14.833   3.780
41318W        W13732  39.933  18.129   4.291
41319W        W13733   8.691   8.332  11.894
41320W        W13734  17.704  44.788  13.518
41321W        W13735  32.907  26.148  12.347
41322W        W13736  18.577   0.423  12.876
41323W        W13737  29.084  27.067  14.028
41324W        W13738  21.180  38.840  12.995
41325W        W13739  16.666  39.521   4.611
41326W        W13740  23.226  12.227   0.457
41327W        W13741  37.022  23.007   2.668
41328W        W13742  25.583  14.832   3.847
41329W        W13743  21.068  33.441  13.526
41330W        W13744  11.630  41.507   3.271
41331W        W13745  25.531  15.644  11.032
41332W        W13746  25.701   9.323  13.435
41333W        W13747  12.150   2.406  11.465
41334W        W13748  44.393  17.789   1.760
41335W        W13749  12.166  21.743  11.390
41336W        W13750  35.445  40.824   1.452
41337W        W13751  14.330   2.377   1.915
41338W        W13752  30.983  42.874  12.074
41339W        W13753   9.787   1.380  14.426
41340W        W13754  39.876  38.873   3.758
41341W        W13755   8.746  21.527   1.392
41342W        W13756  15.747  37.886   4.757
41343W        W13757  40.036  32.987  11.500
41344W        W13758  32.411  14.249  11.010
41345W        W13759  13.254   8.239   2.727
41346W        W13760  35.929  30.157   4.646
41347W        W13761  33.581  26.618   4.836
41348W        W13762  21.079   3.896   9.930
41349W        W13763  23.991  29.554  11.861
41350W        W13764  27.669  32.918  14.840
41351W        W13765   4.918  10.692   2.774
41352W        W13766  37.346   0.288  11.125
41353W        W13767  43.328  40.304   0.915
41354W        W13768  31.562  28.462  13.843
41355W        W13769  22.249  24.614   3.704
41356W        W13770  43.960  36.958  11.597
41357W        W13771   1.282  31.996   5.265
41358W        W13772   1.922  13.130   4.813
41359W        W13773  15.754  36.041   0.924
41360W        W13774  14.604  22.131   4.770
41361W        W13775  15.754  11.650   2.302
41362W        W13776  43.500  27.004  11.091
41363W        W13777  37.522  39.516   4.285
41364W        W13778  41.466  29.619   2.818
41365W        W13779  22.501   4.832   0.395
41366W        W13780   2.834  16.139  11.415
41367W        W13781  43.903  40.930  13.432
41368W        W13782  30.540   1.916   3.745
41369W        W13783   5.254  28.086   0.781
41370W        W13784  10.787   2.453  14.314
41371W        W13785  16.087  34.406  11.378
41372W        W13786   8.888   7.863  11.015
41373W        W13787  40.482   4.375  12.346
41374W        W13788  18.579  35.480  12.537
41375W        W13789  32.048   1.329  10.501
41376W        W13790  25.045  39.546  14.444
41377W        W13791  18.750  39.423  14.305
41378W        W13792  38.983  29.940  13.450
41379W        W13793   6.377  41.340  12.032
41380W        W13794  26.490  32.507   3.698
41381W        W13795   7.385   7.209  12.952
41382W        W13796  41.804  29.529  12.448
41383W        W13797  24.616  12.676  10.404
41384W        W13798  30.439   8.189   4.198
41385W        W13799  29.118  19.617   1.822
41386W        W13800  43.940   1.962  11.881
41387W        W13801  32.017   0.422   3.185
41388W        W13802  27.607   2.414  12.076
41389W        W13803  11.864  34.984  11.562
41390W        W13804  15.718  28.127   4.212
41391W        W13805   6.812  41.894   4.137
41392W        W13806  20.134  17.299  10.463
41393W        W13807  36.893  40.944  13.440
41394W        W13808  22.063  20.609   3.738
41395W        W13809  23.615  30.158  12.552
41396W        W13810  19.144   1.804  14.435
41397W        W13811   8.212  42.360   3.365
41398W        W13812  25.046  23.025   0.732
41399W        W13813  17.689   6.791   2.899
41400W        W13814   0.767  26.008   0.457
41401W        W13815  38.018   5.426  13.418
41402W        W13816  17.202  27.107   1.401
41403W        W13817   5.279  42.853  14.914
41404W        W13818  26.131  20.558   2.800
41405W        W13819   7.911  25.653  12.401
41406W        W13820  32.056  32.101   3.160
41407W        W13821  12.335  31.153  11.450
41408W        W13822  14.306  22.557  13.964
41409W        W13823   2.861  31.938   2.663
41410W        W13824   6.407  20.118  11.506
41411W        W13825  41.426  11.218  11.547
41412W        W13826  25.008   9.163   4.165
41413W        W13827  42.845   2.379   1.705
41414W        W13828  19.653  21.153  13.966
41415W        W13829  29.135  43.345  11.922
41416W        W13830  17.731  17.146  11.416
41417W        W13831   6.325  32.970  12.084
41418W        W13832  39.034  25.515  12.397
41419W        W13833  29.160  12.230   4.777
41420W        W13834  29.028   4.834  14.764
41421W        W13835   1.863  30.618   1.238
41422W        W13836  38.057  14.287  13.519
41423W        W13837  21.602  26.477   2.833
41424W        W13838  19.150   7.781   0.436
41425W        W13839  11.260   0.963  14.870
41426W        W13840  10.149  16.234   3.221
41427W        W13841  26.583  14.247   0.254
41428W        W13842  40.021  27.092  11.613
41429W        W13843  24.142   4.885   1.315
41430W        W13844  29.640  34.109  13.503
41431W        W13845  29.014   7.893   4.246
41432W        W13846  29.653  16.156   3.650
41433W        W13847  23.079  11.680  12.349
41434W        W13848  35.875  30.550  10.585
41435W        W13849  30.946  32.618   0.390
41436W        W13850  21.703  10.166  11.458
41437W        W13851  21.053   8.202  12.090
41438W        W13852  37.058  36.984  14.850
41439W        W13853  40.424   5.800   4.231
41440W        W13854  12.716   2.446   3.156
41441W        W13855  24.058   5.717  11.866
41442W        W13856  44.783  17.580   2.299
41443W        W13857  35.051   2.774   3.384
41444W        W13858  12.730  31.617   0.409
41445W        W13859  27.611  10.184  14.907
41446W        W13860  29.093  26.091  11.859
41447W        W13861  18.274   9.210  13.796
41448W        W13862  27.088  35.478  11.010
41449W        W13863  12.151   8.836   3.740
41450W        W13864  10.780  13.224   2.232
41451W        W13865  40.374   4.925   1.907
41452W        W13866  25.511  32.126  11.958
41453W        W13867   0.839  21.242  13.375
41454W        W13868   2.785  37.880   1.354
41455W        W13869  36.581  15.237  10.507
41456W        W13870  28.457  19.204   1.756
41457W        W13871   2.873   1.812   2.682
41458W        W13872   8.811  13.843  11.436
41459W        W13873  30.923  34.105   2.305
41460W        W13874  22.537  32.074   0.481
41461W        W13875  24.976  33.591  10.519
41462W        W13876  28.094  11.854   5.171
41463W        W13877  33.076  31.121  13.991
41464W        W13878  30.558  23.033   2.761
41465W        W13879   2.429   9.297  11.955
41466W        W13880  24.614   6.261   4.672
41467W        W13881  10.337  14.142  13.057
41468W        W13882  32.976  37.939   4.200
41469W        W13883  37.431   9.691  11.506
41470W        W13884  27.502  11.173  11.111
41471W        W13885  42.953  22.030   0.966
41472W        W13886  33.973   2.823  13.515
41473W        W13887  25.047  11.677  12.046
41474W        W13888  31.505  43.306  13.350
41475W        W13889  20.061   3.919   3.381
41476W        W13890  12.736   7.230  14.441
41477W        W13891  44.998  33.570  12.027
41478W        W13892   6.746   2.967   1.773
41479W        W13893  10.639   2.740   2.226
41480W        W13894   2.720  11.850   2.373
41481W        W13895  29.995  18.626  11.436
41482W        W13896  40.935  28.523   1.420
41483W        W13897  32.919   2.921   2.676
41484W        W13898  39.051  28.451  12.550
41485W        W13899  35.409  20.738   1.343
41486W        W13900  15.099   1.820   1.777
41487W        W13901  33.536   1.841   1.720
41488W        W13902  32.443  17.747   2.242
41489W        W13903  18.584   0.878  14.896
41490W        W13904  14.679   6.871  14.349
41491W        W13905  18.181   3.325  12.361
41492W        W13906  40.968   8.776   3.698
41493W        W13907  44.487   4.389  11.986
41494W        W13908  32.469  23.695  14.329
41495W        W13909   2.722  32.030   4.144
41496W        W13910  31.509  26.968  12.059
41497W        W13911   6.787   4.743   4.780
41498W        W13912  16.746  22.509  13.529
41499W        W13913  32.972  34.975  11.936
41500W        W13914  15.297  28.518  14.331
41501W        W13915   1.465  30.446   2.199
41502W        W13916  12.209  26.683   1.417
41503W        W13917  19.063   8.219   1.278
41504W        W13918  21.609  29.576   1.826
41505W        W13919  17.662  20.541  14.383
41506W        W13920  20.175  19.545   1.874
41507W        W13921  42.383  26.684   4.222
41508W        W13922  39.493  35.416   0.731
41509W        W13923   9.332  22.132  13.836
41510W        W13924  23.700   5.864  10.565
41511W        W13925  27.604  33.880  13.056
41512W        W13926   8.886  16.132  12.864
41513W        W13927  28.982  23.634  12.377
41514W        W13928  31.929  29.071  13.828
41515W        W13929  38.495  25.161  14.346
41516W        W13930  15.655  25.597  12.029
41517W        W13931  21.582  13.165   4.762
41518W        W13932  29.597  16.756  13.416
41519W        W13933  40.943  15.637   0.729
41520W        W13934   8.276  30.958  11.937
41521W        W13935  39.481  34.432  12.031
41522W        W13936  42.463   3.856   3.804
41523W        W13937  23.708  30.908  11.913
41524W        W13938  36.042  13.624   3.655
41525W        W13939  42.286  10.289  11.577
41526W        W13940  33.065  17.299  10.557
41527W        W13941   1.737  13.198  13.023
41528W        W13942  23.028  12.161   1.926
41529W        W13943  42.295   4.940  11.916
41530W        W13944   2.259  44.397   3.382
41531W        W13945  12.837  18.593  13.356
41532W        W13946   4.212  17.609   4.159
41533W        W13947  13.309  39.955  13.022
41534W        W13948   8.660  13.295  12.858
41535W        W13949  25.695   1.884   4.225
41536W        W13950  34.977  12.194   0.261
41537W        W13951  22.181   1.251  13.389
41538W        W13952  26.020  35.937  12.503
41539W        W13953  24.182  34.524  13.032
41540W        W13954  11.135  36.875  14.410
41541W        W13955  27.534  22.206   3.177
41542W        W13956  28.608  30.077  14.806
41543W        W13957  25.029  18.561   4.789
41544W        W13958   8.209   8.706   0.913
41545W        W13959  38.354  37.482   1.286
41546W        W13960  35.960  21.163   4.266
41547W        W13961  39.511  32.032   3.277
41548W        W13962  22.639   6.321   0.442
41549W        W13963   1.883   9.733   1.295
41550W        W13964  19.709  18.262   0.908
41551W        W13965  43.901  42.787   1.219
41552W        W13966   0.345  11.211   4.161
41553W        W13967   7.874  18.144  11.459
41554W        W13968   7.232  35.514  13.540
41555W        W13969  41.293  23.731  11.064
41556W        W13970  42.029  13.185   4.735
41557W        W13971   9.832  35.066  13.993
41558W        W13972  41.365   2.762  13.026
41559W        W13973   0.805   0.324  14.974
41560W        W13974  39.490  15.106  10.456
41561W        W13975  25.548  17.778   0.824
41562W        W13976  14.824  11.853   1.897
41563W        W13977  16.699  40.883  11.967
41564W        W13978  11.247  32.471  14.388
41565W        W13979  25.507  29.058   3.198
41566W        W13980  15.786  34.968  13.984
41567W        W13981  31.637  22.229  13.051
41568W        W13982  42.476   8.726   4.207
41569W        W13983   8.260  30.942   2.897
41570W        W13984  30.993   8.174   4.199
41571W        W13985  42.294   9.644   4.285
41572W        W13986  19.263   3.298  12.093
41573W        W13987   0.972  38.537   2.197
41574W        W13988  21.017  42.780  13.834
41575W        W13989  27.094  18.677   2.824
41576W        W13990  23.014  12.788   0.768
41577W        W13991   9.264  25.676  10.637
41578W        W13992  34.571  27.502  11.505
41579W        W13993  35.029   4.847  13.507
41580W        W13994  25.988  43.339   4.657
41581W        W13995  12.816  15.328   1.931
41582W        W13996  32.897  22.194   2.692
41583W        W13997  22.205  38.888   0.465
41584W        W13998   1.293  14.621   4.255
41585W        W13999  20.077  34.914   3.295
41586W        W14000  16.638  14.696  13.537
41587W        W14001  38.985  36.504  14.434
41588W        W14002  34.380  17.585   2.408
41589W        W14003  30.642  15.215   2.249
41590W        W14004  10.651  28.115  11.562
41591W        W14005   9.188  19.692  12.863
41592W        W14006  44.372  18.278  14.803
41593W        W14007  22.999   5.880   1.263
41594W        W14008   3.424   1.478   3.221
41595W        W14009  44.774  44.992  10.492
41596W        W14010  11.156  19.584  13.930
41597W        W14011  36.889  22.204  10.592
41598W        W14012  36.504  14.770   3.329
41599W        W14013  18.069  27.095   3.178
41600W        W14014  39.460  36.000   2.841
41601W        W14015  39.939  25.499  14.953
41602W        W14016   3.823   1.840   3.833
41603W        W14017  42.404  10.813   2.861
41604W        W14018  14.133  11.819   0.329
41605W        W14019  30.510   2.388  12.344
41606W        W14020  13.245  40.337  10.102
41607W        W14021   5.427  38.550   0.778
41608W        W14022  39.898  28.551   3.733
41609W        W14023  37.444  13.267   0.879
41610W        W14024  35.056   8.689  11.125
41611W        W14025   4.259  36.932  14.465
41612W        W14026  32.575  28.989  13.334
41613W        W14027   3.251   3.780  13.319
41614W        W14028   4.779   5.217   4.113
41615W        W14029  22.534  43.923   3.309
41616W        W14030  33.568  40.000   0.304
41617W        W14031   4.261  38.469  13.462
41618W        W14032  15.764  36.547  11.514
41619W        W14033  31.406   7.351   0.801
41620W        W14034   1.314  16.309  12.529
41621W        W14035  30.529  14.767  10.986
41622W        W14036  38.444  44.775   1.773
41623W        W14037  43.863  29.012  14.467
41624W        W14038  33.528  34.057   2.362
41625W        W14039  19.236  12.329   1.824
41626W        W14040  33.029  21.738  14.907
41627W        W14041   5.814  35.958   4.276
41628W        W14042  13.777  37.068   2.840
41629W        W14043  18.563  14.603  12.917
41630W        W14044   2.966   7.807  10.598
41631W        W14045  44.296  41.427   0.846
41632W        W14046  10.283  14.205   3.749
41633W        W14047  28.634  29.134  12.410
41634W        W14048   0.413  24.074   1.859
41635W        W14049   6.298  12.202  14.366
41636W        W14050  16.117  43.877   4.276
41637W        W14051  40.464  26.501   3.739
41638W        W14052   3.384  20.565  14.860
41639W        W14053   1.304   9.312  14.795
41640W        W14054  39.990  15.706   1.707
41641W        W14055  37.850  39.944   0.440
41642W        W14056   6.416   1.797   1.258
41643W        W14057  34.002  40.386   4.742
41644W        W14058  26.530  24.227  13.487
41645W        W14059  43.961   9.826  13.455
41646W        W14060  31.503   2.720  11.037
41647W        W14061  17.707  40.334  14.960
41648W        W14062  28.127  34.987  14.433
41649W        W14063  33.472  33.896  14.401
41650W        W14064  25.678  44.261  14.336
41651W        W14065  29.455  23.150   0.258
41652W        W14066   7.716  13.699  12.964
41653W        W14067   6.398   0.476   2.833
41654W        W14068  33.540  17.088  11.944
41655W        W14069  19.614  30.040   1.716
41656W        W14070  29.489  29.062  14.505
41657W        W14071  22.067   9.236   1.849
41658W        W14072  40.528   4.871   5.087
41659W        W14073  38.423  42.473   2.232
41660W        W14074  27.478  11.859  10.906
41661W        W14075   7.729  12.658   3.724
41662W        W14076  24.624  11.669  11.883
41663W        W14077  41.973  36.093  14.452
41664W        W14078   5.193  17.077  11.088
41665W        W14079  19.660  21.095  12.980
41666W        W14080  11.190  23.238  12.501
41667W        W14081  37.504  19.711   3.176
41668W        W14082   0.487  30.098  14.919
41669W        W14083   2.250  23.091   0.453
41670W        W14084   3.821  13.226   3.244
41671W        W14085  29.668  43.772   0.862
41672W        W14086  37.966  34.603  14.416
41673W        W14087   8.687  13.217   4.791
41674W        W14088  13.145  11.862   2.293
41675W        W14089  16.259  33.967   1.711
41676W        W14090  21.087  12.263  14.286
41677W        W14091   3.385  19.713   3.191
41678W        W14092  17.760  35.086  10.047
41679W        W14093  19.730  18.143  10.557
41680W        W14094  21.525  43.979   1.904
41681W        W14095   4.369  41.892  12.419
41682W        W14096  42.517  18.581  12.910
41683W        W14097   5.313  29.075   2.412
41684W        W14098  24.625  23.606   0.856
41685W        W14099   1.271  33.594   1.756
41686W        W14100  38.046  44.872   1.443
41687W        W14101  36.469  33.035   0.795
41688W        W14102  10.345  40.932  11.038
41689W        W14103  43.386   7.779   0.259
41690W        W14104  17.643  44.359  12.559
41691W        W14105  11.827  22.142   2.812
41692W        W14106  21.060  35.378   1.433
41693W        W14107  11.790  38.375   2.260
41694W        W14108  41.965  16.730   1.902
41695W        W14109  13.754  41.446  11.543
41696W        W14110   5.401  21.073  10.517
41697W        W14111   4.715   9.195   1.357
41698W        W14112  33.941   5.716   4.299
41699W        W14113  40.017   5.267  13.848
41700W        W14114  37.568  37.487  12.516
41701W        W14115   1.258  26.567   1.823
41702W        W14116  26.544   7.669   1.433
41703W        W14117   0.850  20.681  14.988
41704W        W14118   8.750  33.621  10.591
41705W        W14119  33.101  13.347   4.200
41706W        W14120  10.692  17.677   0.366
41707W        W14121  22.092  14.628   1.412
41708W        W14122  27.594  35.405  13.048
41709W        W14123  24.083  37.544  13.002
41710W        W14124  44.447  41.921   2.289
41711W        W14125  37.929  32.093   5.211
41712W        W14126  32.425  12.178   0.430
41713W        W14127  10.736   8.182  12.481
41714W        W14128  21.216  22.050   3.691
41715W        W14129  26.016  10.692  11.423
41716W        W14130  29.096  11.197  12.474
41717W        W14131   1.879  43.423   2.267
41718W        W14132   0.402  16.250   1.331
41719W        W14133  34.451   6.701  12.540
41720W        W14134  19.645   6.729   0.738
41721W        W14135   9.190  35.965  12.399
41722W        W14136   2.330  11.360   2.379
41723W        W14137  15.623  12.699  10.462
41724W        W14138  44.935  29.969   4.339
41725W        W14139  40.928  24.204  14.838
41726W        W14140   3.437  18.610   4.626
41727W        W14141   2.741  13.282   3.245
41728W        W14142  44.888  39.324  13.058
41729W        W14143  32.886  23.160   1.344
41730W        W14144  40.982  36.511   2.805
41731W        W14145  23.501  11.818   4.181
41732W        W14146  15.100  39.549   0.767
41733W        W14147  39.972  13.165  10.514
41734W        W14148   2.328  35.474  12.059
41735W        W14149   5.217  28.140   0.475
41736W        W14150  34.057  12.825   2.392
41737W        W14151  25.134  16.170  10.925
41738W        W14152  31.584  34.509   3.845
41739W        W14153  28.997  11.630  11.985
41740W        W14154  43.945  23.131  13.013
41741W        W14155  36.360   2.787   4.340
41742W        W14156   9.685  38.975  12.874
41743W        W14157   1.829   3.277  13.382
41744W        W14158  23.515   2.281  14.336
41745W        W14159   0.411  43.864  12.563
41746W        W14160  41.848   2.357   2.799
41747W        W14161   7.358  30.003   1.280
41748W        W14162   2.259  29.637  13.900
41749W        W14163  18.618  24.985  11.049
41750W        W14164  25.667   3.306  11.114
41751W        W14165  36.872   0.951  11.973
41752W        W14166  40.519  37.040  10.536
41753W        W14167   7.801   0.841   4.806
41754W        W14168  35.978  26.673   3.275
41755W        W14169   2.786   8.209  12.060
41756W        W14170  24.124  44.377   0.443
41757W        W14171  15.118   0.442  14.806
41758W        W14172  35.362   8.869  12.572
41759W        W14173  37.435  40.444  13.921
41760W        W14174  40.845   4.808  13.541
41761W        W14175  34.452  35.586  10.970
41762W        W14176  33.130  44.358   3.660
41763W        W14177   6.257  44.911  10.465
41764W        W14178  22.743  40.802  14.352
41765W        W14179  13.607  18.723  11.112
41766W        W14180  20.110  17.663   0.282
41767W        W14181   6.357  28.029   5.113
41768W        W14182  40.490  21.083   2.239
41769W        W14183   0.371  15.136  10.526
41770W        W14184  26.627  11.695   4.837
41771W        W14185   5.198  25.622  11.886
41772W        W14186   0.487  36.930  12.982
41773W        W14187  15.170  44.264  13.365
41774W        W14188  32.080  41.349  13.492
41775W        W14189  25.589   1.844   1.413
41776W        W14190   4.925  12.236  12.572
41777W        W14191  34.923  27.507  13.398
41778W        W14192  41.927  43.994   4.653
41779W        W14193  33.456  28.936  11.526
41780W        W14194  23.606  24.042   0.262
41781W        W14195   2.392  22.650  13.416
41782W        W14196  27.034  27.487   1.912
41783W        W14197  43.364   1.442  10.520
41784W        W14198  20.596   1.339   1.751
41785W        W14199  23.562  37.018   0.351
41786W        W14200  44.505  12.171   3.780
41787W        W14201   0.762  18.069  11.420
41788W        W14202  40.470  13.211   4.836
41789W        W14203  39.002  20.680   3.358
41790W        W14204  42.915  34.400  11.945
41791W        W14205  21.550   7.207  11.973
41792W        W14206  24.231  19.694  13.854
41793W        W14207  11.701  39.837  11.057
41794W        W14208   7.748   2.358   3.223
41795W        W14209  27.659   2.721   2.846
41796W        W14210   4.359   7.827   3.328
41797W        W14211  30.070  43.779   3.741
41798W        W14212  31.073  11.827  11.528
41799W        W14213   3.284  31.404  10.939
41800W        W14214  41.461  33.591  13.345
41801W        W14215  11.700  28.665   2.796
41802W        W14216  22.736  25.610  11.956
41803W        W14217  28.114  19.066  14.378
41804W        W14218  11.183   0.380   0.907
41805W        W14219  39.825  38.986  12.380
41806W        W14220  20.211  23.558  10.128
41807W        W14221   9.206  13.208   2.259
41808W        W14222  26.481  42.996   2.693
41809W        W14223  15.627  15.091   1.857
41810W        W14224  22.540  19.240  12.895
41811W        W14225  29.479  26.973  11.375
41812W        W14226   2.946  15.787   1.848
41813W        W14227   4.401  23.071   3.787
41814W        W14228  25.125  40.981  10.566
41815W        W14229   7.832  17.787  11.003
41816W        W14230   4.426  33.095   3.249
41817W        W14231  17.266  44.469  10.430
41818W        W14232   7.862  13.687   2.699
41819W        W14233  33.107  20.057  13.052
41820W        W14234  43.454  18.743  12.830
41821W        W14235  28.960  16.782   3.750
41822W        W14236   5.364  31.516  13.947
41823W        W14237  35.429  16.226   2.183
41824W        W14238  27.117   9.178  12.373
41825W        W14239   7.810  40.024   4.775
41826W        W14240  28.036  12.714  13.863
41827W        W14241   1.875   0.355   0.257
41828W        W14242  27.687  18.054  10.935
41829W        W14243   6.405  38.986   1.255
41830W        W14244  36.919  32.053   2.708
41831W        W14245  34.370   8.731  10.483
41832W        W14246  31.638  10.724   2.228
41833W        W14247   3.853  27.095   2.860
41834W        W14248  22.528  29.480   0.878
41835W        W14249  24.486  28.095   1.837
41836W        W14250   7.855   7.266   4.351
41837W        W14251  41.820  33.915  12.014
41838W        W14252  32.506   7.791   1.915
41839W        W14253  23.081  29.172  10.899
41840W        W14254  30.015  35.571  11.059
41841W        W14255  13.725   2.923   1.402
41842W        W14256  25.148  27.954  10.937
41843W        W14257  42.307  36.052  13.540
41844W        W14258  33.060   7.801  12.987
41845W        W14259  33.107  35.884   2.234
41846W        W14260   8.887  44.885  11.005
41847W        W14261  14.239  20.178   9.574
41848W        W14262  31.991   5.699  11.993
41849W        W14263  38.974  24.623  13.448
41850W        W14264  24.578  36.902   3.724
41851W        W14265  38.366  14.280  12.375
41852W        W14266   2.261  30.528   0.437
41853W        W14267  27.123  34.911   4.689
41854W        W14268   2.368  21.120   4.308
41855W        W14269  17.087   4.232  14.509
41856W        W14270  33.441   1.431  10.584
41857W        W14271  10.266  41.501   1.211
41858W        W14272  14.110  11.324   4.767
41859W        W14273  38.919  39.347  11.967
41860W        W14274   1.766  20.212   0.838
41861W        W14275  26.172  17.214   9.604
41862W        W14276  28.587   5.771  10.971
41863W        W14277  36.433  42.441  12.831
41864W        W14278  32.636   0.388  10.915
41865W        W14279  14.684  20.608   3.363
41866W        W14280  15.636   0.440  12.835
41867W        W14281  31.995  20.039   3.316
41868W        W14282  22.218  37.898   4.789
41869W        W14283   7.828  38.969  12.454
41870W        W14284  31.420  19.045   0.415
41871W        W14285  15.815  16.784   4.336
41872W        W14286  40.473  44.289  12.858
41873W        W14287  11.789   5.851  13.436
41874W        W14288  15.712   0.254   1.903
41875W        W14289   0.899  42.943  10.581
41876W        W14290  36.362  37.465  14.997
41877W        W14291  31.633  10.876   4.129
41878W        W14292   0.842  41.820  14.032
41879W        W14293   9.721  17.754  13.548
41880W        W14294  16.730  42.389   2.731
41881W        W14295  15.666  18.211   4.728
41882W        W14296  40.327  17.177   1.760
41883W        W14297  15.320   4.859   3.635
41884W        W14298  43.959  41.024   4.817
41885W        W14299  11.713  32.140   2.804
41886W        W14300  41.347   7.885   2.749
41887W        W14301  29.500  42.805  13.444
41888W        W14302  32.397  12.719  13.370
41889W        W14303  30.539  32.908  11.078
41890W        W14304   3.817  17.763   0.295
41891W        W14305  35.994  33.994  13.386
41892W        W14306   6.197  14.116  11.547
41893W        W14307  35.563  37.404  11.505
41894W        W14308   0.937   4.358   1.277
41895W        W14309  28.031  44.880  12.398
41896W        W14310  21.188   5.918  12.849
41897W        W14311   6.316  11.204   1.346
41898W        W14312  13.724  11.663   2.207
41899W        W14313  21.707  33.918  12.523
41900W        W14314  24.494  17.128  14.927
41901W        W14315  31.554  38.507   1.276
41902W        W14316  15.301  29.614   4.254
41903W        W14317  25.576  43.806   5.093
41904W        W14318  44.467  40.920  10.604
41905W        W14319  24.512  35.501   4.603
41906W        W14320  43.020  32.935  12.884
41907W        W14321   0.380  28.133   0.466
41908W        W14322  31.927  17.129   3.252
41909W        W14323  29.494  20.597   0.926
41910W        W14324  15.225   4.713  14.791
41911W        W14325  21.568  31.899  13.456
41912W        W14326  34.107  40.045   3.684
41913W        W14327   7.303  14.642   2.289
41914W        W14328  32.029  11.222   4.767
41915W        W14329  43.441   5.700  10.946
41916W        W14330  18.666  32.902  13.356
41917W        W14331  11.234  37.390   1.278
41918W        W14332  16.568  40.308   4.799
41919W        W14333  17.696  23.065  14.308
41920W        W14334  26.517  22.068  10.953
41921W        W14335  19.102  21.684   3.695
41922W        W14336  13.718  44.476   1.791
41923W        W14337  39.022  20.751  13.545
41924W        W14338  18.550  36.425   3.171
41925W        W14339  40.924   8.792  10.982
41926W        W14340  14.186  14.283   3.724
41927W        W14341  25.141  34.956  13.805
41928W        W14342  40.833   3.229  13.932
41929W        W14343  39.497  38.856   3.319
41930W        W14344  20.584  21.514   0.438
41931W        W14345  19.643  42.022  11.590
41932W        W14346  24.564  33.555  13.826
41933W        W14347  44.275  16.624   3.311
41934W        W14348   5.211  11.264  12.057
41935W        W14349  27.990  20.681   0.943
41936W        W14350   0.325  18.205  13.429
41937W        W14351  24.508  43.882  10.097
41938W        W14352   1.410   9.661   4.248
41939W        W14353  21.572   4.941   2.272
41940W        W14354  31.607  32.490  13.505
41941W        W14355  36.098   3.285  12.454
41942W        W14356  28.055  32.991   0.301
41943W        W14357  37.061   8.295  12.011
41944W        W14358  19.136   8.205  12.829
41945W        W14359  44.414  32.133  13.850
41946W        W14360  44.419  36.897  10.524
41947W        W14361   0.834  44.778  11.970
41948W        W14362  23.066  18.743   1.814
41949W        W14363  21.590   0.305  12.860
41950W        W14364  21.078  12.318   1.243
41951W        W14365  42.409  42.475  13.981
41952W        W14366  35.475  26.511   2.399
41953W        W14367  12.148   0.773  13.830
41954W        W14368  11.171   5.333   0.473
41955W        W14369   8.380  36.552   2.822
41956W        W14370   0.843  26.954  10.616
41957W        W14371   1.334  37.885   1.820
41958W        W14372  27.111  43.499   0.249
41959W        W14373   0.927  22.996   1.710
41960W        W14374  17.635   8.856  14.473
41961W        W14375  11.824   4.906  11.995
41962W        W14376  14.708  15.592  11.441
41963W        W14377  32.889  38.018   2.691
41964W        W14378  23.033  30.577   3.370
41965W        W14379   3.868  20.734   4.143
41966W        W14380  11.671   0.492  13.356
41967W        W14381   0.364  21.139  14.771
41968W        W14382  26.953  33.473   0.355
41969W        W14383  18.075  15.784   2.680
41970W        W14384   4.876  27.145  10.645
41971W        W14385  20.541  11.683   0.833
41972W        W14386  17.205  34.381   0.450
41973W        W14387  28.634  36.529   1.807
41974W        W14388  38.840  42.303   2.184
41975W        W14389   5.371  41.300   1.445
41976W        W14390  13.778   5.435   2.242
41977W        W14391  27.135  30.968  13.992
41978W        W14392  31.475   1.842  10.931
41979W        W14393  21.110   5.845  10.442
41980W        W14394  28.675  33.006  12.483
41981W        W14395  36.472  32.633  13.053
41982W        W14396  11.290  29.606   4.194
41983W        W14397  41.951  29.622   4.250
41984W        W14398  41.424  44.387   3.174
41985W        W14399  44.795  10.636  11.117
41986W        W14400  17.788   1.438  11.568
41987W        W14401   9.271   6.254   0.732
41988W        W14402  18.137  31.558   4.261
41989W        W14403  39.530  33.381   2.707
41990W        W14404   9.809  16.236  10.979
41991W        W14405   2.424  40.899  14.483
41992W        W14406  22.173   0.776  12.865
41993W        W14407  29.572   1.760   2.374
41994W        W14408  16.624  40.804   4.649
41995W        W14409   0.841  27.580  14.003
41996W        W14410  27.118  16.596   0.314
41997W        W14411  22.597   9.197  13.887
41998W        W14412  24.038  19.623  14.341
41999W        W14413  21.156  19.072   2.317
42000W        W14414  30.040  16.765  10.494
42001W        W14415  34.871  18.788  11.589
42002W        W14416   0.954  19.239  14.334
42003W        W14417  29.961  36.089   2.184
42004W        W14418  37.920  34.481  14.891
42005W        W14419   2.440   4.418   2.739
42006W        W14420   6.356  11.723  12.999
42007W        W14421  20.187  19.540   2.389
42008W        W14422   1.387  28.050   3.352
42009W        W14423   9.164  37.544   3.769
42010W        W14424  26.641  26.084   2.672
42011W        W14425  16.180  10.712   2.722
42012W        W14426  37.949  18.635  10.524
42013W        W14427  29.139  41.485   3.827
42014W        W14428  36.509  44.371   2.202
42015W        W14429  25.576  21.621   2.402
42016W        W14430   1.855   1.737  13.856
42017W        W14431  17.775  24.530   2.769
42018W        W14432  39.411  10.673  10.929
42019W        W14433   7.213  38.509   3.354
42020W        W14434  16.572  32.449   4.719
42021W        W14435  40.307   7.320   4.265
42022W        W14436   2.952  27.462  10.561
42023W        W14437   2.236  25.077   3.867
42024W        W14438  25.149   0.359   3.246
42025W        W14439  11.656  30.613  12.047
42026W        W14440  10.256  42.370  11.077
42027W        W14441  18.079  12.770  11.571
42028W        W14442   5.341  26.697   4.780
42029W        W14443  34.484   5.822   4.140
42030W        W14444   1.411  25.997   0.742
42031W        W14445  15.313  16.080  13.400
42032W        W14446  14.690  34.383  11.085
42033W        W14447  14.629  25.112   2.857
42034W        W14448  34.985  15.726   3.220
42035W        W14449  10.734  13.603  14.914
42036W        W14450  41.009   3.946  13.457
42037W        W14451  41.441  17.195  14.286
42038W        W14452  39.331  27.588  14.968
42039W        W14453  31.418  31.131  14.879
42040W        W14454   1.316  19.121   0.786
42041W        W14455  31.112  33.480   1.901
42042W        W14456  43.965  25.603   4.792
42043W        W14457  22.059  16.276   5.704
42044W        W14458  34.553  41.536   0.374
42045W        W14459  21.610  43.435   2.682
42046W        W14460  13.698   3.923  11.019
42047W        W14461  10.676   7.667  13.420
42048W        W14462  43.833  19.045  14.910
42049W        W14463   2.312  21.065   2.339
42050W        W14464  34.886   7.681  10.994
42051W        W14465  31.937  25.700  10.416
42052W        W14466  26.180  38.479   1.845
42053W        W14467  41.311  11.369   0.819
42054W        W14468   7.904  25.526   0.927
42055W        W14469   9.856  26.095   1.287
42056W        W14470  19.181  18.780   4.269
42057W        W14471  10.853  39.431  11.086
42058W        W14472  16.239  27.188  12.959
42059W        W14473  36.959  33.053   1.882
42060W        W14474  16.149  40.532  13.860
42061W        W14475  32.061  42.424  13.940
42062W        W14476   8.816   7.360   3.739
42063W        W14477   4.369  34.103  11.868
42064W        W14478  43.379  30.998   2.862
42065W        W14479  19.594  28.671   4.220
42066W        W14480  36.089  22.221   2.875
42067W        W14481  41.021  37.050   0.365
42068W        W14482  27.590  16.177   0.380
42069W        W14483  34.387  44.309   1.333
42070W        W14484  34.919   8.895  12.905
42071W        W14485  41.971  44.888   1.811
42072W        W14486  14.201  10.870  12.015
42073W        W14487  14.593  24.623   3.312
42074W        W14488  25.162  38.062  12.936
42075W        W14489  34.582   2.803  12.427
42076W        W14490  25.139  42.520   1.865
42077W        W14491   3.385  41.807   3.863
42078W        W14492  16.228  33.033  11.963
42079W        W14493  39.822  17.617   2.816
42080W        W14494   5.310  41.488  10.438
42081W        W14495  21.023  22.133   1.924
42082W        W14496  17.101  33.554   0.835
42083W        W14497  26.476  42.843   4.804
42084W        W14498  36.500  38.960  12.402
42085W        W14499  12.827  38.015   4.328
42086W        W14500  10.351  39.340  11.594
42087W        W14501  23.669  22.563  13.941
42088W        W14502  31.945  12.794   0.350
42089W        W14503  18.668  14.332   3.659
42090W        W14504   9.881  10.297  14.402
42091W        W14505  35.445  24.056  10.912
42092W        W14506  42.286   2.317  10.457
42093W        W14507  21.631  21.024  10.443
42094W        W14508  16.198   4.711  11.558
42095W        W14509  28.965   1.290  14.380
42096W        W14510  22.737  18.747   0.481
42097W        W14511   1.452   1.939  13.941
42098W        W14512   8.736  22.649   4.792
42099W        W14513  26.659  26.603  11.881
42100W        W14514  40.510  16.644  14.788
42101W        W14515   2.890   9.653  11.871
42102W        W14516  19.187  27.622   4.672
42103W        W14517  10.766   3.368   4.209
42104W        W14518  13.172  29.173  11.463
42105W        W14519  28.174   4.327   1.857
42106W        W14520   5.281  30.033  10.602
42107W        W14521   4.884  20.096  10.536
42108W        W14522  42.425   7.298   4.740
42109W        W14523  25.690   3.725   2.341
42110W        W14524   0.856   2.431   2.851
42111W        W14525  43.421  40.517  11.972
42112W        W14526  10.226  11.344  12.545
42113W        W14527  29.053  19.673   4.349
42114W        W14528  29.640  27.982   4.819
42115W        W14529   1.367  40.931  10.609
42116W        W14530  22.057  27.480  14.353
42117W        W14531  24.119   1.376  10.577
42118W        W14532  40.844   8.699  11.881
42119W        W14533   1.256  25.559  13.489
42120W        W14534  23.643  43.859  10.972
42121W        W14535  30.637  24.526   4.736
42122W        W14536  35.479  18.107  13.014
42123W        W14537  25.498   4.716   2.409
42124W        W14538   9.876   4.729  13.008
42125W        W14539   7.322   0.477  12.915
42126W        W14540  23.026  16.724   3.224
42127W        W14541   0.965  30.144  11.939
42128W        W14542  22.623   7.181   0.429
42129W        W14543  16.717  12.360  13.896
42130W        W14544   7.278  35.925  13.342
42131W        W14545  14.252  35.459  10.633
42132W        W14546  19.780   0.808  14.997
42133W        W14547   7.271  11.687   0.866
42134W        W14548  18.780   9.734  13.865
42135W        W14549  21.632  39.480   2.734
42136W        W14550   2.931  11.632   4.174
42137W        W14551   1.852  30.998  13.426
42138W        W14552   2.383  27.008  14.013
42139W        W14553  42.303   8.694   3.722
42140W        W14554  22.576   4.759  11.576
42141W        W14555  33.560  19.544   1.217
42142W        W14556  15.284  29.643   4.658
42143W        W14557   9.187  38.857   0.920
42144W        W14558   1.307  33.567  14.307
42145W        W14559  14.718  12.355   4.325
42146W        W14560  19.169   6.863  11.974
42147W        W14561  27.016   2.309  14.907
42148W        W14562  30.659  10.649  13.940
42149W        W14563   9.183   7.236   4.705
42150W        W14564  35.097   4.729  10.042
42151W        W14565   8.228  15.256  12.455
42152W        W14566  32.633  30.648   4.193
42153W        W14567  16.309  27.981   1.922
42154W        W14568  32.397  18.590   0.265
42155W        W14569  44.903  16.672   3.183
42156W        W14570  28.465   9.726  11.482
42157W        W14571  14.675  27.042  13.923
42158W        W14572   9.372  12.248   2.200
42159W        W14573  24.073  38.858  14.439
42160W        W14574   2.796  35.933  14.317
42161W        W14575   8.833  11.158  12.407
42162W        W14576  18.155  42.978   0.831
42163W        W14577   7.708   9.889  12.076
42164W        W14578   4.344  37.930  13.394
42165W        W14579  40.027  12.227   4.154
42166W        W14580   7.757  44.969  11.907
42167W        W14581   6.861  18.616  13.976
42168W        W14582  40.804  38.820   2.305
42169W        W14583  44.494  22.147   1.848
42170W        W14584  28.527  15.620   1.272
42171W        W14585  33.083  39.967  11.105
42172W        W14586  26.974  42.323   1.255
42173W        W14587  25.063  24.176  14.758
42174W        W14588   8.202  23.231   2.218
42175W        W14589  44.271  44.971   2.232
42176W        W14590   7.409  33.125   0.901
42177W        W14591  26.593  28.962  14.759
42178W        W14592  42.793   1.254   3.316
42179W        W14593   5.404  32.467  12.937
42180W        W14594   4.257  39.915   9.940
42181W        W14595  14.294  27.968   1.707
42182W        W14596  40.450   8.685  10.416
42183W        W14597  23.159  41.852  12.556
42184W        W14598  40.354  33.415  12.507
42185W        W14599  30.988  21.036   2.372
42186W        W14600  36.440  16.712  10.563
42187W        W14601  30.624  44.762   0.889
42188W        W14602   7.265  15.284  11.538
42189W        W14603  30.009  18.287   1.904
42190W        W14604  25.593  35.028  11.426
42191W        W14605  28.587  13.773  12.351
42192W        W14606  15.601  31.448   1.253
42193W        W14607  25.481  43.996  13.982
42194W        W14608  30.924  24.982  12.569
42195W        W14609  24.601  30.154  10.989
42196W        W14610  43.302  25.132  13.928
42197W        W14611  14.274  37.361   4.265
42198W        W14612  42.935  19.053  12.875
42199W        W14613  36.528  25.074   3.786
42200W        W14614   3.382  26.159   9.991
42201W        W14615  28.474  27.540   1.889
42202W        W14616  31.564  34.464  13.475
42203W        W14617  25.152  15.162   1.260
42204W        W14618  43.358  12.727   1.431
42205W        W14619  30.508  41.915  11.470
42206W        W14620  40.361   3.813   0.843
42207W        W14621  30.441  18.596  14.856
42208W        W14622  19.256  20.536  12.942
42209W        W14623  40.000  44.926  14.816
42210W        W14624  26.966   4.904   9.934
42211W        W14625  41.939  27.185   2.692
42212W        W14626   6.705  39.545   3.665
42213W        W14627  43.958  10.167  10.923
42214W        W14628  43.419  34.867   4.139
42215W        W14629   8.324   1.743  10.514
42216W        W14630  16.798  44.500  13.060
42217W        W14631  38.529  28.547  11.117
42218W        W14632  23.574  40.970  13.823
42219W        W14633  26.574  38.843   0.929
42220W        W14634  28.030  20.641  13.355
42221W        W14635  18.764  11.285  11.600
42222W        W14636  18.218   8.343   3.737
42223W        W14637  39.450  13.127   3.739
42224W        W14638  40.343   4.429  11.540
42225W        W14639  40.000   5.254   4.792
42226W        W14640  14.604  15.732  14.443
42227W        W14641  24.557   7.863  10.423
42228W        W14642  22.206  26.046  10.497
42229W        W14643  18.115  20.029   1.727
42230W        W14644   4.782  36.999  12.381
42231W        W14645  33.597  16.173  14.996
42232W        W14646  35.947   3.853   2.780
42233W        W14647  42.295   5.430  14.458
42234W        W14648  33.075  17.274  12.087
42235W        W14649  43.011  43.328  10.581
42236W        W14650  44.479  35.399   0.814
42237W        W14651  35.903   5.312  14.958
42238W        W14652  22.138  22.239  14.939
42239W        W14653  38.865  36.375  12.347
42240W        W14654  22.250  34.417  12.970
42241W        W14655   6.311  21.162  13.045
42242W        W14656  30.565  14.274   0.426
42243W        W14657  33.028  34.878  14.378
42244W        W14658  43.493  41.906   0.836
42245W        W14659  30.557  27.043  14.394
42246W        W14660   0.772  12.147   3.847
42247W        W14661  17.783  41.896   1.911
42248W        W14662  31.146   3.388   1.895
42249W        W14663  36.518  12.278  11.540
42250W        W14664  14.275  23.191  11.046
42251W        W14665  39.404  39.441   1.419
42252W        W14666  21.522  41.534   1.389
42253W        W14667   6.260  40.053   1.704
42254W        W14668  39.893  40.423  13.526
42255W        W14669  29.065   1.941  12.402
42256W        W14670  26.052  24.093  14.406
42257W        W14671   9.716  32.065   4.203
42258W        W14672  37.977  10.704   3.835
42259W        W14673  27.662  27.154   1.269
42260W        W14674   6.888  42.462  11.060
42261W        W14675  31.476  38.488   3.180
42262W        W14676  26.124  15.153   0.875
42263W        W14677   1.928   9.809  13.500
42264W        W14678  40.001  42.900  10.519
42265W        W14679   0.934  32.016   1.291
42266W        W14680  16.619   8.220   0.257
42267W        W14681   7.349  11.853   1.862
42268W        W14682  15.636  12.148  13.022
42269W        W14683  10.383  20.710  11.932
42270W        W14684  11.775  19.606   0.285
42271W        W14685  35.542  26.022   2.742
42272W        W14686  36.491  32.959  12.846
42273W        W14687  39.557  30.038  11.910
42274W        W14688  16.697   3.862   2.177
42275W        W14689  18.666   7.832   2.692
42276W        W14690  38.337  40.352  12.505
42277W        W14691   1.398  36.504   3.168
42278W        W14692  41.942  29.141  10.604
42279W        W14693  12.253  29.576  11.552
42280W        W14694  20.235  22.144  10.486
42281W        W14695  43.346  17.274   3.342
42282W        W14696  34.392  28.439  14.860
42283W        W14697  38.931  19.728   1.853
42284W        W14698  29.017  18.772  13.048
42285W        W14699   0.411  32.472   0.811
42286W        W14700  13.272  26.178  12.393
42287W        W14701  16.614  20.554  11.516
42288W        W14702  21.052  17.171  10.985
42289W        W14703  40.945  34.951  13.430
42290W        W14704  11.816   5.910  10.992
42291W        W14705  17.705  42.905   1.380
42292W        W14706   6.879  14.614  11.494
42293W        W14707  22.099  40.440  12.344
42294W        W14708  21.158  41.503  14.497
42295W        W14709   7.870  33.943   2.310
42296W        W14710  27.646  32.515  13.008
42297W        W14711   4.736   1.357   4.806
42298W        W14712  37.393  35.871  12.569
42299W        W14713  36.892  34.439   3.273
42300W        W14714  17.662   8.366   4.616
42301W        W14715  35.460   0.853  13.312
42302W        W14716  35.552  25.041   4.232
42303W        W14717  14.623  23.228  11.552
42304W        W14718  33.402   9.216  10.922
42305W        W14719   5.342  14.180  10.594
42306W        W14720  10.852  38.397  12.481
42307W        W14721  33.938  34.428   4.189
42308W        W14722   5.315  31.078   1.850
42309W        W14723  44.445  26.609   0.753
42310W        W14724  33.044  10.309  12.827
42311W        W14725  19.535  25.618   0.249
42312W        W14726  29.161  26.157  13.513
42313W        W14727  16.658   8.714   3.155
42314W        W14728  18.072  32.517   1.211
42315W        W14729  40.042  22.229  13.332
42316W        W14730  40.327  38.835   0.933
42317W        W14731   6.888   6.892  12.562
42318W        W14732  30.025  10.696   0.454
42319W        W14733  32.529  28.114  11.953
42320W        W14734  18.274  19.549  12.924
42321W        W14735  19.106  31.415   3.822
42322W        W14736  12.254  22.171  12.999
42323W        W14737  38.968   0.957   2.748
42324W        W14738  23.079  16.197   4.175
42325W        W14739   7.882  23.572  11.441
42326W        W14740  43.286  18.147  11.078
42327W        W14741  13.159  12.305  10.968
42328W        W14742   1.428  38.385   2.337
42329W        W14743  21.020   8.760  11.541
42330W        W14744   8.177  21.040  14.465
42331W        W14745   1.767  36.989   1.776
42332W        W14746  31.118  14.658  10.901
42333W        W14747  10.800   2.926  12.036
42334W        W14748  12.827  18.100  11.981
42335W        W14749  12.734  26.679   4.664
42336W        W14750  42.027  22.708   3.717
42337W        W14751  34.550  37.078  12.992
42338W        W14752  10.297  14.267  12.039
42339W        W14753  40.813  30.476  10.458
42340W        W14754  25.154  40.010  14.839
42341W        W14755  19.169  12.683   0.410
42342W        W14756  43.995   5.739  12.045
42343W        W14757   0.265  35.039   3.233
42344W        W14758  40.542  21.164  14.945
42345W        W14759  41.316  16.254  14.962
42346W        W14760  22.590  14.256   1.273
42347W        W14761  37.878   7.320   2.872
42348W        W14762   4.261  42.028  14.353
42349W        W14763  35.407  17.194  14.969
42350W        W14764   6.319  39.878  10.630
42351W        W14765  37.573  17.663   2.896
42352W        W14766  26.701  19.640   0.857
42353W        W14767  20.603  25.514  11.460
42354W        W14768  10.696   8.360  12.048
42355W        W14769  17.214  44.995  10.609
42356W        W14770  15.085  18.571  13.404
42357W        W14771  28.018  39.064   0.250
42358W        W14772  12.717  20.175  14.436
42359W        W14773  33.617   5.365  14.967
42360W        W14774  44.266  32.066  12.066
42361W        W14775  16.132   1.946  12.896
42362W        W14776   7.821   8.185  10.414
42363W        W14777  14.149  32.490  12.516
42364W        W14778  29.441  10.298  12.026
42365W        W14779   8.737   7.685  13.064
42366W        W14780   5.730   7.693  12.435
42367W        W14781   3.270   3.824  13.001
42368W        W14782  24.714  42.836  13.978
42369W        W14783  20.765  39.825   4.170
42370W        W14784  39.486  11.306  13.061
42371W        W14785   2.889  35.442   0.730
42372W        W14786   5.405  17.219   0.939
42373W        W14787  17.151  44.444  11.951
42374W        W14788   0.957  29.616   4.793
42375W        W14789  32.088  30.488   0.864
42376W        W14790  20.551  39.379  12.490
42377W        W14791  17.234  43.917  14.485
42378W        W14792  25.617  38.408   2.251
42379W        W14793  30.005  38.951   2.194
42380W        W14794  37.487  16.767   3.739
42381W        W14795   2.317  10.219   0.892
42382W        W14796   9.828  15.596  11.895
42383W        W14797   6.346  43.301   3.343
42384W        W14798  22.713  13.179   3.839
42385W        W14799  24.196  29.570  10.909
42386W        W14800  34.613  36.521  14.367
42387W        W14801  20.188  14.128   4.119
42388W        W14802   4.420  43.988  14.286
42389W        W14803  31.620  41.872   0.289
42390W        W14804   3.932  21.554  13.424
42391W        W14805  20.203  41.921  12.054
42392W        W14806  39.907  37.060  10.455
42393W        W14807  18.606  10.272  13.371
42394W        W14808  28.637  25.123   4.638
42395W        W14809  44.412  20.651  10.448
42396W        W14810  36.941  10.651  13.333
42397W        W14811   8.871  29.096  12.075
42398W        W14812  44.867  16.623   2.894
42399W        W14813  38.480  38.830  10.017
42400W        W14814  36.073   5.697   2.703
42401W        W14815  31.468  30.450  10.640
42402W        W14816  40.967  19.049  13.479
42403W        W14817  21.137   9.343   0.321
42404W        W14818  25.624  37.499  14.879
42405W        W14819  11.135  11.695   2.727
42406W        W14820  36.446  15.769  14.477
42407W        W14821  36.425   3.931  11.900
42408W        W14822   4.402  26.487   4.163
42409W        W14823  23.161  43.510   1.808
42410W        W14824  22.066  12.813   4.161
42411W        W14825   7.201   3.843  13.994
42412W        W14826   9.743  34.085   1.777
42413W        W14827  18.118  43.490   4.277
42414W        W14828  19.607  13.806   0.291
42415W        W14829   4.706  43.500   4.200
42416W        W14830  11.241  32.469   0.382
42417W        W14831  29.098  15.727  12.069
42418W        W14832  14.812  13.153  12.382
42419W        W14833  18.631  36.394  13.503
42420W        W14834  35.443  31.506   3.787
42421W        W14835  14.774  40.008  13.376
42422W        W14836   5.777   7.721   3.764
42423W        W14837  37.381  21.039  14.285
42424W        W14838  22.149  29.592   4.774
42425W        W14839   1.885  10.324   1.801
42426W        W14840   2.940  11.272  11.599
42427W        W14841  27.066  33.513   2.269
42428W        W14842  19.579   7.382   3.800
42429W        W14843  21.231   5.841  13.341
42430W        W14844   9.845  28.134  13.947
42431W        W14845  16.576  41.000   2.838
42432W        W14846  17.743  41.949  11.565
42433W        W14847  25.583  26.545   5.180
42434W        W14848  17.240  23.595  11.870
42435W        W14849  35.860  19.708   1.373
42436W        W14850  18.236  15.609   1.842
42437W        W14851  16.598  36.047   1.393
42438W        W14852  25.708   3.841  13.510
42439W        W14853   6.381  42.378   9.966
42440W        W14854   0.805   1.481  12.504
42441W        W14855  35.075  30.954  12.055
42442W        W14856  27.575  13.321   0.426
42443W        W14857   6.407  41.393   0.459
42444W        W14858  29.425   3.404  14.949
42445W        W14859  25.188  42.483   2.840
42446W        W14860  40.044   4.439  12.534
42447W        W14861  23.506  36.033   1.259
42448W        W14862  23.516  44.893  13.056
42449W        W14863  36.382   1.354  13.878
42450W        W14864  20.225   7.325   1.896
42451W        W14865  38.917  21.533   2.398
42452W        W14866  26.007   4.767   1.861
42453W        W14867  44.380   7.224  12.840
42454W        W14868  30.443  28.128  12.052
42455W        W14869  40.810   3.449  14.891
42456W        W14870  17.650   7.696   3.285
42457W        W14871   2.956  23.599   4.331
42458W        W14872  23.548  12.193   1.434
42459W        W14873   1.377   1.883  13.345
42460W        W14874  20.199   7.185   5.192
42461W        W14875  12.179  24.565   4.808
42462W        W14876  29.010  26.976   2.274
42463W        W14877  22.542  44.772   2.391
42464W        W14878  34.605  15.118   1.705
42465W        W14879  42.308  11.859  13.341
42466W        W14880  41.331  20.758  12.498
42467W        W14881  42.787  38.550   9.994
42468W        W14882  38.905  33.909  13.857
42469W        W14883   3.710  18.099   4.835
42470W        W14884  29.452   1.470   0.924
42471W        W14885  18.065  22.173   1.254
42472W        W14886  35.001  36.997   1.431
42473W        W14887  44.974   3.899   2.269
42474W        W14888  41.508  26.981  14.452
42475W        W14889  20.629  12.757   0.811
42476W        W14890   1.329  16.577  14.280
42477W        W14891   8.736  21.219  12.352
42478W        W14892  19.275  26.072  13.890
42479W        W14893  19.145  19.642   0.244
42480W        W14894   7.678  11.672   1.334
42481W        W14895  15.737  16.293   3.776
42482W        W14896  27.493  43.438   4.178
42483W        W14897  16.745  43.852   1.883
42484W        W14898   0.774   0.395   3.280
42485W        W14899   2.313   9.372   2.413
42486W        W14900  44.398  21.745   1.270
42487W        W14901   7.777  10.720   4.752
42488W        W14902  40.941  17.687  13.029
42489W        W14903  43.765  11.278  12.955
42490W        W14904  37.432  28.109  11.560
42491W        W14905  32.111   3.847   4.171
42492W        W14906   9.324   0.778  12.832
42493W        W14907   6.845  35.572  12.959
42494W        W14908  10.310   2.952   4.253
42495W        W14909   6.380  16.114   3.348
42496W        W14910  15.321  12.753  11.914
42497W        W14911  38.537  14.249   3.236
42498W        W14912  16.127   8.678  14.293
42499W        W14913  37.998   2.771   4.602
42500W        W14914   0.821   0.335  14.462
42501W        W14915  35.557  35.449   2.811
42502W        W14916  33.088   4.830   1.876
42503W        W14917   2.324  19.537   4.299
42504W        W14918   0.393  42.790   1.876
42505W        W14919  34.869   2.385  13.954
42506W        W14920  39.974  17.632  14.781
42507W        W14921  11.326  25.215  10.585
42508W        W14922   7.172  42.337   0.393
42509W        W14923  18.123  16.115   1.240
42510W        W14924  19.230  33.044   1.795
42511W        W14925   0.388   4.265  12.013
42512W        W14926  18.116  15.218   3.750
42513W        W14927  42.834  13.803  13.793
42514W        W14928  16.270  33.962  14.005
42515W        W14929   8.379   3.741   2.713
42516W        W14930  17.598  39.401   0.812
42517W        W14931   2.228  35.889  12.908
42518W        W14932  26.676  18.230  13.411
42519W        W14933   6.397  31.938   4.718
42520W        W14934  22.675  15.328   2.722
42521W        W14935  29.067  44.503  10.614
42522W        W14936   8.179  34.089  13.366
42523W        W14937  11.254  43.453  13.494
42524W        W14938  13.772   8.799   3.317
42525W        W14939  17.120  42.904  10.408
42526W        W14940  19.560  14.135  13.443
42527W        W14941   7.207  37.066  10.422
42528W        W14942   3.796  24.031   4.775
42529W        W14943  34.080   4.831  10.427
42530W        W14944   8.343  16.211   2.244
42531W        W14945  43.853   6.843   1.440
42532W        W14946  28.449  16.684   1.225
42533W        W14947   2.774  43.005  14.902
42534W        W14948  44.359   3.419   4.608
42535W        W14949  11.204  35.531   0.430
42536W        W14950  33.429  25.500   1.302
42537W        W14951  39.417  29.660  14.471
42538W        W14952  14.790  31.466  10.968
42539W        W14953  18.274  22.689  13.994
42540W        W14954   9.771   2.465  11.990
42541W        W14955  38.858  30.565  12.499
42542W        W14956   8.234  22.011  11.124
42543W        W14957   1.456   7.397   1.828
42544W        W14958   2.388  18.092   3.172
42545W        W14959  24.560  27.550  10.565
42546W        W14960  29.960  31.981   2.858
42547W        W14961   0.780  36.458   2.225
42548W        W14962  30.969  33.909   4.694
42549W        W14963  33.011  15.159   2.824
42550W        W14964  41.518  44.442  12.008
42551W        W14965  26.658  20.677   0.844
42552W        W14966  18.262  27.960   4.654
42553W        W14967  32.962   0.464   2.179
42554W        W14968  30.030  30.556   1.725
42555W        W14969  10.144  18.644   1.709
42556W        W14970  33.900  34.057   0.829
42557W        W14971  31.081  11.344  11.892
42558W        W14972  32.972  12.800  10.624
42559W        W14973  31.117  37.535   0.963
42560W        W14974  19.122  13.310  14.932
42561W        W14975   9.365  37.471   4.133
42562W        W14976  33.960  29.562  13.353
42563W        W14977  33.023   2.372   1.265
42564W        W14978  43.397   3.784  13.315
42565W        W14979  25.201  18.118   1.371
42566W        W14980  18.746  33.615   0.391
42567W        W14981  31.615  20.666  13.929
42568W        W14982  44.005  18.172   1.805
42569W        W14983  37.061  32.008  12.070
42570W        W14984  10.174   2.415   4.199
42571W        W14985  40.052  42.998   3.318
42572W        W14986  27.608  33.096   3.698
42573W        W14987   3.281  25.542  12.347
42574W        W14988  11.694  11.805  14.990
42575W        W14989  39.454  23.660  13.019
42576W        W14990   1.754   5.277   4.186
42577W        W14991  36.957  39.994  10.971
42578W        W14992   1.481   1.399   1.795
42579W        W14993  44.831  18.148  12.438
42580W        W14994  42.325  44.837  11.016
42581W        W14995  33.909  11.218  13.985
42582W        W14996  31.507   9.740  11.046
42583W        W14997   8.230  25.522  11.077
42584W        W14998  33.582   4.864   4.324
42585W        W14999  31.097  13.669   3.816
42586W        W15000  44.896  24.073  12.013
42587W        W15001  18.745  23.736  10.605
42588W        W15002   4.699  13.112  10.962
42589W        W15003   4.300  12.714   1.255
42590W        W15004  13.669  27.480   4.300
42591W        W15005  26.652  36.359   3.320
42592W        W15006  25.115  42.456   0.785
42593W        W15007  16.659  42.287  12.572
42594W        W15008  35.883  23.212   1.910
42595W        W15009  38.448  17.308  13.793
42596W        W15010  42.305  38.521   2.223
42597W        W15011  36.417  27.992  11.980
42598W        W15012  15.750  27.650   4.745
42599W        W15013  17.083  31.595  14.487
42600W        W15014  12.708  19.737   2.296
42601W        W15015  12.227  18.656   2.244
42602W        W15016  11.333  29.574   1.763
42603W        W15017  42.418  28.636   0.288
42604W        W15018  39.037  29.151  12.378
42605W        W15019  14.679  24.630  10.549
42606W        W15020  26.569   4.387  12.890
42607W        W15021  33.440  33.103  14.873
42608W        W15022  14.114  13.141   1.447
42609W        W15023  15.306   7.265  14.419
42610W        W15024  24.059  31.143  11.008
42611W        W15025  34.870  32.593  13.838
42612W        W15026   9.158  14.306  12.468
42613W        W15027   7.815  21.692   4.328
42614W        W15028  13.797  10.189  11.587
42615W        W15029   7.308   4.258   2.846
42616W        W15030  25.652  44.897  14.832
42617W        W15031  18.135  34.873   1.785
42618W        W15032  17.207   1.267   1.238
42619W        W15033  30.932   4.432   1.756
42620W        W15034   0.883  23.631   0.289
42621W        W15035  25.705  11.833  14.442
42622W        W15036  43.389  40.368   4.708
42623W        W15037   7.762  37.399  10.576
42624W        W15038  36.400  37.557   1.380
42625W        W15039   7.204  34.602   2.853
42626W        W15040  35.473  21.641   3.243
42627W        W15041  16.654   5.808   3.747
42628W        W15042  30.047   7.822   2.709
42629W        W15043  35.526  22.197  12.347
42630W        W15044  26.562  34.993   2.379
42631W        W15045  16.713  43.464  13.979
42632W        W15046  32.009  23.106   3.803
42633W        W15047  34.011   9.734   3.276
42634W        W15048  11.764  41.374   1.730
42635W        W15049  20.641  26.027   2.770
42636W        W15050  19.088  31.084   3.871
42637W        W15051  14.150  23.165   0.413
42638W        W15052   2.807  36.032   1.282
42639W        W15053  18.254  27.092  14.917
42640W        W15054  24.075  12.678  12.893
42641W        W15055  39.541  40.879  14.941
42642W        W15056  30.612  30.013   0.903
42643W        W15057  26.641   8.186  12.426
42644W        W15058  20.739  21.558   0.782
42645W        W15059  31.605  18.088   2.365
42646W        W15060  28.109  22.080  12.852
42647W        W15061  28.985  37.994  14.024
42648W        W15062   4.406  39.840  12.855
42649W        W15063  35.592   8.167  13.971
42650W        W15064  41.509  25.586   1.445
42651W        W15065   9.165  32.477  12.451
42652W        W15066  26.544  20.164   1.237
42653W        W15067  42.317  14.662   3.644
42654W        W15068  13.717  33.937  10.892
42655W        W15069  26.127  34.964  13.481
42656W        W15070  14.609  18.751   3.656
42657W        W15071  40.882  32.927   2.784
42658W        W15072  14.235   2.401  12.042
42659W        W15073  16.093   7.701  13.980
42660W        W15074  34.403  36.436   2.402
42661W        W15075  27.955  41.821  12.063
42662W        W15076  32.119  14.113   4.646
42663W        W15077   3.715  38.001  10.507
42664W        W15078  43.482  32.449   1.881
42665W        W15079  41.901   8.684   1.290
42666W        W15080  13.327  42.429   0.271
42667W        W15081  14.723  16.725   9.957
42668W        W15082  15.175  28.973   3.202
42669W        W15083  20.654   2.841  14.937
42670W        W15084   5.374   3.331   4.127
42671W        W15085  17.285   3.715  13.533
42672W        W15086   1.816   4.756   2.208
42673W        W15087  31.454  17.192  10.584
42674W        W15088   9.384  44.431  14.317
42675W        W15089   7.384   9.830  13.879
42676W        W15090  27.027   1.903  13.831
42677W        W15091  32.576  35.516  13.425
42678W        W15092  34.400  22.543  13.989
42679W        W15093   2.886  20.202  11.888
42680W        W15094   2.452  42.880   0.873
42681W        W15095  13.805   3.785   4.822
42682W        W15096   7.283  17.257   3.191
42683W        W15097  20.251  24.188  11.433
42684W        W15098  43.810  21.744   2.747
42685W        W15099  42.930   2.351  11.599
42686W        W15100   9.887   8.387   0.907
42687W        W15101  12.814  29.035   0.848
42688W        W15102   7.724   1.809  12.455
42689W        W15103  34.397   4.717   0.253
42690W        W15104  31.123  43.936  13.841
42691W        W15105   9.366  10.783  12.419
42692W        W15106  44.929  11.297   4.621
42693W        W15107   5.761   2.363   3.669
42694W        W15108  19.166   4.912   0.838
42695W        W15109   4.923  44.994   3.725
42696W        W15110   9.804  10.716   2.668
42697W        W15111  33.015   0.376   4.215
42698W        W15112  39.932   3.423  10.932
42699W        W15113  12.625   9.375  10.159
42700W        W15114   1.432   2.303   4.705
42701W        W15115  27.104  27.145  13.368
42702W        W15116  14.095  19.761  12.096
42703W        W15117   5.338   5.708   3.687
42704W        W15118   7.812  38.563  12.346
42705W        W15119  35.464  25.614  14.806
42706W        W15120   5.216  18.587  13.934
42707W        W15121  19.605  42.822  12.998
42708W        W15122  13.812  36.846  12.405
42709W        W15123  28.556  44.502  11.400
42710W        W15124   2.852   7.220   3.801
42711W        W15125  42.979  27.952   4.283
42712W        W15126  42.479  28.098   2.697
42713W        W15127  38.519  14.594  10.593
42714W        W15128  22.702  13.759   0.427
42715W        W15129  31.934  23.089  12.498
42716W        W15130   0.801  27.986  10.458
42717W        W15131  43.329  38.885   3.739
42718W        W15132  43.353  17.664  14.441
42719W        W15133  28.453  13.659   0.333
42720W        W15134  38.941   2.870  14.301
42721W        W15135  14.772  32.949   4.644
42722W        W15136  44.440  40.950   4.619
42723W        W15137  26.696  13.171  14.295
42724W        W15138  32.927  22.557   4.724
42725W        W15139  19.238  23.668  11.577
42726W        W15140  41.850  12.283  14.321
42727W        W15141  11.728  36.392  12.830
42728W        W15142  30.626   0.491  10.967
42729W        W15143   5.901   7.352   2.254
42730W        W15144  15.266   3.814  14.287
42731W        W15145  14.766  43.465  13.872
42732W        W15146  14.289  11.701  11.533
42733W        W15147  35.034  17.263  12.930
42734W        W15148  30.915  35.101   4.604
42735W        W15149   0.404  31.945  11.930
42736W        W15150  32.512  22.522   4.708
42737W        W15151   9.362  21.029  14.440
42738W        W15152  43.493  39.924  13.998
42739W        W15153  12.771   3.804  11.045
42740W        W15154  20.233  24.016  10.553
42741W        W15155  33.081  21.106  14.502
42742W        W15156   3.950  43.900   3.234
42743W        W15157   3.816   7.379   2.718
42744W        W15158  25.495   4.774  11.996
42745W        W15159  32.615  40.445   4.141
42746W        W15160  41.345  18.608  12.340
42747W        W15161  42.355  40.919  12.957
42748W        W15162   0.762  26.098  14.933
42749W        W15163  28.999  39.423   1.334
42750W        W15164  17.238  44.867  12.850
42751W        W15165  11.320   9.322   2.205
42752W        W15166   7.277   9.646   4.226
42753W        W15167  13.604  12.147  14.963
42754W        W15168  37.949  38.424  13.862
42755W        W15169   2.456   9.384   3.264
42756W        W15170  23.185  23.735   2.250
42757W        W15171  36.526  18.785  14.472
42758W        W15172  37.057  16.675  13.003
42759W        W15173  34.403  19.130  12.095
42760W        W15174  28.447   1.256  11.982
42761W        W15175  27.029  37.021   1.294
42762W        W15176  40.951  15.617  12.366
42763W        W15177  16.161  17.646   4.243
42764W        W15178  33.966  30.969  13.792
42765W        W15179   7.717   4.391   4.684
42766W        W15180  44.990  24.610  11.930
42767W        W15181  23.120  29.508  11.477
42768W        W15182  23.091  27.187  14.008
42769W        W15183  15.673  29.922  11.597
42770W        W15184  10.263   3.934  13.519
42771W        W15185   0.300  17.568   1.715
42772W        W15186   2.453  17.077   2.371
42773W        W15187  24.565  19.668   3.302
42774W        W15188  24.155  21.536  14.790
42775W        W15189  10.316  16.114  13.007
42776W        W15190  25.639   0.835   4.153
42777W        W15191  21.064   4.847  10.411
42778W        W15192  19.210  13.123  14.308
42779W        W15193   7.792   9.258   1.734
42780W        W15194  17.204  33.120   4.308
42781W        W15195  25.132   1.469  13.315
42782W        W15196  30.965  20.612   4.117
42783W        W15197  10.206   7.246  11.589
42784W        W15198  16.279  21.231   4.353
42785W        W15199  18.741  16.721  14.988
42786W        W15200  22.237  15.267   3.701
42787W        W15201  21.212  19.104   4.162
42788W        W15202  13.807  43.460   4.263
42789W        W15203  34.931  29.592  13.382
42790W        W15204   6.745   7.400  11.115
42791W        W15205  39.987  35.895   4.295
42792W        W15206  24.497  39.371  14.955
42793W        W15207   2.726   6.707  14.347
42794W        W15208  13.251  23.707   3.784
42795W        W15209  21.548  25.138   4.620
42796W        W15210  12.699   1.799  13.329
42797W        W15211  25.533  33.009   4.747
42798W        W15212  13.688  23.570   4.661
42799W        W15213  40.875   9.220  10.546
42800W        W15214  10.723   3.766   3.785
42801W        W15215  37.855  44.912  13.388
42802W        W15216  44.366   6.260   3.353
42803W        W15217  42.971  23.080   3.200
42804W        W15218  39.043   5.731   0.761
42805W        W15219  36.857  13.839  12.074
42806W        W15220   1.848  11.864  13.318
42807W        W15221  36.584  32.453  13.389
42808W        W15222  24.624  28.559  10.541
42809W        W15223  24.137  15.326  12.551
42810W        W15224  43.373  16.587   1.827
42811W        W15225  44.810  17.182   1.384
42812W        W15226   5.394  30.101  12.074
42813W        W15227   4.731  28.624  13.367
42814W        W15228   7.362  37.021   3.736
42815W        W15229  38.488  41.788  13.039
42816W        W15230  23.091   5.916  13.502
42817W        W15231  12.631  39.917   4.799
42818W        W15232  26.011  20.568  13.889
42819W        W15233  44.811   6.904   3.314
42820W        W15234  24.682  36.054  13.418
42821W        W15235  14.166  15.721   4.784
42822W        W15236  22.667  25.204  13.488
42823W        W15237  29.943  11.367   1.850
42824W        W15238  20.185  31.482  13.064
42825W        W15239  37.068  32.452  14.284
42826W        W15240  32.536  16.261   1.332
42827W        W15241  11.735   7.786   9.922
42828W        W15242  31.493   6.735  14.779
42829W        W15243  19.040  11.746  14.347
42830W        W15244  27.048  22.029  14.961
42831W        W15245  37.580  29.654  12.886
42832W        W15246   5.847  41.459  10.125
42833W        W15247  11.747  43.855   4.208
42834W        W15248   8.707  10.304   1.402
42835W        W15249  12.167   8.745  14.430
42836W        W15250  32.955  25.056  14.451
42837W        W15251  35.503  40.533   4.149
42838W        W15252   5.749   1.286  11.883
42839W        W15253  16.096  28.474  12.553
42840W        W15254   6.296  20.543  10.562
42841W        W15255  14.679   5.869  13.345
42842W        W15256  21.166   8.184   2.831
42843W        W15257  29.439  37.931   1.782
42844W        W15258  25.175  22.593   4.829
42845W        W15259   4.307  25.103  13.970
42846W        W15260   2.436  39.343  14.839
42847W        W15261  41.492  20.741  14.296
42848W        W15262  38.435  20.033  11.472
42849W        W15263  23.661   1.870  14.944
42850W        W15264  37.878  41.037   1.315
42851W        W15265  35.026  40.811   0.264
42852W        W15266  11.289  39.046   1.367
42853W        W15267  33.423  20.686  13.337
42854W        W15268  20.556  19.189   0.406
42855W        W15269  44.843  36.019  14.478
42856W        W15270  37.381  20.677  12.090
42857W        W15271   2.916   6.221  13.918
42858W        W15272  36.883   4.833   0.344
42859W        W15273  25.501   0.329  14.809
42860W        W15274  40.974  28.556  14.338
42861W        W15275  39.034  31.988  13.502
42862W        W15276  20.079  20.618   1.450
42863W        W15277   0.437  35.535  10.432
42864W        W15278   9.391  19.543  12.554
42865W        W15279  42.975  25.629  10.455
42866W        W15280   5.320  32.434   3.224
42867W        W15281  15.656  31.558   4.349
42868W        W15282  17.772  26.050   2.661
42869W        W15283  39.014  32.089   0.415
42870W        W15284   7.778  19.713  13.513
42871W        W15285  24.999  11.647   4.669
42872W        W15286  41.961  15.137  12.556
42873W        W15287  33.520  26.479  12.576
42874W        W15288  19.111   1.417  14.501
42875W        W15289  17.675  36.081  11.464
42876W        W15290   8.177  42.902  10.589
42877W        W15291  32.503  39.393  10.973
42878W        W15292  12.225  12.714  13.945
42879W        W15293  32.969  40.922   4.345
42880W        W15294  19.185   0.396   2.662
42881W        W15295  39.512  39.855  14.411
42882W        W15296  35.402  29.128  12.055
42883W        W15297   6.426  22.647   4.780
42884W        W15298  35.049  17.157  13.482
42885W        W15299  18.578   3.848  12.496
42886W        W15300   2.896  26.065   3.747
42887W        W15301  26.201  29.029  14.455
42888W        W15302   3.727  15.646   4.272
42889W        W15303   3.804   3.437  13.459
42890W        W15304  25.518  34.089  12.544
42891W        W15305  43.429  35.007   1.903
42892W        W15306   0.986  35.965   4.129
42893W        W15307  38.884  34.590   0.242
42894W        W15308  43.432  18.183   2.276
42895W        W15309  13.723  32.972  12.515
42896W        W15310  12.336  31.473  12.495
42897W        W15311  20.585  19.148  11.541
42898W        W15312   3.782  17.072  13.443
42899W        W15313   8.698  38.034   1.887
42900W        W15314  43.891  16.100   2.668
42901W        W15315  25.659  31.942   0.965
42902W        W15316  36.003  25.083  12.513
42903W        W15317  21.127  14.767  14.485
42904W        W15318  43.421  29.048   1.423
42905W        W15319  15.159  30.413  13.529
42906W        W15320  10.219  27.618  11.906
42907W        W15321  33.909  18.641   4.645
42908W        W15322  16.588  40.881   1.731
42909W        W15323  38.897  23.054   2.248
42910W        W15324   1.238   3.316   5.290
42911W        W15325  27.077  11.745   1.350
42912W        W15326  33.900  30.124  11.510
42913W        W15327   5.730  36.046   2.402
42914W        W15328  17.699  41.351   2.365
42915W        W15329  34.027  27.613  11.946
42916W        W15330  12.212  34.483   0.739
42917W        W15331  36.388   4.213  13.856
42918W        W15332   6.241  10.743   2.903
42919W        W15333  33.878  20.538   3.285
42920W        W15334  40.346  42.031   3.781
42921W        W15335  26.084   7.343  13.946
42922W        W15336   9.816  39.905   0.734
42923W        W15337  33.977  29.451  12.931
42924W        W15338  44.914  10.764  14.807
42925W        W15339   2.924  19.158   0.804
42926W        W15340  26.575  15.187  12.917
42927W        W15341  24.024   8.753   4.758
42928W        W15342  32.032  19.583   3.185
42929W        W15343  43.303  35.497   4.618
42930W        W15344  34.917  17.281   2.807
42931W        W15345  40.797   1.958   3.811
42932W        W15346   7.739  30.001  12.870
42933W        W15347  28.589  44.258  14.487
42934W        W15348  14.311   5.435  10.143
42935W        W15349   3.890  31.061   3.799
42936W        W15350  17.261  42.837   4.713
42937W        W15351   7.851  40.391   0.849
42938W        W15352  10.654  32.569   0.799
42939W        W15353  30.943  21.061   0.787
42940W        W15354  24.988  32.602  14.991
42941W        W15355  21.739   3.446   3.294
42942W        W15356  26.524  21.524   1.356
42943W        W15357  21.092  22.526  12.936
42944W        W15358  41.841   6.853   0.460
42945W        W15359   2.338  36.430  12.408
42946W        W15360  25.049  40.382   0.796
42947W        W15361  27.630  30.979   4.678
42948W        W15362  18.209  15.271   0.250
42949W        W15363  40.965  12.308   0.830
42950W        W15364  30.549  28.678  10.972
42951W        W15365  25.175  21.259   0.961
42952W        W15366  10.248   0.428  10.120
42953W        W15367   5.274   2.844   1.791
42954W        W15368   0.757  15.232  11.468
42955W        W15369  15.255  17.703   2.393
42956W        W15370  44.822  35.934   5.302
42957W        W15371  44.819   3.455   2.888
42958W        W15372  40.875  27.643   4.789
42959W        W15373  31.094  40.335  11.535
42960W        W15374  36.965  12.140  11.948
42961W        W15375  43.957  25.579  13.851
42962W        W15376  19.707  24.043   0.461
42963W        W15377  36.571  15.217  14.503
42964W        W15378  32.604  33.503  11.982
42965W        W15379  24.561  43.402   1.807
42966W        W15380   5.410  20.758   0.400
42967W        W15381  34.575  23.237   4.770
42968W        W15382  33.471   2.370  14.477
42969W        W15383  16.127  20.743  13.806
42970W        W15384  12.635  44.361  12.000
42971W        W15385   6.190  16.703  13.825
42972W        W15386  13.689  33.961   3.644
42973W        W15387  28.980  23.569   4.268
42974W        W15388  16.103   0.304   4.646
42975W        W15389  26.512   7.865   4.782
42976W        W15390  21.528   6.771  10.908
42977W        W15391  35.107  31.112   3.636
42978W        W15392  41.437  37.954   0.434
42979W        W15393  23.021   5.728   4.713
42980W        W15394  28.096  40.310  11.487
42981W        W15395  39.380  42.336  12.473
42982W        W15396  12.154  21.625   1.348
42983W        W15397   3.244  29.435   3.254
42984W        W15398  13.780   6.899  11.076
42985W        W15399   4.320   1.479   4.806
42986W        W15400  29.105   1.384  14.794
42987W        W15401  33.496  17.272  14.951
42988W        W15402  39.826  16.087  10.531
42989W        W15403  29.579   2.852  10.923
42990W        W15404   6.206  16.667  14.884
42991W        W15405   3.250  12.157  12.507
42992W        W15406  30.534  31.137  13.044
42993W        W15407  21.555  30.633   3.794
42994W        W15408  15.689  23.680  11.906
42995W        W15409  14.689  15.223  12.853
42996W        W15410  38.990  29.928  14.424
42997W        W15411  23.103  18.654  10.419
42998W        W15412  22.716  24.102  12.082
42999W        W15413  34.910  14.592   3.801
43000W        W15414   7.363  10.369  12.927
43001W        W15415   8.316   6.323   0.842
43002W        W15416   9.654  44.874   1.847
43003W        W15417   6.776   3.886   3.634
43004W        W15418  15.619  18.777   1.736
43005W        W15419  10.786   5.218  13.817
43006W        W15420  40.347  40.337   5.140
43007W        W15421   5.349   6.719   3.864
43008W        W15422   4.392  44.288   0.282
43009W        W15423  16.643  21.650   0.760
43010W        W15424  28.180  15.223   0.294
43011W        W15425  39.391  44.911   3.199
43012W        W15426  36.842  35.383  11.924
43013W        W15427   6.911  10.766  14.425
43014W        W15428  43.835  16.229  11.086
43015W        W15429  11.700  20.138  13.010
43016W        W15430  30.082  11.160  12.463
43017W        W15431   0.385  39.828   1.400
43018W        W15432  42.857  12.214  13.000
43019W        W15433  37.024  31.907   2.310
43020W        W15434  44.917  18.163  10.575
43021W        W15435  28.940   6.200  14.364
43022W        W15436   5.855  10.362   4.237
43023W        W15437   9.747  26.684   0.727
43024W        W15438   1.431  25.132   2.193
43025W        W15439  10.735  25.102  13.496
43026W        W15440  41.500  28.604  14.278
43027W        W15441  20.265   9.788   4.798
43028W        W15442  14.230  32.948   2.811
43029W        W15443  15.188  36.893  11.981
43030W        W15444  36.346  44.895   0.434
43031W        W15445  22.707  18.247   4.317
43032W        W15446  44.291  36.968  12.054
43033W        W15447  21.186  33.549  14.500
43034W        W15448  16.721  12.636  14.993
43035W        W15449   8.703  22.223   1.816
43036W        W15450  40.452  17.124  13.491
43037W        W15451  42.820  22.107  14.780
43038W        W15452  33.114  30.645  12.469
43039W        W15453   5.892  38.403   2.703
43040W        W15454  28.984  35.965  12.909
43041W        W15455  32.990  13.717  10.559
43042W        W15456  17.591   6.195  12.378
43043W        W15457  39.356  14.719  12.567
43044W        W15458  13.201  14.322  12.465
43045W        W15459  43.381   3.264   1.214
43046W        W15460   4.258  40.910  13.356
43047W        W15461   0.774  34.536  10.594
43048W        W15462  39.884   6.913  13.421
43049W        W15463  29.114  12.856   1.731
43050W        W15464  30.114   8.239   1.259
43051W        W15465  21.157   1.429   3.831
43052W        W15466   2.913  12.798  11.886
43053W        W15467  44.973  38.904   4.660
43054W        W15468  32.990  25.992  11.575
43055W        W15469  44.922  25.592   2.797
43056W        W15470  15.153  31.069  11.595
43057W        W15471  23.632  26.135   2.380
43058W        W15472  18.260  24.996   2.802
43059W        W15473  33.603  37.882   4.630
43060W        W15474  25.630  22.579   3.288
43061W        W15475  14.783  11.263  13.997
43062W        W15476  11.796   8.381  13.337
43063W        W15477  11.184  23.554  11.539
43064W        W15478   1.891  29.987   3.721
43065W        W15479  15.310  36.382   0.378
43066W        W15480  39.527  25.617   1.807
43067W        W15481  40.545   4.346  14.987
43068W        W15482  10.368  43.390  11.972
43069W        W15483  20.560  22.012  14.389
43070W        W15484  41.801   3.902  14.875
43071W        W15485  36.844  42.322  12.548
43072W        W15486  33.472  12.846   3.766
43073W        W15487  31.531  44.780  14.479
43074W        W15488  18.060   8.665   4.689
43075W        W15489  32.051  23.546  12.398
43076W        W15490  33.884  43.475   3.672
43077W        W15491  27.120  27.610   0.750
43078W        W15492   3.905  18.270   0.467
43079W        W15493  41.984  12.156  14.977
43080W        W15494   6.762  35.054   2.892
43081W        W15495  36.491  24.566  12.460
43082W        W15496  44.272  43.871   2.863
43083W        W15497  39.912  23.523  13.953
43084W        W15498  20.649  21.532   4.760
43085W        W15499   1.463   2.811  12.409
43086W        W15500  35.893  26.961   1.760
43087W        W15501  19.271  10.861  11.418
43088W        W15502  23.501  27.680  11.476
43089W        W15503   2.783  20.733   2.733
43090W        W15504  39.482  12.270   2.811
43091W        W15505  32.503  32.629   1.343
43092W        W15506   5.921   0.810   4.611
43093W        W15507   3.229  13.612  11.103
43094W        W15508  34.423  35.940   1.768
43095W        W15509  40.949   6.796   4.731
43096W        W15510  41.015  18.199   2.866
43097W        W15511  28.176  30.555   1.919
43098W        W15512  28.009   5.275  11.578
43099W        W15513   8.792  30.989  13.019
43100W        W15514  22.154   6.322  11.003
43101W        W15515  38.907  23.197   4.642
43102W        W15516  11.147   4.419  11.465
43103W        W15517  44.426  14.307   5.245
43104W        W15518  15.227  25.008  13.378
43105W        W15519  34.011   7.911  13.510
43106W        W15520  30.639   2.813   3.386
43107W        W15521  40.018  18.739   1.865
43108W        W15522  18.177   7.320  14.025
43109W        W15523  20.123  35.874  12.403
43110W        W15524   6.813  24.687  12.004
43111W        W15525  44.849  31.436  11.006
43112W        W15526   6.344   3.242   3.322
43113W        W15527  37.534  38.366  11.054
43114W        W15528  42.325  39.960  11.946
43115W        W15529  31.530  25.011   1.932
43116W        W15530  40.018   7.811  12.825
43117W        W15531   7.205  15.186  13.540
43118W        W15532  37.897  22.504   3.734
43119W        W15533  44.361   0.439  14.953
43120W        W15534  21.048  28.473   1.432
43121W        W15535  43.369  42.320  14.015
43122W        W15536  19.128  12.674   4.715
43123W        W15537  26.554  38.565  10.559
43124W        W15538  23.182  25.093  14.300
43125W        W15539  23.612  16.584  12.865
43126W        W15540   0.422   1.394   3.303
43127W        W15541  37.534  44.859  14.830
43128W        W15542   2.260  23.491   1.399
43129W        W15543  27.998   9.723   4.617
43130W        W15544  23.039  18.288  10.456
43131W        W15545  21.121   1.432  14.359
43132W        W15546  31.049   4.908   1.398
43133W        W15547  10.322   5.368  11.549
43134W        W15548  29.953  28.164   2.239
43135W        W15549   6.396  40.365   2.281
43136W        W15550   6.710  31.932  10.428
43137W        W15551  11.812  13.247   1.397
43138W        W15552  30.997  26.490  11.969
43139W        W15553  25.515  40.338  11.535
43140W        W15554  18.133  29.554   0.262
43141W        W15555  38.484  24.184  12.826
43142W        W15556   5.727  33.978   3.166
43143W        W15557  11.347  17.706   2.354
43144W        W15558   0.413  25.615  12.494
43145W        W15559   5.355  12.209   5.251
43146W        W15560   3.409  15.816  14.798
43147W        W15561  18.161  10.308  12.371
43148W        W15562  43.342   7.173  14.792
43149W        W15563  31.493  44.456   2.201
43150W        W15564  43.997  26.568  14.881
43151W        W15565  28.952   5.714   4.613
43152W        W15566  13.752  13.692   2.267
43153W        W15567  41.412  33.990   2.209
43154W        W15568  43.391  29.570   3.236
43155W        W15569  26.033  28.480   3.164
43156W        W15570  38.449  38.840   2.328
43157W        W15571  30.425  21.671  11.954
43158W        W15572  40.939  14.300   0.253
43159W        W15573  24.194  26.592  13.996
43160W        W15574  20.110  41.848   0.346
43161W        W15575   3.424   4.825   4.297
43162W        W15576  33.421  12.227   5.179
43163W        W15577  17.786  37.964  14.989
43164W        W15578   9.377  29.643  10.519
43165W        W15579   0.429   8.393  14.832
43166W        W15580   9.798   4.282   3.250
43167W        W15581  44.339  42.009  11.491
43168W        W15582  26.978  24.625   0.873
43169W        W15583  42.005  35.085  14.432
43170W        W15584  12.156  37.424  11.953
43171W        W15585  29.655  32.142  12.995
43172W        W15586   2.781   5.897  11.484
43173W        W15587  41.521   3.247   1.400
43174W        W15588   2.327  16.208   4.257
43175W        W15589   3.779  21.201  14.777
43176W        W15590   5.324   7.705   1.272
43177W        W15591   5.732  19.557  10.933
43178W        W15592  11.235  16.287  12.075
43179W        W15593   3.818  23.660   3.800
43180W        W15594  34.548  33.973  12.576
43181W        W15595   3.822  11.346   3.241
43182W        W15596   9.316  13.316  14.783
43183W        W15597  30.646  33.971  14.773
43184W        W15598  25.673  18.073  13.511
43185W        W15599   4.262  40.428  10.466
43186W        W15600   1.762  44.946   0.753
43187W        W15601  38.339  40.959   3.671
43188W        W15602  22.014  16.109  13.831
43189W        W15603  10.821  17.304  12.986
43190W        W15604   2.451  14.312  14.411
43191W        W15605  21.103  32.591   3.646
43192W        W15606  36.066   2.920   4.624
43193W        W15607  40.949  27.464  13.497
43194W        W15608   0.388  17.273  14.018
43195W        W15609  10.233  35.398   2.839
43196W        W15610  34.100  40.462   3.297
43197W        W15611  21.088  40.834  12.036
43198W        W15612  36.880   9.666  13.539
43199W        W15613  41.351  41.796   0.292
43200W        W15614   5.400   4.935   0.255
43201W        W15615   3.233  36.915  13.846
43202W        W15616   3.866  21.226   2.282
43203W        W15617   4.420  29.102  14.000
43204W        W15618  10.352  38.867  10.958
43205W        W15619  29.162   9.860  13.033
43206W        W15620   3.894  17.694   2.220
43207W        W15621  17.300  30.129   3.860
43208W        W15622  36.001  39.846  10.497
43209W        W15623   7.416  15.249  13.797
43210W        W15624   7.378  41.042  10.464
43211W        W15625  27.132  12.640   0.935
43212W        W15626  41.895  40.516  14.458
43213W        W15627  14.673  24.531  12.443
43214W        W15628  40.544  40.031  13.821
43215W        W15629  37.074   3.399   2.402
43216W        W15630  29.562  16.233   1.926
43217W        W15631  38.947  13.174   2.337
43218W        W15632  17.098  19.151  11.991
43219W        W15633  13.291  24.611  14.774
43220W        W15634  43.297  29.427   2.797
43221W        W15635   2.452  15.326  11.528
43222W        W15636  29.974   5.875   3.693
43223W        W15637   8.785  44.816   3.708
43224W        W15638  25.484  23.721   2.687
43225W        W15639  41.417  33.070   2.187
43226W        W15640  17.634  24.116   1.755
43227W        W15641  30.928  19.153  14.864
43228W        W15642   0.352  26.193   4.151
43229W        W15643   7.816  36.589   4.782
43230W        W15644   2.340  26.193  12.357
43231W        W15645  25.976  11.332   4.656
43232W        W15646  35.858  38.945  11.436
43233W        W15647   1.795  36.854   4.621
43234W        W15648  18.630  23.000  11.997
43235W        W15649   3.411  17.166  10.582
43236W        W15650  35.933   1.896  13.057
43237W        W15651  18.583   3.438   2.829
43238W        W15652   7.289  32.550   4.759
43239W        W15653  22.692  16.654   2.709
43240W        W15654  16.618  26.988  14.773
43241W        W15655  32.482  39.505   0.330
43242W        W15656   1.931   7.898   1.823
43243W        W15657  41.375  41.039  13.434
43244W        W15658  13.821  30.071  14.904
43245W        W15659  40.905  17.728   0.295
43246W        W15660  35.419  30.543  13.521
43247W        W15661  15.773  31.433  12.411
43248W        W15662  25.618  36.042   2.183
43249W        W15663  19.764  40.823  12.350
43250W        W15664  28.512  24.690  12.020
43251W        W15665   3.757  16.591   1.332
43252W        W15666  36.489   0.934   1.754
43253W        W15667  35.502  24.135   2.668
43254W        W15668  38.494  16.743   1.717
43255W        W15669  23.513  40.513   2.333
43256W        W15670  36.856  25.590  11.426
43257W        W15671  42.981  28.662  13.890
43258W        W15672  33.488   0.779  11.552
43259W        W15673  34.990   7.408   4.818
43260W        W15674   4.705  42.419  12.499
43261W        W15675  28.009   3.222  13.426
43262W        W15676   6.204   1.255   3.331
43263W        W15677  13.329  28.571  11.560
43264W        W15678  10.739  44.918   2.848
43265W        W15679  41.006  24.573   4.752
43266W        W15680  37.995  19.575  11.908
43267W        W15681  20.685  34.969   3.792
43268W        W15682  42.778  16.610   1.244
43269W        W15683   9.669  11.259  11.995
43270W        W15684  41.015   7.251   2.779
43271W        W15685  27.986  40.884   3.709
43272W        W15686  42.456  17.717   2.865
43273W        W15687  37.970  16.667   3.677
43274W        W15688   9.789  18.164  14.448
43275W        W15689  36.986  40.877  14.989
43276W        W15690  36.873  25.096  11.471
43277W        W15691  20.255  19.541   2.776
43278W        W15692   4.326   5.713   1.766
43279W        W15693  31.003  38.449  13.915
43280W        W15694  35.078   4.815   2.275
43281W        W15695  32.473   9.651  13.404
43282W        W15696  36.549  23.006   3.254
43283W        W15697  34.376  41.819  10.539
43284W        W15698  21.218  21.057  11.594
43285W        W15699  13.836  27.647   0.943
43286W        W15700  11.217   9.812   2.188
43287W        W15701  37.507   5.233  13.852
43288W        W15702  31.105  44.470   2.277
43289W        W15703  14.181  18.187  11.596
43290W        W15704  10.147  44.498   0.263
43291W        W15705  31.586  41.956   0.880
43292W        W15706  43.010   8.756   3.805
43293W        W15707  38.492   6.917  12.835
43294W        W15708  12.206  10.139   4.158
43295W        W15709   8.330  44.858  13.831
43296W        W15710  34.433   2.345  10.897
43297W        W15711  37.559   8.179   1.879
43298W        W15712   1.835  35.967  13.949
43299W        W15713  35.551  35.042   0.362
43300W        W15714  10.292  42.927   3.754
43301W        W15715   2.254  21.726  13.792
43302W        W15716  40.397  41.813  12.940
43303W        W15717  22.547  34.428   4.352
43304W        W15718  36.581  10.221  13.323
43305W        W15719  19.065   7.788   2.860
43306W        W15720   7.836  22.186   0.841
43307W        W15721  35.518  29.668   1.403
43308W        W15722   6.365  17.723  11.084
43309W        W15723  38.870  35.369  12.500
43310W        W15724  38.034  36.442   1.288
43311W        W15725  29.608   7.834  13.886
43312W        W15726  38.927  37.457   1.721
43313W        W15727  40.903  25.212  14.407
43314W        W15728   2.453  24.979   0.323
43315W        W15729   4.934   6.864   2.297
43316W        W15730  32.082  24.509  12.548
43317W        W15731  32.031  29.941  13.407
43318W        W15732   3.238  25.178  13.533
43319W        W15733  26.198  41.317   4.273
43320W        W15734  16.090  13.697  13.450
43321W        W15735  28.137  26.604   3.678
43322W        W15736  16.073   5.815   0.743
43323W        W15737  36.968   2.966   1.714
43324W        W15738  31.471  28.448   0.943
43325W        W15739  15.250  16.758  10.137
43326W        W15740   5.371  42.849   2.259
43327W        W15741  13.187  25.144  12.033
43328W        W15742  30.145  31.586   4.202
43329W        W15743   8.281  30.121  11.979
43330W        W15744  25.524  19.708  10.948
43331W        W15745  40.910  23.526  11.493
43332W        W15746  44.933  25.140   4.195
43333W        W15747  37.404   8.206  10.569
43334W        W15748  23.668  14.169   1.866
43335W        W15749  11.680  35.538   2.259
43336W        W15750  37.527  14.764  14.893
43337W        W15751  41.885  29.025   2.902
43338W        W15752  25.546  24.566  13.351
43339W        W15753  40.854  27.555  13.990
43340W        W15754  36.554   1.342   4.314
43341W        W15755  39.846   7.759   3.224
43342W        W15756  30.541   8.771   3.811
43343W        W15757   5.721  41.827   9.961
43344W        W15758  30.034   3.327   0.410
43345W        W15759  44.991  44.298  10.142
43346W        W15760  43.838  37.532  10.578
43347W        W15761  43.483  13.262  12.019
43348W        W15762  20.134  28.077  11.447
43349W        W15763  27.024  40.349  12.441
43350W        W15764  29.535  35.574   0.867
43351W        W15765  42.782  44.800  10.546
43352W        W15766  21.047  10.148  14.456
43353W        W15767  41.409  34.519   4.167
43354W        W15768  29.458  36.059  10.099
43355W        W15769  32.579  40.846  10.914
43356W        W15770   9.811   6.773  13.497
43357W        W15771   6.917   3.779   3.299
43358W        W15772  31.140  22.023   2.710
43359W        W15773  25.018  35.942  14.329
43360W        W15774  38.342   1.780   3.747
43361W        W15775  16.121   8.232  11.923
43362W        W15776  35.416  34.074   0.394
43363W        W15777  33.434   9.353  12.963
43364W        W15778  27.570  30.067  13.965
43365W        W15779  41.954  17.752  14.778
43366W        W15780  34.504  29.654  11.916
43367W        W15781   5.261  42.832  13.358
43368W        W15782  42.393  36.573   0.299
43369W        W15783  44.435  42.473  10.505
43370W        W15784  26.602  33.910   1.897
43371W        W15785  34.497  21.653  11.092
43372W        W15786   7.794  33.911   1.421
43373W        W15787  26.956  11.345   1.799
43374W        W15788  32.949  27.106  14.425
43375W        W15789  22.518  21.248  14.474
43376W        W15790  31.452   4.381   2.879
43377W        W15791  11.730   6.882  12.494
43378W        W15792  13.121  35.374   0.839
43379W        W15793  20.530  35.920   4.244
43380W        W15794  34.543  30.160   0.342
43381W        W15795  26.002  32.524  12.942
43382W        W15796   1.793   2.802   2.866
43383W        W15797  31.074  10.727  10.524
43384W        W15798  40.445  35.377  13.909
43385W        W15799   7.805  15.762  12.534
43386W        W15800  16.652  18.584  13.477
43387W        W15801   4.269  38.394   1.287
43388W        W15802   7.748   9.753  11.381
43389W        W15803  17.289  27.508  13.351
43390W        W15804  13.830  15.120   4.608
43391W        W15805   5.702  28.652   4.685
43392W        W15806  25.196  21.546  13.792
43393W        W15807  34.018  38.496  14.349
43394W        W15808  12.203   5.307  10.591
43395W        W15809  11.328   3.300  11.529
43396W        W15810  31.469   4.392  12.431
43397W        W15811  19.657   1.353  12.567
43398W        W15812  15.183   4.802   0.397
43399W        W15813   9.839  38.022  14.777
43400W        W15814  31.613  24.584  12.412
43401W        W15815  44.469   0.377  12.942
43402W        W15816  41.816  17.200   3.765
43403W        W15817  39.482   7.901   0.727
43404W        W15818  29.093  39.520   3.861
43405W        W15819  20.264  43.859  11.993
43406W        W15820  11.195  40.988   3.346
43407W        W15821  12.800  20.266   1.325
43408W        W15822  44.833  20.130  14.388
43409W        W15823  39.052  24.520  12.479
43410W        W15824   8.293   6.344   3.355
43411W        W15825  20.208   3.816   1.721
43412W        W15826   8.683   5.231  14.871
43413W        W15827  13.783  13.719  14.883
43414W        W15828   3.366  23.501   0.387
43415W        W15829   3.244  11.260   2.706
43416W        W15830  23.541  10.879  13.891
43417W        W15831  39.029  28.162   2.295
43418W        W15832  18.776   8.726  11.017
43419W        W15833   0.353  13.160   1.820
43420W        W15834   6.762  40.510  14.506
43421W        W15835  25.021  19.591   3.334
43422W        W15836  30.126  22.179  14.404
43423W        W15837  10.290  21.714  10.031
43424W        W15838  34.473  14.266   2.759
43425W        W15839   2.893   5.272  11.555
43426W        W15840  35.491  25.579   4.605
43427W        W15841  15.122  16.571   2.682
43428W        W15842   8.335   9.671  12.021
43429W        W15843   7.385  23.492   3.179
43430W        W15844  18.209  38.931   0.388
43431W        W15845  37.999  43.913   3.828
43432W        W15846   2.870  32.107   3.866
43433W        W15847   3.817   0.419  12.846
43434W        W15848  37.078   4.872  11.008
43435W        W15849   3.282  44.421  14.834
43436W        W15850  13.677  43.501  14.767
43437W        W15851   1.955  21.733  13.384
43438W        W15852  32.512  22.666   5.090
43439W        W15853  33.418  40.360  10.004
43440W        W15854  17.142  12.136   4.226
43441W        W15855  12.690   5.377  10.455
43442W        W15856  31.019  33.110   0.370
43443W        W15857  18.241  22.693  11.428
43444W        W15858  44.288  12.810  12.041
43445W        W15859  21.133  41.293   0.903
43446W        W15860  15.777  38.356  12.030
43447W        W15861  31.623  22.517  11.918
43448W        W15862   5.427  42.938  12.884
43449W        W15863   9.364  26.685  11.069
43450W        W15864  25.067   6.683   2.314
43451W        W15865  35.094  39.558   0.737
43452W        W15866   2.399   0.845   4.309
43453W        W15867  25.094  15.685   1.295
43454W        W15868   8.335  20.765   0.331
43455W        W15869  21.667  42.507  13.372
43456W        W15870  17.234  27.594  13.852
43457W        W15871  18.118   5.724  12.887
43458W        W15872  41.959  37.360  12.542
43459W        W15873   6.879   7.698  13.972
43460W        W15874   0.836  35.866   1.781
43461W        W15875  30.937  14.810   3.252
43462W        W15876  41.863  10.265  10.945
43463W        W15877  34.504  17.583   3.761
43464W        W15878  34.987  30.413  11.450
43465W        W15879  14.807  33.511  12.972
43466W        W15880  15.181  27.098   2.669
43467W        W15881  36.022  18.610   2.886
43468W        W15882  12.215   5.762   2.281
43469W        W15883  42.780  43.922  10.642
43470W        W15884  10.700  27.060  12.096
43471W        W15885  25.087   9.820   0.808
43472W        W15886  32.566  28.642  13.821
43473W        W15887   4.755  39.021  13.393
43474W        W15888  23.169  34.542   3.170
43475W        W15889  14.161   2.772  10.474
43476W        W15890  13.213  39.972   1.696
43477W        W15891  19.143  13.173  13.054
43478W        W15892  39.981  36.362   4.828
43479W        W15893  43.512  34.515   5.190
43480W        W15894  44.771  27.655  12.477
43481W        W15895  37.512  31.634  13.361
43482W        W15896   8.245  23.207   1.779
43483W        W15897   8.713  34.098  13.456
43484W        W15898  13.815  35.395   3.760
43485W        W15899  34.539  41.532  11.376
43486W        W15900  11.685   8.376  12.545
43487W        W15901  30.156   7.396  13.852
43488W        W15902  41.011  16.752   4.201
43489W        W15903  33.982  32.910   1.740
43490W        W15904  27.071  16.749   4.216
43491W        W15905  32.420  14.185   5.277
43492W        W15906  37.510  33.035  14.764
43493W        W15907  22.571  43.810   3.814
43494W        W15908   4.244  23.988   1.844
43495W        W15909  18.192  20.601  11.107
43496W        W15910   4.941  30.040   1.773
43497W        W15911  36.409  16.785  12.350
43498W        W15912  43.874  35.582  14.921
43499W        W15913  29.009  44.375  13.489
43500W        W15914  12.214  19.561  12.543
43501W        W15915   4.232  38.825  12.972
43502W        W15916   8.751  15.133  14.966
43503W        W15917  24.061  27.567   1.852
43504W        W15918  41.417  37.875  12.845
43505W        W15919  13.320   3.820   4.665
43506W        W15920  14.195  13.749  11.113
43507W        W15921  28.159  20.079   4.115
43508W        W15922  27.161  32.909   3.227
43509W        W15923  10.206  44.324  11.440
43510W        W15924  39.873  25.630  12.339
43511W        W15925   9.311  22.513  13.868
43512W        W15926  13.171  44.777  12.474
43513W        W15927  38.431  12.677  14.968
43514W        W15928   8.824  39.461   0.328
43515W        W15929  32.089   1.359  14.951
43516W        W15930  43.888  20.248  10.948
43517W        W15931   5.721  41.829  14.891
43518W        W15932   5.213  28.569   4.623
43519W        W15933  35.952  18.738  14.007
43520W        W15934  19.749  14.146   0.745
43521W        W15935   0.419  18.115  12.383
43522W        W15936  19.204  34.115   4.652
43523W        W15937  32.904  25.022   2.378
43524W        W15938  38.026  42.942   2.295
43525W        W15939  17.138   6.811   0.753
43526W        W15940  19.567  12.855   0.319
43527W        W15941  31.115  34.948  13.546
43528W        W15942  44.487  12.121   2.210
43529W        W15943   8.755  44.384   4.254
43530W        W15944  29.171   4.311   0.768
43531W        W15945  39.882   3.356   4.668
43532W        W15946  21.201  20.161  11.037
43533W        W15947  21.567  13.252   3.180
43534W        W15948  36.542   6.382   3.796
43535W        W15949  44.322  11.811   3.260
43536W        W15950  39.873  38.960  11.968
43537W        W15951  33.012  27.057  11.451
43538W        W15952  34.379  22.015  10.962
43539W        W15953  30.507  15.623   0.728
43540W        W15954   6.352  41.966   4.229
43541W        W15955   6.876   3.270  14.386
43542W        W15956  19.065   2.268  11.403
43543W        W15957  23.984   7.205  10.437
43544W        W15958  41.996  40.889  10.907
43545W        W15959  38.950  11.324   0.374
43546W        W15960  12.743  29.958  13.940
43547W        W15961  22.094   2.457  12.872
43548W        W15962  21.205  29.481  11.491
43549W        W15963   3.301  10.848  12.559
43550W        W15964  42.994  29.026   2.287
43551W        W15965  40.969  41.889  13.363
43552W        W15966  38.451  28.160  13.932
43553W        W15967  27.948   0.446   1.440
43554W        W15968  42.429  17.633  10.629
43555W        W15969  34.107  30.988   1.793
43556W        W15970  17.614  35.910   0.922
43557W        W15971  37.467   1.755  13.488
43558W        W15972  23.582  18.688   4.731
43559W        W15973  11.662  20.753   2.790
43560W        W15974  38.397  20.172  14.512
43561W        W15975  12.301  20.084   0.316
43562W        W15976  18.592   2.826  12.895
43563W        W15977  19.624  14.735  13.464
43564W        W15978  19.549  43.001   0.390
43565W        W15979   1.797  21.206  14.366
43566W        W15980  16.715   0.982  13.366
43567W        W15981   8.397  15.268   1.908
43568W        W15982  42.828  38.047  11.574
43569W        W15983  26.966  26.673  11.929
43570W        W15984  11.757   7.304  12.542
43571W        W15985  38.945  26.046   3.636
43572W        W15986  36.900  44.282   1.365
43573W        W15987  31.440  29.655   4.329
43574W        W15988  40.306  21.102  12.929
43575W        W15989  25.174  40.393  13.824
43576W        W15990  40.506  39.343  14.465
43577W        W15991  16.142  22.248  11.612
43578W        W15992  18.763  25.059   9.990
43579W        W15993  39.970  17.199   1.721
43580W        W15994  27.050  40.984  13.859
43581W        W15995  26.517  27.567   3.267
43582W        W15996  16.756  28.161  13.368
43583W        W15997   5.354   5.402  13.928
43584W        W15998  17.620  11.822   0.252
43585W        W15999  38.422  13.298  13.056
43586W        W16000  28.442   4.249   0.253
43587W        W16001  18.233   0.410   9.443
43588W        W16002  44.891  44.474  11.929
43589W        W16003   0.962   7.266   3.277
43590W        W16004  19.130   4.809  12.061
43591W        W16005  10.740  16.133  11.561
43592W        W16006  44.462  17.148   0.287
43593W        W16007  13.778   7.390   2.321
43594W        W16008  36.456   0.457   3.312
43595W        W16009  19.047  42.880  14.887
43596W        W16010   0.275  22.681   0.468
43597W        W16011  21.095  30.991   4.621
43598W        W16012  23.600  32.560  13.962
43599W        W16013   9.293  44.763   4.194
43600W        W16014  43.273   5.326   2.249
43601W        W16015  41.875   6.185  12.942
43602W        W16016  35.050  27.146   3.338
43603W        W16017   7.220  17.640  13.014
43604W        W16018  26.486  23.604  13.481
43605W        W16019  16.202  20.570  11.038
43606W        W16020  19.757  27.642   2.663
43607W        W16021  25.480  39.878  10.600
43608W        W16022  25.557  19.746  10.097
43609W        W16023  25.675  24.696  14.469
43610W        W16024   9.251  27.183  13.508
43611W        W16025  35.565   7.786  12.878
43612W        W16026   6.693  11.358   1.837
43613W        W16027  18.618  40.336   3.265
43614W        W16028  17.179  16.246   9.926
43615W        W16029   5.373  29.600   4.337
43616W        W16030  39.929   7.246   4.753
43617W        W16031  35.571   3.751   2.843
43618W        W16032  37.433  34.089  12.345
43619W        W16033  35.949   0.450   4.787
43620W        W16034  42.514  42.473   2.206
43621W        W16035  26.021  29.645  13.402
43622W        W16036  25.075  21.236   0.368
43623W        W16037  10.775  43.010  12.577
43624W        W16038  21.667  44.799  12.836
43625W        W16039  37.363  20.147   1.919
43626W        W16040   1.904  27.472   0.303
43627W        W16041   5.309  30.440   2.411
43628W        W16042  35.046  17.558   2.795
43629W        W16043  35.101  25.976   1.365
43630W        W16044   7.201  36.528  12.547
43631W        W16045  24.649   0.485   3.789
43632W        W16046  18.707  23.735   1.895
43633W        W16047   8.697  34.544  11.518
43634W        W16048  35.383  16.786  12.937
43635W        W16049  28.960  42.284   0.459
43636W        W16050   9.347  14.796   1.450
43637W        W16051  36.064   3.347  11.405
43638W        W16052  18.168   9.872   3.838
43639W        W16053  24.189  12.679  10.451
43640W        W16054   0.374   5.921   4.296
43641W        W16055  21.166  28.969  14.837
43642W        W16056  42.426   3.832   0.419
43643W        W16057  21.050   4.271   3.857
43644W        W16058  28.133  42.780   4.269
43645W        W16059  14.103  20.253  14.416
43646W        W16060  28.486  21.610  10.943
43647W        W16061  15.215  43.990   4.215
43648W        W16062  37.017  41.808   4.157
43649W        W16063  30.133  13.108   3.813
43650W        W16064   3.391  27.497  12.936
43651W        W16065  30.544   4.850   3.701
43652W        W16066  29.563   4.340  12.042
43653W        W16067  29.028  30.544   2.330
43654W        W16068  12.627   6.749   0.911
43655W        W16069  42.926  40.345   5.267
43656W        W16070  18.772  29.155   0.359
43657W        W16071  29.934  44.809   1.863
43658W        W16072  19.070  23.075  14.472
43659W        W16073  41.854   4.925  13.912
43660W        W16074  16.291   1.861   3.658
43661W        W16075  29.984  27.081   4.625
43662W        W16076  32.567  17.646  11.512
43663W        W16077  21.076  28.487  13.954
43664W        W16078  19.599  35.068   0.751
43665W        W16079   5.881   4.917   1.793
43666W        W16080  17.117   5.265   3.744
43667W        W16081  35.448  32.017  12.563
43668W        W16082   5.755   0.903   3.725
43669W        W16083  44.906  38.067  11.550
43670W        W16084  22.599  37.489   2.887
43671W        W16085  30.563  21.622   2.844
43672W        W16086   1.943   9.822   2.317
43673W        W16087   7.177  43.327   1.304
43674W        W16088  30.566  20.588  10.514
43675W        W16089  35.079  30.020   1.326
43676W        W16090  23.730  33.447  11.911
43677W        W16091   8.880  44.835   4.208
43678W        W16092  43.416   3.317  12.053
43679W        W16093  10.327  42.850  13.424
43680W        W16094  40.054   8.682  11.904
43681W        W16095  17.742  15.190   4.806
43682W        W16096   5.773  41.021   4.297
43683W        W16097  15.621  18.572  11.382
43684W        W16098  25.533  37.921   3.657
43685W        W16099  23.688  24.712  11.563
43686W        W16100  24.490  35.532  10.417
43687W        W16101  24.135   1.939   4.179
43688W        W16102   8.838   3.268  14.505
43689W        W16103  37.968  41.360  14.476
43690W        W16104  43.906  23.038  12.408
43691W        W16105   3.764   8.172   4.619
43692W        W16106  10.198  11.744  14.759
43693W        W16107  24.524  26.029  13.803
43694W        W16108  41.036  18.787  13.845
43695W        W16109  34.415  36.029   2.736
43696W        W16110   0.297   8.259   1.377
43697W        W16111  36.052   8.804   0.732
43698W        W16112  40.535  19.562   2.190
43699W        W16113   4.887  25.051   3.206
43700W        W16114   1.941  43.315   0.312
43701W        W16115  16.580   2.891  14.307
43702W        W16116  17.752   3.836   4.201
43703W        W16117  23.112  12.831   2.355
43704W        W16118  15.697  38.326   3.259
43705W        W16119  16.808   3.317   1.447
43706W        W16120  11.345  12.332   1.223
43707W        W16121  44.904  28.678  11.031
43708W        W16122   8.781  31.598  13.444
43709W        W16123  19.697  14.314   3.355
43710W        W16124  44.380  22.041  14.798
43711W        W16125  42.918  22.519   4.195
43712W        W16126   3.852  16.165   2.192
43713W        W16127  23.601  15.707  14.320
43714W        W16128  35.932  11.789   1.835
43715W        W16129  38.460  32.598   1.702
43716W        W16130  35.422   5.791   0.387
43717W        W16131  39.506  14.812   1.438
43718W        W16132  30.930   4.414   2.367
43719W        W16133   1.320  26.998  11.102
43720W        W16134  16.602  39.964  13.313
43721W        W16135   3.799  15.181   5.627
43722W        W16136  20.081   8.314  11.438
43723W        W16137  44.876  13.264  11.059
43724W        W16138  34.495  35.374   0.838
43725W        W16139  17.216   8.855  12.047
43726W        W16140   5.389  11.751  14.309
43727W        W16141  25.503  30.055   2.286
43728W        W16142   3.406   4.249  13.334
43729W        W16143  14.621  30.505   3.698
43730W        W16144  28.650   7.828  13.470
43731W        W16145  25.547  21.628   4.743
43732W        W16146  22.174  15.096   3.259
43733W        W16147  36.358  10.686  13.443
43734W        W16148  37.929  29.434   4.753
43735W        W16149   4.878   1.878  11.596
43736W        W16150  16.657   2.251   4.742
43737W        W16151   5.752  20.550  13.804
43738W        W16152   0.827  43.338   4.684
43739W        W16153  25.570  10.193  13.386
43740W        W16154   8.668  22.062  14.935
43741W        W16155  31.648  14.747  14.310
43742W        W16156  38.486   3.427  11.121
43743W        W16157  29.461  32.467  12.896
43744W        W16158  29.579  14.185   4.791
43745W        W16159  28.535   5.792  12.847
43746W        W16160  12.851  36.578   2.334
43747W        W16161  22.174  21.125   4.207
43748W        W16162  42.003  32.078   0.339
43749W        W16163  24.707  37.969   2.402
43750W        W16164  35.861  25.705  12.534
43751W        W16165  27.458   7.232  14.363
43752W        W16166  16.073  34.538   2.186
43753W        W16167  34.953   7.199  10.026
43754W        W16168   5.216  37.364  13.889
43755W        W16169  30.635  32.505  14.337
43756W        W16170  41.832  18.126  10.043
43757W        W16171   1.245   9.878   1.264
43758W        W16172  26.653  21.042   0.269
43759W        W16173   5.734  11.630  10.963
43760W        W16174   1.403  39.018  14.887
43761W        W16175  39.947  27.177  12.380
43762W        W16176   5.743  15.599  12.013
43763W        W16177   5.881   8.166   2.205
43764W        W16178  23.507  30.603  13.402
43765W        W16179  12.708  23.991  12.559
43766W        W16180  34.064   5.295  12.369
43767W        W16181   8.862  36.924   2.861
43768W        W16182  39.431   7.824   1.210
43769W        W16183  19.239  11.628   4.221
43770W        W16184  34.520  25.488  12.828
43771W        W16185   7.380  39.981  11.448
43772W        W16186  25.591  26.539   0.863
43773W        W16187  24.130  10.743   4.719
43774W        W16188  40.999  18.684   4.808
43775W        W16189   7.885   3.432   1.872
43776W        W16190  35.104  12.195   2.274
43777W        W16191  30.431   9.824  14.960
43778W        W16192  35.106  22.525  10.423
43779W        W16193   5.725  24.110  14.844
43780W        W16194   3.797   8.826   4.184
43781W        W16195  12.305  29.126  11.103
43782W        W16196   5.893   6.201   1.373
43783W        W16197  30.488  28.065  12.577
43784W        W16198  21.625  30.489   1.748
43785W        W16199   7.335  12.817  12.055
43786W        W16200  16.125  40.328   2.781
43787W        W16201  29.056  11.727   0.734
43788W        W16202  20.540   2.815  13.932
43789W        W16203  11.323  18.224  13.522
43790W        W16204  33.474  24.182  11.051
43791W        W16205  23.508  41.853  11.499
43792W        W16206   6.865  26.471  12.340
43793W        W16207  42.300  42.016  12.043
43794W        W16208  38.906  29.566  14.340
43795W        W16209  18.740   8.809  12.912
43796W        W16210  38.050  31.575   3.642
43797W        W16211   8.324  16.167  11.443
43798W        W16212   0.489  24.593  10.919
43799W        W16213  32.001  29.077   1.805
43800W        W16214  23.106  16.591  11.533
43801W        W16215  12.324  19.232   1.369
43802W        W16216  35.882   3.924   0.753
43803W        W16217  16.601  42.899  13.037
43804W        W16218  23.164  41.439   0.730
43805W        W16219  10.844  11.365  12.095
43806W        W16220   1.917  16.616   2.402
43807W        W16221   1.436   3.319  14.413
43808W        W16222  20.654  31.042   2.219
43809W        W16223  15.233  20.139   4.160
43810W        W16224  10.317  32.414   4.788
43811W        W16225  26.558  10.839  13.365
43812W        W16226  31.646   4.799  11.946
43813W        W16227  40.960   7.705  11.586
43814W        W16228  16.727  38.556   0.362
43815W        W16229   5.336   4.799  12.854
43816W        W16230  22.180  33.947   4.269
43817W        W16231   3.759  25.670   2.791
43818W        W16232   7.344  13.308  14.828
43819W        W16233  36.952  39.902  10.409
43820W        W16234  13.816  27.683  12.547
43821W        W16235   4.345  34.432   3.348
43822W        W16236  22.744  13.607   1.351
43823W        W16237   8.772  39.543  14.788
43824W        W16238   8.810   5.404  11.522
43825W        W16239  38.536  11.367   1.397
43826W        W16240  25.016   1.443  12.945
43827W        W16241  40.873  34.470   3.729
43828W        W16242  26.522   4.905   0.365
43829W        W16243  43.799   0.835   4.786
43830W        W16244  17.666   6.327   0.742
43831W        W16245  32.518  30.642   3.730
43832W        W16246  13.749  21.156  12.898
43833W        W16247  40.517   1.815  12.503
43834W        W16248   7.831  42.445  14.356
43835W        W16249   5.753  41.850   1.293
43836W        W16250   5.359  38.930  14.792
43837W        W16251  37.944  43.987   0.269
43838W        W16252  40.944  30.054   3.746
43839W        W16253   0.765  19.734   4.816
43840W        W16254  31.144  40.516  14.455
43841W        W16255  30.979  19.207  12.541
43842W        W16256   4.400  13.711  10.619
43843W        W16257  27.482  21.582   3.251
43844W        W16258  44.424  25.684   0.851
43845W        W16259   6.764  29.523   3.166
43846W        W16260  21.164  16.589  12.575
43847W        W16261  28.002  33.978   1.256
43848W        W16262   7.349  19.146   2.830
43849W        W16263   4.254  12.615   5.772
43850W        W16264  35.442  30.593  11.126
43851W        W16265   6.714  21.256   0.946
43852W        W16266  26.164  36.385   2.378
43853W        W16267  29.077   5.303  11.382
43854W        W16268  32.974  27.665   2.342
43855W        W16269  23.102  37.394  13.395
43856W        W16270   7.371   2.426  10.889
43857W        W16271  13.285  36.892  11.015
43858W        W16272   5.217  42.788  12.049
43859W        W16273   2.839   1.871   2.282
43860W        W16274   6.340   0.422  12.345
43861W        W16275  27.559  26.649  12.454
43862W        W16276  30.603  33.120  11.569
43863W        W16277  21.093   3.853  11.564
43864W        W16278  27.661  25.626   2.373
43865W        W16279  20.132  19.209   2.847
43866W        W16280  29.944  13.269   0.248
43867W        W16281  13.221   1.336   4.213
43868W        W16282  12.656  42.850   0.336
43869W        W16283  14.211   5.354  14.843
43870W        W16284  35.004  35.080  10.409
43871W        W16285  38.447  19.121   4.137
43872W        W16286  39.860  14.608  12.503
43873W        W16287  16.226  41.320   5.303
43874W        W16288   1.372  22.504   1.885
43875W        W16289  44.469  39.864   1.319
43876W        W16290  16.662  12.197   2.776
43877W        W16291  42.857  25.566   1.234
43878W        W16292  21.185   9.265  11.545
43879W        W16293  35.955  41.419   1.374
43880W        W16294  19.603  34.963   0.392
43881W        W16295   5.282  19.543   0.845
43882W        W16296   4.796  12.347   3.379
43883W        W16297  40.852  40.893  11.494
43884W        W16298   1.919   9.712   0.263
43885W        W16299  20.202  39.977  11.953
43886W        W16300   2.777  33.007   2.896
43887W        W16301  24.102   5.824   4.165
43888W        W16302  36.923   7.705   0.751
43889W        W16303  32.014  11.786  14.357
43890W        W16304  12.237  28.485  13.876
43891W        W16305  37.450   4.419   0.422
43892W        W16306  22.161  42.492   1.829
43893W        W16307  32.055  37.385   4.287
43894W        W16308  19.686  27.625  12.523
43895W        W16309   5.280  17.105   3.198
43896W        W16310  30.575  25.140   4.834
43897W        W16311  17.239  17.675  14.902
43898W        W16312   1.961  11.622  11.069
43899W        W16313  12.697  21.517   2.858
43900W        W16314  34.947  28.133   5.191
43901W        W16315  24.998  34.408   1.787
43902W        W16316   1.769  37.992  10.491
43903W        W16317  42.842   7.229   1.325
43904W        W16318   4.706  41.839  11.106
43905W        W16319  31.466  39.549   2.835
43906W        W16320  23.703  31.925   2.290
43907W        W16321  19.056  17.259  10.485
43908W        W16322  37.553   3.778   1.406
43909W        W16323  14.321  10.819   3.864
43910W        W16324  16.128   8.400   3.866
43911W        W16325   0.348   7.342   0.869
43912W        W16326  28.952   0.826  14.794
43913W        W16327   3.727  20.121   4.295
43914W        W16328  41.947  23.074  11.084
43915W        W16329   9.281  16.108  11.896
43916W        W16330   3.416  41.008  11.424
43917W        W16331  39.874  30.928  13.329
43918W        W16332  21.514  29.971  10.905
43919W        W16333  21.531  26.040   1.723
43920W        W16334  24.024  10.171   0.362
43921W        W16335  19.731  19.593  11.858
43922W        W16336  44.783  38.343   0.452
43923W        W16337  23.081  15.111  11.552
43924W        W16338  19.775  23.563   4.219
43925W        W16339  30.909   4.762  14.487
43926W        W16340  42.502   7.680   1.316
43927W        W16341  11.656  14.785   0.465
43928W        W16342   1.476   2.870  14.775
43929W        W16343   7.331  25.178   2.681
43930W        W16344  21.541  41.870  11.383
43931W        W16345  21.713  20.116  12.487
43932W        W16346  41.919  37.003  13.476
43933W        W16347  11.800  37.918  11.048
43934W        W16348  13.825  43.346   4.778
43935W        W16349  44.441  11.241   2.759
43936W        W16350  37.047  18.113   1.825
43937W        W16351  28.595  25.179   1.428
43938W        W16352   3.806  41.375  12.930
43939W        W16353  24.567  14.303   0.787
43940W        W16354  29.615  15.287   0.788
43941W        W16355  31.628  29.025   0.451
43942W        W16356  16.691  44.009   9.534
43943W        W16357   7.237  30.549   1.400
43944W        W16358  22.173  30.593   0.876
43945W        W16359  25.156  29.636   1.869
43946W        W16360   2.419  18.250  13.408
43947W        W16361  44.323  40.418  14.447
43948W        W16362  34.991  38.337  11.422
43949W        W16363  42.481   2.812   1.847
43950W        W16364  34.873  23.682   1.924
43951W        W16365  28.662   8.894   1.823
43952W        W16366  38.849   7.414  11.011
43953W        W16367  35.012  19.119  14.367
43954W        W16368  19.264  16.677   2.718
43955W        W16369  14.264  30.124  13.837
43956W        W16370  26.692   9.792  11.043
43957W        W16371   5.287  16.805  10.582
43958W        W16372  22.107  30.013   2.842
43959W        W16373  15.234  16.636   2.181
43960W        W16374  15.729  36.867  14.290
43961W        W16375  20.265  29.923  13.947
43962W        W16376   1.805   5.237  12.949
43963W        W16377  35.919  35.532   9.921
43964W        W16378  37.562  17.765   3.790
43965W        W16379  39.417  33.909   2.230
43966W        W16380  15.623   8.248   2.822
43967W        W16381  15.325   0.472  11.939
43968W        W16382  15.716  11.322   3.740
43969W        W16383  26.595  35.059   0.966
43970W        W16384  11.314  21.570  11.400
43971W        W16385  35.992  39.405  11.091
43972W        W16386  38.350  12.734  12.937
43973W        W16387  22.208  35.567  11.092
43974W        W16388  15.747  34.867   3.189
43975W        W16389  21.228   7.743   1.755
43976W        W16390  40.305  17.196  14.985
43977W        W16391  12.823  30.084  11.406
43978W        W16392  15.272  10.257  13.953
43979W        W16393   5.297  39.971   5.625
43980W        W16394   5.344   0.428   4.189
43981W        W16395  44.770  26.163   3.780
43982W        W16396   2.825  38.442   1.759
43983W        W16397  21.539   0.831   2.825
43984W        W16398  33.980  20.225  11.109
43985W        W16399   8.358  39.044  14.302
43986W        W16400  13.196  35.455  13.512
43987W        W16401  44.946  21.071  10.091
43988W        W16402  37.569   7.792  12.422
43989W        W16403   6.244   7.894  11.456
43990W        W16404  20.752  18.769   3.185
43991W        W16405  22.632  23.188   0.286
43992W        W16406   7.679  36.000   5.219
43993W        W16407  29.621   5.366  10.986
43994W        W16408  31.091  39.477  12.042
43995W        W16409  28.476   8.724   3.710
43996W        W16410   4.241  38.565  12.062
43997W        W16411   8.881  40.800  12.028
43998W        W16412  40.529   1.752  12.093
43999W        W16413   8.211   7.827  10.416
44000W        W16414  21.250  17.200  14.284
44001W        W16415  37.480  20.072   1.449
44002W        W16416  41.849  22.507   4.702
44003W        W16417  30.924   0.385  12.930
44004W        W16418  30.088  11.158   1.443
44005W        W16419   6.762  21.661  12.543
44006W        W16420  20.741   0.481  10.102
44007W        W16421  17.201   7.869  13.849
44008W        W16422   4.206  18.613   1.748
44009W        W16423  14.231  15.780   1.738
44010W        W16424  42.972  39.356  11.528
44011W        W16425   4.790  44.942  11.552
44012W        W16426  23.196  20.762   3.226
44013W        W16427  34.438  43.296   1.831
44014W        W16428  31.541  11.730   1.894
44015W        W16429  37.565  43.392   1.823
44016W        W16430  17.686   0.946  14.357
44017W        W16431  22.096  36.402   4.302
44018W        W16432  44.349  26.463  11.886
44019W        W16433  30.425  43.860   0.304
44020W        W16434  11.349  34.593  12.418
44021W        W16435  40.985  39.021   3.760
44022W        W16436  36.393  31.567  11.381
44023W        W16437  38.457  20.659   4.687
44024W        W16438  41.493  40.932  10.452
44025W        W16439   9.238   1.960  14.916
44026W        W16440  34.380   9.215   0.733
44027W        W16441  42.853  16.764  10.069
44028W        W16442   8.299  26.697  10.535
44029W        W16443  30.065  13.751  14.030
44030W        W16444  37.551  11.221   2.750
44031W        W16445  20.192  21.151   2.806
44032W        W16446  14.233  35.888  10.627
44033W        W16447  23.142  26.607  13.963
44034W        W16448  36.918  42.443  10.418
44035W        W16449  24.013   4.756   0.852
44036W        W16450  43.873  20.592   4.172
44037W        W16451   4.342  40.467   0.438
44038W        W16452  34.047  44.337   3.206
44039W        W16453  12.683  38.881   2.302
44040W        W16454   7.283  28.581  13.921
44041W        W16455  21.034  43.401  12.094
44042W        W16456   7.354   3.242  13.953
44043W        W16457  10.760  21.712   1.717
44044W        W16458  16.305  27.603   4.742
44045W        W16459   7.854  17.289   2.703
44046W        W16460  17.248  15.582  10.009
44047W        W16461   0.810  32.914  13.408
44048W        W16462   5.411  17.628   3.790
44049W        W16463  44.390  26.997   0.823
44050W        W16464   9.370  16.169   4.169
44051W        W16465  21.239  38.898  10.625
44052W        W16466  33.932  32.505   1.217
44053W        W16467  19.766   2.352  13.456
44054W        W16468  27.104  28.628  11.028
44055W        W16469   2.382  31.931  11.469
44056W        W16470   7.862  29.923  14.307
44057W        W16471  14.666  24.089   4.302
44058W        W16472  10.701  40.508  11.904
44059W        W16473  20.207  29.526   2.339
44060W        W16474  41.035  17.089  13.808
44061W        W16475   2.858  34.906   4.140
44062W        W16476  13.678  10.229  13.845
44063W        W16477  30.970  17.075  14.285
44064W        W16478  34.942  37.920  13.914
44065W        W16479  36.524  29.640   1.421
44066W        W16480  29.988  15.239  13.061
44067W        W16481  20.550   5.386   3.807
44068W        W16482  31.463  20.128  14.413
44069W        W16483   2.304  33.040  12.846
44070W        W16484   2.773  34.537   2.686
44071W        W16485  25.207  37.412   4.243
44072W        W16486  17.583  39.490  14.946
44073W        W16487  44.485  10.374  13.310
44074W        W16488  42.373  41.025  13.805
44075W        W16489  41.493   3.248   1.775
44076W        W16490  43.975  14.132  10.436
44077W        W16491   9.249  28.040  11.585
44078W        W16492  21.156  43.502   2.382
44079W        W16493   0.417  14.139  13.064
44080W        W16494   1.291  37.987  10.412
44081W        W16495  13.120  30.593  12.969
44082W        W16496  21.724  32.630  14.847
44083W        W16497   7.267  40.402  13.967
44084W        W16498  34.926  10.686  11.425
44085W        W16499   9.708  26.098  12.509
44086W        W16500  43.855  23.227   2.246
44087W        W16501  18.164  20.108   0.861
44088W        W16502   5.373  20.183  14.970
44089W        W16503  35.901  29.545  11.898
44090W        W16504  13.345  22.141   4.672
44091W        W16505   1.876  26.542  11.493
44092W        W16506  14.297  15.759  11.409
44093W        W16507  25.671  36.062  10.961
44094W        W16508  44.455  12.236   4.610
44095W        W16509  37.343  26.201   2.817
44096W        W16510  12.773   8.762   4.123
44097W        W16511   0.920  24.041  14.011
44098W        W16512   5.818  16.652   0.291
44099W        W16513  27.541  34.999   3.748
44100W        W16514   4.350  11.155  12.381
44101W        W16515  44.962  32.086  11.541
44102W        W16516  16.634  33.501   1.717
44103W        W16517  16.631  26.960  11.378
44104W        W16518  26.197   7.264  14.880
44105W        W16519  39.471  16.580   1.245
44106W        W16520  34.890  31.065  12.883
44107W        W16521  32.080  18.630  10.611
44108W        W16522  36.400  34.108   2.873
44109W        W16523   3.906   1.273  14.779
44110W        W16524   6.831  43.374  12.894
44111W        W16525  10.700   9.823   1.340
44112W        W16526  20.068  38.371  13.363
44113W        W16527  12.846  28.523   1.437
44114W        W16528   8.331  11.270  12.905
44115W        W16529  31.538   7.269  14.359
44116W        W16530  10.738  22.554   4.300
44117W        W16531  18.114  10.319   3.701
44118W        W16532   4.282  20.701  11.586
44119W        W16533  23.027  29.454   3.752
44120W        W16534  13.789   2.284  13.859
44121W        W16535   6.879  33.486  12.970
44122W        W16536  16.783  41.314  11.438
44123W        W16537  24.498  25.494   2.267
44124W        W16538  34.999  42.355   2.670
44125W        W16539   3.859  12.147  10.428
44126W        W16540   4.941  24.057  12.925
44127W        W16541  39.939  30.927  14.004
44128W        W16542  41.426  26.560  13.883
44129W        W16543   5.749  12.677   1.807
44130W        W16544  35.393   4.861  14.290
44131W        W16545  19.273  28.153  11.480
44132W        W16546  38.868   9.757   3.354
44133W        W16547  28.142  30.143   0.837
44134W        W16548   8.177  14.743   1.871
44135W        W16549  30.990   6.920  13.314
44136W        W16550  43.276  43.467   4.640
44137W        W16551   5.368  26.080   4.224
44138W        W16552  33.459   1.370   0.826
44139W        W16553  17.146  28.439   3.689
44140W        W16554  16.268   6.425   3.309
44141W        W16555  13.337  17.740   1.762
44142W        W16556  41.034  28.035   0.304
44143W        W16557  18.556   7.889  10.927
44144W        W16558  31.113  21.236   3.332
44145W        W16559   4.879  32.558  10.050
44146W        W16560   7.821  44.900  14.915
44147W        W16561  43.781  42.368   2.388
44148W        W16562   1.798  31.430   3.674
44149W        W16563  33.953  44.432   1.366
44150W        W16564  23.191  10.345  13.034
44151W        W16565  17.653  22.648   2.896
44152W        W16566  24.697  32.915   3.654
44153W        W16567  32.934  21.035   0.916
44154W        W16568  22.651  39.499  10.992
44155W        W16569  19.070  34.372  14.767
44156W        W16570   1.341  14.261   3.310
44157W        W16571  38.343   3.246  12.090
44158W        W16572   5.786  35.465   0.465
44159W        W16573  24.226   8.373  10.996
44160W        W16574  26.478  23.610   1.353
44161W        W16575  43.780  32.407  13.920
44162W        W16576  40.873  38.925  14.343
44163W        W16577  39.905  27.553   4.296
44164W        W16578   8.209   5.300  10.405
44165W        W16579  28.525  35.419   1.249
44166W        W16580  13.252  16.186  12.385
44167W        W16581  39.896  43.925   0.269
44168W        W16582  13.146   2.345  11.469
44169W        W16583   2.414  29.132   3.704
44170W        W16584  43.991   7.322  10.448
44171W        W16585  43.487  42.392   2.860
44172W        W16586  16.665  25.207  11.108
44173W        W16587  13.238  33.923   3.320
44174W        W16588   4.432  13.206   3.216
44175W        W16589  34.403  10.327  12.479
44176W        W16590  38.365  33.622  14.424
44177W        W16591  11.700  28.119   1.912
44178W        W16592  39.358  43.785   1.358
44179W        W16593  32.999   2.386  10.644
44180W        W16594  27.136  33.384  13.803
44181W        W16595   4.767   8.749   2.270
44182W        W16596  42.393   7.866  13.479
44183W        W16597  35.567  31.590  12.014
44184W        W16598  33.991   4.793  14.304
44185W        W16599  11.213  26.077  14.474
44186W        W16600  37.049  33.068   5.753
44187W        W16601  40.876  36.473   0.744
44188W        W16602  23.037  10.186   1.272
44189W        W16603   4.280  24.698  12.356
44190W        W16604  29.985  29.527  13.459
44191W        W16605  37.557  41.990   4.238
44192W        W16606  23.034  44.346  11.070
44193W        W16607  12.134  36.403  14.481
44194W        W16608  22.087  42.879   4.834
44195W        W16609  16.589  32.931  11.531
44196W        W16610  43.861  29.011   3.722
44197W        W16611  41.493  12.829   4.597
44198W        W16612  15.183  22.117   0.283
44199W        W16613  18.669  21.236   4.196
44200W        W16614  42.930   1.740  11.445
44201W        W16615  11.820   5.209   1.342
44202W        W16616  24.102  20.556  13.957
44203W        W16617   4.309  37.526   3.719
44204W        W16618  10.325  37.913  13.976
44205W        W16619  39.966  10.773  10.490
44206W        W16620   4.357  34.374  13.318
44207W        W16621  41.310  21.723   3.631
44208W        W16622  35.958   3.847  12.047
44209W        W16623  20.074   8.839  10.510
44210W        W16624  10.184  19.195   3.234
44211W        W16625  38.846  23.669  12.044
44212W        W16626  20.729  12.676  13.455
44213W        W16627  10.304  39.832  11.390
44214W        W16628   8.781  17.292   3.155
44215W        W16629  33.579  23.700  11.445
44216W        W16630  18.137  21.092  12.572
44217W        W16631  37.388  20.116   3.697
44218W        W16632  30.516  13.748   2.707
44219W        W16633   4.437  35.574   1.720
44220W        W16634  29.077   8.732   3.777
44221W        W16635  19.178  21.024   4.758
44222W        W16636  15.315  44.299   2.865
44223W        W16637   2.961  35.546   3.650
44224W        W16638  32.393  13.824  11.505
44225W        W16639  14.244   3.383   3.723
44226W        W16640  36.565  40.416  12.048
44227W        W16641   4.739  34.587  13.029
44228W        W16642  26.564  17.229  10.502
44229W        W16643  30.519  40.050   2.253
44230W        W16644  44.891  42.492   2.308
44231W        W16645  38.066   0.256  11.926
44232W        W16646  38.519  23.597  13.502
44233W        W16647  22.190  23.616   0.363
44234W        W16648  21.564  22.682   0.785
44235W        W16649  41.291  17.126  12.026
44236W        W16650  36.530   8.666   2.859
44237W        W16651  30.438  13.620   1.369
44238W        W16652  34.106  21.695   4.326
44239W        W16653  36.090   4.370  10.490
44240W        W16654  27.477  16.091  10.443
44241W        W16655  23.721  21.019  11.093
44242W        W16656  31.020  10.812   1.870
44243W        W16657   5.732   5.737  10.965
44244W        W16658  25.647   1.360   5.099
44245W        W16659  19.069  40.514   3.354
44246W        W16660   6.403   3.278   4.201
44247W        W16661  43.373  15.141   1.820
44248W        W16662  25.186  41.336   4.794
44249W        W16663  13.158  11.345  13.056
44250W        W16664  11.625  26.667   9.993
44251W        W16665  42.402  29.608  14.514
44252W        W16666  12.312  21.728  14.930
44253W        W16667   2.297   4.237  12.049
44254W        W16668   5.876  43.421   1.211
44255W        W16669  23.665  26.059  12.425
44256W        W16670   4.727  12.769   4.667
44257W        W16671   1.830   4.718   0.317
44258W        W16672  38.431   3.276   2.315
44259W        W16673   6.417  25.041  13.401
44260W        W16674  23.016   0.861   1.884
44261W        W16675  24.131  26.477   3.367
44262W        W16676  18.270  33.883   4.665
44263W        W16677  16.254  36.513   4.661
44264W        W16678  14.197  28.615   3.287
44265W        W16679  16.745   3.445  11.462
44266W        W16680  13.157  23.101  12.040
44267W        W16681   6.874   9.876  14.843
44268W        W16682   0.270  30.570  12.372
44269W        W16683   5.432  35.409  10.499
44270W        W16684  40.523  19.718  10.059
44271W        W16685  23.163  23.097   3.849
44272W        W16686   9.231  12.776   3.350
44273W        W16687   3.774   2.885   1.711
44274W        W16688  18.061  15.804   4.634
44275W        W16689  41.032  44.352   0.478
44276W        W16690   0.273  43.845  11.515
44277W        W16691   3.835   1.277  10.626
44278W        W16692   4.864  25.058  10.597
44279W        W16693  41.930   1.820   3.779
44280W        W16694  11.805  27.192  11.121
44281W        W16695   7.180  20.732  10.519
44282W        W16696  26.534  22.197  11.905
44283W        W16697  37.845  27.687  10.986
44284W        W16698   1.443  29.626   4.829
44285W        W16699   4.373  35.503   0.737
44286W        W16700  34.078  44.850   1.445
44287W        W16701   8.741  13.679  13.011
44288W        W16702  15.288  11.287  13.953
44289W        W16703   9.290  30.651   4.276
44290W        W16704   8.371  28.671   2.190
44291W        W16705  12.747  31.937  10.507
44292W        W16706  26.472  27.180  14.856
44293W        W16707  43.010  34.381   2.722
44294W        W16708  26.120   7.729  13.999
44295W        W16709  25.664  13.224  12.938
44296W        W16710  34.944   3.227   2.800
44297W        W16711  26.152  36.009   0.302
44298W        W16712  35.056  35.398   0.799
44299W        W16713  21.588  21.087  10.112
44300W        W16714  43.389  21.096   5.186
44301W        W16715  36.382   0.333  14.796
44302W        W16716  37.048  24.700   0.396
44303W        W16717  25.110   4.878  12.525
44304W        W16718  30.082  31.972   2.372
44305W        W16719  22.618   3.340  11.948
44306W        W16720  38.025  19.106  10.435
44307W        W16721   5.700  26.163   3.187
44308W        W16722   4.261  40.845  14.851
44309W        W16723  14.132  19.128  14.282
44310W        W16724  37.519   4.813   2.352
44311W        W16725  17.675  34.574   2.903
44312W        W16726  38.894  20.701  10.468
44313W        W16727  20.160  23.542   3.216
44314W        W16728  27.663  43.276   0.263
44315W        W16729  19.665  12.762   1.702
44316W        W16730  23.162  35.580   2.242
44317W        W16731   1.436  37.538   3.772
44318W        W16732  34.084  24.992  11.407
44319W        W16733  41.008  42.856   2.183
44320W        W16734  43.462  33.498  10.017
44321W        W16735  10.301  22.685  13.316
44322W        W16736  36.083   0.944  11.965
44323W        W16737   8.778  32.548   0.740
44324W        W16738  30.622  23.080   1.367
44325W        W16739  22.529  23.583  12.493
44326W        W16740  43.302  22.200  14.446
44327W        W16741   7.794  17.746  13.530
44328W        W16742  41.899   0.884  11.108
44329W        W16743  39.453  21.124   3.767
44330W        W16744  24.229  38.002  14.794
44331W        W16745  23.628  14.713   1.439
44332W        W16746  30.610   3.914   2.680
44333W        W16747  31.468  27.034   0.763
44334W        W16748  43.858  34.116   4.273
44335W        W16749  20.535  27.039   0.481
44336W        W16750  15.798  24.163  13.034
44337W        W16751  37.025  11.223   1.437
44338W        W16752  39.440  18.702   1.430
44339W        W16753  20.655   5.777  14.407
44340W        W16754  25.048  19.170   4.691
44341W        W16755  23.696   2.962  14.763
44342W        W16756  22.517  14.739  14.883
44343W        W16757  24.617  38.972  14.320
44344W        W16758  44.982  22.538   0.462
44345W        W16759  22.123  27.127  11.493
44346W        W16760  25.086   0.758   3.829
44347W        W16761   3.386   9.657   0.245
44348W        W16762  36.017  18.140  11.118
44349W        W16763  40.044   8.236   0.367
44350W        W16764  26.167   2.342   4.135
44351W        W16765   3.273  24.670  13.843
44352W        W16766  18.545  33.484   1.755
44353W        W16767  35.985   4.386   4.313
44354W        W16768  14.696  40.535   3.381
44355W        W16769   6.775  15.658   0.316
44356W        W16770   9.832   0.944   2.777
44357W        W16771   2.382  34.921   2.768
44358W        W16772  42.879  24.725  11.521
44359W        W16773   8.246  18.209  10.606
44360W        W16774  33.088  25.478  14.311
44361W        W16775  36.918  27.025  12.464
44362W        W16776  24.662  35.394   2.816
44363W        W16777   9.378  27.077  12.477
44364W        W16778  20.734  16.766  11.066
44365W        W16779  31.088  38.954  12.544
44366W        W16780  24.561  28.069   4.237
44367W        W16781  26.579  12.297   4.130
44368W        W16782   6.370   4.920  13.878
44369W        W16783   7.696   2.296  12.489
44370W        W16784  39.046  14.169  10.024
44371W        W16785  10.203  29.430  14.948
44372W        W16786  33.460  32.508  11.895
44373W        W16787  14.783  43.922  14.002
44374W        W16788   9.727  16.630  12.031
44375W        W16789   3.430  10.785   2.320
44376W        W16790  30.644   2.798   1.328
44377W        W16791  16.589  21.048   4.750
44378W        W16792   7.699  31.451   4.812
44379W        W16793  36.390  34.614  14.442
44380W        W16794  39.336  21.240  14.836
44381W        W16795  21.116  15.111  13.031
44382W        W16796  27.483  36.487  10.519
44383W        W16797  24.979   8.753  12.936
44384W        W16798  15.680  29.972  10.954
44385W        W16799   2.742  19.666  10.542
44386W        W16800  31.063  21.592   0.348
44387W        W16801   2.273  34.447   2.257
44388W        W16802  22.542  18.594  12.443
44389W        W16803  11.626  43.396   4.151
44390W        W16804   9.213  29.564  14.030
44391W        W16805  41.813  36.485   1.762
44392W        W16806  28.624  16.243  14.495
44393W        W16807  38.379  39.444   1.416
44394W        W16808   9.859   2.879  10.980
44395W        W16809  21.678  43.903  12.543
44396W        W16810  30.012   5.868   3.340
44397W        W16811  43.879  18.103  14.421
44398W        W16812   8.872  32.559   4.199
44399W        W16813  16.678  22.700   2.681
44400W        W16814   3.246   8.301  13.461
44401W        W16815  30.105   8.888  14.938
44402W        W16816  11.677  30.125   1.831
44403W        W16817  19.609  28.464  12.001
44404W        W16818  22.552   5.207   0.897
44405W        W16819  15.713   8.870  14.331
44406W        W16820  39.502  43.832  12.083
44407W        W16821  42.915  25.577   0.860
44408W        W16822  41.525  44.411  14.968
44409W        W16823  38.068  10.712  12.965
44410W        W16824   3.735  16.222  12.837
44411W        W16825  26.597  36.361   1.842
44412W        W16826   9.163   8.243  11.465
44413W        W16827   1.441  43.787   0.813
44414W        W16828  17.142   2.827  11.499
44415W        W16829  35.564   3.845   1.707
44416W        W16830  29.112  32.071   2.394
44417W        W16831  34.106  44.299  11.512
44418W        W16832  12.156   6.889   5.739
44419W        W16833  11.766   0.922   2.390
44420W        W16834   5.716  20.656   0.477
44421W        W16835  41.998  29.508  13.460
44422W        W16836  44.365  15.256  11.890
44423W        W16837  29.033  22.733  10.606
44424W        W16838   9.707  11.160   2.281
44425W        W16839  12.345  19.266  13.431
44426W        W16840   1.334  20.719  14.975
44427W        W16841  43.453  38.061  10.902
44428W        W16842  11.809  16.570  13.954
44429W        W16843  14.672   5.308  13.342
44430W        W16844   8.825  25.034  14.839
44431W        W16845   7.212  34.576   2.221
44432W        W16846  36.956  36.932  10.612
44433W        W16847  37.475  23.605   2.254
44434W        W16848  10.711  29.442   3.266
44435W        W16849  13.180  40.489   2.396
44436W        W16850  38.439  10.808  13.805
44437W        W16851  33.007  34.110  12.489
44438W        W16852  39.012  42.032  10.509
44439W        W16853  13.773  29.072  13.426
44440W        W16854  44.796   8.729   4.329
44441W        W16855   1.390  39.528   1.805
44442W        W16856  44.340  25.713  12.878
44443W        W16857   6.729  10.878  11.423
44444W        W16858  33.541   6.329   0.945
44445W        W16859  34.577  15.199  13.964
44446W        W16860  12.643  44.818  14.934
44447W        W16861   7.246  42.340  13.806
44448W        W16862  15.648  44.283   4.732
44449W        W16863  31.530  26.121  11.590
44450W        W16864  25.016   8.878  13.969
44451W        W16865   9.186  25.116  10.968
44452W        W16866  30.920  26.994  13.378
44453W        W16867  40.035  32.570  13.797
44454W        W16868  33.447   5.756   4.291
44455W        W16869   3.896  33.031  10.634
44456W        W16870   5.902  35.078  12.883
44457W        W16871  11.750   5.428   4.812
44458W        W16872  12.613  23.205   2.845
44459W        W16873   9.197  29.920   2.347
44460W        W16874   1.751   4.242   1.258
44461W        W16875  14.136  20.599  12.430
44462W        W16876  37.040   5.900   3.193
44463W        W16877  31.548   3.948  11.597
44464W        W16878  13.638  36.442  10.408
44465W        W16879  41.299  25.134  13.402
44466W        W16880   7.898  24.110  12.442
44467W        W16881  20.629  40.856   1.433
44468W        W16882  15.083  33.070   2.262
44469W        W16883  43.993  28.601   2.195
44470W        W16884   3.911  35.446   2.178
44471W        W16885   6.789  23.555   4.837
44472W        W16886   9.818  35.601   3.189
44473W        W16887  39.418  37.978   3.209
44474W        W16888  11.194  37.936   0.738
44475W        W16889   2.911  29.082  11.559
44476W        W16890  44.289  21.514   2.880
44477W        W16891  19.648  21.612   1.723
44478W        W16892   7.814  16.103   3.699
44479W        W16893  18.764   7.841  12.096
44480W        W16894  38.407  32.516   3.325
44481W        W16895  20.745  23.655  14.397
44482W        W16896   7.910  16.200  11.445
44483W        W16897  30.574  11.217  12.404
44484W        W16898  18.656  41.527  14.319
44485W        W16899  33.530  25.163  13.311
44486W        W16900  43.776  22.051  10.494
44487W        W16901   6.742  18.594   4.286
44488W        W16902  40.894   8.232  10.592
44489W        W16903   0.893  20.744  12.884
44490W        W16904  39.447  28.578   1.301
44491W        W16905  10.659  16.687   2.727
44492W        W16906  40.382  44.485   4.119
44493W        W16907  32.580  23.558  10.522
44494W        W16908  10.180  41.348  13.024
44495W        W16909   9.709  17.560  10.626
44496W        W16910   7.864  27.139   0.270
44497W        W16911  41.990  43.933  13.533
44498W        W16912  31.019   6.401  10.578
44499W        W16913  17.281  18.687  10.552
44500W        W16914  31.981   1.249  11.101
44501W        W16915  16.277  15.633   3.739
44502W        W16916  20.596  17.678  12.361
44503W        W16917   9.198  16.288  13.924
44504W        W16918  34.384  32.495  13.802
44505W        W16919   3.818   8.237   4.200
44506W        W16920  38.926  41.464  14.798
44507W        W16921  16.625  19.546  10.405
44508W        W16922  37.912  33.105  11.095
44509W        W16923  44.835  12.326  12.497
44510W        W16924  35.884   1.804  12.412
44511W        W16925  10.144  27.068   4.606
44512W        W16926   7.182  15.182  14.423
44513W        W16927   5.319   9.825   4.769
44514W        W16928  36.520   2.428   1.315
44515W        W16929  37.867  25.663  13.030
44516W        W16930  35.465  12.323  11.007
44517W        W16931  11.295  36.359   1.290
44518W        W16932  19.738  31.136   3.818
44519W        W16933  23.630  10.384   0.966
44520W        W16934   9.202   0.856   3.236
44521W        W16935  44.374  36.435  11.082
44522W        W16936  28.961  29.623   3.149
44523W        W16937  12.772  23.231  14.358
44524W        W16938  40.051   4.908  14.951
44525W        W16939  44.349  27.558   2.702
44526W        W16940  34.961  17.800   4.181
44527W        W16941  15.180  19.238   1.311
44528W        W16942  33.883  35.044   0.947
44529W        W16943  37.047  39.464  11.001
44530W        W16944  18.062  16.131   4.734
44531W        W16945  41.332  36.907  14.986
44532W        W16946   3.277  11.296  10.468
44533W        W16947  23.581  31.956  14.399
44534W        W16948  12.685  25.094  11.013
44535W        W16949   6.702  41.458  11.401
44536W        W16950   0.290  29.030  13.356
44537W        W16951  11.704  24.598  10.428
44538W        W16952   6.742  29.480  13.047
44539W        W16953   3.455  36.017   1.752
44540W        W16954  39.489  35.532  12.480
44541W        W16955   1.479  37.902  10.969
44542W        W16956  32.082  18.201  14.303
44543W        W16957  27.151  18.226  10.485
44544W        W16958  10.876  10.172  12.423
44545W        W16959  29.021  18.140   0.932
44546W        W16960  32.103   4.903  13.859
44547W        W16961   2.389  32.514   1.755
44548W        W16962   4.883  22.511   5.150
44549W        W16963   8.292  38.393   1.917
44550W        W16964  44.936   5.362   2.415
44551W        W16965   8.243   0.825   3.813
44552W        W16966  17.248  29.615   4.640
44553W        W16967  27.583  11.307  11.897
44554W        W16968   5.867  26.478  13.051
44555W        W16969  33.446  19.744   2.786
44556W        W16970   5.248  33.562  13.415
44557W        W16971  43.866  10.693   0.845
44558W        W16972   5.294  20.215  11.464
44559W        W16973  34.505  20.124   4.130
44560W        W16974   9.739   3.879  11.985
44561W        W16975  29.469  15.726   4.679
44562W        W16976  10.784  38.342  11.539
44563W        W16977  35.101  21.114  14.430
44564W        W16978  15.220  19.052  10.105
44565W        W16979  24.689  16.318  14.859
44566W        W16980   5.922  32.044   0.466
44567W        W16981   3.925   2.948   3.675
44568W        W16982   6.831  34.973  11.494
44569W        W16983  21.699  18.714  12.443
44570W        W16984  18.630  24.217   4.215
44571W        W16985  16.078   6.352   2.830
44572W        W16986  13.752   6.420   3.719
44573W        W16987   0.460  25.609   0.818
44574W        W16988   5.213   1.927  13.361
44575W        W16989  26.642  10.301   4.204
44576W        W16990   0.925   0.493   0.740
44577W        W16991  23.639  29.111  14.988
44578W        W16992  41.031  13.150   0.864
44579W        W16993  41.931  16.253  14.931
44580W        W16994   5.433  18.726   0.351
44581W        W16995  26.622  24.637   4.753
44582W        W16996  15.272   6.282  10.149
44583W        W16997   4.896  24.551   4.159
44584W        W16998  19.537  33.890   4.701
44585W        W16999  10.644   8.727  10.989
44586W        W17000  40.348  17.716   3.351
44587W        W17001   5.713  18.674   3.840
44588W        W17002  23.986  19.697  13.519
44589W        W17003  30.609   5.422  13.026
44590W        W17004  29.632  35.416  10.511
44591W        W17005  36.928  40.385   0.372
44592W        W17006  20.211  17.765   0.880
44593W        W17007   3.239  12.636   0.469
44594W        W17008  22.592  19.086   1.365
44595W        W17009  35.582  18.252   0.314
44596W        W17010  38.333  22.602  10.599
44597W        W17011  44.783  13.612  14.279
44598W        W17012   0.343  44.450  13.421
44599W        W17013  27.955  26.101   3.829
44600W        W17014  27.490   4.751  13.866
44601W        W17015   1.363  27.459  13.957
44602W        W17016  21.022  21.185   0.387
44603W        W17017  21.690  23.190   0.476
44604W        W17018  37.365  35.551   1.923
44605W        W17019   5.767  22.042  12.958
44606W        W17020  18.549   5.793   0.848
44607W        W17021  26.200   5.804   1.434
44608W        W17022   9.387  26.179  12.434
44609W        W17023   3.372   1.330  11.942
44610W        W17024  11.226  28.020   2.766
44611W        W17025  35.411  30.568  14.977
44612W        W17026   1.753  41.989   3.256
44613W        W17027   2.821  33.010  11.408
44614W        W17028  27.673  43.441   3.380
44615W        W17029  27.566  11.687  11.875
44616W        W17030   0.332   0.328  11.408
44617W        W17031   9.795  35.427   2.184
44618W        W17032  30.436  12.330  12.882
44619W        W17033   5.362  37.434   1.913
44620W        W17034  42.833  43.832  13.856
44621W        W17035   1.933  31.930  13.482
44622W        W17036  22.155  39.061   3.215
44623W        W17037   9.683   8.792   1.755
44624W        W17038  28.530  23.702  10.580
44625W        W17039   9.227  34.027   2.761
44626W        W17040  13.649  44.991   2.327
44627W        W17041  40.371  23.192  11.022
44628W        W17042   1.407   4.411  14.954
44629W        W17043  17.765  33.512  12.425
44630W        W17044   0.947  18.100  14.323
44631W        W17045  38.953  35.902  14.834
44632W        W17046  20.081   3.429   5.188
44633W        W17047  29.574   3.428  11.540
44634W        W17048  12.822  24.698  10.524
44635W        W17049  28.159  20.716   3.314
44636W        W17050  20.706  41.366  14.430
44637W        W17051  26.457  14.196   4.300
44638W        W17052  41.934  21.614   0.825
44639W        W17053  22.234  17.286   0.266
44640W        W17054   6.220  17.615   3.860
44641W        W17055  27.545  24.062  14.384
44642W        W17056  32.906  24.489   1.396
44643W        W17057  17.781  31.613  11.403
44644W        W17058   1.259   4.282   4.671
44645W        W17059   5.766  36.448  11.410
44646W        W17060  33.015   0.852   1.800
44647W        W17061  15.139   9.275  11.107
44648W        W17062  18.588  18.159   2.397
44649W        W17063  21.727  16.255  10.972
44650W        W17064  16.685   0.801   3.180
44651W        W17065  20.063  24.207  10.934
44652W        W17066  27.942  17.065   0.313
44653W        W17067  20.727  23.540  13.902
44654W        W17068  35.893  37.571  13.977
44655W        W17069   3.741   4.355   3.780
44656W        W17070  13.261  30.608   5.269
44657W        W17071  18.144  25.025  10.997
44658W        W17072  25.620  30.602   5.178
44659W        W17073  10.206   8.798   9.949
44660W        W17074   0.917  12.652  12.021
44661W        W17075  24.155  41.350  10.936
44662W        W17076   1.782  19.281   2.259
44663W        W17077  21.079  24.619   0.342
44664W        W17078  43.770   1.245   3.253
44665W        W17079  29.611   0.875  13.453
44666W        W17080  10.287   1.918  13.846
44667W        W17081  15.169  29.153  13.367
44668W        W17082  14.104  15.801   2.414
44669W        W17083  37.373  16.082  12.005
44670W        W17084  26.502   0.988   3.809
44671W        W17085  26.515  25.103   2.799
44672W        W17086  26.171  17.297  13.901
44673W        W17087  22.205  11.698   2.372
44674W        W17088  18.730  20.214  12.534
44675W        W17089   5.846  37.037  12.014
44676W        W17090  14.777   9.788   3.864
44677W        W17091  44.472  13.840   3.709
44678W        W17092  22.143  42.515   0.266
44679W        W17093  40.430  40.541   1.793
44680W        W17094  34.959  17.567   1.783
44681W        W17095  36.871  28.503   4.315
44682W        W17096  44.009   3.757   3.695
44683W        W17097  24.559   3.245  11.113
44684W        W17098  21.129   3.925   2.410
44685W        W17099  10.822  16.779  13.937
44686W        W17100  40.402  42.469   4.181
44687W        W17101  28.149  25.562  11.884
44688W        W17102  13.201  30.658   2.293
44689W        W17103   3.356  35.358  13.548
44690W        W17104  27.949  11.127  14.433
44691W        W17105  27.495  26.172   3.327
44692W        W17106  10.678  38.538  14.419
44693W        W17107  33.004  12.699  12.469
44694W        W17108  26.682   0.298  12.022
44695W        W17109  28.594  35.564  11.097
44696W        W17110  44.398  13.332  14.796
44697W        W17111  20.064   3.242  12.074
44698W        W17112  28.018   4.287   2.841
44699W        W17113  43.836  44.421   1.353
44700W        W17114  33.898  18.194   1.733
44701W        W17115  38.873   7.274  14.005
44702W        W17116   6.201  13.165   2.187
44703W        W17117  40.007  32.038   2.760
44704W        W17118  43.848  25.515   0.958
44705W        W17119   5.789  31.045   1.259
44706W        W17120   0.888  24.672   2.744
44707W        W17121  24.018  16.255   2.698
44708W        W17122  13.180  18.719  11.076
44709W        W17123  20.734  20.261   2.891
44710W        W17124  29.086  10.331   2.272
44711W        W17125  43.305  20.134   1.373
44712W        W17126  44.959  12.807   1.236
44713W        W17127  15.621  25.672   4.644
44714W        W17128   1.315  41.856  12.522
44715W        W17129  27.946  16.265   1.265
44716W        W17130  44.261  42.818  14.357
44717W        W17131  43.294   1.459   1.916
44718W        W17132   3.435  42.401  10.901
44719W        W17133   4.224  25.023   2.393
44720W        W17134   0.455   8.273  12.501
44721W        W17135  41.924  38.064  10.990
44722W        W17136   2.354  15.677  14.944
44723W        W17137  19.196  23.636   2.728
44724W        W17138  29.618  13.203   5.206
44725W        W17139  12.720  26.087   1.696
44726W        W17140   7.864  39.316  13.007
44727W        W17141   1.895  17.296   0.359
44728W        W17142  25.155  22.127  10.438
44729W        W17143  44.924  19.091   0.388
44730W        W17144   6.319  42.888  13.904
44731W        W17145  17.744  31.975  13.990
44732W        W17146   7.345  14.604   0.453
44733W        W17147  26.167  34.403  13.843
44734W        W17148  23.073  38.024  14.376
44735W        W17149   7.277  10.349  12.531
44736W        W17150  35.523   9.371  11.995
44737W        W17151  21.697  29.560  14.815
44738W        W17152  40.909  26.674  14.924
44739W        W17153   3.887  41.384   2.209
44740W        W17154  35.877   8.795   3.273
44741W        W17155  44.808  23.207  12.580
44742W        W17156  36.358  22.233   1.808
44743W        W17157  11.701  19.741   1.851
44744W        W17158  29.670  12.658   9.993
44745W        W17159  34.060   5.748   1.258
44746W        W17160   2.846  10.669  11.569
44747W        W17161  25.511  42.782   0.836
44748W        W17162  12.284   0.376  10.937
44749W        W17163  27.119   0.948   2.883
44750W        W17164   3.749   4.785   3.821
44751W        W17165  27.962  10.820   2.889
44752W        W17166  13.152  24.511   0.813
44753W        W17167  37.949  25.633  13.889
44754W        W17168  34.444   8.893  11.942
44755W        W17169  16.274  17.203   2.292
44756W        W17170  32.935  44.485  13.850
44757W        W17171  27.137  35.581   1.916
44758W        W17172  39.871  17.072   2.376
44759W        W17173  28.451  21.588  11.886
44760W        W17174  40.309  44.344   3.334
44761W        W17175  31.061  12.634  14.475
44762W        W17176   5.767  26.115  12.524
44763W        W17177   1.249   3.240  11.471
44764W        W17178  24.980  18.107   3.712
44765W        W17179  20.730  13.701   3.328
44766W        W17180   6.844  37.039   3.350
44767W        W17181  30.127  12.856  14.761
44768W        W17182  29.942  27.497   1.802
44769W        W17183   2.430  41.400  13.490
44770W        W17184  27.180  19.236  12.449
44771W        W17185   2.423   6.921   2.248
44772W        W17186  23.637  10.334   2.833
44773W        W17187   4.812   8.842  12.846
44774W        W17188   6.810   9.339   4.758
44775W        W17189  13.807  31.947   3.343
44776W        W17190  35.940   3.715  10.992
44777W        W17191  40.912  24.990   1.721
44778W        W17192  44.986  28.033  14.995
44779W        W17193  36.864   5.773   2.689
44780W        W17194  26.098  24.009   3.829
44781W        W17195  16.734  12.331  13.058
44782W        W17196  43.487   0.911  14.472
44783W        W17197  41.984  33.056   1.416
44784W        W17198  22.106  21.150   3.159
44785W        W17199  11.189  39.867  13.481
44786W        W17200  13.140   2.365   0.787
44787W        W17201  30.416  43.357  14.425
44788W        W17202  22.188  37.369   1.379
44789W        W17203  13.324  28.466  11.966
44790W        W17204  36.533  11.238   4.305
44791W        W17205  32.998   5.304   4.266
44792W        W17206  13.235  27.029   1.754
44793W        W17207   8.333  43.329   1.814
44794W        W17208  42.313  20.564   2.293
44795W        W17209  33.975   7.256   2.191
44796W        W17210  38.506  31.425  11.576
44797W        W17211   0.478  11.646  14.350
44798W        W17212  15.104  43.391   0.476
44799W        W17213  14.141  37.983   1.232
44800W        W17214  19.223  16.288   1.258
44801W        W17215  22.098  34.615  11.992
44802W        W17216   3.417  28.186   5.128
44803W        W17217   0.815   0.384   9.998
44804W        W17218  21.535  15.793   4.134
44805W        W17219   2.344   4.245  13.371
44806W        W17220  37.543  35.390   9.584
44807W        W17221  42.287  29.633   1.220
44808W        W17222  39.873  15.141   1.739
44809W        W17223  25.489  14.750  10.902
44810W        W17224  12.317   3.851  11.610
44811W        W17225   5.916   9.316  14.294
44812W        W17226  32.018  24.519   3.216
44813W        W17227  22.238  10.270  12.082
44814W        W17228  22.532  17.184   3.260
44815W        W17229  25.543  10.749   1.226
44816W        W17230  26.106   8.889  13.990
44817W        W17231  31.121   2.373   0.964
44818W        W17232  19.197  41.485   3.197
44819W        W17233  15.146  31.043  13.046
44820W        W17234  39.890  28.503   1.448
44821W        W17235  24.162  12.814   2.727
44822W        W17236   0.934  21.154   4.811
44823W        W17237  15.303  26.667   3.777
44824W        W17238  27.545   1.371   2.385
44825W        W17239  27.949  27.490   0.459
44826W        W17240   6.814  39.470   0.413
44827W        W17241  40.468  13.702   0.833
44828W        W17242  25.540  12.724   3.819
44829W        W17243  28.064   2.869  11.593
44830W        W17244   4.415  34.412   4.674
44831W        W17245  44.928  43.399  12.028
44832W        W17246   5.891  37.386  10.893
44833W        W17247  43.284  17.066  12.354
44834W        W17248  21.588  20.588   1.447
44835W        W17249   3.839   5.703   0.354
44836W        W17250  28.122  30.494  13.906
44837W        W17251  25.030   0.944  10.122
44838W        W17252   5.898  19.559  11.433
44839W        W17253  44.938  31.451  11.400
44840W        W17254  12.237  32.566  14.785
44841W        W17255   5.930  24.201  12.478
44842W        W17256  44.277  32.075   1.913
44843W        W17257  15.188  41.428   3.763
44844W        W17258  30.578  16.792  14.312
44845W        W17259  16.248  42.925  11.976
44846W        W17260  14.288  12.636   2.411
44847W        W17261   4.895  13.723   2.715
44848W        W17262  44.906  20.051   3.858
44849W        W17263  39.476   1.952  11.945
44850W        W17264  21.133  30.972   0.467
44851W        W17265  10.286  12.199   4.798
44852W        W17266  41.443  37.014  11.887
44853W        W17267  40.420  12.194   3.801
44854W        W17268  17.635  38.977  13.052
44855W        W17269  40.024  23.984   4.735
44856W        W17270  22.672   7.317   3.780
44857W        W17271   4.223   5.870   4.704
44858W        W17272   7.208  18.211  13.864
44859W        W17273  25.134  19.684   3.706
44860W        W17274  18.568  30.998   3.358
44861W        W17275  26.544  20.546  13.487
44862W        W17276  20.690  22.245   3.158
44863W        W17277  20.669  26.029   4.313
44864W        W17278  35.897  29.047  10.895
44865W        W17279   5.924  43.919  14.377
44866W        W17280  31.461  32.096  11.469
44867W        W17281  16.313  32.016   3.287
44868W        W17282  35.433  30.984   1.699
44869W        W17283  30.609  16.242  13.400
44870W        W17284  26.095  22.621  13.825
44871W        W17285  43.020  10.737   4.318
44872W        W17286  22.032  23.706  13.456
44873W        W17287  29.112  30.157   0.293
44874W        W17288  43.817  19.274   1.801
44875W        W17289  17.585  41.975  13.939
44876W        W17290  31.960  11.153   3.826
44877W        W17291  12.267  14.815  14.900
44878W        W17292  28.531  13.269   0.391
44879W        W17293   7.865   3.418   0.829
44880W        W17294   8.309  39.428  10.513
44881W        W17295  20.233  37.940  13.022
44882W        W17296  37.509   5.696  12.441
44883W        W17297  35.976  40.831  10.915
44884W        W17298  19.644  36.072  12.425
44885W        W17299  10.731  26.052   3.283
44886W        W17300  39.338  21.134   3.253
44887W        W17301  40.492  43.999   3.662
44888W        W17302  25.645   3.363   0.366
44889W        W17303  12.319   2.442   3.795
44890W        W17304  10.282  38.888  10.483
44891W        W17305  38.419   4.893  10.065
44892W        W17306  37.858  31.987  13.009
44893W        W17307  37.474  28.152  10.990
44894W        W17308  20.273   3.249   1.434
44895W        W17309   4.218  39.496   3.373
44896W        W17310  23.056  44.915   4.789
44897W        W17311  41.456  28.938  14.312
44898W        W17312  21.221  24.006   3.294
44899W        W17313  23.215   3.894  14.387
44900W        W17314  37.005  39.390   3.662
44901W        W17315   2.287   4.302  11.473
44902W        W17316  40.400   8.312  10.524
44903W        W17317   3.317  34.452   2.679
44904W        W17318   8.677   4.298   4.166
44905W        W17319  14.282  17.222  14.423
44906W        W17320  29.439  35.109  10.463
44907W        W17321  25.504  18.596  10.978
44908W        W17322  26.488  41.016  12.518
44909W        W17323  23.683  28.986  14.017
44910W        W17324  29.979  28.570   4.240
44911W        W17325  29.456  17.649  14.423
44912W        W17326  21.171  39.851   0.777
44913W        W17327  39.835   6.743  10.991
44914W        W17328   1.438  14.835  14.784
44915W        W17329  36.088  11.780   4.213
44916W        W17330  19.195  43.766   2.209
44917W        W17331  34.110  28.470   4.201
44918W        W17332   5.740  31.000   2.750
44919W        W17333  36.538  24.102  12.512
44920W        W17334  24.716   8.812  11.887
44921W        W17335  39.354  16.318   1.304
44922W        W17336  43.513  11.749   4.345
44923W        W17337  16.212   7.340   1.821
44924W        W17338  25.627   4.885  13.901
44925W        W17339  34.063  32.600   3.722
44926W        W17340  17.210  25.044   5.158
44927W        W17341  14.163  23.620  14.280
44928W        W17342  13.789  11.705   0.284
44929W        W17343  44.010  41.021   0.447
44930W        W17344  20.669  20.064   1.737
44931W        W17345   1.306  30.006   0.410
44932W        W17346  28.667  39.876  10.938
44933W        W17347  32.097  22.708  11.994
44934W        W17348  25.712  11.684  10.586
44935W        W17349   4.863  44.853  12.438
44936W        W17350  25.673   3.215  12.047
44937W        W17351  44.985   6.775  14.286
44938W        W17352  36.533   5.424  14.382
44939W        W17353  12.149  37.448  12.424
44940W        W17354  26.085  44.325   3.845
44941W        W17355  38.860  39.011   0.468
44942W        W17356  22.740  28.588  13.028
44943W        W17357  29.425  39.553   0.437
44944W        W17358  43.457   4.900  12.007
44945W        W17359  29.555  17.768  13.931
44946W        W17360  23.134  22.697   3.203
44947W        W17361  24.635  33.057   4.714
44948W        W17362  39.499  22.528   0.251
44949W        W17363  40.040  23.193  12.344
44950W        W17364  22.033   7.198  11.440
44951W        W17365   4.892  19.727  10.489
44952W        W17366  27.565  32.922  13.026
44953W        W17367  35.543  34.933  10.619
44954W        W17368  29.038  35.492  13.328
44955W        W17369  30.594  23.185   4.128
44956W        W17370  10.216  30.421  13.387
44957W        W17371  20.232  25.099   3.841
44958W        W17372  37.475  13.238   1.396
44959W        W17373  34.995  44.346   5.198
44960W        W17374  10.725  41.480   1.849
44961W        W17375  20.618   9.786   3.732
44962W        W17376  19.576  12.758  14.311
44963W        W17377  13.645  20.161  10.489
44964W        W17378  22.142  40.402   4.741
44965W        W17379  42.955  42.520   4.650
44966W        W17380  16.298  17.614   5.710
44967W        W17381  28.081  29.097  11.964
44968W        W17382  38.961  30.658  13.987
44969W        W17383  40.419  44.444  10.042
44970W        W17384  40.859  17.675   1.350
44971W        W17385   1.792  21.154   3.808
44972W        W17386  35.385  13.676  10.636
44973W        W17387  33.459   8.399   3.778
44974W        W17388  22.015   7.235  13.921
44975W        W17389  20.635  37.411   0.418
44976W        W17390  22.590  14.116  14.931
44977W        W17391  27.181  44.871  10.431
44978W        W17392  21.746  41.412   4.680
44979W        W17393  43.441  43.897   2.680
44980W        W17394  11.761  44.356   4.662
44981W        W17395  33.447  27.987   2.770
44982W        W17396   4.209  12.230   1.263
44983W        W17397  14.744  31.571  11.605
44984W        W17398  32.398   0.874   2.349
44985W        W17399  17.211  15.587   4.217
44986W        W17400  37.004  35.362  13.056
44987W        W17401  21.250  28.463   2.882
44988W        W17402  20.646   6.688   4.177
44989W        W17403   0.751  22.058  12.551
44990W        W17404   2.392  39.023   1.380
44991W        W17405  19.103  30.045   2.873
44992W        W17406   2.750  16.786   4.782
44993W        W17407  21.726  28.981  13.358
44994W        W17408  20.621  12.327   0.834
44995W        W17409  13.182   9.362  11.478
44996W        W17410  17.674  43.811   4.801
44997W        W17411  11.811  27.195   3.301
44998W        W17412  38.870  32.403  12.079
44999W        W17413  14.119   7.823  11.915
45000W        W17414  19.584  29.629  10.624
45001W        W17415  38.439   5.859  13.941
45002W        W17416  11.251  14.302  14.418
45003W        W17417  24.064   4.715  12.936
45004W        W17418  32.968  24.602   2.794
45005W        W17419   7.246  26.623  10.550
45006W        W17420  38.923  43.858   0.406
45007W        W17421   8.394  20.130   1.317
45008W        W17422   6.853  33.927   1.720
45009W        W17423  25.130   8.200  11.568
45010W        W17424  43.299  30.608  12.471
45011W        W17425  38.412  24.003   0.837
45012W        W17426  16.114   8.164   2.745
45013W        W17427   3.766  32.580  14.338
45014W        W17428  41.326  40.954  14.460
45015W        W17429  23.167  27.059  11.901
45016W        W17430   0.923   7.178  14.407
45017W        W17431  34.052  20.098  10.547
45018W        W17432  31.500  10.708   2.755
45019W        W17433  15.604  31.570   2.784
45020W        W17434   4.865  29.125   3.670
45021W        W17435  25.659   4.842  14.999
45022W        W17436  25.506  33.589   0.852
45023W        W17437  22.619  31.648  14.827
45024W        W17438  26.664   8.236  11.117
45025W        W17439  34.956  29.961   0.950
45026W        W17440   6.823  31.570  14.848
45027W        W17441  11.641   3.335   4.652
45028W        W17442  28.011   2.444   3.700
45029W        W17443  32.543   1.406  12.482
45030W        W17444  31.903  24.619  11.865
45031W        W17445  22.609  28.607  13.485
45032W        W17446  28.089  40.414  14.817
45033W        W17447  42.868   0.359   1.924
45034W        W17448  37.972  27.585   1.745
45035W        W17449   5.263  40.486   3.287
45036W        W17450   8.857   5.406   3.347
45037W        W17451  25.183   1.899  13.478
45038W        W17452   2.912  18.564  14.030
45039W        W17453  28.075  16.794   0.266
45040W        W17454   5.359  24.062   0.916
45041W        W17455   6.919   5.754  10.416
45042W        W17456   7.817  12.654  14.821
45043W        W17457  32.486  42.483   3.250
45044W        W17458  12.855   4.885  11.036
45045W        W17459  36.876   4.290  13.316
45046W        W17460  11.144  32.591  13.063
45047W        W17461  30.556  25.643  11.007
45048W        W17462  22.614  31.521  14.445
45049W        W17463  34.512  40.019  11.597
45050W        W17464  12.627  39.330   1.445
45051W        W17465  15.277  16.273   0.967
45052W        W17466  23.611  12.787   4.822
45053W        W17467  10.239  41.903   1.418
45054W        W17468  26.477  10.203   2.781
45055W        W17469  33.530   5.848  13.027
45056W        W17470   1.868  20.591   1.799
45057W        W17471  11.136  10.302  14.774
45058W        W17472   6.683  43.816   2.329
45059W        W17473  15.145  36.415   4.138
45060W        W17474  39.328  19.212  11.065
45061W        W17475  21.237  37.523  13.314
45062W        W17476  31.107  38.901   3.728
45063W        W17477  19.222  12.179  11.993
45064W        W17478  43.327  31.917   0.312
45065W        W17479   7.191  41.376  10.483
45066W        W17480  15.743  42.017   3.647
45067W        W17481   1.783   9.854  10.966
45068W        W17482   5.716  20.620  10.621
45069W        W17483  38.927  42.896   2.346
45070W        W17484  22.133  21.525  10.421
45071W        W17485  17.260  41.385  12.044
45072W        W17486  40.488   6.852  13.885
45073W        W17487  29.949  22.724   3.810
45074W        W17488  21.070  27.175  10.534
45075W        W17489  39.910  37.981   4.673
45076W        W17490  31.432   4.838   1.445
45077W        W17491   7.220  10.688   2.334
45078W        W17492   7.306  44.822   0.809
45079W        W17493  12.651   7.310  13.403
45080W        W17494  32.503   7.728   0.894
45081W        W17495  13.257  13.136   4.222
45082W        W17496  42.294  32.571   2.853
45083W        W17497  16.142  28.612   0.910
45084W        W17498  41.044  43.878   4.145
45085W        W17499  21.728  43.946   2.880
45086W        W17500  25.065  31.476  14.801
45087W        W17501  37.454  17.141   1.903
45088W        W17502  28.137  33.019  12.482
45089W        W17503  11.650  35.360   4.186
45090W        W17504  43.817  16.584  14.897
45091W        W17505  10.635  32.946  12.483
45092W        W17506  30.913  39.978   4.647
45093W        W17507  14.775  42.821   0.767
45094W        W17508  39.066  26.585  10.149
45095W        W17509  17.659  33.994  13.438
45096W        W17510  35.885  36.407   0.794
45097W        W17511  37.960   4.331  10.905
45098W        W17512  41.012  38.871  14.811
45099W        W17513  29.127  33.910   1.829
45100W        W17514  38.481  34.082  13.402
45101W        W17515  43.392  44.982  10.601
45102W        W17516  36.418  11.301   4.673
45103W        W17517  17.637   5.407   2.264
45104W        W17518  35.501  15.307  14.484
45105W        W17519  22.100  30.035  14.921
45106W        W17520  40.496  12.687   2.237
45107W        W17521  41.921   8.744   5.224
45108W        W17522   6.295  30.091  10.999
45109W        W17523  25.642   9.292   0.942
45110W        W17524  18.275   8.826   2.190
45111W        W17525  14.221  44.317   1.727
45112W        W17526  41.921  18.663   1.422
45113W        W17527   1.750  32.485  10.940
45114W        W17528  43.869  34.892  13.416
45115W        W17529  24.489  33.392   0.281
45116W        W17530  18.158  15.307   4.800
45117W        W17531   5.410  40.399   3.661
45118W        W17532  38.062  32.089   4.300
45119W        W17533  11.670  16.716  13.439
45120W        W17534  17.662  10.754  13.898
45121W        W17535  38.568  38.520   2.872
45122W        W17536  38.841  37.985  10.512
45123W        W17537  13.105   3.806   0.727
45124W        W17538  28.482   6.257  11.604
45125W        W17539   8.325   9.844  10.901
45126W        W17540  44.355  25.527  14.014
45127W        W17541  32.925   2.271  13.847
45128W        W17542  41.429   5.196   2.231
45129W        W17543  12.335  23.171   3.760
45130W        W17544   4.230   8.676  14.390
45131W        W17545   3.901   1.387  11.865
45132W        W17546  38.561  39.552  13.811
45133W        W17547  17.159   1.403   2.198
45134W        W17548  36.474  28.565  12.891
45135W        W17549  25.627  14.834  11.596
45136W        W17550  43.493   2.453   0.851
45137W        W17551   3.315  35.952   0.921
45138W        W17552  38.365   4.869   3.721
45139W        W17553  15.643  38.865   1.855
45140W        W17554  18.745  21.212  12.000
45141W        W17555  22.719  16.297  12.352
45142W        W17556   2.750  15.243   0.384
45143W        W17557  11.226   9.242  11.385
45144W        W17558  19.162  28.148   2.379
45145W        W17559  26.604   7.691   3.796
45146W        W17560  27.052  20.228   1.314
45147W        W17561   0.903  12.765   3.291
45148W        W17562  34.986  11.693  12.431
45149W        W17563   8.881  20.524   2.866
45150W        W17564  21.211   1.755  12.470
45151W        W17565  19.686   5.743   1.879
45152W        W17566  19.741  44.938   2.239
45153W        W17567  21.227  21.028   1.296
45154W        W17568  37.567  42.513   3.354
45155W        W17569   4.238  40.919  11.522
45156W        W17570  26.695  28.546  11.878
45157W        W17571  40.504  28.481  11.398
45158W        W17572  38.957  38.837  11.030
45159W        W17573  42.338  18.548  14.442
45160W        W17574  40.859  10.751   2.788
45161W        W17575  11.327   0.924  11.442
45162W        W17576   0.321   5.390  12.529
45163W        W17577  12.192  41.995  11.864
45164W        W17578   3.337  36.004   1.239
45165W        W17579  16.797   9.805  11.983
45166W        W17580  29.169  20.033  12.382
45167W        W17581   0.948  39.534  12.572
45168W        W17582  27.632  25.147   3.810
45169W        W17583  35.056  25.504   1.703
45170W        W17584  39.397   6.918   2.722
45171W        W17585  13.655  43.367  13.854
45172W        W17586  37.893  39.499  10.903
45173W        W17587  16.574  21.739   1.211
45174W        W17588  14.758  10.360  10.155
45175W        W17589  34.446   6.407  13.805
45176W        W17590  22.509  22.563   9.946
45177W        W17591   4.448  43.767  11.062
45178W        W17592  18.203  14.206   4.655
45179W        W17593  43.445  34.537   0.906
45180W        W17594  28.953  11.349   4.715
45181W        W17595   6.706   1.414  12.012
45182W        W17596  39.317  22.076   2.391
45183W        W17597  15.230   0.485  14.387
45184W        W17598  17.218  24.674   4.169
45185W        W17599  42.003  26.702  14.830
45186W        W17600  24.505  33.935  10.498
45187W        W17601  33.456  14.667   2.361
45188W        W17602   4.387  16.610  14.917
45189W        W17603  39.881  34.098   4.762
45190W        W17604  25.118  15.804  13.818
45191W        W17605   3.318  22.698   5.104
45192W        W17606   9.269  11.206  13.826
45193W        W17607  25.043  37.011   3.148
45194W        W17608  34.067  31.613   4.150
45195W        W17609  18.714  19.622  14.873
45196W        W17610  20.179  36.480   1.785
45197W        W17611   5.224  11.825   3.249
45198W        W17612   9.337  14.131   4.750
45199W        W17613  18.545   5.752  11.074
45200W        W17614  34.372  17.193   4.206
45201W        W17615  38.021  39.347   1.805
45202W        W17616  37.057  37.874   1.785
45203W        W17617  38.007  34.060  14.495
45204W        W17618  43.286  14.660   1.821
45205W        W17619  35.594  39.948  12.984
45206W        W17620  42.028  36.503  10.436
45207W        W17621  37.547  10.158  12.984
45208W        W17622  24.050  28.992  12.467
45209W        W17623  29.954   0.429  12.535
45210W        W17624  43.398  39.868   1.221
45211W        W17625  29.508  17.781  12.894
45212W        W17626  44.480  14.283  10.036
45213W        W17627  31.943  37.045  11.606
45214W        W17628  10.675  43.995   0.375
45215W        W17629  34.046  10.216  12.058
45216W        W17630  19.217   6.254  12.532
45217W        W17631   4.763  10.295   4.213
45218W        W17632  32.588  37.471  11.946
45219W        W17633   3.278  43.976  11.382
45220W        W17634  19.702  27.016   2.286
45221W        W17635  21.032   2.355  14.908
45222W        W17636  31.465  38.967   2.855
45223W        W17637   5.405  21.667   0.825
45224W        W17638  35.980   9.883  12.011
45225W        W17639   4.768   5.694  11.994
45226W        W17640  15.222  12.673   1.810
45227W        W17641  33.014  14.186  11.004
45228W        W17642  40.937  25.541   0.884
45229W        W17643  22.214  36.972   2.286
45230W        W17644  22.583  15.686  10.033
45231W        W17645  32.028   9.293   1.420
45232W        W17646  42.515  33.973  13.402
45233W        W17647  24.161  37.836   4.335
45234W        W17648  41.044  22.008  12.007
45235W        W17649   7.380  32.493   3.694
45236W        W17650  32.993   5.837   3.323
45237W        W17651   8.279  17.686   3.729
45238W        W17652  44.821  37.946  10.520
45239W        W17653   9.324   2.893   4.261
45240W        W17654  44.352  36.855   1.438
45241W        W17655  29.149  15.264   3.759
45242W        W17656   6.373   2.749  10.558
45243W        W17657  33.923  17.229  13.406
45244W        W17658  38.979  37.921  11.054
45245W        W17659  23.127   3.788   2.707
45246W        W17660  41.533  22.658   3.775
45247W        W17661  41.406  13.605   4.259
45248W        W17662  14.668  11.629  14.829
45249W        W17663  10.192   7.233   2.262
45250W        W17664  22.643  32.917  14.020
45251W        W17665  11.353  40.524   0.364
45252W        W17666  27.626  10.208  11.438
45253W        W17667  44.844  38.836  13.807
45254W        W17668  15.140   8.175  11.007
45255W        W17669  44.889  20.693  13.908
45256W        W17670  18.576  12.652   1.767
45257W        W17671  34.499  43.437   1.245
45258W        W17672  12.165   3.845  12.422
45259W        W17673  31.915   0.757  13.389
45260W        W17674  33.605  16.623  13.888
45261W        W17675  14.630  28.594  10.466
45262W        W17676  34.451  33.562  12.375
45263W        W17677  28.122  27.050  14.457
45264W        W17678  15.238  20.189  14.812
45265W        W17679  12.184  31.521  13.859
45266W        W17680   8.340  10.762   1.814
45267W        W17681  17.168   4.944   0.244
45268W        W17682  18.759  44.921   4.341
45269W        W17683  20.161  32.510   1.749
45270W        W17684  17.645  22.013   1.424
45271W        W17685  28.156   9.878  14.443
45272W        W17686  41.295  32.039  11.117
45273W        W17687  13.644  42.472   3.317
45274W        W17688  40.547  26.545   1.409
45275W        W17689  12.211  18.081   0.770
45276W        W17690  41.499  37.534   3.323
45277W        W17691  13.207   1.742   4.774
45278W        W17692   1.253  41.457   3.712
45279W        W17693  33.584  36.893  10.929
45280W        W17694  19.259  22.247   4.213
45281W        W17695  11.296  32.532  14.909
45282W        W17696  31.948  19.085   4.188
45283W        W17697  20.150  16.582  14.958
45284W        W17698  25.613  34.054   0.867
45285W        W17699   1.386  33.464  11.981
45286W        W17700   7.789  31.518  12.425
45287W        W17701  14.749  29.665  12.055
45288W        W17702  22.678  32.631   4.756
45289W        W17703  31.401  42.303  12.019
45290W        W17704  43.300  31.475   1.742
45291W        W17705  18.102  22.089   3.788
45292W        W17706  32.134  30.099   3.382
45293W        W17707  16.303  13.176   3.715
45294W        W17708  33.425  11.624   4.114
45295W        W17709  43.292  15.778  11.110
45296W        W17710  39.474  28.651   0.938
45297W        W17711  11.365  43.341  10.949
45298W        W17712  18.279  37.374  10.494
45299W        W17713   3.903  34.019  14.282
45300W        W17714  31.411   2.360  11.106
45301W        W17715  35.051  38.522   2.747
45302W        W17716  29.138   8.236   0.958
45303W        W17717  38.063  11.724   1.451
45304W        W17718   6.361  24.681  11.856
45305W        W17719  33.441  44.463   3.797
45306W        W17720   7.349  13.118   4.203
45307W        W17721  28.523  32.051  11.911
45308W        W17722  35.976  43.006  14.803
45309W        W17723   0.919   8.672   2.790
45310W        W17724   4.698  10.866  11.483
45311W        W17725   3.772  37.559   2.396
45312W        W17726  14.209   6.731   2.362
45313W        W17727  19.761  23.020  12.573
45314W        W17728  37.551  12.683   3.801
45315W        W17729  18.598  11.854   0.949
45316W        W17730  13.789  15.263  14.880
45317W        W17731  20.623  23.567  14.810
45318W        W17732  37.542  41.436   1.323
45319W        W17733  28.548   1.860  14.762
45320W        W17734  10.382  42.919   2.257
45321W        W17735  13.280  24.715   4.760
45322W        W17736  14.644  21.671   4.789
45323W        W17737   7.693  36.990  11.920
45324W        W17738  31.081  22.181  11.557
45325W        W17739   7.696   2.908  13.394
45326W        W17740  33.874  31.961  14.407
45327W        W17741  18.175   6.842  11.482
45328W        W17742   6.824   0.281  14.394
45329W        W17743  23.154  19.161  13.892
45330W        W17744   4.862  29.998  13.502
45331W        W17745  31.972  17.146   3.827
45332W        W17746   7.403  16.789   0.249
45333W        W17747  39.920  16.723   0.339
45334W        W17748  43.329  30.100  13.034
45335W        W17749  20.730  16.653  10.556
45336W        W17750   9.661   2.946  12.046
45337W        W17751  33.065   3.874  11.108
45338W        W17752  41.397  19.559   0.862
45339W        W17753  20.646   9.388  14.512
45340W        W17754   4.432   8.366  13.497
45341W        W17755  10.334  35.928  14.340
45342W        W17756  39.041   6.689  10.509
45343W        W17757  19.081  39.399   1.316
45344W        W17758  37.945  18.742  12.503
45345W        W17759  23.110   7.806   3.235
45346W        W17760  27.181  30.098   1.824
45347W        W17761   1.333   4.748   0.788
45348W        W17762   3.920  27.077  14.400
45349W        W17763  12.146  27.067  10.413
45350W        W17764   4.217  44.362  13.801
45351W        W17765  17.149  43.397  14.325
45352W        W17766   0.333   8.776  12.564
45353W        W17767  28.595  33.039  11.580
45354W        W17768   5.768   1.904   0.395
45355W        W17769   4.730  23.594  12.563
45356W        W17770  26.201   0.318   0.761
45357W        W17771  30.577  27.116   0.446
45358W        W17772  35.468  26.062   3.185
45359W        W17773   3.253  15.681   3.356
45360W        W17774  31.915  19.707  14.429
45361W        W17775  44.936  15.305   2.220
45362W        W17776   2.442  32.592  14.772
45363W        W17777  23.646  32.900   4.315
45364W        W17778  40.374  13.750  12.025
45365W        W17779   1.291   4.896   2.346
45366W        W17780  37.551  30.436   3.834
45367W        W17781   7.912   2.465   1.836
45368W        W17782   7.305  25.096   1.357
45369W        W17783   5.737  15.238   4.333
45370W        W17784  11.800  10.271  14.318
45371W        W17785  31.461   1.946  11.908
45372W        W17786  37.830  39.995   3.661
45373W        W17787  30.972  18.708   0.318
45374W        W17788  38.907  20.217  14.935
45375W        W17789  33.124  16.120   0.454
45376W        W17790  23.157  34.470  14.399
45377W        W17791  21.663  22.162   1.914
45378W        W17792   5.307  21.692  10.922
45379W        W17793  31.953   4.424   2.831
45380W        W17794  22.686  43.873   2.729
45381W        W17795  16.602  44.303  14.852
45382W        W17796   5.222  37.368  10.453
45383W        W17797  39.413  33.892  11.967
45384W        W17798  16.098  24.064   3.674
45385W        W17799   6.683   4.352   1.269
45386W        W17800  23.709  22.685   3.783
45387W        W17801  38.550  17.270   4.215
45388W        W17802  15.143  42.009  10.606
45389W        W17803  23.158  37.002  14.353
45390W        W17804  19.139  27.064   2.382
45391W        W17805   2.878   1.376   1.876
45392W        W17806  41.831  38.958   0.878
45393W        W17807   0.386  44.363  12.975
45394W        W17808  24.203  44.908  14.956
45395W        W17809  40.437  11.806  14.894
45396W        W17810  36.939  25.514   3.181
45397W        W17811  33.058   6.237  12.979
45398W        W17812  42.441  39.374  11.539
45399W        W17813  42.979  44.951  11.570
45400W        W17814  36.001   9.644   2.350
45401W        W17815  12.643  28.456   2.731
45402W        W17816  13.224  43.377  14.905
45403W        W17817  43.300  29.439  14.335
45404W        W17818  19.660  26.488  10.444
45405W        W17819   0.792  17.594   2.234
45406W        W17820  21.041  34.500   1.357
45407W        W17821  25.052   9.151   1.762
45408W        W17822  39.329  24.982   4.733
45409W        W17823  39.862  44.495   3.200
45410W        W17824  35.932   6.884  13.060
45411W        W17825  36.031   8.210  13.361
45412W        W17826   7.200  40.364  12.574
45413W        W17827  18.576  15.106   2.352
45414W        W17828   6.359   5.213   0.862
45415W        W17829  29.484  38.329   3.835
45416W        W17830   5.728  10.324  11.539
45417W        W17831  41.332  26.523   4.800
45418W        W17832  35.029  13.294  11.926
45419W        W17833   8.689   2.347  12.084
45420W        W17834  12.758  41.014   1.344
45421W        W17835  39.423  25.087  14.995
45422W        W17836  18.611  23.030  13.795
45423W        W17837  13.749  13.235   3.365
45424W        W17838  41.830   8.694   4.727
45425W        W17839  15.676  20.130   0.391
45426W        W17840  39.555  35.066   1.365
45427W        W17841  21.540  22.082  11.399
45428W        W17842  29.509  33.410   0.411
45429W        W17843  26.486  33.487   1.756
45430W        W17844  17.659  27.609   1.859
45431W        W17845  26.505   6.208   1.287
45432W        W17846   5.427   1.381   0.836
45433W        W17847  30.077   2.865   2.302
45434W        W17848  37.369   8.227   0.831
45435W        W17849  21.242  15.626   0.467
45436W        W17850  44.766   4.254   1.292
45437W        W17851  27.104  39.850   0.841
45438W        W17852   6.739   7.241   2.414
45439W        W17853  11.164  21.024  11.575
45440W        W17854  40.810  26.559   4.133
45441W        W17855  37.494  33.877   2.882
45442W        W17856  29.521  37.572  10.986
45443W        W17857  37.358  24.214   3.675
45444W        W17858   5.890  21.186   0.409
45445W        W17859  30.638  27.063  11.050
45446W        W17860  18.140  29.978  14.420
45447W        W17861  24.625  31.422   3.716
45448W        W17862   8.868   9.149   5.142
45449W        W17863  32.459  17.586   3.212
45450W        W17864  33.070  39.510   2.194
45451W        W17865  31.982  14.326   0.421
45452W        W17866  24.133  15.779   9.560
45453W        W17867  13.271  33.427  12.542
45454W        W17868   5.425  38.516   1.849
45455W        W17869  37.411  11.817  12.511
45456W        W17870  39.916   5.858   1.893
45457W        W17871  18.773   6.827  12.530
45458W        W17872  23.723  19.192   9.466
45459W        W17873   9.351   1.906   1.851
45460W        W17874  26.996  17.739   3.185
45461W        W17875  17.792  38.973   1.328
45462W        W17876  27.137  13.224   0.850
45463W        W17877   9.662  29.122   0.367
45464W        W17878  41.790  29.030   3.713
45465W        W17879   8.391  19.126   1.321
45466W        W17880  29.577   7.388   0.317
45467W        W17881  27.618  26.987   2.832
45468W        W17882  25.976  35.367  11.123
45469W        W17883  21.047  17.744  10.638
45470W        W17884  24.715  13.717   2.842
45471W        W17885  13.749  37.870  12.867
45472W        W17886  21.704  31.414  13.844
45473W        W17887  42.011  43.504   3.843
45474W        W17888  24.004  31.911  14.348
45475W        W17889   4.447  19.540   1.921
45476W        W17890  10.214  27.103  12.049
45477W        W17891  37.444  28.110  10.626
45478W        W17892  21.125  28.979  13.889
45479W        W17893  30.444   1.912   0.365
45480W        W17894  43.362   9.266  11.386
45481W        W17895  22.043  12.656   1.397
45482W        W17896   5.783  21.582  11.524
45483W        W17897   3.445   9.198  11.580
45484W        W17898  11.343  16.568  11.419
45485W        W17899  15.678   4.395   0.737
45486W        W17900  29.481  30.469  11.123
45487W        W17901  29.543   3.807  14.476
45488W        W17902  19.264  11.144   4.676
45489W        W17903   9.289  29.534   3.209
45490W        W17904  37.411   4.263  11.541
45491W        W17905  22.705  24.493   3.309
45492W        W17906  39.547  26.182   2.270
45493W        W17907   9.825  40.352  13.357
45494W        W17908  32.082   8.313   4.680
45495W        W17909  26.579  43.946  10.966
45496W        W17910  29.966  19.655   4.761
45497W        W17911  31.547  13.776   2.264
45498W        W17912  34.575  25.196  14.483
45499W        W17913  36.844  28.929   0.351
45500W        W17914  27.667  12.347  14.423
45501W        W17915   4.882  26.999   3.187
45502W        W17916  43.344  14.643  14.286
45503W        W17917  16.776  16.127  12.006
45504W        W17918   1.250  23.635  14.840
45505W        W17919   4.216  10.717  13.403
45506W        W17920  36.054  24.582  14.282
45507W        W17921   8.775  18.202   1.889
45508W        W17922   9.823  39.979  14.342
45509W        W17923  10.343   6.182  13.411
45510W        W17924  32.900  26.659  14.929
45511W        W17925  40.986  28.954  12.344
45512W        W17926   0.776  44.764  10.637
45513W        W17927  28.035  21.084  14.421
45514W        W17928  43.788   6.886  12.382
45515W        W17929  36.544  16.244   2.375
45516W        W17930  11.227  18.734   2.733
45517W        W17931  10.734   3.948  14.783
45518W        W17932  33.396  26.650   0.796
45519W        W17933  18.050  26.163  12.951
45520W        W17934  34.425  14.788   3.208
45521W        W17935   1.757   4.440   0.950
45522W        W17936  35.986   5.339   2.233
45523W        W17937   4.913  13.700   3.177
45524W        W17938  22.506  18.295   3.837
45525W        W17939  40.914  21.692  12.897
45526W        W17940   5.723  33.507   0.734
45527W        W17941  44.262  19.143  10.618
45528W        W17942  10.298   2.336  10.923
45529W        W17943  33.523  12.215  10.540
45530W        W17944  36.941   9.199   1.214
45531W        W17945  30.060   5.432  13.435
45532W        W17946   0.396  37.467  10.560
45533W        W17947  11.850   4.371  14.917
45534W        W17948  31.414  15.147   4.330
45535W        W17949   6.698  22.697   2.817
45536W        W17950  13.125   6.296  12.399
45537W        W17951  28.469  17.557   3.195
45538W        W17952  30.622  29.156  13.458
45539W        W17953  32.062  13.299   3.358
45540W        W17954  10.292  20.057   0.773
45541W        W17955  16.607  36.876  14.820
45542W        W17956  32.517  43.898  11.507
45543W        W17957   7.232  37.409  14.490
45544W        W17958   8.242  17.603  12.379
45545W        W17959   4.267  42.504  11.572
45546W        W17960  14.721  43.296   4.118
45547W        W17961  10.834  28.082  10.475
45548W        W17962  38.562  43.394  13.825
45549W        W17963   4.726  44.274  10.968
45550W        W17964  40.303  41.840  14.496
45551W        W17965   2.331  28.441  12.479
45552W        W17966  11.647  34.369   4.718
45553W        W17967  32.396  20.134   3.840
45554W        W17968  33.071  16.154   1.804
45555W        W17969  41.854   0.780  14.954
45556W        W17970  41.404  16.652  13.869
45557W        W17971  15.734  37.881  13.046
45558W        W17972  39.468  38.929  14.452
45559W        W17973  40.402  41.966   0.405
45560W        W17974  12.203   2.729  14.012
45561W        W17975  22.099   4.205   2.818
45562W        W17976  14.132  21.553  11.020
45563W        W17977  43.889  40.308   1.279
45564W        W17978  21.619   3.385   0.771
45565W        W17979  34.472  17.304  11.387
45566W        W17980  39.993   8.899  14.358
45567W        W17981  36.362  37.969  12.884
45568W        W17982  15.580  24.207  13.822
45569W        W17983  27.029  38.528  11.611
45570W        W17984  22.126   7.876   0.453
45571W        W17985  26.698  14.697   0.798
45572W        W17986  25.073  23.616   3.381
45573W        W17987  13.130  14.260   3.750
45574W        W17988  32.119  10.732   2.358
45575W        W17989  32.886  38.016   1.308
45576W        W17990   2.312   4.404   4.799
45577W        W17991   8.732  26.113  10.601
45578W        W17992  15.769   9.734   2.731
45579W        W17993  36.061  21.705   3.237
45580W        W17994  12.611  37.983   2.872
45581W        W17995  11.775  35.930  14.305
45582W        W17996  19.540  31.899   4.784
45583W        W17997  31.505   6.846  13.410
45584W        W17998  41.422  30.593   1.883
45585W        W17999  29.433  38.012   0.918
45586W        W18000   8.262  19.534  12.442
45587W        W18001  38.032  22.087   4.832
45588W        W18002  15.626   0.929  12.093
45589W        W18003   3.422   6.425   2.244
45590W        W18004   4.750  10.138  13.019
45591W        W18005  27.084  16.106   3.792
45592W        W18006  37.960   0.296   3.772
45593W        W18007   8.208   6.387  13.063
45594W        W18008   5.767  16.765   2.214
45595W        W18009  37.526  12.825   1.908
45596W        W18010   7.854  13.649  10.412
45597W        W18011  43.812  17.130   2.811
45598W        W18012  36.353  34.929  10.582
45599W        W18013  30.610   5.345   3.205
45600W        W18014   1.361  44.476   1.430
45601W        W18015   6.291   6.197  12.345
45602W        W18016  36.093   2.251  14.950
45603W        W18017  28.487   1.439  10.465
45604W        W18018  14.255  37.504  13.953
45605W        W18019  15.211  15.203  10.466
45606W        W18020  28.129   6.824   2.891
45607W        W18021  29.977  34.066   3.716
45608W        W18022   4.445  37.980   3.699
45609W        W18023  24.070  42.360   3.694
45610W        W18024  18.760  19.258  11.081
45611W        W18025  36.917  17.627   2.739
45612W        W18026  33.009  11.868  13.052
45613W        W18027  36.416  36.882  12.876
45614W        W18028  41.350  42.022   1.374
45615W        W18029  12.259  31.484  11.454
45616W        W18030  13.214  23.727  10.421
45617W        W18031  31.018   6.914  13.977
45618W        W18032  11.816   0.314   2.892
45619W        W18033   6.794  30.024   1.406
45620W        W18034   9.324  20.625   1.799
45621W        W18035  16.701  28.546   0.831
45622W        W18036  41.312   2.732   3.252
45623W        W18037  27.078  10.807   4.161
45624W        W18038  24.641   4.256  14.373
45625W        W18039  42.283  32.907   2.841
45626W        W18040  16.805  11.128  14.774
45627W        W18041  40.335  19.725  13.867
45628W        W18042  17.234  24.048   2.292
45629W        W18043  28.936  21.693   1.337
45630W        W18044  19.043   9.231  12.495
45631W        W18045   0.807   0.432  12.553
45632W        W18046  13.661   2.396  12.547
45633W        W18047  42.310  27.599   2.700
45634W        W18048  35.371  40.370   0.815
45635W        W18049   8.818  31.963  14.396
45636W        W18050   5.272   0.894   3.208
45637W        W18051   3.398   4.309   0.868
45638W        W18052   1.448  20.579  14.303
45639W        W18053  16.794   7.402  13.385
45640W        W18054  13.678  20.649   1.222
45641W        W18055   9.256  27.457   4.743
45642W        W18056  11.262   4.870   3.384
45643W        W18057  27.463  38.980  11.082
45644W        W18058  31.449  40.334   2.305
45645W        W18059  22.613  31.042  11.404
45646W        W18060  25.513  22.657  14.885
45647W        W18061  14.637  37.367  10.429
45648W        W18062  11.792   2.413   0.325
45649W        W18063  31.937  30.651   3.360
45650W        W18064  23.552  35.368  11.947
45651W        W18065  28.570  31.034   2.876
45652W        W18066   6.264  11.733   0.325
45653W        W18067  25.026  14.232   3.739
45654W        W18068  21.212   0.342   2.286
45655W        W18069  38.335  28.012   1.216
45656W        W18070  28.453  40.308   2.706
45657W        W18071  44.773   2.435   0.892
45658W        W18072  44.779  32.486  14.944
45659W        W18073  23.515  27.951  14.913
45660W        W18074  33.916  10.221   0.734
45661W        W18075  32.095  21.704  14.342
45662W        W18076  32.028  33.610   2.694
45663W        W18077   2.825  39.057   4.808
45664W        W18078   5.707  24.985  11.059
45665W        W18079  33.878  35.041  13.320
45666W        W18080   3.725   1.358   3.862
45667W        W18081  33.915  36.063   0.760
45668W        W18082  10.751  10.868   2.209
45669W        W18083  37.869  24.620  12.428
45670W        W18084  23.175  18.211   5.084
45671W        W18085  13.836  22.174   0.309
45672W        W18086  26.136  37.443  14.387
45673W        W18087  29.665   0.257   0.358
45674W        W18088  39.058  29.536  12.534
45675W        W18089  20.064  44.901  14.479
45676W        W18090   4.713   8.358   1.308
45677W        W18091  19.717  34.372  12.551
45678W        W18092  43.826  16.612  12.566
45679W        W18093   6.691  24.488   1.329
45680W        W18094  19.680  15.772   0.354
45681W        W18095  20.727  32.577   3.726
45682W        W18096  40.980  34.987  14.980
45683W        W18097  14.313  44.373   0.442
45684W        W18098   5.837  25.553   2.364
45685W        W18099  11.204  35.918  14.782
45686W        W18100   6.404   2.301   5.128
45687W        W18101  37.060  30.611   3.764
45688W        W18102   4.343  42.895  14.890
45689W        W18103   5.193  31.549  12.045
45690W        W18104  17.152  34.936   3.658
45691W        W18105   7.353  27.631  11.874
45692W        W18106  21.225  12.118   0.833
45693W        W18107   2.394  30.064  13.810
45694W        W18108   9.252  40.945  10.985
45695W        W18109  25.219  26.965  14.413
45696W        W18110  27.564  10.642  10.488
45697W        W18111  41.328  13.798  14.026
45698W        W18112   9.688  35.361  11.551
45699W        W18113  38.332   1.399  14.450
45700W        W18114  27.505   0.955   4.327
45701W        W18115  37.877  16.289  12.049
45702W        W18116  23.493  44.291  12.865
45703W        W18117  18.559  38.025   1.402
45704W        W18118  15.130  14.184   2.358
45705W        W18119  37.843   6.377  10.100
45706W        W18120  33.077  14.601  13.402
45707W        W18121   3.333  15.701  13.491
45708W        W18122   6.427  29.174  10.932
45709W        W18123   4.885  43.294  12.881
45710W        W18124  37.546  24.719   1.366
45711W        W18125  24.600  23.595   4.795
45712W        W18126  31.955   9.674  10.622
45713W        W18127  13.318   3.421   4.788
45714W        W18128  36.882  37.915   4.197
45715W        W18129  33.023  21.059   3.799
45716W        W18130   6.834  22.532  15.000
45717W        W18131  41.839  29.963   0.446
45718W        W18132  43.928  41.508  13.827
45719W        W18133  12.625  28.971   2.285
45720W        W18134  12.793   6.301  10.917
45721W        W18135   6.742   2.819  11.433
45722W        W18136  15.101  34.446   1.374
45723W        W18137  35.491  37.503  13.500
45724W        W18138  33.410  27.534  10.991
45725W        W18139  11.691  35.365   4.803
45726W        W18140  44.491  39.994  13.410
45727W        W18141   1.893  31.475  11.091
45728W        W18142  38.855  43.780   0.947
45729W        W18143   1.902  35.067  12.912
45730W        W18144   9.327  27.510  14.770
45731W        W18145  30.914   8.879  13.385
45732W        W18146   5.225  43.435   4.801
45733W        W18147  26.590  26.688   2.388
45734W        W18148   1.767  26.088  10.640
45735W        W18149  32.016   4.820  13.497
45736W        W18150  36.370   4.251   3.716
45737W        W18151   9.878  29.067   1.922
45738W        W18152  30.026   6.374  13.327
45739W        W18153  33.949  16.104   2.354
45740W        W18154  39.328   6.207   0.397
45741W        W18155  36.480  38.383  10.999
45742W        W18156   9.791  43.014  10.948
45743W        W18157  39.553  24.518   4.695
45744W        W18158  27.032  28.482   4.193
45745W        W18159  16.282   1.806   0.401
45746W        W18160  13.175  31.979   1.288
45747W        W18161   5.793  44.771   4.191
45748W        W18162   1.460  32.470   0.787
45749W        W18163  32.981  16.766   1.349
45750W        W18164  41.014  11.167  13.320
45751W        W18165   1.312  30.611   4.248
45752W        W18166  39.965  24.673   4.752
45753W        W18167  37.965  29.560   2.829
45754W        W18168  33.411  34.457   4.716
45755W        W18169  27.175  43.814   1.710
45756W        W18170  13.611  11.292  12.858
45757W        W18171  34.606  12.144  11.378
45758W        W18172  40.991  43.474  12.843
45759W        W18173   4.409  24.658   4.188
45760W        W18174  34.609  39.066  11.402
45761W        W18175  38.955  39.837  10.118
45762W        W18176  42.439  20.254   2.671
45763W        W18177   5.876  34.895  12.455
45764W        W18178  21.164  24.163   5.227
45765W        W18179  43.840  27.605   0.858
45766W        W18180  36.593  33.112  11.962
45767W        W18181  40.996  30.124  14.884
45768W        W18182  24.000  32.458   4.298
45769W        W18183   2.463  40.502   4.704
45770W        W18184  13.143  22.681  11.465
45771W        W18185   0.333   8.340  13.414
45772W        W18186  28.021  29.665  10.542
45773W        W18187  44.843   8.767   0.813
45774W        W18188  37.904  28.156  10.520
45775W        W18189  44.283  12.177   3.228
45776W        W18190  34.491  24.020  10.614
45777W        W18191  35.395  41.471   2.398
45778W        W18192  28.104  22.637  13.425
45779W        W18193  34.496  17.227   4.764
45780W        W18194  18.710  24.588  11.898
45781W        W18195  18.713  29.957  13.502
45782W        W18196  25.581  35.887   5.178
45783W        W18197  13.739  18.744  14.990
45784W        W18198   7.722  31.063  10.483
45785W        W18199  12.621  23.237  13.547
45786W        W18200   2.726   3.711  11.388
45787W        W18201  12.799  33.461  10.519
45788W        W18202   8.858  18.676  10.606
45789W        W18203  44.502  14.715  10.468
45790W        W18204  43.488  33.110   1.271
45791W        W18205  16.786  17.090  10.638
45792W        W18206  29.664   8.661   2.312
45793W        W18207  39.984   9.225   2.215
45794W        W18208  15.284  16.111   3.766
45795W        W18209  16.613  13.270  14.334
45796W        W18210  12.617   7.728   5.101
45797W        W18211  31.103  24.009  13.537
45798W        W18212  18.152  10.372  13.989
45799W        W18213  20.207  38.363   0.829
45800W        W18214  21.613  25.688   2.182
45801W        W18215   9.266  31.538   3.797
45802W        W18216  34.492  11.791  10.508
45803W        W18217   5.708  10.226   0.289
45804W        W18218  43.811  27.572  13.481
45805W        W18219  26.057  16.813   5.121
45806W        W18220  22.525  20.185  13.019
45807W        W18221  43.376  43.465  13.875
45808W        W18222   0.889  40.355  13.463
45809W        W18223  34.572   9.281   3.253
45810W        W18224  25.050  26.621  13.968
45811W        W18225   0.940  12.360  13.908
45812W        W18226  34.454  39.822   1.730
45813W        W18227  38.892  18.138   1.325
45814W        W18228  29.020  39.973   4.808
45815W        W18229  30.026  10.699  12.010
45816W        W18230  23.699  12.825  11.925
45817W        W18231  27.624  29.556  12.393
45818W        W18232   2.910  24.981   5.113
45819W        W18233  32.935  10.305  10.416
45820W        W18234  16.760   5.243   4.199
45821W        W18235   1.765  32.947  13.415
45822W        W18236  27.002  31.100   0.360
45823W        W18237  31.940  19.572   4.775
45824W        W18238   4.209  19.048   4.794
45825W        W18239  39.336  30.091  10.439
45826W        W18240   1.242  25.481  10.618
45827W        W18241   1.252  13.637  14.420
45828W        W18242  10.846   9.310   1.735
45829W        W18243  23.560  10.757   1.432
45830W        W18244  11.127  36.461   1.807
45831W        W18245  42.954  31.067   4.809
45832W        W18246  25.119   1.261  14.010
45833W        W18247  16.248  35.397  12.450
45834W        W18248  19.565   0.886  12.344
45835W        W18249  14.717   1.766  14.466
45836W        W18250  42.389  27.541  14.019
45837W        W18251  33.402  12.255   1.849
45838W        W18252  32.954  22.112   4.227
45839W        W18253  37.451  32.474  13.987
45840W        W18254  24.553  14.095  13.840
45841W        W18255  12.614  27.002  14.951
45842W        W18256   7.179   7.865   3.703
45843W        W18257  30.492  19.211   4.242
45844W        W18258   5.202   4.821  10.044
45845W        W18259  22.057  42.408  11.534
45846W        W18260  28.439   6.389  12.385
45847W        W18261  38.941   8.771   1.892
45848W        W18262  16.106  40.532  14.928
45849W        W18263   9.261  17.223  12.978
45850W        W18264   1.345  35.508   4.188
45851W        W18265  33.394  43.990   4.208
45852W        W18266  24.218  37.397   1.229
45853W        W18267  29.632  11.226  12.824
45854W        W18268   7.751  24.676   2.898
45855W        W18269   5.709  33.421   1.775
45856W        W18270   7.713   1.958  13.021
45857W        W18271  37.896  24.050  10.475
45858W        W18272  12.714   1.770  12.055
45859W        W18273  23.517  31.966   3.837
45860W        W18274  18.732  28.972   3.384
45861W        W18275  25.071   5.714   0.481
45862W        W18276  18.267  43.272  14.294
45863W        W18277  27.946  36.018   3.841
45864W        W18278  19.260  12.348  13.860
45865W        W18279  19.131   3.436  13.532
45866W        W18280   2.771  10.179   1.415
45867W        W18281  42.780  36.347   4.706
45868W        W18282  10.815  14.812   0.271
45869W        W18283  18.663  42.796   2.673
45870W        W18284  26.611   0.754  11.421
45871W        W18285   4.928   9.783   3.279
45872W        W18286  17.769   1.295  12.459
45873W        W18287  14.726   8.334  13.833
45874W        W18288  31.999  32.134  13.923
45875W        W18289  30.586  37.971  13.409
45876W        W18290   3.351   2.751   1.714
45877W        W18291   0.333  19.726   0.885
45878W        W18292  23.097   1.975   4.602
45879W        W18293  36.098  34.111   2.180
45880W        W18294  37.379  38.950  11.959
45881W        W18295  25.072  23.645  14.327
45882W        W18296   3.429  32.496  13.428
45883W        W18297  43.429   3.421  13.484
45884W        W18298  22.069  19.234  13.914
45885W        W18299  10.757   6.298   1.797
45886W        W18300  22.658  17.727   5.238
45887W        W18301   1.389  26.666   3.646
45888W        W18302  36.497  18.080  10.544
45889W        W18303  38.958  32.987  10.630
45890W        W18304  23.187  37.966  13.931
45891W        W18305  25.587  29.618   3.713
45892W        W18306   4.779  36.843   2.739
45893W        W18307  14.113  34.402   4.603
45894W        W18308  40.443  36.540   2.711
45895W        W18309  16.091  35.065   1.352
45896W        W18310  27.054  23.707  12.463
45897W        W18311  12.166  40.418  13.915
45898W        W18312  34.523  42.330   2.347
45899W        W18313  37.978   1.826  11.400
45900W        W18314   3.749  34.042  13.435
45901W        W18315  19.572  44.908  10.611
45902W        W18316  25.098  24.120   2.764
45903W        W18317  40.324  38.003  13.994
45904W        W18318  15.623  27.471   2.264
45905W        W18319  44.264  35.084   1.222
45906W        W18320  16.143  44.260  10.507
45907W        W18321  42.296  25.003  11.015
45908W        W18322   6.296  19.125   4.745
45909W        W18323  15.326   4.237  12.951
45910W        W18324  15.787  39.951  14.812
45911W        W18325  22.199  13.805   1.872
45912W        W18326  22.226   7.212  13.530
45913W        W18327  23.655  20.206  14.866
45914W        W18328  17.715  36.004   1.915
45915W        W18329   3.365  19.196  11.537
45916W        W18330  30.510  42.014   3.264
45917W        W18331  42.834  14.805   2.805
45918W        W18332   7.380  28.137  12.906
45919W        W18333  14.248  40.964   1.336
45920W        W18334  31.621  44.789  11.599
45921W        W18335   1.736  28.536  10.980
45922W        W18336  13.105  19.240  12.523
45923W        W18337   9.187  29.064   3.165
45924W        W18338  32.139  21.551   3.685
45925W        W18339   0.791  21.177   3.381
45926W        W18340  43.464  21.533  12.913
45927W        W18341  15.161  36.437   2.848
45928W        W18342   4.298  32.055   2.371
45929W        W18343  43.774  27.056  13.883
45930W        W18344   9.238  24.592  11.958
45931W        W18345  23.218  25.493  12.982
45932W        W18346   3.359  30.990   4.176
45933W        W18347  19.685  39.343   0.774
45934W        W18348   6.706  25.216  10.458
45935W        W18349  26.120  27.130  13.056
45936W        W18350   9.209  43.271  13.927
45937W        W18351  33.122   9.795  12.527
45938W        W18352  27.637   3.366   0.325
45939W        W18353  15.268  35.501   3.677
45940W        W18354   8.362  29.456   4.269
45941W        W18355  21.625   4.833   4.826
45942W        W18356  38.028   7.692   3.655
45943W        W18357   4.860   0.943   4.211
45944W        W18358  11.335  33.515  12.441
45945W        W18359  31.636  27.041  10.638
45946W        W18360   3.235  34.039  13.929
45947W        W18361   6.755  13.276   0.430
45948W        W18362   6.725  27.609   1.351
45949W        W18363  43.981  10.652  10.505
45950W        W18364   5.855  20.738   3.194
45951W        W18365  30.061  40.448   4.200
45952W        W18366  23.691  43.341   3.733
45953W        W18367  44.360  19.197  12.370
45954W        W18368  13.179  21.709  10.890
45955W        W18369  43.909  23.062   3.646
45956W        W18370  33.903  25.187   3.792
45957W        W18371  14.769  14.763  12.539
45958W        W18372  18.748  15.264   4.238
45959W        W18373  19.696   2.883  12.567
45960W        W18374  35.880  37.045  13.404
45961W        W18375   3.292  22.165  14.010
45962W        W18376  21.025  24.217  14.447
45963W        W18377  24.009  18.694  12.937
45964W        W18378  21.059   6.404  11.934
45965W        W18379  13.185  13.829  14.386
45966W        W18380   9.830  42.462   2.336
45967W        W18381  27.632  20.147  11.103
45968W        W18382  17.071  25.499   0.965
45969W        W18383  15.141  28.592   3.230
45970W        W18384  26.457  29.083   0.957
45971W        W18385   4.699  21.053  11.512
45972W        W18386  39.470  13.780  12.428
45973W        W18387  20.262   4.240  12.860
45974W        W18388  36.043  34.460   1.719
45975W        W18389  37.939  35.934   2.768
45976W        W18390  30.047   6.733   4.339
45977W        W18391  30.140  18.780   0.896
45978W        W18392  27.631  28.037   0.948
45979W        W18393  40.909  33.961  12.094
45980W        W18394  24.988  31.638   3.847
45981W        W18395  19.661   6.185  11.544
45982W        W18396   6.699  44.925  13.050
45983W        W18397  39.027  15.307  11.042
45984W        W18398  11.633  11.755   0.904
45985W        W18399  14.712  11.157  10.482
45986W        W18400   4.758  11.746   0.424
45987W        W18401  24.159  12.612   1.376
45988W        W18402  30.417   9.795  12.031
45989W        W18403  27.004  31.635  14.336
45990W        W18404  35.865  23.499  13.307
45991W        W18405   1.777  28.155   0.252
45992W        W18406  31.573  32.111   2.756
45993W        W18407  25.708  32.984   2.302
45994W        W18408   7.742  42.948   3.718
45995W        W18409  14.745  34.520  12.990
45996W        W18410   5.710  14.605  12.565
45997W        W18411   8.770  15.153  12.902
45998W        W18412  35.471  38.414   3.240
45999W        W18413  27.565  17.679  10.541
46000W        W18414   6.331  18.746  14.308
46001W        W18415  36.554  12.814   3.742
46002W        W18416  26.075  12.133  11.390
46003W        W18417  43.007  38.538  13.020
46004W        W18418  10.769  40.869  13.482
46005W        W18419  35.907  34.939  14.960
46006W        W18420   6.758  40.862   1.266
46007W        W18421  27.460  43.016  14.894
46008W        W18422   9.646  40.976  13.515
46009W        W18423  18.660   6.306   2.384
46010W        W18424   5.882  27.610  10.137
46011W        W18425  40.321   1.366  10.980
46012W        W18426  15.822  33.562  12.879
46013W        W18427  35.422  39.828   2.806
46014W        W18428  30.515  16.106   3.774
46015W        W18429  25.994   5.783  10.470
46016W        W18430  12.218  34.434  14.310
46017W        W18431  16.257  10.148  11.437
46018W        W18432   1.304  43.370  13.534
46019W        W18433  13.347  15.666  10.069
46020W        W18434  17.738   7.694  12.456
46021W        W18435  39.006  16.613  14.783
46022W        W18436  32.628  38.453   2.721
46023W        W18437  38.953   2.293   4.154
46024W        W18438  21.538  41.419  13.466
46025W        W18439  26.136  17.148   3.680
46026W        W18440   0.904   6.396  12.044
46027W        W18441  42.311  39.862  11.452
46028W        W18442  33.512  36.017  14.370
46029W        W18443  41.986  15.778   2.338
46030W        W18444  41.879  12.726  14.480
46031W        W18445  44.817   0.758  13.871
46032W        W18446  22.685  37.400  10.511
46033W        W18447  21.167   9.363   1.433
46034W        W18448  17.299  33.119  12.970
46035W        W18449  33.990  14.791   1.812
46036W        W18450  37.878   0.806  14.847
46037W        W18451  11.857   6.840  14.888
46038W        W18452  20.034  40.526   0.915
46039W        W18453  13.814  15.102  12.446
46040W        W18454  41.812  37.857  14.328
46041W        W18455  28.963  32.115   0.482
46042W        W18456  34.380  32.522  13.542
46043W        W18457  11.370   1.910   2.279
46044W        W18458  18.610  33.026  14.022
46045W        W18459  29.584  24.487  11.932
46046W        W18460  34.497  24.138  12.496
46047W        W18461  23.207  43.939  14.304
46048W        W18462   2.852  11.664  12.953
46049W        W18463  40.925  24.022  11.426
46050W        W18464  23.734  30.422   3.679
46051W        W18465  38.364  16.729   4.729
46052W        W18466  25.165   2.280  13.369
46053W        W18467  21.017  21.707   1.712
46054W        W18468  42.830  36.050  11.042
46055W        W18469  13.185  20.632   1.935
46056W        W18470  11.646   6.891  12.019
46057W        W18471  14.676  41.379  11.491
46058W        W18472  43.876  35.859  11.949
46059W        W18473  23.563  20.695   2.813
46060W        W18474  22.526  19.145   0.329
46061W        W18475  42.006  16.080  13.396
46062W        W18476  37.888  39.019  14.323
46063W        W18477  20.640  14.338  11.070
46064W        W18478  39.386  29.119   2.880
46065W        W18479  29.129  22.543  11.860
46066W        W18480  20.632  16.153   4.672
46067W        W18481   5.368  40.340  10.622
46068W        W18482   6.855  41.889  10.492
46069W        W18483  33.525  21.657  11.062
46070W        W18484  27.066   1.733   3.650
46071W        W18485  28.128   3.243  13.831
46072W        W18486  18.269  11.299  10.907
46073W        W18487  42.809   6.368  10.889
46074W        W18488  14.718   4.269   1.227
46075W        W18489  12.255   7.192  11.981
46076W        W18490   2.363  40.938  12.851
46077W        W18491  10.161  40.967   0.469
46078W        W18492   3.831  10.652   2.379
46079W        W18493   7.726  21.583   2.882
46080W        W18494   8.267   1.751   2.822
46081W        W18495   4.837   6.843  11.477
46082W        W18496  20.737   2.248  11.978
46083W        W18497  15.203  41.799   1.715
46084W        W18498  23.204   7.210   0.285
46085W        W18499  22.520  33.932   1.450
46086W        W18500  17.597  35.877  10.534
46087W        W18501  30.530  20.116  14.928
46088W        W18502  31.963  33.529   4.154
46089W        W18503  24.593   1.379  11.380
46090W        W18504  40.052  11.697   0.416
46091W        W18505  39.504  11.282  12.372
46092W        W18506  11.218   7.296  10.549
46093W        W18507   9.650  17.154   1.327
46094W        W18508   1.771  34.867   1.848
46095W        W18509   8.358   7.769   1.849
46096W        W18510  37.396  28.615  10.573
46097W        W18511  34.470  15.125   3.260
46098W        W18512   8.258  27.580   2.761
46099W        W18513   7.412  32.098  14.435
46100W        W18514  30.150   7.209   1.256
46101W        W18515  32.888  37.024   2.664
46102W        W18516  31.951  43.881  13.325
46103W        W18517  31.935   3.859  13.452
46104W        W18518  27.194   7.710   2.312
46105W        W18519   2.468  27.449   9.583
46106W        W18520  42.842  14.337  14.833
46107W        W18521   6.260  18.196   4.790
46108W        W18522   6.302  32.458   4.602
46109W        W18523  30.612  14.745   3.324
46110W        W18524  22.689   9.153  12.928
46111W        W18525   2.243  42.030  12.003
46112W        W18526   9.157  36.582  11.969
46113W        W18527  25.031   1.875   3.769
46114W        W18528  12.259  34.382   2.200
46115W        W18529  26.154  37.872  13.891
46116W        W18530  14.133  39.505  12.843
46117W        W18531  11.751  22.113   3.663
46118W        W18532   6.906  22.038  14.015
46119W        W18533   5.202  38.525   2.331
46120W        W18534   7.227  18.639   3.213
46121W        W18535   7.790  19.644  11.044
46122W        W18536  22.123   3.253  14.275
46123W        W18537   9.171  31.975  12.415
46124W        W18538  18.752  39.962   1.899
46125W        W18539  28.029  13.689   3.743
46126W        W18540   6.912  30.558  14.433
46127W        W18541  38.483   7.385  12.361
46128W        W18542  24.516  37.918   2.899
46129W        W18543   4.904  16.625  10.419
46130W        W18544  38.930  38.401  12.888
46131W        W18545  29.086  16.680   1.313
46132W        W18546  20.697   4.760   2.827
46133W        W18547  24.145  38.874   0.939
46134W        W18548   7.746  40.798   3.209
46135W        W18549  32.016  28.592   0.341
46136W        W18550   6.760  10.378  14.424
46137W        W18551   8.774   2.290   3.361
46138W        W18552  14.799  28.138   3.821
46139W        W18553  32.551  11.681  12.842
46140W        W18554  17.640  42.983  13.465
46141W        W18555  22.642  16.636   0.945
46142W        W18556   0.448   8.727   3.658
46143W        W18557  27.056  11.327   3.857
46144W        W18558  17.193  36.020   4.163
46145W        W18559  38.414  33.003  13.536
46146W        W18560  35.566  35.478   4.603
46147W        W18561  17.625   7.204   1.304
46148W        W18562  32.011   0.439  14.775
46149W        W18563  18.134  42.503  13.485
46150W        W18564  15.180  21.105   3.683
46151W        W18565  43.313  33.593  11.576
46152W        W18566   3.844   4.721   3.242
46153W        W18567  21.667   4.396  10.630
46154W        W18568  25.689  33.903  13.937
46155W        W18569  34.436   4.316   2.865
46156W        W18570  20.113  44.854   4.810
46157W        W18571  32.936  20.119  11.517
46158W        W18572  19.707  27.197   1.903
46159W        W18573  14.125  41.452  12.009
46160W        W18574   6.269  27.624  10.993
46161W        W18575  22.610   0.790   0.845
46162W        W18576   2.244   9.742   2.812
46163W        W18577  16.706   9.734  14.419
46164W        W18578   3.253  40.838   4.830
46165W        W18579  38.011  29.452  11.510
46166W        W18580  15.719  15.673   1.811
46167W        W18581   7.265  44.495   0.345
46168W        W18582   6.802   8.271   3.264
46169W        W18583   5.891  16.746   3.821
46170W        W18584  28.594   0.912  12.432
46171W        W18585  44.943  16.204  12.835
46172W        W18586  37.933   6.386  10.442
46173W        W18587  20.267  31.533  12.485
46174W        W18588  21.170   0.839  13.873
46175W        W18589   6.223  28.080  14.346
46176W        W18590  37.874  39.066   4.698
46177W        W18591  26.659  35.870   3.812
46178W        W18592  15.693  43.835   1.271
46179W        W18593  35.454   8.229  14.320
46180W        W18594   7.352  44.886  14.330
46181W        W18595  40.504   5.848  12.860
46182W        W18596  33.584  35.863   9.956
46183W        W18597   1.391  40.820   0.759
46184W        W18598  41.396  31.411  11.052
46185W        W18599   1.865  16.797  14.994
46186W        W18600  22.666  28.096  14.896
46187W        W18601  44.339   3.282  13.420
46188W        W18602  15.798  14.338  10.911
46189W        W18603  37.438  13.240  10.956
46190W        W18604   3.392   1.353  13.419
46191W        W18605   2.950   1.418   3.677
46192W        W18606  27.044   0.379  14.795
46193W        W18607  27.185  30.572  10.440
46194W        W18608  30.038  28.098   4.155
46195W        W18609  26.528  38.907  10.528
46196W        W18610  10.216  23.509  12.827
46197W        W18611  30.621   2.959  12.353
46198W        W18612  36.079  29.156   3.845
46199W        W18613  19.200   4.442  11.444
46200W        W18614  13.113  20.701  12.515
46201W        W18615  30.585  38.890  13.338
46202W        W18616   9.649  17.779  13.984
46203W        W18617   7.842  39.967  14.380
46204W        W18618  42.313   8.779   4.813
46205W        W18619  29.932  33.487  11.503
46206W        W18620  38.862  30.425   0.282
46207W        W18621   9.389  42.298   2.892
46208W        W18622  33.480  26.069  12.989
46209W        W18623  10.211  12.674   4.811
46210W        W18624   8.772  41.043   3.715
46211W        W18625  17.607  16.112  11.569
46212W        W18626  38.911  32.124   4.760
46213W        W18627   7.215   6.261  13.051
46214W        W18628  35.079  15.767   2.417
46215W        W18629  43.391  37.415  13.494
46216W        W18630   9.684   1.753  14.766
46217W        W18631  40.395   3.301   4.199
46218W        W18632  30.951  24.483  11.404
46219W        W18633   8.755  22.171  11.547
46220W        W18634  14.099  40.515  14.783
46221W        W18635   1.405  16.122  11.938
46222W        W18636  30.565  14.724  10.562
46223W        W18637  34.496  23.219  14.373
46224W        W18638  29.620  29.641   3.805
46225W        W18639  24.194   6.329  10.982
46226W        W18640  29.431   7.718  12.090
46227W        W18641  16.180  32.894  13.037
46228W        W18642  22.017  25.622   3.742
46229W        W18643  14.822  20.140   5.164
46230W        W18644  28.666  10.200  10.021
46231W        W18645   3.789   3.399   3.747
46232W        W18646  19.602   9.735  10.946
46233W        W18647  10.364  34.032   1.264
46234W        W18648  15.233   2.304   1.212
46235W        W18649  41.796  28.668  12.876
46236W        W18650   5.279  23.699   3.699
46237W        W18651  16.262   1.887   0.788
46238W        W18652  11.713  25.066   1.244
46239W        W18653   8.195  11.635   3.805
46240W        W18654   6.912  27.080  13.545
46241W        W18655  15.663  41.964  12.024
46242W        W18656  19.675  10.166  14.852
46243W        W18657  35.544  35.900  14.302
46244W        W18658  38.368   1.908   1.272
46245W        W18659  24.572   5.248  14.482
46246W        W18660  14.274  27.037  11.926
46247W        W18661  12.672  10.303   2.318
46248W        W18662   9.319   5.205   1.911
46249W        W18663  12.833  24.587  12.066
46250W        W18664  16.612  10.139   1.717
46251W        W18665  38.076  35.065   2.774
46252W        W18666  35.013  27.966  10.890
46253W        W18667  37.997   6.285  13.338
46254W        W18668  40.033  40.460   1.765
46255W        W18669  14.749   2.888   2.183
46256W        W18670  33.906  27.063  14.801
46257W        W18671  16.651  11.155   0.358
46258W        W18672  36.046  39.015  12.855
46259W        W18673  40.427  15.738   4.222
46260W        W18674  33.453  32.990  11.523
46261W        W18675  22.523  12.143   2.361
46262W        W18676  19.552  24.093  13.339
46263W        W18677   3.918  12.732  13.997
46264W        W18678  21.072  21.745   3.732
46265W        W18679  15.752   5.725   9.514
46266W        W18680  40.882   4.298  14.836
46267W        W18681  30.953  11.682   2.726
46268W        W18682  24.219   4.426   0.382
46269W        W18683   9.743   5.355  12.923
46270W        W18684   5.407  34.453  12.934
46271W        W18685  23.536  22.556  10.922
46272W        W18686  28.554  10.707   0.809
46273W        W18687  16.747  27.576  14.342
46274W        W18688  21.724  34.079  13.937
46275W        W18689   5.818  21.610   3.635
46276W        W18690  14.657  28.152  12.873
46277W        W18691  28.135   0.956  14.354
46278W        W18692  37.848  25.707   0.436
46279W        W18693  18.585   8.162   3.210
46280W        W18694  33.977   6.190   2.901
46281W        W18695  16.192  26.155  14.786
46282W        W18696   7.319   5.725   3.742
46283W        W18697   9.183  10.281  10.606
46284W        W18698   5.424  15.211   4.613
46285W        W18699  12.129  36.891   4.283
46286W        W18700  10.696  29.562  14.434
46287W        W18701  23.084  33.396   0.857
46288W        W18702   6.747  37.942  12.007
46289W        W18703  43.007  15.130  10.600
46290W        W18704  38.466  28.609  10.572
46291W        W18705  30.425  36.531   0.337
46292W        W18706   4.239  12.793  13.917
46293W        W18707  15.238  39.380   2.698
46294W        W18708  42.971   9.829   2.825
46295W        W18709  32.059  26.085   0.305
46296W        W18710  17.270  23.133   1.356
46297W        W18711  18.609  26.083  12.429
46298W        W18712  38.016  35.427  11.439
46299W        W18713  22.667  42.483  13.042
46300W        W18714  14.613   2.469   0.282
46301W        W18715  19.188  39.877   0.465
46302W        W18716  19.545  19.222  11.510
46303W        W18717  25.678  24.112   0.823
46304W        W18718  25.153  43.844  11.997
46305W        W18719   1.329  11.133  14.427
46306W        W18720  16.735  11.816   3.158
46307W        W18721  10.340  15.109  10.928
46308W        W18722  10.191   3.938  10.943
46309W        W18723   4.241  21.632  12.933
46310W        W18724  25.531   0.368  10.151
46311W        W18725   1.370   3.729   0.881
46312W        W18726  41.452  13.709  14.941
46313W        W18727   5.434  38.842   4.207
46314W        W18728  18.241  26.477  14.878
46315W        W18729  43.333   3.357  12.480
46316W        W18730  23.988  28.131  13.438
46317W        W18731  34.415  31.456  14.402
46318W        W18732  26.458  14.244  14.337
46319W        W18733  10.825  18.051  14.289
46320W        W18734   2.388   4.877  13.797
46321W        W18735  41.877  43.330  14.299
46322W        W18736   0.456   3.892  12.949
46323W        W18737  20.060  42.460   0.454
46324W        W18738   9.783  36.076   2.710
46325W        W18739  33.889  26.980  13.500
46326W        W18740   0.791  11.154   4.259
46327W        W18741  43.385  38.071  14.511
46328W        W18742  31.914   0.780   4.625
46329W        W18743  40.025  28.448  12.965
46330W        W18744   7.666   6.751   1.842
46331W        W18745  12.744  42.387  12.486
46332W        W18746  28.009  26.535   1.398
46333W        W18747  44.494   8.698   3.848
46334W        W18748  23.092  23.636   3.774
46335W        W18749  18.076  32.572   4.643
46336W        W18750  21.589  12.611   1.892
46337W        W18751  41.847   0.457   1.265
46338W        W18752  40.486  42.791  11.989
46339W        W18753  13.768  44.494  12.436
46340W        W18754  44.397   2.757   3.319
46341W        W18755  24.704  13.688   1.902
46342W        W18756  28.496  31.566  11.563
46343W        W18757  27.471  13.156   1.297
46344W        W18758   1.788  23.624  11.996
46345W        W18759  28.514  28.148   2.373
46346W        W18760   5.873  40.028   4.667
46347W        W18761  40.428   1.265   3.276
46348W        W18762  42.383  30.485   3.325
46349W        W18763  26.997   4.854  11.857
46350W        W18764  14.700  11.337   4.296
46351W        W18765  18.266  42.408  10.421
46352W        W18766  22.609  34.540   1.826
46353W        W18767  13.139  28.627  12.373
46354W        W18768  40.446  36.485  14.422
46355W        W18769  34.414  36.014   0.761
46356W        W18770   0.778  20.134   4.337
46357W        W18771   6.353   1.908  14.770
46358W        W18772  44.387  23.197  11.441
46359W        W18773  30.548   5.706  11.928
46360W        W18774  25.634  43.292  13.521
46361W        W18775  27.582  11.133   0.409
46362W        W18776  42.014  23.221   3.238
46363W        W18777   1.445  10.200  13.920
46364W        W18778  13.688  28.031  12.897
46365W        W18779  39.418  21.641   4.618
46366W        W18780  17.616  14.817  11.884
46367W        W18781  44.450  34.475  14.793
46368W        W18782  19.196  25.163  11.122
46369W        W18783  18.093  15.206   3.361
46370W        W18784  37.967  18.176   2.344
46371W        W18785  42.949  38.898   0.737
46372W        W18786  23.990  43.981  14.418
46373W        W18787   0.986  43.889   4.308
46374W        W18788  19.063  23.131   0.876
46375W        W18789  22.180   4.242   3.798
46376W        W18790  24.196  43.391   2.745
46377W        W18791   4.780   1.937   1.717
46378W        W18792  27.604  30.927  13.315
46379W        W18793  28.580   3.334   1.219
46380W        W18794  20.766  24.601  13.952
46381W        W18795  36.999  30.485   1.283
46382W        W18796  31.994  20.257  14.398
46383W        W18797  34.053  12.739  14.417
46384W        W18798   7.341  19.145   0.473
46385W        W18799  36.009   8.290   4.816
46386W        W18800   9.732  34.585   4.765
46387W        W18801  14.257  17.064  11.424
46388W        W18802  33.001  30.527  14.971
46389W        W18803  20.569  26.672   2.348
46390W        W18804  37.399  25.703  12.070
46391W        W18805   7.668  32.413  14.839
46392W        W18806   3.885  10.298   0.311
46393W        W18807  28.019  36.441  10.485
46394W        W18808  17.733  14.200   0.245
46395W        W18809  11.334  39.827  12.047
46396W        W18810  35.590  27.573  13.388
46397W        W18811  26.080  15.310   3.726
46398W        W18812  42.293  30.023   0.272
46399W        W18813  38.869  37.077  11.016
46400W        W18814  18.102  15.758   1.252
46401W        W18815  33.029  38.982  14.353
46402W        W18816  22.178  42.522   2.781
46403W        W18817  23.102  24.525   4.658
46404W        W18818  37.434  20.530   1.883
46405W        W18819  10.698   9.291   4.742
46406W        W18820  14.198  29.069   4.211
46407W        W18821  30.628   6.366  14.400
46408W        W18822  17.203  26.660   4.319
46409W        W18823  26.987  14.313   4.756
46410W        W18824  43.963  14.826  14.917
46411W        W18825  22.184  34.877  12.421
46412W        W18826  22.196   9.862   4.303
46413W        W18827  26.044   9.263  11.996
46414W        W18828  18.785  20.040   4.779
46415W        W18829   3.847  11.297   3.692
46416W        W18830  26.466   0.792  12.573
46417W        W18831  24.686  16.678  13.973
46418W        W18832  30.075  20.064   4.773
46419W        W18833  30.435  33.047  10.505
46420W        W18834  16.135   6.398  14.896
46421W        W18835  41.041   7.905  13.812
46422W        W18836  27.516  12.120  11.912
46423W        W18837  39.898   6.742   4.161
46424W        W18838  37.047   5.276   0.275
46425W        W18839   6.217  17.696   1.704
46426W        W18840  38.914  31.403   1.734
46427W        W18841  21.080  17.266   1.765
46428W        W18842  16.149  38.925   1.359
46429W        W18843  33.601  34.063  11.905
46430W        W18844  38.025  28.997  12.487
46431W        W18845  10.299  26.653   2.190
46432W        W18846  41.994  27.496   4.838
46433W        W18847  44.812   9.704  12.999
46434W        W18848  18.171  27.039   2.245
46435W        W18849  36.402  26.635   0.788
46436W        W18850  22.697  24.989  10.549
46437W        W18851  40.874  19.254  11.090
46438W        W18852  24.659  27.094  13.821
46439W        W18853  11.810   1.961  13.799
46440W        W18854  16.190  19.706  11.474
46441W        W18855  24.669  17.686   4.650
46442W        W18856  11.255   0.787  12.900
46443W        W18857   6.729  40.887  13.054
46444W        W18858  37.555  35.603   0.911
46445W        W18859  30.461  35.427   3.315
46446W        W18860   5.816  36.517   0.320
46447W        W18861  18.743   0.846   9.954
46448W        W18862   3.230   3.362  11.521
46449W        W18863  14.285  14.661  13.518
46450W        W18864   8.305   3.886   1.364
46451W        W18865  27.681  29.469  14.787
46452W        W18866   7.339  13.668  12.842
46453W        W18867  14.112  27.190  12.520
46454W        W18868   2.402   8.307   1.329
46455W        W18869  26.187  15.740   1.809
46456W        W18870   8.772  12.692  11.935
46457W        W18871  17.304  32.112  14.288
46458W        W18872  12.630  42.946   0.884
46459W        W18873  36.423  25.075  13.996
46460W        W18874  30.476  42.477  11.882
46461W        W18875  21.682  38.339   2.831
46462W        W18876  43.424  34.092   1.236
46463W        W18877  43.290  35.491  11.391
46464W        W18878  11.352  26.537   1.342
46465W        W18879  13.815  25.691   4.163
46466W        W18880  34.549  20.070   3.784
46467W        W18881   1.475  29.514  11.099
46468W        W18882   0.313  16.686   1.876
46469W        W18883  17.226  25.561   1.871
46470W        W18884  18.244   1.335  10.914
46471W        W18885  10.769  23.516  12.579
46472W        W18886  28.678  18.172   1.405
46473W        W18887   8.401  26.090  13.536
46474W        W18888   9.852  14.827  13.462
46475W        W18889  18.202  11.695  13.901
46476W        W18890   6.380   7.291   4.599
46477W        W18891   6.397  22.671   4.177
46478W        W18892  28.604  35.065  13.993
46479W        W18893   5.879  27.573   0.277
46480W        W18894  35.394  34.425  11.580
46481W        W18895  31.105  43.388  11.509
46482W        W18896  33.539  25.086   4.743
46483W        W18897   6.707  22.746   1.889
46484W        W18898  29.117  26.472  12.853
46485W        W18899   0.390  42.852   0.382
46486W        W18900  36.591  32.054   1.903
46487W        W18901  35.433  43.367  12.845
46488W        W18902  19.622  21.750   4.121
46489W        W18903  33.511  11.235  10.554
46490W        W18904  42.885  22.729   3.217
46491W        W18905   4.927   2.237  14.014
46492W        W18906  21.152  40.981  13.796
46493W        W18907   1.925  20.172   2.361
46494W        W18908  16.721  28.442   0.466
46495W        W18909  16.769  10.693   3.766
46496W        W18910  26.999  36.536   4.319
46497W        W18911   2.472  16.228   0.964
46498W        W18912  23.054  16.736  14.295
46499W        W18913  18.253  38.468   0.930
46500W        W18914  28.032  17.677  14.314
46501W        W18915   3.356  23.128  14.860
46502W        W18916   3.754  44.276   0.752
46503W        W18917   4.751  35.856  14.765
46504W        W18918   2.838  15.263  10.059
46505W        W18919  43.363   3.790   3.834
46506W        W18920  42.312  11.731  12.088
46507W        W18921   6.834  41.834  14.360
46508W        W18922  34.472  40.006   0.843
46509W        W18923  31.593  20.688   1.221
46510W        W18924  19.146  19.652  12.999
46511W        W18925  12.643   7.898  10.048
46512W        W18926  17.770  13.310  14.926
46513W        W18927  25.998  11.841   3.698
46514W        W18928  36.930   9.252   0.918
46515W        W18929   8.675  38.445  11.861
46516W        W18930  22.096  29.965  10.574
46517W        W18931  28.009  29.160   3.846
46518W        W18932   2.231  43.444  11.605
46519W        W18933  20.687  36.074  11.010
46520W        W18934  28.634  19.046  13.799
46521W        W18935  41.422   7.759   4.694
46522W        W18936  39.951  36.519   0.408
46523W        W18937  22.018   8.194   2.699
46524W        W18938  12.650   8.700  13.395
46525W        W18939  19.122  26.984   3.770
46526W        W18940  19.163  18.751  12.539
46527W        W18941  25.618   2.894  10.438
46528W        W18942   3.305  15.234  10.593
46529W        W18943  14.318  38.900  14.906
46530W        W18944  28.624   9.250   0.804
46531W        W18945  41.790  24.692   2.205
46532W        W18946  41.883   9.161   1.395
46533W        W18947  15.275  34.108  11.026
46534W        W18948  24.210  16.074  12.537
46535W        W18949  24.119  30.055  14.864
46536W        W18950  34.906   5.818   1.268
46537W        W18951  43.356   9.231  14.904
46538W        W18952   3.454  16.624   0.465
46539W        W18953  28.086  12.678  14.486
46540W        W18954  36.480  10.834  10.961
46541W        W18955  23.667  44.296   0.845
46542W        W18956  38.990  25.473  10.472
46543W        W18957  42.379  43.910   1.699
46544W        W18958   4.794  43.886  13.376
46545W        W18959  20.756  23.708  12.460
46546W        W18960   9.332   7.353  10.480
46547W        W18961  25.109  24.615   0.404
46548W        W18962   6.244  21.252  10.969
46549W        W18963   9.773  29.918  12.057
46550W        W18964  18.268   6.195   0.949
46551W        W18965   5.434  43.946   2.849
46552W        W18966  36.534  18.631   3.696
46553W        W18967  11.305  24.102   1.396
46554W        W18968  30.498   6.238   2.716
46555W        W18969  33.062  40.409  13.034
46556W        W18970  27.454   3.937   3.318
46557W        W18971  32.623  15.106  14.769
46558W        W18972   7.265   8.340  11.583
46559W        W18973  39.835  21.697  10.456
46560W        W18974  34.111  23.649   9.470
46561W        W18975  14.732   7.871  10.049
46562W        W18976  34.923  23.593   9.984
46563W        W18977  26.637  36.389   1.438
46564W        W18978  44.283   0.791   0.875
46565W        W18979   1.909  14.791   1.701
46566W        W18980  32.502  29.591  12.993
46567W        W18981  40.024  34.928   3.784
46568W        W18982   9.770   2.792  12.574
46569W        W18983   2.412  44.943  12.020
46570W        W18984   1.467  30.542  13.378
46571W        W18985  20.164  15.591   1.875
46572W        W18986   2.442  37.963   3.217
46573W        W18987   4.903  18.262  13.980
46574W        W18988  21.735  41.518  11.607
46575W        W18989  13.217  14.649  12.051
46576W        W18990  44.768  33.904  10.548
46577W        W18991  38.496  21.106  14.296
46578W        W18992  40.517  43.422   3.816
46579W        W18993  28.030  18.209   2.722
46580W        W18994  27.526   4.243   2.411
46581W        W18995   2.855  44.991  12.449
46582W        W18996   7.316  10.812  13.918
46583W        W18997   2.400  13.275   1.792
46584W        W18998  37.047  29.142   4.308
46585W        W18999  15.141   7.839  11.947
46586W        W19000   6.828   1.879  11.411
46587W        W19001  27.148   2.738  10.423
46588W        W19002  16.283   1.479  10.917
46589W        W19003   7.353  30.466  12.349
46590W        W19004  25.063  26.191  12.489
46591W        W19005  26.196  24.218  12.571
46592W        W19006  25.202  16.072   0.865
46593W        W19007  16.170  16.190  11.126
46594W        W19008  30.422  24.107   4.351
46595W        W19009  38.866  30.602  10.453
46596W        W19010  19.194   6.233  13.885
46597W        W19011  30.557   5.261   4.230
46598W        W19012  17.072  30.151   0.758
46599W        W19013  25.540  35.414  12.409
46600W        W19014  19.549   5.804   0.740
46601W        W19015  37.356  23.201   0.836
46602W        W19016  18.065  15.760  13.442
46603W        W19017  33.473   1.855  12.356
46604W        W19018  36.509  14.698  12.996
46605W        W19019  37.495  28.991  11.071
46606W        W19020  30.159  19.098   0.767
46607W        W19021  29.465   8.243   2.816
46608W        W19022  29.530  22.071   4.822
46609W        W19023  14.733  14.136   5.236
46610W        W19024  11.645  34.079   0.372
46611W        W19025  13.320  27.065  10.904
46612W        W19026  25.682  18.072   4.330
46613W        W19027  21.732  34.929   3.870
46614W        W19028  35.100  21.122   0.251
46615W        W19029  19.218   6.757  14.353
46616W        W19030   1.870  35.014  14.410
46617W        W19031  38.951   3.268   0.815
46618W        W19032  31.578  31.145   3.357
46619W        W19033  41.336  41.423  13.454
46620W        W19034   9.856  22.128   3.779
46621W        W19035  36.453  19.590   2.774
46622W        W19036  10.380  24.525  14.865
46623W        W19037  40.322  22.235  10.949
46624W        W19038  26.474  24.682  10.600
46625W        W19039  40.911  40.841  14.301
46626W        W19040  18.291  43.289  12.530
46627W        W19041  31.945   7.845   4.780
46628W        W19042   8.181  15.102   4.350
46629W        W19043  11.294  17.622   4.172
46630W        W19044  15.267   7.360   5.297
46631W        W19045  32.104   9.394   3.371
46632W        W19046  26.083  18.212   1.780
46633W        W19047  21.661   1.261  14.434
46634W        W19048   8.850  25.621  10.614
46635W        W19049  13.733  32.037   2.299
46636W        W19050  18.741  28.535   0.298
46637W        W19051   7.716  29.607   3.725
46638W        W19052   2.961  30.516  13.470
46639W        W19053  14.210  38.491   1.765
46640W        W19054  35.855  44.897  10.492
46641W        W19055  19.587  17.697   4.691
46642W        W19056  27.063  17.688  14.867
46643W        W19057   0.403  13.759   3.835
46644W        W19058   0.467  13.813   1.817
46645W        W19059  36.937  39.975   0.338
46646W        W19060  10.365  24.105  10.436
46647W        W19061  36.991  42.426  11.983
46648W        W19062  33.116  44.979   2.336
46649W        W19063  38.457  30.481  12.973
46650W        W19064  30.553  13.352   4.268
46651W        W19065  28.572  10.257   2.221
46652W        W19066  39.490  40.047  13.959
46653W        W19067  38.509  10.827  13.493
46654W        W19068  36.858   3.717  12.367
46655W        W19069  28.956  29.010  11.599
46656W        W19070  26.463  22.211   2.846
46657W        W19071   0.880   8.249   0.800
46658W        W19072  29.156  39.984  11.409
46659W        W19073   2.382  29.477  11.468
46660W        W19074  35.451  23.662  10.083
46661W        W19075  31.590  16.235   4.817
46662W        W19076  13.243   3.782  12.925
46663W        W19077  28.441  25.639  11.467
46664W        W19078  39.012  24.052   0.955
46665W        W19079  30.655  34.039   4.757
46666W        W19080   2.934  35.562  13.850
46667W        W19081  35.078  21.751   0.248
46668W        W19082   5.288  34.048   2.729
46669W        W19083  28.176  12.780  12.433
46670W        W19084  31.913   0.412   3.867
46671W        W19085   5.809  27.063  11.569
46672W        W19086   4.918  41.968  12.497
46673W        W19087   2.311  15.319  13.987
46674W        W19088  37.568  27.528  14.412
46675W        W19089  26.196   9.182   3.284
46676W        W19090  33.019  29.549   0.777
46677W        W19091   5.367  41.378  12.005
46678W        W19092  34.086  36.996   3.380
46679W        W19093  13.284   4.808   3.724
46680W        W19094  35.409  23.087  10.538
46681W        W19095   3.915  38.947  12.360
46682W        W19096  12.278   8.383  13.538
46683W        W19097  36.410  32.570  10.439
46684W        W19098  37.843  14.302  14.304
46685W        W19099  10.147   6.405   4.163
46686W        W19100  13.829  12.756   2.756
46687W        W19101  28.186  12.622   0.922
46688W        W19102  23.554  15.698  13.416
46689W        W19103  24.524  19.212   0.276
46690W        W19104  27.962  37.889  10.998
46691W        W19105   4.866   8.687  10.530
46692W        W19106  33.892  16.088  13.898
46693W        W19107  23.629   3.792   2.735
46694W        W19108   5.857  37.556   1.272
46695W        W19109  21.711  30.967   4.344
46696W        W19110  13.737  17.589  11.096
46697W        W19111  43.511   0.803   0.886
46698W        W19112  37.460   3.724   0.416
46699W        W19113  29.971  24.678  14.938
46700W        W19114  33.512  20.214  12.385
46701W        W19115  12.276  33.469   9.948
46702W        W19116   0.747  24.529  14.764
46703W        W19117  20.184  29.511  11.461
46704W        W19118  33.421  28.640   1.270
46705W        W19119   4.773  15.105  12.961
46706W        W19120  42.976  16.788  13.046
46707W        W19121  23.510   2.878   1.239
46708W        W19122   7.784  16.617   4.780
46709W        W19123  33.874  30.942   1.375
46710W        W19124  27.119  10.348  10.010
46711W        W19125   6.878  32.471  13.054
46712W        W19126  12.798   2.800  14.768
46713W        W19127  35.034  12.194   4.138
46714W        W19128   9.159  38.421   3.243
46715W        W19129   7.855  22.007   3.226
46716W        W19130   3.912  11.818  12.876
46717W        W19131  29.170  10.635  11.530
46718W        W19132  24.052  44.836   1.279
46719W        W19133   6.249   5.303  10.483
46720W        W19134   4.408  31.504  14.376
46721W        W19135  10.200  40.835  13.927
46722W        W19136  27.975  17.759  13.381
46723W        W19137  39.890   3.439   0.736
46724W        W19138  38.025  16.183  13.842
46725W        W19139   1.434  24.519  14.801
46726W        W19140  13.693   2.450   2.255
46727W        W19141  28.087   3.377  14.784
46728W        W19142  14.723   9.681   9.957
46729W        W19143  42.526  21.027  12.401
46730W        W19144  11.626  18.665   3.747
46731W        W19145  41.532  26.562   1.810
46732W        W19146  33.393  26.655   1.775
46733W        W19147  38.388  16.194  13.353
46734W        W19148   8.260  41.836  10.516
46735W        W19149  26.168   4.405  12.515
46736W        W19150  14.711  20.727  13.963
46737W        W19151   1.775  16.096  14.814
46738W        W19152  28.647  32.490  11.451
46739W        W19153  44.349  16.600  12.905
46740W        W19154  27.545  16.769  13.317
46741W        W19155   9.889   1.788  12.412
46742W        W19156  34.049  14.103  13.440
46743W        W19157  25.556  40.366  11.965
46744W        W19158  36.051  38.539   4.625
46745W        W19159  37.347  43.295   5.171
46746W        W19160  38.971  43.991   3.831
46747W        W19161  38.917  18.201  12.410
46748W        W19162  31.583  17.794  12.489
46749W        W19163   4.734  43.803  12.060
46750W        W19164  23.069   1.833   3.146
46751W        W19165  38.898  27.041  13.493
46752W        W19166  25.473  21.246   4.824
46753W        W19167  19.077   8.746   4.284
46754W        W19168  25.620   3.369   4.231
46755W        W19169  20.209  14.142   1.785
46756W        W19170   4.721  39.955   9.674
46757W        W19171  40.369  20.133  12.366
46758W        W19172   3.435  17.609  14.028
46759W        W19173  19.571   8.898  10.896
46760W        W19174  21.079  18.249  13.517
46761W        W19175  12.294  10.857  14.841
46762W        W19176  25.001   9.357  13.875
46763W        W19177  26.058   7.910   1.391
46764W        W19178  20.244  18.685  11.492
46765W        W19179  29.486  12.797  11.412
46766W        W19180   1.782  17.696   4.283
46767W        W19181   3.747  30.950  12.064
46768W        W19182  13.836   6.337   0.914
46769W        W19183   4.715  13.201  14.483
46770W        W19184  42.369  41.851   1.428
46771W        W19185  30.138  18.740  13.816
46772W        W19186  33.968  31.076   0.459
46773W        W19187  37.995  38.396  12.888
46774W        W19188  18.652   8.243   1.823
46775W        W19189  20.530  28.510   4.810
46776W        W19190  24.537   9.325  12.943
46777W        W19191  40.908  41.021   0.795
46778W        W19192  32.944  16.208  11.988
46779W        W19193  40.527  29.060   4.797
46780W        W19194  32.406  27.517  12.952
46781W        W19195   8.826   4.276   0.400
46782W        W19196   9.804  10.794  10.999
46783W        W19197  18.244  33.912   2.854
46784W        W19198  14.753   5.756   1.329
46785W        W19199   9.232  19.235  14.014
46786W        W19200  28.979  29.119   1.223
46787W        W19201  40.479  28.954  11.466
46788W        W19202  31.944  31.438  12.474
46789W        W19203  20.195  35.066  10.064
46790W        W19204   1.250  31.594   1.734
46791W        W19205  20.046  27.093   1.870
46792W        W19206  19.084  32.392   0.376
46793W        W19207  12.152  16.625   4.682
46794W        W19208  36.024  38.029  12.951
46795W        W19209  31.582  43.421   1.447
46796W        W19210  32.066   9.805  14.335
46797W        W19211  35.600  13.271  13.904
46798W        W19212   2.319   8.898  10.067
46799W        W19213  22.692   0.832  12.405
46800W        W19214  14.637  43.485   2.367
46801W        W19215  19.754   2.777   4.312
46802W        W19216  42.426  37.933  11.528
46803W        W19217  20.643   7.775  12.511
46804W        W19218  34.921  18.761   2.333
46805W        W19219  26.044  18.210  10.910
46806W        W19220  28.526  24.994   3.815
46807W        W19221  36.076  11.204  13.417
46808W        W19222   8.253  21.146  13.025
46809W        W19223  25.033  31.640  12.439
46810W        W19224  36.439  24.168   3.862
46811W        W19225   2.245  21.241   0.398
46812W        W19226  20.661   9.271  11.542
46813W        W19227  35.470  41.457   1.261
46814W        W19228  36.521  33.989  11.125
46815W        W19229   9.855  29.064   3.166
46816W        W19230   7.248   9.187   0.443
46817W        W19231  14.271  36.951   0.407
46818W        W19232   1.889  39.855   2.687
46819W        W19233   0.828   3.350   2.256
46820W        W19234   5.237  28.461  12.846
46821W        W19235   1.309  10.359   4.319
46822W        W19236  30.142   9.746  12.874
46823W        W19237  33.008  10.767   2.834
46824W        W19238  22.622  26.147  10.438
46825W        W19239  14.335  30.048   2.791
46826W        W19240  44.865  29.525   1.448
46827W        W19241  40.799  21.086   0.253
46828W        W19242  12.275  25.574  12.023
46829W        W19243  17.614  39.989   3.163
46830W        W19244  10.306  17.293  11.928
46831W        W19245  26.475  39.404   0.250
46832W        W19246  22.233  27.960   3.690
46833W        W19247  15.815   1.439  13.461
46834W        W19248  35.930  23.717   3.718
46835W        W19249   7.699  30.513   5.196
46836W        W19250   7.304  12.677  11.420
46837W        W19251  16.308  14.159  10.598
46838W        W19252  23.550  14.743  14.797
46839W        W19253  21.195  41.926  12.426
46840W        W19254  29.145  29.490   0.376
46841W        W19255  28.510   4.749   2.876
46842W        W19256  39.903  41.830  10.888
46843W        W19257  29.147  21.246  13.958
46844W        W19258  33.520   8.724   3.171
46845W        W19259  39.845   0.919  11.476
46846W        W19260   0.324  41.006   1.908
46847W        W19261  14.260  29.013  10.628
46848W        W19262  19.765   8.181  12.362
46849W        W19263  12.715  17.797   4.305
46850W        W19264  42.987  10.733   4.799
46851W        W19265  20.152  10.736   3.790
46852W        W19266  30.057   3.368  13.011
46853W        W19267  33.481  40.993   2.743
46854W        W19268  32.416  18.257   3.220
46855W        W19269  14.243  26.108  11.423
46856W        W19270   5.845  15.203  14.882
46857W        W19271  19.664  31.458   0.771
46858W        W19272  23.112  22.638  12.904
46859W        W19273  43.800  44.476   1.737
46860W        W19274   5.898  18.740   0.806
46861W        W19275  29.032  17.270   0.341
46862W        W19276  14.329   7.214  12.033
46863W        W19277  38.503  39.552   1.888
46864W        W19278   5.312  12.773  13.828
46865W        W19279  11.169  44.490   1.288
46866W        W19280  33.909   4.874   1.394
46867W        W19281  40.043  31.926   4.818
46868W        W19282  20.086  44.935  10.107
46869W        W19283   5.917  38.475  14.940
46870W        W19284  10.198  37.852  12.978
46871W        W19285  16.740  43.974  14.485
46872W        W19286  16.625  31.421  10.970
46873W        W19287  37.903  27.483  13.020
46874W        W19288  18.078   4.223  12.076
46875W        W19289   5.726  18.187  10.912
46876W        W19290  33.381  18.619  14.794
46877W        W19291  24.490  38.915  11.006
46878W        W19292  10.305  39.404   3.770
46879W        W19293  12.689  37.411  12.959
46880W        W19294  15.745  20.029   1.711
46881W        W19295  14.704  33.520   0.727
46882W        W19296   0.975  28.677   3.748
46883W        W19297  23.042  13.783   0.384
46884W        W19298  15.183  19.629  11.526
46885W        W19299  30.596  37.487  14.768
46886W        W19300   4.793   7.691  14.028
46887W        W19301  34.468   8.172  12.422
46888W        W19302  14.331  18.111   2.403
46889W        W19303  26.497  10.155   5.135
46890W        W19304  43.336   3.294  11.100
46891W        W19305  19.697  16.736   4.293
46892W        W19306  30.473   4.775  10.578
46893W        W19307  21.675   0.285   4.207
46894W        W19308  35.095  11.235  14.492
46895W        W19309  16.760  43.484  12.022
46896W        W19310  17.115  40.971   2.244
46897W        W19311   8.694  15.278   4.612
46898W        W19312   3.379  28.015  12.903
46899W        W19313  21.131  22.085  11.111
46900W        W19314   5.912  41.005  12.564
46901W        W19315  14.755  10.240  14.942
46902W        W19316  25.015  28.647  10.465
46903W        W19317  25.702   3.724  11.038
46904W        W19318  10.211  11.334  12.963
46905W        W19319  40.359  35.049   2.283
46906W        W19320  10.240  40.411   4.338
46907W        W19321  21.252   6.842   2.348
46908W        W19322  31.638  23.183   3.858
46909W        W19323   6.350  21.088  12.085
46910W        W19324  36.863  37.030  10.996
46911W        W19325  16.608  32.107   4.182
46912W        W19326  37.971  19.256   4.274
46913W        W19327  24.554  29.615  10.469
46914W        W19328  10.271  10.202  10.145
46915W        W19329  27.123  37.054  10.531
46916W        W19330  31.958  20.690   2.388
46917W        W19331  36.356  36.580   2.284
46918W        W19332  41.841   6.320   4.789
46919W        W19333  10.301  29.111   0.258
46920W        W19334  41.524  14.647  12.026
46921W        W19335  11.197  36.034  12.472
46922W        W19336  35.512  31.411   2.202
46923W        W19337  39.531   6.281   2.887
46924W        W19338   8.209   0.891   1.332
46925W        W19339  17.078   4.274   4.684
46926W        W19340  24.597  37.058   2.186
46927W        W19341  24.118  38.915  10.609
46928W        W19342   1.812  19.594   3.636
46929W        W19343  39.941  42.980  13.350
46930W        W19344   4.942   5.438  10.039
46931W        W19345  35.933  22.558  12.397
46932W        W19346  29.097  31.594  10.593
46933W        W19347  11.703  15.644  12.375
46934W        W19348  33.001   4.775  11.547
46935W        W19349  15.168   0.760   3.762
46936W        W19350  29.647  40.457   4.196
46937W        W19351  30.036  36.545  14.372
46938W        W19352  30.011   3.837   0.337
46939W        W19353  14.644   5.781   1.819
46940W        W19354  30.491   6.747  13.455
46941W        W19355  24.564  26.053  11.952
46942W        W19356  30.494  27.447  12.071
46943W        W19357   2.355  22.068  12.868
46944W        W19358  27.584  11.792  11.509
46945W        W19359  38.397  18.581   2.702
46946W        W19360  27.982  23.697  14.026
46947W        W19361   0.895  10.772  13.536
46948W        W19362  32.064  35.588   1.703
46949W        W19363  43.270  35.883   1.326
46950W        W19364   5.274  16.243   4.238
46951W        W19365  14.646   3.825  14.968
46952W        W19366   7.283  15.727   1.815
46953W        W19367   9.873  40.518  10.925
46954W        W19368  29.582  16.209  10.615
46955W        W19369  34.032   4.836  11.520
46956W        W19370  42.984  17.205  11.036
46957W        W19371   9.378  44.825  14.454
46958W        W19372  13.263   3.334   3.251
46959W        W19373  20.761   8.297  11.447
46960W        W19374  33.511  24.517  14.010
46961W        W19375  18.660  20.552  14.385
46962W        W19376  25.664  15.153   2.893
46963W        W19377  42.795  12.682   4.323
46964W        W19378  17.170   8.872  13.432
46965W        W19379  14.208  26.527  14.338
46966W        W19380  22.177  26.460   3.665
46967W        W19381  35.866   3.802   3.288
46968W        W19382  36.554  37.927   2.266
46969W        W19383   6.269  29.455  12.087
46970W        W19384   2.845   3.332   3.165
46971W        W19385  24.983  32.417  14.320
46972W        W19386  16.082  29.440   4.116
46973W        W19387  42.353  36.085   1.407
46974W        W19388  44.345  23.228  10.458
46975W        W19389  35.088   3.262   5.144
46976W        W19390  30.546  43.915  12.495
46977W        W19391   2.749  21.614   2.397
46978W        W19392  32.059   4.800   5.323
46979W        W19393  36.905   7.772   4.601
46980W        W19394  13.636   7.292  14.501
46981W        W19395   1.780  28.006  13.873
46982W        W19396  25.203   4.934   2.374
46983W        W19397  35.446  38.859   1.859
46984W        W19398  20.203  36.463   2.780
46985W        W19399  25.977  38.825  13.371
46986W        W19400  24.225   6.813  12.927
46987W        W19401  16.128  33.527   2.297
46988W        W19402   8.284   5.438  11.607
46989W        W19403  15.266  17.747  12.895
46990W        W19404  14.131  18.709  12.340
46991W        W19405   3.931  33.125   2.190
46992W        W19406  26.208  23.125  11.097
46993W        W19407  26.186  13.755  14.031
46994W        W19408  21.677  20.187  12.838
46995W        W19409  10.790   0.877  12.877
46996W        W19410  15.802  44.883  13.394
46997W        W19411  16.663  40.955  10.642
46998W        W19412  38.834  17.209  13.801
46999W        W19413  28.468  32.526   4.604
47000W        W19414   6.837  17.215  11.009
47001W        W19415  29.950  25.075   4.123
47002W        W19416  13.293   1.343  11.061
47003W        W19417  34.422  31.575   4.247
47004W        W19418   5.712  29.960   1.353
47005W        W19419  32.001  25.624   3.862
47006W        W19420   3.811  35.899   9.985
47007W        W19421   2.467  30.537   4.644
47008W        W19422   7.843  35.527   2.672
47009W        W19423  40.798  22.507  13.462
47010W        W19424  44.889  27.509   1.294
47011W        W19425  10.269  18.782  12.374
47012W        W19426  33.931  42.513  13.913
47013W        W19427   8.248   4.317  14.910
47014W        W19428  37.934   0.974   1.760
47015W        W19429   8.706   0.473   4.231
47016W        W19430   0.310  34.118  12.429
47017W        W19431  32.453   2.722  14.363
47018W        W19432  41.791  10.789  12.894
47019W        W19433  11.157  27.559   0.371
47020W        W19434  30.959  21.751  13.535
47021W        W19435  19.566  30.022   3.254
47022W        W19436  14.748  33.937  10.463
47023W        W19437  39.937  42.303  12.427
47024W        W19438  20.757   0.266   0.279
47025W        W19439   1.928  17.148  10.460
47026W        W19440  23.176  13.247   1.818
47027W        W19441   2.749  43.275  10.616
47028W        W19442  33.928   3.327  13.386
47029W        W19443   9.724  15.218   1.435
47030W        W19444  34.954  20.628  11.504
47031W        W19445  33.976  12.754   3.811
47032W        W19446  35.519  30.562   3.255
47033W        W19447  23.057  36.931  12.541
47034W        W19448  42.847  34.563  14.014
47035W        W19449  43.515  36.077  13.334
47036W        W19450  24.117   9.673  10.411
47037W        W19451  24.103  18.279   5.146
47038W        W19452  38.882  32.092   1.780
47039W        W19453  24.142  42.015  14.873
47040W        W19454   6.385  16.570  10.146
47041W        W19455  24.088  17.286  10.898
47042W        W19456  30.437  23.198  12.568
47043W        W19457  32.984   1.930   0.964
47044W        W19458  19.590  11.655  14.465
47045W        W19459  41.494  18.265   2.758
47046W        W19460  25.529  14.746  13.879
47047W        W19461  43.305   0.977   3.731
47048W        W19462  20.237  41.405  10.028
47049W        W19463  39.436  35.988   4.343
47050W        W19464  12.639  19.768  14.407
47051W        W19465  19.572  10.836   0.777
47052W        W19466  42.879  14.097  11.964
47053W        W19467  22.240  23.197  13.515
47054W        W19468  33.877  13.712   3.359
47055W        W19469   1.976  34.470   4.157
47056W        W19470   6.193   0.759   5.195
47057W        W19471  30.451  25.178  12.398
47058W        W19472  16.202   7.256   3.368
47059W        W19473  34.006  20.179  13.951
47060W        W19474  44.325  13.193  12.922
47061W        W19475  40.420   1.733  11.550
47062W        W19476  19.204   9.830   0.433
47063W        W19477   8.839  38.849   1.772
47064W        W19478  35.094  35.924  11.505
47065W        W19479  22.738  14.232   5.244
47066W        W19480  36.973   3.409  12.021
47067W        W19481  43.794  32.024  11.397
47068W        W19482  15.774   2.255  11.862
47069W        W19483  42.929  24.633  14.494
47070W        W19484  22.013  38.538   3.349
47071W        W19485   4.272  41.914   3.795
47072W        W19486  33.618  30.923  13.909
47073W        W19487  16.137  11.290   4.286
47074W        W19488  32.924  29.526  11.898
47075W        W19489  23.526  29.650   4.225
47076W        W19490  40.023  34.946   4.308
47077W        W19491  28.161   1.762  14.385
47078W        W19492  12.618  41.949  13.820
47079W        W19493  37.994  43.338  13.514
47080W        W19494  32.412  41.955  14.312
47081W        W19495   5.406  12.766  14.452
47082W        W19496  35.579   3.866  14.399
47083W        W19497  14.188  13.765   4.199
47084W        W19498  42.907  21.070  10.481
47085W        W19499  32.120  27.023   3.286
47086W        W19500  24.619   7.220   3.735
47087W        W19501  11.757  14.790  12.944
47088W        W19502  17.221  33.122  12.429
47089W        W19503   8.167  17.769   4.257
47090W        W19504  27.599   0.312   0.765
47091W        W19505  14.242  39.914   1.314
47092W        W19506  25.172  17.741   4.684
47093W        W19507  29.611  35.894   4.218
47094W        W19508  27.099  35.518  14.821
47095W        W19509   2.936   0.292  12.462
47096W        W19510  37.444  39.487   1.293
47097W        W19511   8.730  31.080  12.396
47098W        W19512  40.805  23.726  13.905
47099W        W19513  11.809   7.321  11.439
47100W        W19514  13.745   6.187  12.454
47101W        W19515   6.340   8.711   1.350
47102W        W19516  36.565  39.444   3.709
47103W        W19517  16.745   3.346  11.922
47104W        W19518  25.167   4.753  13.898
47105W        W19519  24.651  43.994   5.185
47106W        W19520   8.825  19.091   1.407
47107W        W19521   8.196  37.834  11.948
47108W        W19522   2.327  23.989   2.845
47109W        W19523  15.594  16.571  11.390
47110W        W19524   8.201  41.004   3.163
47111W        W19525  27.952   2.330   4.629
47112W        W19526  41.297  38.476  12.942
47113W        W19527  20.173  44.889  11.510
47114W        W19528  21.751  29.622   0.471
47115W        W19529  36.898   0.905   4.204
47116W        W19530   5.195  36.097  12.404
47117W        W19531  41.906   5.204  12.409
47118W        W19532  41.361  23.556   4.177
47119W        W19533  21.249   7.367   4.746
47120W        W19534  22.634  44.360  12.366
47121W        W19535  40.305  44.982   0.898
47122W        W19536  32.032   2.249   4.721
47123W        W19537  12.312  12.754   1.813
47124W        W19538  40.855   5.374   4.715
47125W        W19539  11.131  43.809   4.689
47126W        W19540   1.270  31.544   0.951
47127W        W19541  33.030  38.458   1.253
47128W        W19542  14.788  22.669   2.239
47129W        W19543  21.531  42.358   0.832
47130W        W19544  40.369  31.983   4.623
47131W        W19545  13.136  12.171   1.270
47132W        W19546  19.607  13.202   4.154
47133W        W19547  43.270  19.173  13.965
47134W        W19548   4.794  27.973   5.120
47135W        W19549  30.070  15.679  10.469
47136W        W19550  25.128   8.390   0.373
47137W        W19551  36.404   3.796   4.790
47138W        W19552   2.441   2.828  11.013
47139W        W19553  31.980  18.757  14.796
47140W        W19554  41.359  11.707  12.374
47141W        W19555  43.794  12.298  12.462
47142W        W19556  35.508  41.993  14.001
47143W        W19557  43.982  11.702   3.656
47144W        W19558  24.701  22.722  13.940
47145W        W19559  31.008   2.932   4.791
47146W        W19560  23.193  41.330  11.555
47147W        W19561   3.382  35.462  14.473
47148W        W19562   0.358  11.299   1.833
47149W        W19563  28.936  14.297   2.738
47150W        W19564  44.990  31.910  10.957
47151W        W19565  20.635  26.155  10.595
47152W        W19566  35.919  42.863   0.804
47153W        W19567  16.698  39.001  13.907
47154W        W19568   4.204   0.935   0.807
47155W        W19569   6.360  39.365  10.017
47156W        W19570  13.722  44.980  11.590
47157W        W19571   0.275  32.983  11.073
47158W        W19572   3.910  25.093   4.827
47159W        W19573  42.376  11.749  14.280
47160W        W19574  27.453  23.220   0.849
47161W        W19575  44.783   8.202  12.412
47162W        W19576  22.158  15.594   1.247
47163W        W19577  16.280  24.153   4.772
47164W        W19578   9.706  23.617   0.328
47165W        W19579  36.578  18.070   0.863
47166W        W19580  18.547  31.932  10.909
47167W        W19581  18.227   5.270   0.425
47168W        W19582  38.963  37.375  11.003
47169W        W19583  10.296  28.667  13.915
47170W        W19584   6.830  42.931  10.976
47171W        W19585  37.873   4.854   2.824
47172W        W19586  29.080   0.912  12.345
47173W        W19587   6.337  10.669   3.319
47174W        W19588  17.293  37.084   0.400
47175W        W19589  15.200  33.993   2.392
47176W        W19590   7.753  37.888  14.439
47177W        W19591  20.637  44.930   3.251
47178W        W19592  37.519  17.065   0.749
47179W        W19593  43.889  15.682  13.032
47180W        W19594  32.451  20.596  14.949
47181W        W19595  22.684  38.843   9.932
47182W        W19596  34.531  26.562  13.860
47183W        W19597  16.198  30.599  12.944
47184W        W19598  19.695  21.707  12.358
47185W        W19599   5.929   0.439   0.759
47186W        W19600  27.563  23.553   2.761
47187W        W19601  43.367  33.462   3.163
47188W        W19602  24.035   4.253  10.959
47189W        W19603   7.692  33.516   3.676
47190W        W19604  23.667  22.680  11.549
47191W        W19605  11.786  13.643  14.767
47192W        W19606  21.555  15.134   3.795
47193W        W19607   2.427   5.429   2.786
47194W        W19608  43.931  29.983   2.679
47195W        W19609  43.362  41.521  13.399
47196W        W19610  44.435  31.467  11.119
47197W        W19611  17.748  28.502  14.876
47198W        W19612   5.227  33.026   1.297
47199W        W19613  13.324   6.684  14.424
47200W        W19614   5.729  40.964  14.815
47201W        W19615  20.532  22.081   4.723
47202W        W19616  11.242   8.403  14.459
47203W        W19617  20.108  29.943   4.128
47204W        W19618  29.145  28.159  14.332
47205W        W19619  19.759   1.465   4.252
47206W        W19620  10.734  29.003   3.219
47207W        W19621  17.067  38.966   1.771
47208W        W19622  23.563  40.417  11.455
47209W        W19623   6.190  38.421  12.853
47210W        W19624  23.189  35.867  11.511
47211W        W19625  35.946   7.269  10.512
47212W        W19626   5.415  18.058  14.922
47213W        W19627  21.528  31.626  12.452
47214W        W19628  10.741  38.959   3.308
47215W        W19629  17.690   4.828  10.486
47216W        W19630   7.345   1.909   3.836
47217W        W19631   0.475  13.158   2.406
47218W        W19632  32.505  38.831  11.884
47219W        W19633   9.836  22.675   2.699
47220W        W19634  32.997  40.330  10.431
47221W        W19635   9.347  23.584   0.317
47222W        W19636   8.682  28.968  14.426
47223W        W19637  31.453  40.829  12.927
47224W        W19638  22.736  27.604  12.058
47225W        W19639  25.158  10.868  13.454
47226W        W19640  16.661   7.317  10.501
47227W        W19641  14.771  11.267  10.905
47228W        W19642  32.938  42.013  12.538
47229W        W19643   8.734   9.825  12.976
47230W        W19644  10.272   6.281  12.444
47231W        W19645  26.563  12.661  10.557
47232W        W19646   8.786  39.971  14.451
47233W        W19647   5.339  29.012  14.902
47234W        W19648   6.761  42.452  12.385
47235W        W19649  43.925  12.780  14.473
47236W        W19650  35.981  40.472  12.874
47237W        W19651  20.667  28.990  12.383
47238W        W19652  29.925  11.225   4.278
47239W        W19653   7.747  27.620  10.414
47240W        W19654  39.317  10.295  13.961
47241W        W19655  22.999   8.775   2.324
47242W        W19656  44.972  39.993   3.671
47243W        W19657  15.638  21.243  11.462
47244W        W19658  31.148  32.133  12.006
47245W        W19659  30.110   6.201   4.659
47246W        W19660   1.925  18.191  11.408
47247W        W19661   4.414   6.862   1.416
47248W        W19662  22.573  16.175  11.577
47249W        W19663   5.212  13.673  11.892
47250W        W19664  41.856  39.029  11.080
47251W        W19665   5.318  28.490   3.159
47252W        W19666  32.119  21.642   4.161
47253W        W19667  12.246  30.633  11.413
47254W        W19668   5.751  28.173   1.749
47255W        W19669  26.574   6.847   0.373
47256W        W19670   0.972  23.155  14.796
47257W        W19671  27.517   7.240  10.409
47258W        W19672  42.776   2.826   3.847
47259W        W19673  13.289  40.433   2.734
47260W        W19674   3.368   7.857   0.741
47261W        W19675   2.749  31.521   4.786
47262W        W19676   0.396  36.848  13.342
47263W        W19677  41.013  38.386   1.283
47264W        W19678  42.466  14.691   0.356
47265W        W19679  29.509  29.137   2.734
47266W        W19680   4.705  10.773   1.216
47267W        W19681  27.065   1.418  12.374
47268W        W19682  38.896  18.130   5.097
47269W        W19683  10.809   0.981   0.402
47270W        W19684  30.938   0.318  11.121
47271W        W19685  15.582  33.919   2.716
47272W        W19686  21.224  17.161  11.938
47273W        W19687  35.087  38.910   1.933
47274W        W19688  41.021   0.431   0.435
47275W        W19689  36.472   2.764   3.342
47276W        W19690  26.523  41.383   3.152
47277W        W19691  36.983  41.375   2.341
47278W        W19692  28.494  31.903   0.737
47279W        W19693  33.108  43.995   2.682
47280W        W19694  20.250  23.513  12.400
47281W        W19695  23.239  17.635  11.096
47282W        W19696  26.130  42.898  10.016
47283W        W19697  30.006  30.454  12.564
47284W        W19698   4.774  12.196  14.489
47285W        W19699  34.378   8.169  13.329
47286W        W19700  39.021  33.445   9.634
47287W        W19701   0.448   6.267  12.488
47288W        W19702  21.581  42.302  11.491
47289W        W19703  30.435  38.427  14.914
47290W        W19704   4.313  24.085  12.998
47291W        W19705  35.020  35.458   0.405
47292W        W19706  29.978   4.804  14.019
47293W        W19707   8.315  14.339  14.489
47294W        W19708  43.346  10.770  13.454
47295W        W19709  42.514   2.815   0.274
47296W        W19710   1.880  38.389   3.700
47297W        W19711  13.806   8.698   3.684
47298W        W19712  11.263   4.933  13.509
47299W        W19713  25.632   3.426   3.260
47300W        W19714  43.902  24.593  11.073
47301W        W19715  32.893  13.140   1.325
47302W        W19716  33.078  31.998   3.784
47303W        W19717  10.797  18.149   2.315
47304W        W19718  43.330  23.560   0.468
47305W        W19719  29.643  16.101   1.434
47306W        W19720  31.970  11.750   4.290
47307W        W19721  19.643  22.536   0.736
47308W        W19722   4.934  12.210   1.280
47309W        W19723  42.333  42.805   1.220
47310W        W19724   7.864  44.778   1.345
47311W        W19725  28.138   0.485  13.492
47312W        W19726  29.667  27.989  11.054
47313W        W19727  34.962  37.079  11.477
47314W        W19728  12.306  11.205   2.799
47315W        W19729  30.963  37.416  11.505
47316W        W19730   6.318  40.343  14.803
47317W        W19731  36.016  12.257  14.456
47318W        W19732  10.223  33.974   2.897
47319W        W19733  25.086  39.969  10.528
47320W        W19734  13.278   6.710  11.466
47321W        W19735  30.073  13.303   3.180
47322W        W19736  27.101   8.233   1.843
47323W        W19737  30.040  31.528  12.957
47324W        W19738   5.350  20.134  13.327
47325W        W19739  32.555  18.675   2.710
47326W        W19740  15.288  17.701  11.557
47327W        W19741  28.159   4.243   4.801
47328W        W19742  25.029  28.575   3.710
47329W        W19743  15.219   0.451   0.337
47330W        W19744  40.451  18.593   4.172
47331W        W19745  16.803  40.815  13.893
47332W        W19746  25.469   8.348  13.356
47333W        W19747  41.366  11.631   2.864
47334W        W19748   3.423  28.515  14.832
47335W        W19749   4.391  19.162  14.395
47336W        W19750  25.139  44.756  11.931
47337W        W19751  21.194  27.645   4.340
47338W        W19752  19.539  18.749   3.649
47339W        W19753  10.845  41.860   2.238
47340W        W19754  36.455  31.579  13.894
47341W        W19755  34.035  11.318   1.331
47342W        W19756  20.210   7.847  13.469
47343W        W19757  30.594   2.240  10.903
47344W        W19758  33.057  23.522  13.948
47345W        W19759  13.722  19.099   4.764
47346W        W19760  30.413  12.300   2.683
47347W        W19761   3.274   9.363   1.842
47348W        W19762  13.831  14.320   0.358
47349W        W19763   2.867  30.082   2.751
47350W        W19764   6.257  34.880   2.713
47351W        W19765  29.490  36.398  12.841
47352W        W19766  42.365  16.085  11.926
47353W        W19767   7.738  24.711  13.959
47354W        W19768  24.032  27.534   4.228
47355W        W19769  29.963  32.496   2.276
47356W        W19770  11.132  43.977   2.236
47357W        W19771   7.797  40.390   1.788
47358W        W19772  25.532   0.857  13.524
47359W        W19773  35.554  33.995  14.433
47360W        W19774  22.092   5.931   4.235
47361W        W19775  27.507  34.991  10.605
47362W        W19776  24.016   5.717  11.612
47363W        W19777  14.160   6.879   2.855
47364W        W19778  37.557  22.026  13.529
47365W        W19779   4.794   9.186  11.085
47366W        W19780  44.497  16.136  10.418
47367W        W19781  17.589  29.565   0.801
47368W        W19782   5.220   0.777  11.463
47369W        W19783  43.868  36.574  10.419
47370W        W19784  14.803   5.259  11.494
47371W        W19785  14.678  17.145  11.576
47372W        W19786  13.266  43.385   4.315
47373W        W19787  19.220  42.946  12.528
47374W        W19788  35.046  15.728  13.799
47375W        W19789  27.097  13.825   0.731
47376W        W19790  34.981  10.331  10.101
47377W        W19791  21.607  30.430  13.401
47378W        W19792  10.841   0.774   1.774
47379W        W19793  41.835  20.607  13.820
47380W        W19794  14.292   1.836  13.333
47381W        W19795  22.582   7.301  11.893
47382W        W19796   2.857  31.457  10.939
47383W        W19797  29.933  43.954  12.066
47384W        W19798  30.570  20.184  12.504
47385W        W19799  15.807   1.876   0.394
47386W        W19800  36.388  29.435   2.793
47387W        W19801  42.796  15.664  13.310
47388W        W19802  42.296  33.005   0.450
47389W        W19803   6.873  22.064   3.240
47390W        W19804  25.496  42.788  13.486
47391W        W19805  31.467   4.412   1.803
47392W        W19806  38.546  44.504   4.155
47393W        W19807   2.416  27.953   4.238
47394W        W19808  42.354   0.308   2.726
47395W        W19809  35.360  16.594  14.381
47396W        W19810  39.847   6.230  10.888
47397W        W19811  24.531  32.572  12.573
47398W        W19812  26.184  22.010  12.463
47399W        W19813  30.034  33.446  12.407
47400W        W19814  33.435  26.674  13.539
47401W        W19815  12.286  19.735   3.814
47402W        W19816  22.016   3.425   2.868
47403W        W19817  11.766  41.478   0.288
47404W        W19818  14.651  13.778   0.378
47405W        W19819  22.539   2.942  11.027
47406W        W19820  10.693  35.027   3.377
47407W        W19821  13.741   2.310   3.834
47408W        W19822   5.392  15.095  13.849
47409W        W19823  31.059  17.071  14.770
47410W        W19824  36.394  19.669   5.132
47411W        W19825  25.006   3.821   4.129
47412W        W19826  27.492  14.821  14.303
47413W        W19827  19.203   3.747   4.822
47414W        W19828  10.674   2.460   4.268
47415W        W19829   6.709  18.646  13.394
47416W        W19830  12.212  42.280   0.466
47417W        W19831  44.481  10.846   1.239
47418W        W19832  28.480  31.463  12.450
47419W        W19833   7.186   6.253   4.245
47420W        W19834   3.854  38.536   4.290
47421W        W19835  37.041  43.929  14.875
47422W        W19836  40.922  33.432   0.929
47423W        W19837  12.822   5.250  12.826
47424W        W19838   2.918  36.585  14.927
47425W        W19839  26.960  42.388   0.864
47426W        W19840  32.986  16.708  11.453
47427W        W19841   7.711   2.351   0.324
47428W        W19842   2.250  15.253  12.402
47429W        W19843  37.871  33.479  14.993
47430W        W19844  16.127  22.690   2.741
47431W        W19845  11.363   4.384  10.621
47432W        W19846  44.473   0.469  10.508
47433W        W19847  39.897  26.598  11.425
47434W        W19848  43.994  28.551   2.714
47435W        W19849   3.946  42.323  10.089
47436W        W19850   0.281  27.530   0.352
47437W        W19851  25.700  30.649  10.958
47438W        W19852  29.597   7.206   4.215
47439W        W19853  37.551  37.985  10.473
47440W        W19854  26.558  16.140  12.531
47441W        W19855  35.590   4.431   4.818
47442W        W19856  15.658   1.448  14.383
47443W        W19857  19.674  37.425   1.759
47444W        W19858  13.185  43.827   2.855
47445W        W19859   2.383   6.839   4.762
47446W        W19860  33.959   8.726  11.052
47447W        W19861  24.598  12.856  10.973
47448W        W19862   4.213   4.426   1.862
47449W        W19863  18.219  14.659  14.424
47450W        W19864   6.268  42.032  14.352
47451W        W19865  15.310  41.409  11.111
47452W        W19866  20.251  27.458  12.475
47453W        W19867  18.750  21.660   2.314
47454W        W19868   7.198  18.089   0.867
47455W        W19869   1.860  34.949  10.491
47456W        W19870   1.482  11.732   3.697
47457W        W19871  32.531   0.792   4.634
47458W        W19872  22.093   5.337  11.441
47459W        W19873  15.769  33.007  12.544
47460W        W19874  19.201   4.873  10.406
47461W        W19875  44.308  17.142  13.894
47462W        W19876   0.420  44.803   0.242
47463W        W19877  33.542  25.713  14.357
47464W        W19878  21.712  31.505   4.281
47465W        W19879   9.805  30.635  12.387
47466W        W19880   9.332  34.400  14.290
47467W        W19881  25.607   2.917   0.445
47468W        W19882   4.227  14.794  13.404
47469W        W19883  40.818  42.998  11.528
47470W        W19884  25.122  15.636   4.277
47471W        W19885  33.421  33.094   3.640
47472W        W19886   0.864   7.358  13.477
47473W        W19887  31.991   4.882  10.579
47474W        W19888  32.018   7.777  11.531
47475W        W19889   8.776  14.601  12.373
47476W        W19890  11.694  43.875   1.786
47477W        W19891   4.374   5.726  13.869
47478W        W19892  35.898  37.388   1.736
47479W        W19893  12.742   3.887   0.463
47480W        W19894  42.952  44.324   3.797
47481W        W19895  21.214  24.016   0.861
47482W        W19896  39.872  15.659  13.500
47483W        W19897  37.503   8.169   3.355
47484W        W19898  19.561   3.803   0.835
47485W        W19899  33.530  33.958  13.336
47486W        W19900  24.701  14.335   2.362
47487W        W19901  11.274  12.152   1.694
47488W        W19902  32.448  41.459   2.201
47489W        W19903  21.137   1.870  10.551
47490W        W19904   5.260  19.534  11.042
47491W        W19905  15.649  20.152   9.527
47492W        W19906  25.071  25.573   3.835
47493W        W19907   0.821  14.683  12.438
47494W        W19908  10.381  31.037   4.238
47495W        W19909  28.639  35.082  11.128
47496W        W19910  21.252  16.786   3.848
47497W        W19911  22.182  37.418  12.998
47498W        W19912   6.346   2.399   4.692
47499W        W19913   9.286  13.272  11.905
47500W        W19914  27.532  24.032  11.597
47501W        W19915  15.119   7.831   0.327
47502W        W19916  31.461  24.123  12.572
47503W        W19917  43.823  44.835  10.969
47504W        W19918  31.528  38.541   4.828
47505W        W19919  18.227  32.988   0.735
47506W        W19920  21.675  31.121   0.807
47507W        W19921   0.259  12.790   1.898
47508W        W19922  31.645  44.966   0.733
47509W        W19923  24.230  35.390  12.453
47510W        W19924  29.557  19.544   4.799
47511W        W19925   8.341  44.916   4.611
47512W        W19926  19.538   0.368   1.771
47513W        W19927  39.366  14.672   4.674
47514W        W19928  12.173   4.399  10.571
47515W        W19929  29.512  23.217   3.367
47516W        W19930   0.922  11.829   0.457
47517W        W19931  28.183  28.500   3.300
47518W        W19932  37.389  31.021   0.467
47519W        W19933  21.614  43.375  12.409
47520W        W19934  39.351   2.810   4.167
47521W        W19935  35.033   5.803   3.248
47522W        W19936  11.623  18.101   1.369
47523W        W19937  19.546  35.548  10.407
47524W        W19938   8.712   4.827   0.298
47525W        W19939  16.615  19.089   1.324
47526W        W19940  28.945  25.018  10.437
47527W        W19941  26.633  27.622   4.638
47528W        W19942  10.632  19.182   2.810
47529W        W19943  40.515   1.762   1.371
47530W        W19944  34.950   8.710  11.892
47531W        W19945  12.842  20.569  13.001
47532W        W19946   1.977  39.469   3.238
47533W        W19947  15.184  32.507   0.290
47534W        W19948  23.022  17.169  12.929
47535W        W19949  29.636  21.180  13.793
47536W        W19950  20.059  35.912   4.302
47537W        W19951  17.567   7.853  14.464
47538W        W19952  35.440  39.490   2.725
47539W        W19953  44.336  43.294   3.324
47540W        W19954  12.808  39.935  11.003
47541W        W19955   4.235  16.246  12.928
47542W        W19956  35.473   1.364   0.438
47543W        W19957  34.960  31.998   5.096
47544W        W19958  40.904   1.917  10.950
47545W        W19959  44.335  31.021   3.653
47546W        W19960  25.152  30.940   2.826
47547W        W19961  37.046   3.838  11.522
47548W        W19962   1.254  19.770  12.054
47549W        W19963  24.054  17.169  13.474
47550W        W19964  31.065  23.025   3.267
47551W        W19965  19.641  39.468  14.000
47552W        W19966   7.836  37.849  11.545
47553W        W19967  39.941   8.277  10.529
47554W        W19968   9.183  25.115   4.186
47555W        W19969  41.437  29.536   1.779
47556W        W19970  18.277   8.780   2.705
47557W        W19971  21.201  17.306  13.058
47558W        W19972  14.202   1.405   2.678
47559W        W19973  15.174  29.953   2.666
47560W        W19974  37.046  17.609  14.773
47561W        W19975  28.467  19.678  10.437
47562W        W19976   0.353  36.423  13.978
47563W        W19977   9.341  12.853   2.413
47564W        W19978  41.974   8.370  13.040
47565W        W19979  24.098  11.817  13.849
47566W        W19980  24.983  39.367   4.343
47567W        W19981   0.462  41.957  14.376
47568W        W19982  21.587  20.767  12.341
47569W        W19983  44.901  40.492  14.920
47570W        W19984  44.008   9.775  14.820
47571W        W19985  15.202   1.470   3.307
47572W        W19986   4.713   1.880  11.018
47573W        W19987   7.264  43.974  12.949
47574W        W19988  39.408  24.504  14.370
47575W        W19989  26.065  37.569   1.931
47576W        W19990  21.206  22.738  13.353
47577W        W19991   3.819  33.521   5.238
47578W        W19992  24.724  39.981  13.958
47579W        W19993  40.504  34.894   1.696
47580W        W19994  13.175  17.260   0.248
47581W        W19995  16.721   6.874  13.984
47582W        W19996   6.704  37.838   0.318
47583W        W19997   0.843  35.966  12.372
47584W        W19998  12.626  43.011  13.437
47585W        W19999   4.390  23.001   2.313
47586W        W20000  38.331   4.708  12.377
47587W        W20001  35.440  44.929  13.870
47588W        W20002  31.589  33.396   3.677
47589W        W20003  20.763  11.712  12.917
47590W        W20004   2.776  25.553   1.793
47591W        W20005   5.830  26.655   4.668
47592W        W20006   6.923  15.698  14.505
47593W        W20007   4.853  23.650   4.303
47594W        W20008  27.467  36.859  11.559
47595W        W20009   0.807  40.938  10.960
47596W        W20010  42.894  32.031   4.601
47597W        W20011  27.651   6.759   1.703
47598W        W20012  14.217   8.772  12.996
47599W        W20013   1.297  20.035   4.807
47600W        W20014  23.133  27.152   3.192
47601W        W20015  36.018  27.171  14.769
47602W        W20016  39.335  42.281   2.239
47603W        W20017  10.363  24.041   0.358
47604W        W20018  20.227  37.048   4.320
47605W        W20019  42.355  36.870  11.045
47606W        W20020  25.216  32.419   3.147
47607W        W20021  32.131  43.984  12.046
47608W        W20022  27.574  34.964   2.272
47609W        W20023  27.113   3.387  11.010
47610W        W20024  21.650  40.337  11.863
47611W        W20025   7.180  13.773  12.369
47612W        W20026  28.129  20.063  13.942
47613W        W20027  13.223   2.928  12.405
47614W        W20028  23.115   7.368  13.983
47615W        W20029  14.614  32.987   4.124
47616W        W20030  14.160  14.661  12.922
47617W        W20031  18.229   5.706   4.262
47618W        W20032  39.529  27.526  11.085
47619W        W20033   9.859   5.345   4.804
47620W        W20034  32.940  39.495  12.519
47621W        W20035   3.392   1.754  11.460
47622W        W20036   7.885   1.740   4.818
47623W        W20037  39.464   1.350   0.796
47624W        W20038  41.961   0.903  11.508
47625W        W20039   3.936  23.166   2.189
47626W        W20040  35.953   6.884   3.264
47627W        W20041  24.722  30.961   4.628
47628W        W20042  42.485  31.505  12.575
47629W        W20043  28.066  43.875   4.718
47630W        W20044  12.721   0.403  14.274
47631W        W20045  32.005  11.226  13.987
47632W        W20046  34.524  33.590  14.829
47633W        W20047  38.487  43.467  12.407
47634W        W20048  14.705  18.596  14.508
47635W        W20049  17.119  18.116   0.336
47636W        W20050   5.376  42.853   4.697
47637W        W20051  33.898  18.259  10.617
47638W        W20052  44.943  29.423  13.838
47639W        W20053  38.460  27.508  11.423
47640W        W20054   5.198   6.864  14.943
47641W        W20055  38.981   6.323  13.506
47642W        W20056  29.006  20.606  12.031
47643W        W20057  34.589   6.353   4.719
47644W        W20058  18.127  24.546   4.699
47645W        W20059  10.322  40.052  11.937
47646W        W20060  35.025   1.426   3.837
47647W        W20061   6.866  29.495  13.415
47648W        W20062  34.417  34.545   4.267
47649W        W20063  37.556  28.075   2.790
47650W        W20064   0.442  23.142  11.430
47651W        W20065  43.795  20.620   3.652
47652W        W20066   3.378  28.566   2.812
47653W        W20067  44.401  27.037   1.438
47654W        W20068  13.221  24.534  12.888
47655W        W20069  41.794  33.944   2.902
47656W        W20070  21.686  41.818   1.296
47657W        W20071  27.145  33.422  11.394
47658W        W20072  13.825  28.940   1.929
47659W        W20073  14.676  30.583   1.448
47660W        W20074  37.980   1.830  10.423
47661W        W20075  21.233  18.124  11.534
47662W        W20076  16.159  13.305   0.379
47663W        W20077  17.139  19.140  10.092
47664W        W20078  30.152   0.786   2.834
47665W        W20079  28.604   4.436  14.978
47666W        W20080  13.115  19.597  12.885
47667W        W20081  19.279  29.498  13.971
47668W        W20082  38.069  34.460   1.228
47669W        W20083   5.758  18.176  14.297
47670W        W20084  33.484  44.476  11.435
47671W        W20085  26.076  14.257  13.842
47672W        W20086   3.316  29.573   1.397
47673W        W20087  36.976  42.461   0.243
47674W        W20088  31.941  40.798   0.346
47675W        W20089  28.517  22.721  14.414
47676W        W20090  23.634   2.929  12.996
47677W        W20091   8.240   0.932  14.328
47678W        W20092  40.401  39.967   1.320
47679W        W20093  10.779  21.067   0.475
47680W        W20094  17.223   6.361  12.953
47681W        W20095  35.032  36.501   4.626
47682W        W20096  31.129  32.488  12.030
47683W        W20097   2.962   6.296  11.410
47684W        W20098  11.138  40.828  14.441
47685W        W20099   1.947  33.011  11.937
47686W        W20100  21.143  13.340  14.828
47687W        W20101  43.971  17.707  13.970
47688W        W20102   9.830  35.933   0.291
47689W        W20103  23.237  44.757   5.308
47690W        W20104  43.821   1.335   1.332
47691W        W20105  28.505  25.159   0.775
47692W        W20106   0.774  36.462   2.838
47693W        W20107  31.970  13.823   4.283
47694W        W20108  42.362  14.133  13.315
47695W        W20109  30.477  30.643  13.499
47696W        W20110  28.515   5.248   2.201
47697W        W20111  15.589  10.141   4.690
47698W        W20112  15.721  17.778   1.277
47699W        W20113  14.721   6.386  12.534
47700W        W20114   0.477  23.062   0.375
47701W        W20115  24.139   8.168  11.937
47702W        W20116  24.001  30.501  12.086
47703W        W20117   2.437  21.216  12.866
47704W        W20118  43.812   0.882  10.628
47705W        W20119  19.591  33.484  12.982
47706W        W20120  38.933   7.750  13.045
47707W        W20121  30.087  37.041  11.493
47708W        W20122  39.984  23.990  14.007
47709W        W20123  18.774  15.171  11.096
47710W        W20124  41.304  39.910  11.580
47711W        W20125  26.085  22.696  13.520
47712W        W20126  36.982  28.623   1.315
47713W        W20127  11.825  11.301  13.344
47714W        W20128   1.948  32.039  14.321
47715W        W20129  40.445  38.485  13.905
47716W        W20130  10.767  25.053  13.835
47717W        W20131  18.669  29.948  10.440
47718W        W20132   3.439  12.843   3.224
47719W        W20133  41.521  22.207   2.696
47720W        W20134  37.051   8.232   2.364
47721W        W20135  23.541  15.660  11.514
47722W        W20136   1.789   6.279  14.508
47723W        W20137  30.649  35.089   2.797
47724W        W20138  38.981  21.543  13.831
47725W        W20139  17.090  17.705  11.938
47726W        W20140  11.128  21.586   3.791
47727W        W20141  11.811  42.843  12.378
47728W        W20142  41.504   2.469  10.437
47729W        W20143  42.487  43.780  13.514
47730W        W20144  10.794   1.914   1.702
47731W        W20145   2.724  23.177   1.257
47732W        W20146   6.921  17.140   0.792
47733W        W20147  19.669  25.975   2.230
47734W        W20148  44.476  44.456   1.387
47735W        W20149  10.648  18.134  11.022
47736W        W20150  20.714  22.507   3.224
47737W        W20151   7.740  16.689   0.942
47738W        W20152  33.554   3.234  12.975
47739W        W20153   3.896  28.129   4.651
47740W        W20154   8.358  14.160  10.557
47741W        W20155  21.258  16.075   0.283
47742W        W20156  41.358  43.835   2.721
47743W        W20157  29.971  10.327   1.436
47744W        W20158  41.939  37.845  11.986
47745W        W20159  38.039  44.292  14.354
47746W        W20160  34.869  25.632  12.829
47747W        W20161  37.558  20.071  13.337
47748W        W20162   8.334  38.524   4.716
47749W        W20163  42.470  28.941  14.495
47750W        W20164  28.128  36.522   3.186
47751W        W20165   4.319   0.466  14.357
47752W        W20166  31.428  34.473  10.521
47753W        W20167  19.600  37.465   4.599
47754W        W20168   7.185  34.448  12.523
47755W        W20169  36.079  23.236  14.445
47756W        W20170   1.297  21.174  10.999
47757W        W20171  21.706  34.109  11.486
47758W        W20172  23.208  16.180  11.097
47759W        W20173  36.931  36.860  12.892
47760W        W20174   8.257  39.314  14.024
47761W        W20175  42.333  30.927   2.807
47762W        W20176  27.195  19.171  11.571
47763W        W20177  38.850   6.239  11.450
47764W        W20178  36.570  41.814   0.430
47765W        W20179   5.899  23.659   1.328
47766W        W20180  29.012  17.287  11.585
47767W        W20181  43.996   9.223  11.941
47768W        W20182   8.168  34.591   0.940
47769W        W20183  42.489  26.110  11.982
47770W        W20184  18.580  25.488   1.234
47771W        W20185   9.229   7.327   0.941
47772W        W20186  44.329  18.744  10.608
47773W        W20187   8.842  11.837  13.888
47774W        W20188  32.885  12.776   2.887
47775W        W20189   1.833  12.633  13.794
47776W        W20190  43.333  32.607  13.804
47777W        W20191  16.109  19.126   2.199
47778W        W20192  40.852  16.203  10.478
47779W        W20193  35.380  34.429   4.272
47780W        W20194  14.100  14.716   0.785
47781W        W20195   7.417  33.403   4.224
47782W        W20196  40.537  13.322   1.878
47783W        W20197  16.078  33.977  12.036
47784W        W20198   6.868  24.189  10.625
47785W        W20199  38.328   2.828   4.268
47786W        W20200   8.304  38.494   1.223
47787W        W20201  17.105  36.586  12.881
47788W        W20202  30.469  23.505   1.300
47789W        W20203  33.050  31.647   1.425
47790W        W20204  30.013  12.294  11.875
47791W        W20205  36.535  27.491  14.919
47792W        W20206  29.504   1.832   2.849
47793W        W20207  13.318  25.594   3.671
47794W        W20208   7.783  37.841  11.060
47795W        W20209  11.858  20.713  14.925
47796W        W20210  29.963   8.299   4.157
47797W        W20211  27.024   5.908  14.928
47798W        W20212   0.253   2.412  12.005
47799W        W20213  18.084  22.014   4.147
47800W        W20214  16.090  11.823   1.365
47801W        W20215   0.448  27.107  13.844
47802W        W20216  29.560  24.212  13.996
47803W        W20217  29.495  42.441  11.019
47804W        W20218  35.538  42.428   1.321
47805W        W20219  15.257   1.314  14.877
47806W        W20220  19.270  32.940   0.729
47807W        W20221   2.351  22.996  10.490
47808W        W20222   0.987   6.331   4.248
47809W        W20223  28.444  40.809  10.893
47810W        W20224   2.939  21.755   4.770
47811W        W20225  16.154  37.566   4.611
47812W        W20226   0.371  42.965  13.402
47813W        W20227  25.488  33.920   0.433
47814W        W20228  29.433  42.444  14.002
47815W        W20229  16.316  28.140   3.229
47816W        W20230  36.349  21.743   2.341
47817W        W20231  18.559  26.093  10.941
47818W        W20232  14.109   7.171  12.416
47819W        W20233  16.270  38.846  13.799
47820W        W20234  42.441  12.247   4.345
47821W        W20235  38.328  23.127  12.930
47822W        W20236  11.769  23.994   4.242
47823W        W20237  32.033  35.433  13.927
47824W        W20238  36.000  35.454   0.317
47825W        W20239  33.967  19.209  12.392
47826W        W20240  39.027  42.285  11.559
47827W        W20241  25.048  23.068  12.392
47828W        W20242  10.308  25.689  10.576
47829W        W20243  20.090  21.065   0.316
47830W        W20244  26.122  27.478  13.407
47831W        W20245  38.057   0.870   3.746
47832W        W20246  39.023  17.570  11.549
47833W        W20247  12.282  13.618  10.998
47834W        W20248  35.855  38.383   3.640
47835W        W20249  16.117   3.377   1.772
47836W        W20250  31.092  38.823   0.762
47837W        W20251  21.623  25.534   3.183
47838W        W20252  42.829  23.082  10.482
47839W        W20253  42.492  38.055   2.722
47840W        W20254  24.614  33.549  14.915
47841W        W20255  21.532  43.329  14.882
47842W        W20256  36.930  16.255   4.828
47843W        W20257   2.957  41.512  11.569
47844W        W20258  18.609   5.728  12.077
47845W        W20259   0.892   9.302   0.837
47846W        W20260   4.843   9.221  13.363
47847W        W20261  19.272   9.683   0.858
47848W        W20262  40.381  16.157   1.823
47849W        W20263  43.839   2.232   4.696
47850W        W20264  35.405  25.071  10.497
47851W        W20265   4.938   5.712  12.461
47852W        W20266  15.613   0.948   0.933
47853W        W20267  34.959  15.189  12.050
47854W        W20268   2.453   8.375  11.391
47855W        W20269  13.824   6.327   4.735
47856W        W20270  26.480  41.860   3.321
47857W        W20271  26.686   8.823   3.759
47858W        W20272   6.760   0.793  11.934
47859W        W20273   9.336  43.838  12.356
47860W        W20274  26.133   6.309  13.852
47861W        W20275  38.544  21.674  14.998
47862W        W20276  20.215  11.841  14.792
47863W        W20277  28.461  23.603  11.536
47864W        W20278  42.956  23.679  11.443
47865W        W20279  41.392  21.204   1.385
47866W        W20280  38.008  37.024   1.449
47867W        W20281  31.934   8.829  13.360
47868W        W20282  33.491  43.462  13.039
47869W        W20283   8.712   2.763   3.360
47870W        W20284  22.517  29.544   1.844
47871W        W20285  22.603  26.674   1.771
47872W        W20286  15.085  21.702  12.531
47873W        W20287  41.968  44.767  11.590
47874W        W20288  24.532  42.906   3.162
47875W        W20289  20.094  28.968  14.823
47876W        W20290  40.003   9.671  12.437
47877W        W20291  25.687  26.460   3.792
47878W        W20292  27.685   0.413  10.624
47879W        W20293  23.111   1.903   0.801
47880W        W20294  13.832   3.956  13.796
47881W        W20295   0.376  32.998   0.923
47882W        W20296   6.916   4.870   3.214
47883W        W20297  14.214  37.910  13.427
47884W        W20298  13.669   5.277   0.406
47885W        W20299  18.634  44.765   5.187
47886W        W20300  37.951   0.904  14.298
47887W        W20301  30.034   1.786   1.338
47888W        W20302  30.923  18.140   2.382
47889W        W20303  11.683  20.554   3.635
47890W        W20304   2.423  36.510   4.731
47891W        W20305  19.186  14.246  12.877
47892W        W20306   9.677  32.405   0.965
47893W        W20307  35.921  21.061   4.600
47894W        W20308  16.799   6.425  11.945
47895W        W20309  13.345   0.742   0.357
47896W        W20310  20.751  34.595  14.447
47897W        W20311  36.974  32.394  14.886
47898W        W20312  34.438  41.482   0.874
47899W        W20313  43.512  20.568   2.741
47900W        W20314  38.532  39.999   2.367
47901W        W20315   6.354  34.872  12.079
47902W        W20316  11.730  35.107  11.918
47903W        W20317  42.392  26.208   3.378
47904W        W20318   1.480   1.363  14.513
47905W        W20319   6.339  17.196  12.345
47906W        W20320  36.498  18.256   0.282
47907W        W20321  15.267  21.714  13.481
47908W        W20322  11.134  34.377   1.223
47909W        W20323  38.002  40.349  10.963
47910W        W20324  22.532  35.995   4.257
47911W        W20325  24.223  13.172   0.964
47912W        W20326  35.492  34.003  14.949
47913W        W20327  34.978  30.525  11.104
47914W        W20328  21.529  32.637   3.669
47915W        W20329   7.399  17.207   0.469
47916W        W20330  41.438  22.168   0.920
47917W        W20331  10.339  33.546  14.867
47918W        W20332   2.788  13.715   0.798
47919W        W20333  11.804   4.353  12.094
47920W        W20334  15.665  20.210   3.223
47921W        W20335   9.762  14.633  12.883
47922W        W20336  17.264  27.680   4.763
47923W        W20337  42.848  32.509   0.277
47924W        W20338  43.007   8.277   2.800
47925W        W20339  21.096  41.397  12.031
47926W        W20340  24.159  14.774   0.251
47927W        W20341  24.196  38.062  13.398
47928W        W20342  31.918  25.043   3.750
47929W        W20343  20.611  40.805   2.779
47930W        W20344  13.282  15.209   1.375
47931W        W20345  11.144  20.712  10.532
47932W        W20346  17.639   2.787   0.426
47933W        W20347  22.199   8.172   1.746
47934W        W20348   6.274   7.347  13.012
47935W        W20349   3.264  44.281  11.486
47936W        W20350   4.428  26.702  12.466
47937W        W20351  13.193   8.169   3.330
47938W        W20352   5.418  42.504   2.315
47939W        W20353  31.011  11.840  12.571
47940W        W20354   3.913  11.186  13.357
47941W        W20355  24.085  15.612  11.026
47942W        W20356  11.631  20.272  11.473
47943W        W20357  37.900  12.831  10.540
47944W        W20358   6.866   8.356   4.800
47945W        W20359  27.456  38.347  10.973
47946W        W20360  13.769  30.984   1.698
47947W        W20361   1.272  40.042  10.596
47948W        W20362  30.128  28.633  14.377
47949W        W20363  19.619  28.456  14.391
47950W        W20364  27.612  38.504   4.813
47951W        W20365  43.458  35.395   1.717
47952W        W20366  12.226  25.980  13.444
47953W        W20367  34.890  20.134   3.724
47954W        W20368  17.731  24.602   3.271
47955W        W20369  43.776   7.821  10.471
47956W        W20370  35.406   9.308  14.763
47957W        W20371  18.132  26.096   0.296
47958W        W20372  43.914   1.447   4.829
47959W        W20373  38.359  16.724   2.886
47960W        W20374  14.154  10.284   4.282
47961W        W20375  25.204  19.670  10.540
47962W        W20376  15.141   0.889   2.850
47963W        W20377   4.321  32.996  10.522
47964W        W20378   8.245   9.259  13.349
47965W        W20379   4.929  13.776  10.491
47966W        W20380  25.983  25.539   1.831
47967W        W20381  25.999  13.773   0.901
47968W        W20382  17.667  39.831  10.952
47969W        W20383  35.954   1.878  13.912
47970W        W20384  44.905  35.082  13.317
47971W        W20385   3.938  41.848  12.877
47972W        W20386  35.915  29.651  14.485
47973W        W20387  33.094  38.520  11.550
47974W        W20388  18.695   0.858  12.888
47975W        W20389  16.160   7.870   1.317
47976W        W20390  41.301  43.413  12.882
47977W        W20391  34.091  17.233  14.310
47978W        W20392  19.143  30.071   0.287
47979W        W20393  39.440  18.100  11.857
47980W        W20394  42.396  41.413   3.277
47981W        W20395   2.366  33.086  12.342
47982W        W20396  40.907  20.227  13.462
47983W        W20397   7.882  42.847  11.495
47984W        W20398  13.736  34.514  14.812
47985W        W20399  13.191   2.760  11.968
47986W        W20400  31.907  19.646   4.271
47987W        W20401  27.125  41.350   2.335
47988W        W20402  38.825  36.948  13.437
47989W        W20403   3.241   0.862   4.800
47990W        W20404  33.007   7.211  14.454
47991W        W20405  23.107  19.717   3.718
47992W        W20406  19.557  35.993   2.314
47993W        W20407  44.849   9.720   1.764
47994W        W20408   9.272  26.989  10.504
47995W        W20409   7.407  25.484  11.967
47996W        W20410  38.994  35.928   0.787
47997W        W20411   2.278  16.245  14.877
47998W        W20412  39.536  40.973  11.922
47999W        W20413  33.046  12.636  11.502
48000W        W20414   2.456  19.088   1.861
48001W        W20415  42.848  42.911   4.709
48002W        W20416  42.023  27.042  12.501
48003W        W20417  29.638  18.577  13.841
48004W        W20418  35.591  34.010  10.899
48005W        W20419  19.194  18.226   1.353
48006W        W20420  10.672  40.474   2.243
48007W        W20421  33.541   7.745   0.913
48008W        W20422  35.427  37.934   1.295
48009W        W20423   5.931  42.873  13.441
48010W        W20424  21.060  23.147  12.465
48011W        W20425  10.307  12.703  14.017
48012W        W20426  10.261  27.124  13.407
48013W        W20427  39.434  27.022   4.220
48014W        W20428  37.060  19.620  14.857
48015W        W20429  33.089  10.635  13.385
48016W        W20430  23.072  18.229   3.787
48017W        W20431  18.082  43.349   3.324
48018W        W20432   6.373  31.013   3.638
48019W        W20433  22.102   2.276  13.896
48020W        W20434  23.140  27.627  12.340
48021W        W20435  35.510  12.279   3.854
48022W        W20436  17.642   0.492   9.540
48023W        W20437  44.840  34.508  10.631
48024W        W20438  30.004  29.447   1.762
48025W        W20439  26.608   6.783   1.258
48026W        W20440   1.289  33.103   0.939
48027W        W20441  36.370   7.270  11.965
48028W        W20442  31.613   3.276  10.603
48029W        W20443  13.778  20.183   5.765
48030W        W20444  10.369  20.700  13.381
48031W        W20445  10.714   8.245  14.922
48032W        W20446   4.444  37.479  10.618
48033W        W20447   1.922  28.164   5.093
48034W        W20448   4.786  12.141  10.912
48035W        W20449   2.734  25.638   0.420
48036W        W20450  18.671  35.939   2.265
48037W        W20451   5.760   4.882  10.981
48038W        W20452   2.435  30.129   3.773
48039W        W20453  36.862  19.101  11.478
48040W        W20454  35.517  41.869  13.377
48041W        W20455  37.057  24.001  11.881
48042W        W20456  43.905  42.013   4.747
48043W        W20457  17.685   9.773  11.499
48044W        W20458   9.312  10.773   1.890
48045W        W20459  14.699   3.794  11.988
48046W        W20460  33.551  19.744  13.400
48047W        W20461  33.917  19.756  11.950
48048W        W20462  32.510   8.800  10.517
48049W        W20463  18.254   9.808   3.203
48050W        W20464  22.702  15.122  11.951
48051W        W20465  34.402  21.073   2.377
48052W        W20466  34.056  34.389  14.912
48053W        W20467   3.840  17.307  12.962
48054W        W20468  41.792   1.786  11.935
48055W        W20469  15.276  32.472  13.384
48056W        W20470   4.698  21.754  11.880
48057W        W20471  34.452  33.555  14.461
48058W        W20472  29.485  36.398   0.267
48059W        W20473  29.063  28.545  11.946
48060W        W20474   3.916  42.372   5.174
48061W        W20475   4.314  17.754  14.812
48062W        W20476   8.663  15.094  13.960
48063W        W20477  38.506  28.979  11.495
48064W        W20478  40.812  24.699  11.120
48065W        W20479  28.123  18.688  14.327
48066W        W20480  18.581  24.169  11.479
48067W        W20481  24.552  44.808   0.361
48068W        W20482  25.575   1.817   0.912
48069W        W20483   0.434  34.058  13.856
48070W        W20484  37.887  25.160   0.785
48071W        W20485   7.888  31.446   4.162
48072W        W20486  24.606  10.815  10.553
48073W        W20487  35.467  18.633   3.165
48074W        W20488  43.993  31.133   2.832
48075W        W20489  30.986  23.039   1.801
48076W        W20490  27.568  34.582   2.686
48077W        W20491  15.820   8.248   3.849
48078W        W20492   8.179  33.441  13.522
48079W        W20493  11.641  24.150  11.560
48080W        W20494  21.210  40.401  10.414
48081W        W20495  26.148  42.798   0.476
48082W        W20496  43.884  32.923  10.976
48083W        W20497  43.929  10.789  13.356
48084W        W20498  35.406  19.569   0.329
48085W        W20499  22.209   1.924  13.351
48086W        W20500  22.068  11.212   4.328
48087W        W20501  19.055  32.494  13.383
48088W        W20502  33.895  13.340  12.848
48089W        W20503  12.839  30.498  11.856
48090W        W20504  31.468  12.835  14.936
48091W        W20505  31.517  19.719   4.151
48092W        W20506  34.459   9.649   4.188
48093W        W20507  43.915  39.433   3.799
48094W        W20508  35.055  21.090  13.862
48095W        W20509  22.504  21.036   5.197
48096W        W20510  18.106  31.108   4.147
48097W        W20511   7.766   9.711   4.715
48098W        W20512  20.616  42.501   4.344
48099W        W20513  24.483   0.806  10.597
48100W        W20514  38.440  42.378  11.466
48101W        W20515  17.623  20.626  11.947
48102W        W20516   0.258  16.191  14.964
48103W        W20517  28.138   7.326   2.894
48104W        W20518  28.936  30.547  12.465
48105W        W20519  43.790  37.391  14.990
48106W        W20520  15.653  13.700   2.210
48107W        W20521  28.095   3.223  10.961
48108W        W20522  40.831   1.830   3.358
48109W        W20523   5.892  34.083   1.863
48110W        W20524  13.668  24.625   2.700
48111W        W20525  41.969  18.727  10.617
48112W        W20526   2.405  31.520  11.447
48113W        W20527  14.778  21.165   4.801
48114W        W20528  11.834  35.393   1.418
48115W        W20529  26.533  24.713  11.009
48116W        W20530  23.635   0.928   2.664
48117W        W20531   7.774  30.447   4.720
48118W        W20532  43.384  30.020   0.820
48119W        W20533   6.383  18.569  11.517
48120W        W20534  18.115  30.114  13.941
48121W        W20535  18.196  13.171   0.825
48122W        W20536  42.009  38.354   3.282
48123W        W20537   1.871  16.202  11.567
48124W        W20538  16.159  28.025   0.312
48125W        W20539  27.192  41.862   2.389
48126W        W20540  24.985   2.327  10.447
48127W        W20541  41.919  37.541  10.464
48128W        W20542  38.899   5.303  12.447
48129W        W20543  16.174   7.268   3.784
48130W        W20544   1.473  18.247  11.376
48131W        W20545   5.342  24.641  11.380
48132W        W20546  21.526  17.654  11.455
48133W        W20547  12.285  37.084   0.927
48134W        W20548  26.545   3.814   2.212
48135W        W20549  16.146  23.699  11.902
48136W        W20550  35.360  21.688  11.587
48137W        W20551   0.286  25.137   0.260
48138W        W20552  25.967  23.561  12.908
48139W        W20553   5.892  25.489   4.316
48140W        W20554  14.774  35.965   5.082
48141W        W20555   0.979  22.742   1.320
48142W        W20556  43.805   9.159  11.578
48143W        W20557  26.661  39.346  10.641
48144W        W20558   5.364  29.658   1.255
48145W        W20559  29.428  14.282   0.964
48146W        W20560   3.731  41.437   0.731
48147W        W20561   1.973   5.360   0.745
48148W        W20562  28.009  24.007   3.228
48149W        W20563  43.774   2.231   0.825
48150W        W20564   1.295  20.247  14.944
48151W        W20565  14.197   7.706  10.615
48152W        W20566  18.129   7.710   0.442
48153W        W20567  24.200  29.663   3.846
48154W        W20568   3.734  43.856  13.542
48155W        W20569  25.468  38.464  13.017
48156W        W20570  11.256  20.226  10.939
48157W        W20571  11.253  24.980   1.233
48158W        W20572  11.737  11.168   4.829
48159W        W20573  15.257  43.912   3.367
48160W        W20574  10.712  35.493  14.354
48161W        W20575  30.962  27.685  10.630
48162W        W20576  41.996  21.597   0.306
48163W        W20577  43.988  30.079  11.026
48164W        W20578  16.649  11.240   3.653
48165W        W20579   9.881  16.727  14.855
48166W        W20580  19.223  15.709  11.031
48167W        W20581  21.030  15.241   2.312
48168W        W20582  29.151  44.934  14.306
48169W        W20583   4.755  35.944   5.210
48170W        W20584   1.372  20.756   1.346
48171W        W20585   2.340  15.269  10.973
48172W        W20586   0.809  44.264  11.472
48173W        W20587  43.412   5.788  11.452
48174W        W20588  32.567   4.347  13.978
48175W        W20589   8.174  24.643   3.288
48176W        W20590   3.348  28.957  14.419
48177W        W20591  30.550   9.235  11.404
48178W        W20592  11.185  14.114   4.148
48179W        W20593   8.380  27.563   3.343
48180W        W20594  37.856  39.390  14.984
48181W        W20595   8.162   4.408  12.922
48182W        W20596   3.815  19.703  10.403
48183W        W20597  10.160   8.678  11.949
48184W        W20598  36.539  30.419  10.892
48185W        W20599   7.278  26.086  10.574
48186W        W20600  35.429  16.732  14.896
48187W        W20601  40.434  35.023   4.685
48188W        W20602  30.556  34.517  14.443
48189W        W20603   3.298  19.224   4.727
48190W        W20604  27.048  25.132   1.339
48191W        W20605  26.487  38.329  11.074
48192W        W20606  15.170   3.437   1.697
48193W        W20607   4.913  30.122   2.224
48194W        W20608   0.919  42.862   5.264
48195W        W20609  22.570  25.505   3.162
48196W        W20610  18.577  34.048  11.473
48197W        W20611  30.130   0.928  13.354
48198W        W20612  44.843  14.749   0.297
48199W        W20613  24.672   7.840   1.443
48200W        W20614   4.280  40.460  11.067
48201W        W20615   2.255  24.228  11.455
48202W        W20616  26.095  10.260  14.936
48203W        W20617  11.680  33.382   3.160
48204W        W20618   2.836   9.769   3.704
48205W        W20619  27.598  10.229  13.330
48206W        W20620   2.747  26.058  13.960
48207W        W20621  22.181  28.104  13.880
48208W        W20622  41.382  36.943  12.560
48209W        W20623  18.563   2.753  10.950
48210W        W20624   5.779  21.060   4.614
48211W        W20625  33.504  30.974  13.016
48212W        W20626  26.666  23.225  11.537
48213W        W20627  16.095  34.913   2.686
48214W        W20628  20.733   4.738   1.382
48215W        W20629  10.281  43.784  11.055
48216W        W20630  18.680  27.458  12.953
48217W        W20631  25.702  21.259  11.525
48218W        W20632  15.587   6.714  12.935
48219W        W20633  38.856   3.827   3.353
48220W        W20634  43.940   7.790  13.543
48221W        W20635  27.689  39.457  13.819
48222W        W20636  11.225  21.135   2.353
48223W        W20637  13.240  27.666  11.977
48224W        W20638   3.800  30.485  10.585
48225W        W20639   6.299  28.575  13.404
48226W        W20640  26.533  14.336   1.329
48227W        W20641  21.636  29.561  11.869
48228W        W20642  31.115   4.346   2.764
48229W        W20643  23.112  19.541  10.950
48230W        W20644  33.539  21.075   0.745
48231W        W20645   7.886  16.294  13.833
48232W        W20646  18.697  13.779  13.948
48233W        W20647  17.779  26.501  12.350
48234W        W20648  23.570   1.792  12.353
48235W        W20649  23.501  37.447  12.544
48236W        W20650  26.692   9.644   0.913
48237W        W20651  30.078  11.242  13.914
48238W        W20652  43.908  37.356  14.474
48239W        W20653  28.621   3.946  10.895
48240W        W20654  12.339  22.165   1.797
48241W        W20655  38.020   8.806   5.319
48242W        W20656  19.272  43.950   0.773
48243W        W20657  13.702  27.625   1.430
48244W        W20658  33.939  42.973  11.009
48245W        W20659   7.857  19.687   3.185
48246W        W20660   2.877  33.908   3.291
48247W        W20661  37.366  36.421   2.679
48248W        W20662  13.293  27.060   4.313
48249W        W20663  20.249  37.416   1.291
48250W        W20664  30.551  44.400   2.227
48251W        W20665  25.477  26.011   3.345
48252W        W20666  33.928  14.597   1.267
48253W        W20667  33.554   7.880  14.968
48254W        W20668  21.100  20.523   0.769
48255W        W20669  33.620  15.305   1.422
48256W        W20670   3.872  16.099   2.756
48257W        W20671  18.091  33.461  13.374
48258W        W20672  30.435   0.885   4.635
48259W        W20673  15.725  36.409  14.852
48260W        W20674  22.699   1.920  12.968
48261W        W20675  25.159  10.704   4.313
48262W        W20676  17.152  35.093   2.245
48263W        W20677  11.855  27.166   2.686
48264W        W20678  38.057   4.804  14.436
48265W        W20679   1.971   6.286   1.377
48266W        W20680  33.898  13.817  14.889
48267W        W20681  37.560  34.988   2.822
48268W        W20682   1.278  41.010  13.038
48269W        W20683   3.297  39.504  11.583
48270W        W20684  37.563  12.281   2.762
48271W        W20685  12.207  12.214   2.775
48272W        W20686  15.680  35.449  14.462
48273W        W20687  43.828  35.584   4.214
48274W        W20688  38.963  34.433  12.977
48275W        W20689  24.144  14.312   5.148
48276W        W20690  26.456  36.431   2.372
48277W        W20691  42.435  43.987   4.300
48278W        W20692  30.611  40.508   1.852
48279W        W20693   6.726  34.108   1.408
48280W        W20694  31.463  29.446   0.291
48281W        W20695  13.725  41.990  14.330
48282W        W20696   9.798  12.739  14.422
48283W        W20697  24.693  41.327   0.858
48284W        W20698  14.147   1.359   4.260
48285W        W20699  34.466  36.978  13.365
48286W        W20700  29.086  34.874  12.393
48287W        W20701  42.874  13.316  14.460
48288W        W20702  14.140  29.026  12.080
48289W        W20703  14.166  32.475  12.829
48290W        W20704  24.502  15.648   5.669
48291W        W20705  36.560   6.891  10.950
48292W        W20706  21.597  15.103   1.823
48293W        W20707  18.742   4.285   2.242
48294W        W20708  15.187  24.041   1.360
48295W        W20709   6.709   1.763   2.896
48296W        W20710  17.758  33.517  11.882
48297W        W20711  13.814  40.413  12.948
48298W        W20712  29.629  26.065  14.940
48299W        W20713  41.381   3.888   3.821
48300W        W20714   4.436  36.849  14.992
48301W        W20715  29.513  23.604   2.418
48302W        W20716  20.271   0.257   0.762
48303W        W20717   9.871  33.416   1.273
48304W        W20718  34.101  25.080   1.399
48305W        W20719  42.915  38.909   3.264
48306W        W20720  15.188  10.357  12.039
48307W        W20721  22.516  22.142   4.671
48308W        W20722  41.397  42.462  13.803
48309W        W20723   5.928  12.273   4.134
48310W        W20724  19.283   1.387  11.400
48311W        W20725  21.251  16.626   1.380
48312W        W20726  10.342   9.223  11.858
48313W        W20727  28.025  36.354   1.735
48314W        W20728  17.706  40.952   3.808
48315W        W20729  39.353  39.014  12.015
48316W        W20730  34.023   1.778   1.299
48317W        W20731  33.507  35.979  12.009
48318W        W20732  23.240   5.688   4.177
48319W        W20733  16.164  35.060  10.641
48320W        W20734   9.858  24.996  13.403
48321W        W20735   8.883   9.709   0.909
48322W        W20736  26.682  30.997  14.817
48323W        W20737  15.709  23.571   1.804
48324W        W20738   2.460  44.384   9.941
48325W        W20739  28.447  42.867   0.865
48326W        W20740   1.843  15.098   2.355
48327W        W20741  11.629  29.110  10.044
48328W        W20742  36.849   3.444   2.769
48329W        W20743  31.901  35.982  11.903
48330W        W20744  31.413   1.878   2.841
48331W        W20745  42.029  32.114  14.465
48332W        W20746  17.667  24.224  12.348
48333W        W20747  14.217   6.923   3.849
48334W        W20748  41.997  18.218   0.745
48335W        W20749  18.124  33.420   3.327
48336W        W20750   3.364  38.005   1.345
48337W        W20751  15.760  32.116   2.842
48338W        W20752  17.611  30.969  11.949
48339W        W20753  16.568  34.439  13.850
48340W        W20754  37.972  10.269  10.510
48341W        W20755  14.213  22.058   0.370
48342W        W20756  24.984  18.667  14.422
48343W        W20757  18.135  10.263   4.701
48344W        W20758  16.175  15.235   4.643
48345W        W20759  11.243  28.675   0.422
48346W        W20760  34.567  15.217  14.490
48347W        W20761   4.942  37.376   5.136
48348W        W20762  31.570  22.746   3.735
48349W        W20763   7.672  16.605   1.768
48350W        W20764  13.254  36.973   0.275
48351W        W20765   4.944  16.773  12.970
48352W        W20766  37.059  17.192  10.562
48353W        W20767  22.139  36.403  14.788
48354W        W20768  10.826  32.107   2.178
48355W        W20769  39.063  37.939   1.322
48356W        W20770  36.944  11.743  13.966
48357W        W20771  14.650  38.994  10.497
48358W        W20772  33.999   1.314  12.046
48359W        W20773   9.288  32.065   2.682
48360W        W20774  32.513  30.507   0.789
48361W        W20775  44.368   9.180   3.857
48362W        W20776   8.892  36.990  12.343
48363W        W20777  25.197   8.896  10.105
48364W        W20778   6.861  15.184  11.903
48365W        W20779  40.366  17.742  14.278
48366W        W20780   1.742  33.538   3.854
48367W        W20781  13.608  28.641  14.977
48368W        W20782  31.518  11.854   2.218
48369W        W20783  37.928  37.884  12.417
48370W        W20784  28.010  43.360  13.479
48371W        W20785  28.015  26.182   2.672
48372W        W20786   4.349  24.707  13.053
48373W        W20787  42.907  36.532   2.868
48374W        W20788  10.353  42.380  14.371
48375W        W20789   3.756  10.350  11.564
48376W        W20790  32.889  12.184   0.756
48377W        W20791  20.720  29.121   0.455
48378W        W20792  39.531  34.958  11.401
48379W        W20793  13.186  19.737   5.305
48380W        W20794  27.635  31.576  13.917
48381W        W20795  29.093  41.873   1.797
48382W        W20796  40.347  10.831   2.313
48383W        W20797  12.834  41.946   3.739
48384W        W20798  10.683  28.938  11.959
48385W        W20799  32.096  26.209   4.729
48386W        W20800   7.293  18.621   2.202
48387W        W20801  20.072  38.376  12.393
48388W        W20802   3.307   9.686   0.849
48389W        W20803  13.811  35.459  11.901
48390W        W20804  37.508  38.892   1.874
48391W        W20805  43.926  43.498   1.344
48392W        W20806  29.453  41.293  12.962
48393W        W20807  24.107   6.788  14.338
48394W        W20808  16.802  26.185  13.881
48395W        W20809   9.872  29.987   2.872
48396W        W20810  28.444  29.134   4.700
48397W        W20811  35.459  12.707  12.543
48398W        W20812  39.450  40.500  13.870
48399W        W20813  16.229   7.691   3.249
48400W        W20814   2.753  36.860   1.352
48401W        W20815  24.636   6.857  11.879
48402W        W20816  24.052  42.820   3.748
48403W        W20817   9.298   2.766  10.485
48404W        W20818  27.005   0.448  12.831
48405W        W20819  40.054  21.218  14.471
48406W        W20820   5.690  17.193  11.946
48407W        W20821   2.893  40.427   2.666
48408W        W20822  15.689  38.888   1.243
48409W        W20823  21.733   4.853   4.176
48410W        W20824  20.651   7.758  13.791
48411W        W20825  29.094  32.486  14.818
48412W        W20826  43.972  27.197  10.435
48413W        W20827   7.312  40.964  12.409
48414W        W20828  38.836   8.766   2.869
48415W        W20829  13.260  20.701   2.207
48416W        W20830  28.465  27.460  12.469
48417W        W20831   1.770   1.470  14.957
48418W        W20832  40.884  27.587   0.383
48419W        W20833  22.574  25.095   9.996
48420W        W20834  23.206  18.151  12.094
48421W        W20835   9.828  40.032  12.093
48422W        W20836  37.337  23.573   2.871
48423W        W20837  27.114  26.574  11.600
48424W        W20838  22.038  22.534   0.801
48425W        W20839  21.592  10.151  12.425
48426W        W20840   0.372  18.089   3.187
48427W        W20841  39.830   1.893   0.398
48428W        W20842  19.765  32.007  10.043
48429W        W20843   6.256  17.285   4.749
48430W        W20844  38.964  20.074   1.780
48431W        W20845  24.539   2.962   2.751
48432W        W20846  22.145  20.156  14.437
48433W        W20847   8.225   2.885   2.303
48434W        W20848  27.533  36.496  14.843
48435W        W20849   2.338  25.659  11.972
48436W        W20850  17.612  21.190  13.383
48437W        W20851  22.123  18.706   4.118
48438W        W20852  29.464  25.670   0.451
48439W        W20853   6.395  15.733  13.350
48440W        W20854  27.663  44.904  11.540
48441W        W20855  21.151  40.520   1.351
48442W        W20856  28.674  41.786  14.019
48443W        W20857  23.633  36.854   3.838
48444W        W20858  27.020   1.894  14.347
48445W        W20859  44.844   2.944  11.010
48446W        W20860   4.316   1.851  13.885
48447W        W20861  43.816   0.796  12.399
48448W        W20862  12.818  25.711   1.774
48449W        W20863  33.411  44.469   1.431
48450W        W20864  32.979  19.282  10.591
48451W        W20865  15.787  18.624  13.991
48452W        W20866  15.679  21.019   2.354
48453W        W20867  14.193   9.155  12.544
48454W        W20868  34.908  29.919   2.403
48455W        W20869   3.424  44.945  13.344
48456W        W20870  19.091  43.308  13.899
48457W        W20871   4.451  22.672   3.387
48458W        W20872  20.114   7.208   2.695
48459W        W20873  43.319  19.711   5.223
48460W        W20874  32.143  38.047  12.519
48461W        W20875  35.520  36.942  13.883
48462W        W20876  39.875  40.963   3.812
48463W        W20877  24.504   2.753  13.063
48464W        W20878   9.348  19.555   5.241
48465W        W20879   4.234  42.974   1.784
48466W        W20880   3.853  27.674  13.840
48467W        W20881  25.708  13.754   4.163
48468W        W20882  10.657  44.427   4.656
48469W        W20883  18.184  19.064  12.035
48470W        W20884   4.760  40.431   5.570
48471W        W20885  32.613   6.799   3.375
48472W        W20886  34.378   5.398   0.963
48473W        W20887  16.140  27.180  11.077
48474W        W20888  19.688  34.497  13.440
48475W        W20889  40.022   0.914   2.785
48476W        W20890   4.351  34.092  12.376
48477W        W20891   2.282  25.675   0.357
48478W        W20892  35.893  37.049   2.816
48479W        W20893  32.441  28.460  14.371
48480W        W20894   4.254   8.859   0.264
48481W        W20895  40.873  32.022  14.283
48482W        W20896  23.190  22.746  10.470
48483W        W20897  32.488  19.061  11.963
48484W        W20898   4.332  20.614   1.427
48485W        W20899  21.618  12.277  10.998
48486W        W20900   7.388  23.587   1.303
48487W        W20901  44.313  22.629  12.881
48488W        W20902  17.261   0.394  13.335
48489W        W20903   2.958  43.959   2.405
48490W        W20904  17.258  26.096   4.342
48491W        W20905  18.099   7.261   3.342
48492W        W20906  28.091  30.605   0.252
48493W        W20907  40.819   6.269   3.314
48494W        W20908  17.637  27.561   3.311
48495W        W20909  12.329  36.058   0.844
48496W        W20910   3.418  17.740   0.846
48497W        W20911  44.982  37.017  13.796
48498W        W20912  26.160   0.358  10.947
48499W        W20913   9.858  44.960  14.456
48500W        W20914  13.634  31.413   2.676
48501W        W20915  10.692   0.326  12.928
48502W        W20916  28.660  42.791   1.753
48503W        W20917  20.574  42.862  14.807
48504W        W20918  27.029  11.634  12.491
48505W        W20919  31.121   3.808  13.045
48506W        W20920  32.603  23.019  14.917
48507W        W20921  44.857  18.175  11.957
48508W        W20922  35.079  11.365  13.937
48509W        W20923  24.094   9.670  10.936
48510W        W20924  37.058   9.190   4.316
48511W        W20925  13.619  30.645  14.408
48512W        W20926  22.545  39.386  12.422
48513W        W20927  11.765  41.327  10.960
48514W        W20928  27.085  11.139   0.455
48515W        W20929   0.353  27.955  13.019
48516W        W20930  25.494  12.818   5.231
48517W        W20931  10.206  28.578   0.456
48518W        W20932  17.781   3.791  14.807
48519W        W20933  39.349  38.024  10.470
48520W        W20934  28.573   3.215   3.246
48521W        W20935  35.921  35.057   5.585
48522W        W20936   8.884  14.733  14.402
48523W        W20937  30.581   7.825   0.747
48524W        W20938  16.271   1.440   3.791
48525W        W20939  25.601  18.774   0.439
48526W        W20940  27.166   7.267  12.926
48527W        W20941  35.070  34.497  14.350
48528W        W20942  27.000  33.957   2.703
48529W        W20943   8.379   5.347  14.395
48530W        W20944  18.243   4.944  11.473
48531W        W20945  11.209  39.872  14.866
48532W        W20946   2.404  29.531   4.753
48533W        W20947   2.748  30.100  10.450
48534W        W20948  41.360  10.350   0.820
48535W        W20949  20.572  25.046  12.382
48536W        W20950  28.110  21.112   2.677
48537W        W20951  40.038  39.322  14.427
48538W        W20952  44.916  42.306  10.994
48539W        W20953  31.595  22.649  14.304
48540W        W20954  14.830  42.373  12.973
48541W        W20955   5.731   9.889  14.936
48542W        W20956  34.911   7.881   4.681
48543W        W20957  27.069  29.030   3.779
48544W        W20958  26.030  18.789  12.500
48545W        W20959  43.886  11.234  12.016
48546W        W20960  20.093   6.880   3.829
48547W        W20961   1.406  20.555  12.060
48548W        W20962  28.965  33.618  12.072
48549W        W20963  41.390  38.411   3.282
48550W        W20964   0.906   1.764  11.429
48551W        W20965  16.745   3.451   0.359
48552W        W20966  26.563   5.398   0.952
48553W        W20967  26.114  35.084  11.963
48554W        W20968  44.372   9.668   4.152
48555W        W20969  26.474  12.727   0.345
48556W        W20970  15.254  36.851   4.169
48557W        W20971   6.802  35.398  13.979
48558W        W20972  22.127   7.874   1.794
48559W        W20973  33.997  26.140  13.822
48560W        W20974  34.995   4.700   0.832
48561W        W20975  30.138  17.797   0.769
48562W        W20976  25.486  22.670   4.761
48563W        W20977  13.135  27.542  12.883
48564W        W20978  19.642   0.276  13.858
48565W        W20979  20.149  26.202  10.497
48566W        W20980   9.246  31.144   4.663
48567W        W20981  29.147   4.317  12.416
48568W        W20982  13.171  42.426  14.448
48569W        W20983  37.982  37.446  12.346
48570W        W20984   0.479  27.075   0.777
48571W        W20985  27.110   2.924   2.238
48572W        W20986   2.424   3.351  14.366
48573W        W20987   5.720   1.358   2.733
48574W        W20988  40.324  18.663  12.081
48575W        W20989  36.560  23.554  11.950
48576W        W20990  34.988   7.708  13.803
48577W        W20991  17.559  23.031  10.561
48578W        W20992  44.459   0.297   1.445
48579W        W20993  32.478   0.978  13.517
48580W        W20994  33.496  37.446  14.453
48581W        W20995  34.557  28.046  11.018
48582W        W20996   6.412  30.576   0.753
48583W        W20997   2.965  32.393  13.417
48584W        W20998  14.217  40.479   1.234
48585W        W20999  35.462  38.429  14.851
48586W        W21000  44.504  13.176   0.818
48587W        W21001  14.620  14.811  12.953
48588W        W21002  16.668  30.630  10.429
48589W        W21003  40.327  33.503  11.543
48590W        W21004  40.515  24.983  14.342
48591W        W21005  38.842  32.114  14.392
48592W        W21006  41.960  17.176  11.985
48593W        W21007   3.868  27.587   3.193
48594W        W21008  44.312  34.500  13.528
48595W        W21009  12.151  25.137   2.787
48596W        W21010  17.717  23.552  13.317
48597W        W21011  16.807  24.691   1.786
48598W        W21012  33.024   3.829   1.723
48599W        W21013  42.482  18.597  10.888
48600W        W21014  25.116  44.447  11.876
48601W        W21015  13.189   3.316  14.512
48602W        W21016  19.160   9.313  11.489
48603W        W21017  41.895  19.079   2.674
48604W        W21018  39.520  43.887  14.359
48605W        W21019  19.655  35.564  12.866
48606W        W21020   2.858  13.681   0.290
48607W        W21021  12.696  34.393   3.366
48608W        W21022  44.326  44.342   4.830
48609W        W21023   5.359  26.079   5.126
48610W        W21024  17.769  24.003  14.492
48611W        W21025   2.289  12.667  12.982
48612W        W21026  36.543  20.108  14.998
48613W        W21027  44.333  37.011   3.379
48614W        W21028  36.864  34.072   4.806
48615W        W21029  22.505   8.786   9.946
48616W        W21030  13.638  23.056  10.476
48617W        W21031  21.630  23.027  12.070
48618W        W21032  38.059  12.344  14.422
48619W        W21033   1.956  33.474   4.182
48620W        W21034   5.933  19.617   4.810
48621W        W21035   8.839  25.016  12.047
48622W        W21036  35.417  21.094   1.934
48623W        W21037  40.389   7.833  12.515
48624W        W21038  18.778  19.063   2.298
48625W        W21039   0.921  41.032  14.503
48626W        W21040  31.072  12.148   0.948
48627W        W21041   7.779  36.494   1.367
48628W        W21042  29.451   5.809   4.676
48629W        W21043  11.321  42.304  11.532
48630W        W21044  15.292  16.135   3.336
48631W        W21045  21.098  43.394  11.469
48632W        W21046  39.017  30.096   2.335
48633W        W21047  17.695  38.414   3.360
48634W        W21048  19.727  40.424   4.124
48635W        W21049  27.589   0.256  12.920
48636W        W21050  12.122  23.589  12.532
48637W        W21051   3.401  32.123  14.822
48638W        W21052   3.272  32.002  14.350
48639W        W21053  36.535  19.551   3.811
48640W        W21054   6.759  42.470  10.642
48641W        W21055  20.583  44.814  13.941
48642W        W21056  25.030  44.417  10.916
48643W        W21057   3.943  43.454  12.829
48644W        W21058  40.520  26.468  10.487
48645W        W21059  21.233  24.698  11.420
48646W        W21060   0.463  28.014   4.167
48647W        W21061  15.750  30.620  14.373
48648W        W21062  34.539  31.108   4.312
48649W        W21063  36.089  11.711  13.444
48650W        W21064   2.922  20.161   3.248
48651W        W21065  33.105   0.970  12.872
48652W        W21066  13.296  38.382  13.367
48653W        W21067  44.772  37.375  14.028
48654W        W21068  12.194   7.795  14.486
48655W        W21069   1.975  33.891   3.696
48656W        W21070  26.533  39.394   2.803
48657W        W21071  39.458  30.562  14.398
48658W        W21072  12.797  12.743  14.895
48659W        W21073  14.116  19.618   5.294
48660W        W21074  26.533  25.593   0.821
48661W        W21075  41.361   0.752  14.788
48662W        W21076   5.275  33.953   0.403
48663W        W21077  21.076  15.818   3.641
48664W        W21078  16.664   8.255   5.669
48665W        W21079   8.190  20.143  13.315
48666W        W21080   4.868  38.953  11.980
48667W        W21081  40.848  19.638  10.530
48668W        W21082  31.905  42.360   3.746
48669W        W21083  20.151  30.615  10.899
48670W        W21084  31.622  34.021   0.844
48671W        W21085  35.908  28.667   4.618
48672W        W21086  23.678   9.382  13.461
48673W        W21087  42.452  21.681   1.876
48674W        W21088  44.496  25.126   0.443
48675W        W21089  41.034  17.170   4.715
48676W        W21090   5.345  19.547  12.485
48677W        W21091  27.983  12.747  13.538
48678W        W21092  33.415  37.052  11.567
48679W        W21093   6.256  19.599  10.986
48680W        W21094  29.982  40.897  13.469
48681W        W21095  30.134  16.582  14.983
48682W        W21096  39.546  30.656  12.065
48683W        W21097  20.665   2.781   3.193
48684W        W21098  21.705  22.722  11.451
48685W        W21099  37.843   9.254  14.492
48686W        W21100  31.537  21.514  14.882
48687W        W21101   4.768  23.575  13.989
48688W        W21102  22.557  39.823   4.717
48689W        W21103  17.158   6.712  13.060
48690W        W21104  40.397   0.967  11.976
48691W        W21105  38.497  17.612   4.151
48692W        W21106   1.731  17.193  13.507
48693W        W21107   3.725  32.991  12.435
48694W        W21108  33.494  17.096   4.136
48695W        W21109  19.724  40.939  13.967
48696W        W21110  30.015   6.906  13.506
48697W        W21111  34.371  20.738   5.302
48698W        W21112  21.578  14.147  14.515
48699W        W21113   9.371  13.346   0.250
48700W        W21114   9.841  17.275  14.850
48701W        W21115  26.107  31.969   3.153
48702W        W21116   6.779  43.481  11.864
48703W        W21117  31.642  25.645  10.482
48704W        W21118  40.313  30.538  13.895
48705W        W21119  21.619  16.082   0.268
48706W        W21120  25.487  38.407  13.368
48707W        W21121  35.875  38.937   3.253
48708W        W21122  38.834   8.397  11.434
48709W        W21123  39.508  20.077  10.486
48710W        W21124  36.402  21.122   0.962
48711W        W21125  23.100  38.476   0.909
48712W        W21126   8.230  32.405  10.916
48713W        W21127   4.717  36.091  11.950
48714W        W21128  30.073  33.438   3.156
48715W        W21129  18.060  39.945   3.283
48716W        W21130  16.681  35.064  12.480
48717W        W21131  17.568  13.795  14.495
48718W        W21132  38.451   7.207   3.790
48719W        W21133  12.716   1.774   4.166
48720W        W21134  17.714  43.857   5.139
48721W        W21135  42.971   6.382  13.508
48722W        W21136  44.363  20.199  14.966
48723W        W21137   1.777  30.055  13.440
48724W        W21138   2.257  35.597   4.222
48725W        W21139  13.720  12.141   4.763
48726W        W21140  16.669   8.858  13.921
48727W        W21141   4.395  33.955   3.753
48728W        W21142  33.395   2.383   0.326
48729W        W21143  10.185  21.055   3.751
48730W        W21144  25.669  13.765   4.773
48731W        W21145  38.383  32.064   1.259
48732W        W21146  30.611  23.169  13.821
48733W        W21147  11.182  27.546  11.415
48734W        W21148  43.300  11.765   1.866
48735W        W21149  20.524   5.231   2.288
48736W        W21150  20.116  10.649   0.832
48737W        W21151   5.858  15.655   5.254
48738W        W21152  17.701  30.141   3.362
48739W        W21153   6.182  24.092  14.431
48740W        W21154  23.137  33.006   4.800
48741W        W21155  26.652  17.069  14.764
48742W        W21156  14.742  37.050  10.638
48743W        W21157  23.699   1.955  12.889
48744W        W21158  41.001  15.663  11.936
48745W        W21159  20.221  25.055   5.138
48746W        W21160  24.631   5.700  11.459
48747W        W21161  36.884  35.052   2.729
48748W        W21162  34.436  21.202   3.775
48749W        W21163   0.375  12.756  11.486
48750W        W21164  13.756  34.983  14.971
48751W        W21165  31.467  10.708  12.506
48752W        W21166   7.343   0.946  14.463
48753W        W21167   7.380   0.919   3.675
48754W        W21168  20.570  22.145  12.064
48755W        W21169  31.401  41.968   3.228
48756W        W21170  29.976  28.159  10.470
48757W        W21171  31.618  11.830   0.863
48758W        W21172  14.263  21.575  10.591
48759W        W21173  37.905  28.541  12.910
48760W        W21174  21.703  33.102   3.786
48761W        W21175  20.131   1.941   0.812
48762W        W21176  40.370  40.948  14.399
48763W        W21177  39.961   6.690  10.470
48764W        W21178   7.725   9.277  12.346
48765W        W21179  29.149  44.879   1.739
48766W        W21180  14.165  21.556  11.543
48767W        W21181   3.305  41.951   1.779
48768W        W21182  36.000  44.339  10.413
48769W        W21183  10.834  13.692  11.385
48770W        W21184  43.484   3.304  14.306
48771W        W21185  15.748  22.053   3.289
48772W        W21186  40.509  41.423   3.299
48773W        W21187  42.465  22.088  14.363
48774W        W21188  23.238  27.122   0.339
48775W        W21189   2.416  22.512   3.224
48776W        W21190  35.552   9.262   3.730
48777W        W21191   8.225   1.877   4.833
48778W        W21192  40.450  14.668  13.879
48779W        W21193  28.157  10.319   0.915
48780W        W21194   4.800  42.518   3.707
48781W        W21195  40.016  26.069  11.922
48782W        W21196  38.537   3.799  14.844
48783W        W21197   6.827  35.437   4.125
48784W        W21198  37.552  13.152  11.594
48785W        W21199  37.344   8.748   3.197
48786W        W21200  35.934  18.187   4.833
48787W        W21201  29.089  30.055  11.881
48788W        W21202  37.855   4.866  12.525
48789W        W21203   6.249  28.099  11.564
48790W        W21204  29.933  41.044   3.856
48791W        W21205   5.835   1.245  10.519
48792W        W21206  10.336  12.219  10.905
48793W        W21207  13.676  11.236   1.435
48794W        W21208   5.780  20.618   1.828
48795W        W21209   7.230  15.193   3.221
48796W        W21210   5.325  26.965   1.380
48797W        W21211   9.848  36.980  12.542
48798W        W21212  30.025   9.784  13.442
48799W        W21213  43.399  27.078   1.450
48800W        W21214   8.778  28.492  12.485
48801W        W21215  39.512   6.253  11.589
48802W        W21216  14.318  19.075   0.252
48803W        W21217   6.390  43.002   0.824
48804W        W21218  35.456  38.556   3.822
48805W        W21219  28.628  29.524   0.941
48806W        W21220   0.786  42.888   4.218
48807W        W21221  40.030  14.276  11.597
48808W        W21222  37.447   5.886   3.673
48809W        W21223  14.743   9.884  12.357
48810W        W21224  12.709  34.929  11.903
48811W        W21225  22.698  34.597  12.518
48812W        W21226  28.124  13.287   1.739
48813W        W21227  38.934  35.560   1.321
48814W        W21228  32.425  12.638   1.895
48815W        W21229  10.157  33.543   2.321
48816W        W21230   4.727  16.134   2.730
48817W        W21231  29.437   3.341   0.373
48818W        W21232  16.646  36.509  13.969
48819W        W21233  41.479   4.782  12.916
48820W        W21234  36.093  42.889   1.241
48821W        W21235  44.821  14.592  11.090
48822W        W21236  28.153   7.221   2.226
48823W        W21237  11.357  38.458   3.661
48824W        W21238   1.256  15.817  11.919
48825W        W21239  33.014  43.768  13.921
48826W        W21240  40.359  17.737   1.393
48827W        W21241  41.387   1.448  13.866
48828W        W21242  32.951  28.185   0.460
48829W        W21243   0.896  12.343   3.320
48830W        W21244  24.660  24.637   0.923
48831W        W21245  14.796  19.149  11.590
48832W        W21246  29.066  26.088   3.211
48833W        W21247  13.272  29.515  11.938
48834W        W21248   5.346  38.412   1.336
48835W        W21249  36.031  13.142   4.702
48836W        W21250  21.044   8.830   9.946
48837W        W21251  43.774   5.862  11.567
48838W        W21252  12.197   8.264  14.863
48839W        W21253  25.576  28.173  13.345
48840W        W21254  16.566  18.712  12.036
48841W        W21255  29.658  14.743  12.033
48842W        W21256  39.318  11.259   3.852
48843W        W21257  11.796   8.859   1.881
48844W        W21258  13.139  44.872   3.793
48845W        W21259  10.820  31.494  10.574
48846W        W21260  14.100  28.561  10.624
48847W        W21261  36.526  44.325  14.275
48848W        W21262  39.336  34.065   0.368
48849W        W21263  28.566  37.508  11.041
48850W        W21264  37.841  32.467  10.440
48851W        W21265  10.722   4.733   4.647
48852W        W21266   3.298  19.677  13.862
48853W        W21267  41.351  15.632  12.012
48854W        W21268  37.440  15.199  11.085
48855W        W21269   4.431  36.045   3.806
48856W        W21270  37.480  40.808  10.404
48857W        W21271   3.318   7.264  14.292
48858W        W21272  44.313   9.183  13.444
48859W        W21273   5.847  20.113   3.686
48860W        W21274  34.536  13.347  10.635
48861W        W21275  17.120   7.850   0.278
48862W        W21276  43.856   4.887  11.018
48863W        W21277   8.868  14.144   4.613
48864W        W21278  12.325  21.084   2.674
48865W        W21279  18.069  36.442   1.833
48866W        W21280  38.918  25.496   0.963
48867W        W21281  44.832   3.269   3.863
48868W        W21282  36.048  10.264  13.931
48869W        W21283  11.728  44.800  13.360
48870W        W21284   4.226   9.856   4.292
48871W        W21285  31.036   7.810  14.869
48872W        W21286   4.837  38.545  11.511
48873W        W21287  17.111   5.839   1.286
48874W        W21288  37.017  42.799  10.528
48875W        W21289  22.592  37.968  12.916
48876W        W21290   6.784  36.949  13.911
48877W        W21291   8.800  40.479  11.043
48878W        W21292  40.506  21.673   2.288
48879W        W21293  41.799  13.602  14.820
48880W        W21294  39.880  38.838  11.403
48881W        W21295  27.985  34.994  12.574
48882W        W21296  23.502  26.487   0.746
48883W        W21297   2.309   9.817  10.431
48884W        W21298  14.714  39.944  14.471
48885W        W21299  25.667  39.410   1.915
48886W        W21300   0.764  44.887   2.705
48887W        W21301   7.393  18.107   4.225
48888W        W21302  32.073  21.756  14.919
48889W        W21303  43.771  30.080   1.313
48890W        W21304  12.839  21.224  13.459
48891W        W21305  24.055  40.980  12.069
48892W        W21306  36.593  13.218   0.407
48893W        W21307  30.027  26.992  12.522
48894W        W21308  11.718  44.448  13.382
48895W        W21309  12.125  39.332  13.028
48896W        W21310   2.833  42.875   2.692
48897W        W21311  42.985  31.644   1.745
48898W        W21312  26.571  17.638   1.328
48899W        W21313   7.715  42.520   2.314
48900W        W21314  44.442  10.762   3.719
48901W        W21315   0.895  26.526  10.591
48902W        W21316  36.442  20.195  12.480
48903W        W21317  41.328  30.477   4.144
48904W        W21318  17.145  13.825  13.033
48905W        W21319  22.631  18.223  12.021
48906W        W21320  22.647  19.114  14.442
48907W        W21321  36.450  27.505   3.368
48908W        W21322  18.291  17.784  13.486
48909W        W21323  29.015   3.408   3.265
48910W        W21324  26.951   4.375  14.030
48911W        W21325  21.028   7.278   5.159
48912W        W21326  17.636  39.065  10.111
48913W        W21327  35.573  10.706   1.729
48914W        W21328  38.065  43.293  10.998
48915W        W21329  23.534  10.141  12.391
48916W        W21330  11.267  32.459  13.471
48917W        W21331  34.554  33.471   0.872
48918W        W21332  22.033  14.211  12.395
48919W        W21333  10.773  17.158  11.597
48920W        W21334  33.440  33.417   0.801
48921W        W21335  14.698  19.638   2.377
48922W        W21336   0.320  30.499   4.618
48923W        W21337  24.527  28.094  14.497
48924W        W21338  36.399  34.877   1.742
48925W        W21339   2.436  30.042   2.723
48926W        W21340  44.282  16.755  13.900
48927W        W21341   8.821  30.430   4.731
48928W        W21342  17.707   8.292  11.389
48929W        W21343  40.862  25.045   1.220
48930W        W21344  34.896  29.129  11.872
48931W        W21345  12.346  12.340  12.047
48932W        W21346   2.394  37.854  11.559
48933W        W21347  28.615  10.356   2.870
48934W        W21348  13.329  42.970  14.992
48935W        W21349  10.236  20.604   1.918
48936W        W21350  33.526   7.836  12.529
48937W        W21351   4.408  14.229  14.294
48938W        W21352   3.740  30.036  12.095
48939W        W21353   9.733  44.969   4.322
48940W        W21354  24.032  36.462   0.761
48941W        W21355  16.314  11.843   4.255
48942W        W21356   5.421  29.429   1.745
48943W        W21357   5.827   3.919  14.454
48944W        W21358   8.888   7.258  11.516
48945W        W21359  21.706  28.968  12.421
48946W        W21360  33.056   6.864   4.278
48947W        W21361  29.513  23.615  13.412
48948W        W21362  34.436  42.422  11.378
48949W        W21363  36.357  22.501  11.915
48950W        W21364  36.885  42.424   0.843
48951W        W21365  31.954  33.984   1.277
48952W        W21366  44.456  38.556  13.452
48953W        W21367   4.724  38.505   2.414
48954W        W21368   1.877  42.374  12.538
48955W        W21369   8.383   4.387  10.513
48956W        W21370  35.998   1.739   1.846
48957W        W21371  44.453  25.671  11.105
48958W        W21372  24.183  39.558  11.599
48959W        W21373  32.137   5.790   0.441
48960W        W21374  33.567  16.273  12.506
48961W        W21375  35.884  32.425  11.121
48962W        W21376   5.778   0.807   3.323
48963W        W21377  32.451   4.403   3.809
48964W        W21378  35.490  40.965   0.804
48965W        W21379  38.412  11.130   1.718
48966W        W21380   5.223  10.332  13.812
48967W        W21381  36.548  27.069   3.804
48968W        W21382  23.697  25.094  14.830
48969W        W21383  19.116  22.557   4.218
48970W        W21384   7.318  37.840   2.413
48971W        W21385  37.919  18.170   3.334
48972W        W21386  37.994  14.682   2.894
48973W        W21387  21.235  24.132   4.221
48974W        W21388  21.608  38.886   0.480
48975W        W21389  21.673  33.036  11.893
48976W        W21390  24.630  18.749   3.866
48977W        W21391  20.033   5.808   0.420
48978W        W21392  20.769  22.507  14.366
48979W        W21393  26.973   9.246   1.211
48980W        W21394  27.651  35.926   4.698
48981W        W21395  15.155  21.566  13.055
48982W        W21396  32.049   5.916  14.967
48983W        W21397  23.033   1.837   1.447
48984W        W21398  28.607  33.393   2.209
48985W        W21399  18.147  18.705   4.716
48986W        W21400  26.180  41.399   2.704
48987W        W21401  22.184  40.482   3.278
48988W        W21402  20.533  31.501   1.240
48989W        W21403  18.732  29.453   3.214
48990W        W21404   1.271   9.781  10.485
48991W        W21405   2.800  39.559   0.793
48992W        W21406  13.623  34.387   2.252
48993W        W21407  35.899  25.163   1.789
48994W        W21408  35.916   0.962  14.425
48995W        W21409   2.275  27.195   2.837
48996W        W21410  30.943  31.973   1.276
48997W        W21411  11.149  21.023   3.346
48998W        W21412  43.362  16.805  10.916
48999W        W21413  21.756   4.910  14.279
49000W        W21414  26.581  19.613   2.758
49001W        W21415  25.050  27.569  10.939
49002W        W21416  30.099  25.578   0.434
49003W        W21417  27.071  37.043  12.085
49004W        W21418  34.880  26.571  14.275
49005W        W21419  32.511  30.150   3.304
49006W        W21420   1.320  17.764   4.322
49007W        W21421  20.238  22.064   0.481
49008W        W21422  17.114   3.857  10.523
49009W        W21423  35.576  43.388   1.752
49010W        W21424  11.235   1.767  14.779
49011W        W21425  40.405  39.976   0.455
49012W        W21426  39.993  11.740   3.673
49013W        W21427  25.203  12.292   3.758
49014W        W21428  32.509  14.233   3.790
49015W        W21429  31.531   7.261  11.557
49016W        W21430   5.859  21.246   4.268
49017W        W21431  10.213  13.712  13.861
49018W        W21432  21.687  29.123   4.662
49019W        W21433   9.372  23.184  14.948
49020W        W21434  16.258  26.700   0.910
49021W        W21435  27.141   2.816   4.639
49022W        W21436  20.161  33.607  12.974
49023W        W21437  41.352   5.431  12.860
49024W        W21438   5.305   1.957   4.712
49025W        W21439  19.150  15.305  14.902
49026W        W21440  37.515  29.057   3.369
49027W        W21441  44.289  24.654   0.449
49028W        W21442  16.790  44.999  10.416
49029W        W21443   5.348  39.430   1.929
49030W        W21444  30.010  22.110  12.484
49031W        W21445  34.879   4.326   4.117
49032W        W21446  11.130  35.363   3.145
49033W        W21447  15.176  13.232   2.357
49034W        W21448  32.592  34.368  12.418
49035W        W21449  18.728  39.977  11.903
49036W        W21450  18.247  21.722   1.275
49037W        W21451  12.293  12.636   3.725
49038W        W21452   6.191  36.941  13.873
49039W        W21453  29.553  24.571   2.725
49040W        W21454   7.228  13.136  13.817
49041W        W21455  41.962  16.585   1.249
49042W        W21456  10.875  42.997   1.869
49043W        W21457  37.397  36.866  13.503
49044W        W21458  28.526   1.354   2.776
49045W        W21459   1.738  38.915   4.304
49046W        W21460  43.306  22.202  12.062
49047W        W21461   5.202  33.874   1.342
49048W        W21462  32.448  35.886  14.321
49049W        W21463   7.759   5.783  10.427
49050W        W21464  22.555   3.338  11.604
49051W        W21465  43.473   0.409  10.581
49052W        W21466  13.253  20.274   4.283
49053W        W21467  38.555  36.486   0.911
49054W        W21468  36.095  44.260  10.965
49055W        W21469  23.125   8.762  14.959
49056W        W21470  35.598  23.211  12.905
49057W        W21471  16.707   4.730  11.488
49058W        W21472   5.773  15.657   2.763
49059W        W21473  32.888   8.324   3.744
49060W        W21474  16.690  30.586   2.409
49061W        W21475  19.176   5.874  13.913
49062W        W21476   7.717  16.150   1.774
49063W        W21477   2.400   8.686  12.068
49064W        W21478   0.345  20.173  12.858
49065W        W21479  39.941  40.548   4.749
49066W        W21480   4.291   9.664  12.984
49067W        W21481  12.341  32.890  14.435
49068W        W21482  36.425   6.820   3.699
49069W        W21483   7.845  33.028   2.388
49070W        W21484  27.605   2.907   4.297
49071W        W21485  26.655  40.543   2.274
49072W        W21486  24.585  39.520   2.181
49073W        W21487  38.392   9.705  14.912
49074W        W21488   2.833  23.667  11.608
49075W        W21489  10.193  35.983   2.871
49076W        W21490   1.765  34.602  14.930
49077W        W21491   3.771  25.645  14.849
49078W        W21492  11.188   4.775  13.916
49079W        W21493  34.602  34.536  13.864
49080W        W21494   0.876  21.642   4.755
49081W        W21495   1.807  11.767   1.808
49082W        W21496   2.747  13.267   2.274
49083W        W21497  11.167  19.242  10.545
49084W        W21498  44.960   0.256   3.230
49085W        W21499  34.049  41.345  13.431
49086W        W21500  11.732  33.063  11.026
49087W        W21501  19.203  43.920  11.983
49088W        W21502  14.132  19.682  14.494
49089W        W21503   2.331   3.923   1.318
49090W        W21504  22.679  13.150   4.288
49091W        W21505  30.147   5.240   4.166
49092W        W21506  14.148  24.681   1.874
49093W        W21507   9.290  34.503  11.971
49094W        W21508  11.350  17.281   0.889
49095W        W21509   8.244  12.206  10.511
49096W        W21510  38.976  29.589   4.266
49097W        W21511  43.283  37.850  13.969
49098W        W21512  19.169  17.170  11.387
49099W        W21513   2.413  40.044   2.821
49100W        W21514  34.414  19.589   3.260
49101W        W21515  22.109   1.354   2.318
49102W        W21516   4.217   2.918   0.313
49103W        W21517  20.229   9.230  12.824
49104W        W21518  30.480  31.549   4.633
49105W        W21519  36.358  36.890  14.937
49106W        W21520  25.197  41.388   0.956
49107W        W21521  11.259  24.486  14.945
49108W        W21522  12.690  39.418  13.527
49109W        W21523  38.423   1.483  12.082
49110W        W21524   7.392  15.718   1.274
49111W        W21525  22.558  23.229   2.709
49112W        W21526  13.677  25.135  12.558
49113W        W21527  34.432  18.164   3.755
49114W        W21528  43.775   8.754  13.417
49115W        W21529  34.099  22.688   1.712
49116W        W21530  29.622  28.562  10.535
49117W        W21531   9.351  18.146   2.396
49118W        W21532   5.344  31.900  13.893
49119W        W21533  29.583   5.700  12.389
49120W        W21534  25.469   8.245   2.834
49121W        W21535  24.096  24.049  14.030
49122W        W21536  40.529  37.520   2.687
49123W        W21537  35.434  44.924  14.420
49124W        W21538  28.485  19.237   2.372
49125W        W21539   4.705  22.737  13.518
49126W        W21540   3.734  42.334   3.209
49127W        W21541   0.411  28.586   4.615
49128W        W21542  12.724   5.772   3.207
49129W        W21543  39.915  18.555   3.304
49130W        W21544  35.105  21.564   1.274
49131W        W21545  32.949  34.588  14.337
49132W        W21546  38.048  12.233   0.784
49133W        W21547  18.675   3.456   4.636
49134W        W21548  37.380  42.504  10.451
49135W        W21549  39.426  25.514  13.838
49136W        W21550  37.944  43.345   4.299
49137W        W21551  30.441  36.015   1.368
49138W        W21552   6.194  38.326   4.334
49139W        W21553  36.983   6.347  12.554
49140W        W21554  28.058  36.983   1.748
49141W        W21555  37.437  34.527   4.609
49142W        W21556  18.726   3.324  10.958
49143W        W21557  32.624  17.279  10.905
49144W        W21558  23.034  41.042   1.801
49145W        W21559  25.647  15.580  12.919
49146W        W21560  39.452  22.076   2.864
49147W        W21561  35.889   2.287  12.383
49148W        W21562  13.802   0.436  10.484
49149W        W21563  13.781  21.695   0.894
49150W        W21564  29.622   6.332   2.229
49151W        W21565  44.804   6.835   4.206
49152W        W21566  12.736  22.713   3.180
49153W        W21567  20.695   8.278   4.114
49154W        W21568  36.421  32.604   4.766
49155W        W21569  30.020  40.465   1.808
49156W        W21570  25.663  28.575   0.801
49157W        W21571  37.523  21.150   2.876
49158W        W21572  10.858  44.879  10.603
49159W        W21573  14.107  24.695  11.975
49160W        W21574  14.302   6.797  11.402
49161W        W21575  26.501  18.759   4.273
49162W        W21576  22.603  14.603  12.850
49163W        W21577  30.450   3.761   4.130
49164W        W21578  16.154  35.493  13.488
49165W        W21579  25.595  22.147   1.930
49166W        W21580   3.754  39.475   1.278
49167W        W21581  19.655  36.846   4.791
49168W        W21582  11.796  39.323   4.749
49169W        W21583  35.875  43.866   1.364
49170W        W21584  20.628   9.325   0.879
49171W        W21585  35.087   1.932  13.479
49172W        W21586  26.601   4.886  11.605
49173W        W21587  20.610  37.998   4.663
49174W        W21588   9.857   7.373   2.688
49175W        W21589   6.428   2.842   0.414
49176W        W21590   1.762  19.763   1.697
49177W        W21591  19.742  11.753   2.865
49178W        W21592  16.260  14.234   2.367
49179W        W21593  22.185  31.514   0.940
49180W        W21594  22.145   1.457  11.442
49181W        W21595   9.721  22.220  11.398
49182W        W21596  12.634   8.287   1.931
49183W        W21597   2.351  21.737  14.277
49184W        W21598  44.797  32.432   1.852
49185W        W21599  42.341   2.740  10.640
49186W        W21600   8.278   8.762   3.379
49187W        W21601  43.875  36.477  12.910
49188W        W21602  40.017  13.123  12.458
49189W        W21603  18.282  43.798  11.567
49190W        W21604  36.388  24.632  10.539
49191W        W21605   0.888  15.311   3.367
49192W        W21606  37.531  35.377   4.266
49193W        W21607  37.541  38.471   0.913
49194W        W21608  33.889   9.326  11.456
49195W        W21609  36.361   9.842   1.713
49196W        W21610  12.690  15.128  11.875
49197W        W21611   5.248  41.933  11.510
49198W        W21612   3.262   1.742  10.467
49199W        W21613  26.206  33.936  11.005
49200W        W21614  44.003  44.901  14.440
49201W        W21615  27.661  39.325  14.479
49202W        W21616  17.574  22.703   4.690
49203W        W21617  36.952   9.149  11.896
49204W        W21618  17.780   2.788   1.871
49205W        W21619  22.154   5.392  13.313
49206W        W21620  38.354  38.063   4.635
49207W        W21621   0.331  39.034   0.884
49208W        W21622  37.891   0.971  12.033
49209W        W21623  37.068  23.732   0.930
49210W        W21624   9.676  31.581   3.637
49211W        W21625  32.973  13.691   1.834
49212W        W21626  35.981   0.770   1.848
49213W        W21627  28.599  40.950  14.484
49214W        W21628  28.078   4.347  14.501
49215W        W21629  12.753   4.802  14.887
49216W        W21630   8.758   1.321   1.828
49217W        W21631   2.729  27.548  12.872
49218W        W21632   3.412   7.763   3.211
49219W        W21633  38.063   0.447   1.751
49220W        W21634  18.740  22.612  14.497
49221W        W21635  43.285   3.244  10.590
49222W        W21636  24.709  25.543   4.747
49223W        W21637  21.224  31.989   3.674
49224W        W21638  23.992  17.600  13.898
49225W        W21639  27.153  23.989  14.834
49226W        W21640  41.437  16.724   4.201
49227W        W21641  27.589  15.315   2.226
49228W        W21642  42.316   5.216   4.299
49229W        W21643  39.939  44.424   4.705
49230W        W21644   9.873  41.823   0.261
49231W        W21645  41.341  13.312   1.352
49232W        W21646  30.445  41.925   5.120
49233W        W21647   6.758   5.792   1.273
49234W        W21648  17.243  16.610   4.233
49235W        W21649  26.571  18.561   4.750
49236W        W21650  31.456   5.749  14.381
49237W        W21651  18.275  17.226  11.442
49238W        W21652   6.764  41.849  11.886
49239W        W21653  11.206  38.980  11.902
49240W        W21654  20.197  39.937   0.852
49241W        W21655  41.486   7.788  10.478
49242W        W21656  10.257  27.609  12.353
49243W        W21657  19.694  38.336   0.474
49244W        W21658  44.778  18.547   1.914
49245W        W21659  32.542  43.441  12.973
49246W        W21660   0.461  32.926   1.733
49247W        W21661  41.376  24.987  14.403
49248W        W21662   8.684  35.428  14.374
49249W        W21663  22.219  17.717  13.399
49250W        W21664  38.383  37.406  12.366
49251W        W21665  36.045   2.280  10.435
49252W        W21666   0.492  38.379  12.549
49253W        W21667  22.622  43.015   3.301
49254W        W21668  24.579   1.861   2.390
49255W        W21669   2.829  34.382  14.419
49256W        W21670  28.642   5.916  11.419
49257W        W21671  16.716  14.751   0.758
49258W        W21672  20.540  37.351   4.288
49259W        W21673   0.793  13.283   4.746
49260W        W21674  17.073  41.893   0.808
49261W        W21675  42.017   0.860   9.946
49262W        W21676  33.446  44.896  11.918
49263W        W21677  35.012  39.917  12.887
49264W        W21678  42.014   7.689   2.877
49265W        W21679  32.053   0.750  13.887
49266W        W21680  38.510  16.708  11.954
49267W        W21681  31.055  21.640  13.910
49268W        W21682  29.976  12.841  13.496
49269W        W21683  34.599  12.142  12.354
49270W        W21684  20.541  32.630   2.763
49271W        W21685  34.516  37.063  11.391
49272W        W21686  43.852   9.697  12.978
49273W        W21687  38.891  38.485   2.242
49274W        W21688  11.293  19.665  13.048
49275W        W21689  38.537  13.207  13.525
49276W        W21690   3.846   8.252  13.049
49277W        W21691   0.293  20.612  13.813
49278W        W21692  41.435  28.993   0.405
49279W        W21693  37.411  21.656   3.852
49280W        W21694  16.132  42.351  10.907
49281W        W21695   8.206  32.952  11.481
49282W        W21696  25.667  36.447   1.282
49283W        W21697  35.531  19.622  11.034
49284W        W21698  37.358  38.957   2.213
49285W        W21699   3.332   6.887  12.462
49286W        W21700  28.571  39.942  11.902
49287W        W21701  14.745  44.772   1.932
49288W        W21702  12.730  17.718  13.906
49289W        W21703  23.501   5.872  11.489
49290W        W21704   2.454  36.978   1.238
49291W        W21705  20.240  38.477  14.326
49292W        W21706  30.015  23.076   1.812
49293W        W21707  32.014  37.929   1.770
49294W        W21708  44.264  17.220   1.897
49295W        W21709  14.311  19.105  10.435
49296W        W21710   3.887  24.558   0.930
49297W        W21711  12.322  27.547  11.544
49298W        W21712  40.402  43.468   0.816
49299W        W21713   3.286  36.908   3.740
49300W        W21714  42.316  30.064  12.924
49301W        W21715  38.916  28.097  10.983
49302W        W21716  19.139  35.503  11.882
49303W        W21717  18.669  42.838   0.802
49304W        W21718  14.340  43.967  14.400
49305W        W21719  16.190  32.040  10.422
49306W        W21720  37.340  24.505  13.358
49307W        W21721  37.009   7.856  12.945
49308W        W21722  33.000   9.316   1.324
49309W        W21723  36.378  27.099  14.976
49310W        W21724  29.943  26.686   3.251
49311W        W21725  24.537  36.970   1.899
49312W        W21726   1.447  34.908   3.272
49313W        W21727  13.198  10.205  12.485
49314W        W21728  36.979  44.489  11.380
49315W        W21729  32.916  34.426   4.773
49316W        W21730  22.027  22.023   3.227
49317W        W21731  16.743  33.919   4.696
49318W        W21732  29.480  38.942  14.292
49319W        W21733  37.566  34.418   1.714
49320W        W21734  28.530   3.426   1.866
49321W        W21735  10.173   5.301   4.306
49322W        W21736   2.391   7.355  14.953
49323W        W21737  38.343  21.206  12.532
49324W        W21738  32.498   1.343   4.710
49325W        W21739   5.752  24.997   1.291
49326W        W21740  10.644  17.798  12.483
49327W        W21741  30.910  39.825   2.357
49328W        W21742  35.439  41.318   4.294
49329W        W21743  13.658   8.324  11.095
49330W        W21744   7.322   2.808  13.385
49331W        W21745  10.741   7.328   0.432
49332W        W21746  34.518  18.086  11.001
49333W        W21747  21.664  12.289  12.558
49334W        W21748  21.188   8.397   1.451
49335W        W21749  16.252  15.255   1.765
49336W        W21750  34.518  11.248   4.141
49337W        W21751  17.081  23.531  11.441
49338W        W21752   1.803  18.721   1.787
49339W        W21753   5.343  25.625  12.422
49340W        W21754  21.519   9.850  12.546
49341W        W21755  24.482   8.235  12.554
49342W        W21756   2.867  24.020  10.513
49343W        W21757   3.827  37.577  10.973
49344W        W21758  26.954   1.441   5.661
49345W        W21759  23.492  23.096   2.844
49346W        W21760  28.581  21.758  13.380
49347W        W21761  40.836   9.387  14.349
49348W        W21762   5.897  32.462  12.072
49349W        W21763  28.952  28.107  14.924
49350W        W21764  44.440   2.270  12.435
49351W        W21765  25.005  35.873   2.845
49352W        W21766  24.638  22.240  13.471
49353W        W21767  22.526  20.052   4.670
49354W        W21768  38.883  21.531  13.468
49355W        W21769  10.857  22.107   0.733
49356W        W21770   3.426  24.194  12.359
49357W        W21771   2.888   5.926   0.868
49358W        W21772  12.793  19.109   1.795
49359W        W21773   8.382  38.992   1.760
49360W        W21774  22.586  43.375  12.391
49361W        W21775  41.994  41.437   5.153
49362W        W21776  29.505  20.127   0.261
49363W        W21777  10.315   9.203   0.396
49364W        W21778  18.263  30.140   3.234
49365W        W21779  39.530  23.029  12.907
49366W        W21780  39.351  17.646   1.925
49367W        W21781  40.408  12.699  12.932
49368W        W21782  37.023  19.583  13.902
49369W        W21783  19.776  32.115  14.511
49370W        W21784  14.245  31.415  14.860
49371W        W21785  21.715  40.517  11.505
49372W        W21786  36.093  23.724   1.335
49373W        W21787  30.509  11.841  14.866
49374W        W21788  37.343  19.770   2.808
49375W        W21789   9.238   4.809   2.810
49376W        W21790  36.057  41.959  11.390
49377W        W21791  30.621  28.543  13.418
49378W        W21792  19.674  40.848  13.527
49379W        W21793   6.708  38.923   4.616
49380W        W21794   0.742   9.675   1.892
49381W        W21795  11.658  25.703  12.025
49382W        W21796  20.236  30.627   2.272
49383W        W21797   8.846   3.935   1.425
49384W        W21798  22.503  13.304   1.899
49385W        W21799  11.846  42.288  13.439
49386W        W21800  26.696  17.637  10.481
49387W        W21801  43.407  39.511  12.982
49388W        W21802  36.075   4.375  10.983
49389W        W21803  21.696  32.961   1.877
49390W        W21804  15.713  30.918  10.898
49391W        W21805   6.203  43.296  12.902
49392W        W21806  17.693  37.461   3.733
49393W        W21807  20.128  11.157  13.885
49394W        W21808  14.668  32.032   2.394
49395W        W21809  25.111   7.739  13.828
49396W        W21810  36.940  18.126  10.963
49397W        W21811  21.263  15.187  13.975
49398W        W21812  35.473   5.235  10.628
49399W        W21813  20.132  34.601   4.803
49400W        W21814  23.563  17.655  13.369
49401W        W21815  12.166  14.645   2.269
49402W        W21816  37.570  20.090  14.282
49403W        W21817   2.840  33.475   0.886
49404W        W21818   5.286  27.478  13.352
49405W        W21819  43.846  12.206   1.935
49406W        W21820   1.793  22.701  13.899
49407W        W21821  42.319  39.464  10.412
49408W        W21822   9.313  19.203   2.743
49409W        W21823   1.312   5.370   1.379
49410W        W21824  43.786  10.819  13.851
49411W        W21825   3.239  39.957  13.409
49412W        W21826   5.841  19.618   4.254
49413W        W21827  28.939  12.769  12.934
49414W        W21828   3.902   5.230   0.283
49415W        W21829  39.983  34.898  14.321
49416W        W21830  17.148  39.420   3.783
49417W        W21831  32.122   4.807   3.269
49418W        W21832  38.329  33.512   0.804
49419W        W21833  17.246  41.520  14.813
49420W        W21834  44.438  34.563  12.501
49421W        W21835  28.068   0.930  10.410
49422W        W21836   9.715  30.615   4.150
49423W        W21837  20.614  13.680  14.939
49424W        W21838  15.814  23.511   3.370
49425W        W21839   6.735  36.350  13.030
49426W        W21840  17.264  34.585  13.494
49427W        W21841  30.972  20.175  10.530
49428W        W21842  40.049   5.350  12.891
49429W        W21843  31.910  30.047  12.414
49430W        W21844  35.451  37.552   1.697
49431W        W21845   6.832  30.020  11.945
49432W        W21846  37.528  31.535   1.359
49433W        W21847  41.415   1.468   3.707
49434W        W21848  41.514  32.039  12.464
49435W        W21849  32.553   8.673   1.902
49436W        W21850  44.432  39.528   0.321
49437W        W21851  41.327  19.557   1.294
49438W        W21852   9.350  18.760   3.727
49439W        W21853  31.443  34.566  11.552
49440W        W21854   7.210  26.680   2.240
49441W        W21855   2.368  11.718   1.285
49442W        W21856  24.581  15.103  14.451
49443W        W21857   2.319  36.404  13.481
49444W        W21858   7.199   6.785   4.660
49445W        W21859  34.932   3.930   2.861
49446W        W21860  16.318  40.428  10.889
49447W        W21861  19.267  35.062  11.439
49448W        W21862  11.272   3.370   2.852
49449W        W21863  37.056  15.298  14.509
49450W        W21864   3.447  22.204   2.665
49451W        W21865  12.152  13.628  14.914
49452W        W21866  37.043   8.746   0.262
49453W        W21867  24.179  11.834  13.012
49454W        W21868   4.710  41.905  12.885
49455W        W21869   3.906  42.984  13.995
49456W        W21870  32.092   7.669  10.944
49457W        W21871  35.101   4.235  11.891
49458W        W21872  33.502  24.120  10.061
49459W        W21873  10.355  16.101  11.553
49460W        W21874  25.057   4.447   2.216
49461W        W21875  10.227  35.537   0.275
49462W        W21876   3.303  17.761   2.785
49463W        W21877   3.807  25.098   2.723
49464W        W21878  33.061   5.849   4.683
49465W        W21879  30.125   4.837   0.276
49466W        W21880  34.438  36.989   0.808
49467W        W21881  33.406  27.641   0.763
49468W        W21882  42.488   1.347  11.998
49469W        W21883  18.139  27.946  12.458
49470W        W21884  14.144  26.179  13.019
49471W        W21885  42.413  13.766   4.628
49472W        W21886  14.804  12.672   1.842
49473W        W21887  26.525  27.158  13.519
49474W        W21888   5.933  40.404  11.610
49475W        W21889   0.311  10.694   3.300
49476W        W21890  22.626  41.528   0.329
49477W        W21891   8.695  44.810  13.429
49478W        W21892  24.619  43.360   2.186
49479W        W21893  40.485  12.342   1.269
49480W        W21894  35.454  18.568   4.188
49481W        W21895   5.301  20.194  13.946
49482W        W21896  20.260   1.945  10.424
49483W        W21897   2.470  34.539  13.994
49484W        W21898  22.588  34.603   3.862
49485W        W21899   1.886  35.367   2.340
49486W        W21900  36.914  44.758  14.394
49487W        W21901  21.526   8.270  14.016
49488W        W21902  16.616  10.158   2.665
49489W        W21903  22.608  24.593   1.215
49490W        W21904  44.765  16.232   1.354
49491W        W21905  13.812  29.512   3.231
49492W        W21906  29.992  23.206  11.433
49493W        W21907  34.385  27.148   0.478
49494W        W21908  15.299  31.590  14.823
49495W        W21909  18.072  36.363  12.460
49496W        W21910  14.302  16.630   0.775
49497W        W21911  29.120  33.915  10.492
49498W        W21912  35.860  16.786   2.770
49499W        W21913  31.471   8.886  10.555
49500W        W21914  18.685  20.265   2.662
49501W        W21915   4.320  35.498   0.274
49502W        W21916   9.381  16.670   0.939
49503W        W21917  12.280   4.923  10.574
49504W        W21918  33.574  37.521  10.449
49505W        W21919  17.731  37.034  13.036
49506W        W21920  39.814  27.664   4.722
49507W        W21921   6.428   6.826   2.399
49508W        W21922  21.176  22.185   4.239
49509W        W21923   6.237   2.431   0.315
49510W        W21924  21.069  25.211   1.256
49511W        W21925  40.381   2.382   1.388
49512W        W21926  27.673   9.800   2.341
49513W        W21927  39.354  24.112  14.276
49514W        W21928  30.423   1.473   0.745
49515W        W21929  28.963  28.550   2.330
49516W        W21930  31.012  24.538   4.174
49517W        W21931   6.346   1.936   3.176
49518W        W21932  43.788  41.948   3.677
49519W        W21933  16.573   1.817  13.464
49520W        W21934  14.172  37.551   1.757
49521W        W21935  19.766   1.310   1.451
49522W        W21936  22.723  37.043  12.853
49523W        W21937  21.094   1.308  10.891
49524W        W21938   8.808   0.835  11.018
49525W        W21939  43.474   7.801  12.060
49526W        W21940  32.103  13.691   3.243
49527W        W21941   4.304  33.092   2.727
49528W        W21942  21.153  38.330  14.879
49529W        W21943  26.162   8.371   0.964
49530W        W21944   9.657  26.158   4.141
49531W        W21945  20.701   3.267  14.021
49532W        W21946  42.952  44.993  11.947
49533W        W21947   6.738  34.483   2.777
49534W        W21948  25.109  10.340   5.181
49535W        W21949   6.390   0.419  14.764
49536W        W21950   9.645   5.348  14.005
49537W        W21951  32.059  12.250  12.931
49538W        W21952  39.026  27.989   0.865
49539W        W21953  38.852  31.139   0.791
49540W        W21954  14.194  21.577  12.863
49541W        W21955  13.139  13.316   3.356
49542W        W21956  14.722   3.384  12.479
49543W        W21957  15.137  44.942   4.229
49544W        W21958   3.218  38.524   3.308
49545W        W21959  28.453  38.464  11.899
49546W        W21960  38.341  38.396  14.909
49547W        W21961  21.626  29.147   0.814
49548W        W21962  20.066  42.378  13.877
49549W        W21963   0.986  10.182  13.413
49550W        W21964  42.377  31.599   2.406
49551W        W21965   9.204  40.038   4.342
49552W        W21966  23.173   5.723   3.178
49553W        W21967   5.427  21.736   1.233
49554W        W21968  26.172  27.124   2.869
49555W        W21969  10.785   7.196   4.178
49556W        W21970  40.025  25.194   0.752
49557W        W21971  11.291  43.502   1.349
49558W        W21972  28.620  44.446  12.081
49559W        W21973  25.988  15.302  11.029
49560W        W21974  43.284  34.975  13.954
49561W        W21975  29.082   1.308   0.945
49562W        W21976  35.072  19.071  11.066
49563W        W21977   5.398  28.459   2.338
49564W        W21978  25.045  23.616   0.296
49565W        W21979  19.642  27.656   3.643
49566W        W21980   7.841  19.140   2.211
49567W        W21981  25.969  13.177   4.310
49568W        W21982  30.003  30.420  11.868
49569W        W21983  37.543   6.420  14.762
49570W        W21984  10.215  41.854   0.478
49571W        W21985  31.499  36.370  12.855
49572W        W21986  35.068  39.375  12.085
49573W        W21987  40.939  43.495   2.359
49574W        W21988  13.278  32.025  12.885
49575W        W21989  44.262  14.318  12.834
49576W        W21990  23.556  20.187   2.184
49577W        W21991  26.648  18.559  13.058
49578W        W21992  23.150  34.868   4.264
49579W        W21993  42.415   3.396  14.423
49580W        W21994  26.683  26.568   0.282
49581W        W21995  29.009  41.433   1.766
49582W        W21996  41.362  20.646   1.327
49583W        W21997  39.894  38.044   0.346
49584W        W21998  40.402  33.056  13.981
49585W        W21999  12.189   5.715   3.335
49586W        W22000  23.540  39.999  14.415
49587W        W22001  35.856  20.598   1.720
49588W        W22002  25.672   8.885   2.213
49589W        W22003  33.503  38.071  12.068
49590W        W22004  36.074  27.164   4.760
49591W        W22005  13.775  40.014  10.630
49592W        W22006  28.044  12.782   3.768
49593W        W22007   0.749  36.906  10.580
49594W        W22008  24.563   4.910   4.789
49595W        W22009  20.683   2.382  11.486
49596W        W22010  41.875  40.314  13.951
49597W        W22011  26.676  25.566   3.363
49598W        W22012   0.331  22.086   1.701
49599W        W22013  22.534  37.001  14.935
49600W        W22014  28.619   4.821   1.878
49601W        W22015  11.354   4.412   0.880
49602W        W22016   2.395   1.842  12.398
49603W        W22017   9.298  20.758  12.052
49604W        W22018  14.249  26.462   0.451
49605W        W22019  14.261  19.727   0.895
49606W        W22020  43.953  24.002   2.247
49607W        W22021  33.912  14.761  10.592
49608W        W22022  33.408  22.613  11.589
49609W        W22023  14.262  39.932  14.362
49610W        W22024  34.088  29.007   2.848
49611W        W22025  26.538  20.571  14.402
49612W        W22026  16.157  29.076  13.906
49613W        W22027  43.805  42.847  11.082
49614W        W22028  33.093  44.393  11.038
49615W        W22029  18.746  38.057  12.496
49616W        W22030  41.999   6.416  14.370
49617W        W22031  25.009  12.197   1.258
49618W        W22032  23.513  25.048   2.339
49619W        W22033  32.074   4.851   2.821
49620W        W22034  15.761  27.671   3.223
49621W        W22035  40.502  18.246  13.441
49622W        W22036  32.543  17.719  14.961
49623W        W22037   0.317  14.335  11.111
49624W        W22038  17.194   9.160  14.801
49625W        W22039  30.623  26.576   0.335
49626W        W22040  41.419  20.059  14.774
49627W        W22041   6.794  20.076  14.938
49628W        W22042  35.460  27.061   0.294
49629W        W22043  25.993  21.630   2.348
49630W        W22044  21.613  33.524  10.012
49631W        W22045  19.269  20.237  14.881
49632W        W22046  20.135   1.373  14.762
49633W        W22047  13.227  26.207   2.289
49634W        W22048  20.213  38.015  11.901
49635W        W22049  11.151  31.935  13.526
49636W        W22050  12.192  25.537  13.310
49637W        W22051  31.455  17.247   1.396
49638W        W22052   4.851   7.333   0.796
49639W        W22053  41.008  20.111  12.439
49640W        W22054  34.019   5.336   1.283
49641W        W22055  44.371  28.656   4.650
49642W        W22056  42.000  12.696   9.965
49643W        W22057  42.336  18.552   4.187
49644W        W22058  33.476  23.659   5.196
49645W        W22059  22.023  33.465   2.855
49646W        W22060  34.390  22.554  14.965
49647W        W22061  43.014   1.912   2.253
49648W        W22062  28.671  18.560  11.062
49649W        W22063  40.418  32.540   4.153
49650W        W22064  22.569  12.781   4.264
49651W        W22065  32.586  43.797   0.314
49652W        W22066  29.125  10.865   4.344
49653W        W22067  33.437  38.411   4.645
49654W        W22068  20.670  34.464   1.695
49655W        W22069  24.517  11.351   1.932
49656W        W22070  10.323  21.142   2.874
49657W        W22071  39.396  14.248  14.025
49658W        W22072   9.209  18.105  14.976
49659W        W22073  38.475  38.883  14.015
49660W        W22074  44.775  33.080  10.890
49661W        W22075  42.786   9.175   1.227
49662W        W22076  42.461  37.536  11.986
49663W        W22077  37.565  11.133  11.044
49664W        W22078   4.828   4.736  12.553
49665W        W22079   5.728  30.951  10.538
49666W        W22080  44.950  13.641  12.395
49667W        W22081   6.309  34.576  14.032
49668W        W22082  20.537  21.064  10.498
49669W        W22083  37.503  13.261   0.359
49670W        W22084  37.911   7.796  14.394
49671W        W22085  42.806  16.803   4.741
49672W        W22086  28.066  33.021   2.781
49673W        W22087  27.498   0.814  11.025
49674W        W22088  13.801  27.641  14.029
49675W        W22089   0.476  26.186  13.334
49676W        W22090  16.103  36.049  12.876
49677W        W22091  31.014  30.017  12.043
49678W        W22092  31.422  31.971   2.371
49679W        W22093   1.795  36.507  12.535
49680W        W22094  25.187  10.822  11.088
49681W        W22095  41.955  44.909   4.187
49682W        W22096  42.919   7.360   3.187
49683W        W22097  10.632  23.191   3.239
49684W        W22098  37.851  39.536   0.861
49685W        W22099   7.880   4.241  14.003
49686W        W22100  44.953  19.629  13.992
49687W        W22101  40.308  26.701  14.849
49688W        W22102   1.769  27.678  14.879
49689W        W22103  15.804  40.988  14.923
49690W        W22104   4.314  20.247  11.431
49691W        W22105  35.087  36.030   2.788
49692W        W22106  30.098  44.414  11.427
49693W        W22107  18.631  37.033  10.907
49694W        W22108   8.710  40.465  12.943
49695W        W22109  16.663   7.228   4.650
49696W        W22110  32.615  20.189   3.288
49697W        W22111   7.743  30.557   1.368
49698W        W22112  21.047  33.899   4.318
49699W        W22113  22.709  18.058  12.825
49700W        W22114   9.793  22.591   1.731
49701W        W22115   4.264  19.070   3.677
49702W        W22116  10.698  12.333  14.416
49703W        W22117  32.504  11.733   3.827
49704W        W22118  30.155  33.006  14.800
49705W        W22119   4.283  14.152   1.778
49706W        W22120  24.036  13.157   4.822
49707W        W22121  28.467  26.547   2.781
49708W        W22122  12.262   0.924   3.260
49709W        W22123  23.146  37.442   5.279
49710W        W22124   1.775  21.757   3.166
49711W        W22125   3.424  18.083   3.296
49712W        W22126  43.346  22.170   0.329
49713W        W22127  27.947  25.104  14.496
49714W        W22128  12.662  30.129  10.986
49715W        W22129  29.445   5.802   4.351
49716W        W22130  17.145  17.080   2.223
49717W        W22131  20.080  28.983   1.269
49718W        W22132  32.628  43.446   4.839
49719W        W22133  31.506  28.128   2.357
49720W        W22134  39.496  22.587  10.607
49721W        W22135  26.658  30.473  14.420
49722W        W22136  42.282  42.784   2.884
49723W        W22137  41.808  29.141  11.414
49724W        W22138   4.835   0.808   3.654
49725W        W22139  26.176   7.851   1.813
49726W        W22140  19.540  33.589   2.278
49727W        W22141  29.065  14.740   2.324
49728W        W22142  18.699   1.243  12.865
49729W        W22143  16.214  42.497  14.407
49730W        W22144  36.067  12.694  11.609
49731W        W22145  32.019  11.785  12.852
49732W        W22146  40.315  18.111  11.462
49733W        W22147  44.456  39.931  11.511
49734W        W22148   9.727  19.704   3.841
49735W        W22149  44.261   7.877   2.737
49736W        W22150  15.788  20.174   1.317
49737W        W22151  24.489  18.234  12.075
49738W        W22152  40.322  15.191  10.638
49739W        W22153  23.510  34.578  11.908
49740W        W22154  24.201   5.738   2.401
49741W        W22155  13.709  37.973  11.018
49742W        W22156  30.158  35.588   0.947
49743W        W22157  22.172  16.701  11.569
49744W        W22158  38.989  20.610   0.264
49745W        W22159  32.966  24.539  12.442
49746W        W22160  20.208  43.296  13.546
49747W        W22161  31.615  10.256   4.127
49748W        W22162  10.640   3.849   1.250
49749W        W22163  32.477  24.513   1.221
49750W        W22164  14.699  43.414   3.235
49751W        W22165   8.329  27.000  12.019
49752W        W22166  28.447  13.288   2.289
49753W        W22167   9.775  28.445   0.376
49754W        W22168  41.034  42.297   4.303
49755W        W22169  31.111  39.480   3.214
49756W        W22170  26.588  42.793  12.387
49757W        W22171  33.958  32.000   3.190
49758W        W22172  16.086  15.741   1.380
49759W        W22173   2.734   5.224  12.479
49760W        W22174  24.614  31.568  12.952
49761W        W22175  39.023  37.476   0.272
49762W        W22176  29.154  41.438  13.851
49763W        W22177  34.518  41.365  13.363
49764W        W22178  37.511   5.838  14.002
49765W        W22179   4.341  28.627   4.339
49766W        W22180  31.619   2.325  14.943
49767W        W22181  34.501  14.614  11.862
49768W        W22182  35.104  44.810   1.430
49769W        W22183  24.119   5.239   4.786
49770W        W22184  35.466  21.175   0.334
49771W        W22185  41.030  36.008   3.188
49772W        W22186  28.525  41.823   0.321
49773W        W22187  29.999   6.264   2.892
49774W        W22188  10.688  15.628   4.114
49775W        W22189   4.704  31.539   4.657
49776W        W22190  27.077   9.222  10.500
49777W        W22191  31.901  20.219  13.936
49778W        W22192  38.567  20.120   2.229
49779W        W22193   6.845   4.248  12.342
49780W        W22194  18.704  12.226  10.608
49781W        W22195  37.921  15.140  10.643
49782W        W22196  13.698  41.031  14.984
49783W        W22197  19.767  27.944  12.890
49784W        W22198  39.524  14.202  14.863
49785W        W22199   7.904  23.991   0.865
49786W        W22200  44.381  14.752   1.916
49787W        W22201  15.676  42.897  14.428
49788W        W22202   3.264   8.403   3.201
49789W        W22203  23.621  40.885   3.164
49790W        W22204  25.151  40.535   4.237
49791W        W22205  17.283  23.547  14.386
49792W        W22206   0.341  33.601   0.412
49793W        W22207  11.257   9.761   2.697
49794W        W22208  14.782   0.964  13.937
49795W        W22209  10.802   9.232   0.803
49796W        W22210  16.684  38.878  14.985
49797W        W22211  16.576  10.153  10.592
49798W        W22212  10.361  39.435  13.835
49799W        W22213  28.128   6.751   2.206
49800W        W22214  44.927  14.234   4.277
49801W        W22215  25.140  27.171  13.476
49802W        W22216  25.178   9.887  12.863
49803W        W22217   6.765  14.340  14.020
49804W        W22218   5.699  26.014  10.636
49805W        W22219  37.503  41.453  14.381
49806W        W22220  26.628  27.498  14.854
49807W        W22221  41.345  11.651   0.747
49808W        W22222  21.695   2.288  12.868
49809W        W22223  30.123  32.622  14.770
49810W        W22224  40.826  16.252   3.703
49811W        W22225  14.334  24.213   2.850
49812W        W22226   9.754  27.009   1.839
49813W        W22227  44.460  14.238  10.984
49814W        W22228   6.203  13.193  14.948
49815W        W22229  26.956  14.650  12.434
49816W        W22230  18.144  28.483  12.447
49817W        W22231  11.285  38.056  11.554
49818W        W22232  18.745   1.774   4.161
49819W        W22233  36.094  14.221  14.484
49820W        W22234  36.358  41.968   2.365
49821W        W22235  20.615   6.344   1.217
49822W        W22236  20.077   3.261  12.871
49823W        W22237  31.610   8.236  11.974
49824W        W22238  28.582  34.071   1.695
49825W        W22239   6.371  23.623  13.980
49826W        W22240  30.477  33.435   3.154
49827W        W22241   7.831  36.371  10.473
49828W        W22242  21.577   8.253   3.637
49829W        W22243  37.041  30.981  10.948
49830W        W22244  42.988  31.075   3.348
49831W        W22245   0.429  39.379   3.778
49832W        W22246  21.103  17.795   0.325
49833W        W22247  12.786  10.709   1.359
49834W        W22248  10.654  12.719  14.516
49835W        W22249   6.736   5.829  11.536
49836W        W22250  43.781  28.560   0.894
49837W        W22251  13.739  33.027   4.304
49838W        W22252   1.879  43.462   1.908
49839W        W22253  24.488  10.197   4.248
49840W        W22254   2.271  26.626  14.458
49841W        W22255   3.252   9.259   4.617
49842W        W22256  33.961   6.734  12.036
49843W        W22257  38.878  32.977   0.390
49844W        W22258   9.800  31.140  14.002
49845W        W22259  12.812  34.972   4.727
49846W        W22260  36.890  13.639   4.710
49847W        W22261   1.392  10.851  14.329
49848W        W22262  19.124  17.261  11.000
49849W        W22263   2.418   1.277  10.895
49850W        W22264   1.315  21.227  14.764
49851W        W22265  34.382  15.635   0.740
49852W        W22266  24.648  21.254  11.933
49853W        W22267   7.736   4.219  10.608
49854W        W22268  28.169  39.021   0.934
49855W        W22269  20.206  20.109   1.899
49856W        W22270   1.796  12.220  11.576
49857W        W22271  40.457  44.849  10.620
49858W        W22272  20.178  21.651   4.162
49859W        W22273  34.930  13.112  10.466
49860W        W22274   3.410  30.465   0.349
49861W        W22275  40.305  30.613   3.149
49862W        W22276  28.164  41.419   3.231
49863W        W22277  43.934  24.567   0.949
49864W        W22278  33.398  17.615  10.634
49865W        W22279  16.575  42.968  14.004
49866W        W22280   6.706  27.145  11.883
49867W        W22281   0.953  12.847   0.790
49868W        W22282  41.411   2.781   4.633
49869W        W22283  31.095  18.744   1.925
49870W        W22284  28.635   0.904  10.999
49871W        W22285  44.898   2.882   0.912
49872W        W22286   0.429  31.087   4.762
49873W        W22287  26.489  35.508   1.766
49874W        W22288  35.866   4.320  12.480
49875W        W22289  15.319  37.949  12.469
49876W        W22290  40.327  32.058   0.861
49877W        W22291  19.237  28.182  11.082
49878W        W22292  20.633   7.683  12.830
49879W        W22293  16.659  14.742  14.937
49880W        W22294  37.398  15.147   1.732
49881W        W22295  21.050   7.317   0.472
49882W        W22296  31.130  28.986   4.160
49883W        W22297  20.524  11.320   4.690
49884W        W22298  37.449  25.614   1.795
49885W        W22299   8.207  13.835  13.409
49886W        W22300  12.135   3.387  12.480
49887W        W22301  18.552  32.555  13.392
49888W        W22302  16.273  14.283   0.866
49889W        W22303  23.064  30.018   1.329
49890W        W22304   8.874  16.105  10.600
49891W        W22305  29.028  29.463   2.836
49892W        W22306  34.505  34.560  12.833
49893W        W22307  17.087  28.058   0.346
49894W        W22308   5.249  30.590   4.318
49895W        W22309  41.481  16.575  10.433
49896W        W22310  24.647   7.696   2.856
49897W        W22311  31.045  39.395  11.478
49898W        W22312  39.809  21.662  14.499
49899W        W22313  35.517   0.818  12.064
49900W        W22314  41.888  37.343   4.733
49901W        W22315  29.109  19.575  12.418
49902W        W22316  44.850  33.434   0.927
49903W        W22317  26.476  32.076   1.333
49904W        W22318  33.998  15.161  14.512
49905W        W22319   4.315   2.226   4.353
49906W        W22320   8.384  27.570  13.325
49907W        W22321  24.194  10.218   3.850
49908W        W22322  11.167  43.932   1.751
49909W        W22323   7.891  44.815  12.541
49910W        W22324  11.701  15.190  14.468
49911W        W22325  13.644  35.452   2.774
49912W        W22326   4.877  37.054   1.291
49913W        W22327   4.831  15.302   3.862
49914W        W22328   7.711  30.933  14.760
49915W        W22329   4.259  11.150   1.380
49916W        W22330   8.890  42.859   0.412
49917W        W22331  23.985  33.508   1.742
49918W        W22332  27.497  21.706  14.915
49919W        W22333  32.044   4.324   4.683
49920W        W22334  33.436  42.372   1.738
49921W        W22335   0.783  43.468  11.865
49922W        W22336  30.043  29.613   2.329
49923W        W22337  29.112   5.889  14.384
49924W        W22338   9.691  27.538  10.614
49925W        W22339   1.837  27.167   4.228
49926W        W22340  18.652   7.331  12.092
49927W        W22341  20.662  18.283   1.317
49928W        W22342  19.240  27.969   4.791
49929W        W22343  17.285   9.277  12.424
49930W        W22344  33.080  29.147   4.631
49931W        W22345  37.573  31.985   1.306
49932W        W22346  14.112  11.659  14.471
49933W        W22347  39.386  24.194   0.297
49934W        W22348  43.494  27.533  13.357
49935W        W22349  40.000  29.009  11.040
49936W        W22350  21.511  42.452   4.725
49937W        W22351  11.767  26.017  11.094
49938W        W22352   5.880  10.305   4.664
49939W        W22353   1.436  23.128  13.544
49940W        W22354  30.608  37.958  13.838
49941W        W22355  17.677  12.641  10.627
49942W        W22356  35.524   8.813   5.163
49943W        W22357  24.653  13.741  10.970
49944W        W22358  30.508  42.304   4.153
49945W        W22359  27.677  34.987  14.993
49946W        W22360   7.394  15.608   4.226
49947W        W22361   9.208   2.965   2.261
49948W        W22362  34.510  29.562  14.450
49949W        W22363  21.525  19.663  14.898
49950W        W22364  41.451  23.197   3.829
49951W        W22365   2.938   8.880  14.322
49952W        W22366  24.612  14.785  12.916
49953W        W22367  43.863   6.266  10.561
49954W        W22368   4.349  13.777  11.455
49955W        W22369  27.638  18.118  13.356
49956W        W22370  36.892  11.368   1.890
49957W        W22371  42.968  32.397  13.017
49958W        W22372  22.721  43.458  10.611
49959W        W22373   6.811   1.875   4.294
49960W        W22374  36.406  18.776   4.258
49961W        W22375  13.331  35.861  11.392
49962W        W22376  35.965  29.114   1.450
49963W        W22377  32.127  24.534   0.461
49964W        W22378  33.103  31.420  11.992
49965W        W22379  13.736   4.942  10.998
49966W        W22380  19.643  36.053   3.764
49967W        W22381  39.416  19.136   3.783
49968W        W22382  29.976  33.421  12.860
49969W        W22383  38.067  14.684  14.981
49970W        W22384  41.408  35.424   4.228
49971W        W22385  29.127   6.412   3.194
49972W        W22386  42.804  30.019   4.750
49973W        W22387  16.584  15.317   1.358
49974W        W22388  40.805  24.707   3.374
49975W        W22389   2.803  28.496  11.574
49976W        W22390  41.991   0.777   5.198
49977W        W22391  11.716  36.086   1.451
49978W        W22392  17.656  17.711  11.016
49979W        W22393   0.787  31.442   0.822
49980W        W22394  17.787  31.646  12.939
49981W        W22395  44.931  29.578   3.725
49982W        W22396  22.731   6.846  14.313
49983W        W22397  17.600   8.315   2.814
49984W        W22398   5.275  11.156   1.916
49985W        W22399  26.687  22.015  14.799
49986W        W22400  37.936   0.405  12.514
49987W        W22401  26.141  38.981  13.036
49988W        W22402  19.585  13.834  12.054
49989W        W22403  18.626  10.671  13.051
49990W        W22404  21.177  43.981   2.272
49991W        W22405  17.170   6.706  10.093
49992W        W22406  18.643   9.223  14.780
49993W        W22407  27.670  34.492  12.510
49994W        W22408  37.377  26.167  13.049
49995W        W22409  26.097   2.277   1.224
49996W        W22410   0.301   1.267  10.440
49997W        W22411  25.116  23.070   1.905
49998W        W22412  13.198  41.342   2.809
49999W        W22413  33.403   2.742  10.497
50000W        W22414  21.184   3.422  14.022
50001W        W22415  30.993  35.583  12.513
50002W        W22416  23.672  15.325  12.449
50003W        W22417  36.846  42.992  14.418
50004W        W22418  24.654  28.450  14.475
50005W        W22419  19.165  41.419   0.338
50006W        W22420  30.112  25.003   0.262
50007W        W22421  26.509  37.540  14.354
50008W        W22422  24.009  40.018  12.355
50009W        W22423   5.193  23.498   2.852
50010W        W22424  21.127   9.885  12.508
50011W        W22425  12.643  20.739  11.601
50012W        W22426  11.175  25.991   4.645
50013W        W22427  11.812  31.901   0.408
50014W        W22428  34.995  38.990   2.683
50015W        W22429  42.941  41.966   3.319
50016W        W22430  26.677  16.690   3.190
50017W        W22431  29.038  23.215  11.923
50018W        W22432  34.944  19.733  10.892
50019W        W22433  28.120  29.048   4.703
50020W        W22434   6.280  18.238  10.016
50021W        W22435  44.357   0.791   4.265
50022W        W22436  28.988   7.775   3.774
50023W        W22437  15.659   4.207   9.975
50024W        W22438  33.116  14.122  12.454
50025W        W22439  28.564  28.581  14.394
50026W        W22440  36.504   2.389  12.911
50027W        W22441   4.940  24.010  11.539
50028W        W22442  35.077  18.131  10.438
50029W        W22443  42.282  30.105  14.329
50030W        W22444   8.184  24.685  14.974
50031W        W22445  20.610   1.241  14.859
50032W        W22446  43.335  35.083   3.855
50033W        W22447  38.465  32.425   0.873
50034W        W22448   6.314  39.912  11.048
50035W        W22449  37.392   5.262   1.888
50036W        W22450  28.941  28.522  14.996
50037W        W22451  35.529  10.696  13.947
50038W        W22452  15.806  28.047  14.002
50039W        W22453   0.449   4.812   1.287
50040W        W22454  29.174  40.973  11.001
50041W        W22455  42.938  22.103   3.219
50042W        W22456  33.462  18.677  12.461
50043W        W22457   0.832  30.526   3.798
50044W        W22458  43.290   6.371   2.217
50045W        W22459  21.726  16.244   4.329
50046W        W22460  15.787   2.400  11.608
50047W        W22461  42.487  22.182  11.036
50048W        W22462   3.336  16.260  12.007
50049W        W22463  37.412  24.978  13.893
50050W        W22464  44.444  44.822   0.273
50051W        W22465   9.363   7.265   4.284
50052W        W22466  39.389  41.026  14.014
50053W        W22467  41.887  33.411  10.572
50054W        W22468  11.193  35.361  13.480
50055W        W22469  21.261   6.200  13.368
50056W        W22470   0.909  35.981   2.705
50057W        W22471  13.204  28.485  12.938
50058W        W22472  30.020  42.898  12.869
50059W        W22473  40.887  11.829  10.486
50060W        W22474   3.835  14.598  12.473
50061W        W22475  20.042  13.650  11.002
50062W        W22476  32.976  27.168  14.028
50063W        W22477  11.804  15.815   5.294
50064W        W22478   5.262  26.186  11.939
50065W        W22479  19.746  12.126   4.205
50066W        W22480  19.567  24.510   0.954
50067W        W22481  19.652  26.171  14.296
50068W        W22482   2.299   8.317  12.021
50069W        W22483  41.848  14.793  14.303
50070W        W22484  39.457  38.565  12.495
50071W        W22485  35.419  20.623   0.283
50072W        W22486  39.994  19.760   3.317
50073W        W22487  15.239  28.594  10.436
50074W        W22488  34.988   6.322   1.266
50075W        W22489  17.658  22.593  10.428
50076W        W22490  29.609  36.953  10.423
50077W        W22491  40.344   8.160   1.787
50078W        W22492  12.628  38.834   1.275
50079W        W22493  24.620  39.314   0.731
50080W        W22494  29.950  23.509  13.376
50081W        W22495  16.102  37.860   4.114
50082W        W22496  14.834  37.001  13.847
50083W        W22497  18.681  17.122   5.102
50084W        W22498  21.153  10.842  13.468
50085W        W22499   1.793  15.678   3.261
50086W        W22500   1.385  22.598   3.259
50087W        W22501  28.609  23.015   4.758
50088W        W22502  39.546  44.454   4.351
50089W        W22503  30.504  24.978   3.192
50090W        W22504  21.163  34.099   0.400
50091W        W22505  28.033  16.115   3.168
50092W        W22506  37.918  18.581   2.396
50093W        W22507  14.221  17.185   4.230
50094W        W22508  33.952  22.159   3.852
50095W        W22509   5.412  34.890   2.861
50096W        W22510   7.890   2.837   0.377
50097W        W22511  23.692  38.999   4.120
50098W        W22512   3.432   4.783   2.847
50099W        W22513  37.425  13.769   1.240
50100W        W22514  41.845  19.183   3.229
50101W        W22515  18.122  28.535  11.385
50102W        W22516  31.075   4.881   5.144
50103W        W22517  39.901   4.925  13.449
50104W        W22518  37.336  30.650   2.893
50105W        W22519  10.167  38.362   2.876
50106W        W22520   9.388  34.600  13.503
50107W        W22521   9.310  13.182   1.382
50108W        W22522  18.732  38.519  10.924
50109W        W22523  44.963  22.691   3.713
50110W        W22524  38.070  42.413  11.462
50111W        W22525   1.326  39.932  14.384
50112W        W22526  33.949  10.181   3.737
50113W        W22527  32.079   7.805   3.652
50114W        W22528  16.254  16.737  11.569
50115W        W22529  20.222  16.213   1.342
50116W        W22530   1.773  31.033  10.419
50117W        W22531  15.257  19.624  12.544
50118W        W22532  26.521  31.043  12.015
50119W        W22533  24.021  21.114   5.127
50120W        W22534  31.146  33.118  14.460
50121W        W22535  42.370   8.885  12.070
50122W        W22536  13.600  34.610   0.416
50123W        W22537   8.654  11.373   0.462
50124W        W22538   5.248   5.888  12.840
50125W        W22539   7.397   8.823   0.402
50126W        W22540  18.617  34.426   4.214
50127W        W22541   7.741   3.762  12.540
50128W        W22542  17.224  42.391  12.528
50129W        W22543  24.708  15.624  12.903
50130W        W22544  40.433   4.268   0.962
50131W        W22545  31.514  39.852   4.187
50132W        W22546   4.276  44.394   0.853
50133W        W22547   1.749  36.529  11.124
50134W        W22548  29.126  26.666   2.330
50135W        W22549  39.847  26.079  10.568
50136W        W22550  19.545  43.879  14.927
50137W        W22551   1.334  13.297  13.931
50138W        W22552  14.114  16.775  12.426
50139W        W22553  21.101  32.920   4.651
50140W        W22554   3.848   0.852   1.314
50141W        W22555  21.611  35.569   0.863
50142W        W22556  14.271   0.935  11.441
50143W        W22557   1.239  42.389   2.804
50144W        W22558  24.998   7.835   2.334
50145W        W22559  17.668  33.611   3.216
50146W        W22560  32.394  41.331  12.501
50147W        W22561   0.841  14.293   2.293
50148W        W22562   4.275  30.628  12.052
50149W        W22563  28.147   2.338   0.911
50150W        W22564  31.130   0.322   1.907
50151W        W22565  18.675  38.932  13.026
50152W        W22566   6.424  28.549   1.296
50153W        W22567   5.319  43.489   2.838
50154W        W22568  14.661  35.493   2.698
50155W        W22569  35.408  37.080   1.770
50156W        W22570  44.317   3.752   0.834
50157W        W22571  12.263  16.191   4.733
50158W        W22572  19.539  33.917  13.890
50159W        W22573  36.534  39.397  13.883
50160W        W22574  38.396  34.095   4.655
50161W        W22575  14.704  31.511   4.270
50162W        W22576  19.538  23.641   1.805
50163W        W22577   6.841   2.302   4.132
50164W        W22578  40.827  16.635   1.818
50165W        W22579  42.865   3.309  13.927
50166W        W22580  28.131  29.959   3.384
50167W        W22581   9.801   7.668   1.286
50168W        W22582   6.321  33.126  14.877
50169W        W22583  29.161  41.825   2.900
50170W        W22584  44.414  17.105  11.023
50171W        W22585  44.375   5.297  10.429
50172W        W22586  14.794  19.086  11.958
50173W        W22587  39.417  33.589   3.703
50174W        W22588   1.934  26.491  14.465
50175W        W22589   7.277  43.323   1.780
50176W        W22590   5.241  40.508   5.781
50177W        W22591  16.616  17.177  14.489
50178W        W22592  28.063  12.287  10.555
50179W        W22593   6.677  22.510  10.601
50180W        W22594  30.024  12.756   4.628
50181W        W22595   5.848  21.716   2.860
50182W        W22596  25.571  10.207  13.835
50183W        W22597  36.999  25.049   4.204
50184W        W22598  26.573   0.910  14.352
50185W        W22599  16.248  18.104  11.087
50186W        W22600  35.041   4.798   5.211
50187W        W22601  41.409  33.403  12.870
50188W        W22602  32.539  28.451   1.271
50189W        W22603  23.233  26.573   1.781
50190W        W22604  13.755   9.367  13.375
50191W        W22605  14.169  42.377   2.771
50192W        W22606  44.364  12.857   4.155
50193W        W22607  23.510  11.811  14.894
50194W        W22608  29.511  18.255  13.362
50195W        W22609  30.488  36.030  14.018
50196W        W22610  30.035  36.501  11.555
50197W        W22611  27.963  30.117   2.381
50198W        W22612   8.734   3.775  10.559
50199W        W22613   8.831   0.743   3.257
50200W        W22614  24.509  13.782   3.827
50201W        W22615  17.198  31.053   3.736
50202W        W22616  34.485  17.233   0.793
50203W        W22617  17.746  20.667  12.399
50204W        W22618  41.460   1.817   1.222
50205W        W22619   8.807  28.096   4.284
50206W        W22620  33.598  13.191  11.473
50207W        W22621   3.850  13.719   2.278
50208W        W22622  27.615  37.527   1.883
50209W        W22623  24.536  18.707   2.708
50210W        W22624  41.332  12.264  12.986
50211W        W22625  33.934  16.210   0.807
50212W        W22626  38.945  21.069  10.906
50213W        W22627  33.475   7.814  10.563
50214W        W22628  40.532   1.869   2.804
50215W        W22629   0.374  41.844   1.833
50216W        W22630  42.867   0.392   4.194
50217W        W22631  20.204  44.279  14.464
50218W        W22632  15.314  32.129   4.122
50219W        W22633  40.447  21.071   5.273
50220W        W22634  28.117  34.386  14.360
50221W        W22635  41.973  43.426   1.329
50222W        W22636  24.228  20.562  14.426
50223W        W22637  30.629  23.038   2.380
50224W        W22638  11.175  37.910  10.414
50225W        W22639   3.879  40.428   9.593
50226W        W22640  31.007   4.852  11.044
50227W        W22641  31.061  26.082   4.151
50228W        W22642  23.699  36.077   4.774
50229W        W22643  24.174  41.847   0.425
50230W        W22644  19.161  23.053   3.382
50231W        W22645  41.829  33.491  11.874
50232W        W22646  20.678  11.786   3.231
50233W        W22647   6.208  17.294   0.413
50234W        W22648   0.886  24.680   4.662
50235W        W22649  29.001  15.163  11.481
50236W        W22650   2.855  44.941  13.875
50237W        W22651  30.160   4.241  11.868
50238W        W22652  35.958  14.596  12.977
50239W        W22653  18.115  23.563  12.412
50240W        W22654  24.049  28.147   4.691
50241W        W22655   7.907   7.889  14.511
50242W        W22656  37.845   2.939  14.982
50243W        W22657   3.824  15.677   3.847
50244W        W22658  13.643  24.224   3.773
50245W        W22659   2.467  37.839   2.342
50246W        W22660   1.243  25.588  14.280
50247W        W22661   5.309  15.713  13.358
50248W        W22662   6.774  11.270  13.411
50249W        W22663  11.760  15.586  14.886
50250W        W22664   0.839   3.729  10.998
50251W        W22665  25.472  28.166  13.028
50252W        W22666   4.840  13.628   1.906
50253W        W22667  12.297  25.684   4.176
50254W        W22668  27.570  34.091  14.824
50255W        W22669  23.172  40.344  12.342
50256W        W22670  23.033  35.532   4.131
50257W        W22671  40.871  14.257  14.029
50258W        W22672   9.676  39.370   4.646
50259W        W22673  17.299  42.407  14.449
50260W        W22674  30.037  37.859   3.196
50261W        W22675  10.750  14.605  13.958
50262W        W22676  19.704  28.130   3.766
50263W        W22677   0.334  31.137  12.859
50264W        W22678   7.899  17.303   1.759
50265W        W22679   3.717  12.168   0.323
50266W        W22680   8.236   2.289   2.813
50267W        W22681  41.371   9.842  13.024
50268W        W22682  17.093  35.023   4.640
50269W        W22683  32.590  14.831   3.218
50270W        W22684   5.199  14.215  11.552
50271W        W22685  40.978  29.431   0.899
50272W        W22686  35.052  23.660   2.690
50273W        W22687  37.995  25.509   3.702
50274W        W22688  18.547  11.141  13.543
50275W        W22689  41.493  20.206   4.306
50276W        W22690  41.458  27.053  12.479
50277W        W22691   2.794  14.165   2.324
50278W        W22692  15.241   7.676  10.939
50279W        W22693  37.551  35.961   3.258
50280W        W22694   2.369   9.290  10.492
50281W        W22695  29.452  26.703   3.152
50282W        W22696   5.789   4.366   3.786
50283W        W22697  25.496   2.312  11.964
50284W        W22698  12.767   1.383  13.427
50285W        W22699  44.343  15.682  14.876
50286W        W22700  29.024   6.422  11.975
50287W        W22701   3.368  10.183  10.929
50288W        W22702   1.943  19.169  13.842
50289W        W22703  12.820  38.915   0.283
50290W        W22704   8.273  26.968  12.918
50291W        W22705   2.360  42.004   2.277
50292W        W22706  37.377   3.748   2.736
50293W        W22707  43.336   0.821  14.950
50294W        W22708  25.494  36.482   0.839
50295W        W22709  31.609  34.451  12.571
50296W        W22710  22.577  29.028  11.020
50297W        W22711  28.129  33.426  13.489
50298W        W22712  12.150  42.369   3.339
50299W        W22713  34.898  26.149  10.975
50300W        W22714  17.755  19.226  14.842
50301W        W22715  24.107  44.300   2.792
50302W        W22716  39.349  43.369   4.662
50303W        W22717  42.851  20.609  10.145
50304W        W22718  31.538  34.111  10.424
50305W        W22719  44.927  19.622   4.272
50306W        W22720  34.400  17.560   1.778
50307W        W22721  22.665  13.834  10.113
50308W        W22722  36.925  27.162   2.199
50309W        W22723  29.509  10.152   4.317
50310W        W22724  15.689  12.650   1.363
50311W        W22725  35.980  24.514  12.393
50312W        W22726  31.982  23.156   2.203
50313W        W22727  31.628   5.768  14.796
50314W        W22728  16.312   2.319   3.331
50315W        W22729  12.758  12.730  12.053
50316W        W22730  28.022  14.154  12.094
50317W        W22731  10.211  28.642  14.341
50318W        W22732  21.100  41.460   2.319
50319W        W22733  33.887  37.959   4.333
50320W        W22734  44.004   3.714  12.079
50321W        W22735  30.491  17.097   1.447
50322W        W22736  42.904  25.096   2.737
50323W        W22737  37.830  27.591  13.353
50324W        W22738   2.721   0.751  14.971
50325W        W22739  10.192  24.709   0.920
50326W        W22740  12.357  29.467  11.110
50327W        W22741  44.376  39.953  10.974
50328W        W22742  33.044  41.846   3.284
50329W        W22743  39.335   2.859  14.008
50330W        W22744  33.064   6.921  10.984
50331W        W22745  13.631  11.747   4.276
50332W        W22746   9.709  36.365   4.826
50333W        W22747  27.041  23.594  11.582
50334W        W22748  31.085   6.799   2.733
50335W        W22749  17.271  13.294  10.050
50336W        W22750  24.676  30.469  14.963
50337W        W22751  14.718  39.063   2.890
50338W        W22752  37.468  24.018   5.109
50339W        W22753  35.553  39.517   1.356
50340W        W22754  28.564   9.888  10.445
50341W        W22755  28.594  39.988   0.960
50342W        W22756  34.917  37.387  12.944
50343W        W22757  11.155  24.000   2.694
50344W        W22758  35.068  16.605  12.569
50345W        W22759  28.129   9.787   1.791
50346W        W22760  25.145  29.023  12.488
50347W        W22761  16.801  26.039  13.315
50348W        W22762  25.481  22.737   2.188
50349W        W22763  16.754  21.180  14.887
50350W        W22764  27.587  41.355   0.272
50351W        W22765   2.303  37.898  14.418
50352W        W22766  27.123  13.312  12.388
50353W        W22767  36.092   4.899  10.913
50354W        W22768  30.607  40.369   2.351
50355W        W22769   3.218   2.292  14.332
50356W        W22770  43.946  39.517  11.577
50357W        W22771   5.364  32.440   2.803
50358W        W22772   5.358   0.797  14.412
50359W        W22773  27.153  35.374   1.449
50360W        W22774  39.833  21.173  13.857
50361W        W22775  15.092  41.448   4.177
50362W        W22776  30.962  22.180   0.428
50363W        W22777  41.337  35.933  14.030
50364W        W22778   8.683  32.916   4.696
50365W        W22779  32.934  30.561  13.057
50366W        W22780  22.620  42.909  10.932
50367W        W22781  39.421  27.597  10.456
50368W        W22782  40.342  41.959  11.083
50369W        W22783   4.768  10.719   0.761
50370W        W22784  36.985  12.676   4.638
50371W        W22785  10.154  34.947  10.555
50372W        W22786  19.658  17.081  14.298
50373W        W22787  31.485  39.550  13.398
50374W        W22788  16.244  42.024   4.268
50375W        W22789  13.708  10.698   1.366
50376W        W22790  29.125  10.193   5.205
50377W        W22791  33.035   8.287   4.677
50378W        W22792  43.840  13.182  11.103
50379W        W22793  44.945  40.912  13.450
50380W        W22794  32.967  40.903   2.788
50381W        W22795  22.054   5.261  10.598
50382W        W22796  20.584  41.505   3.314
50383W        W22797  18.700  19.041   0.261
50384W        W22798  23.023  26.547  13.498
50385W        W22799  22.646  24.113   4.640
50386W        W22800   8.346  23.672  11.871
50387W        W22801  13.641  24.023  10.475
50388W        W22802   3.896  17.089   3.719
50389W        W22803  34.964  33.397   3.751
50390W        W22804  36.379   2.235   4.792
50391W        W22805   1.293  16.758   2.261
50392W        W22806  11.192  38.439  14.939
50393W        W22807  13.634  40.985   2.387
50394W        W22808  42.410  14.607  12.953
50395W        W22809   3.233  19.625  10.637
50396W        W22810   6.322  30.429  12.988
50397W        W22811  39.374  28.522  10.927
50398W        W22812   0.787  22.026  11.891
50399W        W22813  42.013  11.129   4.668
50400W        W22814  12.788  20.564   3.179
50401W        W22815  12.644  11.673   3.192
50402W        W22816  19.690  30.588   0.893
50403W        W22817  12.157   9.321   4.660
50404W        W22818   8.687  10.172   0.384
50405W        W22819  21.075   4.361   3.282
50406W        W22820  13.317  44.852  11.566
50407W        W22821  33.437   0.893   3.784
50408W        W22822   3.956   6.410   2.665
50409W        W22823   7.690  43.446  13.037
50410W        W22824   3.328  16.788  13.341
50411W        W22825  22.234   3.242  13.952
50412W        W22826  38.967  18.290   0.420
50413W        W22827   5.243  38.953   4.646
50414W        W22828  24.081  33.096   0.958
50415W        W22829  41.038   8.289  13.817
50416W        W22830  10.756  25.531  12.542
50417W        W22831  19.605  36.486   1.742
50418W        W22832  41.971  31.411   1.778
50419W        W22833   5.413  23.006  11.591
50420W        W22834   4.791  35.982   1.282
50421W        W22835  12.631  30.458   1.783
50422W        W22836  27.539  39.983  14.933
50423W        W22837  39.457   0.821   4.649
50424W        W22838  14.154  33.543   0.732
50425W        W22839  10.357  23.545   1.294
50426W        W22840   2.469   4.737   3.789
50427W        W22841   0.484  41.904  13.874
50428W        W22842  44.760  14.590  11.478
50429W        W22843  39.047  40.006  14.948
50430W        W22844   6.289  19.763  13.057
50431W        W22845  12.284   8.396  13.905
50432W        W22846   3.767  41.816  10.505
50433W        W22847  44.447  38.996  12.497
50434W        W22848  13.339  28.543  14.471
50435W        W22849  44.413  42.469  13.368
50436W        W22850   7.669  35.109   5.293
50437W        W22851  39.536   1.737   2.807
50438W        W22852  43.431  42.336   4.339
50439W        W22853  11.825  30.977  10.899
50440W        W22854  12.230  38.404   4.823
50441W        W22855  31.533   4.342  11.583
50442W        W22856  24.638   0.928  11.955
50443W        W22857  33.447  18.103  13.363
50444W        W22858   8.779   2.401   4.164
50445W        W22859  33.971  42.950   2.300
50446W        W22860  13.837  11.234  10.892
50447W        W22861   6.390  33.603  12.569
50448W        W22862  37.548   4.208  11.011
50449W        W22863  31.041  13.663   1.917
50450W        W22864  15.120  29.495   0.378
50451W        W22865   7.848   6.271  13.476
50452W        W22866  36.991   5.701  11.915
50453W        W22867  44.498  25.163  11.973
50454W        W22868  18.191  22.528   2.892
50455W        W22869  12.630   4.806   0.857
50456W        W22870  25.640  28.061   0.875
50457W        W22871  32.475  35.523  12.839
50458W        W22872  40.966  21.567   4.799
50459W        W22873  19.212   5.415   4.663
50460W        W22874   3.456  18.111   1.743
50461W        W22875  14.272   5.278  14.285
50462W        W22876  39.498  24.085  10.576
50463W        W22877  41.902  42.397   2.238
50464W        W22878  26.964  33.954   4.208
50465W        W22879  18.643   7.179   2.351
50466W        W22880  31.097  44.840  14.860
50467W        W22881  20.760  23.638   4.818
50468W        W22882   8.349   5.374  12.856
50469W        W22883   3.399  16.699  14.902
50470W        W22884  18.053   4.376  14.299
50471W        W22885   3.226  14.781   9.940
50472W        W22886   0.275  34.110  14.377
50473W        W22887  29.057  12.181  13.000
50474W        W22888  30.014  38.985  11.488
50475W        W22889   5.312  21.181   4.824
50476W        W22890  40.843  16.661   0.753
50477W        W22891  40.958  17.595  13.815
50478W        W22892   3.235   7.715   4.744
50479W        W22893   7.761   5.702   2.669
50480W        W22894  37.951  10.185  14.775
50481W        W22895   7.724   5.241   3.716
50482W        W22896  27.661  40.822   3.684
50483W        W22897   5.818  30.652  11.906
50484W        W22898   4.352  24.687   3.673
50485W        W22899  38.550   8.178   3.658
50486W        W22900  38.332  37.339  11.399
50487W        W22901  10.180  39.462   4.283
50488W        W22902  19.671  31.092  11.456
50489W        W22903  44.916  15.763   0.870
50490W        W22904  36.452   9.320   4.253
50491W        W22905  36.405   7.769  12.351
50492W        W22906  31.573  23.727  14.843
50493W        W22907   2.346  41.505   4.717
50494W        W22908   1.853   1.358  11.039
50495W        W22909  32.130  22.584  10.929
50496W        W22910   8.404  31.491   2.288
50497W        W22911  42.373   4.438   3.722
50498W        W22912   1.900  27.952   3.760
50499W        W22913   7.830  20.169   0.412
50500W        W22914  14.617  30.020  11.092
50501W        W22915  20.208  36.896   4.753
50502W        W22916  21.653  43.999  13.826
50503W        W22917  11.861   5.712   1.272
50504W        W22918  33.116   8.841   2.730
50505W        W22919  18.107  23.990  14.276
50506W        W22920  28.464  35.510  12.052
50507W        W22921  18.193  40.398  12.054
50508W        W22922   4.922  18.707   2.180
50509W        W22923  17.089  20.172   3.756
50510W        W22924  44.328  29.468   2.199
50511W        W22925  42.863  10.810   0.362
50512W        W22926  40.939  20.597   3.654
50513W        W22927  39.058  24.027  14.322
50514W        W22928  44.322  26.138  14.451
50515W        W22929  27.480  22.134  14.909
50516W        W22930  11.812  23.522  14.018
50517W        W22931  38.514  13.739  12.009
50518W        W22932  21.257  26.498  13.994
50519W        W22933   1.383  41.942  11.514
50520W        W22934  38.510  21.085   0.813
50521W        W22935  18.058   0.836  13.481
50522W        W22936   4.753   7.800   4.296
50523W        W22937  19.542  32.115   3.356
50524W        W22938  25.999  27.060   1.886
50525W        W22939  24.112   5.403  11.477
50526W        W22940   3.217   9.863   1.811
50527W        W22941  15.155  20.653  11.483
50528W        W22942  38.911  32.127   1.296
50529W        W22943  39.877   8.737   1.395
50530W        W22944  43.866   8.734   4.712
50531W        W22945  18.055  33.124  11.411
50532W        W22946  11.262  28.547  10.560
50533W        W22947  25.963  16.727   1.245
50534W        W22948  17.213  43.902   9.518
50535W        W22949  24.629   1.377   1.344
50536W        W22950   5.731   7.287  12.396
50537W        W22951  16.643  30.162   2.795
50538W        W22952   6.856  11.822  14.416
50539W        W22953   7.740  36.363   1.826
50540W        W22954   9.317  11.761   2.398
50541W        W22955  20.142  23.640   2.296
50542W        W22956  37.852   5.702   4.791
50543W        W22957  36.022  17.270  13.047
50544W        W22958  39.027  41.951   0.934
50545W        W22959  20.658  40.850   3.672
50546W        W22960  22.568  15.621  13.357
50547W        W22961   0.811  23.119  11.994
50548W        W22962  18.688  11.268   3.705
50549W        W22963  28.043  12.213   1.361
50550W        W22964  27.602  13.778  14.288
50551W        W22965  23.069  32.578   2.317
50552W        W22966  27.996  40.544   4.809
50553W        W22967   7.757   2.293  13.044
50554W        W22968  43.308   2.779  13.038
50555W        W22969  29.091  39.511   0.399
50556W        W22970  19.634   3.711   0.351
50557W        W22971  20.685   2.379  13.045
50558W        W22972   1.311  17.255   0.807
50559W        W22973  36.975  15.679  13.929
50560W        W22974  30.993  41.510   5.123
50561W        W22975  18.789  15.115  13.034
50562W        W22976  20.736   0.375   4.298
50563W        W22977  44.778  30.987  10.897
50564W        W22978  33.925  15.117  13.946
50565W        W22979  35.490  22.211   1.265
50566W        W22980  43.882  11.782  11.476
50567W        W22981  44.355  34.998   2.852
50568W        W22982  37.465   0.355  13.943
50569W        W22983  11.250  22.076   1.434
50570W        W22984   9.169  32.114   0.427
50571W        W22985  25.174  32.039   2.201
50572W        W22986  28.108  10.691  10.996
50573W        W22987   2.837  31.923  12.481
50574W        W22988  14.155   2.809  12.940
50575W        W22989  14.826   8.673  12.067
50576W        W22990  36.866  43.019  11.021
50577W        W22991   4.942  35.862  10.910
50578W        W22992  32.600   6.347  13.905
50579W        W22993  43.854  16.105   4.815
50580W        W22994  10.165  26.560   4.803
50581W        W22995  32.114  19.054   2.247
50582W        W22996  18.764  32.013   2.208
50583W        W22997  43.280  41.808  11.025
50584W        W22998   1.332   7.869   0.336
50585W        W22999  37.856  41.396   0.755
50586W        W23000   0.875  44.331   0.387
50587W        W23001   2.359  41.390  11.515
50588W        W23002  44.801  17.267   0.434
50589W        W23003  14.239   9.737  12.506
50590W        W23004   0.347   0.811   2.721
50591W        W23005  29.157  23.028  12.345
50592W        W23006   9.776  26.556   4.714
50593W        W23007  22.529  13.184   9.992
50594W        W23008   4.294   9.734   0.483
50595W        W23009  27.095  22.687   1.432
50596W        W23010  27.050  17.124  10.027
50597W        W23011  11.829  42.943   0.379
50598W        W23012  32.073  18.768  11.536
50599W        W23013  38.465  43.835  11.036
50600W        W23014  24.668  29.555   4.251
50601W        W23015  43.907  31.022  13.007
50602W        W23016  30.525  14.152  13.016
50603W        W23017   4.350  28.963  14.970
50604W        W23018  22.176   1.372   1.251
50605W        W23019   1.969  26.994   2.184
50606W        W23020  37.000  14.628   4.781
50607W        W23021  16.306  14.182   1.405
50608W        W23022  43.932  25.032   1.383
50609W        W23023  44.301  14.192  14.376
50610W        W23024  25.135  17.666   1.828
50611W        W23025   4.294   1.356   0.948
50612W        W23026  13.658  12.649  13.806
50613W        W23027  11.633  37.919   0.261
50614W        W23028   9.300  38.915  11.127
50615W        W23029  24.537   7.833   4.805
50616W        W23030  28.031  43.335   2.364
50617W        W23031  17.641  16.200  14.900
50618W        W23032  28.996  11.722  13.358
50619W        W23033  11.812  22.585   4.628
50620W        W23034  17.096   2.877   4.174
50621W        W23035  19.156  23.511   4.352
50622W        W23036  42.790  16.797   0.729
50623W        W23037   8.387  16.684  11.436
50624W        W23038  23.059  32.102   2.838
50625W        W23039  41.383  39.862  13.881
50626W        W23040   8.822  17.763  13.004
50627W        W23041  11.860  24.601  12.573
50628W        W23042  17.735   5.258   1.842
50629W        W23043  34.063  35.089  10.510
50630W        W23044   3.409  18.725  13.537
50631W        W23045  24.552  25.516  11.950
50632W        W23046   8.733  44.908  11.993
50633W        W23047  17.177  42.906   0.938
50634W        W23048  39.988  41.400   1.287
50635W        W23049  37.393  35.954   1.855
50636W        W23050  22.668  30.944   4.281
50637W        W23051  30.465  24.976  13.989
50638W        W23052   3.807  24.708  14.478
50639W        W23053   6.681   3.425   0.264
50640W        W23054  25.675  40.801   2.745
50641W        W23055  44.303  36.511  11.501
50642W        W23056  29.025  12.709  14.948
50643W        W23057   0.841  24.132  12.047
50644W        W23058  31.633   6.251  11.890
50645W        W23059  37.889   1.746   4.223
50646W        W23060  41.788  43.312   2.290
50647W        W23061  18.549  39.456  14.902
50648W        W23062  33.122  33.927  12.887
50649W        W23063  42.382  10.830   1.756
50650W        W23064  28.947  35.911   2.387
50651W        W23065  25.083  12.118  13.846
50652W        W23066  26.094  41.832  12.068
50653W        W23067   0.778  12.199   4.751
50654W        W23068  29.566  24.227  11.095
50655W        W23069   1.429  12.230   4.601
50656W        W23070   8.270  15.194   1.426
50657W        W23071  33.082  22.722  14.005
50658W        W23072  39.029  26.699   1.450
50659W        W23073  42.016  13.599  10.939
50660W        W23074   9.840   9.860  13.915
50661W        W23075  41.323  19.220  11.548
50662W        W23076  21.603  27.619   2.339
50663W        W23077   2.847  37.539   4.133
50664W        W23078  22.522  41.416   1.882
50665W        W23079  34.443  37.857   3.166
50666W        W23080  43.967  11.230   0.733
50667W        W23081   2.408   2.844  12.434
50668W        W23082  22.047  44.776  13.479
50669W        W23083  13.772  14.228   2.375
50670W        W23084  12.257   9.755  14.828
50671W        W23085  43.336  29.570  12.012
50672W        W23086  34.459  27.535  14.484
50673W        W23087   6.386  15.163  11.966
50674W        W23088  10.705   8.311  10.910
50675W        W23089  12.632   1.463   3.674
50676W        W23090  30.921   5.824  13.525
50677W        W23091  33.113  36.458  13.835
50678W        W23092  33.606  44.391  14.296
50679W        W23093   4.842  30.036  14.023
50680W        W23094  24.061   9.276   3.204
50681W        W23095  10.170  10.854  12.533
50682W        W23096  38.819  31.486   2.216
50683W        W23097  28.583  20.534  14.781
50684W        W23098   0.471  11.286   4.657
50685W        W23099  29.429  30.414  13.927
50686W        W23100  32.422   8.173  11.092
50687W        W23101  15.252   4.784   1.437
50688W        W23102  43.823  19.596  12.531
50689W        W23103   7.230  37.898   0.832
50690W        W23104   2.864  42.423  10.903
50691W        W23105  19.607  22.025   1.261
50692W        W23106  39.960  19.761   4.164
50693W        W23107  17.651  13.642  14.833
50694W        W23108  27.085  23.630  11.028
50695W        W23109  44.929   1.328  14.873
50696W        W23110  20.596   6.389  12.557
50697W        W23111  31.085   0.350  11.428
50698W        W23112  20.116  28.099  14.859
50699W        W23113   6.227  43.423  12.473
50700W        W23114  39.027  35.103   0.739
50701W        W23115   9.712  27.649   1.845
50702W        W23116  33.969   0.342  13.961
50703W        W23117  33.952   8.886   0.481
50704W        W23118  12.256  12.825   2.378
50705W        W23119  40.016  19.564   1.428
50706W        W23120  40.371  10.639  11.547
50707W        W23121  31.616   0.820  10.459
50708W        W23122  34.498  25.584   1.743
50709W        W23123  37.427  15.584  11.885
50710W        W23124  10.858  43.383   0.422
50711W        W23125  16.804  36.009  10.917
50712W        W23126  38.918  19.600  11.857
50713W        W23127   6.679  26.113  13.883
50714W        W23128  21.240  26.203  12.516
50715W        W23129  40.042  37.842  11.483
50716W        W23130  22.535  17.204  12.409
50717W        W23131  35.570  20.546   3.658
50718W        W23132   4.790  17.633  11.554
50719W        W23133  15.748  36.080   2.264
50720W        W23134  43.790  15.819  14.968
50721W        W23135   2.728   5.374   2.882
50722W        W23136   4.716  40.414   1.742
50723W        W23137  33.935   5.849  12.075
50724W        W23138   4.834  27.478   3.149
50725W        W23139  43.435  37.984   1.368
50726W        W23140  38.360  25.638  13.356
50727W        W23141  27.981  10.257  10.921
50728W        W23142   1.894   0.923   4.263
50729W        W23143   6.355  31.486  12.095
50730W        W23144   3.794  16.121  11.995
50731W        W23145   9.299  15.647  11.129
50732W        W23146  43.476  26.502  13.465
50733W        W23147  41.347  34.102  12.461
50734W        W23148   4.307  38.382  14.915
50735W        W23149  32.007  37.362   9.934
50736W        W23150  34.976  24.976   2.750
50737W        W23151  26.617   2.762  13.436
50738W        W23152  30.073  23.610  12.966
50739W        W23153  22.114  34.933   0.811
50740W        W23154  19.689  26.502  11.859
50741W        W23155  15.776  41.924  13.994
50742W        W23156  42.947  39.339  14.967
50743W        W23157  13.163  40.467   0.827
50744W        W23158   7.410  32.463  13.952
50745W        W23159  29.991  35.481  10.542
50746W        W23160  37.949  27.070   1.336
50747W        W23161  28.612  39.911   2.350
50748W        W23162  29.952  29.656  10.542
50749W        W23163  25.101  11.272   4.247
50750W        W23164   2.924  33.569  10.408
50751W        W23165  14.648  10.797  10.968
50752W        W23166  42.331   5.358  13.950
50753W        W23167  44.324   3.927  14.759
50754W        W23168  21.187  39.378  11.577
50755W        W23169  39.480  42.971   1.846
50756W        W23170   7.721  35.900  13.994
50757W        W23171  38.039  38.076   0.948
50758W        W23172  12.257   9.876  11.950
50759W        W23173  32.117  28.526  12.970
50760W        W23174  16.714   2.469   2.694
50761W        W23175  19.719  26.155  14.837
50762W        W23176   7.195  44.416  11.412
50763W        W23177   8.229  22.511   1.303
50764W        W23178  25.152  40.891   0.749
50765W        W23179  39.557  29.117   4.202
50766W        W23180  35.418  37.907   2.767
50767W        W23181  37.929   5.892   0.264
50768W        W23182  10.384   5.897   4.791
50769W        W23183  11.665  39.005   1.884
50770W        W23184   3.800  26.514   3.185
50771W        W23185  35.546   4.219  14.393
50772W        W23186  17.751   0.290  13.947
50773W        W23187  30.082  40.986   1.874
50774W        W23188  13.603  34.056   4.806
50775W        W23189  29.583  24.032   2.695
50776W        W23190   9.204   0.784  12.541
50777W        W23191   0.346  13.753   2.872
50778W        W23192   7.808  32.972  10.957
50779W        W23193  21.026  31.559  14.454
50780W        W23194   3.378  25.101   4.725
50781W        W23195  24.663  40.473  13.055
50782W        W23196  17.159   2.256   3.853
50783W        W23197   5.251  21.074   3.184
50784W        W23198   7.240  37.873   3.180
50785W        W23199  14.294  20.041  12.074
50786W        W23200   2.827   2.275  12.470
50787W        W23201  36.540  12.785  13.397
50788W        W23202  22.193  26.962  10.467
50789W        W23203  33.620   3.771  10.938
50790W        W23204  38.040  35.443  14.012
50791W        W23205  12.191  17.174  13.009
50792W        W23206  29.467  37.005  10.890
50793W        W23207  19.080  21.241   1.776
50794W        W23208  29.153   3.233   2.866
50795W        W23209  20.732  32.401  12.391
50796W        W23210  18.192  18.622  12.092
50797W        W23211  34.615   8.355  13.925
50798W        W23212  42.873  22.597  10.566
50799W        W23213  29.474   7.673  11.037
50800W        W23214  13.616  39.048   2.674
50801W        W23215  39.886  36.911   0.375
50802W        W23216  29.576   2.814   2.267
50803W        W23217  27.967  30.645   3.238
50804W        W23218  39.958  28.474  11.942
50805W        W23219  10.724   3.409   3.168
50806W        W23220  42.373  10.274   0.934
50807W        W23221  17.620  29.048  14.471
50808W        W23222  13.745  38.367   0.406
50809W        W23223  37.368   0.341   1.294
50810W        W23224  24.562  42.360   0.848
50811W        W23225  41.445   0.940  13.057
50812W        W23226   2.318  29.124   4.718
50813W        W23227  20.269  18.121   0.848
50814W        W23228  36.496   9.818  10.477
50815W        W23229  23.028   6.863   4.783
50816W        W23230   4.799  28.959  11.373
50817W        W23231  18.067  11.852   1.424
50818W        W23232  31.472  26.614   2.213
50819W        W23233  18.291  17.187   3.868
50820W        W23234   6.839  32.598   3.850
50821W        W23235   2.416   5.403  11.020
50822W        W23236   5.236  39.823  13.905
50823W        W23237  20.144  32.587   3.219
50824W        W23238   5.779  41.998   4.601
50825W        W23239  26.010  27.492   3.227
50826W        W23240  13.620  14.141  12.467
50827W        W23241  27.451  40.863  10.637
50828W        W23242  17.579  19.080  11.604
50829W        W23243   0.742  27.106  12.942
50830W        W23244  38.987  36.521   3.768
50831W        W23245  16.789   9.877   3.224
50832W        W23246  41.932   5.250  13.057
50833W        W23247   4.900  23.506   0.393
50834W        W23248  34.948  10.359   1.837
50835W        W23249  12.837   4.917   2.300
50836W        W23250  11.261   0.815   4.115
50837W        W23251   8.344  38.416  13.878
50838W        W23252   7.176  17.181   4.309
50839W        W23253   5.931  43.793   3.757
50840W        W23254  28.163  19.273  13.316
50841W        W23255   0.457   9.724  11.026
50842W        W23256  27.527  11.631   4.271
50843W        W23257   5.886  29.451   2.331
50844W        W23258  21.244  16.101  13.995
50845W        W23259  28.681  37.921  10.556
50846W        W23260  44.845  20.762   2.217
50847W        W23261  23.618   8.796  14.831
50848W        W23262  18.200  32.979   1.789
50849W        W23263  16.606  25.169   1.276
50850W        W23264  15.150  24.184   2.265
50851W        W23265  29.579  12.192   0.387
50852W        W23266  44.408   0.743   3.314
50853W        W23267  38.493   6.356  10.456
50854W        W23268   8.194  25.472   4.207
50855W        W23269  32.482  36.006  12.522
50856W        W23270  30.438  24.226  10.498
50857W        W23271  44.405  37.431   0.389
50858W        W23272  14.769  24.523  10.995
50859W        W23273   9.386  28.603   4.209
50860W        W23274  14.734  23.189  12.073
50861W        W23275  39.830   9.283  14.966
50862W        W23276  29.976  42.317   1.821
50863W        W23277  31.028   5.430  13.365
50864W        W23278  17.566  39.362   4.302
50865W        W23279  29.002  31.052  13.394
50866W        W23280  40.820  17.100  11.885
50867W        W23281  14.630   1.322  11.455
50868W        W23282  10.183  17.156   0.934
50869W        W23283  20.526  17.608   3.634
50870W        W23284  41.798   6.363   4.288
50871W        W23285  42.785  38.834   3.838
50872W        W23286  28.447  26.501  11.080
50873W        W23287  44.442  14.334   0.417
50874W        W23288  32.922  18.067   3.360
50875W        W23289  20.207  37.993   1.448
50876W        W23290  25.583  23.033  11.115
50877W        W23291  13.610  20.671   3.666
50878W        W23292  16.132  41.391   2.801
50879W        W23293  10.145  15.632  10.923
50880W        W23294  16.104   3.784  14.890
50881W        W23295   6.236  26.183   4.714
50882W        W23296   3.757   8.835   2.840
50883W        W23297  32.892  11.779  12.042
50884W        W23298  36.857  15.648   3.725
50885W        W23299   9.866  34.886   1.838
50886W        W23300  19.225  15.721  11.380
50887W        W23301  10.336   9.214  10.622
50888W        W23302   4.915  33.524  11.970
50889W        W23303  29.605  35.910  14.452
50890W        W23304  22.646  18.678  13.434
50891W        W23305  26.495  17.736   3.693
50892W        W23306   4.789   7.385   3.829
50893W        W23307  26.578  21.619  10.933
50894W        W23308  30.910  35.957  11.392
50895W        W23309  10.177   7.870   3.171
50896W        W23310  28.143   1.319   1.400
50897W        W23311  12.310   6.332  13.334
50898W        W23312   0.474  41.460   3.799
50899W        W23313  25.182  30.488  12.840
50900W        W23314  21.143  32.069  11.612
50901W        W23315   5.281  33.451  12.860
50902W        W23316  37.549  37.012  11.514
50903W        W23317  21.051  26.104   4.221
50904W        W23318   7.416  39.431  10.439
50905W        W23319  27.120  20.244   4.643
50906W        W23320   5.299  23.082  13.048
50907W        W23321  38.513  27.147   2.869
50908W        W23322  13.315  28.650  14.870
50909W        W23323  37.345  28.530   1.334
50910W        W23324  38.928  33.411  14.463
50911W        W23325   8.890   2.783   1.812
50912W        W23326  18.616  39.872   3.789
50913W        W23327   8.823  19.215  12.992
50914W        W23328  25.033  41.369  14.317
50915W        W23329  26.165  25.112  13.802
50916W        W23330  27.660  19.216   0.432
50917W        W23331  34.871  10.659   3.865
50918W        W23332  30.465  38.543  12.993
50919W        W23333   3.400  32.399   0.830
50920W        W23334  16.690   4.361   3.350
50921W        W23335  22.154   7.721   1.296
50922W        W23336  18.204  43.355   0.417
50923W        W23337  24.648   0.807   5.103
50924W        W23338  16.078  11.312  13.903
50925W        W23339  15.783  29.122   0.864
50926W        W23340   1.901  33.550  10.529
50927W        W23341  44.885  10.771   0.951
50928W        W23342  19.245  36.023  12.019
50929W        W23343  23.178  44.878  10.983
50930W        W23344  39.406  35.069  14.793
50931W        W23345   0.299  18.061  13.810
50932W        W23346  30.653  19.150   3.643
50933W        W23347  35.424  44.004   3.158
50934W        W23348  35.893  34.079   5.606
50935W        W23349  19.649  30.457  12.538
50936W        W23350  25.142  31.106   0.389
50937W        W23351  19.134   0.823  10.588
50938W        W23352  10.141  32.142   2.822
50939W        W23353  19.754  32.045   0.733
50940W        W23354  33.396  35.909   4.769
50941W        W23355   7.370  30.465   2.671
50942W        W23356  41.790  40.388  14.924
50943W        W23357  20.172  19.244  12.351
50944W        W23358  11.785  13.767  14.449
50945W        W23359  37.423  32.954   9.980
50946W        W23360  18.732   9.190   2.891
50947W        W23361  39.062  38.364  13.998
50948W        W23362   9.240  44.296  11.070
50949W        W23363  23.531  34.545   2.682
50950W        W23364  22.663   8.765  11.947
50951W        W23365  34.053  30.617   3.353
50952W        W23366  33.086  12.790   1.425
50953W        W23367   3.806  21.725  12.490
50954W        W23368  16.605   3.346  13.800
50955W        W23369  36.851   5.807   1.732
50956W        W23370  28.620  39.977  12.900
50957W        W23371  11.260  34.076  10.997
50958W        W23372  35.517  14.176   2.738
50959W        W23373  19.107  22.660   1.252
50960W        W23374  28.478  41.396  14.949
50961W        W23375  26.980  15.789  13.444
50962W        W23376  28.542   4.311   2.280
50963W        W23377  24.117  17.704  12.057
50964W        W23378   7.827  16.690   4.333
50965W        W23379  10.861  28.014  11.018
50966W        W23380  18.602   0.805  12.041
50967W        W23381  34.012  41.457  10.624
50968W        W23382   3.887  16.680  12.864
50969W        W23383   5.293   9.327   1.443
50970W        W23384  17.193  39.878   1.877
50971W        W23385  43.987   6.368  13.859
50972W        W23386   6.426  14.121   5.296
50973W        W23387  29.969  33.877  11.862
50974W        W23388  28.089  37.422   1.301
50975W        W23389  16.719  19.205  14.339
50976W        W23390   9.376  23.242   1.800
50977W        W23391  12.220   7.674   0.431
50978W        W23392   7.238  33.940  12.460
50979W        W23393  44.371   0.974   2.414
50980W        W23394  30.437  24.226   4.799
50981W        W23395   6.836  19.775   1.912
50982W        W23396  27.456  38.855   1.239
50983W        W23397  11.624  16.204  11.998
50984W        W23398  25.582  17.179  10.470
50985W        W23399  35.047  13.634  11.127
50986W        W23400  15.593  40.942   2.259
50987W        W23401  23.530  12.745   1.911
50988W        W23402  30.622   7.781   1.348
50989W        W23403  22.044   9.666  12.962
50990W        W23404  14.771  22.044  10.428
50991W        W23405   3.299  26.986  13.910
50992W        W23406   1.330  41.490   4.698
50993W        W23407  22.653  25.486  13.793
50994W        W23408  24.507   3.418   2.249
50995W        W23409  27.165  32.431  14.343
50996W        W23410   6.359  20.709   3.767
50997W        W23411  27.134   3.796  10.890
50998W        W23412  22.640  22.588   1.828
50999W        W23413   1.940  16.801  14.481
51000W        W23414  19.623  15.287  13.481
51001W        W23415  16.619  44.838  12.844
51002W        W23416  17.179  21.171  14.373
51003W        W23417   5.814  18.097  14.943
51004W        W23418   8.666   7.764   4.666
51005W        W23419  41.019  39.869  14.368
51006W        W23420  21.192  24.640  10.956
51007W        W23421  22.711  32.509  12.960
51008W        W23422   7.711  10.717   1.410
51009W        W23423  30.966  33.485   1.307
51010W        W23424   4.861  33.054   0.816
51011W        W23425  16.748  32.546  11.040
51012W        W23426  36.559   1.817  11.925
51013W        W23427  31.077  16.115  13.945
51014W        W23428   7.355  36.523   3.156
51015W        W23429  32.549  21.235  11.587
51016W        W23430  20.565  28.083   1.812
51017W        W23431  32.584  10.783   1.721
51018W        W23432  35.524  29.500   1.933
51019W        W23433  14.100   2.289   4.716
51020W        W23434  25.558  28.985  12.538
51021W        W23435  38.899  20.233   4.267
51022W        W23436  21.644  13.145  12.848
51023W        W23437   5.244  13.148  14.965
51024W        W23438  43.943  22.607  12.093
51025W        W23439  24.023   6.238  11.395
51026W        W23440  44.948  27.019   1.809
51027W        W23441   2.801  35.081  13.391
51028W        W23442  22.513  32.973  12.828
51029W        W23443   5.250  10.851  11.511
51030W        W23444  23.532  21.539   1.919
51031W        W23445   1.459  12.175  13.484
51032W        W23446  16.163   9.653  13.880
51033W        W23447  34.424   8.754   1.239
51034W        W23448  36.004  43.305   1.241
51035W        W23449   4.302  36.445  12.030
51036W        W23450  18.286   8.254   1.350
51037W        W23451  43.456  28.570  10.967
51038W        W23452  40.808   0.317   2.282
51039W        W23453  10.765   2.258   0.307
51040W        W23454   5.265  12.328  13.473
51041W        W23455  16.111  19.057   5.766
51042W        W23456  15.764  38.441   1.727
51043W        W23457  39.466  26.014   4.707
51044W        W23458  31.952  19.262   4.609
51045W        W23459  26.599  14.121  13.922
51046W        W23460  11.817  35.077  10.133
51047W        W23461  24.523  27.628   0.930
51048W        W23462  42.386  26.961  11.437
51049W        W23463  43.986  22.634  13.999
51050W        W23464  25.160  16.272  10.424
51051W        W23465  31.044  38.405   2.374
51052W        W23466  28.176  26.559  10.051
51053W        W23467  10.285  21.066   0.478
51054W        W23468  14.745  10.854   0.387
51055W        W23469  18.736   4.720  10.630
51056W        W23470  32.026  28.614   4.634
51057W        W23471  40.855  39.983  12.927
51058W        W23472  18.084  20.757   4.741
51059W        W23473  10.723  27.168   0.960
51060W        W23474  13.176   1.304   0.481
51061W        W23475  20.658   6.734   2.664
51062W        W23476  19.765   1.782   0.783
51063W        W23477  27.948   4.737  13.855
51064W        W23478  22.074  28.482   2.278
51065W        W23479  42.026   7.803   0.473
51066W        W23480  16.733  12.669  13.961
51067W        W23481  12.301  30.907   1.419
51068W        W23482  22.507  37.997   3.839
51069W        W23483  28.164   4.945  10.547
51070W        W23484  15.285  20.593  14.836
51071W        W23485  17.301  37.582  13.820
51072W        W23486   5.332  36.022  13.038
51073W        W23487  24.043   3.447  12.497
51074W        W23488  20.683   0.276   3.809
51075W        W23489  28.583   3.229  12.902
51076W        W23490  36.012  11.164  11.997
51077W        W23491   4.237  30.585   3.349
51078W        W23492  37.935  34.983   2.283
51079W        W23493   7.390  18.165   2.803
51080W        W23494   6.202  21.534   1.904
51081W        W23495   9.756  20.543  11.018
51082W        W23496  39.907  25.525  14.414
51083W        W23497  18.108  42.934   4.690
51084W        W23498  15.677  10.302  12.039
51085W        W23499  43.937  42.322   3.171
51086W        W23500  37.040  25.986  12.861
51087W        W23501  37.453  22.681  14.328
51088W        W23502  24.532   9.734  11.016
51089W        W23503  42.807  33.009   2.251
51090W        W23504  19.271  12.770  13.377
51091W        W23505  43.005   5.255  13.817
51092W        W23506   5.347  12.792   9.496
51093W        W23507  36.975  18.558  11.508
51094W        W23508  12.813   5.427  11.994
51095W        W23509   9.871  42.417   2.765
51096W        W23510  20.636  11.626   2.295
51097W        W23511  15.596   2.267  13.870
51098W        W23512  40.880   2.723   1.916
51099W        W23513  37.011   0.371   0.731
51100W        W23514  36.949   3.274   3.645
51101W        W23515  35.604   1.954  11.065
51102W        W23516  36.857   3.882   0.894
51103W        W23517  37.058  26.593  11.426
51104W        W23518  34.433  39.544  13.386
51105W        W23519  37.917  18.765  11.916
51106W        W23520  15.790  41.418   4.260
51107W        W23521  23.081  42.961  12.989
51108W        W23522  10.853  15.195   3.382
51109W        W23523  15.186  21.035   4.298
51110W        W23524   5.902   4.325   1.825
51111W        W23525   9.660  32.610   3.786
51112W        W23526  19.172  19.749  11.884
51113W        W23527  17.248  41.314  10.073
51114W        W23528  30.644   2.298   2.703
51115W        W23529  36.493   7.871  13.472
51116W        W23530   9.712  43.929  13.408
51117W        W23531  39.823  18.128  12.351
51118W        W23532   1.874  41.037  12.343
51119W        W23533  35.081  27.665  14.414
51120W        W23534   1.777  22.585  10.593
51121W        W23535  23.044   7.331   2.381
51122W        W23536  21.517  24.714   2.769
51123W        W23537   7.344  31.079  12.341
51124W        W23538   9.692  24.570   3.808
51125W        W23539  24.535  40.921   1.449
51126W        W23540  35.576  10.147  10.949
51127W        W23541  10.204  38.559  12.452
51128W        W23542  41.334  33.069  12.419
51129W        W23543   7.867   4.914   2.291
51130W        W23544  31.462  27.583  11.095
51131W        W23545  20.581  28.146  14.461
51132W        W23546  25.083   5.337   2.188
51133W        W23547   7.202   9.800   3.359
51134W        W23548  22.699   9.319  14.422
51135W        W23549  22.251   9.385  13.323
51136W        W23550   0.352   0.985  13.473
51137W        W23551  13.128  41.336  11.926
51138W        W23552   3.455  18.218   3.775
51139W        W23553  16.752  19.740  11.519
51140W        W23554  32.069  36.376   2.194
51141W        W23555  26.048  11.264   0.967
51142W        W23556  32.049  31.561  11.894
51143W        W23557  33.593   4.220   1.919
51144W        W23558  44.301   8.226   1.906
51145W        W23559  10.878  24.697  11.992
51146W        W23560  44.453  31.531  12.025
51147W        W23561  12.652  36.504   4.269
51148W        W23562  36.910  35.491  14.510
51149W        W23563  11.763  42.901  13.876
51150W        W23564  31.080  37.059  14.326
51151W        W23565  34.590   0.433   1.272
51152W        W23566   6.753  40.346   0.318
51153W        W23567  42.338  33.444  13.873
51154W        W23568  15.734  19.133  12.384
51155W        W23569   3.939   2.834   1.409
51156W        W23570  37.866  27.085  10.982
51157W        W23571   0.249  31.485   2.749
51158W        W23572  33.998   2.444   3.312
51159W        W23573  36.957  10.371   3.708
51160W        W23574   7.372  18.740   2.754
51161W        W23575  42.524  42.404   4.283
51162W        W23576  18.152   6.377   3.833
51163W        W23577  28.583  34.885   1.819
51164W        W23578   3.781  32.943   2.779
51165W        W23579  26.196  11.137  11.984
51166W        W23580   1.259  44.845  11.904
51167W        W23581  11.866   8.663  14.004
51168W        W23582  34.387  20.608   4.146
51169W        W23583  20.711  24.089  12.060
51170W        W23584   6.360  11.692   2.385
51171W        W23585  40.903  42.377  11.948
51172W        W23586  36.411  25.130  14.914
51173W        W23587  29.531  21.687  10.452
51174W        W23588  17.276  33.008   1.420
51175W        W23589  41.397  25.201  12.973
51176W        W23590  20.235   3.832   0.255
51177W        W23591   3.415   7.808   2.235
51178W        W23592  35.398  41.849   3.773
51179W        W23593  37.896  24.712  11.504
51180W        W23594  37.582  10.210  10.485
51181W        W23595  28.435  16.744  10.497
51182W        W23596  25.502  44.355   1.807
51183W        W23597   4.893  43.918   2.670
51184W        W23598  42.361  40.959   2.762
51185W        W23599   8.796   8.827  12.464
51186W        W23600  20.647  11.819   1.708
51187W        W23601  13.664   7.767  12.856
51188W        W23602  11.638  10.306   2.751
51189W        W23603  39.841  23.498   0.877
51190W        W23604  17.799   0.472  13.476
51191W        W23605  17.230  14.295   2.703
51192W        W23606  32.489  26.126   4.835
51193W        W23607   8.251  13.762   1.701
51194W        W23608   5.243  28.082   9.506
51195W        W23609  10.848   0.374   4.646
51196W        W23610  42.318   2.405   0.420
51197W        W23611  32.907   7.910  13.852
51198W        W23612  31.452  29.635   2.770
51199W        W23613   2.843   5.320   1.761
51200W        W23614  29.548   1.473  12.362
51201W        W23615  11.627   1.959   3.274
51202W        W23616  15.272  25.698   2.385
51203W        W23617  21.047   5.884  12.441
51204W        W23618  40.342  21.569   3.308
51205W        W23619  35.494  41.331  13.929
51206W        W23620  39.914  27.663  14.025
51207W        W23621  36.473  32.979   0.429
51208W        W23622  30.914  16.681   3.675
51209W        W23623   9.889  10.779  12.413
51210W        W23624  15.655  29.938  13.432
51211W        W23625  32.463  15.713  12.385
51212W        W23626  34.515   2.420   3.370
51213W        W23627  36.862  22.660  13.812
51214W        W23628   5.754  32.135   2.375
51215W        W23629  35.539  43.022  13.522
51216W        W23630  12.247  34.092   2.894
51217W        W23631  24.098  10.826  11.417
51218W        W23632  12.265  41.315   4.198
51219W        W23633  26.646  38.558  13.932
51220W        W23634  40.054   0.261   4.186
51221W        W23635  30.011  43.972   0.294
51222W        W23636   2.898   8.737   3.218
51223W        W23637  36.542   0.889   4.223
51224W        W23638   0.361  30.615   3.698
51225W        W23639  44.263  11.622   4.265
51226W        W23640  35.486  27.125  11.918
51227W        W23641  14.711  42.472   4.328
51228W        W23642  28.002  31.407  14.024
51229W        W23643   2.919  13.325   5.568
51230W        W23644  44.357   9.717  12.832
51231W        W23645  24.667  15.816   9.537
51232W        W23646  32.521  34.521   0.962
51233W        W23647  36.403   4.409  10.435
51234W        W23648  15.586  11.660   5.254
51235W        W23649  39.896  17.071   0.245
51236W        W23650  11.254  36.578  11.069
51237W        W23651  31.464  23.679   1.266
51238W        W23652  16.608  29.145  12.391
51239W        W23653   6.689  44.789  14.345
51240W        W23654  29.943  38.376   2.224
51241W        W23655  11.328  40.956   0.737
51242W        W23656  28.466  10.245  14.815
51243W        W23657  36.354  16.575  10.983
51244W        W23658  38.000   6.398   2.756
51245W        W23659  15.747  44.982  14.764
51246W        W23660  10.762   2.897  13.963
51247W        W23661  44.318   5.898   1.923
51248W        W23662  34.934  12.699   0.847
51249W        W23663   8.172  12.697  12.482
51250W        W23664  22.698  13.600   2.900
51251W        W23665  20.096  18.294  14.293
51252W        W23666  13.303  18.158  10.539
51253W        W23667  43.287  24.696  10.471
51254W        W23668  23.018   7.802  13.311
51255W        W23669  15.595   9.660   1.292
51256W        W23670  18.256  39.988   3.763
51257W        W23671  17.285  20.062   0.752
51258W        W23672  30.965  37.564  14.299
51259W        W23673  16.227  17.292   1.750
51260W        W23674  11.743  12.717  11.045
51261W        W23675  15.190  36.403  13.436
51262W        W23676  38.900  26.136   4.825
51263W        W23677  17.070  17.627   2.222
51264W        W23678  16.104  18.749   3.357
51265W        W23679  13.347  38.542  10.482
51266W        W23680  22.648  10.697  10.938
51267W        W23681  32.053  24.481   0.744
51268W        W23682  30.934  33.982   0.440
51269W        W23683   9.368  42.947  12.958
51270W        W23684  22.545  30.505   9.925
51271W        W23685  21.725  30.414   2.350
51272W        W23686  10.198  38.354  10.954
51273W        W23687  24.182  27.453   2.835
51274W        W23688  22.997  37.024   3.682
51275W        W23689  39.004  23.578  11.117
51276W        W23690  12.779  18.293   1.363
51277W        W23691  16.267  32.020  13.381
51278W        W23692  23.989  39.038  12.577
51279W        W23693  39.454   8.367   1.235
51280W        W23694  32.602   0.388  11.472
51281W        W23695   2.883  35.013   3.734
51282W        W23696  15.099  25.708  10.639
51283W        W23697  44.468  13.184   1.414
51284W        W23698  20.684   2.398   3.250
51285W        W23699  20.102   4.830  14.780
51286W        W23700  25.126  32.464  11.477
51287W        W23701  38.517  13.122  11.471
51288W        W23702  37.011  34.521  11.533
51289W        W23703  33.932  34.013  10.598
51290W        W23704  23.212  32.633   1.427
51291W        W23705  32.593   9.731   3.741
51292W        W23706  22.197  17.625   5.586
51293W        W23707  38.365  19.579   1.326
51294W        W23708  15.096   8.189  14.367
51295W        W23709  23.640  35.079  13.419
51296W        W23710   0.259  13.123  13.027
51297W        W23711  11.282  24.048  12.563
51298W        W23712  18.133  34.422   3.688
51299W        W23713  31.046  43.940   1.840
51300W        W23714  33.074  24.561  11.423
51301W        W23715  41.352  24.229   4.160
51302W        W23716  24.173  40.036  12.942
51303W        W23717  14.248  18.296   0.391
51304W        W23718  24.024   6.787  12.065
51305W        W23719  11.835   8.327  10.992
51306W        W23720  41.036  24.111   1.883
51307W        W23721   4.849  39.340   4.210
51308W        W23722  22.687  16.265  14.392
51309W        W23723  17.158  36.043  14.328
51310W        W23724  44.943   2.773   3.858
51311W        W23725  28.541  12.661   2.332
51312W        W23726   3.813  17.232  12.560
51313W        W23727  35.499  16.758  12.040
51314W        W23728  29.496  34.502   1.219
51315W        W23729   5.222  13.633   4.652
51316W        W23730  27.510  32.026  13.370
51317W        W23731  38.064  15.744  11.054
51318W        W23732  33.122   4.897   3.814
51319W        W23733  36.893  13.315  13.526
51320W        W23734  31.110  40.976   3.726
51321W        W23735   1.788  32.600   0.247
51322W        W23736   4.908  17.130   3.698
51323W        W23737  35.894  22.509  11.863
51324W        W23738  26.598  44.292  10.912
51325W        W23739  31.456  14.831   0.479
51326W        W23740  23.195  28.163  12.983
51327W        W23741  25.598  10.280  10.457
51328W        W23742   6.195  39.479  10.451
51329W        W23743  21.641  32.512   1.798
51330W        W23744  43.917   4.893  14.374
51331W        W23745  29.073  22.525  12.895
51332W        W23746  36.044  10.646   4.212
51333W        W23747  43.971   5.819  13.824
51334W        W23748  16.666  22.596  12.563
51335W        W23749  36.873  23.663   1.310
51336W        W23750  12.759   0.743   4.339
51337W        W23751   2.806   9.317   4.683
51338W        W23752  13.331  17.184   0.850
51339W        W23753  44.372  28.658  12.025
51340W        W23754  37.344  26.149  13.395
51341W        W23755  13.643  11.636   1.871
51342W        W23756  23.006  39.399  12.902
51343W        W23757   7.779  13.219  10.958
51344W        W23758   2.233   0.353  12.017
51345W        W23759  39.916  25.993  13.947
51346W        W23760  20.240  28.454   4.677
51347W        W23761   4.744  22.179  13.356
51348W        W23762  35.581   6.389   4.783
51349W        W23763  34.962   1.290   4.766
51350W        W23764  36.914  37.066   0.917
51351W        W23765  32.971  33.621   1.240
51352W        W23766   1.924  10.697   3.755
51353W        W23767  31.546  16.096   0.412
51354W        W23768  22.512  24.526  11.979
51355W        W23769  28.437  42.995  13.993
51356W        W23770  37.942  41.971   1.837
51357W        W23771  35.095   9.740  14.854
51358W        W23772  12.239  39.022  13.016
51359W        W23773   8.894  28.583   2.183
51360W        W23774  40.498   6.912  11.520
51361W        W23775  35.365  22.170   1.707
51362W        W23776  17.233   0.764   1.383
51363W        W23777  35.932  30.124  14.460
51364W        W23778   2.784   3.357  14.881
51365W        W23779   5.194  26.077   4.827
51366W        W23780  30.931   2.807   0.860
51367W        W23781   0.334  21.058   1.765
51368W        W23782  15.797  41.977   3.195
51369W        W23783   0.276  29.174   2.834
51370W        W23784  32.898   4.761   4.123
51371W        W23785  31.150  42.409   1.384
51372W        W23786   6.257  34.013  14.516
51373W        W23787  32.404  21.640  12.409
51374W        W23788   2.903   5.839  10.465
51375W        W23789  35.379   7.238   2.311
51376W        W23790  23.049  16.620  12.478
51377W        W23791  35.881  19.670   4.147
51378W        W23792  12.324  18.284   2.882
51379W        W23793   6.886  24.578   3.763
51380W        W23794   3.331  21.556  13.388
51381W        W23795  13.816  38.376   3.234
51382W        W23796   5.907  30.552  13.307
51383W        W23797  19.590  37.087   4.227
51384W        W23798  24.538  23.235  12.046
51385W        W23799  34.595   0.972  12.430
51386W        W23800  32.915  27.514  10.962
51387W        W23801  10.821  20.076  11.552
51388W        W23802  19.647   2.729  13.536
51389W        W23803  27.198  40.029  13.907
51390W        W23804   2.945  10.876  13.516
51391W        W23805   4.312  25.623  11.522
51392W        W23806  22.158  16.725   5.165
51393W        W23807  31.469   9.686   1.336
51394W        W23808   9.182  41.437  12.988
51395W        W23809  10.328  10.163  10.493
51396W        W23810   2.296   2.251   4.290
51397W        W23811   7.756  43.493  14.399
51398W        W23812   6.378   1.893  14.279
51399W        W23813   3.721  21.633   0.926
51400W        W23814  27.599   9.837   1.773
51401W        W23815  39.360  33.384  10.106
51402W        W23816  33.556  23.056   3.171
51403W        W23817  29.008  31.036   2.748
51404W        W23818   9.366  13.321   2.699
51405W        W23819  16.167   8.714   5.187
51406W        W23820  31.114  32.607  11.561
51407W        W23821  42.812  16.613  13.525
51408W        W23822  19.215  23.232   3.853
51409W        W23823   9.643  21.196  11.004
51410W        W23824  33.961  15.644   2.316
51411W        W23825  14.706  36.941   3.355
51412W        W23826  15.129  15.807  13.838
51413W        W23827  37.438  30.461  13.536
51414W        W23828   4.226  38.883   1.792
51415W        W23829  15.261  29.620  12.068
51416W        W23830  11.195  24.162  12.026
51417W        W23831  40.897  43.299   2.725
51418W        W23832   4.280  26.588   3.387
51419W        W23833   9.190  23.644  14.920
51420W        W23834  14.282  18.586   3.170
51421W        W23835  16.196  12.776   4.303
51422W        W23836  34.085  20.668  10.484
51423W        W23837   2.918  12.247   1.846
51424W        W23838   4.923  31.077   5.217
51425W        W23839  12.687   6.903   3.234
51426W        W23840  22.667  11.693   0.474
51427W        W23841  20.590  38.046   4.285
51428W        W23842   8.344  14.747  11.386
51429W        W23843  22.601  20.623  14.441
51430W        W23844  37.877  23.627  11.473
51431W        W23845  44.338   9.325   0.920
51432W        W23846   3.718  42.371   9.634
51433W        W23847   9.757   7.297  12.081
51434W        W23848  11.736   8.840   3.299
51435W        W23849  42.515   0.298   3.806
51436W        W23850  20.591  35.857  13.411
51437W        W23851   1.802  43.838  14.353
51438W        W23852  28.535   2.953   4.740
51439W        W23853  10.192  10.768   0.340
51440W        W23854  33.445  13.686   2.229
51441W        W23855  27.038  30.152   2.376
51442W        W23856  12.624  12.649  12.845
51443W        W23857  21.519  36.891  10.491
51444W        W23858  35.902  44.905  12.885
51445W        W23859  26.100  24.181  11.582
51446W        W23860   5.333  38.488  11.565
51447W        W23861  22.563  25.155  14.286
51448W        W23862   7.196   4.324  10.609
51449W        W23863   7.829  43.968  12.403
51450W        W23864  18.722  10.803   4.306
51451W        W23865  25.219  32.608  13.504
51452W        W23866  30.155  39.918  10.489
51453W        W23867  32.067  37.553  10.991
51454W        W23868  23.153  12.810  11.419
51455W        W23869   7.752  27.086  11.575
51456W        W23870  32.478  35.016   1.900
51457W        W23871  16.719   7.893   2.715
51458W        W23872   5.771   6.325  13.334
51459W        W23873  14.098  39.041   0.377
51460W        W23874  43.272   9.717  12.410
51461W        W23875   7.243  24.071   3.159
51462W        W23876  41.924  20.622  11.098
51463W        W23877  21.246  22.079   3.226
51464W        W23878   8.208  31.994  14.500
51465W        W23879   5.723   1.255   1.878
51466W        W23880  22.534  15.615  12.838
51467W        W23881  41.371  41.503  14.332
51468W        W23882  16.567  11.207  12.092
51469W        W23883  27.647  10.853  11.562
51470W        W23884  39.847  13.676   0.300
51471W        W23885  35.596  28.157   0.912
51472W        W23886  27.498  24.701   0.254
51473W        W23887  13.639  27.058   2.394
51474W        W23888  14.693   3.447  10.009
51475W        W23889  41.927  21.017  12.012
51476W        W23890   4.221  39.474  12.417
51477W        W23891   4.926  10.255  14.459
51478W        W23892  32.964  42.031   0.471
51479W        W23893  34.949  43.855   2.241
51480W        W23894  14.718  36.397  13.882
51481W        W23895   7.855  22.037  13.796
51482W        W23896  19.268  40.412   2.901
51483W        W23897  44.970  11.239  12.351
51484W        W23898  27.158  14.690  14.453
51485W        W23899  11.265   0.820   1.400
51486W        W23900  16.732  10.757   0.807
51487W        W23901  14.793  35.083   1.920
51488W        W23902   9.381  34.958  11.432
51489W        W23903   1.768  21.624  12.463
51490W        W23904  31.108   4.842  14.010
51491W        W23905   8.253  36.508   1.399
51492W        W23906   0.903   3.373  11.440
51493W        W23907  17.242  18.228   4.151
51494W        W23908  28.546  20.205  12.050
51495W        W23909  12.186  17.154  14.422
51496W        W23910   0.751   9.215   1.288
51497W        W23911  34.424  44.011   0.914
51498W        W23912  34.417   1.475   4.316
51499W        W23913  13.750  38.996   3.197
51500W        W23914  35.583  29.049   2.291
51501W        W23915  38.341  35.453   4.293
51502W        W23916  10.857  16.241   2.788
51503W        W23917   0.394  28.967   4.675
51504W        W23918   3.403  12.785  12.366
51505W        W23919   6.854  35.379  13.439
51506W        W23920  44.756  26.605   1.231
51507W        W23921   3.784  42.922   1.263
51508W        W23922   5.880  42.507   4.227
51509W        W23923  29.516  27.569  12.059
51510W        W23924  35.082  26.523  11.599
51511W        W23925  33.950  29.537  11.578
51512W        W23926  14.747  43.352  14.860
51513W        W23927   3.756  12.751  10.611
51514W        W23928  34.094  24.721   2.740
51515W        W23929  10.640  32.911   4.354
51516W        W23930  16.744   5.207  13.511
51517W        W23931  40.031  10.180   1.887
51518W        W23932   8.280  31.464   4.832
51519W        W23933  43.983  28.930  13.335
51520W        W23934  21.652   2.856   3.744
51521W        W23935  30.580   3.284  12.553
51522W        W23936  23.192  35.107   2.888
51523W        W23937  18.105  38.887  13.533
51524W        W23938  10.186  12.714   1.757
51525W        W23939  12.631  14.674   4.665
51526W        W23940  32.485  25.105  10.432
51527W        W23941  12.839  39.550   3.211
51528W        W23942  33.414  19.143   4.642
51529W        W23943  30.035  26.568  10.415
51530W        W23944  43.998  15.267   2.407
51531W        W23945  29.531   0.306  10.919
51532W        W23946  10.184  16.749  14.957
51533W        W23947  27.573  42.826   0.346
51534W        W23948  14.631  20.682   0.453
51535W        W23949  31.416  27.472   0.382
51536W        W23950  15.677  16.073   4.688
51537W        W23951  42.476  30.025   1.378
51538W        W23952  20.573   6.871   0.274
51539W        W23953  28.005  33.008   3.696
51540W        W23954   0.397  13.668  13.433
51541W        W23955  15.295  15.285   2.808
51542W        W23956  40.808  19.574   4.321
51543W        W23957  32.567  44.931   4.216
51544W        W23958  24.657  22.079  13.797
51545W        W23959  14.613  30.047  13.331
51546W        W23960  36.851  12.313   0.792
51547W        W23961  21.175  42.358   2.818
51548W        W23962  10.871  23.999  13.506
51549W        W23963  36.057  29.016   2.745
51550W        W23964  10.240  15.104   5.123
51551W        W23965  40.997  16.696  13.496
51552W        W23966  35.973  18.719   2.319
51553W        W23967  26.649  38.854   0.451
51554W        W23968   9.817  13.701  10.483
51555W        W23969  27.086  21.031  10.122
51556W        W23970  42.487  38.379  14.944
51557W        W23971  41.424  29.111   2.691
51558W        W23972  39.521  43.849   1.798
51559W        W23973  19.285  36.063   3.372
51560W        W23974   8.299  40.927  13.795
51561W        W23975  12.764  31.127   1.395
51562W        W23976   3.838   9.276   3.181
51563W        W23977  23.220  16.576   2.340
51564W        W23978  17.556  33.053  10.564
51565W        W23979  11.216  29.606   3.312
51566W        W23980  12.157   3.346   0.763
51567W        W23981  15.126  36.499   1.863
51568W        W23982  17.751  32.115  14.312
51569W        W23983   5.213  10.307  11.592
51570W        W23984   2.740  16.083   0.869
51571W        W23985  33.124   8.900  12.341
51572W        W23986   7.833   3.443   2.199
51573W        W23987  25.211  27.553  13.833
51574W        W23988  32.907  16.259  14.792
51575W        W23989  25.567  33.923   4.811
51576W        W23990  31.035  31.967  13.932
51577W        W23991   1.260  36.558  13.052
51578W        W23992   8.170   0.774   0.779
51579W        W23993  25.630  15.633  13.537
51580W        W23994   9.867   9.784   2.282
51581W        W23995  21.023  23.238   0.370
51582W        W23996   2.929  38.347  13.328
51583W        W23997  20.710   1.301  13.912
51584W        W23998  36.489  26.980   4.281
51585W        W23999  34.106   5.750   0.401
51586W        W24000  14.643  37.505   2.862
51587W        W24001  17.662  17.119  12.388
51588W        W24002  34.378  21.140   0.457
51589W        W24003   5.389  19.200   1.301
51590W        W24004  11.725   4.802   1.797
51591W        W24005  40.999  24.699  13.366
51592W        W24006  10.750  34.946   1.767
51593W        W24007  41.975  18.720  11.088
51594W        W24008  23.072  44.993  10.538
51595W        W24009  31.613  22.040   3.725
51596W        W24010  35.569  29.955   2.285
51597W        W24011  21.595   9.687   4.705
51598W        W24012   6.192  41.291   2.343
51599W        W24013  18.054  38.854   3.664
51600W        W24014   9.854  10.823   3.215
51601W        W24015  41.466  10.745  12.444
51602W        W24016  42.902  27.485   3.689
51603W        W24017  18.592  26.496   1.758
51604W        W24018  30.476  25.618  12.923
51605W        W24019  18.119  41.036   2.844
51606W        W24020  27.183  43.376  10.638
51607W        W24021  22.640  36.894   2.409
51608W        W24022  31.646  20.248  13.427
51609W        W24023   1.395  30.919   2.806
51610W        W24024   1.836   3.429  14.932
51611W        W24025  22.141  21.128   1.326
51612W        W24026  11.199  27.107  11.426
51613W        W24027  42.405  14.696  11.918
51614W        W24028   5.269  26.103  13.411
51615W        W24029   0.876  38.391   0.954
51616W        W24030  26.634  29.549  10.925
51617W        W24031  15.717   7.683  12.408
51618W        W24032  44.402  32.518  12.456
51619W        W24033  44.763   0.344  14.968
51620W        W24034  24.186  33.553   2.710
51621W        W24035  21.692  37.954  12.933
51622W        W24036  35.396   0.352  13.365
51623W        W24037  39.430   8.688  13.923
51624W        W24038  11.166  22.072   3.298
51625W        W24039  24.629  10.321  13.455
51626W        W24040  28.017   3.346   2.244
51627W        W24041  34.448  21.100  14.328
51628W        W24042  31.624  10.772  14.795
51629W        W24043  41.834   7.309  13.064
51630W        W24044  38.394  12.124  14.382
51631W        W24045  35.094  24.560   0.397
51632W        W24046  38.914  28.008   0.403
51633W        W24047  15.676  39.051   0.736
51634W        W24048  44.788   6.262  13.824
51635W        W24049   1.295  18.586  12.058
51636W        W24050  44.005  18.781  14.474
51637W        W24051  19.176   4.361  13.791
51638W        W24052  33.890   6.895   4.692
51639W        W24053  30.946  42.840   4.294
51640W        W24054   3.329   1.960   4.711
51641W        W24055  16.143  26.595  10.488
51642W        W24056  21.687   9.237  12.012
51643W        W24057  36.953  39.520  13.851
51644W        W24058  26.167  43.442   1.300
51645W        W24059  26.032  39.549  11.937
51646W        W24060  26.108   2.777  11.555
51647W        W24061  37.915  14.632   1.861
51648W        W24062  41.916   2.735  13.941
51649W        W24063  28.096  24.148   2.715
51650W        W24064  41.510  10.254   4.201
51651W        W24065   1.937  12.352   2.734
51652W        W24066  25.099  23.727  14.910
51653W        W24067  30.909   8.789  13.054
51654W        W24068  30.525   3.751   1.310
51655W        W24069  37.950   7.837   3.362
51656W        W24070   9.718  17.712   3.219
51657W        W24071  14.133   4.789  10.489
51658W        W24072  12.688   1.465  14.781
51659W        W24073  19.754  35.475  11.550
51660W        W24074   2.327  40.408   2.679
51661W        W24075  26.674  27.109   0.291
51662W        W24076  27.133  11.824   9.975
51663W        W24077  18.745  38.489  14.302
51664W        W24078  33.085  43.413  13.491
51665W        W24079   1.826   4.709  10.115
51666W        W24080  27.172  41.900   0.308
51667W        W24081  40.947  35.874   2.867
51668W        W24082   0.755   6.826   3.248
51669W        W24083  17.646  29.972  11.928
51670W        W24084  19.681  20.252   1.234
51671W        W24085  28.529  40.540  13.895
51672W        W24086  14.110  24.546   3.724
51673W        W24087  24.545   8.827   0.926
51674W        W24088  13.636  20.174  13.868
51675W        W24089  39.039   1.475   4.757
51676W        W24090  18.188  22.588  12.881
51677W        W24091  39.020  35.530   3.281
51678W        W24092  19.595  35.586  14.462
51679W        W24093  18.181  37.004   0.292
51680W        W24094   1.346  39.557   0.857
51681W        W24095  44.395  30.126   4.605
51682W        W24096   6.700  26.963   4.342
51683W        W24097   9.263  41.963   3.789
51684W        W24098  12.182  12.318   1.381
51685W        W24099  24.995  20.115  11.494
51686W        W24100  41.826   5.721   2.789
51687W        W24101  12.235   7.894  11.878
51688W        W24102  43.906  29.144  11.922
51689W        W24103   0.414   0.847  10.963
51690W        W24104  31.546  42.904  14.878
51691W        W24105  29.579  19.118  14.917
51692W        W24106  44.931   9.693  12.346
51693W        W24107   0.841   3.824  13.905
51694W        W24108  41.850   3.720   2.673
51695W        W24109   7.274  31.526  11.988
51696W        W24110  19.056  21.571  11.407
51697W        W24111  22.077  38.002  14.325
51698W        W24112  42.339  11.668  12.961
51699W        W24113  11.299   2.330   0.950
51700W        W24114   7.830  21.660  13.493
51701W        W24115  32.579  18.685  14.791
51702W        W24116   0.936  33.115  11.975
51703W        W24117  19.236   7.834   1.388
51704W        W24118   9.288  39.862   2.377
51705W        W24119  42.371  30.471   0.951
51706W        W24120   4.344  15.139  10.041
51707W        W24121  40.949   5.322   2.779
51708W        W24122   0.334  34.942  14.431
51709W        W24123   8.232  27.455  14.826
51710W        W24124  44.399  16.755  13.362
51711W        W24125  20.126  26.973   0.808
51712W        W24126  10.333  16.778  14.378
51713W        W24127  20.127  37.939   0.321
51714W        W24128  21.200  35.996  12.418
51715W        W24129  39.909  19.585   1.801
51716W        W24130  39.455  38.419  13.945
51717W        W24131   5.354  38.067   3.313
51718W        W24132  27.000   8.255  14.975
51719W        W24133  40.984  38.999   1.737
51720W        W24134   5.816  32.422   2.843
51721W        W24135  29.014   5.893   3.159
51722W        W24136  30.072  12.833   0.314
51723W        W24137   4.886   6.290   1.734
51724W        W24138  38.414  27.547   0.779
51725W        W24139  14.188  29.510  13.480
51726W        W24140  17.278  21.645  12.923
51727W        W24141  15.735  22.601   4.617
51728W        W24142  39.555  11.864   2.704
51729W        W24143  34.514  41.828  14.301
51730W        W24144  28.996   4.929   1.803
51731W        W24145  40.396  31.568  12.557
51732W        W24146   5.781  15.153  12.550
51733W        W24147  22.612  30.931   2.210
51734W        W24148  21.631  29.118  11.865
51735W        W24149  13.328  16.619  13.327
51736W        W24150   8.756  43.966   2.213
51737W        W24151  25.057  30.164  11.513
51738W        W24152   1.431  38.859   1.301
51739W        W24153   7.797  39.960   2.780
51740W        W24154  16.660  38.007  13.386
51741W        W24155  26.005  26.979   0.938
51742W        W24156  36.352  28.104  14.444
51743W        W24157  26.134  36.547  10.436
51744W        W24158  20.235  12.764   3.663
51745W        W24159  34.473  12.216   2.282
51746W        W24160  20.234  17.234   1.753
51747W        W24161  25.985  28.013   1.302
51748W        W24162  13.631  19.727   1.760
51749W        W24163  39.962  43.354   3.699
51750W        W24164  36.454   1.813   2.663
51751W        W24165   2.930  36.564   4.224
51752W        W24166  13.259   0.773   4.213
51753W        W24167  43.905  38.527  14.893
51754W        W24168  14.706   0.309   3.739
51755W        W24169  29.670   1.764   0.900
51756W        W24170  30.415  32.021   3.860
51757W        W24171  35.039  15.088  13.970
51758W        W24172  19.040   6.794   4.314
51759W        W24173  37.924  24.069   0.309
51760W        W24174  39.824  21.703   0.728
51761W        W24175  35.383  31.022   2.379
51762W        W24176  24.637   0.974   4.797
51763W        W24177   7.331   2.472  10.607
51764W        W24178  37.429  37.406  12.999
51765W        W24179  15.217  35.564  13.439
51766W        W24180  18.772  35.911   3.279
51767W        W24181  15.780  33.125   0.927
51768W        W24182  41.319   6.317   0.764
51769W        W24183  31.084  25.686   1.793
51770W        W24184  18.786  12.278  12.437
51771W        W24185  38.435  30.035  12.558
51772W        W24186  30.983  29.629  12.066
51773W        W24187   4.745  20.081  13.504
51774W        W24188  32.600  15.654   4.807
51775W        W24189  34.117  22.116  14.818
51776W        W24190   3.803  36.071   1.302
51777W        W24191  15.586  13.207   0.884
51778W        W24192  27.035  33.568   1.758
51779W        W24193  35.436  34.600  10.969
51780W        W24194  33.943  44.409  11.030
51781W        W24195  17.800   8.764  12.473
51782W        W24196  10.180   2.812  10.440
51783W        W24197  27.592  13.752   3.212
51784W        W24198   3.935  40.867  12.534
51785W        W24199  15.188  43.823   0.917
51786W        W24200   6.919  19.707  14.774
51787W        W24201  41.483  21.654  12.522
51788W        W24202  10.807  21.215   4.222
51789W        W24203  41.020   2.310  11.086
51790W        W24204  16.583  27.057   1.356
51791W        W24205  19.261   1.371  12.576
51792W        W24206  20.070   5.717   1.710
51793W        W24207  39.023  38.016   3.761
51794W        W24208   4.249  30.027   3.629
51795W        W24209  20.267   4.923  13.441
51796W        W24210   5.266  32.096   4.147
51797W        W24211  43.502  36.513  13.977
51798W        W24212  24.105  44.754   3.681
51799W        W24213   6.752   7.201   0.894
51800W        W24214  44.475  33.005   2.797
51801W        W24215  28.996  41.376   2.844
51802W        W24216  36.570   4.943   3.642
51803W        W24217  44.931  23.178   4.272
51804W        W24218  37.467   3.952   1.764
51805W        W24219  40.475  11.155  10.493
51806W        W24220  37.976  14.321  14.784
51807W        W24221  19.756   7.282  14.829
51808W        W24222  41.525  36.863  12.845
51809W        W24223  24.652  31.066  10.460
51810W        W24224  33.079   1.978  12.554
51811W        W24225   1.427   3.783   3.245
51812W        W24226  39.412  38.445   0.748
51813W        W24227  10.270   4.292   2.841
51814W        W24228  38.856  17.684  10.940
51815W        W24229  15.107  10.824   2.336
51816W        W24230   4.915  35.021  11.510
51817W        W24231  28.011   9.678   0.460
51818W        W24232   8.220  16.780   2.745
51819W        W24233   0.308  25.979  13.896
51820W        W24234  20.123  41.394   2.765
51821W        W24235  39.512  44.346   0.749
51822W        W24236  39.969  14.709   2.756
51823W        W24237  31.465  43.870  12.844
51824W        W24238  41.379  18.265   3.249
51825W        W24239  20.566  16.191   3.345
51826W        W24240   1.362  32.907  13.314
51827W        W24241  44.333   6.864   0.282
51828W        W24242  21.697   2.272  13.954
51829W        W24243  41.443  26.136   0.789
51830W        W24244  37.423  11.759   1.243
51831W        W24245  22.539  35.952  12.538
51832W        W24246  38.428   9.207  11.070
51833W        W24247  23.614  21.018   1.247
51834W        W24248   3.418  25.137   0.888
51835W        W24249  28.571  22.168  10.944
51836W        W24250  21.090  44.811   2.222
51837W        W24251  36.554  24.494   0.478
51838W        W24252  42.348  14.627   1.380
51839W        W24253  24.081   9.688   4.772
51840W        W24254  20.593  33.542  14.411
51841W        W24255  37.411  40.372  12.989
51842W        W24256  26.574  35.092   4.814
51843W        W24257  17.708  31.909  12.984
51844W        W24258  13.828   8.362  10.527
51845W        W24259  24.022  10.303  14.887
51846W        W24260   4.212   2.894  13.805
51847W        W24261   1.274  37.395   1.293
51848W        W24262  30.049  28.088   4.619
51849W        W24263  33.564  26.957   3.637
51850W        W24264  28.040  40.311   2.776
51851W        W24265  10.254  13.683   0.959
51852W        W24266   3.455  30.545  14.500
51853W        W24267  17.627  30.646  14.467
51854W        W24268   1.744  34.023   0.919
51855W        W24269   5.208  42.411  11.528
51856W        W24270  34.423  36.526   2.835
51857W        W24271   8.283  41.454   0.958
51858W        W24272  44.479  29.564  13.913
51859W        W24273  23.207  17.710   1.226
51860W        W24274  33.429  28.475   2.208
51861W        W24275  38.830  19.685  12.491
51862W        W24276  11.220  40.943  14.937
51863W        W24277  35.601  26.979   1.920
51864W        W24278  32.566  13.243  11.429
51865W        W24279  20.741  16.110  13.019
51866W        W24280  26.492  10.278   3.270
51867W        W24281  31.086  38.502  11.871
51868W        W24282   7.799  38.433   3.280
51869W        W24283  25.048  19.604   0.854
51870W        W24284  15.235  34.870   1.217
51871W        W24285  23.221  27.175   4.337
51872W        W24286  14.653  31.913   4.258
51873W        W24287  33.482  23.034  13.048
51874W        W24288  22.202  34.947  11.542
51875W        W24289  11.801  17.765  13.030
51876W        W24290   9.817  11.158  10.534
51877W        W24291  30.421  12.625  11.505
51878W        W24292  24.487  40.010  10.545
51879W        W24293   1.360  24.040   2.669
51880W        W24294  31.907  43.924   2.250
51881W        W24295  14.094  40.499  12.951
51882W        W24296  31.951  14.626   5.278
51883W        W24297  43.849   0.384  14.493
51884W        W24298  40.359  27.033   2.300
51885W        W24299   9.158  38.960   1.268
51886W        W24300  26.667  35.071  12.424
51887W        W24301  15.747  34.905  11.931
51888W        W24302  34.864  43.907   3.305
51889W        W24303  14.594  10.179  13.392
51890W        W24304  38.380   1.453   2.359
51891W        W24305  42.956   5.205   2.394
51892W        W24306  38.466  23.678   4.239
51893W        W24307  38.912  26.096  11.414
51894W        W24308  29.580  34.371  12.543
51895W        W24309  41.844   6.777  13.802
51896W        W24310  16.629  39.957   0.748
51897W        W24311  21.048   2.318  12.872
51898W        W24312   9.387  22.087  10.486
51899W        W24313  21.726  13.793  12.842
51900W        W24314  18.294  20.665   0.255
51901W        W24315  17.679  41.898   3.640
51902W        W24316  31.121  31.557  11.572
51903W        W24317  33.467  41.423  11.996
51904W        W24318  40.439   6.324  12.517
51905W        W24319   8.747  19.730   0.347
51906W        W24320  17.608  36.008  14.390
51907W        W24321  34.981   5.787   0.755
51908W        W24322  34.071   3.265   3.727
51909W        W24323  28.446  16.668   4.200
51910W        W24324   3.951  37.022   4.629
51911W        W24325   0.274  43.468   4.330
51912W        W24326  10.282  26.996   3.147
51913W        W24327  13.122  36.448  11.501
51914W        W24328  15.119  26.134   4.131
51915W        W24329  21.200  37.537   5.149
51916W        W24330   4.703  15.101   9.963
51917W        W24331  29.083  37.847  14.478
51918W        W24332  24.109   4.391   0.845
51919W        W24333  29.136  43.438  14.941
51920W        W24334  15.651  13.610  14.335
51921W        W24335   6.906  40.516   3.173
51922W        W24336   3.728  22.648  12.948
51923W        W24337  42.491  26.200  13.044
51924W        W24338  39.837   4.283   1.437
51925W        W24339  40.549  29.597  11.598
51926W        W24340   1.918  25.556   0.299
51927W        W24341  13.197  15.212  10.944
51928W        W24342  23.994   8.707   9.965
51929W        W24343  13.198  44.919   4.305
51930W        W24344  34.968   4.709  14.933
51931W        W24345  42.014  19.711  10.566
51932W        W24346  27.453  19.709   1.905
51933W        W24347  41.430  26.147  13.899
51934W        W24348  34.964  43.312   3.746
51935W        W24349  18.623  34.380  10.509
51936W        W24350  11.210  12.327  10.619
51937W        W24351  10.686  40.929   0.750
51938W        W24352   8.310  23.994  13.822
51939W        W24353  31.025   1.286   0.875
51940W        W24354  33.575   6.236  14.827
51941W        W24355  38.976  43.939  14.968
51942W        W24356  24.689  34.064   3.262
51943W        W24357  34.409  30.506  12.562
51944W        W24358  24.635  21.234  10.088
51945W        W24359  44.850  29.089  14.483
51946W        W24360  42.881  24.695  14.883
51947W        W24361  16.241  37.425  13.796
51948W        W24362  39.987  15.675   1.219
51949W        W24363   5.193   7.796  11.491
51950W        W24364  15.624  14.796   1.259
51951W        W24365  26.622  33.464   2.359
51952W        W24366  30.945  20.154  11.412
51953W        W24367  35.425  34.906   2.216
51954W        W24368   0.953  24.555  11.554
51955W        W24369  12.218   4.360   1.421
51956W        W24370  44.489  16.199   2.209
51957W        W24371  31.002  25.039   0.410
51958W        W24372  15.669  36.936  14.866
51959W        W24373   6.345   6.198   2.322
51960W        W24374   2.732   5.407  11.055
51961W        W24375   1.468   6.876  12.523
51962W        W24376  23.091  41.490   2.415
51963W        W24377  19.647   1.361   2.303
51964W        W24378  28.487  44.359   2.900
51965W        W24379  43.451  13.235   0.443
51966W        W24380  38.519  16.169  12.456
51967W        W24381  11.223  30.027   4.333
51968W        W24382  30.996  38.562  10.586
51969W        W24383  29.448   9.278  14.434
51970W        W24384  32.121  14.329   2.870
51971W        W24385  40.317  43.795   2.700
51972W        W24386  19.095  38.967  11.525
51973W        W24387  41.812  44.465  13.830
51974W        W24388  37.421  14.099  12.374
51975W        W24389  12.682  16.575  12.431
51976W        W24390  37.892  40.876  13.984
51977W        W24391  44.374  38.363  14.496
51978W        W24392  15.752   4.361   3.652
51979W        W24393   4.764  12.295  13.538
51980W        W24394  41.496  43.993  11.008
51981W        W24395  13.259  26.012   1.877
51982W        W24396   7.302  14.732  12.087
51983W        W24397  39.026  35.573   4.708
51984W        W24398   3.933  38.846  11.921
51985W        W24399   5.888  22.722   4.225
51986W        W24400  22.704  24.093   3.293
51987W        W24401  19.172  44.470  10.945
51988W        W24402  13.218   4.276  11.580
51989W        W24403  19.168  35.475   2.214
51990W        W24404  44.407   0.254   0.360
51991W        W24405  30.126   9.342   0.433
51992W        W24406  17.791  42.801  13.880
51993W        W24407  30.117  17.618   2.282
51994W        W24408  35.409  28.677  13.518
51995W        W24409  39.474  29.127  14.894
51996W        W24410  37.401  11.811   3.288
51997W        W24411  26.133  12.195   4.332
51998W        W24412  17.557  21.568  14.501
51999W        W24413   1.295  15.171   2.394
52000W        W24414   5.338  11.358  14.824
52001W        W24415  14.751   2.805   0.383
52002W        W24416   5.768  16.679  11.959
52003W        W24417  12.357  37.966   3.844
52004W        W24418  18.764   2.256   4.812
52005W        W24419  30.627  30.031   4.280
52006W        W24420  13.337  41.987  14.932
52007W        W24421   1.252  31.484  14.949
52008W        W24422  34.414   0.429   0.264
52009W        W24423  23.213   2.295  11.608
52010W        W24424  32.036  43.516  14.409
52011W        W24425  18.573  23.211   1.845
52012W        W24426  44.352  33.882  10.900
52013W        W24427  15.301   3.412  12.852
52014W        W24428   0.289  31.070  13.900
52015W        W24429  35.439  41.333  13.535
52016W        W24430   8.814   2.269   1.337
52017W        W24431  31.643  38.332  13.901
52018W        W24432  36.030   5.440   1.316
52019W        W24433  17.612   6.802  11.951
52020W        W24434  33.966  41.457   0.866
52021W        W24435  14.788   8.763  10.464
52022W        W24436  15.283  26.191   1.419
52023W        W24437  11.156  21.733  13.309
52024W        W24438  36.026  43.479  14.372
52025W        W24439  38.902  20.742  12.393
52026W        W24440  17.260  15.728  13.500
52027W        W24441  14.132  10.346   1.301
52028W        W24442  35.027  17.274  12.096
52029W        W24443   9.365  43.376  10.567
52030W        W24444  17.675   4.229   0.355
52031W        W24445  14.172  21.043   3.345
52032W        W24446  21.656  16.623   3.680
52033W        W24447  39.358   3.219  13.037
52034W        W24448  26.094  30.944  13.983
52035W        W24449  43.924   8.194  13.358
52036W        W24450   8.671   6.259   0.268
52037W        W24451  42.976   1.951  14.930
52038W        W24452  27.117  26.626   0.877
52039W        W24453   6.263   4.287  13.534
52040W        W24454  12.266   0.933   2.321
52041W        W24455  35.095  28.112   3.864
52042W        W24456  38.832   4.732  13.393
52043W        W24457  35.020  27.455  13.045
52044W        W24458  29.968   0.469   2.846
52045W        W24459  26.145  17.680   4.271
52046W        W24460  39.990  32.530   0.347
52047W        W24461  17.066  39.437  11.121
52048W        W24462   8.780  17.559  11.414
52049W        W24463  24.073  27.940  11.581
52050W        W24464  33.892  21.022   2.322
52051W        W24465  27.469  26.105   0.458
52052W        W24466  39.809  30.436   3.647
52053W        W24467  36.456  13.823  10.509
52054W        W24468  31.042  40.939   0.810
52055W        W24469   6.396  16.779  12.859
52056W        W24470  10.202  22.172  12.047
52057W        W24471  19.724  43.497   3.364
52058W        W24472  44.774  13.688   4.605
52059W        W24473  13.136  36.462  14.771
52060W        W24474   9.757  27.104  11.499
52061W        W24475   8.674   4.745  13.483
52062W        W24476  20.586  25.699  13.879
52063W        W24477  12.219   5.278  12.954
52064W        W24478  34.596  24.030  12.829
52065W        W24479  21.173   5.886  13.974
52066W        W24480  15.586  29.163  14.984
52067W        W24481  35.484  12.722  14.980
52068W        W24482  29.588  38.004  13.536
52069W        W24483   4.353  17.763  12.499
52070W        W24484  23.073  24.499  13.050
52071W        W24485  10.174  43.923   2.349
52072W        W24486  14.163  31.914   0.959
52073W        W24487  20.261  26.082   0.883
52074W        W24488  15.752  12.220  12.545
52075W        W24489  14.758  35.405   4.235
52076W        W24490  39.819  35.995  12.876
52077W        W24491  11.813  11.745   1.396
52078W        W24492  29.592  44.420  10.505
52079W        W24493  30.149  16.770   4.711
52080W        W24494  37.950  10.740  12.397
52081W        W24495   6.694  16.658  14.939
52082W        W24496   4.350   1.442  13.365
52083W        W24497  43.952   3.715  13.797
52084W        W24498  20.536  24.977   1.758
52085W        W24499  14.335  31.462   1.347
52086W        W24500  11.718  17.696  13.917
52087W        W24501  20.250  41.314  10.964
52088W        W24502   7.788  25.120  12.986
52089W        W24503   7.789  21.182   2.220
52090W        W24504  37.030  16.757  10.526
52091W        W24505   2.764  33.614  13.433
52092W        W24506  27.625   5.761  13.004
52093W        W24507  40.385  14.619   1.898
52094W        W24508  11.142  10.704  11.455
52095W        W24509   1.367  11.626  13.888
52096W        W24510  36.562  19.254   2.266
52097W        W24511  16.679  14.727  12.894
52098W        W24512   4.865  41.036   0.931
52099W        W24513   0.988  43.332  13.823
52100W        W24514   1.381  24.093  10.999
52101W        W24515  20.687  41.316   2.674
52102W        W24516   6.235  15.291  10.927
52103W        W24517  21.699  27.994   1.858
52104W        W24518  38.993  18.256  11.128
52105W        W24519   2.950  35.551  11.007
52106W        W24520  23.496  29.953   0.260
52107W        W24521  33.114  27.190   0.933
52108W        W24522  22.099  29.602  14.512
52109W        W24523  11.355   0.787   3.296
52110W        W24524   7.381  16.218   4.775
52111W        W24525  13.621   0.832  14.952
52112W        W24526  29.046   9.856   2.773
52113W        W24527  24.130  41.035  11.524
52114W        W24528   3.432  29.562   4.204
52115W        W24529  44.314  42.485  14.936
52116W        W24530  29.031  43.946   4.666
52117W        W24531  39.830  10.284  11.519
52118W        W24532  11.686  37.059   1.882
52119W        W24533  36.476  42.931   2.205
52120W        W24534  15.245  33.036   3.367
52121W        W24535  33.609  39.543   0.341
52122W        W24536  25.081  11.814  10.592
52123W        W24537   4.802  22.739  11.964
52124W        W24538  41.852  14.291   4.184
52125W        W24539  12.837  37.068  14.497
52126W        W24540  29.088  44.441   3.255
52127W        W24541  18.060  16.313  11.478
52128W        W24542  14.250   9.249  14.282
52129W        W24543  36.910  21.054   3.823
52130W        W24544  32.080  44.973   0.768
52131W        W24545  32.422  32.068   4.343
52132W        W24546  21.516  25.056  13.484
52133W        W24547  42.434  39.493   1.746
52134W        W24548  26.456  34.048  12.555
52135W        W24549  19.147  23.031  11.110
52136W        W24550  40.317  25.598  12.452
52137W        W24551  42.782  30.630   4.296
52138W        W24552  21.608  12.285  12.041
52139W        W24553   9.229   9.783   1.353
52140W        W24554   8.230  34.071   4.215
52141W        W24555   0.369   2.347   1.243
52142W        W24556   2.957  11.842   1.818
52143W        W24557  14.259   3.419  12.463
52144W        W24558  28.553  42.285  12.344
52145W        W24559  29.125  42.462   2.739
52146W        W24560  26.546  40.886   1.237
52147W        W24561   3.283  17.307   4.781
52148W        W24562   1.843  14.823   3.717
52149W        W24563  28.567  13.300  13.406
52150W        W24564  14.813   5.381   2.237
52151W        W24565   0.355  21.153   0.392
52152W        W24566  43.319  21.707  13.929
52153W        W24567  39.463  27.049  12.057
52154W        W24568  37.896  41.444   0.475
52155W        W24569   3.250  44.903   3.322
52156W        W24570   4.932  42.921   9.979
52157W        W24571  42.412  25.665   1.377
52158W        W24572  12.195  20.564   0.872
52159W        W24573  34.398  39.344   3.372
52160W        W24574  18.167  16.803  10.506
52161W        W24575  18.704  44.894   3.373
52162W        W24576  20.156   2.966  12.536
52163W        W24577  17.187  12.260  13.472
52164W        W24578  40.856  30.940  11.000
52165W        W24579  44.347   1.759  14.282
52166W        W24580   3.432   9.282  10.569
52167W        W24581  12.732   8.778  14.854
52168W        W24582  27.648  42.362   2.812
52169W        W24583  33.529  40.431  11.460
52170W        W24584   8.192  38.340   4.231
52171W        W24585   5.244  31.406   4.292
52172W        W24586  21.054  15.814   2.307
52173W        W24587   3.858  34.478  14.303
52174W        W24588   2.472   0.779  13.963
52175W        W24589  14.812   6.310  11.861
52176W        W24590  14.728  25.082   1.701
52177W        W24591  19.269  43.995  14.007
52178W        W24592  25.616  17.713  10.640
52179W        W24593  19.761  11.718   0.820
52180W        W24594  27.536  44.413   2.838
52181W        W24595  17.088   9.355   4.691
52182W        W24596  22.513  22.589   3.374
52183W        W24597  24.720  32.103   4.119
52184W        W24598  29.983   9.238   2.890
52185W        W24599  29.484  30.615   0.856
52186W        W24600  41.961  27.674  11.603
52187W        W24601  26.562  44.939  11.121
52188W        W24602  27.944   9.232  11.535
52189W        W24603  29.548  41.320   4.167
52190W        W24604  27.477  11.702   1.735
52191W        W24605   7.355  14.283   1.731
52192W        W24606  10.186   4.342  14.928
52193W        W24607   0.301  29.095  12.398
52194W        W24608  34.030  33.931  13.869
52195W        W24609  27.942  18.665   5.147
52196W        W24610   6.408   9.812  12.455
52197W        W24611  17.291  35.470  12.076
52198W        W24612  13.247  22.621   0.474
52199W        W24613  22.648  25.554  10.496
52200W        W24614  42.777  15.157  12.952
52201W        W24615  40.882  30.021   4.164
52202W        W24616   4.830  25.971  14.460
52203W        W24617  43.415   9.257   3.835
52204W        W24618  34.089  33.514   1.744
52205W        W24619  44.464  41.852  11.951
52206W        W24620  20.061  38.372  11.998
52207W        W24621  44.317  40.916  12.032
52208W        W24622   7.297  10.296   4.832
52209W        W24623  25.525  29.998  10.405
52210W        W24624  44.789   4.785   2.893
52211W        W24625  16.212  32.420  11.960
52212W        W24626  35.395  17.170   4.306
52213W        W24627  13.827  31.013  10.981
52214W        W24628   5.269  33.930  11.482
52215W        W24629   4.915  29.065  12.552
52216W        W24630  43.328  12.149  11.550
52217W        W24631  43.883  34.917  14.453
52218W        W24632  30.952  22.721   3.655
52219W        W24633  15.312  31.032   3.843
52220W        W24634  15.637  38.456  11.464
52221W        W24635  42.872  22.098  12.079
52222W        W24636  18.184  27.654   3.771
52223W        W24637  32.943  17.708   4.757
52224W        W24638  15.266   7.378   4.734
52225W        W24639  33.091   1.442  13.433
52226W        W24640  28.930  21.572   4.676
52227W        W24641  18.634  23.531  12.456
52228W        W24642  32.595  11.327   0.334
52229W        W24643   9.289  15.242   4.781
52230W        W24644  19.729   9.732  13.370
52231W        W24645  31.069  28.953   1.391
52232W        W24646  30.580  23.526  14.353
52233W        W24647  28.587  15.322   2.715
52234W        W24648  37.381  12.187  12.998
52235W        W24649  30.104  27.469  13.533
52236W        W24650   6.798  39.401  11.517
52237W        W24651  17.099  25.584  14.437
52238W        W24652  31.430  11.740   1.254
52239W        W24653  20.191  17.152   2.383
52240W        W24654  27.494  21.029   4.770
52241W        W24655  29.064   6.381   0.447
52242W        W24656  34.520  44.859  13.006
52243W        W24657  13.793  19.216  12.508
52244W        W24658  21.741  29.992   4.229
52245W        W24659   2.461  32.463   0.831
52246W        W24660   2.330  41.802   1.720
52247W        W24661   6.351  42.957  10.906
52248W        W24662  13.627  18.668  14.402
52249W        W24663  33.507  11.665  13.988
52250W        W24664  18.745  29.104  14.889
52251W        W24665  44.942  42.325   1.423
52252W        W24666   2.412  35.075   3.272
52253W        W24667  37.020   5.374  14.484
52254W        W24668   9.644  43.394  13.971
52255W        W24669   5.359  35.534  10.947
52256W        W24670  15.162  14.207  12.092
52257W        W24671  43.500  13.712   4.135
52258W        W24672  13.155  43.764   4.832
52259W        W24673  11.754  31.626   1.894
52260W        W24674  15.308  14.684   3.862
52261W        W24675   8.210   2.438   3.356
52262W        W24676  43.992  44.406   0.844
52263W        W24677  30.079  33.480  10.935
52264W        W24678  43.467   7.781   1.398
52265W        W24679  26.569  18.200  10.449
52266W        W24680  44.945  12.229  11.029
52267W        W24681  35.077  21.153  14.876
52268W        W24682   1.399  36.012  14.453
52269W        W24683  37.012   8.273  10.994
52270W        W24684  34.468   5.769   2.747
52271W        W24685  34.075   0.849  14.858
52272W        W24686  30.978   6.405   4.766
52273W        W24687  15.133   4.406   1.268
52274W        W24688  11.802   9.840   2.716
52275W        W24689  31.053  10.174  11.562
52276W        W24690  18.648  28.656   1.261
52277W        W24691   9.255  12.152   4.119
52278W        W24692  24.653  21.189   4.350
52279W        W24693  32.894   0.861   3.648
52280W        W24694  11.694  26.648  14.298
52281W        W24695   4.769  30.114  14.825
52282W        W24696   5.812   1.827   4.152
52283W        W24697  32.901   4.817   4.615
52284W        W24698   0.398   5.896   2.737
52285W        W24699  31.560  14.112   4.200
52286W        W24700  24.591  29.079  13.340
52287W        W24701   9.277   3.412   2.251
52288W        W24702  33.936  20.161   4.134
52289W        W24703  16.691   2.957   3.161
52290W        W24704  11.222  33.610   0.377
52291W        W24705  30.417  18.167  12.039
52292W        W24706  20.273  24.210   0.435
52293W        W24707  21.143  34.905   4.629
52294W        W24708  22.520  31.402   4.698
52295W        W24709  14.312   4.292  13.007
52296W        W24710   5.804   8.671   1.344
52297W        W24711  27.188   2.243  11.006
52298W        W24712  25.197  16.155   1.443
52299W        W24713  33.570  10.362   5.125
52300W        W24714  40.855   0.953   4.807
52301W        W24715  26.515  29.461   2.711
52302W        W24716  15.142  25.659   3.297
52303W        W24717  12.856  44.356  13.996
52304W        W24718  25.069  34.584  12.420
52305W        W24719  17.589   9.863  13.876
52306W        W24720  12.745  42.491  14.027
52307W        W24721  15.767  25.567   1.347
52308W        W24722  24.221  16.700   3.778
52309W        W24723  40.381  36.959  14.894
52310W        W24724  41.382  15.298  10.553
52311W        W24725  17.070  35.098  10.576
52312W        W24726   5.868  38.954  10.484
52313W        W24727  33.544   2.264   1.305
52314W        W24728  38.065   7.898  11.400
52315W        W24729  26.120   0.933   5.604
52316W        W24730  13.241  41.536  14.452
52317W        W24731   1.816   7.772  12.075
52318W        W24732   2.418  40.398  13.838
52319W        W24733  11.641   3.450  10.547
52320W        W24734  39.877  15.698  11.596
52321W        W24735  38.344   7.735   1.234
52322W        W24736  20.700  42.292   1.850
52323W        W24737  27.679  44.900   3.788
52324W        W24738   9.253  39.041  12.979
52325W        W24739   4.267   3.864   4.723
52326W        W24740  36.908  15.617   4.140
52327W        W24741   4.752  28.992  13.534
52328W        W24742  26.569  37.572   4.626
52329W        W24743  15.120  25.711  12.864
52330W        W24744   1.956  17.144  11.402
52331W        W24745  16.107  23.712  10.526
52332W        W24746  24.567   6.351   1.438
52333W        W24747   2.261  27.131   0.269
52334W        W24748  44.370  40.429  11.372
52335W        W24749  14.149  30.595   9.976
52336W        W24750  11.829  37.967  13.516
52337W        W24751   4.707  12.710   0.838
52338W        W24752   9.273  32.594  11.435
52339W        W24753  37.447  25.215  11.043
52340W        W24754   6.322  32.448   3.667
52341W        W24755   6.837  35.008  10.900
52342W        W24756  12.192   6.327   2.274
52343W        W24757  27.136  36.489  10.491
52344W        W24758  18.765  30.607   3.825
52345W        W24759  14.162   1.349   3.724
52346W        W24760  10.818  24.686   1.723
52347W        W24761   8.747   9.781   1.225
52348W        W24762  14.792   8.322  11.013
52349W        W24763  32.966  22.995   5.086
52350W        W24764  15.290  23.194  12.378
52351W        W24765  20.614   7.297  11.543
52352W        W24766   6.820   1.752   4.807
52353W        W24767  21.707  24.080   0.299
52354W        W24768   8.168  36.459   3.808
52355W        W24769  27.114  35.415  13.057
52356W        W24770  14.327   2.806   0.848
52357W        W24771  39.883   0.956   1.770
52358W        W24772   8.674   9.304  12.366
52359W        W24773  22.233   3.229  12.987
52360W        W24774  23.194  16.098  13.057
52361W        W24775  28.017  22.133  14.801
52362W        W24776   8.186  13.832  14.823
52363W        W24777   8.268  40.990   0.439
52364W        W24778  22.143  20.259  14.906
52365W        W24779   4.790   6.211  12.553
52366W        W24780  13.659  14.800  10.473
52367W        W24781   2.855  33.010   0.760
52368W        W24782  29.118  37.362  13.367
52369W        W24783   8.352  25.127   0.283
52370W        W24784  26.988  43.292   3.754
52371W        W24785  33.561  27.006   4.791
52372W        W24786  13.781  34.376   1.806
52373W        W24787  20.649  18.760  10.900
52374W        W24788  12.844  30.605   1.357
52375W        W24789   1.949  31.005   2.765
52376W        W24790  42.449  39.951  10.605
52377W        W24791  26.535  28.050   4.657
52378W        W24792   1.930  21.678   2.244
52379W        W24793  29.484  16.159   2.800
52380W        W24794  18.560  12.141   4.676
52381W        W24795  13.285  30.134   4.239
52382W        W24796   2.816  19.686   3.742
52383W        W24797   9.703  16.609  13.991
52384W        W24798  11.712  37.855   0.753
52385W        W24799  10.685   3.225  13.828
52386W        W24800  16.134  17.219   4.799
52387W        W24801  32.519  44.770  12.831
52388W        W24802  14.817  26.628  14.939
52389W        W24803  22.118  17.742  10.975
52390W        W24804  38.521  41.324   2.336
52391W        W24805  39.358  30.569  11.572
52392W        W24806  36.070  42.944   3.841
52393W        W24807   8.258  34.904  11.964
52394W        W24808  42.478   5.703  14.847
52395W        W24809  27.048  15.624   1.273
52396W        W24810  23.575  44.789  10.064
52397W        W24811  29.534  19.723  12.958
52398W        W24812  42.020  18.109   1.933
52399W        W24813  25.657  30.980   1.928
52400W        W24814  36.440  39.331  12.068
52401W        W24815  19.256  23.986   4.186
52402W        W24816   8.224  30.498   0.247
52403W        W24817  42.903  29.090   0.437
52404W        W24818  40.404  44.356  14.307
52405W        W24819   9.371  42.419  14.988
52406W        W24820  19.564  24.538  10.438
52407W        W24821  15.174  21.188   2.698
52408W        W24822  21.562  17.639  13.823
52409W        W24823  31.059  32.563   3.759
52410W        W24824  28.635   3.732   1.762
52411W        W24825  40.001  36.498  10.404
52412W        W24826   8.723  29.171  10.980
52413W        W24827  35.862  28.987   4.789
52414W        W24828  44.967  32.440   3.303
52415W        W24829  22.642  10.273   1.801
52416W        W24830  44.315  21.159  11.077
52417W        W24831  19.744  22.154  14.936
52418W        W24832  31.584  23.680   2.314
52419W        W24833  32.556  20.068   4.772
52420W        W24834  22.505  30.080  11.484
52421W        W24835   2.855   9.290  11.391
52422W        W24836  34.061  36.955   0.313
52423W        W24837   3.861  38.465  11.016
52424W        W24838   4.897  12.660   9.673
52425W        W24839  18.062  38.452   1.404
52426W        W24840  17.272  32.903  10.439
52427W        W24841  22.572  10.684  10.552
52428W        W24842  25.706  10.685   0.827
52429W        W24843  32.021   1.314   3.724
52430W        W24844   1.427  33.061  14.457
52431W        W24845  29.641  23.691  14.771
52432W        W24846   2.282  28.941   4.208
52433W        W24847  13.292  14.188   1.230
52434W        W24848  40.340   0.307   0.887
52435W        W24849  29.138  24.484   2.842
52436W        W24850  15.211  12.801  13.942
52437W        W24851   5.884  26.543   1.309
52438W        W24852  39.006  12.840  14.390
52439W        W24853   7.350  41.391   1.240
52440W        W24854  24.047  41.933  12.392
52441W        W24855  22.701  40.390   1.788
52442W        W24856   6.309  19.266  10.952
52443W        W24857   2.318  34.876  11.020
52444W        W24858   3.355  17.587  12.932
52445W        W24859  28.502  20.173   3.766
52446W        W24860  20.681   6.831  13.059
52447W        W24861  26.693  24.637   3.833
52448W        W24862  16.688  34.611  13.058
52449W        W24863  20.157  18.183  12.441
52450W        W24864  41.841  25.630  13.961
52451W        W24865  31.022  30.938   0.943
52452W        W24866  16.258  39.877   2.788
52453W        W24867  12.664  35.461   3.194
52454W        W24868   9.320   6.815   1.343
52455W        W24869  40.399   4.721  13.356
52456W        W24870  11.246  36.577  13.441
52457W        W24871  26.586  19.678  13.482
52458W        W24872  11.680   2.289  13.838
52459W        W24873   2.386  35.498   4.690
52460W        W24874  29.444   6.216  13.517
52461W        W24875  40.468   5.763  10.482
52462W        W24876  39.017  33.025   3.771
52463W        W24877  10.378  38.864   5.187
52464W        W24878  20.562  38.336   2.832
52465W        W24879  21.524  13.669   3.778
52466W        W24880  42.970  30.102  12.077
52467W        W24881   2.334  15.611   2.416
52468W        W24882  10.167   9.766  10.542
52469W        W24883  31.573  18.277   2.823
52470W        W24884  38.931  13.122  11.478
52471W        W24885  43.011  13.611   0.873
52472W        W24886  29.999  31.031   0.461
52473W        W24887  13.154  11.254  12.079
52474W        W24888  28.176  27.674  13.462
52475W        W24889  42.307  31.632  14.329
52476W        W24890  22.557  16.202  10.630
52477W        W24891  27.549  21.756   0.866
52478W        W24892  30.620  10.224  11.563
52479W        W24893  24.217  18.195  11.081
52480W        W24894  15.202  27.084   1.251
52481W        W24895  40.910  40.908  13.466
52482W        W24896  25.645  34.575   0.461
52483W        W24897  23.565  30.507   1.718
52484W        W24898   8.234   3.386   0.827
52485W        W24899  29.493  11.136  10.905
52486W        W24900   1.433   8.695   2.396
52487W        W24901  35.994   7.682   3.811
52488W        W24902  25.486  17.074  10.097
52489W        W24903  43.433  25.573  11.582
52490W        W24904  31.464  36.922  10.492
52491W        W24905  38.331  37.552   0.317
52492W        W24906  29.950   0.818  12.080
52493W        W24907  30.918  15.687  10.524
52494W        W24908  20.232  37.419  10.144
52495W        W24909  31.144  14.783   4.313
52496W        W24910  24.515  16.721  12.974
52497W        W24911  34.533  39.405   3.649
52498W        W24912   0.362  42.884   4.605
52499W        W24913  35.425   8.874  14.407
52500W        W24914  15.328  23.233   1.863
52501W        W24915   1.868  43.980   0.307
52502W        W24916  14.824  42.382   0.401
52503W        W24917   0.953   2.921  11.537
52504W        W24918  26.615  38.437  11.380
52505W        W24919  26.086  23.166   4.748
52506W        W24920  17.128  36.506  14.978
52507W        W24921  13.791  28.160  14.296
52508W        W24922  23.984  37.074  10.476
52509W        W24923   0.477   9.298   2.669
52510W        W24924   8.670  37.581  13.494
52511W        W24925  33.414  16.794  11.471
52512W        W24926  16.178  16.266  14.847
52513W        W24927  44.962  37.440   1.898
52514W        W24928  26.036  20.625  10.514
52515W        W24929  15.113  42.991  14.376
52516W        W24930  23.060   1.288   4.302
52517W        W24931  21.056  11.220  10.439
52518W        W24932   9.839   3.771  11.374
52519W        W24933  18.088  36.502   0.332
52520W        W24934  31.001  15.773  12.577
52521W        W24935  33.522  16.197  14.387
52522W        W24936  23.090  35.873  10.606
52523W        W24937  19.686  19.729  13.396
52524W        W24938  20.036  13.351  13.500
52525W        W24939  13.703  34.947  13.435
52526W        W24940  11.132  18.236   0.435
52527W        W24941  28.649  16.687   2.699
52528W        W24942  29.161  44.477  13.014
52529W        W24943  19.269  32.084  10.593
52530W        W24944  23.652  10.170   3.661
52531W        W24945   0.376  11.187   2.251
52532W        W24946  12.761  17.704  11.609
52533W        W24947  34.942  44.496   1.811
52534W        W24948  34.083  10.657  12.501
52535W        W24949  41.520   2.282  10.930
52536W        W24950  14.812  26.666   4.771
52537W        W24951  30.976   8.885  14.877
52538W        W24952  12.747  10.754   3.793
52539W        W24953  19.776  36.930  13.052
52540W        W24954  23.070  17.654   0.274
52541W        W24955  29.461  29.473  14.364
52542W        W24956   0.285   1.736  14.307
52543W        W24957  29.983  22.244   3.301
52544W        W24958   3.457  40.346   4.811
52545W        W24959  34.930  13.607  12.527
52546W        W24960  39.873  25.473   1.739
52547W        W24961   1.793  38.567  10.513
52548W        W24962  13.845  37.569  13.020
52549W        W24963  38.453   0.895   0.483
52550W        W24964  22.101   5.247  13.816
52551W        W24965   2.225  33.584   2.850
52552W        W24966   4.429  36.410  14.809
52553W        W24967  35.904  16.186   4.120
52554W        W24968  24.205  14.098   3.738
52555W        W24969   4.736  34.565   4.314
52556W        W24970  10.161  23.664  11.480
52557W        W24971  19.053  24.016  13.882
52558W        W24972  41.344  15.324  12.873
52559W        W24973  22.579   2.922  13.041
52560W        W24974  28.543  31.929   0.471
52561W        W24975  19.771  36.455   1.240
52562W        W24976  43.366  12.266  13.061
52563W        W24977  10.663  12.781   2.198
52564W        W24978  14.645   6.779  13.031
52565W        W24979  36.095  37.053  11.509
52566W        W24980   2.952  13.840  12.906
52567W        W24981  16.723  43.845  12.023
52568W        W24982   5.398  10.696   3.361
52569W        W24983  28.541   5.712  13.919
52570W        W24984  31.514  21.074  11.415
52571W        W24985  44.341  41.306  11.413
52572W        W24986   5.855  22.196  11.912
52573W        W24987   5.362   1.421  11.087
52574W        W24988  18.667   7.903  14.781
52575W        W24989  27.469  40.352  11.507
52576W        W24990  37.039  39.478   4.617
52577W        W24991  16.183  10.286   0.750
52578W        W24992  12.683  18.063   0.913
52579W        W24993   8.776  44.968  11.441
52580W        W24994   7.211   8.202   2.411
52581W        W24995  13.120   3.299   0.891
52582W        W24996  36.918  17.140   0.446
52583W        W24997  22.107  29.508  11.068
52584W        W24998  26.046  15.712  12.967
52585W        W24999   4.247  42.802   3.222
52586W        W25000  40.389  31.935  13.915
52587W        W25001  32.483   0.276  10.442
52588W        W25002   7.276  22.998   1.250
52589W        W25003  15.232  19.686  12.018
52590W        W25004  42.320  36.051   4.797
52591W        W25005  11.838  26.526   3.248
52592W        W25006  14.338  34.018   0.806
52593W        W25007   3.232  38.023   4.813
52594W        W25008  21.658  38.376   0.429
52595W        W25009  29.515  25.151   0.309
52596W        W25010  29.447  18.732  11.090
52597W        W25011  43.865  26.523  14.288
52598W        W25012  41.357  15.147  14.808
52599W        W25013  28.984  18.553  10.573
52600W        W25014  22.617  36.509  11.118
52601W        W25015   6.308  27.076   0.883
52602W        W25016   7.731  17.192   3.271
52603W        W25017  16.677   0.929  13.936
52604W        W25018  34.536  17.193   1.413
52605W        W25019  28.544  42.338   4.192
52606W        W25020  29.045  14.593   1.351
52607W        W25021  41.457  37.060   1.378
52608W        W25022  44.921  21.020  10.495
52609W        W25023  22.548  29.049  11.987
52610W        W25024  32.609  35.565   4.635
52611W        W25025  11.184  19.251  13.990
52612W        W25026  25.020  18.221   4.611
52613W        W25027  23.657  37.025  14.308
52614W        W25028  35.454  32.598  10.416
52615W        W25029  14.305  32.539   4.171
52616W        W25030  21.616   8.353  12.860
52617W        W25031   1.905  12.657   1.434
52618W        W25032  43.939  37.077   3.740
52619W        W25033  10.762  39.960  10.451
52620W        W25034   1.974   4.353  12.578
52621W        W25035  36.444   6.389   4.646
52622W        W25036   5.376  34.445   4.266
52623W        W25037  23.082  26.647   1.253
52624W        W25038   7.304  42.294  10.409
52625W        W25039   4.325  31.591   4.127
52626W        W25040  43.865  42.518   3.749
52627W        W25041  31.038  35.374   0.740
52628W        W25042  20.159  29.149   2.319
52629W        W25043  27.689   6.793  13.911
52630W        W25044  19.640  35.414   3.335
52631W        W25045  19.050  18.167  13.366
52632W        W25046   9.875  37.401   3.656
52633W        W25047  35.095  27.190   1.725
52634W        W25048  39.411  33.574   4.279
52635W        W25049  18.733  18.116   4.264
52636W        W25050  19.615   5.792   4.267
52637W        W25051  26.016   8.827   4.228
52638W        W25052  23.698   1.418  13.398
52639W        W25053  23.656  12.820   2.313
52640W        W25054  10.142  34.019  13.888
52641W        W25055   9.375  34.474   4.670
52642W        W25056  38.414  34.065   4.233
52643W        W25057  22.571   8.734   2.726
52644W        W25058   0.935  16.677   3.194
52645W        W25059  21.651  24.208   1.321
52646W        W25060  40.320  42.776  14.821
52647W        W25061  38.463  10.745  11.502
52648W        W25062   7.808   3.425  11.525
52649W        W25063  43.359   3.819   0.449
52650W        W25064  38.532  21.099   2.900
52651W        W25065   5.274  26.164   5.740
52652W        W25066  36.034   5.741   3.244
52653W        W25067  35.396   7.410  11.389
52654W        W25068  10.803  14.742   2.783
52655W        W25069  13.765  42.289  13.311
52656W        W25070  12.622  37.412  14.958
52657W        W25071  14.646   2.732  13.412
52658W        W25072  13.187  18.754   5.212
52659W        W25073  14.591   5.762   3.786
52660W        W25074  43.434  39.851  13.383
52661W        W25075  16.230  24.679   3.262
52662W        W25076  19.094  16.266   2.773
52663W        W25077   3.443  16.302   2.691
52664W        W25078   3.409  39.015   3.665
52665W        W25079   9.809   5.315   1.217
52666W        W25080  15.720  32.476   4.823
52667W        W25081  32.059  17.630  13.950
52668W        W25082  36.540  44.462   2.677
52669W        W25083  31.570  18.265  14.819
52670W        W25084  27.999  24.539   2.327
52671W        W25085   4.872  21.214  12.441
52672W        W25086  15.742  37.382   1.366
52673W        W25087  21.574   7.254  13.011
52674W        W25088  11.668  34.563  10.941
52675W        W25089   1.322  18.733  12.950
52676W        W25090  18.689   1.882   4.784
52677W        W25091  43.808  37.396   3.854
52678W        W25092  39.945   4.890   0.404
52679W        W25093   7.824  32.441  12.996
52680W        W25094  24.564   4.892   4.181
52681W        W25095  33.980  36.036   2.677
52682W        W25096   5.714   1.278  11.036
52683W        W25097  23.653  13.636  11.471
52684W        W25098  18.239  44.375  12.352
52685W        W25099  31.947  20.701  11.423
52686W        W25100   6.727  10.150   2.291
52687W        W25101  32.141  33.042  12.465
52688W        W25102   4.241  24.218   4.811
52689W        W25103  35.503  11.345   1.241
52690W        W25104   7.221  13.839   3.212
52691W        W25105  11.844  21.543  10.925
52692W        W25106  10.848  11.315   4.598
52693W        W25107  26.608  12.783   4.263
52694W        W25108   5.893  12.839   3.687
52695W        W25109   8.768  42.922  12.575
52696W        W25110  27.179  27.107   0.337
52697W        W25111  30.437  13.258  14.780
52698W        W25112  28.509  29.488   0.334
52699W        W25113  10.869  10.241   3.339
52700W        W25114  34.562  40.879   3.179
52701W        W25115  18.616  25.642   2.288
52702W        W25116  19.654  39.001  13.851
52703W        W25117  39.329  29.945  14.351
52704W        W25118   4.927   8.778  12.431
52705W        W25119   0.279  27.456  13.830
52706W        W25120  20.580  17.645   3.163
52707W        W25121   2.299  41.522   5.172
52708W        W25122  40.449  36.429   4.209
52709W        W25123  36.483   4.264   1.327
52710W        W25124  41.800  42.342  11.967
52711W        W25125  11.794  41.941  13.460
52712W        W25126  34.562  29.938  11.915
52713W        W25127  14.149  32.935   4.653
52714W        W25128  18.142  27.127   0.459
52715W        W25129  28.673  37.439   2.697
52716W        W25130   6.239  18.748   1.842
52717W        W25131  22.594  33.393  13.473
52718W        W25132  31.914  10.690  10.439
52719W        W25133  11.690  43.384   1.312
52720W        W25134   5.240  40.359  13.044
52721W        W25135   5.298   9.702  10.556
52722W        W25136  40.314   9.667  11.016
52723W        W25137  21.726  29.927  12.888
52724W        W25138  35.405   0.949  14.764
52725W        W25139   2.755  27.619   1.927
52726W        W25140  37.529  42.888   4.329
52727W        W25141  42.900  41.022   0.911
52728W        W25142   7.385  28.622   0.912
52729W        W25143  12.240  30.943   0.307
52730W        W25144   8.688   6.752  10.978
52731W        W25145  19.771  15.205   4.625
52732W        W25146  37.541  21.041  10.473
52733W        W25147  26.128  42.433   3.327
52734W        W25148  41.938  44.478   2.721
52735W        W25149  37.905  24.708   2.842
52736W        W25150  25.147  29.652  14.798
52737W        W25151  20.052  40.945   1.429
52738W        W25152  13.719  17.736  13.048
52739W        W25153  25.679  18.765  13.364
52740W        W25154   8.887  25.620  12.951
52741W        W25155  35.600   6.822  10.901
52742W        W25156  29.624  18.708   1.223
52743W        W25157  34.060  34.475   3.365
52744W        W25158  35.534  21.136   4.763
52745W        W25159  39.393  36.992  10.635
52746W        W25160  31.963  29.663   2.712
52747W        W25161  37.457   9.723  14.404
52748W        W25162  39.425   5.778  12.364
52749W        W25163  24.186   5.744   2.853
52750W        W25164  32.916   8.203   1.278
52751W        W25165  24.672  42.318   1.838
52752W        W25166  13.662  28.078   3.218
52753W        W25167  18.261  17.619  12.884
52754W        W25168  41.349   7.207  13.480
52755W        W25169  41.326  11.625  11.997
52756W        W25170  19.162   2.373  13.022
52757W        W25171  34.905  19.564   4.318
52758W        W25172   0.344  30.493  14.395
52759W        W25173   6.874  38.978   4.289
52760W        W25174  26.115  23.079  12.858
52761W        W25175   2.227  12.192  13.835
52762W        W25176   2.937   2.340  11.953
52763W        W25177  34.471  24.116  10.937
52764W        W25178  42.331  42.392   0.869
52765W        W25179  11.829  31.461  11.427
52766W        W25180  20.646   2.965  13.403
52767W        W25181   8.839  16.240  11.969
52768W        W25182  37.473  43.312  14.369
52769W        W25183  20.685   0.844  14.979
52770W        W25184  34.914  43.808  12.929
52771W        W25185  20.124   0.372   4.744
52772W        W25186  21.709  21.615  12.446
52773W        W25187  10.809  24.092   1.788
52774W        W25188  40.325   6.393  13.426
52775W        W25189  25.629  40.489  13.504
52776W        W25190  11.200  35.577  13.871
52777W        W25191  43.833   0.416  14.790
52778W        W25192  36.577  43.843  14.312
52779W        W25193  28.940   0.922   2.666
52780W        W25194  36.593  30.540   3.662
52781W        W25195  11.251  13.703  12.570
52782W        W25196   3.854  22.645  10.026
52783W        W25197  16.648  39.834  13.995
52784W        W25198   5.316  20.704  10.645
52785W        W25199  43.861  33.396  14.901
52786W        W25200  24.077  10.694   2.248
52787W        W25201  40.508  22.542   2.865
52788W        W25202  19.659   6.379   1.758
52789W        W25203  18.655  16.699   4.270
52790W        W25204  29.127  21.029   0.357
52791W        W25205   6.224   5.385  13.378
52792W        W25206  42.904   2.464   3.268
52793W        W25207  24.559   2.367  13.455
52794W        W25208  44.263  19.094  10.012
52795W        W25209  33.914  27.587  14.779
52796W        W25210  26.614   6.801   2.666
52797W        W25211   0.400  39.487  12.019
52798W        W25212  17.671  14.178  10.508
52799W        W25213  42.833  44.781   4.748
52800W        W25214   1.260  32.515   2.288
52801W        W25215  20.075   5.198  13.436
52802W        W25216  34.493   9.255   1.855
52803W        W25217  19.740  35.069  11.380
52804W        W25218  23.005  21.627   4.136
52805W        W25219   1.964   9.384   0.840
52806W        W25220  41.364  39.835  13.001
52807W        W25221  23.581  32.407   0.421
52808W        W25222  28.172  34.405  13.833
52809W        W25223   7.348  32.110   5.270
52810W        W25224  12.212  40.476   1.411
52811W        W25225  30.509   9.171   0.931
52812W        W25226  40.303  11.695  12.838
52813W        W25227  25.197  20.263  14.497
52814W        W25228  31.483  15.636   0.387
52815W        W25229   3.718  10.222  13.011
52816W        W25230  10.653  14.185  14.466
52817W        W25231  26.039  14.305   3.860
52818W        W25232  41.398  36.971   4.213
52819W        W25233  34.932  42.508  12.533
52820W        W25234  39.848  24.547  11.488
52821W        W25235  37.436  27.995   3.286
52822W        W25236  29.945  27.518   2.378
52823W        W25237  26.146  36.544   0.825
52824W        W25238  29.639  25.513   3.184
52825W        W25239  35.931  38.485  12.858
52826W        W25240  22.056  11.139   3.209
52827W        W25241  39.031  32.119   0.751
52828W        W25242  38.565  42.451  12.001
52829W        W25243  25.198   9.330  12.936
52830W        W25244  11.766   1.948   4.605
52831W        W25245  36.083  32.127   1.779
52832W        W25246  23.540  32.029  13.379
52833W        W25247  19.194  43.794  13.047
52834W        W25248  12.671  24.594  12.556
52835W        W25249   2.777  23.552   3.305
52836W        W25250  36.484  23.537  10.411
52837W        W25251  11.667  13.677   3.325
52838W        W25252  44.940  19.139   0.798
52839W        W25253  14.653   1.250  11.870
52840W        W25254  24.490  33.971   4.239
52841W        W25255  36.471  32.421   4.239
52842W        W25256  32.487  30.522   3.365
52843W        W25257  36.882  44.836   0.362
52844W        W25258  27.159  25.962   2.834
52845W        W25259  42.893   0.437  12.383
52846W        W25260  18.682  19.587  10.530
52847W        W25261  17.171  30.592  14.957
52848W        W25262  13.293  22.248  13.886
52849W        W25263  17.236  43.794   5.128
52850W        W25264   3.753  44.484  13.404
52851W        W25265  42.441  23.044  13.978
52852W        W25266   6.303  29.019   1.839
52853W        W25267  23.103   7.300   1.233
52854W        W25268  21.560  34.481  10.924
52855W        W25269  39.375   0.391  10.932
52856W        W25270  19.679  20.685   3.736
52857W        W25271  29.964  37.060   4.819
52858W        W25272  37.985  36.362  14.363
52859W        W25273  30.040  13.622   1.897
52860W        W25274  43.872  28.044   3.866
52861W        W25275  12.326  32.506  10.560
52862W        W25276   6.229  35.397  10.612
52863W        W25277   0.485   4.221   2.841
52864W        W25278  23.182   8.350  10.570
52865W        W25279   2.896  10.235   0.385
52866W        W25280  18.636  23.503   2.739
52867W        W25281  20.063  11.203  14.470
52868W        W25282  25.637   4.221   0.838
52869W        W25283   7.667  20.625  13.051
52870W        W25284  17.579   3.859  13.370
52871W        W25285  42.974  10.791   2.689
52872W        W25286  25.129  33.126  12.339
52873W        W25287  39.937  37.480  14.450
52874W        W25288  35.082  23.092   1.907
52875W        W25289   8.235   4.707   1.400
52876W        W25290  34.115  18.080  12.917
52877W        W25291  30.063  16.676  12.054
52878W        W25292  15.797  21.041  10.636
52879W        W25293  13.767  40.347  12.547
52880W        W25294  22.526  16.225   1.728
52881W        W25295  13.768  18.185  13.324
52882W        W25296  17.577  22.743   4.211
52883W        W25297  40.432  13.791  11.378
52884W        W25298   9.168  38.469   0.386
52885W        W25299  10.308  29.951   3.351
52886W        W25300  34.113   0.408  10.930
52887W        W25301  35.477  43.765  14.361
52888W        W25302   2.952  24.223   1.386
52889W        W25303  33.933  30.573   4.283
52890W        W25304  21.233  37.365  14.359
52891W        W25305  40.920   1.976  10.616
52892W        W25306  30.978   5.274   2.879
52893W        W25307  34.048  16.634   0.799
52894W        W25308  22.726  21.121   4.299
52895W        W25309  32.395   9.394   0.825
52896W        W25310  22.580  26.004  11.490
52897W        W25311  44.948  40.819   0.322
52898W        W25312  44.783  30.450   2.206
52899W        W25313  44.429  18.248   2.851
52900W        W25314  43.407  15.666   2.292
52901W        W25315  29.652  18.688   0.879
52902W        W25316  33.593  29.929   3.837
52903W        W25317  26.205  32.907  12.063
52904W        W25318  12.735   1.777   0.838
52905W        W25319  27.636  14.230  11.058
52906W        W25320  13.696  15.677   4.736
52907W        W25321  44.002  38.040  11.861
52908W        W25322   8.251  21.634  13.329
52909W        W25323  18.765   6.714   3.676
52910W        W25324   2.357   4.937   4.677
52911W        W25325  23.150  40.034  13.909
52912W        W25326  20.250   6.767   3.285
52913W        W25327  28.681   6.862  12.443
52914W        W25328  20.064  36.973  10.446
52915W        W25329  34.021  33.900  11.054
52916W        W25330  34.613  37.407  11.980
52917W        W25331  38.849  29.542   4.751
52918W        W25332  12.139   4.321   1.920
52919W        W25333  35.033  20.713  13.008
52920W        W25334  35.904  29.586   1.895
52921W        W25335  13.718  33.398  12.480
52922W        W25336   7.186  40.816   2.737
52923W        W25337  13.620  14.650   0.897
52924W        W25338  43.300   3.872  12.465
52925W        W25339  17.776  19.114   1.831
52926W        W25340  22.026  14.674  12.490
52927W        W25341   6.299  12.167  14.866
52928W        W25342  30.452  21.597   0.467
52929W        W25343   1.435  12.816   0.461
52930W        W25344  19.265   3.914  12.938
52931W        W25345   7.245  18.227  10.458
52932W        W25346   1.964  19.272   1.362
52933W        W25347  35.030  20.699   4.156
52934W        W25348  19.155  38.050   0.328
52935W        W25349  29.936   9.263   1.414
52936W        W25350  27.046  19.678  14.873
52937W        W25351  34.977   3.332   1.414
52938W        W25352  37.503  24.611   4.192
52939W        W25353  27.616  19.098   1.312
52940W        W25354  44.935  41.409  12.461
52941W        W25355  27.145  40.352  11.967
52942W        W25356   0.406  16.576  10.539
52943W        W25357  44.347   6.193  13.425
52944W        W25358   9.674  43.448  12.003
52945W        W25359  16.159  32.498  12.370
52946W        W25360   5.359  15.140  10.050
52947W        W25361  17.676   0.835   2.278
52948W        W25362  27.004  38.441   2.207
52949W        W25363   0.980  41.298   3.858
52950W        W25364   7.828  35.981  11.380
52951W        W25365  11.649  38.929  13.885
52952W        W25366   5.361  36.427   0.362
52953W        W25367  29.013  32.099   3.846
52954W        W25368  29.560  27.047   3.700
52955W        W25369  16.206  41.988  13.331
52956W        W25370  30.047  31.025   4.687
52957W        W25371   4.212  39.900  12.094
52958W        W25372  30.617  41.868  14.389
52959W        W25373  17.799  26.129   1.730
52960W        W25374   3.337  30.973   2.280
52961W        W25375  37.522  15.664  14.369
52962W        W25376  21.041  26.570  14.878
52963W        W25377  16.799   6.249  11.031
52964W        W25378   7.262   9.206   4.601
52965W        W25379  37.076  26.055   0.848
52966W        W25380  16.807  42.932  11.567
52967W        W25381  17.075  26.126   3.376
52968W        W25382  22.124  38.990   4.347
52969W        W25383  44.774  35.015   3.863
52970W        W25384  20.121   0.777  13.418
52971W        W25385  17.557   8.864  10.964
52972W        W25386  23.210  36.489   2.419
52973W        W25387  27.102  28.986  13.894
52974W        W25388  41.977  44.285   4.729
52975W        W25389  28.557  19.745   4.151
52976W        W25390   7.762  25.644  13.350
52977W        W25391  20.267  13.800   3.740
52978W        W25392   7.337  13.746   0.778
52979W        W25393  12.125  21.152   4.325
52980W        W25394  33.885  26.510  14.892
52981W        W25395   3.892  15.161  11.570
52982W        W25396  21.027  32.015  10.474
52983W        W25397  23.570  29.165   4.131
52984W        W25398  44.352  34.115  11.860
52985W        W25399   9.829  14.196   1.301
52986W        W25400  16.618  37.953  11.996
52987W        W25401  34.485  12.752   0.914
52988W        W25402   6.378   1.270  11.882
52989W        W25403   4.213  30.552  10.459
52990W        W25404  29.457  25.065  10.951
52991W        W25405  13.270   4.805   4.624
52992W        W25406  32.941  44.974   1.214
52993W        W25407  44.450  24.027   5.256
52994W        W25408  27.608  17.752  14.762
52995W        W25409  43.015  29.125   3.324
52996W        W25410  23.076  43.421  13.928
52997W        W25411  26.697  10.151   1.932
52998W        W25412  25.204  10.853  13.041
52999W        W25413  23.594  20.229   2.800
53000W        W25414  40.929  44.291  11.882
53001W        W25415  20.151  32.035   0.428
53002W        W25416  27.660  25.191  11.380
53003W        W25417  13.345  14.329  13.444
53004W        W25418  28.033   5.290  10.987
53005W        W25419  21.544  22.138  14.373
53006W        W25420  23.636  16.168  14.007
53007W        W25421  11.779  17.117  13.951
53008W        W25422  22.651  22.231   9.941
53009W        W25423  44.314  30.941   2.419
53010W        W25424   8.337  32.560   3.170
53011W        W25425   6.682  43.382  11.609
53012W        W25426  14.121  16.596  11.554
53013W        W25427  17.113  43.498  13.009
53014W        W25428  15.084   0.825   3.270
53015W        W25429  37.959   0.376   3.355
53016W        W25430  35.433  38.524  12.450
53017W        W25431  18.258  35.488   1.392
53018W        W25432  15.149  17.738  10.063
53019W        W25433  27.971  43.394  14.308
53020W        W25434  34.996  17.093   3.148
53021W        W25435  10.761  38.889  12.873
53022W        W25436  17.135   7.311  11.003
53023W        W25437  34.019  16.777   1.397
53024W        W25438   1.885   2.832  14.872
53025W        W25439  14.229  24.630  12.964
53026W        W25440  44.448   8.289   1.445
53027W        W25441  22.744  29.057  13.982
53028W        W25442   4.704  31.911   1.877
53029W        W25443  32.525   8.658  13.309
53030W        W25444   0.931  10.831  14.461
53031W        W25445  18.657  37.082  12.018
53032W        W25446  35.366   8.755  13.324
53033W        W25447  14.126  27.484   2.189
53034W        W25448  21.744   5.201   1.770
53035W        W25449  42.432   3.294   2.663
53036W        W25450  41.378  42.435   3.744
53037W        W25451  22.693   4.773  12.827
53038W        W25452  35.058   2.446   1.375
53039W        W25453  30.908  42.902   5.285
53040W        W25454  22.694  39.034   3.367
53041W        W25455   5.338  35.885  14.416
53042W        W25456  18.175  18.282   1.874
53043W        W25457  33.874   6.305   9.926
53044W        W25458  12.216  39.368   3.698
53045W        W25459  13.723  19.277   3.343
53046W        W25460  23.596   6.682  13.004
53047W        W25461  38.864   9.658  10.972
53048W        W25462  28.079   0.983   0.889
53049W        W25463  20.634   5.239  13.022
53050W        W25464   3.771  12.293  11.010
53051W        W25465  20.223  11.868  14.447
53052W        W25466  20.075  13.201   3.803
53053W        W25467  15.601  28.462  13.854
53054W        W25468  27.633  30.085   1.385
53055W        W25469  36.591  32.556   3.189
53056W        W25470  10.311  11.640   4.309
53057W        W25471  12.654  18.166  11.099
53058W        W25472  25.090   1.888  12.538
53059W        W25473  34.086  32.514  10.514
53060W        W25474  39.047   8.211  11.985
53061W        W25475  12.646  28.606   1.789
53062W        W25476  20.553  23.984   1.217
53063W        W25477  44.485  26.052  11.415
53064W        W25478  21.172  18.723   5.089
53065W        W25479  14.249  43.305  11.592
53066W        W25480  13.246  36.088  13.931
53067W        W25481  30.603   6.793  12.381
53068W        W25482  17.234   5.836   4.321
53069W        W25483   5.760  30.458  11.470
53070W        W25484  33.084  40.024   2.368
53071W        W25485  31.030  30.415   3.218
53072W        W25486  33.082  39.065  14.801
53073W        W25487  41.963  35.513  11.939
53074W        W25488  34.977  11.774  12.968
53075W        W25489   1.735   2.425   3.868
53076W        W25490   0.787  37.456   2.853
53077W        W25491  14.205  32.917   1.895
53078W        W25492  17.724   3.747  12.400
53079W        W25493  17.556  24.018  13.794
53080W        W25494  37.551  37.923   4.636
53081W        W25495  10.379  34.525  12.517
53082W        W25496  13.105  34.454  14.981
53083W        W25497   1.952  18.690  13.939
53084W        W25498  13.795  33.935  13.339
53085W        W25499  21.092  20.652   4.805
53086W        W25500   1.966  32.956   1.800
53087W        W25501   9.756  23.707   2.271
53088W        W25502  36.360  17.081  10.586
53089W        W25503  35.561   8.687  12.857
53090W        W25504  25.102  14.339  13.372
53091W        W25505  27.569  37.499   0.268
53092W        W25506  42.478  15.792  13.015
53093W        W25507  29.035  15.169  11.055
53094W        W25508  40.954   7.709   1.268
53095W        W25509   9.876   1.863   2.889
53096W        W25510  31.412  14.317  11.423
53097W        W25511   2.891  37.883  14.810
53098W        W25512  39.451  21.122   0.397
53099W        W25513  14.800  34.440  10.484
53100W        W25514  42.440  41.316   4.353
53101W        W25515  24.125  41.324  10.503
53102W        W25516   2.729  24.632  10.578
53103W        W25517  42.794  15.723  10.005
53104W        W25518   6.251  32.574   4.318
53105W        W25519  23.032  40.999  12.017
53106W        W25520   1.371  15.777  10.913
53107W        W25521  44.436  17.573  13.058
53108W        W25522   3.413  11.660   4.662
53109W        W25523  20.096  35.921   9.974
53110W        W25524  20.576  12.333  12.498
53111W        W25525  12.203  21.594  10.984
53112W        W25526  24.547  37.068   0.288
53113W        W25527   5.688  38.820  13.489
53114W        W25528  39.882   3.733  12.536
53115W        W25529  27.194  31.040  12.493
53116W        W25530  15.801  28.115   4.702
53117W        W25531  10.214  28.991  12.374
53118W        W25532  18.564  39.972   0.822
53119W        W25533  36.947  13.630   1.740
53120W        W25534  19.718  43.509  13.903
53121W        W25535  12.629  10.282   1.788
53122W        W25536  19.591  36.072   1.709
53123W        W25537  28.527   5.192  10.922
53124W        W25538  24.718   7.295  12.474
53125W        W25539  36.356  15.323   0.402
53126W        W25540   2.405  25.593  11.082
53127W        W25541   4.419  11.338  13.826
53128W        W25542   4.232  29.043   1.719
53129W        W25543  27.613  26.053   4.170
53130W        W25544  44.770  41.440  13.928
53131W        W25545  13.348  39.343  14.854
53132W        W25546  14.250  29.524  10.958
53133W        W25547  15.815  14.126   3.749
53134W        W25548  11.786   7.270  10.568
53135W        W25549   5.326  44.503  13.797
53136W        W25550  12.762   3.899  10.432
53137W        W25551  40.849   8.165   0.280
53138W        W25552  11.147  19.087   2.200
53139W        W25553  30.550   8.343  14.845
53140W        W25554  16.150  19.768   0.290
53141W        W25555  43.984  40.848   2.390
53142W        W25556  24.046  22.995  11.529
53143W        W25557   1.320  31.982   0.849
53144W        W25558  43.801  22.588   0.285
53145W        W25559  13.195  24.660   4.189
53146W        W25560  24.691  31.980  12.914
53147W        W25561  22.539  38.410   2.407
53148W        W25562  14.148   7.282  14.351
53149W        W25563  30.501  39.394   4.775
53150W        W25564  27.473   4.833   0.372
53151W        W25565  28.516   7.272  14.321
53152W        W25566  30.025  14.224  14.851
53153W        W25567  12.764  14.103  12.484
53154W        W25568  36.042  42.936  12.520
53155W        W25569   8.791  19.730   4.687
53156W        W25570   7.865  28.171   2.239
53157W        W25571  29.450  13.696   0.887
53158W        W25572  34.071  29.008   4.146
53159W        W25573  28.654  28.655   0.850
53160W        W25574   7.802  24.069  14.905
53161W        W25575  44.290  14.326  11.465
53162W        W25576  26.693  42.505   0.766
53163W        W25577  29.620  29.585   2.385
53164W        W25578  27.975  24.720  13.411
53165W        W25579  36.010   5.821  13.828
53166W        W25580  19.704   0.950   0.348
53167W        W25581  21.749  40.914  11.935
53168W        W25582   6.205  22.037   2.380
53169W        W25583  28.995  26.005  10.908
53170W        W25584  12.212  42.290  10.605
53171W        W25585  38.900   1.461  11.073
53172W        W25586   7.337  11.699   2.189
53173W        W25587  21.164  41.844  13.841
53174W        W25588  26.651  39.521   1.368
53175W        W25589   7.297  41.319   4.248
53176W        W25590  40.819  21.132   4.343
53177W        W25591  24.716  18.545   9.933
53178W        W25592  10.273   2.865   3.372
53179W        W25593  22.181  23.637   2.822
53180W        W25594  22.714  29.577  14.287
53181W        W25595   6.852  40.419   4.135
53182W        W25596  28.624  12.302   3.228
53183W        W25597  23.129  37.002   0.792
53184W        W25598  15.688   5.913  13.357
53185W        W25599  38.979  19.602   2.870
53186W        W25600  10.224  23.669  10.465
53187W        W25601  35.064  24.197  10.640
53188W        W25602  31.020   1.907   1.751
53189W        W25603   5.291   6.263  13.522
53190W        W25604  23.999   8.744   3.640
53191W        W25605   6.339  44.925   0.952
53192W        W25606  37.841  36.940   1.927
53193W        W25607   5.292  10.847   2.178
53194W        W25608   7.173  19.207  12.478
53195W        W25609  11.370   4.845   0.736
53196W        W25610  36.888  23.111   3.296
53197W        W25611  28.937  44.886  13.793
53198W        W25612   4.724  41.415   0.907
53199W        W25613  17.724   9.722   3.634
53200W        W25614  10.283  35.886  10.414
53201W        W25615  39.054  36.898  11.477
53202W        W25616  14.149  15.186   4.659
53203W        W25617  18.202  19.251  14.875
53204W        W25618  15.642  33.053   3.301
53205W        W25619  32.011  26.196   2.319
53206W        W25620   0.340  10.799   0.468
53207W        W25621  44.384  26.965   3.731
53208W        W25622  39.973  44.979   4.706
53209W        W25623  38.389  15.159   4.719
53210W        W25624  24.113  16.300   4.791
53211W        W25625   8.161   7.842  13.012
53212W        W25626  28.943   6.867  13.344
53213W        W25627  40.996  19.280   2.346
53214W        W25628   5.266  26.177   2.896
53215W        W25629  14.819  37.046  11.959
53216W        W25630  20.556  13.199   0.796
53217W        W25631  30.943  17.249  13.475
53218W        W25632  43.504  31.484  12.067
53219W        W25633   2.833  24.170  12.832
53220W        W25634   4.445  37.051  13.404
53221W        W25635  17.125   8.655  13.982
53222W        W25636  14.150  16.738   2.831
53223W        W25637  19.740  25.591  11.108
53224W        W25638   1.812   5.783  10.972
53225W        W25639   2.406   8.400   1.789
53226W        W25640  24.042  29.151  11.037
53227W        W25641  15.615   6.252   5.243
53228W        W25642  24.098  22.054  11.425
53229W        W25643  10.639  38.489   2.192
53230W        W25644  39.483  10.817   1.328
53231W        W25645  32.569   4.928   2.793
53232W        W25646  37.933  21.022   5.230
53233W        W25647  16.298   2.805   3.801
53234W        W25648  14.692  38.536  12.037
53235W        W25649   8.851  10.674   2.828
53236W        W25650  37.341   7.265  13.386
53237W        W25651  44.326  21.690   1.781
53238W        W25652  21.570  37.962   2.845
53239W        W25653  20.159  30.155  14.375
53240W        W25654   2.261  25.156  12.439
53241W        W25655  41.861  29.658   3.212
53242W        W25656  33.054  30.656   3.672
53243W        W25657  19.545  33.048  11.388
53244W        W25658   9.709  28.580  10.439
53245W        W25659  39.940   7.344   3.184
53246W        W25660  32.413  37.033   3.331
53247W        W25661  34.029  14.119   4.126
53248W        W25662   8.320  32.896  12.435
53249W        W25663  33.098  17.715   2.707
53250W        W25664  14.140  21.252   2.266
53251W        W25665  26.022   9.795   4.620
53252W        W25666  38.442   5.400   4.235
53253W        W25667  43.432  32.005  14.977
53254W        W25668  36.907  29.096  11.906
53255W        W25669  24.665  19.176   9.978
53256W        W25670  37.045   1.358  14.274
53257W        W25671  24.724   7.909  14.296
53258W        W25672  44.432  33.471  14.279
53259W        W25673  42.825   1.768   9.931
53260W        W25674  39.530  24.556   1.786
53261W        W25675  12.206   1.832  10.997
53262W        W25676  42.945   0.254  10.485
53263W        W25677  21.690  24.188  14.497
53264W        W25678  33.993  18.763  12.868
53265W        W25679  22.076   9.725  12.412
53266W        W25680  20.574  34.521   3.237
53267W        W25681  11.324  17.267   3.645
53268W        W25682  22.016  14.609   4.130
53269W        W25683   9.684  38.842  11.477
53270W        W25684   5.862   9.685  14.445
53271W        W25685   2.855  26.698   0.886
53272W        W25686  43.326  26.470   4.324
53273W        W25687  33.508  30.942  10.470
53274W        W25688  25.625  32.415  12.835
53275W        W25689  30.581  18.623  10.930
53276W        W25690   6.791  42.403   2.878
53277W        W25691  30.534  43.270   2.340
53278W        W25692  38.914  27.564  12.555
53279W        W25693  43.980  11.810  14.770
53280W        W25694  15.307  39.456  14.425
53281W        W25695  20.742   8.780   4.292
53282W        W25696  19.702   8.703   9.975
53283W        W25697  29.960  40.976   0.852
53284W        W25698  43.383  28.035  14.778
53285W        W25699  33.507  34.937   0.464
53286W        W25700  12.252  16.658   3.692
53287W        W25701  20.114  18.137   3.870
53288W        W25702  25.011   0.972   3.318
53289W        W25703  18.231  31.095   2.827
53290W        W25704  26.682  12.819   1.835
53291W        W25705  35.413  20.545  11.429
53292W        W25706  36.368  24.127  13.798
53293W        W25707  39.386  19.645   3.800
53294W        W25708   0.873  38.438   4.670
53295W        W25709  42.792  17.793  14.396
53296W        W25710  31.509  33.581   3.318
53297W        W25711  12.348  33.969  12.857
53298W        W25712  14.724   7.406   1.363
53299W        W25713  15.098  43.416  11.412
53300W        W25714   7.389  15.213  11.880
53301W        W25715   5.876  30.971   2.207
53302W        W25716   7.386  27.120   1.319
53303W        W25717  33.891  41.306  11.379
53304W        W25718  27.546  28.929   1.242
53305W        W25719  43.810  11.205  13.464
53306W        W25720  29.505  33.008  12.343
53307W        W25721  15.224   4.212  14.851
53308W        W25722   6.355  39.966   4.250
53309W        W25723   0.452  25.474  10.906
53310W        W25724  10.308   2.821   2.192
53311W        W25725  44.339  13.669   9.923
53312W        W25726  13.679   4.723  13.056
53313W        W25727  23.622  23.175  10.525
53314W        W25728  32.596  38.963  11.548
53315W        W25729  27.543  28.479  14.774
53316W        W25730  19.663   1.814   0.294
53317W        W25731  30.621   8.787  13.791
53318W        W25732  36.437  40.914  13.963
53319W        W25733  28.985  16.288  12.420
53320W        W25734  42.434  23.602   0.387
53321W        W25735  40.456   3.871   4.196
53322W        W25736   9.164  22.582  11.908
53323W        W25737  22.055  31.092  11.542
53324W        W25738  22.653  12.657  13.449
53325W        W25739  15.756   8.184   5.113
53326W        W25740  30.481   6.853   0.378
53327W        W25741   1.288   8.286   1.823
53328W        W25742  30.908  10.671  14.354
53329W        W25743  17.116   1.926  11.392
53330W        W25744  28.655  39.355  13.408
53331W        W25745  37.358   2.347  11.416
53332W        W25746  35.977  36.516   2.306
53333W        W25747  18.239  29.122   1.393
53334W        W25748  28.093  41.875  12.982
53335W        W25749   9.380  21.757  12.460
53336W        W25750  26.973  43.828  10.609
53337W        W25751  28.993  34.040  12.540
53338W        W25752  12.354  23.224  13.496
53339W        W25753  39.439   8.399  10.912
53340W        W25754  33.963   4.917   2.771
53341W        W25755   0.938  40.470  12.084
53342W        W25756  27.083  35.965  11.912
53343W        W25757  12.251  33.106  12.942
53344W        W25758  32.516  41.345   3.232
53345W        W25759  38.372  13.737  10.574
53346W        W25760  28.002  43.331   4.318
53347W        W25761  22.740  11.339   1.785
53348W        W25762  29.996  17.245   0.302
53349W        W25763   5.799  13.265  14.498
53350W        W25764  32.033  27.461   0.913
53351W        W25765  26.638  25.074  10.894
53352W        W25766   0.462  14.273   4.249
53353W        W25767   6.907  25.473  14.836
53354W        W25768  34.488  39.906   4.785
53355W        W25769  20.033   5.734   4.168
53356W        W25770   1.253  42.780   4.824
53357W        W25771  16.161  41.515   1.302
53358W        W25772  44.970   4.321   4.245
53359W        W25773  12.351   8.290   1.715
53360W        W25774   0.466  43.981   4.211
53361W        W25775  28.519  36.930   1.417
53362W        W25776  15.743  29.115   4.839
53363W        W25777  12.705   4.397  14.792
53364W        W25778  26.622  13.658   4.629
53365W        W25779  29.134  22.115   3.343
53366W        W25780  12.804  29.073  13.005
53367W        W25781  32.125  33.031   0.249
53368W        W25782  37.004  25.033   0.251
53369W        W25783  35.522  26.072   2.396
53370W        W25784   3.888   7.904  11.028
53371W        W25785  28.606  36.577  10.621
53372W        W25786  33.499   3.241  12.522
53373W        W25787  19.166   1.951  10.632
53374W        W25788  30.941  30.987   3.204
53375W        W25789  42.936  27.561   2.313
53376W        W25790  10.283  12.277   0.865
53377W        W25791  40.832  12.739   0.963
53378W        W25792  18.721  10.186  10.506
53379W        W25793  40.533  10.190  12.071
53380W        W25794  32.479   7.186   2.298
53381W        W25795  12.286  24.717   0.342
53382W        W25796  42.836  28.560   0.942
53383W        W25797  17.562   4.269   2.289
53384W        W25798  15.203   8.228   5.679
53385W        W25799  42.409   6.885   0.811
53386W        W25800  44.369  14.813  12.071
53387W        W25801  14.786  19.236  12.366
53388W        W25802  12.255  11.224  12.403
53389W        W25803  43.385  37.388   4.773
53390W        W25804  15.140   1.277   4.163
53391W        W25805   3.898  26.098   4.822
53392W        W25806  41.962  12.341  11.971
53393W        W25807  29.014  19.615  11.400
53394W        W25808   0.846   4.423   2.184
53395W        W25809  33.456  36.384   3.192
53396W        W25810  15.278   4.806   1.909
53397W        W25811  44.458   9.704   3.177
53398W        W25812  39.404  38.381  14.371
53399W        W25813   3.867  37.976   1.307
53400W        W25814  36.960  17.685  14.307
53401W        W25815  42.993   5.821   4.622
53402W        W25816   5.327  19.075   4.771
53403W        W25817  24.524  13.750   4.614
53404W        W25818  24.126  24.628  14.981
53405W        W25819   3.226  42.805   2.340
53406W        W25820  17.639  14.730   3.244
53407W        W25821  21.513  28.549   4.725
53408W        W25822  16.806  22.218  14.805
53409W        W25823  13.799  41.326   2.260
53410W        W25824   9.293  19.549   2.193
53411W        W25825  16.131  32.973   1.845
53412W        W25826  11.264  12.282   2.346
53413W        W25827  16.660  29.122  13.378
53414W        W25828  34.415  33.613  10.967
53415W        W25829  32.133   7.277   4.788
53416W        W25830  41.482  18.654   2.339
53417W        W25831  11.853  15.811  13.880
53418W        W25832   5.718   3.423   0.269
53419W        W25833  24.159   4.236   1.425
53420W        W25834  43.916  21.689  11.991
53421W        W25835  44.878   5.200   0.246
53422W        W25836  20.119   6.229  13.434
53423W        W25837  28.037  25.566   5.188
53424W        W25838  10.326   2.320   5.157
53425W        W25839   6.730  36.504   4.738
53426W        W25840  31.059  21.198   1.695
53427W        W25841  42.426  17.071   4.680
53428W        W25842  42.295   2.946   1.417
53429W        W25843  44.940  44.404  13.021
53430W        W25844  41.984   1.237  14.452
53431W        W25845  13.322   3.729   3.857
53432W        W25846  20.749  10.233  11.071
53433W        W25847  20.618   1.974  12.379
53434W        W25848  26.554  36.471  13.469
53435W        W25849  39.441  27.521   0.840
53436W        W25850  12.131  33.615   4.229
53437W        W25851  16.273   6.211   4.794
53438W        W25852  15.139  10.205   4.175
53439W        W25853  37.847  26.951   4.725
53440W        W25854  33.480  43.350  14.007
53441W        W25855  19.104  29.966  13.355
53442W        W25856  23.127  10.287   0.347
53443W        W25857  31.470  38.933   4.278
53444W        W25858  19.155  29.461  13.393
53445W        W25859  24.615  38.534  12.407
53446W        W25860  13.665  10.384   0.925
53447W        W25861   0.906  11.357  12.450
53448W        W25862  13.307  18.580   1.794
53449W        W25863  32.011  26.702   4.142
53450W        W25864  25.169  41.896  11.502
53451W        W25865   3.768   0.287  12.408
53452W        W25866  31.406  33.494   0.349
53453W        W25867  25.054  15.577  14.388
53454W        W25868  29.591   5.350  12.340
53455W        W25869  21.749  40.401  14.407
53456W        W25870  42.941   8.219  14.913
53457W        W25871  37.572   2.780  12.088
53458W        W25872  40.010  43.008   1.399
53459W        W25873   0.466   2.819  10.443
53460W        W25874  18.605  17.193  13.918
53461W        W25875  26.483  21.518  11.373
53462W        W25876  27.643   4.699   2.791
53463W        W25877  41.492  12.230   3.376
53464W        W25878   7.814  22.081   2.350
53465W        W25879  35.043  13.299   1.870
53466W        W25880  14.129  27.187   3.311
53467W        W25881  24.184  11.211  12.538
53468W        W25882  22.089  37.359   2.342
53469W        W25883  14.755  28.480   2.323
53470W        W25884  43.905  24.663   3.629
53471W        W25885  14.687   8.240   4.175
53472W        W25886  12.234  10.315  10.575
53473W        W25887  34.529  33.094  12.385
53474W        W25888  37.005  31.572   2.759
53475W        W25889  34.369   3.261  12.873
53476W        W25890  25.999  10.658   0.890
53477W        W25891  39.956   3.392  12.464
53478W        W25892  20.582   8.667  10.932
53479W        W25893  20.261  28.169  11.877
53480W        W25894  39.556  28.126  12.390
53481W        W25895   4.918  11.176  14.916
53482W        W25896  24.566  15.696   1.908
53483W        W25897  23.724  39.989   2.303
53484W        W25898  16.183  29.174   4.806
53485W        W25899  26.125  30.929   2.278
53486W        W25900  37.884  35.493  12.455
53487W        W25901  22.638  41.406   4.672
53488W        W25902  33.473  21.669   5.246
53489W        W25903   3.296  20.597   0.419
53490W        W25904  30.093  11.351  14.332
53491W        W25905  32.133   3.905   4.610
53492W        W25906  44.318  44.457   1.918
53493W        W25907  16.144  22.514   4.693
53494W        W25908  19.537  30.953   2.827
53495W        W25909  10.319  23.101  13.833
53496W        W25910   8.295  30.659  10.936
53497W        W25911  22.558  16.078  15.000
53498W        W25912  26.061  44.295   1.389
53499W        W25913  15.189   9.841   0.906
53500W        W25914  43.937  43.869   3.803
53501W        W25915  27.944  22.235   0.392
53502W        W25916  10.657  25.101  14.507
53503W        W25917  10.351  29.059  10.531
53504W        W25918   9.228  26.595  14.478
53505W        W25919  33.466  37.539  13.022
53506W        W25920  32.959  20.239   1.338
53507W        W25921  19.254   9.215   1.313
53508W        W25922  39.401  28.135  13.958
53509W        W25923   9.795  35.428  13.391
53510W        W25924   7.793  36.531   0.407
53511W        W25925   0.311  44.776  11.458
53512W        W25926  25.043   5.365   3.223
53513W        W25927  11.737  24.209  13.518
53514W        W25928  11.274  19.769   3.742
53515W        W25929  13.662  13.282   2.885
53516W        W25930  33.031  43.449   4.126
53517W        W25931  38.883  34.109  12.400
53518W        W25932  25.655  38.388  14.497
53519W        W25933  27.577  11.664   4.832
53520W        W25934  42.818  28.679  11.929
53521W        W25935  17.719  35.976   4.664
53522W        W25936  26.062   4.889  11.116
53523W        W25937  31.921  14.758  13.838
53524W        W25938  16.602  13.799  10.591
53525W        W25939  10.802   0.888  14.759
53526W        W25940  30.007  40.025   0.376
53527W        W25941  34.898  42.945   3.775
53528W        W25942  40.424   5.336  12.512
53529W        W25943  32.391  12.762   0.459
53530W        W25944  42.312  16.676   2.770
53531W        W25945  40.430  37.929  12.442
53532W        W25946  15.819  11.791   0.768
53533W        W25947  43.337  14.727   2.847
53534W        W25948  10.820  42.449   1.778
53535W        W25949   9.366  41.932   4.835
53536W        W25950   5.929   4.703   1.386
53537W        W25951  34.588  34.386  12.383
53538W        W25952  37.008  38.497   3.804
53539W        W25953  17.095  14.167  14.449
53540W        W25954  17.175  20.149  14.934
53541W        W25955  17.776  39.381  12.005
53542W        W25956  26.645  24.654  12.022
53543W        W25957  31.937  43.436   4.704
53544W        W25958  41.913  13.622   3.274
53545W        W25959   2.807  17.603  13.485
53546W        W25960  37.563   3.323   4.229
53547W        W25961  42.831  15.748  12.055
53548W        W25962  18.150  44.292  11.391
53549W        W25963  20.032   3.713  11.499
53550W        W25964  11.750  28.600  12.570
53551W        W25965  35.461   2.398  11.877
53552W        W25966  43.879  29.054   3.320
53553W        W25967  14.626  21.553   2.840
53554W        W25968   4.821  33.945   4.680
53555W        W25969   1.799   4.726   5.138
53556W        W25970   4.810  31.535  12.509
53557W        W25971  40.935  15.262  14.360
53558W        W25972  29.515  34.473  11.382
53559W        W25973  24.576  13.325  11.381
53560W        W25974   4.356  38.569  12.987
53561W        W25975  13.181  36.927   3.353
53562W        W25976  16.583   4.378  13.800
53563W        W25977  27.041  38.841  13.912
53564W        W25978   9.253  18.050  13.525
53565W        W25979  14.264  13.692  11.922
53566W        W25980  11.241  19.777   4.191
53567W        W25981  31.500  20.595  11.609
53568W        W25982   8.310  10.820   4.780
53569W        W25983  43.964  23.077  13.988
53570W        W25984  12.196  16.673  12.932
53571W        W25985   5.714  27.538   5.124
53572W        W25986  44.488  35.010   3.751
53573W        W25987  24.019  44.269  11.963
53574W        W25988   8.251  19.196  13.491
53575W        W25989   9.667  40.459   3.744
53576W        W25990  20.174   9.725   4.215
53577W        W25991  41.986  25.068  10.416
53578W        W25992  33.987  42.488  12.541
53579W        W25993  17.275   1.300  12.033
53580W        W25994  33.983  40.908  14.800
53581W        W25995  28.120  37.071  13.889
53582W        W25996   2.324   3.217  12.556
53583W        W25997   5.426   1.912   2.395
53584W        W25998   1.868  41.873  14.398
53585W        W25999  33.062  42.924  12.019
53586W        W26000   8.254  38.987  12.442
53587W        W26001  20.242   0.445  10.989
53588W        W26002  38.884  34.024   4.170
53589W        W26003  15.774   8.295   1.356
53590W        W26004  22.642  37.849  10.574
53591W        W26005  16.655  18.071  12.925
53592W        W26006   5.747   8.195  13.442
53593W        W26007   0.791  36.922   4.147
53594W        W26008  43.962  42.830  14.999
53595W        W26009   7.813   5.739   2.356
53596W        W26010   1.893  10.350  10.911
53597W        W26011  34.612  17.597  14.415
53598W        W26012  43.858  34.008   1.864
53599W        W26013  26.204  18.615   4.732
53600W        W26014   4.825  15.228  12.570
53601W        W26015  19.710  24.571   2.291
53602W        W26016  33.077  22.246  12.947
53603W        W26017   6.329  27.507   2.776
53604W        W26018  28.058   4.899   0.332
53605W        W26019  38.381  41.538  14.514
53606W        W26020  34.880  25.002  12.069
53607W        W26021   3.944   8.698  10.076
53608W        W26022  30.010  34.425   3.784
53609W        W26023  13.122  32.891   3.256
53610W        W26024  25.180  13.243  10.505
53611W        W26025  11.322   0.481  12.505
53612W        W26026  25.077  19.750   1.229
53613W        W26027  21.140  14.683   1.433
53614W        W26028  12.237  41.399   0.786
53615W        W26029  15.262  43.873  12.975
53616W        W26030  36.408  22.202   4.819
53617W        W26031   7.207   5.851   2.880
53618W        W26032  41.378   7.276  14.768
53619W        W26033   5.929   9.667  12.364
53620W        W26034  38.821  29.509  14.818
53621W        W26035   5.711   3.429  12.026
53622W        W26036   1.961  19.582   0.266
53623W        W26037  17.301  10.300   3.266
53624W        W26038  13.813  14.697   0.430
53625W        W26039   9.328  37.985  12.564
53626W        W26040  14.604   6.806   0.327
53627W        W26041  31.531  17.718   0.426
53628W        W26042  30.099  18.124   2.711
53629W        W26043  13.302  22.233   3.677
53630W        W26044  15.673   0.490   3.196
53631W        W26045  39.867  38.544   4.263
53632W        W26046   5.715  19.226   0.815
53633W        W26047   7.735  19.542  10.472
53634W        W26048  33.951  23.719   1.243
53635W        W26049  18.178  21.653   1.889
53636W        W26050   3.414  14.654  10.603
53637W        W26051  38.444  41.975  12.028
53638W        W26052  25.683  15.660  14.798
53639W        W26053  12.151  38.400  13.475
53640W        W26054  16.679  22.245   4.129
53641W        W26055  13.692  40.822  11.993
53642W        W26056  17.159  26.050   2.398
53643W        W26057  43.822  40.347  10.527
53644W        W26058  33.388  30.487   1.427
53645W        W26059   2.421  27.544   3.239
53646W        W26060  25.147  43.287  10.518
53647W        W26061  13.156  25.531  13.939
53648W        W26062  35.070  11.241  12.889
53649W        W26063  29.570   7.725   5.283
53650W        W26064  23.516   2.948   3.368
53651W        W26065  11.202  17.131   1.375
53652W        W26066   6.894  30.600   4.344
53653W        W26067  33.070  19.154  14.417
53654W        W26068  36.974   7.758   0.428
53655W        W26069  37.937  23.729   3.274
53656W        W26070  38.828  27.151  11.605
53657W        W26071  10.246  12.814  11.452
53658W        W26072  19.668   7.699  10.474
53659W        W26073  36.473  34.513  10.478
53660W        W26074  27.135  16.813  11.423
53661W        W26075  30.453  31.073  12.472
53662W        W26076  13.185  44.007  12.434
53663W        W26077   0.845   4.795   0.865
53664W        W26078  33.981  22.518  10.462
53665W        W26079   5.923  40.409   4.314
53666W        W26080   6.696  17.640  10.605
53667W        W26081  41.443  44.468   1.227
53668W        W26082  34.590  44.278  11.515
53669W        W26083  33.472   5.786  14.436
53670W        W26084  18.169  19.647   1.848
53671W        W26085  10.850  20.067  12.382
53672W        W26086   9.701  32.528  10.553
53673W        W26087  34.081   5.913  14.505
53674W        W26088   4.376  23.731   2.673
53675W        W26089  34.599  40.379  12.018
53676W        W26090   0.778  39.977   1.351
53677W        W26091   8.863   8.165   1.285
53678W        W26092   0.435   6.316   2.316
53679W        W26093  41.459  40.356   1.345
53680W        W26094  25.529   6.682   2.693
53681W        W26095  23.496  34.907   1.912
53682W        W26096  10.720   2.406  12.555
53683W        W26097   7.844   7.819  14.927
53684W        W26098  32.924  41.486  10.621
53685W        W26099  29.042  32.078  14.768
53686W        W26100  43.397  40.525   3.199
53687W        W26101  26.051   8.178   3.234
53688W        W26102   5.262  26.076  11.028
53689W        W26103  28.566  39.514  11.088
53690W        W26104   8.796  12.849   3.851
53691W        W26105   4.254  19.540  10.543
53692W        W26106  19.715  35.991   0.451
53693W        W26107  44.287  11.720   4.837
53694W        W26108  25.204  29.950  10.633
53695W        W26109   3.828  27.527  10.096
53696W        W26110  15.291  31.608   4.822
53697W        W26111   5.212  23.538  14.853
53698W        W26112   0.274  35.933   2.407
53699W        W26113  17.663   5.836  14.899
53700W        W26114   2.870  39.811  10.460
53701W        W26115   4.222  39.337   1.370
53702W        W26116  41.338   1.337  11.867
53703W        W26117   9.314  26.058   4.603
53704W        W26118  32.624  22.183  13.534
53705W        W26119  32.105  29.520   3.350
53706W        W26120  42.443  11.772   1.331
53707W        W26121  29.970   8.787  10.573
53708W        W26122  25.127  40.009   4.170
53709W        W26123  22.638  18.618  10.926
53710W        W26124  14.200  19.156   0.797
53711W        W26125  13.185  33.607   0.360
53712W        W26126  26.563   7.253   0.449
53713W        W26127  41.858  13.191  14.892
53714W        W26128  34.439   6.399   3.204
53715W        W26129  10.647   4.419  12.886
53716W        W26130  34.893  30.974  12.477
53717W        W26131  21.580  22.503  12.404
53718W        W26132  27.518  44.758   0.960
53719W        W26133   5.800   6.273   0.393
53720W        W26134  15.133  15.131  11.403
53721W        W26135  17.226  38.566   4.204
53722W        W26136  39.922  14.271  12.065
53723W        W26137  33.608   9.657  13.028
53724W        W26138  27.143  13.605  13.836
53725W        W26139  28.129   9.226   2.263
53726W        W26140  19.548  41.486   2.340
53727W        W26141  26.047  15.282   4.154
53728W        W26142  40.429  23.570   0.365
53729W        W26143  22.234  13.315  13.352
53730W        W26144  20.078   8.767   2.787
53731W        W26145   6.357  16.811  12.468
53732W        W26146  12.205  18.120   3.351
53733W        W26147  35.852  40.017   3.294
53734W        W26148  41.334  14.779   0.786
53735W        W26149   4.316   7.353   2.815
53736W        W26150  28.957  28.642   0.731
53737W        W26151  40.842   5.930  10.906
53738W        W26152  42.852   5.271  12.548
53739W        W26153  16.614  10.176  12.948
53740W        W26154  30.146   4.298  12.371
53741W        W26155   4.820   7.366   2.876
53742W        W26156  31.911  40.021   2.788
53743W        W26157  22.558  24.044   4.225
53744W        W26158   4.356  24.536  11.443
53745W        W26159  36.569   3.924   2.229
53746W        W26160   1.843   5.803  14.972
53747W        W26161  31.570  37.991  13.012
53748W        W26162  31.135   3.446  11.409
53749W        W26163  40.477   1.252  13.906
53750W        W26164  32.074  44.942  13.826
53751W        W26165  17.701  33.583  10.529
53752W        W26166  10.809  41.856   4.759
53753W        W26167  36.926  16.300   0.730
53754W        W26168  41.005  22.218   0.820
53755W        W26169  27.002  31.644  14.948
53756W        W26170  20.713  10.849  11.602
53757W        W26171  15.714  32.629  14.914
53758W        W26172  24.087   1.873   3.371
53759W        W26173   1.783  40.344  11.020
53760W        W26174   3.224  42.513   9.479
53761W        W26175  22.560  30.959  12.889
53762W        W26176  21.541  20.233  13.982
53763W        W26177  41.789  11.817  13.802
53764W        W26178   5.734   4.394  11.063
53765W        W26179  19.210  15.295  14.458
53766W        W26180  26.020  25.592  14.997
53767W        W26181   2.879   9.277  10.639
53768W        W26182  16.796  38.883   1.330
53769W        W26183  35.912  10.878   0.880
53770W        W26184   8.348  15.815  11.115
53771W        W26185   1.785  17.086  12.829
53772W        W26186  35.918  14.288  11.405
53773W        W26187  30.449  24.719  12.441
53774W        W26188  43.382  18.658   4.664
53775W        W26189  44.406  14.157   4.711
53776W        W26190  36.073  19.678   0.469
53777W        W26191  33.498  25.661   4.695
53778W        W26192  19.171   0.376  12.829
53779W        W26193  29.478  24.576   1.242
53780W        W26194  12.258  32.020   4.737
53781W        W26195  39.907   7.851   1.379
53782W        W26196  34.591   7.208  12.075
53783W        W26197   4.940  25.619   4.692
53784W        W26198  43.437  15.615  11.508
53785W        W26199  13.826  12.664   2.268
53786W        W26200  41.995  36.527   2.775
53787W        W26201  26.163   5.389   4.119
53788W        W26202   1.828  20.041   2.845
53789W        W26203  32.614  17.696  12.455
53790W        W26204  32.410  32.508   1.925
53791W        W26205  36.346  35.574  12.072
53792W        W26206  41.480  25.680   4.203
53793W        W26207   9.826   2.275   0.312
53794W        W26208  12.179   6.305  12.541
53795W        W26209  35.907  18.149  12.854
53796W        W26210  40.449  31.407  14.323
53797W        W26211  30.963   6.852   2.195
53798W        W26212  25.142  20.056   0.271
53799W        W26213  41.425   4.363   1.224
53800W        W26214  10.809  30.962   3.684
53801W        W26215  37.879  43.830  11.541
53802W        W26216  16.618  12.813   4.647
53803W        W26217  15.807  42.513   3.212
53804W        W26218  44.769  32.988   2.405
53805W        W26219  31.090  38.429   4.812
53806W        W26220  23.560  29.962   2.671
53807W        W26221  24.988  18.595  12.390
53808W        W26222   4.273   2.756  14.894
53809W        W26223  36.519  30.109   1.799
53810W        W26224  24.671   1.932   4.219
53811W        W26225  24.215  41.914  13.507
53812W        W26226  20.037  32.119  10.565
53813W        W26227  44.411  41.423   2.216
53814W        W26228  12.308  30.053  11.117
53815W        W26229   3.866  10.754   0.740
53816W        W26230  17.141  25.640  13.370
53817W        W26231  27.977  35.365   0.333
53818W        W26232  35.971  17.741   2.384
53819W        W26233  12.239  18.545  11.924
53820W        W26234  31.911  20.544  11.022
53821W        W26235  41.351  29.987  13.474
53822W        W26236  41.529  13.158  11.512
53823W        W26237  11.863  40.925  13.805
53824W        W26238  22.252  44.475   2.689
53825W        W26239   7.763  18.136  10.540
53826W        W26240  30.989   3.376   1.307
53827W        W26241  41.385  14.823  13.379
53828W        W26242  19.208  13.112   4.118
53829W        W26243  34.009  33.436   3.182
53830W        W26244  10.665   7.284  13.543
53831W        W26245  38.075  27.037  13.909
53832W        W26246   1.808  35.429  14.888
53833W        W26247  18.628  40.051   2.288
53834W        W26248   3.446  44.998  11.446
53835W        W26249  34.113  18.779  11.546
53836W        W26250  17.061   9.202   0.477
53837W        W26251  10.144  14.253   1.413
53838W        W26252  19.071  20.594  13.976
53839W        W26253  22.131  37.525   5.260
53840W        W26254  31.637  42.854  13.528
53841W        W26255  20.618   5.928   3.301
53842W        W26256   8.349  32.018   4.258
53843W        W26257  25.668  30.060  11.924
53844W        W26258  36.442  26.053   0.314
53845W        W26259  19.159   7.809   0.841
53846W        W26260  33.068  13.325   3.162
53847W        W26261   2.766  17.745   0.350
53848W        W26262  44.490  24.534   0.959
53849W        W26263  12.783  20.666  14.997
53850W        W26264  31.003  33.477  12.948
53851W        W26265  18.256  37.044   4.183
53852W        W26266   3.821   6.384  14.857
53853W        W26267  25.488  29.560   3.247
53854W        W26268  36.886  17.300   4.167
53855W        W26269   4.266  28.472   2.754
53856W        W26270   8.720  42.961  11.025
53857W        W26271  44.473   4.925  12.967
53858W        W26272  24.039  13.612   0.355
53859W        W26273  43.920   2.424   0.368
53860W        W26274   4.327  44.922   2.252
53861W        W26275  24.569  39.360  13.439
53862W        W26276  16.252  29.525   0.769
53863W        W26277  23.000  44.979  14.444
53864W        W26278  26.193   4.778  14.474
53865W        W26279   5.791   0.781   2.799
53866W        W26280   8.248  27.500  11.558
53867W        W26281  16.300  18.581   4.266
53868W        W26282  31.577  35.916  11.477
53869W        W26283  30.435  10.221   2.269
53870W        W26284  43.816  38.978  14.836
53871W        W26285  16.705  22.078  13.365
53872W        W26286  22.580  24.059   0.444
53873W        W26287  14.169  16.646  13.959
53874W        W26288   6.304  27.192  11.034
53875W        W26289   3.711   5.711   2.817
53876W        W26290  31.422  26.078   3.307
53877W        W26291  28.474  31.437  13.962
53878W        W26292  32.449   3.270   3.667
53879W        W26293   7.818  35.891   0.267
53880W        W26294  28.929  15.637   1.405
53881W        W26295   4.387   1.240  10.599
53882W        W26296  36.526  16.263  11.390
53883W        W26297  12.335  38.021   4.649
53884W        W26298  13.340   5.319  11.126
53885W        W26299   8.210  11.151   0.830
53886W        W26300   0.401  11.678   2.835
53887W        W26301  40.050  15.752   4.775
53888W        W26302  15.234  37.019   4.801
53889W        W26303  20.696  31.104  14.440
53890W        W26304  12.669   4.290   1.230
53891W        W26305  10.298   9.866   5.207
53892W        W26306  27.178  24.574  10.980
53893W        W26307   1.386   2.809  14.486
53894W        W26308   3.730  16.174   1.368
53895W        W26309   6.769  18.278  13.852
53896W        W26310  30.575  44.345   5.142
53897W        W26311  15.620  16.740  13.867
53898W        W26312  26.990  23.017   3.236
53899W        W26313  32.063  18.292   1.891
53900W        W26314   4.384  11.854   2.697
53901W        W26315  25.677   4.354   3.213
53902W        W26316  36.948  12.298  12.485
53903W        W26317  38.470  35.085   5.272
53904W        W26318  19.684  41.377   1.921
53905W        W26319  19.080  18.053   3.344
53906W        W26320  22.206  11.827   3.195
53907W        W26321  31.578   1.758   4.326
53908W        W26322  43.978  11.299  10.416
53909W        W26323  32.107  40.366  13.012
53910W        W26324   6.309  14.691   2.404
53911W        W26325  36.976  14.229   2.795
53912W        W26326  41.411   9.680  13.383
53913W        W26327  15.204  18.242  12.988
53914W        W26328  24.177  39.355   2.308
53915W        W26329  38.392  24.137   1.251
53916W        W26330  32.636  18.148   4.141
53917W        W26331   2.912   8.212   0.909
53918W        W26332   2.946   5.252   4.694
53919W        W26333  39.893  28.617   1.735
53920W        W26334  11.239  33.942   1.363
53921W        W26335  33.093  34.989   2.835
53922W        W26336  25.673   9.770   3.267
53923W        W26337   5.403   8.205   0.480
53924W        W26338   0.915  17.585  13.799
53925W        W26339   8.324  26.481   2.189
53926W        W26340  40.809  19.178   3.752
53927W        W26341  41.994  25.997   1.720
53928W        W26342  44.833  41.937  13.321
53929W        W26343  30.101  29.524  13.863
53930W        W26344  17.103   1.783   1.277
53931W        W26345   1.329  15.702  13.368
53932W        W26346   6.287  29.954   4.723
53933W        W26347  32.889   7.239  13.994
53934W        W26348  36.043  28.666  12.960
53935W        W26349   3.754  27.542  12.484
53936W        W26350  25.506  38.918   0.961
53937W        W26351   8.379   2.275  14.483
53938W        W26352   2.430   5.386   2.417
53939W        W26353   3.794  24.147   2.246
53940W        W26354   0.837  29.447   2.677
53941W        W26355  19.211  26.548   1.445
53942W        W26356  35.364   8.366   3.860
53943W        W26357  35.578  36.524   4.202
53944W        W26358  23.219  40.414   4.825
53945W        W26359  24.689  20.679   0.339
53946W        W26360  39.495   6.753   3.723
53947W        W26361   2.440  13.652   4.227
53948W        W26362   5.364   4.711   1.339
53949W        W26363  40.451  42.997  13.391
53950W        W26364   9.346  38.057   4.704
53951W        W26365  35.532  30.157  11.085
53952W        W26366  23.536   7.233  12.424
53953W        W26367  19.067   3.230   1.903
53954W        W26368   9.712  42.310  11.573
53955W        W26369  10.338  36.503   2.685
53956W        W26370  44.473  26.564   1.352
53957W        W26371  40.506  34.529  12.033
53958W        W26372  12.287  35.871   2.282
53959W        W26373   0.441  22.540   2.213
53960W        W26374  34.440   4.930   2.210
53961W        W26375  25.711  29.154   4.185
53962W        W26376  43.814  38.448   2.863
53963W        W26377  10.151  14.666  12.012
53964W        W26378   2.886   5.914   1.244
53965W        W26379   3.425  23.656  13.816
53966W        W26380   8.700  13.783   4.606
53967W        W26381  36.447  30.911  11.012
53968W        W26382   9.752  33.088  12.455
53969W        W26383  37.344  36.481   3.367
53970W        W26384  43.352   5.425  11.471
53971W        W26385   9.238  35.996  11.511
53972W        W26386  31.974  41.980  12.513
53973W        W26387   9.683  13.281   3.752
53974W        W26388  16.706  16.151  13.917
53975W        W26389  19.738  18.681  11.901
53976W        W26390   6.277  27.000  12.848
53977W        W26391  18.767  15.281  11.889
53978W        W26392  18.753   5.361   0.827
53979W        W26393  24.115   3.727  14.027
53980W        W26394   9.156   8.679   3.326
53981W        W26395  38.524  44.922  12.095
53982W        W26396  32.103  38.395   3.738
53983W        W26397  40.959  25.208   2.741
53984W        W26398  32.117  24.591  13.053
53985W        W26399   7.415  34.567   1.216
53986W        W26400  32.578  31.142   3.258
53987W        W26401  20.165  14.787   4.261
53988W        W26402   0.463  25.187   2.728
53989W        W26403  18.149   1.408   1.712
53990W        W26404  16.610  31.501   0.943
53991W        W26405  17.614  21.684  13.829
53992W        W26406  13.313  39.976   1.402
53993W        W26407  21.239  31.582   1.335
53994W        W26408  36.443  21.517  14.454
53995W        W26409  40.447  44.503   0.799
53996W        W26410  16.276  16.576  12.376
53997W        W26411  22.150  15.658   0.750
53998W        W26412  13.155  38.970   0.337
53999W        W26413  23.083  30.543  13.532
54000W        W26414   7.805  38.429   1.331
54001W        W26415  20.061   3.329   3.360
54002W        W26416  39.908  29.129   1.248
54003W        W26417  12.310  10.715  13.448
54004W        W26418   2.757   9.785   3.304
54005W        W26419  28.005  30.105  12.943
54006W        W26420   2.378  37.967   1.880
54007W        W26421  25.089  37.898   3.327
54008W        W26422   7.331  16.260   0.245
54009W        W26423  39.961  44.779   1.911
54010W        W26424  31.971  24.160  14.024
54011W        W26425   9.679  43.974   0.902
54012W        W26426  19.738  10.306   1.921
54013W        W26427   0.824   0.799   3.370
54014W        W26428  37.907  28.565   3.366
54015W        W26429  26.536  34.029  14.303
54016W        W26430   8.782  24.724  10.500
54017W        W26431  43.441  23.195   2.334
54018W        W26432  27.674   0.826   0.428
54019W        W26433  33.395  24.004  13.897
54020W        W26434  14.598   4.387   2.707
54021W        W26435  13.111   5.787  13.019
54022W        W26436   7.254   8.827   2.300
54023W        W26437   3.241   2.249  13.411
54024W        W26438   9.238  30.442   1.398
54025W        W26439  26.074  12.318   1.890
54026W        W26440  35.855   4.713  13.852
54027W        W26441  35.549  42.894  11.995
54028W        W26442  11.273  30.138  14.792
54029W        W26443  28.152  12.718  11.902
54030W        W26444  38.509  36.428   4.338
54031W        W26445  25.172   6.779  12.351
54032W        W26446  28.569  20.715   0.917
54033W        W26447  35.064  16.163   4.719
54034W        W26448  24.694  23.063   3.372
54035W        W26449  44.892  12.274   3.729
54036W        W26450  40.854  35.414   0.932
54037W        W26451   4.863  15.757   4.645
54038W        W26452  24.009  22.590  10.490
54039W        W26453  14.657   1.943  12.954
54040W        W26454  33.406  38.957   0.369
54041W        W26455  21.529  30.582   0.299
54042W        W26456   4.238  44.955   1.410
54043W        W26457  13.708  11.741  10.426
54044W        W26458  37.879  18.736  11.541
54045W        W26459  18.622  24.055   1.243
54046W        W26460   9.222   8.244  14.798
54047W        W26461  30.649   4.922  12.418
54048W        W26462  12.809  27.524   4.790
54049W        W26463   9.282  27.197   0.831
54050W        W26464  36.376   9.247  10.964
54051W        W26465  27.616  10.348  11.115
54052W        W26466  19.197  38.519   2.856
54053W        W26467   3.329  42.508   0.253
54054W        W26468  10.699  22.069  10.441
54055W        W26469  29.662  15.297  11.457
54056W        W26470  31.485  38.019   0.484
54057W        W26471  41.337  14.791  12.447
54058W        W26472   8.264   0.339   3.694
54059W        W26473  29.441  38.331  13.791
54060W        W26474  42.430  29.030  12.521
54061W        W26475  28.962  42.425   3.314
54062W        W26476  33.500  19.103  14.931
54063W        W26477  39.404  29.928   1.914
54064W        W26478  41.385  13.652  10.517
54065W        W26479  41.866  15.728  14.324
54066W        W26480  22.503  34.083   2.692
54067W        W26481  13.635  27.119  14.939
54068W        W26482  33.999   2.932   1.698
54069W        W26483  40.969  33.407  13.344
54070W        W26484  28.935   5.364   4.135
54071W        W26485  28.179  43.932   0.253
54072W        W26486  22.038   2.279   4.792
54073W        W26487  26.041   3.799  12.912
54074W        W26488   4.899   5.257   1.760
54075W        W26489  23.681  14.630   0.807
54076W        W26490  11.162  29.491  11.426
54077W        W26491  29.006  34.876   3.369
54078W        W26492  30.593  19.099   0.743
54079W        W26493  12.292  40.879  14.923
54080W        W26494  14.291  24.003  10.465
54081W        W26495  30.010  21.622  10.477
54082W        W26496  28.979   3.388   2.199
54083W        W26497   1.959  13.771  10.076
54084W        W26498  12.740  32.011   2.856
54085W        W26499   3.753  17.782  11.512
54086W        W26500  25.576  14.830   2.765
54087W        W26501  15.320  44.408  14.353
54088W        W26502  42.430   9.880  11.396
54089W        W26503   0.771  34.428   1.722
54090W        W26504  10.320  25.682  13.797
54091W        W26505  20.674   8.360  13.941
54092W        W26506  14.153  32.003  11.504
54093W        W26507  30.612  34.901   1.883
54094W        W26508   0.280  27.169  12.347
54095W        W26509   5.249  18.063  13.023
54096W        W26510  27.999  17.183   3.726
54097W        W26511  17.665  32.008  12.356
54098W        W26512  29.093  37.513  14.026
54099W        W26513  17.097  39.399   0.427
54100W        W26514  40.331  34.576   0.429
54101W        W26515  26.151  35.454   0.352
54102W        W26516  13.217  26.194  10.542
54103W        W26517  17.087  21.636   4.165
54104W        W26518  12.649  26.118   1.214
54105W        W26519  23.022  16.601  10.048
54106W        W26520   1.313  22.025  12.869
54107W        W26521   7.202   4.763  11.892
54108W        W26522  33.884  17.784  11.885
54109W        W26523  32.452  11.167  14.891
54110W        W26524  10.246  39.488   2.366
54111W        W26525   7.831  14.723   2.865
54112W        W26526  23.550  18.596  13.035
54113W        W26527   9.217  20.115   4.145
54114W        W26528   9.312  25.682   4.616
54115W        W26529  38.910   1.923  13.514
54116W        W26530  27.999  30.529  11.022
54117W        W26531   9.866  27.953   4.646
54118W        W26532  10.335  10.202  12.969
54119W        W26533   8.794  37.535  11.118
54120W        W26534  11.634  35.089  13.838
54121W        W26535   4.355  23.586  12.547
54122W        W26536  18.751  15.655  12.552
54123W        W26537  33.923  18.267   0.430
54124W        W26538  27.488   8.868   4.291
54125W        W26539  42.813  44.366  10.965
54126W        W26540  39.930  41.892   1.759
54127W        W26541  33.086  39.463  11.991
54128W        W26542  44.773  35.405  14.435
54129W        W26543  23.720   8.758  10.512
54130W        W26544   2.872  34.944   1.887
54131W        W26545  19.697  17.183   3.161
54132W        W26546   2.728   7.203   1.782
54133W        W26547  32.886  40.025   4.773
54134W        W26548   9.333  21.258  13.827
54135W        W26549   4.365   6.840   4.126
54136W        W26550  14.714  42.409  13.826
54137W        W26551  26.491  18.267   3.269
54138W        W26552  11.637  29.073  12.491
54139W        W26553  34.510  11.764  12.018
54140W        W26554  18.758  43.844  14.963
54141W        W26555  30.146  17.266  14.943
54142W        W26556  34.026  10.690   1.855
54143W        W26557  17.620  37.503  14.912
54144W        W26558   2.923   9.275  14.825
54145W        W26559  11.335  31.046  11.612
54146W        W26560   2.922  34.959   2.794
54147W        W26561  13.750  26.994   1.316
54148W        W26562  38.460  35.857  11.465
54149W        W26563  33.592  11.317  14.773
54150W        W26564  26.624   3.449  10.012
54151W        W26565  43.475   9.331  10.499
54152W        W26566   9.288  31.105   1.744
54153W        W26567  40.365  40.005  10.587
54154W        W26568  34.979  16.611   0.354
54155W        W26569  26.621  12.244   3.146
54156W        W26570   1.240  12.343  11.467
54157W        W26571  10.723  40.397   2.710
54158W        W26572   5.295  28.643  14.375
54159W        W26573  33.933  40.536  14.889
54160W        W26574  14.821  25.016  11.393
54161W        W26575   0.306  13.761   2.256
54162W        W26576  11.353  42.826   5.248
54163W        W26577  40.048  13.111   1.393
54164W        W26578  29.994  40.952  14.291
54165W        W26579  23.719   2.383   0.815
54166W        W26580  40.829  32.011   3.355
54167W        W26581  12.122  28.005  10.644
54168W        W26582  16.602   7.851  14.303
54169W        W26583  11.284   0.846   2.395
54170W        W26584  35.392  41.792   2.701
54171W        W26585  37.831  40.451  13.341
54172W        W26586   7.801  42.501   0.251
54173W        W26587   7.206  25.972  11.978
54174W        W26588  18.548  25.580  10.588
54175W        W26589   7.726   7.795   1.750
54176W        W26590  40.469  18.747  10.896
54177W        W26591   0.343  26.632   1.901
54178W        W26592   5.241   2.823   2.294
54179W        W26593  29.012   5.361  12.577
54180W        W26594  38.536   5.229  11.095
54181W        W26595  36.082   6.423   2.326
54182W        W26596  34.487  21.064  13.864
54183W        W26597  32.117   5.238  12.440
54184W        W26598  21.170  40.321  13.804
54185W        W26599  32.906  30.010  14.416
54186W        W26600  41.936  12.325   3.698
54187W        W26601  40.833  24.591   0.812
54188W        W26602  22.143   0.832  10.520
54189W        W26603  12.151  20.183   4.838
54190W        W26604   6.182  38.337  10.974
54191W        W26605  23.071  41.412   3.329
54192W        W26606  35.604  20.080   2.747
54193W        W26607  31.494  10.664   1.823
54194W        W26608   3.450   1.891   0.377
54195W        W26609  24.219  33.010  10.917
54196W        W26610   6.693  22.598  14.343
54197W        W26611  10.141  43.895  13.956
54198W        W26612   3.295  12.288  11.045
54199W        W26613  20.100  33.910   2.681
54200W        W26614  40.524  38.035   1.220
54201W        W26615  14.751  26.604  10.540
54202W        W26616  33.970  10.357  13.316
54203W        W26617  39.899   3.378   2.873
54204W        W26618  36.022  36.927   4.822
54205W        W26619  35.361  17.556  11.545
54206W        W26620  37.404  39.942  14.855
54207W        W26621  41.789  20.158   2.344
54208W        W26622  14.125  29.068   0.481
54209W        W26623  21.644  23.002  13.920
54210W        W26624  26.010  13.720   4.692
54211W        W26625  37.072  29.110  12.991
54212W        W26626  38.567  29.429   1.851
54213W        W26627   6.922  21.131  11.570
54214W        W26628  26.583  25.110   5.136
54215W        W26629  22.113  22.544   3.715
54216W        W26630  22.702  11.244   4.731
54217W        W26631  44.475  42.805  10.496
54218W        W26632   5.918   2.437   0.465
54219W        W26633  37.520  31.907  12.905
54220W        W26634  30.446   1.783   1.901
54221W        W26635  39.417  37.072   0.296
54222W        W26636   9.233  37.938  13.956
54223W        W26637  34.401  27.609  14.915
54224W        W26638  10.690  11.798  13.928
54225W        W26639  24.559   5.907   1.759
54226W        W26640  44.423  29.595  12.998
54227W        W26641   1.744   4.759  14.785
54228W        W26642  13.238   1.246   3.857
54229W        W26643  20.698  36.411   1.353
54230W        W26644  20.168  43.880  12.984
54231W        W26645  33.546  36.853   0.856
54232W        W26646  15.722   6.339   2.697
54233W        W26647  14.813   0.455  11.051
54234W        W26648  42.990  30.990   2.871
54235W        W26649  33.414  42.008  14.305
54236W        W26650  16.083  27.514   3.718
54237W        W26651  43.442  34.089  11.016
54238W        W26652  13.266  37.017  13.511
54239W        W26653   8.228  44.940   0.369
54240W        W26654  26.019  30.607   4.791
54241W        W26655  18.553  26.472  10.458
54242W        W26656   6.820  25.028   3.755
54243W        W26657  18.619   5.701   9.947
54244W        W26658   4.703  38.382  10.957
54245W        W26659   6.390  37.067   0.736
54246W        W26660  21.517   0.294  12.021
54247W        W26661   2.441  24.161   4.781
54248W        W26662  26.165   8.167  12.357
54249W        W26663  24.229  43.016   2.851
54250W        W26664  12.776  13.732   2.867
54251W        W26665  26.458  14.625   3.194
54252W        W26666   9.299   3.799   3.777
54253W        W26667  21.221  39.520  12.898
54254W        W26668  23.198  17.198   2.419
54255W        W26669  27.473  41.525  11.436
54256W        W26670  28.470  16.186  12.885
54257W        W26671  41.439  43.418   3.829
54258W        W26672   0.389  31.472   1.737
54259W        W26673  24.643  42.803  12.543
54260W        W26674   2.873  15.588   2.870
54261W        W26675  36.007  33.085  11.591
54262W        W26676  12.188  38.519  12.537
54263W        W26677   3.904  26.209   3.271
54264W        W26678  13.605   0.922  14.431
54265W        W26679  29.492  28.679   2.213
54266W        W26680  14.130  20.170   5.599
54267W        W26681  22.716   5.231  11.963
54268W        W26682   2.764  36.030   4.757
54269W        W26683  20.224  22.522   1.926
54270W        W26684  25.486  30.962   3.675
54271W        W26685  29.626  26.005   3.177
54272W        W26686   2.277  32.505  14.319
54273W        W26687   1.911  32.973   0.290
54274W        W26688  43.861  42.935   3.219
54275W        W26689  41.375  26.021   1.818
54276W        W26690  33.401   9.221   1.294
54277W        W26691  12.638  26.625   3.704
54278W        W26692  40.874  30.095   2.228
54279W        W26693   5.839  24.689  12.462
54280W        W26694  13.200  29.566  13.416
54281W        W26695  31.036  33.103  13.367
54282W        W26696  10.735  18.785   4.354
54283W        W26697  41.839  32.623   1.393
54284W        W26698  22.621  32.905   0.303
54285W        W26699  27.490  41.489   1.775
54286W        W26700  25.064  17.242  12.395
54287W        W26701  25.118  20.536  14.877
54288W        W26702  18.746  23.622  13.515
54289W        W26703  35.078  33.077  14.461
54290W        W26704  24.082  27.949  14.871
54291W        W26705  35.076  35.090  14.902
54292W        W26706  18.237  34.541  11.974
54293W        W26707  30.978  15.726  11.515
54294W        W26708  28.104  10.705  14.889
54295W        W26709  29.073   3.770  12.514
54296W        W26710  28.056  15.753  12.957
54297W        W26711  23.594  22.095  11.379
54298W        W26712  43.807  31.617   3.777
54299W        W26713  25.575  37.002   4.355
54300W        W26714  13.831  42.891   0.432
54301W        W26715   7.685  12.330  13.892
54302W        W26716  25.062  17.111   1.341
54303W        W26717  13.604  33.901   1.212
54304W        W26718  42.294  15.638   2.187
54305W        W26719   0.773  10.339  10.917
54306W        W26720   2.272  18.077  14.394
54307W        W26721  40.873  38.517  11.004
54308W        W26722  30.940  16.712   2.862
54309W        W26723  31.073  42.820   2.803
54310W        W26724   5.690   9.822  11.072
54311W        W26725  29.439  25.693  13.016
54312W        W26726  43.316  41.536  12.955
54313W        W26727  43.447  33.049  13.959
54314W        W26728  13.803  35.975  12.846
54315W        W26729   9.355  32.531   3.736
54316W        W26730  44.977  15.782  12.082
54317W        W26731   8.677  13.687  11.881
54318W        W26732   9.767  38.908   2.389
54319W        W26733  10.254   7.886   0.308
54320W        W26734  20.109  27.503   0.755
54321W        W26735  43.357  32.031  13.521
54322W        W26736  11.360  37.472  14.498
54323W        W26737  35.927  38.835   2.729
54324W        W26738  10.836   3.328  13.345
54325W        W26739  22.513  12.174   1.925
54326W        W26740  33.892  11.288  14.862
54327W        W26741  12.663  11.338  10.620
54328W        W26742  31.054  25.476  11.479
54329W        W26743  17.775  10.256  14.922
54330W        W26744   4.373  30.476  13.910
54331W        W26745   1.866   2.955  13.051
54332W        W26746  24.668  22.701   2.689
54333W        W26747  33.126  19.090  11.081
54334W        W26748  12.766   5.789  14.392
54335W        W26749  27.654  10.244   3.249
54336W        W26750   9.225  14.773   2.292
54337W        W26751  15.253  40.415   4.711
54338W        W26752  44.277  36.531   4.189
54339W        W26753  34.895  19.641  12.826
54340W        W26754  23.648  28.502   4.253
54341W        W26755  39.460  16.105  10.443
54342W        W26756  29.997  26.532   3.757
54343W        W26757  34.082  12.236  14.903
54344W        W26758  34.381  17.263   2.257
54345W        W26759  38.965   4.862  10.559
54346W        W26760   7.297  29.943   3.813
54347W        W26761   1.834  23.573   4.329
54348W        W26762  26.590  17.224   3.148
54349W        W26763  39.384   7.821  11.050
54350W        W26764   2.230  28.046   4.823
54351W        W26765  37.486  24.198  10.642
54352W        W26766  11.251   4.331  13.924
54353W        W26767  25.578  22.161  13.328
54354W        W26768   5.823  44.969  10.628
54355W        W26769  18.080  19.622  12.386
54356W        W26770  17.170   6.390  10.473
54357W        W26771  10.792  30.564  14.420
54358W        W26772  25.582   9.777   2.277
54359W        W26773  35.586   6.716  10.630
54360W        W26774  20.150  23.216   0.888
54361W        W26775  10.746  29.657  14.930
54362W        W26776  40.899  11.191  12.448
54363W        W26777  15.213  10.329  14.890
54364W        W26778  28.633  15.177   1.257
54365W        W26779  39.064   0.321   2.243
54366W        W26780   0.791  32.452  13.420
54367W        W26781  19.688  35.864  13.505
54368W        W26782   8.211  39.554   2.419
54369W        W26783  31.036  41.494  11.079
54370W        W26784   5.769   5.776  13.505
54371W        W26785  28.979  26.466   3.654
54372W        W26786  43.447  23.586  10.937
54373W        W26787   9.803  33.911   2.718
54374W        W26788  34.504  44.505  14.963
54375W        W26789  26.697  19.078   0.450
54376W        W26790   8.783  22.156  10.592
54377W        W26791  35.101  33.037  12.940
54378W        W26792  33.886  43.333   1.278
54379W        W26793  17.622  17.655  14.919
54380W        W26794  31.638   5.712   1.871
54381W        W26795  31.610   4.720  10.613
54382W        W26796  30.102  24.169   3.199
54383W        W26797  43.835   2.267  12.847
54384W        W26798  15.636  35.943   1.256
54385W        W26799  20.710   3.330   3.742
54386W        W26800  25.672  31.526   0.765
54387W        W26801  41.381   1.451   3.293
54388W        W26802  18.059  10.178   1.327
54389W        W26803  40.979   3.350  13.471
54390W        W26804   5.894  26.050  10.992
54391W        W26805  28.938  30.514   0.913
54392W        W26806  43.475  16.226  14.389
54393W        W26807  23.036  19.632  11.958
54394W        W26808  11.841  17.284  11.037
54395W        W26809   4.285  36.884   4.353
54396W        W26810  38.868   6.341  12.423
54397W        W26811   1.303  10.661   3.360
54398W        W26812   3.778  39.064   4.774
54399W        W26813  30.445  29.443  10.621
54400W        W26814  43.515  35.402  14.921
54401W        W26815  35.929   5.436  12.840
54402W        W26816  31.010  14.325   1.268
54403W        W26817  24.035   8.803   2.764
54404W        W26818   4.398  27.573  10.105
54405W        W26819  19.137  24.077   1.378
54406W        W26820  18.699  19.230  12.957
54407W        W26821  29.127  19.655  11.022
54408W        W26822  33.024  19.671  13.907
54409W        W26823   2.371  34.548  11.443
54410W        W26824  42.393  19.285  11.516
54411W        W26825   5.356  44.323  14.909
54412W        W26826  20.077   3.314   4.245
54413W        W26827  12.187  18.257   1.371
54414W        W26828  11.128  25.694   3.850
54415W        W26829  41.811  33.102   3.787
54416W        W26830  41.894  44.963   0.911
54417W        W26831   6.216  18.098   4.165
54418W        W26832  27.998  31.097   2.373
54419W        W26833  33.101  31.408  10.480
54420W        W26834  25.544  10.839  13.860
54421W        W26835  19.214  37.440  13.993
54422W        W26836   6.907  42.808   3.359
54423W        W26837  29.108   2.423   2.382
54424W        W26838  28.092  27.048  11.546
54425W        W26839  42.356   0.925   4.705
54426W        W26840  10.689  10.862  10.644
54427W        W26841  36.487  36.497  10.587
54428W        W26842   8.163  32.949   0.739
54429W        W26843   4.278  33.518   1.347
54430W        W26844  12.772   6.268   1.404
54431W        W26845   2.279  33.399  12.889
54432W        W26846  11.677  32.474  12.387
54433W        W26847  25.057  22.020  13.326
54434W        W26848  12.826   9.715  14.861
54435W        W26849  27.594  22.079  13.450
54436W        W26850  41.804  15.287  14.776
54437W        W26851  27.647  28.491   1.838
54438W        W26852   6.414  15.753  14.904
54439W        W26853  15.181   1.243  11.046
54440W        W26854  13.342  24.219  11.382
54441W        W26855  25.158  26.159  13.840
54442W        W26856   2.228  42.975   3.811
54443W        W26857  27.117  28.592   1.879
54444W        W26858  21.173  13.668   0.785
54445W        W26859  27.129  19.752   0.876
54446W        W26860  39.903   4.374  10.452
54447W        W26861  25.107  23.997   0.360
54448W        W26862  16.744  17.154   2.788
54449W        W26863   4.339  44.832  14.959
54450W        W26864  39.431  26.953  12.827
54451W        W26865  30.918   3.876  13.454
54452W        W26866   4.844  12.653  14.830
54453W        W26867  37.981   8.187  13.533
54454W        W26868  19.544   2.361   3.244
54455W        W26869  13.280  40.956  14.962
54456W        W26870   8.668  31.904   2.676
54457W        W26871  26.124  35.579   2.329
54458W        W26872   8.698  27.116  14.029
54459W        W26873  20.142  41.434   5.160
54460W        W26874  40.845  26.026   0.402
54461W        W26875  14.279  38.039  14.502
54462W        W26876   1.787   5.755   2.338
54463W        W26877  16.650  29.080  12.974
54464W        W26878  29.043  37.434  14.834
54465W        W26879  10.161   3.434  13.334
54466W        W26880   9.876  12.721   0.338
54467W        W26881  27.482  16.208  11.117
54468W        W26882  13.614  18.735   2.178
54469W        W26883  18.697  35.520  10.963
54470W        W26884  21.619  30.115  10.451
54471W        W26885  39.358  28.934   3.658
54472W        W26886  41.851   6.410   0.776
54473W        W26887  39.466  40.447  10.964
54474W        W26888  20.093  30.157   3.284
54475W        W26889  13.749   4.256  10.459
54476W        W26890  20.713  35.948  13.005
54477W        W26891  42.875  33.496   5.214
54478W        W26892  16.124  25.202   1.315
54479W        W26893  33.436  28.630  14.788
54480W        W26894  16.734  10.875  13.830
54481W        W26895   7.313  43.458  14.400
54482W        W26896   4.743  39.975  12.571
54483W        W26897  16.632  25.617  11.915
54484W        W26898  25.584  20.604   0.906
54485W        W26899  35.384  34.028   3.742
54486W        W26900  41.426  16.166  11.966
54487W        W26901   0.356   4.337   3.781
54488W        W26902  28.501  24.050   4.335
54489W        W26903  19.747   8.676  14.449
54490W        W26904  26.688   4.781   4.195
54491W        W26905  36.079  30.983  13.847
54492W        W26906  19.703  33.028   3.238
54493W        W26907  30.012   6.745   3.193
54494W        W26908  25.587  40.842  11.878
54495W        W26909   4.720  23.063  14.480
54496W        W26910  27.042  41.843   3.339
54497W        W26911  33.438   9.852  10.614
54498W        W26912   6.741   7.802   2.861
54499W        W26913  40.823  27.643   1.322
54500W        W26914  37.466   3.448  10.598
54501W        W26915   6.310  35.531   2.701
54502W        W26916  26.190   0.491  14.930
54503W        W26917   1.287  11.287   0.957
54504W        W26918   0.798  24.575   1.816
54505W        W26919  26.190  44.887   0.287
54506W        W26920   5.251  40.832   4.626
54507W        W26921  35.457   3.924   4.122
54508W        W26922  16.094   2.298   2.326
54509W        W26923  21.202   5.389   2.881
54510W        W26924  17.226  19.158  10.924
54511W        W26925   9.168   4.901   9.924
54512W        W26926   4.821  18.744  14.492
54513W        W26927   8.795  21.516  13.430
54514W        W26928   7.787  21.613  10.430
54515W        W26929  12.754  16.714   3.654
54516W        W26930   2.949  18.610   2.397
54517W        W26931  19.076  20.684   4.727
54518W        W26932  38.929  17.744   3.171
54519W        W26933  11.753  37.365  14.914
54520W        W26934  31.938  31.103   4.706
54521W        W26935   3.767  43.860  11.474
54522W        W26936  33.566  26.147  13.387
54523W        W26937  22.084  43.375   4.754
54524W        W26938  21.703  35.483   1.243
54525W        W26939  24.534  29.971  11.867
54526W        W26940  34.885   9.351  11.582
54527W        W26941  32.572   3.363  10.421
54528W        W26942   3.725  37.840  12.010
54529W        W26943  35.884  26.486   0.434
54530W        W26944   3.811  10.181  12.346
54531W        W26945   2.455  28.025  10.443
54532W        W26946  31.027   4.731   0.848
54533W        W26947  15.265  19.706   1.894
54534W        W26948  30.465  38.334  13.792
54535W        W26949  38.886  14.332   2.808
54536W        W26950  38.524  17.606   0.829
54537W        W26951  36.904  38.994  14.312
54538W        W26952  31.945   1.797   1.825
54539W        W26953  42.873  34.005   2.305
54540W        W26954   9.281  17.698   2.805
54541W        W26955  21.575  28.033   0.262
54542W        W26956  15.734   9.306  11.883
54543W        W26957   6.876  21.168  11.122
54544W        W26958  36.934  27.150   1.927
54545W        W26959  19.674  13.160   0.335
54546W        W26960   9.862   7.686  12.057
54547W        W26961  11.725   0.351   0.432
54548W        W26962  41.346  22.121  12.026
54549W        W26963   5.695  35.035   0.475
54550W        W26964  22.742  33.495   1.346
54551W        W26965  40.971   0.449  12.546
54552W        W26966  37.559  44.504  11.989
54553W        W26967   2.325  36.074   2.380
54554W        W26968  42.299  42.816   2.327
54555W        W26969  26.097  32.926   0.806
54556W        W26970  26.139  44.893  12.461
54557W        W26971   1.784   6.805   3.223
54558W        W26972  11.794  33.582   0.923
54559W        W26973  43.964  41.924   3.387
54560W        W26974  41.983   9.775   2.355
54561W        W26975  35.907  17.260  12.039
54562W        W26976  19.700  15.325  12.373
54563W        W26977  40.948  37.541  12.445
54564W        W26978  42.353  34.455   1.271
54565W        W26979  18.247  33.400   4.683
54566W        W26980  39.412   7.280   2.888
54567W        W26981  32.041  30.111  13.901
54568W        W26982  27.690  44.288  10.410
54569W        W26983  13.323  33.383  13.467
54570W        W26984  37.553  41.872   3.708
54571W        W26985  11.333  11.206  14.461
54572W        W26986  30.094  24.667  14.024
54573W        W26987  17.802  25.472  10.951
54574W        W26988  27.021  10.672  14.867
54575W        W26989  34.890  25.678  14.465
54576W        W26990  19.204  31.618   1.934
54577W        W26991  32.052   6.224  12.948
54578W        W26992  37.453  16.127   2.848
54579W        W26993  18.624  44.975   1.903
54580W        W26994  20.035  22.710  14.420
54581W        W26995  31.977   5.347  14.876
54582W        W26996   6.427   2.796   2.185
54583W        W26997  22.567  18.641   2.403
54584W        W26998  29.436   4.431   0.916
54585W        W26999  13.778  30.478  13.925
54586W        W27000  19.097  28.632  11.533
54587W        W27001  35.936  44.335   2.178
54588W        W27002  29.941   2.769  13.413
54589W        W27003  34.881   6.398   3.275
54590W        W27004  24.025   3.376  12.916
54591W        W27005  26.030  14.268   4.320
54592W        W27006  38.959  43.392   0.955
54593W        W27007  37.899  44.333  10.939
54594W        W27008   8.838   9.217  10.506
54595W        W27009  18.070   2.808   2.358
54596W        W27010   3.888  21.164  13.855
54597W        W27011  29.430  10.201   2.335
54598W        W27012  44.773  18.749  13.902
54599W        W27013  35.921   0.909  12.515
54600W        W27014  22.223  16.603  14.885
54601W        W27015  41.011  15.232   0.913
54602W        W27016  28.538   4.780   1.441
54603W        W27017   4.436  13.331  12.048
54604W        W27018   6.858  19.234  13.362
54605W        W27019   8.251  24.489   4.768
54606W        W27020  44.832  24.010  13.380
54607W        W27021  38.529  17.617   1.790
54608W        W27022  25.968  43.493  11.977
54609W        W27023  29.000  44.995   1.390
54610W        W27024  43.290  31.124   4.212
54611W        W27025  16.143  44.992  12.906
54612W        W27026   5.242   0.854   2.759
54613W        W27027  18.128   0.879   3.748
54614W        W27028  30.940  17.608  14.809
54615W        W27029  22.053  44.824  13.875
54616W        W27030   1.935  17.684   2.688
54617W        W27031  22.204  23.045   3.270
54618W        W27032  15.699  37.889  11.088
54619W        W27033  15.675  43.008   0.287
54620W        W27034  27.576   9.709  14.019
54621W        W27035   3.779   0.909  10.567
54622W        W27036  23.111  26.590  10.947
54623W        W27037   4.869  15.169  14.322
54624W        W27038   6.300   0.755  10.917
54625W        W27039  36.916  38.037   3.748
54626W        W27040  20.731  32.056   0.773
54627W        W27041  40.963   2.726   2.409
54628W        W27042  12.611  20.263   3.205
54629W        W27043  12.226  26.632   4.724
54630W        W27044  26.552  26.991  12.008
54631W        W27045  17.671   4.364   3.767
54632W        W27046   3.373  11.187  14.945
54633W        W27047  32.137  40.485   4.278
54634W        W27048  33.883  33.996   3.655
54635W        W27049  29.987  26.031  11.576
54636W        W27050  29.472  12.845   1.411
54637W        W27051  22.057  13.109  11.444
54638W        W27052  18.275  38.900  12.473
54639W        W27053  26.558  27.187   4.170
54640W        W27054   0.256  25.593   2.194
54641W        W27055   2.899  21.685   4.352
54642W        W27056  34.878   3.274  12.898
54643W        W27057   3.931   2.441   0.443
54644W        W27058  26.145  18.104  13.527
54645W        W27059  20.643  33.876  12.935
54646W        W27060  32.909  35.963   3.867
54647W        W27061  44.911  33.587   4.746
54648W        W27062   6.749  30.517   1.402
54649W        W27063  42.392  14.100   0.438
54650W        W27064  43.926  24.120  14.325
54651W        W27065   2.312   4.367   0.329
54652W        W27066   8.735  15.126   3.358
54653W        W27067  27.063  44.360  10.502
54654W        W27068  36.908   2.854   4.652
54655W        W27069   1.300   4.800   3.260
54656W        W27070   3.278  27.117   4.796
54657W        W27071  14.707  22.600   1.862
54658W        W27072   7.702  30.963  13.307
54659W        W27073  12.257   6.337   1.720
54660W        W27074  33.453  35.569   0.389
54661W        W27075   6.320   5.394  11.457
54662W        W27076  34.085   2.797  11.855
54663W        W27077   3.865  16.268   0.867
54664W        W27078  37.968  15.156  13.345
54665W        W27079  29.570  32.901  13.308
54666W        W27080  14.768  19.127   9.924
54667W        W27081  37.937  13.160   4.349
54668W        W27082  42.845  21.540   0.481
54669W        W27083  42.777  27.581  10.430
54670W        W27084   5.236  36.024   2.285
54671W        W27085  13.787  15.317  12.045
54672W        W27086   8.187  23.562  10.975
54673W        W27087   7.185  18.726   0.270
54674W        W27088  20.183  18.606  11.988
54675W        W27089   2.768  12.122  12.985
54676W        W27090  28.592  20.588  10.507
54677W        W27091  25.047  28.594  14.389
54678W        W27092  23.673  33.592  13.499
54679W        W27093  11.626  35.885   5.147
54680W        W27094   2.344  10.750   0.328
54681W        W27095  13.739  10.172   0.263
54682W        W27096  11.720  26.041   0.824
54683W        W27097  18.680  18.231  11.377
54684W        W27098  34.482  30.596   0.955
54685W        W27099  29.988  38.552   3.795
54686W        W27100  44.976  25.681   2.297
54687W        W27101   3.273  17.135  13.910
54688W        W27102   4.921   3.879  13.434
54689W        W27103   1.819  15.721   4.751
54690W        W27104  12.653  22.024  14.492
54691W        W27105  29.531  17.714  11.379
54692W        W27106  31.472  11.144   1.851
54693W        W27107   4.853  34.897   0.793
54694W        W27108  31.642  44.285  13.814
54695W        W27109   5.870  37.435  11.994
54696W        W27110  16.777  34.967   0.888
54697W        W27111  37.831  38.506  13.316
54698W        W27112   7.343   7.779  10.536
54699W        W27113   7.800  38.479  14.863
54700W        W27114  43.789  19.678  11.976
54701W        W27115  17.664  12.201   2.277
54702W        W27116  22.026  26.993   4.240
54703W        W27117  41.940  10.693  13.958
54704W        W27118  15.643  40.511  12.522
54705W        W27119  33.538  28.681   3.635
54706W        W27120  26.628   6.677   3.826
54707W        W27121  38.428  32.584  13.358
54708W        W27122   5.422  15.091  14.828
54709W        W27123  13.839  42.448  14.479
54710W        W27124  12.145  22.063   2.229
54711W        W27125  13.673  42.915  10.910
54712W        W27126  21.062   0.848  13.422
54713W        W27127  39.841  43.010  13.923
54714W        W27128  39.387  35.379  10.912
54715W        W27129  42.900  21.708   2.250
54716W        W27130  41.327  37.469  11.527
54717W        W27131  24.155  38.440   3.654
54718W        W27132  38.337  17.104   1.397
54719W        W27133  17.092  29.082  13.397
54720W        W27134  20.640  19.562   4.342
54721W        W27135  32.117   3.363  12.354
54722W        W27136   3.440  37.074  12.548
54723W        W27137  28.633  30.037   3.318
54724W        W27138  39.978  30.026  13.346
54725W        W27139   7.705  34.068   2.692
54726W        W27140  32.897  43.490   4.614
54727W        W27141  17.698   0.760  11.589
54728W        W27142   4.314  42.957  10.421
54729W        W27143  20.045  20.098   4.626
54730W        W27144   2.414  40.894  11.508
54731W        W27145  40.948  29.018   3.754
54732W        W27146  24.520  39.043  11.529
54733W        W27147  24.589  25.531  12.992
54734W        W27148   4.246  32.971   4.719
54735W        W27149   5.722  28.982  11.408
54736W        W27150  18.277  28.591  14.840
54737W        W27151  13.676  38.942  13.507
54738W        W27152  22.242   2.899  12.482
54739W        W27153  28.551  28.671  11.390
54740W        W27154  39.965   0.281  12.964
54741W        W27155  25.549  34.074   3.637
54742W        W27156  38.497   1.460   2.675
54743W        W27157  21.252   9.327  11.043
54744W        W27158   6.378  11.179  12.422
54745W        W27159  22.126  17.733  14.773
54746W        W27160  23.690   6.761   0.853
54747W        W27161   9.383  27.112   2.844
54748W        W27162   5.250   3.268   1.860
54749W        W27163  14.193   0.808  12.563
54750W        W27164   4.842  32.542  11.989
54751W        W27165  14.298  40.046  13.381
54752W        W27166  13.293  17.099   2.883
54753W        W27167  42.388  18.292  12.929
54754W        W27168  13.622   5.774  13.402
54755W        W27169  18.549   5.279   4.191
54756W        W27170  43.780   4.700  13.063
54757W        W27171  18.214  35.480  12.485
54758W        W27172  18.623  40.409  11.054
54759W        W27173  18.683  22.206  13.438
54760W        W27174   6.684  36.967   0.739
54761W        W27175  34.409   6.731   3.778
54762W        W27176   3.293  38.863  12.388
54763W        W27177  34.117  13.797  12.473
54764W        W27178  40.461  21.065   1.219
54765W        W27179   7.179  22.029  12.907
54766W        W27180   4.356  31.067   1.289
54767W        W27181  28.987  29.545   0.749
54768W        W27182  23.497   6.882   0.421
54769W        W27183  11.651  20.687  10.911
54770W        W27184  32.108  42.356  14.393
54771W        W27185  30.920  26.099   2.806
54772W        W27186  31.584  41.866  12.508
54773W        W27187  37.910  38.490  14.333
54774W        W27188  35.586  21.171  10.947
54775W        W27189   6.787  29.541  10.514
54776W        W27190  33.483  41.880  12.824
54777W        W27191  35.432  31.961   3.224
54778W        W27192  36.461  27.498   0.793
54779W        W27193  39.398   5.841  11.971
54780W        W27194   3.244  14.704  13.537
54781W        W27195  37.020  39.374   2.796
54782W        W27196   6.282  34.402   1.349
54783W        W27197  16.626  15.315  14.366
54784W        W27198  36.574  22.553   2.829
54785W        W27199  21.654  44.903  13.318
54786W        W27200   7.821  39.830   3.274
54787W        W27201  42.014   4.395   2.743
54788W        W27202   2.751   4.217  14.343
54789W        W27203  28.562   1.289  14.864
54790W        W27204  35.513  35.961  11.958
54791W        W27205  30.636  36.548  14.976
54792W        W27206  31.080  21.233  11.586
54793W        W27207  41.851  27.977   0.754
54794W        W27208  14.753  43.855  14.304
54795W        W27209  10.206  36.920   3.634
54796W        W27210  41.034  38.483  13.035
54797W        W27211  14.111   7.316   2.186
54798W        W27212  36.004  10.205  13.462
54799W        W27213  15.766  34.582  10.984
54800W        W27214  25.490  25.122   4.759
54801W        W27215   6.193   2.450  11.855
54802W        W27216   3.226  41.399   1.408
54803W        W27217  23.708  25.083   0.892
54804W        W27218  31.905  25.598  11.478
54805W        W27219  35.562  13.649  13.330
54806W        W27220  10.138  37.580   4.831
54807W        W27221  33.015  11.810   2.233
54808W        W27222  31.450  33.602   0.731
54809W        W27223  27.517  38.956  14.894
54810W        W27224  26.200  44.786  11.413
54811W        W27225  12.810   5.732  11.610
54812W        W27226  42.799  40.325  13.962
54813W        W27227  23.021  30.150   4.621
54814W        W27228  30.467  28.602  11.995
54815W        W27229  40.044   7.855  11.020
54816W        W27230  30.641  39.854   4.151
54817W        W27231  21.208  32.900   1.435
54818W        W27232   4.213  38.049   4.290
54819W        W27233  43.440  27.683   0.262
54820W        W27234   7.741   1.960  14.823
54821W        W27235  10.357  36.436  13.464
54822W        W27236   1.260  12.119  12.352
54823W        W27237  13.682  24.635   0.446
54824W        W27238   8.272  14.230  10.927
54825W        W27239  41.802  12.165  13.336
54826W        W27240   8.170  10.195  13.982
54827W        W27241  41.522   2.289  12.903
54828W        W27242  32.442  10.863   4.665
54829W        W27243  13.141  26.663  10.549
54830W        W27244  16.213  12.740  11.538
54831W        W27245  21.020  13.794   2.801
54832W        W27246  30.025   0.987   0.337
54833W        W27247   6.196  18.063   1.400
54834W        W27248   1.890  12.352  10.970
54835W        W27249   0.857  27.663  14.824
54836W        W27250  38.874   3.889   1.897
54837W        W27251  11.628  23.205   2.252
54838W        W27252   1.471   3.710  10.926
54839W        W27253  39.873  30.469   2.285
54840W        W27254  41.416  19.628  12.569
54841W        W27255  14.166  35.530  12.576
54842W        W27256  34.023  13.778   1.326
54843W        W27257  19.621  28.594  10.616
54844W        W27258  24.200  27.471  11.957
54845W        W27259  32.538   2.815  12.880
54846W        W27260  23.124  14.254   2.885
54847W        W27261   1.334  17.764   4.713
54848W        W27262  27.057  23.525   3.718
54849W        W27263  38.855   9.706   4.242
54850W        W27264  32.563   7.686  13.033
54851W        W27265  21.135  21.140   1.909
54852W        W27266  11.288  13.262   4.807
54853W        W27267   0.953  11.810   2.698
54854W        W27268  39.881  24.036  11.446
54855W        W27269  39.886  25.118   3.682
54856W        W27270  28.673  40.863  11.488
54857W        W27271  20.163  36.430   0.427
54858W        W27272  44.982  23.689   2.898
54859W        W27273   7.368  15.740  11.891
54860W        W27274   6.237  17.168  14.769
54861W        W27275  30.912   1.880   9.978
54862W        W27276  25.082  33.039   0.310
54863W        W27277  20.629   6.239  13.923
54864W        W27278  31.467  23.069   4.808
54865W        W27279   4.746  19.742   0.962
54866W        W27280  26.093  43.868  14.308
54867W        W27281   3.822   8.764  14.808
54868W        W27282  27.000  24.158   2.288
54869W        W27283  17.197   2.288   0.857
54870W        W27284  16.093  28.102  11.455
54871W        W27285  36.873  36.590  13.863
54872W        W27286  32.591  15.113  13.930
54873W        W27287  23.599  16.163   5.287
54874W        W27288  29.479  39.900   2.663
54875W        W27289  39.400  22.181  14.918
54876W        W27290  13.674  35.939  10.404
54877W        W27291   4.312  44.872  10.612
54878W        W27292   4.858  11.324   1.849
54879W        W27293  27.561  24.515   2.739
54880W        W27294  15.798  41.407  11.386
54881W        W27295  10.271  30.505   0.760
54882W        W27296  35.406  17.072   4.617
54883W        W27297  17.284  32.058   4.737
54884W        W27298  31.954  40.321   4.807
54885W        W27299  19.220  21.662   3.158
54886W        W27300  16.228  34.098   3.201
54887W        W27301  22.116  44.876   0.728
54888W        W27302   4.384  22.709  10.998
54889W        W27303  30.028   0.889   3.290
54890W        W27304  21.259  19.208  10.560
54891W        W27305  26.579   4.799   3.698
54892W        W27306  15.775  34.546   3.795
54893W        W27307  39.438  26.572  14.402
54894W        W27308  31.073  34.893  14.454
54895W        W27309  14.615  33.061   2.677
54896W        W27310   4.425   0.464  13.791
54897W        W27311  37.929  18.064   1.423
54898W        W27312  18.233  19.773  13.807
54899W        W27313  20.262   1.281   2.188
54900W        W27314  10.867  14.094   5.304
54901W        W27315  28.061  17.793  12.847
54902W        W27316   2.892   9.852   2.372
54903W        W27317  44.959  34.969  10.950
54904W        W27318  39.528   5.845  14.021
54905W        W27319  22.115  44.323   1.439
54906W        W27320  15.128  40.863   1.252
54907W        W27321  15.268  42.780  11.438
54908W        W27322  29.610  19.668   2.678
54909W        W27323  10.148  15.314  14.841
54910W        W27324  44.334  39.009  10.432
54911W        W27325   0.349   8.723  12.051
54912W        W27326  14.304  43.853   3.155
54913W        W27327  17.707  10.813  12.881
54914W        W27328  40.993  10.633   3.852
54915W        W27329   9.179   0.304  11.526
54916W        W27330  27.452  42.396  10.592
54917W        W27331   9.656  32.938   0.457
54918W        W27332  11.248  39.535  14.006
54919W        W27333   0.327   6.270   3.248
54920W        W27334  24.995  11.740   3.709
54921W        W27335  29.536   4.752  10.022
54922W        W27336  18.586  44.431  11.410
54923W        W27337  27.488  17.179   1.759
54924W        W27338  18.187  15.328  12.038
54925W        W27339  14.820  42.519  10.602
54926W        W27340  34.592  23.006   0.290
54927W        W27341  24.082  40.953   3.654
54928W        W27342  32.131   0.260  12.008
54929W        W27343   6.796  34.482  12.025
54930W        W27344  24.178  35.107  12.423
54931W        W27345  11.734  11.808   0.256
54932W        W27346  41.006   3.350  12.006
54933W        W27347  28.539   2.453   1.709
54934W        W27348  20.560  38.016  12.529
54935W        W27349  37.893  39.855   2.782
54936W        W27350  26.001  26.647  13.920
54937W        W27351  24.706  43.766   2.376
54938W        W27352  14.241  24.540  11.484
54939W        W27353  12.229   4.704  11.433
54940W        W27354  30.649  21.227  14.026
54941W        W27355  42.416   4.329  12.057
54942W        W27356  34.374  36.876   2.795
54943W        W27357   9.709   3.215  12.968
54944W        W27358  37.459  16.645   3.173
54945W        W27359  29.160  43.803  14.784
54946W        W27360  23.670   1.927   2.373
54947W        W27361  29.083  23.212   3.867
54948W        W27362  17.271  17.286  14.887
54949W        W27363   2.441  28.957   3.376
54950W        W27364  26.616  30.994  10.430
54951W        W27365   1.817  19.642  13.448
54952W        W27366   3.816  18.764   9.934
54953W        W27367  33.564   3.730  14.460
54954W        W27368   9.672  32.039  10.538
54955W        W27369   6.358  41.367   0.735
54956W        W27370  28.646  25.703   2.848
54957W        W27371  16.255  10.701  12.886
54958W        W27372  26.519  28.006   0.742
54959W        W27373  10.220   5.217  13.916
54960W        W27374  32.135   0.834   3.724
54961W        W27375  23.534  21.562  13.975
54962W        W27376  36.944  44.925  11.890
54963W        W27377  10.772  41.806  10.637
54964W        W27378  13.668  12.679   3.665
54965W        W27379   8.673  37.529   3.795
54966W        W27380  18.642  40.898  12.497
54967W        W27381  38.030   6.778  12.882
54968W        W27382  34.536  25.645   3.345
54969W        W27383  10.288  29.459   1.707
54970W        W27384   4.813  38.941   2.854
54971W        W27385  24.212  21.181  11.412
54972W        W27386  25.526  44.940   3.775
54973W        W27387  32.067  29.041   3.375
54974W        W27388  27.549   5.252  12.549
54975W        W27389  27.948  15.308  10.587
54976W        W27390  24.158  12.653  13.395
54977W        W27391  23.494  28.122  13.477
54978W        W27392  23.500  42.378   1.312
54979W        W27393  20.607  22.641  13.473
54980W        W27394  23.646  10.296   4.640
54981W        W27395  30.561  30.622   3.262
54982W        W27396   0.430  38.497   3.360
54983W        W27397  12.648  35.597   2.364
54984W        W27398   1.848  26.043   0.868
54985W        W27399   4.811  19.548   2.899
54986W        W27400  40.947  39.030  14.005
54987W        W27401  32.070  20.739  10.477
54988W        W27402  28.518  23.723   0.806
54989W        W27403   7.811  36.423  12.497
54990W        W27404  36.999   6.802   0.304
54991W        W27405   0.324  32.429   0.482
54992W        W27406  29.520  28.650   0.781
54993W        W27407   0.959   1.832  10.464
54994W        W27408  24.159  27.067  10.434
54995W        W27409   6.685   9.821   4.294
54996W        W27410  29.084  18.575   2.230
54997W        W27411  13.613  39.318  11.059
54998W        W27412   2.338   3.236  10.038
54999W        W27413  41.467  39.467  13.028
55000W        W27414   7.216   5.931  11.881
55001W        W27415  38.029   0.267   0.453
55002W        W27416  40.048  26.963   1.820
55003W        W27417   8.878  32.906  11.917
55004W        W27418  43.810  29.057  14.790
55005W        W27419  16.679  12.354   0.335
55006W        W27420  30.479  19.242   2.325
55007W        W27421  40.984  37.995   2.870
55008W        W27422   6.330  41.840   3.351
55009W        W27423  13.165  23.091   2.752
55010W        W27424  30.115   4.400   4.197
55011W        W27425  29.976  24.174  11.587
55012W        W27426  25.092  19.534   4.671
55013W        W27427  30.952  24.496  13.819
55014W        W27428  37.998  44.264   1.343
55015W        W27429   1.953  36.068   0.345
55016W        W27430   3.261   5.371  12.843
55017W        W27431  38.569  44.276   3.149
55018W        W27432   6.866   0.748  14.914
55019W        W27433  21.627  30.572  10.535
55020W        W27434  21.648  16.115  11.856
55021W        W27435  24.020   2.727  12.009
55022W        W27436   1.827   0.267  13.819
55023W        W27437  10.325  19.197  12.532
55024W        W27438   6.247  12.131  13.849
55025W        W27439  27.498  10.225   1.305
55026W        W27440   8.337  43.278   4.675
55027W        W27441  23.651  44.437   5.286
55028W        W27442  25.967  17.685  14.959
55029W        W27443  28.607  22.705  13.313
55030W        W27444  38.997  28.512  13.317
55031W        W27445   6.763  34.984   3.632
55032W        W27446  43.343  16.660   4.207
55033W        W27447   3.218  15.118   1.923
55034W        W27448  17.575  23.633  14.511
55035W        W27449   5.847   8.694  10.892
55036W        W27450  27.194  35.082   9.944
55037W        W27451  19.136  38.032  13.465
55038W        W27452  39.029   7.265   1.428
55039W        W27453  10.673  41.433  13.987
55040W        W27454   0.974  17.089  13.416
55041W        W27455  30.541  13.806  14.409
55042W        W27456  21.207  12.797   2.792
55043W        W27457  11.140  28.638   2.259
55044W        W27458   2.277   6.787   4.267
55045W        W27459  14.325  11.137   0.817
55046W        W27460   2.324  24.157  12.076
55047W        W27461   9.215   7.254  14.340
55048W        W27462  16.275  23.190   2.385
55049W        W27463  18.642  10.215  12.432
55050W        W27464  23.584  16.708  14.333
55051W        W27465  32.972   3.352  12.498
55052W        W27466  42.861  14.774  10.896
55053W        W27467  33.070  20.751  10.890
55054W        W27468  30.625   4.788  11.886
55055W        W27469  30.425   8.701  10.635
55056W        W27470  17.588   2.913  13.431
55057W        W27471  12.815  29.543  13.319
55058W        W27472   0.477  24.626  14.479
55059W        W27473  30.152  35.969  12.405
55060W        W27474  44.998   8.662   2.832
55061W        W27475  24.683  26.686  10.505
55062W        W27476  25.976   4.216  14.276
55063W        W27477  20.111   4.385  13.342
55064W        W27478  25.117  21.653  12.040
55065W        W27479  21.583   0.419  11.539
55066W        W27480  12.851  43.436   4.644
55067W        W27481   9.394   6.854  13.411
55068W        W27482  43.840  26.102  13.453
55069W        W27483  13.840  11.176   4.330
55070W        W27484  19.774   9.366   0.799
55071W        W27485  42.907   4.883   4.644
55072W        W27486  17.177  33.496  13.044
55073W        W27487  34.432  25.192   0.313
55074W        W27488  37.414  25.110  12.868
55075W        W27489  34.370   7.172   0.896
55076W        W27490  22.143  16.172   4.168
55077W        W27491  34.537  35.513   1.823
55078W        W27492  12.773  19.637  12.906
55079W        W27493   0.827  39.895   2.385
55080W        W27494   3.245  12.763  11.088
55081W        W27495  41.374   4.811  10.437
55082W        W27496  43.856   0.850  14.986
55083W        W27497  12.300  12.212   4.236
55084W        W27498   4.382   3.714   3.831
55085W        W27499  20.660  43.965   0.828
55086W        W27500  32.415  29.066  10.549
55087W        W27501  17.776  34.903   2.316
55088W        W27502   3.417  34.432   0.734
55089W        W27503  24.570  24.025  11.083
55090W        W27504   0.966  34.515   0.841
55091W        W27505  32.539   6.389   3.238
55092W        W27506  41.877  16.626   3.156
55093W        W27507  35.443  27.526   0.895
55094W        W27508  14.748  41.992   0.347
55095W        W27509   4.827  10.650  14.871
55096W        W27510  24.211  25.212   3.639
55097W        W27511   5.213  26.988   2.731
55098W        W27512  36.550  37.460   3.781
55099W        W27513   6.915  30.602  12.948
55100W        W27514   0.914   4.390  12.972
55101W        W27515   9.819  37.490   2.334
55102W        W27516  14.611  20.747   9.653
55103W        W27517   5.850   1.476   2.254
55104W        W27518  19.747  32.935   0.813
55105W        W27519  28.953  16.616  11.518
55106W        W27520   2.227  39.866  10.556
55107W        W27521  19.572  29.638   2.369
55108W        W27522  43.439  29.550  10.629
55109W        W27523  29.540  36.063  11.888
55110W        W27524  19.070  32.456  11.410
55111W        W27525   7.329  44.279   4.267
55112W        W27526  38.433  33.131  10.071
55113W        W27527  22.066   2.400  11.039
55114W        W27528  16.655  19.706   4.340
55115W        W27529  11.265   9.259  11.024
55116W        W27530  33.491   9.710   0.270
55117W        W27531  28.598  14.105   3.711
55118W        W27532  28.150   4.231   3.275
55119W        W27533  41.353   7.274   2.375
55120W        W27534   7.393  34.463   4.322
55121W        W27535   4.839  28.152   3.182
55122W        W27536  28.950  25.116  12.864
55123W        W27537  21.225   7.725   4.625
55124W        W27538   8.186  14.674  14.946
55125W        W27539   2.390  22.536  14.936
55126W        W27540   4.817  13.175  11.583
55127W        W27541  16.246  31.123   2.279
55128W        W27542  33.902  37.405   4.177
55129W        W27543  33.528   1.347   3.181
55130W        W27544   4.804  41.012  13.956
55131W        W27545  14.728  33.887   4.187
55132W        W27546  28.535  19.163  12.964
55133W        W27547  26.585  20.647   2.411
55134W        W27548   3.328   1.253   1.804
55135W        W27549  15.306  13.215  13.360
55136W        W27550  37.868  13.669  12.876
55137W        W27551  14.270  27.961   3.695
55138W        W27552  26.566  22.588   0.394
55139W        W27553   7.308  14.780   0.778
55140W        W27554   5.270  32.096   0.354
55141W        W27555   4.226  32.055  12.419
55142W        W27556   3.228  13.726   4.801
55143W        W27557  16.111  15.586  10.098
55144W        W27558  16.749   4.784   0.807
55145W        W27559  43.345  31.082   0.840
55146W        W27560   4.798  24.040   2.740
55147W        W27561  11.830  16.193   4.709
55148W        W27562  42.931  22.198  10.000
55149W        W27563   2.283  40.510  10.929
55150W        W27564  30.545  19.775   3.638
55151W        W27565  36.588   4.356   1.771
55152W        W27566  26.065  18.658   5.297
55153W        W27567  20.705   9.653  14.997
55154W        W27568  28.980  22.721   0.890
55155W        W27569   6.392  29.049   4.304
55156W        W27570  13.662  20.523   2.254
55157W        W27571  40.868  39.471   0.866
55158W        W27572  21.031  26.086   1.440
55159W        W27573  18.112  29.571  12.036
55160W        W27574  40.542  44.444   0.446
55161W        W27575  44.931  20.694   1.887
55162W        W27576  14.739  34.401  14.360
55163W        W27577  17.665  38.465  13.399
55164W        W27578  17.785  41.994   2.817
55165W        W27579  16.635  33.446   2.399
55166W        W27580  29.432  32.401  14.328
55167W        W27581   1.456   8.387  11.597
55168W        W27582  35.922  15.313  12.942
55169W        W27583  11.245   4.336   2.845
55170W        W27584   3.371  24.651  14.914
55171W        W27585   9.660  25.066   2.718
55172W        W27586  12.823   7.369  12.470
55173W        W27587   5.420  25.993  14.017
55174W        W27588   9.296  24.513   1.309
55175W        W27589   2.439  39.381   1.904
55176W        W27590  16.171  20.764   3.179
55177W        W27591  22.665  19.118   4.200
55178W        W27592  22.518   4.752   1.759
55179W        W27593   3.883  25.068  11.488
55180W        W27594  11.324  23.508   4.127
55181W        W27595  32.041  30.163   0.839
55182W        W27596   7.378   0.865  12.406
55183W        W27597  13.195  15.782   5.197
55184W        W27598   3.951  26.478   2.293
55185W        W27599   5.300   9.745  11.510
55186W        W27600   9.318   6.848   4.815
55187W        W27601  19.591   4.370  12.987
55188W        W27602   7.383  32.009  13.383
55189W        W27603  17.161  11.180  11.445
55190W        W27604   1.384  38.467   0.290
55191W        W27605  30.005  11.814   0.363
55192W        W27606  20.668  20.094   3.192
55193W        W27607  35.490   4.912   0.810
55194W        W27608  16.707  39.867   2.407
55195W        W27609  32.020   4.243   3.382
55196W        W27610  39.025  17.268  11.927
55197W        W27611   1.959  15.732  11.510
55198W        W27612  22.095   2.814  12.900
55199W        W27613  29.068  44.294   0.910
55200W        W27614  41.385  29.631   0.841
55201W        W27615   6.729  24.553   4.757
55202W        W27616  30.462  19.658   4.339
55203W        W27617  10.676  37.974   3.270
55204W        W27618   1.272  43.285   2.259
55205W        W27619  16.640  13.269  10.615
55206W        W27620  31.554  28.050  10.503
55207W        W27621  43.454  20.142  11.449
55208W        W27622  40.447  35.505  14.791
55209W        W27623   6.861  20.235  12.868
55210W        W27624  23.662   0.462   4.694
55211W        W27625  16.749  35.531  14.317
55212W        W27626  38.910  25.482  14.407
55213W        W27627  28.487  19.105  12.093
55214W        W27628  26.966   8.698   2.685
55215W        W27629  31.643  14.664   3.691
55216W        W27630  13.266  34.456   1.361
55217W        W27631  39.448  20.043   1.218
55218W        W27632  42.940  20.559  13.850
55219W        W27633  11.696  42.411   3.863
55220W        W27634   3.343  22.086  11.032
55221W        W27635  40.950  11.781   1.359
55222W        W27636   2.890  29.466  11.893
55223W        W27637   7.261   8.689   1.317
55224W        W27638  26.517   4.858  11.960
55225W        W27639  36.539  31.595  13.013
55226W        W27640   2.450   9.777  11.117
55227W        W27641  19.205   2.918   1.881
55228W        W27642  25.554  15.234   1.864
55229W        W27643  17.268  32.466  10.070
55230W        W27644  14.269  13.344   2.858
55231W        W27645   8.161  31.093  10.987
55232W        W27646   2.230  44.886  11.037
55233W        W27647  40.915   7.382   1.721
55234W        W27648  29.574  19.580   3.214
55235W        W27649  27.123   8.183  11.040
55236W        W27650  43.981   1.410   0.472
55237W        W27651  28.469   2.279   0.247
55238W        W27652  10.236  15.577  11.404
55239W        W27653   6.817  40.894  10.577
55240W        W27654  42.360  34.430   2.333
55241W        W27655  42.290  13.234  13.350
55242W        W27656  13.646  18.654   2.722
55243W        W27657  38.886  24.636  11.085
55244W        W27658  38.429  28.451   4.619
55245W        W27659   4.347  35.511   4.119
55246W        W27660   2.738  17.611  12.967
55247W        W27661  33.413   2.818  14.459
55248W        W27662  41.970  37.564   0.410
55249W        W27663  30.432  42.493  10.954
55250W        W27664   9.194   0.763   1.251
55251W        W27665  36.998  44.428  13.474
55252W        W27666  18.633  15.313   0.806
55253W        W27667  31.593   2.960  10.611
55254W        W27668   0.361   3.265  13.386
55255W        W27669  25.703   4.730   0.302
55256W        W27670  39.551  14.183  10.552
55257W        W27671   7.803   5.702  13.025
55258W        W27672  30.486   6.425   0.361
55259W        W27673  17.294  40.012   0.303
55260W        W27674  30.531   1.883   4.127
55261W        W27675  38.903  17.243   2.727
55262W        W27676  33.043   3.751   0.264
55263W        W27677  23.644  23.627  13.472
55264W        W27678   4.205  27.556  14.032
55265W        W27679  36.059   5.713   1.255
55266W        W27680  17.071  18.783   0.456
55267W        W27681  23.113  10.763   4.836
55268W        W27682  44.877  21.721   3.748
55269W        W27683   2.761  18.278  14.487
55270W        W27684  40.425   9.174   4.247
55271W        W27685  25.080  40.510  12.410
55272W        W27686  42.302  31.470   0.734
55273W        W27687  43.302  11.845   0.451
55274W        W27688   5.836  35.995  11.387
55275W        W27689  13.169  10.271  11.926
55276W        W27690  25.967  42.512   0.957
55277W        W27691   8.825  34.916  14.013
55278W        W27692  41.437  22.236  13.882
55279W        W27693   7.728  29.530   2.854
55280W        W27694  17.162  13.795   0.912
55281W        W27695  30.163  37.564  12.080
55282W        W27696  29.015  14.095   2.182
55283W        W27697  14.275  24.994  10.524
55284W        W27698  17.775  40.358  12.497
55285W        W27699  38.991  34.959  13.861
55286W        W27700  12.741  24.622  12.951
55287W        W27701   4.940  12.838   5.729
55288W        W27702  15.593  39.042  14.027
55289W        W27703  39.542  27.155  11.518
55290W        W27704   5.202  40.377   2.337
55291W        W27705  38.435  35.039  11.582
55292W        W27706  26.545  41.381   9.968
55293W        W27707  19.552  41.022  11.906
55294W        W27708   0.258  28.451  13.399
55295W        W27709  32.954  11.745  13.333
55296W        W27710  39.367   2.300  14.790
55297W        W27711  34.421  34.930  10.950
55298W        W27712   6.820  37.874  11.019
55299W        W27713  37.925   1.739  14.497
55300W        W27714  21.579  27.187  14.368
55301W        W27715  23.667  36.013   3.149
55302W        W27716   0.308  44.766  11.021
55303W        W27717  28.980  27.189  10.458
55304W        W27718  25.098  44.389  11.431
55305W        W27719   3.824   1.482   4.643
55306W        W27720  13.657  23.231   2.363
55307W        W27721  43.372  31.647   2.762
55308W        W27722   7.849  26.491   1.923
55309W        W27723  43.375  36.401   1.348
55310W        W27724  20.647   4.413   4.697
55311W        W27725   2.298   5.916  11.954
55312W        W27726  25.520  38.872  11.110
55313W        W27727  29.585  31.100   3.861
55314W        W27728  42.865  23.176  13.412
55315W        W27729  24.626  19.196   9.532
55316W        W27730   5.433  30.422   1.229
55317W        W27731   1.832  43.958   1.419
55318W        W27732   0.963  11.233  10.502
55319W        W27733  41.349  25.684  12.082
55320W        W27734  23.209  11.196   1.853
55321W        W27735  20.196  35.983  11.397
55322W        W27736   7.280  19.243  11.411
55323W        W27737  21.664  36.967   4.274
55324W        W27738  38.073   6.683   4.766
55325W        W27739  23.125  15.231   0.359
55326W        W27740  14.757  29.585  14.759
55327W        W27741  25.980  33.117   3.732
55328W        W27742  16.304  34.411   0.766
55329W        W27743  18.749  24.567  11.599
55330W        W27744  34.449  21.607   9.988
55331W        W27745  10.291  25.213  11.465
55332W        W27746  39.322  37.864  14.971
55333W        W27747  15.692  23.056  10.538
55334W        W27748  13.753   6.915  13.061
55335W        W27749  15.592  23.617  10.118
55336W        W27750  29.559   9.646  14.388
55337W        W27751  41.858  26.970   4.334
55338W        W27752  36.451  26.196   3.326
55339W        W27753  16.125   8.274   2.324
55340W        W27754  36.392  10.764   3.224
55341W        W27755   7.909  41.513  13.529
55342W        W27756  42.032  13.325   1.866
55343W        W27757  11.344  29.577  10.607
55344W        W27758  10.685  16.105   1.215
55345W        W27759   4.936   7.841  13.517
55346W        W27760  20.618  15.085   2.720
55347W        W27761  43.387  36.516  10.953
55348W        W27762   1.304  35.894   3.739
55349W        W27763   6.681  29.055  12.866
55350W        W27764  33.477   3.457   9.928
55351W        W27765  31.967   5.403   4.340
55352W        W27766  16.623   7.868  14.919
55353W        W27767   2.933  20.231   4.675
55354W        W27768  38.821  24.981   0.462
55355W        W27769  33.958  42.851  13.918
55356W        W27770  42.877  34.107   0.327
55357W        W27771   3.867  19.223  14.347
55358W        W27772   6.275  41.307   4.234
55359W        W27773  28.523  30.149   4.646
55360W        W27774  13.306  43.331   3.726
55361W        W27775  40.359   4.766   3.829
55362W        W27776  21.549   0.985  10.565
55363W        W27777  13.205  10.841  10.976
55364W        W27778  14.250  11.290   1.409
55365W        W27779  11.803  14.148   1.814
55366W        W27780  34.609  18.163   3.316
55367W        W27781  10.770   8.204   3.650
55368W        W27782  43.515  36.978   2.717
55369W        W27783  12.639  43.796   1.893
55370W        W27784  29.965  33.974   2.844
55371W        W27785   2.247  37.384   1.875
55372W        W27786  36.848  37.012   3.346
55373W        W27787  11.357  37.984  13.833
55374W        W27788   2.867   6.797   3.853
55375W        W27789  22.999   2.942   4.147
55376W        W27790  43.946  10.769  12.352
55377W        W27791  27.951   4.740   2.308
55378W        W27792   8.793  21.232  10.903
55379W        W27793  32.525   5.325  10.638
55380W        W27794  31.584  34.390  13.945
55381W        W27795  23.182  15.765  12.007
55382W        W27796  12.268  43.455  13.536
55383W        W27797  18.242  32.589  11.568
55384W        W27798  13.683  14.243  12.091
55385W        W27799  18.740   3.377  12.465
55386W        W27800   8.846  17.272  10.439
55387W        W27801  15.796  26.028   0.477
55388W        W27802   8.768   3.276  11.995
55389W        W27803   3.377  21.135  12.044
55390W        W27804  39.020  13.676  14.928
55391W        W27805  13.643   4.308   4.837
55392W        W27806  21.079  41.834  12.978
55393W        W27807  36.394  26.476  13.804
55394W        W27808   8.796  36.012   4.772
55395W        W27809  18.788  29.462   2.386
55396W        W27810   1.441  19.665  14.862
55397W        W27811   1.363  40.330   2.373
55398W        W27812   8.765  25.529  12.040
55399W        W27813  17.174  12.616  13.832
55400W        W27814  17.198  14.811  12.564
55401W        W27815  34.090  37.023  10.498
55402W        W27816  22.604  26.627  13.811
55403W        W27817  38.875   8.314  14.810
55404W        W27818  24.185   5.315  10.963
55405W        W27819  10.703  42.789  10.988
55406W        W27820  27.169  17.706  12.886
55407W        W27821  32.004   3.859   1.299
55408W        W27822  41.869  31.092  12.886
55409W        W27823   3.927  27.997  10.129
55410W        W27824  26.593   4.395  14.815
55411W        W27825  22.100   6.847  13.807
55412W        W27826   2.426   6.685  12.096
55413W        W27827  36.502  43.466   4.833
55414W        W27828  30.015  31.912  13.471
55415W        W27829  17.272  27.517   3.677
55416W        W27830  16.312  29.525  10.934
55417W        W27831   2.338  25.215  13.341
55418W        W27832  24.708  35.548   0.260
55419W        W27833  13.659  16.793  12.391
55420W        W27834  44.500  18.239  10.906
55421W        W27835   9.395  26.041  13.318
55422W        W27836  37.564  30.975   5.286
55423W        W27837  17.296  37.873  14.348
55424W        W27838  38.381  35.543   5.726
55425W        W27839  30.449  16.576   1.283
55426W        W27840  11.340  28.440  14.881
55427W        W27841  43.437  31.469  13.952
55428W        W27842  16.241  39.558  14.488
55429W        W27843  35.492  11.167   4.138
55430W        W27844  22.165   0.402   0.259
55431W        W27845  10.379  39.343  12.536
55432W        W27846  30.956   2.347   1.746
55433W        W27847  42.949  44.777   1.857
55434W        W27848  43.317  40.302  13.980
55435W        W27849  38.344  40.933   4.762
55436W        W27850   2.805  33.528  12.990
55437W        W27851  26.101  42.375  11.411
55438W        W27852  15.114   2.780  10.643
55439W        W27853  40.326  16.134   4.756
55440W        W27854  11.646  11.832  13.967
55441W        W27855  20.098  18.115  11.075
55442W        W27856  10.292  30.479  11.505
55443W        W27857  36.032  21.655  11.589
55444W        W27858   0.794  10.261   3.271
55445W        W27859   1.271   3.797  13.499
55446W        W27860  13.166  16.261  14.485
55447W        W27861  11.622   3.878   1.298
55448W        W27862   8.374  42.344   4.277
55449W        W27863  14.192  17.703   4.233
55450W        W27864  38.444  10.377  14.295
55451W        W27865  20.156  23.159   4.241
55452W        W27866  41.805  32.511  10.900
55453W        W27867  21.056  19.627  11.063
55454W        W27868  32.060  21.671  10.901
55455W        W27869  43.504   5.713   0.253
55456W        W27870  31.416  43.020  11.094
55457W        W27871  14.677   2.451  10.997
55458W        W27872   0.778  14.236   3.672
55459W        W27873  39.040   9.200  13.820
55460W        W27874  12.256  22.168  10.493
55461W        W27875  13.602  11.829   1.247
55462W        W27876   1.895  30.454   2.675
55463W        W27877  43.909  35.381   1.416
55464W        W27878  23.503   6.421  13.043
55465W        W27879  25.068  23.987   0.794
55466W        W27880   8.163  43.801   4.158
55467W        W27881   7.729  32.449   4.121
55468W        W27882  32.559  15.778  13.360
55469W        W27883   9.744  16.150   4.835
55470W        W27884  29.099  42.347   4.703
55471W        W27885  29.982   9.824   4.709
55472W        W27886  14.792  17.217  11.074
55473W        W27887   1.282  42.845   3.717
55474W        W27888  35.393  29.426  11.975
55475W        W27889  41.901  18.763   0.839
55476W        W27890  24.665  11.216  14.790
55477W        W27891  23.984   6.218   0.316
55478W        W27892  26.495  20.609   5.207
55479W        W27893   1.474  33.558  10.943
55480W        W27894  43.301   9.866  14.916
55481W        W27895  14.600   8.254   1.783
55482W        W27896  32.451  43.801  10.545
55483W        W27897   3.258  38.410  11.377
55484W        W27898  13.126   9.330   4.203
55485W        W27899   7.388  35.858   0.926
55486W        W27900   4.234  42.937  13.420
55487W        W27901  20.603  25.547   4.170
55488W        W27902   1.323  37.569  10.048
55489W        W27903  36.562  16.689   9.926
55490W        W27904  43.508  20.109  13.311
55491W        W27905   8.214  20.606  14.789
55492W        W27906  25.210  20.625  11.110
55493W        W27907  23.170   9.798   0.323
55494W        W27908   3.857  22.155  11.488
55495W        W27909  13.684  32.398   0.904
55496W        W27910   3.779  20.669   3.757
55497W        W27911  42.326   0.483   4.702
55498W        W27912  12.326  24.145   0.916
55499W        W27913  26.540  21.020   1.291
55500W        W27914  32.140  19.655   0.936
55501W        W27915  31.985  33.514  14.962
55502W        W27916  35.567  41.420   3.833
55503W        W27917   8.677  43.884   2.795
55504W        W27918  26.489  34.499   1.225
55505W        W27919  39.034  27.064   4.310
55506W        W27920  20.593  43.484   1.911
55507W        W27921  15.743  23.679   2.709
55508W        W27922  30.088  22.175  14.006
55509W        W27923  22.152  42.349  14.281
55510W        W27924  26.473  16.713  11.970
55511W        W27925  22.735  13.226   3.261
55512W        W27926  39.355  38.997   2.874
55513W        W27927   1.735  18.098  10.487
55514W        W27928  21.635   7.177   3.274
55515W        W27929   1.875   5.423   4.658
55516W        W27930   7.306   9.716  11.465
55517W        W27931   2.229  17.661  14.999
55518W        W27932   3.304  24.598   4.705
55519W        W27933  44.288  12.717  10.899
55520W        W27934  38.866  23.990  12.857
55521W        W27935  34.528  25.600   2.844
55522W        W27936   2.326   1.753   3.286
55523W        W27937  38.436  25.184  14.922
55524W        W27938   5.344  23.190  14.005
55525W        W27939  37.038  23.042  11.458
55526W        W27940  32.048  38.496   2.690
55527W        W27941  39.527  16.792   0.391
55528W        W27942  32.985  33.508   0.406
55529W        W27943  20.041   8.288  13.966
55530W        W27944   0.409   3.424  12.067
55531W        W27945  36.535  43.020   0.277
55532W        W27946   0.288  16.145   3.730
55533W        W27947   2.391  42.397  10.926
55534W        W27948   0.865  30.054   2.380
55535W        W27949   7.403  20.767   3.251
55536W        W27950  39.833  15.759  10.991
55537W        W27951  37.510  32.488   9.581
55538W        W27952  40.495   0.437   0.339
55539W        W27953  28.042  40.826  12.551
55540W        W27954  15.648  38.389   2.399
55541W        W27955  44.307  13.287  11.437
55542W        W27956  41.342  26.697  11.108
55543W        W27957  39.430  33.931   3.652
55544W        W27958   8.781  15.765   2.360
55545W        W27959  13.246  31.577   1.926
55546W        W27960  24.973  35.908  10.418
55547W        W27961   6.414   9.668   3.362
55548W        W27962  13.320  42.912   2.417
55549W        W27963  31.402  34.872   1.704
55550W        W27964   7.253  19.639  13.911
55551W        W27965  29.480  29.929  12.558
55552W        W27966  25.017  10.844   2.222
55553W        W27967  23.725  38.414  13.864
55554W        W27968  27.989  13.609  14.979
55555W        W27969  24.006  44.004   2.268
55556W        W27970  36.093  38.335   1.741
55557W        W27971   1.273  33.955   1.703
55558W        W27972  32.088   1.755  13.001
55559W        W27973  34.538  31.642   1.814
55560W        W27974  37.452   3.815   3.856
55561W        W27975  28.437  26.673  13.803
55562W        W27976  43.856  29.073  10.630
55563W        W27977  40.042  10.748   0.915
55564W        W27978   0.853   2.386  14.942
55565W        W27979  18.171  25.016  10.466
55566W        W27980  23.024  16.778  10.491
55567W        W27981  33.948  42.488   0.362
55568W        W27982  31.053  15.199  13.323
55569W        W27983  30.069  31.047  14.496
55570W        W27984  30.501  32.127   2.407
55571W        W27985  37.415  30.587  14.942
55572W        W27986  23.126  23.168   1.700
55573W        W27987  43.489   6.288   4.251
55574W        W27988   0.754  18.073  14.911
55575W        W27989  35.359  20.247  12.536
55576W        W27990  23.230  33.098   2.343
55577W        W27991  33.894   7.401   0.889
55578W        W27992  22.122  26.697   1.748
55579W        W27993  16.774  16.733   2.822
55580W        W27994  44.285  21.255   2.758
55581W        W27995  27.162   9.734  12.032
55582W        W27996   8.795  36.863  10.935
55583W        W27997  33.595  32.008   5.164
55584W        W27998  29.039  41.363   4.254
55585W        W27999  11.732   0.831  13.535
55586W        W28000  36.852  31.604   3.772
55587W        W28001  21.094   1.871  14.323
55588W        W28002  18.785  18.623   2.269
55589W        W28003   4.401   9.333   0.412
55590W        W28004  40.393   6.707  12.412
55591W        W28005  33.615   1.783  12.968
55592W        W28006  41.817  20.670   0.285
55593W        W28007   5.416  26.175  10.510
55594W        W28008   2.886  41.450   0.439
55595W        W28009   0.307   7.709   2.802
55596W        W28010   5.419  40.471   4.335
55597W        W28011  32.449   5.729   1.781
55598W        W28012  23.176  13.829  11.423
55599W        W28013  16.163   5.712   1.281
55600W        W28014  16.108  25.604  12.525
55601W        W28015  22.584  35.965   2.856
55602W        W28016   7.346  12.706  11.000
55603W        W28017  40.520   6.779   3.817
55604W        W28018  14.296  12.647   4.172
55605W        W28019  43.320  14.268  12.035
55606W        W28020  40.852  35.578   4.782
55607W        W28021  32.061  31.545  14.494
55608W        W28022  36.588   9.369   1.911
55609W        W28023  40.404  31.624  13.310
55610W        W28024   5.729  37.496  14.386
55611W        W28025  10.854  12.662   1.360
55612W        W28026  41.405   7.764   0.802
55613W        W28027  12.333   4.757  12.875
55614W        W28028  14.329  39.887  11.124
55615W        W28029  11.149   3.299  14.946
55616W        W28030  25.569  15.789   0.465
55617W        W28031   2.254  37.563   2.335
55618W        W28032  30.602   2.436  13.928
55619W        W28033  12.847   3.373   4.628
55620W        W28034   8.360  30.034   3.161
55621W        W28035   2.257  20.723  14.322
55622W        W28036   0.388  20.230  14.828
55623W        W28037   2.779  30.060  12.848
55624W        W28038  18.184  30.105   1.274
55625W        W28039  29.625   9.815  12.020
55626W        W28040  36.519  22.251  14.971
55627W        W28041   1.464  31.983  13.448
55628W        W28042  14.755   3.711   1.400
55629W        W28043  33.911  30.506  12.021
55630W        W28044  33.604   9.853   0.784
55631W        W28045  37.440  27.446   0.375
55632W        W28046  35.015   1.770   1.238
55633W        W28047  30.025  28.467  14.957
55634W        W28048  19.653  33.040   1.402
55635W        W28049  28.163  33.996  12.982
55636W        W28050  44.975   6.896   4.718
55637W        W28051  37.414  36.583   5.097
55638W        W28052  18.122  11.195   0.884
55639W        W28053  17.236   2.313   2.251
55640W        W28054  32.046  43.320   0.418
55641W        W28055  22.506   7.895   0.761
55642W        W28056  23.201  20.753   2.687
55643W        W28057  34.028  21.681  12.969
55644W        W28058  14.112  43.878  10.589
55645W        W28059  15.597  37.510  12.827
55646W        W28060  30.414  30.048  10.889
55647W        W28061  28.950  29.995   1.762
55648W        W28062  23.573  13.107  10.590
55649W        W28063  39.057  14.616  13.019
55650W        W28064  21.640  11.799  12.942
55651W        W28065  13.105  14.238   0.753
55652W        W28066  21.076  35.990  10.072
55653W        W28067  19.599  11.172  10.471
55654W        W28068  37.001   9.280  10.488
55655W        W28069  36.501  14.806   1.310
55656W        W28070  26.049   4.259   4.682
55657W        W28071  25.658  38.983   4.181
55658W        W28072  42.508   1.769  13.480
55659W        W28073  32.124   4.248   2.197
55660W        W28074   4.274  29.961  12.051
55661W        W28075  34.110   9.163   3.646
55662W        W28076  29.049  28.040   4.819
55663W        W28077   8.875  44.010   0.392
55664W        W28078   7.906  23.069   3.290
55665W        W28079  21.547  36.424  14.847
55666W        W28080  12.636  37.395   3.718
55667W        W28081  13.201  26.601  14.878
55668W        W28082  36.099  42.830  13.494
55669W        W28083   1.746   8.325  11.564
55670W        W28084   6.842  12.616   2.340
55671W        W28085  15.232  42.418  14.989
55672W        W28086   3.850  28.972   4.811
55673W        W28087  21.257  27.475   9.956
55674W        W28088  29.140  23.674  13.902
55675W        W28089   0.888  37.929   4.739
55676W        W28090  31.506  42.817   0.818
55677W        W28091   8.269  24.997  13.447
55678W        W28092   7.288   1.912   2.368
55679W        W28093  34.870  41.977   3.382
55680W        W28094  24.158  44.895  12.029
55681W        W28095  24.606  40.051   0.740
55682W        W28096  31.437  18.654   1.394
55683W        W28097  28.452  27.585   0.781
55684W        W28098  28.661  26.964   3.360
55685W        W28099  32.974   0.983  11.990
55686W        W28100  27.018  11.862  14.835
55687W        W28101  42.317  20.132   4.732
55688W        W28102  37.456  34.886  11.086
55689W        W28103  22.598  37.873  13.507
55690W        W28104  11.176  15.115  11.106
55691W        W28105  33.517  32.629   0.444
55692W        W28106   4.215  42.436  12.843
55693W        W28107  33.460  32.099   4.620
55694W        W28108  37.364  10.655  14.923
55695W        W28109  42.031  41.877  13.823
55696W        W28110  24.987  37.926  13.795
55697W        W28111  12.647  15.135   2.339
55698W        W28112  40.936   7.413  12.556
55699W        W28113   3.797   2.405   3.288
55700W        W28114  21.154  16.569  11.856
55701W        W28115  24.006  33.092  10.638
55702W        W28116   1.930  35.877   4.770
55703W        W28117  43.316  12.706   9.989
55704W        W28118  33.962  29.098   4.793
55705W        W28119  36.918  23.651  13.442
55706W        W28120  33.439  44.343  11.098
55707W        W28121  16.135  43.861   1.701
55708W        W28122  17.734  30.591   2.243
55709W        W28123  26.102  16.089   1.245
55710W        W28124  38.900  39.954   3.837
55711W        W28125  39.819   6.802   3.172
55712W        W28126  11.372  18.708  11.923
55713W        W28127  20.733  35.102   4.345
55714W        W28128  29.522  22.742   5.135
55715W        W28129  40.391   4.228  13.378
55716W        W28130  37.041  17.585   3.717
55717W        W28131  22.995   0.897  12.408
55718W        W28132   1.473   5.705  10.990
55719W        W28133   3.377  31.506  13.973
55720W        W28134   6.391  36.389  11.958
55721W        W28135  17.089  26.969  11.422
55722W        W28136  18.071   7.336  12.019
55723W        W28137   9.350  24.647  14.497
55724W        W28138  33.602  21.756   4.765
55725W        W28139  35.018  17.245   4.228
55726W        W28140   5.382   5.381  14.937
55727W        W28141  21.719   6.737   2.386
55728W        W28142  20.038  19.672   0.414
55729W        W28143  34.583  14.594  12.958
55730W        W28144  16.183  23.549  13.847
55731W        W28145  31.917  25.203   0.443
55732W        W28146   8.681  18.723  11.478
55733W        W28147  11.676  14.162  13.876
55734W        W28148  38.868   7.883  13.395
55735W        W28149  21.717  40.471   2.195
55736W        W28150   2.907  25.140  12.351
55737W        W28151   9.789  30.938   0.416
55738W        W28152  15.622   9.284  13.505
55739W        W28153   6.423  23.660  12.075
55740W        W28154  23.137  20.721  11.612
55741W        W28155  26.961   0.904   0.460
55742W        W28156  19.760   9.270  10.510
55743W        W28157  23.695  31.422   3.299
55744W        W28158   0.420  25.483   4.693
55745W        W28159  40.037  37.414   4.190
55746W        W28160  11.340   9.776  11.043
55747W        W28161  27.166   6.427   0.934
55748W        W28162  17.104  14.151  12.561
55749W        W28163  17.799  23.571  11.500
55750W        W28164  37.558   2.940   4.702
55751W        W28165  36.845  44.904  10.937
55752W        W28166  41.490  20.251   3.663
55753W        W28167  12.137  13.749   2.234
55754W        W28168   3.410  32.575   1.931
55755W        W28169  32.612  19.581   4.321
55756W        W28170  31.111   0.425   3.237
55757W        W28171  25.059  35.509   0.781
55758W        W28172  30.563  29.543  13.529
55759W        W28173  28.526  17.080  11.069
55760W        W28174  10.679  16.176  13.839
55761W        W28175  13.756  21.729  11.939
55762W        W28176  13.218  30.493  10.071
55763W        W28177   5.269  28.662   0.451
55764W        W28178  39.522  29.105  12.542
55765W        W28179   7.736  16.572  12.068
55766W        W28180  13.270  16.251  14.784
55767W        W28181  15.164  12.659   2.867
55768W        W28182  40.993  21.632  12.356
55769W        W28183  23.074  33.585   3.317
55770W        W28184  38.404  22.601  11.119
55771W        W28185  15.764  27.652   0.757
55772W        W28186  37.557   4.905   0.893
55773W        W28187  27.979  15.242  14.947
55774W        W28188  31.019  40.465  12.093
55775W        W28189  20.755  44.794  11.538
55776W        W28190  17.721  18.629   0.871
55777W        W28191  37.913  11.819  10.144
55778W        W28192  41.836  31.066   1.408
55779W        W28193  31.575  29.460  11.375
55780W        W28194  38.035  19.263  14.981
55781W        W28195  33.921  30.132  10.592
55782W        W28196  31.102   7.761   1.746
55783W        W28197  22.180  22.122   4.790
55784W        W28198  11.829  30.431  14.970
55785W        W28199  25.572  34.870   2.401
55786W        W28200  23.027  16.591   0.469
55787W        W28201  10.676  10.287  13.044
55788W        W28202  17.212   2.803  14.916
55789W        W28203  29.605  10.873   4.645
55790W        W28204  27.647  31.086  11.994
55791W        W28205  30.511  29.647  13.844
55792W        W28206  22.020  25.709   1.303
55793W        W28207   0.782  39.940   1.854
55794W        W28208  16.679  29.651  10.638
55795W        W28209  26.005  12.706  12.995
55796W        W28210   6.255  36.948   1.823
55797W        W28211  21.187  44.305   5.184
55798W        W28212  27.966  21.670   1.252
55799W        W28213  27.113  28.501  10.417
55800W        W28214  28.489  41.942  13.494
55801W        W28215  30.123  11.177   0.907
55802W        W28216  19.571  38.356   0.777
55803W        W28217  13.774  19.773  11.983
55804W        W28218  18.176  34.921   1.448
55805W        W28219   5.723  15.622  14.849
55806W        W28220  26.567   0.255  10.890
55807W        W28221  18.582  19.116   3.646
55808W        W28222   0.296   8.190  11.441
55809W        W28223   5.719  22.569  12.889
55810W        W28224  39.351   4.415   4.603
55811W        W28225  20.718  16.125  11.425
55812W        W28226  16.798   6.915  10.893
55813W        W28227  23.721   5.247   1.417
55814W        W28228  43.349  34.539   3.787
55815W        W28229  38.424  10.312   1.306
55816W        W28230   2.414   1.758   2.212
55817W        W28231   6.685  33.473   4.114
55818W        W28232  19.552   1.870  14.479
55819W        W28233  26.093   7.857   0.799
55820W        W28234  39.338   8.852   2.797
55821W        W28235  37.920   6.298   4.818
55822W        W28236  18.715  41.323   4.179
55823W        W28237  23.649  19.072   3.216
55824W        W28238  13.182   4.371  12.852
55825W        W28239   0.787  27.978   4.165
55826W        W28240   2.258  34.469  11.043
55827W        W28241  41.805  38.914  13.959
55828W        W28242   2.829  36.073  14.910
55829W        W28243  17.147  14.716   3.357
55830W        W28244  31.605   5.415  11.927
55831W        W28245  25.134  29.156  11.872
55832W        W28246  12.350  44.906  14.357
55833W        W28247  27.537  21.018   5.296
55834W        W28248  35.472  31.418   4.188
55835W        W28249  14.795  33.051   0.302
55836W        W28250  27.625   3.718  12.492
55837W        W28251  40.542  17.778   2.690
55838W        W28252   2.921   2.782  10.547
55839W        W28253  19.040  29.130  13.011
55840W        W28254  29.545  39.483  13.836
55841W        W28255  26.978  40.847   1.416
55842W        W28256  12.632  19.250  11.860
55843W        W28257  33.385  27.107  12.500
55844W        W28258  41.443  12.615   4.240
55845W        W28259  28.589  26.180  12.956
55846W        W28260  18.296  15.309  11.548
55847W        W28261  28.996  16.684  14.357
55848W        W28262  35.856  20.574  13.841
55849W        W28263  11.251  41.962  14.309
55850W        W28264  41.042   5.743   3.336
55851W        W28265   6.694  15.783  12.565
55852W        W28266  38.355  44.968   1.294
55853W        W28267  36.002  17.216   2.801
55854W        W28268  36.033  36.349   0.303
55855W        W28269  24.532  12.712   0.457
55856W        W28270  21.103   5.221  13.854
55857W        W28271  38.928  22.153   2.765
55858W        W28272  33.483  43.780   3.177
55859W        W28273   2.425  40.982  10.136
55860W        W28274  39.887  24.126  14.908
55861W        W28275  18.050   0.785  11.478
55862W        W28276  22.147  15.686   2.666
55863W        W28277  31.967  27.595   2.235
55864W        W28278  31.435  15.720   1.914
55865W        W28279  15.237  18.758   4.625
55866W        W28280  40.335  25.631  10.501
55867W        W28281  25.048  26.092  11.093
55868W        W28282  11.676  11.738   2.716
55869W        W28283  39.919  21.093  11.881
55870W        W28284  16.761   7.735   3.839
55871W        W28285  44.470  19.644  14.809
55872W        W28286   2.935  14.632  14.350
55873W        W28287   2.390  24.708   4.191
55874W        W28288  44.761  43.908  11.508
55875W        W28289  16.196  22.650   3.384
55876W        W28290  22.642   3.888   0.949
55877W        W28291  10.758  18.115   0.865
55878W        W28292  27.174  40.440  10.045
55879W        W28293  35.916  41.805   4.664
55880W        W28294   8.281  30.015  13.396
55881W        W28295  18.229  19.209   0.349
55882W        W28296   9.885  40.370  11.596
55883W        W28297   8.890   7.893   4.223
55884W        W28298  12.225  36.927   3.644
55885W        W28299  15.589  44.269   2.249
55886W        W28300  13.736   3.894   1.330
55887W        W28301   2.468  10.243  13.470
55888W        W28302  35.510   6.726   3.199
55889W        W28303  37.913  28.946  13.547
55890W        W28304  30.536  21.599  11.418
55891W        W28305  22.740  36.042  12.971
55892W        W28306   3.784  27.600   4.250
55893W        W28307  40.402  34.880  11.472
55894W        W28308  27.581   6.198   1.394
55895W        W28309   0.272  42.344  13.472
55896W        W28310   5.341  32.115  10.895
55897W        W28311  36.048  25.587   0.945
55898W        W28312  41.030  40.502   0.838
55899W        W28313  30.006  19.182   4.679
55900W        W28314  33.918   6.907  14.281
55901W        W28315  23.161  35.924  14.311
55902W        W28316  36.549  31.640   3.861
55903W        W28317   5.881  36.027  14.941
55904W        W28318  34.033  29.011   0.910
55905W        W28319  16.601   5.696  12.876
55906W        W28320  10.176  34.932  10.080
55907W        W28321  20.102  17.082   5.174
55908W        W28322   1.453  18.088   4.320
55909W        W28323  33.999   3.238  14.970
55910W        W28324  20.234   1.397  11.967
55911W        W28325  16.208  34.943  13.020
55912W        W28326  40.896  34.011  14.380
55913W        W28327  18.675  15.262  14.800
55914W        W28328   1.923  12.163   3.784
55915W        W28329  33.132   2.449  13.049
55916W        W28330  41.966  20.198  12.898
55917W        W28331  10.304   9.817   1.707
55918W        W28332  10.353  27.017   0.874
55919W        W28333  16.681   1.259  11.454
55920W        W28334  30.088  12.742   4.250
55921W        W28335  18.276  37.083   2.776
55922W        W28336  26.475  42.894   3.371
55923W        W28337   6.798  43.337   1.401
55924W        W28338  42.326  25.985  10.979
55925W        W28339   4.743  22.590   4.300
55926W        W28340  31.980  12.229  14.963
55927W        W28341  39.487   2.248   2.346
55928W        W28342   6.255   8.293  12.983
55929W        W28343  34.563  21.025   9.457
55930W        W28344   7.902  37.363  12.511
55931W        W28345   3.226   4.388  14.350
55932W        W28346  32.397  41.329   2.899
55933W        W28347  44.427  15.203  12.403
55934W        W28348  20.585  29.566   0.929
55935W        W28349  32.531  20.143   2.248
55936W        W28350  23.696  41.009   0.736
55937W        W28351  44.479  40.041   3.707
55938W        W28352  35.428   7.670   2.760
55939W        W28353  27.554  19.048   4.628
55940W        W28354  16.689  29.160   0.791
55941W        W28355  28.016  41.977  14.315
55942W        W28356  22.136  24.723  10.925
55943W        W28357  30.641  31.062   4.746
55944W        W28358  13.627  17.582   0.360
55945W        W28359  21.247  34.506  14.910
55946W        W28360  24.099  11.204   3.636
55947W        W28361  23.612  44.428  14.966
55948W        W28362  43.973  43.986   4.799
55949W        W28363  11.180  13.776  11.993
55950W        W28364  27.020  35.425   4.674
55951W        W28365   7.332  26.542  14.362
55952W        W28366   8.671  30.416   3.791
55953W        W28367   5.396  36.433   3.322
55954W        W28368  16.271   4.702  14.514
55955W        W28369  25.963  17.204   5.628
55956W        W28370  28.122  24.126  10.927
55957W        W28371  31.497   9.696   3.706
55958W        W28372  22.699  25.213   4.609
55959W        W28373   2.880  14.746  11.078
55960W        W28374  27.453   4.428  11.008
55961W        W28375  44.960  15.678   2.817
55962W        W28376  37.995  12.756   0.386
55963W        W28377  29.514  41.374  13.927
55964W        W28378   9.176   8.781  10.961
55965W        W28379  13.708  41.979   0.406
55966W        W28380  22.245  42.005  12.547
55967W        W28381  28.440  33.013  14.275
55968W        W28382  32.014  21.700  13.837
55969W        W28383  12.802  14.816  12.375
55970W        W28384  43.832  19.536   2.787
55971W        W28385  18.121  34.914  11.610
55972W        W28386  22.188  11.753   0.250
55973W        W28387  44.309  19.555   5.088
55974W        W28388  18.615   8.227   0.420
55975W        W28389  37.436  34.083   2.243
55976W        W28390  23.591  29.561   1.880
55977W        W28391  12.353  14.195  11.481
55978W        W28392  16.184  39.319  13.513
55979W        W28393  40.425  43.400  13.960
55980W        W28394  27.474  35.042  11.865
55981W        W28395   2.785  40.358  14.472
55982W        W28396  26.640   9.244  13.903
55983W        W28397  13.638  35.970   2.799
55984W        W28398   5.262  16.662  14.848
55985W        W28399  12.301  23.527  11.986
55986W        W28400  13.634  34.368  14.457
55987W        W28401  19.247  35.997  13.930
55988W        W28402   8.793  38.395  12.912
55989W        W28403  38.433  30.053   4.601
55990W        W28404  22.163   8.785  14.907
55991W        W28405  32.034  42.438  11.903
55992W        W28406  32.107  18.088   2.680
55993W        W28407   5.924  13.653  10.001
55994W        W28408  39.497  31.411   3.713
55995W        W28409  42.972  40.807  12.426
55996W        W28410  43.998  28.008  10.426
55997W        W28411  29.995  26.459  10.960
55998W        W28412   4.214  39.430   9.540
55999W        W28413  36.003  39.468  10.582
56000W        W28414  41.974  15.096  11.377
56001W        W28415  43.898  18.219  12.470
56002W        W28416   4.937  18.139   3.763
56003W        W28417  17.713  18.257   4.202
56004W        W28418  16.250  30.621  10.503
56005W        W28419  20.128  15.189   4.631
56006W        W28420  34.400  27.566   2.353
56007W        W28421   9.715  23.088  14.423
56008W        W28422   2.965  44.445  11.009
56009W        W28423   8.825   8.770  11.547
56010W        W28424  29.168  19.618   1.216
56011W        W28425  32.925  21.710   0.788
56012W        W28426  35.530  11.744   1.748
56013W        W28427  42.810  36.372   5.208
56014W        W28428  18.747  16.215  11.516
56015W        W28429  18.207  18.076  13.477
56016W        W28430  38.429  11.778   3.777
56017W        W28431  35.991  33.518  14.308
56018W        W28432  24.583  13.689  12.955
56019W        W28433   0.378  25.474  13.916
56020W        W28434  19.761  24.518  11.448
56021W        W28435   5.317   0.402   3.845
56022W        W28436  21.031  11.235  11.407
56023W        W28437  24.199  21.627  14.458
56024W        W28438  29.976  44.448  14.499
56025W        W28439  15.696  35.935   2.762
56026W        W28440  21.734  24.987  10.596
56027W        W28441  26.619  16.659  10.519
56028W        W28442  20.564  21.166  13.500
56029W        W28443  18.757  30.114   3.740
56030W        W28444  14.594   0.352  12.990
56031W        W28445   0.839  12.354   2.186
56032W        W28446  35.396  10.213  11.399
56033W        W28447  32.107   7.360   0.386
56034W        W28448   3.898  24.015   3.815
56035W        W28449  27.955   8.703  10.426
56036W        W28450  30.038  15.211   2.338
56037W        W28451   3.460  40.054   2.681
56038W        W28452  16.771  15.721   0.744
56039W        W28453  44.796  16.312   1.861
56040W        W28454   6.898  13.720   1.249
56041W        W28455  16.209  14.695   0.306
56042W        W28456  28.136  37.510  12.473
56043W        W28457  10.366  23.518   2.848
56044W        W28458  29.943  38.897  13.940
56045W        W28459  29.639  28.018  12.936
56046W        W28460  44.334  41.302   0.436
56047W        W28461  33.522   9.742  11.490
56048W        W28462  21.666  41.825  14.850
56049W        W28463  41.438   8.170   4.809
56050W        W28464  16.157   8.405  12.342
56051W        W28465  30.976   5.416   4.812
56052W        W28466  18.565  44.436   4.654
56053W        W28467  40.022  25.607   2.724
56054W        W28468  21.239  13.650   3.266
56055W        W28469  28.481  40.400  10.508
56056W        W28470  35.981  16.179  12.943
56057W        W28471  22.069   7.705   2.258
56058W        W28472  42.918  14.286  13.418
56059W        W28473  21.565   7.676   3.632
56060W        W28474  30.501  31.996  10.496
56061W        W28475  32.914  36.060  12.965
56062W        W28476  18.747   5.393   2.205
56063W        W28477  27.968  41.465   2.330
56064W        W28478  25.171  40.389   3.741
56065W        W28479   0.963  22.625   2.291
56066W        W28480  39.936  12.123  14.928
56067W        W28481   7.837   9.373   4.282
56068W        W28482   4.299   7.373  13.805
56069W        W28483  36.501  10.834   3.710
56070W        W28484  40.006  22.549  14.386
56071W        W28485  29.520  13.142  10.557
56072W        W28486  33.396   5.708  11.500
56073W        W28487   5.931  34.373  13.410
56074W        W28488  27.600  32.535  11.913
56075W        W28489  34.568  43.356  12.541
56076W        W28490  13.287  33.495   5.318
56077W        W28491  17.732   5.268   3.288
56078W        W28492  41.807   7.266   4.806
56079W        W28493  37.969  14.149  11.434
56080W        W28494  27.582  21.058   2.827
56081W        W28495  14.099  11.336   1.793
56082W        W28496  35.551   4.904   4.144
56083W        W28497   6.340  38.957  10.044
56084W        W28498  12.696  32.564  13.542
56085W        W28499   4.264  24.590  10.892
56086W        W28500   7.362  33.462  12.510
56087W        W28501  42.447  36.480   1.934
56088W        W28502   3.270  19.656  12.878
56089W        W28503   8.736  19.040   1.712
56090W        W28504   6.907   7.411  14.906
56091W        W28505  43.441   3.363  12.999
56092W        W28506  32.899  29.001   1.438
56093W        W28507  16.143  26.093   4.312
56094W        W28508  13.835   3.736   4.128
56095W        W28509  32.011   9.782  11.482
56096W        W28510  24.165  21.242   3.168
56097W        W28511  39.343   9.761  13.365
56098W        W28512  26.018  19.250  14.359
56099W        W28513  16.659   5.409  11.473
56100W        W28514  18.104  43.916   0.854
56101W        W28515   6.327  30.598   3.733
56102W        W28516  39.859   9.385   0.746
56103W        W28517  23.088   2.962   4.692
56104W        W28518  20.699  23.232  12.564
56105W        W28519  21.738   7.313   0.959
56106W        W28520   4.388  15.597   3.857
56107W        W28521  20.620  44.803   3.736
56108W        W28522  31.431  42.942  13.791
56109W        W28523  29.981  32.577   3.754
56110W        W28524   6.395  36.876  11.870
56111W        W28525   5.404   4.219   3.275
56112W        W28526  44.431  14.632   4.686
56113W        W28527  30.459  37.931   1.758
56114W        W28528  18.279  27.673  13.885
56115W        W28529   3.753  16.123  14.354
56116W        W28530  18.672  41.535   3.764
56117W        W28531   9.198  15.611   2.775
56118W        W28532  36.038   3.719  13.026
56119W        W28533  36.998  36.084  13.386
56120W        W28534   0.320   2.949  13.898
56121W        W28535  41.489  12.802  11.467
56122W        W28536  18.112  33.103   1.319
56123W        W28537  20.546  39.439  13.543
56124W        W28538  26.068  21.661   2.874
56125W        W28539   5.910  11.820   3.847
56126W        W28540  34.067  29.041   3.651
56127W        W28541   6.699  42.908   5.110
56128W        W28542   6.780  31.133  11.924
56129W        W28543  22.571  28.077   1.267
56130W        W28544   1.797   9.173  13.807
56131W        W28545  43.482  26.542   0.957
56132W        W28546  38.067  15.257   3.651
56133W        W28547  16.577  40.894  12.556
56134W        W28548   7.177  33.380   1.398
56135W        W28549   6.683  13.692   4.195
56136W        W28550  28.547  39.412  12.362
56137W        W28551   3.907  25.472   3.251
56138W        W28552  36.849  43.365  12.983
56139W        W28553  31.090   4.375   3.313
56140W        W28554  20.536  39.007  12.051
56141W        W28555   0.899   2.343  11.959
56142W        W28556   7.280  22.654  12.414
56143W        W28557  43.307  12.705   1.757
56144W        W28558  43.947  22.216  10.975
56145W        W28559   7.826  39.513   3.283
56146W        W28560  35.954  41.894   0.863
56147W        W28561  11.137   1.314   4.212
56148W        W28562   3.235   4.771   0.827
56149W        W28563   9.204  27.491   2.879
56150W        W28564  13.155  15.659   0.482
56151W        W28565  31.447   0.869   2.191
56152W        W28566  17.558  27.521   2.857
56153W        W28567  26.176   1.355  10.600
56154W        W28568  36.085   6.899   4.680
56155W        W28569  35.447  24.004  12.001
56156W        W28570  11.275  33.958   4.278
56157W        W28571   1.427  24.026   4.137
56158W        W28572  34.377  44.818  14.323
56159W        W28573  12.729   1.806   3.162
56160W        W28574  15.718  34.601   2.277
56161W        W28575   3.345  36.399  10.481
56162W        W28576  36.055  44.345   2.679
56163W        W28577   1.820  33.571  14.307
56164W        W28578  40.962   0.405   0.832
56165W        W28579  26.057  40.395  11.546
56166W        W28580  44.401  28.544   0.345
56167W        W28581   1.957   8.374   1.349
56168W        W28582  40.919  35.396  13.872
56169W        W28583   6.731  23.672  13.355
56170W        W28584  12.683  16.750   1.338
56171W        W28585   8.377  28.554  13.900
56172W        W28586  38.383  29.127   1.216
56173W        W28587  29.164  36.532   4.750
56174W        W28588  36.557  38.873  11.537
56175W        W28589   0.417  44.977  14.322
56176W        W28590  34.431   4.398   3.260
56177W        W28591  16.217  21.089  11.042
56178W        W28592  19.580  22.525   2.870
56179W        W28593  23.204  13.197  13.469
56180W        W28594  26.534  31.521  11.063
56181W        W28595  33.953  41.324   0.453
56182W        W28596  13.207  23.161   1.701
56183W        W28597  24.103  25.040   0.907
56184W        W28598  13.807  11.332  13.950
56185W        W28599  40.939   0.462   4.161
56186W        W28600   1.381  25.194   1.749
56187W        W28601  20.625  25.069  13.389
56188W        W28602   6.904  15.658   1.904
56189W        W28603  41.311  26.656  14.385
56190W        W28604   7.373  30.555  13.509
56191W        W28605   6.226  38.523  14.926
56192W        W28606   3.318  40.548   5.565
56193W        W28607   4.403   8.234   1.731
56194W        W28608   5.736   3.262  13.985
56195W        W28609  26.588   1.951   0.384
56196W        W28610   8.895  15.084   4.348
56197W        W28611  23.722  13.639  12.572
56198W        W28612  20.222  22.531  13.039
56199W        W28613  29.625  19.115  12.893
56200W        W28614  36.453  28.161  14.988
56201W        W28615  20.242  44.328  12.852
56202W        W28616  38.970  27.197  13.989
56203W        W28617  33.422  13.727  12.940
56204W        W28618   5.252  14.201  11.072
56205W        W28619  19.688  34.925   1.803
56206W        W28620   6.769  22.733  11.439
56207W        W28621   5.354  24.012   2.387
56208W        W28622  36.576  20.248  10.499
56209W        W28623  22.656  12.717  14.813
56210W        W28624  20.122   4.424   3.303
56211W        W28625  14.762  21.128  10.406
56212W        W28626  30.928  31.921  11.471
56213W        W28627  16.187  12.804   2.207
56214W        W28628  33.027  11.759  12.539
56215W        W28629  41.298   3.955   0.365
56216W        W28630  14.767  23.490  13.931
56217W        W28631  28.561  13.255   3.169
56218W        W28632   5.285  33.035   2.732
56219W        W28633  15.820  36.459  13.063
56220W        W28634  39.870  15.243   0.390
56221W        W28635  14.644  25.660   3.183
56222W        W28636  15.275  24.150  11.112
56223W        W28637  31.417  15.264  13.402
56224W        W28638  26.207  12.276   3.157
56225W        W28639   7.265   2.818  13.848
56226W        W28640  38.851  14.275  11.534
56227W        W28641   5.327  37.038  13.398
56228W        W28642  17.753  35.493  14.301
56229W        W28643  40.849  28.456   0.325
56230W        W28644  32.606   6.895   1.223
56231W        W28645  13.806  27.155   4.621
56232W        W28646  23.671   8.192   0.812
56233W        W28647  38.342  35.068   2.383
56234W        W28648  21.724  17.240  10.888
56235W        W28649  25.011   0.375   4.696
56236W        W28650  40.994  32.615   0.735
56237W        W28651  12.220  20.614   0.383
56238W        W28652   2.734  25.478   3.344
56239W        W28653  18.145  30.545   1.309
56240W        W28654   3.901   0.301   2.369
56241W        W28655  35.081  32.571   2.711
56242W        W28656  20.565  19.575  10.953
56243W        W28657  26.149  41.794   3.372
56244W        W28658  40.391  32.576   1.700
56245W        W28659   3.848   7.683   1.805
56246W        W28660   1.295  33.986  14.350
56247W        W28661   6.721   3.803  12.966
56248W        W28662   7.367  19.218  14.910
56249W        W28663  24.154  35.075  10.899
56250W        W28664  17.797  43.303  14.016
56251W        W28665   8.899  24.076   2.743
56252W        W28666  34.083   2.263   0.389
56253W        W28667  34.423   0.282  10.601
56254W        W28668  21.658  33.399  14.340
56255W        W28669   9.772   6.272  10.581
56256W        W28670  16.601  26.488  12.374
56257W        W28671  17.153  34.908   0.420
56258W        W28672  26.182  29.961  13.855
56259W        W28673  10.848  43.399  12.580
56260W        W28674   0.433  34.564  11.436
56261W        W28675  14.197  17.585  14.436
56262W        W28676  16.089  28.016  10.134
56263W        W28677  37.364  37.531  11.596
56264W        W28678   2.430  10.296  12.837
56265W        W28679  15.158   5.832  14.966
56266W        W28680  32.537  13.692   2.251
56267W        W28681  32.555   4.204   2.333
56268W        W28682  38.501  12.828   0.271
56269W        W28683  28.457  34.597  10.475
56270W        W28684  10.373  36.449  13.031
56271W        W28685  19.078  42.862   3.331
56272W        W28686  39.522  12.741  10.531
56273W        W28687  13.112   5.921   3.682
56274W        W28688  11.789  22.725  13.975
56275W        W28689   0.467   7.674  14.792
56276W        W28690   0.977   3.278  10.407
56277W        W28691  10.851   3.717   4.616
56278W        W28692  33.952  36.578  12.968
56279W        W28693  20.581  26.181  14.885
56280W        W28694  32.906  33.069  12.492
56281W        W28695  17.701  33.033   2.874
56282W        W28696   8.278  17.600   0.954
56283W        W28697   3.770  30.990   1.275
56284W        W28698   9.655  38.050   2.289
56285W        W28699  41.456  25.536  11.071
56286W        W28700  26.006   3.812   0.300
56287W        W28701  29.175   0.269  12.396
56288W        W28702   3.263   0.304  13.420
56289W        W28703  22.060  35.941  14.851
56290W        W28704  19.146  34.920  10.478
56291W        W28705  28.473   2.796  11.378
56292W        W28706   1.977  35.421   0.368
56293W        W28707  17.248   4.802  14.484
56294W        W28708  36.905  11.324  13.977
56295W        W28709  19.168   6.839  10.546
56296W        W28710  27.539  15.814   3.258
56297W        W28711  32.589  14.327   2.323
56298W        W28712   9.366   1.371  14.002
56299W        W28713  12.617   0.989   1.242
56300W        W28714   3.850  11.283   4.128
56301W        W28715   2.304  42.939  11.915
56302W        W28716  36.965  14.197   1.260
56303W        W28717  38.053  42.516  14.388
56304W        W28718  14.770  40.016  10.978
56305W        W28719  41.983  31.119  14.758
56306W        W28720  17.678  14.189  12.936
56307W        W28721  39.853  35.037  11.391
56308W        W28722   9.239  31.056  11.464
56309W        W28723   9.237   8.814   2.881
56310W        W28724   2.250  16.123   2.196
56311W        W28725  14.309   9.285   4.273
56312W        W28726   0.431  43.449   3.175
56313W        W28727  18.241  29.438  11.536
56314W        W28728  22.146  34.426   2.829
56315W        W28729   0.396  43.499  11.525
56316W        W28730   6.384  22.037  10.944
56317W        W28731  27.040   6.424  11.929
56318W        W28732  20.714  29.946   0.379
56319W        W28733   2.418  31.514  13.338
56320W        W28734  18.213  31.617   1.447
56321W        W28735   5.785  10.714   2.665
56322W        W28736  19.634   5.339   2.257
56323W        W28737  28.534  29.610  13.799
56324W        W28738  20.262  14.823   3.785
56325W        W28739  18.224  21.211   1.751
56326W        W28740   0.461  10.642  13.502
56327W        W28741  35.095  24.617  12.938
56328W        W28742  32.130  22.041   1.754
56329W        W28743  13.299  35.954   5.225
56330W        W28744   8.265  35.101   4.159
56331W        W28745  22.512  34.942   3.187
56332W        W28746  18.118  33.877   0.856
56333W        W28747  40.450  22.747  12.042
56334W        W28748   3.356  35.910  11.969
56335W        W28749   1.888   8.257  11.077
56336W        W28750  29.165  10.344   4.276
56337W        W28751   8.364   3.775  13.444
56338W        W28752  25.993  25.990   1.312
56339W        W28753  11.704  38.931  12.042
56340W        W28754  44.495  16.715   9.924
56341W        W28755  28.620   7.199  12.393
56342W        W28756  27.584  43.457  14.980
56343W        W28757  14.319  40.485   4.662
56344W        W28758  19.072   5.329  13.529
56345W        W28759  27.142  29.999   3.315
56346W        W28760  30.064  41.920  11.396
56347W        W28761  35.365  20.580   5.251
56348W        W28762  18.745  17.292  11.466
56349W        W28763  32.962  40.497   1.239
56350W        W28764  14.164   2.870  14.861
56351W        W28765  29.460  30.435  10.154
56352W        W28766  19.742  12.227  13.022
56353W        W28767   4.774   2.236  14.511
56354W        W28768  21.152   6.832   1.846
56355W        W28769  24.668  13.715  10.614
56356W        W28770  15.694   4.874  11.978
56357W        W28771  17.091  18.107   4.633
56358W        W28772   0.862  31.988   0.285
56359W        W28773  31.469  34.503  11.922
56360W        W28774  13.208  15.087   3.713
56361W        W28775   3.402  37.556   4.618
56362W        W28776  44.278  30.618   1.877
56363W        W28777   0.945  18.215  12.964
56364W        W28778  28.653  25.487  12.430
56365W        W28779  44.365  14.659   0.957
56366W        W28780   6.840  10.233  12.403
56367W        W28781   7.666  16.187  12.464
56368W        W28782  41.893   9.370  11.128
56369W        W28783  22.148  38.852   4.786
56370W        W28784  27.192  37.374   1.250
56371W        W28785  43.505  43.279  14.934
56372W        W28786  13.123  34.574   2.213
56373W        W28787   6.398  25.618   4.749
56374W        W28788   9.244  32.402  14.392
56375W        W28789  39.913  31.985   3.764
56376W        W28790  25.089  24.487   0.836
56377W        W28791   7.841  22.701   0.373
56378W        W28792  31.449  24.607   4.333
56379W        W28793  16.174  39.369   4.617
56380W        W28794   2.733  43.470  11.959
56381W        W28795   1.285  24.116   1.822
56382W        W28796   1.258   5.768  12.920
56383W        W28797  32.972  16.247  13.971
56384W        W28798  19.658  11.759   0.432
56385W        W28799  44.948   0.896  14.913
56386W        W28800  11.202  35.494  11.067
56387W        W28801  33.893  13.632   4.127
56388W        W28802  24.656  21.643   0.277
56389W        W28803  44.906  39.461  13.518
56390W        W28804  25.090  41.459   3.235
56391W        W28805  27.148  14.718   3.362
56392W        W28806  22.539  24.085  10.515
56393W        W28807  29.935  12.736  10.937
56394W        W28808  11.788  18.292  11.951
56395W        W28809  14.127  34.869  12.510
56396W        W28810  10.298  24.142   2.685
56397W        W28811  17.184  35.950   3.745
56398W        W28812  43.355   2.276  14.763
56399W        W28813  16.677  28.000  11.000
56400W        W28814  42.788  37.543  14.480
56401W        W28815   3.315  39.033  13.492
56402W        W28816  30.546  36.074   4.138
56403W        W28817  37.921  22.571  10.416
56404W        W28818  32.398   4.283  12.881
56405W        W28819   6.185  32.536   0.929
56406W        W28820   8.856  33.488   3.863
56407W        W28821  35.551   9.346   0.832
56408W        W28822  10.367  18.106   1.904
56409W        W28823   1.287   5.913   3.738
56410W        W28824  19.151  17.071   4.762
56411W        W28825  35.967  13.284  10.578
56412W        W28826  22.677  11.640  12.450
56413W        W28827  19.151  21.196  11.426
56414W        W28828  26.503  10.232  11.536
56415W        W28829  40.829  32.450  14.420
56416W        W28830  17.199  34.447  13.958
56417W        W28831   8.383  36.047  10.504
56418W        W28832  44.333  36.902   3.820
56419W        W28833  27.502  21.580   1.744
56420W        W28834  23.049  12.730  12.478
56421W        W28835  41.297  43.866   0.356
56422W        W28836  13.332  24.192   4.223
56423W        W28837   7.205  27.113   2.787
56424W        W28838  36.961  30.532  11.956
56425W        W28839  40.433   4.265  14.440
56426W        W28840  40.535  36.410   0.246
56427W        W28841  24.227  22.030   2.316
56428W        W28842  22.234  13.242   1.434
56429W        W28843  25.601   6.842   4.188
56430W        W28844  27.629  42.015   4.811
56431W        W28845  35.494  30.448  12.871
56432W        W28846   5.724  18.712  12.428
56433W        W28847  21.583  35.412  12.399
56434W        W28848  44.927  17.596  12.578
56435W        W28849  30.931  41.951   3.652
56436W        W28850  34.537  21.525  12.469
56437W        W28851  14.181  35.905  11.933
56438W        W28852  14.714   9.269  14.380
56439W        W28853  40.488  34.010  13.987
56440W        W28854  24.011  14.198  10.922
56441W        W28855   6.427  10.183   0.959
56442W        W28856   4.929  37.864  10.520
56443W        W28857  39.418  24.488  11.961
56444W        W28858  28.499  15.226   2.294
56445W        W28859   3.882  29.042   0.858
56446W        W28860  21.587   3.440  13.030
56447W        W28861   6.418  38.329   3.722
56448W        W28862   6.877  16.182   4.168
56449W        W28863   5.306  31.917   1.269
56450W        W28864  41.417   3.314  13.484
56451W        W28865   4.413  26.088  11.462
56452W        W28866  44.876  18.208  11.456
56453W        W28867  44.829  36.983   4.760
56454W        W28868   0.944  23.613  12.535
56455W        W28869   0.837   9.297  11.531
56456W        W28870  19.643   7.827  14.860
56457W        W28871  21.602  35.088  14.878
56458W        W28872  16.640  41.991   3.260
56459W        W28873  34.994  42.282   0.792
56460W        W28874   7.766  38.876  13.341
56461W        W28875   4.780  40.328  14.960
56462W        W28876   7.877  21.564  11.955
56463W        W28877  39.499  23.990   4.225
56464W        W28878  40.387  13.747   2.856
56465W        W28879   6.285  25.642   2.837
56466W        W28880  44.358  28.677   2.380
56467W        W28881   5.725  39.065  11.044
56468W        W28882  28.541  37.840  10.908
56469W        W28883  39.037  10.755   1.376
56470W        W28884  38.503  24.216  13.417
56471W        W28885  31.527  40.838  10.408
56472W        W28886  37.976  29.155   4.813
56473W        W28887  22.725  16.592   2.372
56474W        W28888  35.385  22.118   4.138
56475W        W28889  24.035  11.681   2.661
56476W        W28890  23.125  10.653   2.187
56477W        W28891  35.002  26.132   3.692
56478W        W28892  21.597   9.368  12.411
56479W        W28893   0.354  38.521  11.116
56480W        W28894   4.935   9.755   1.741
56481W        W28895  25.114  14.226   3.197
56482W        W28896  12.293  17.802   2.728
56483W        W28897  34.936   5.354   0.403
56484W        W28898  35.494  38.859  11.914
56485W        W28899  10.766  23.226   0.747
56486W        W28900  17.068  12.835   4.773
56487W        W28901  25.594   8.891  14.842
56488W        W28902  10.231  25.143   0.800
56489W        W28903   2.281  32.131   3.850
56490W        W28904  24.223  41.897  11.891
56491W        W28905  36.028  39.358   4.154
56492W        W28906  33.511  23.217  10.442
56493W        W28907   0.448  23.555  13.791
56494W        W28908  42.848  11.631   3.151
56495W        W28909  22.077  25.477   3.346
56496W        W28910  10.266   3.718   5.284
56497W        W28911  25.134  34.078  12.515
56498W        W28912  18.263  35.399  11.380
56499W        W28913  30.088  43.776   4.810
56500W        W28914   5.227  40.382  10.943
56501W        W28915  35.986  24.621   2.742
56502W        W28916  38.558  34.391   2.323
56503W        W28917  30.602  23.489   3.348
56504W        W28918  23.602   0.761  13.312
56505W        W28919  14.651   6.904   1.227
56506W        W28920  39.479  40.809   1.278
56507W        W28921   3.868  14.786  12.826
56508W        W28922  34.972  16.136  10.624
56509W        W28923  38.025  17.747  12.339
56510W        W28924  29.641  40.483  14.010
56511W        W28925  11.705  20.690  13.025
56512W        W28926  13.825  39.387   0.253
56513W        W28927   4.870  24.597   2.871
56514W        W28928  23.508  44.894  11.951
56515W        W28929   3.416  25.149   2.219
56516W        W28930   0.440  32.483   1.883
56517W        W28931   2.859  35.971  11.113
56518W        W28932  17.685  17.091  11.105
56519W        W28933  35.387  10.756   2.833
56520W        W28934  36.530  21.699   5.262
56521W        W28935  31.559  27.583  13.390
56522W        W28936  14.312   6.331   0.256
56523W        W28937   6.363  41.332   1.442
56524W        W28938  31.505  29.511  10.547
56525W        W28939  30.943  29.940  10.472
56526W        W28940  23.525  28.951  12.456
56527W        W28941  11.697   0.419  10.100
56528W        W28942   9.656   1.337   3.633
56529W        W28943  11.818  21.017  13.439
56530W        W28944  13.256  11.689   0.320
56531W        W28945  29.451   1.293   4.208
56532W        W28946  28.116   1.955  14.983
56533W        W28947   4.934  14.824   5.689
56534W        W28948   8.809  41.813   1.430
56535W        W28949  42.406  25.182   4.736
56536W        W28950   4.372  42.368   3.251
56537W        W28951  38.542  18.678  12.026
56538W        W28952  35.410  42.344   0.332
56539W        W28953  15.720   5.803  10.954
56540W        W28954   3.455  12.203   2.366
56541W        W28955  38.004   9.841   0.778
56542W        W28956  44.874  12.153  14.831
56543W        W28957  25.067   1.411   3.191
56544W        W28958  44.350   4.240   0.831
56545W        W28959  27.620   5.892  14.023
56546W        W28960  18.262  24.652  11.561
56547W        W28961   5.384   8.379  13.948
56548W        W28962  18.220  36.088   1.868
56549W        W28963   5.816  19.047  14.990
56550W        W28964  36.979  31.999   3.309
56551W        W28965  42.915  20.591   1.804
56552W        W28966  33.078  32.519   3.642
56553W        W28967  34.525  13.220   4.604
56554W        W28968  14.622  33.397   1.840
56555W        W28969  22.598   4.795  13.975
56556W        W28970  16.777  29.424   1.227
56557W        W28971   9.688   6.270   0.455
56558W        W28972   9.255   7.694  11.599
56559W        W28973  10.261  19.716   1.218
56560W        W28974  25.988  39.555   0.293
56561W        W28975  15.788  29.143  10.455
56562W        W28976  36.442   6.410   2.286
56563W        W28977   4.886  35.536   3.281
56564W        W28978  19.743   5.247  12.557
56565W        W28979   0.329  42.512  12.074
56566W        W28980  24.681  17.162  12.866
56567W        W28981   1.389   8.203   0.773
56568W        W28982  34.615  43.276  11.425
56569W        W28983  44.432  40.942   2.349
56570W        W28984  37.977   5.736  14.281
56571W        W28985   8.768   8.380   2.375
56572W        W28986  17.594  39.834  11.478
56573W        W28987  40.040   1.863  13.366
56574W        W28988  12.190  38.506  13.902
56575W        W28989  17.581  11.159   0.346
56576W        W28990  29.981  18.282  10.462
56577W        W28991  31.053   1.371   1.354
56578W        W28992  31.414  33.130  11.463
56579W        W28993  11.666   1.974  13.441
56580W        W28994  33.119  37.349   4.792
56581W        W28995  16.771  14.096   4.770
56582W        W28996  38.328  30.458  11.391
56583W        W28997  30.637  40.495  13.345
56584W        W28998   3.286  36.354   2.407
56585W        W28999  11.643  32.039  11.950
56586W        W29000   9.344  27.952   1.303
56587W        W29001  32.631  43.000   2.318
56588W        W29002   2.320  13.202  12.878
56589W        W29003  40.919  38.942   2.831
56590W        W29004  32.483  20.658   2.856
56591W        W29005  43.917   4.721   0.774
56592W        W29006  37.000   0.453  11.976
56593W        W29007  13.786  34.869  11.439
56594W        W29008  16.591  30.494  14.933
56595W        W29009  40.892  42.937   1.895
56596W        W29010   3.770  28.984   2.290
56597W        W29011   3.746   2.948   0.773
56598W        W29012  28.664  34.523   2.370
56599W        W29013   0.485  10.351   0.733
56600W        W29014  16.588   5.927   2.413
56601W        W29015   1.299  30.657   1.218
56602W        W29016  34.047  28.592  13.849
56603W        W29017   5.226  20.570   2.759
56604W        W29018  26.457  43.359   1.242
56605W        W29019   2.956   9.205   0.304
56606W        W29020  33.021  21.579   1.235
56607W        W29021  24.194   2.836   1.407
56608W        W29022   1.913   9.167   1.885
56609W        W29023  19.608  38.073   4.692
56610W        W29024  16.175  29.076  14.971
56611W        W29025  32.917  29.083   2.843
56612W        W29026  44.336  20.106  10.938
56613W        W29027  14.704  14.627  14.776
56614W        W29028  14.171  12.241  12.883
56615W        W29029  34.522  36.570   3.166
56616W        W29030  31.979  22.576   0.477
56617W        W29031  18.661  11.294   2.336
56618W        W29032  16.232  18.730  12.561
56619W        W29033  18.278  39.465  10.926
56620W        W29034  10.652  35.984   2.225
56621W        W29035  21.714   4.367  11.869
56622W        W29036  37.948  19.760   3.271
56623W        W29037  40.877  11.338  10.461
56624W        W29038  15.114   3.433  12.018
56625W        W29039  12.806  12.246   0.316
56626W        W29040   3.838  10.227   4.297
56627W        W29041  36.522  42.491   0.418
56628W        W29042   9.304  32.055  12.897
56629W        W29043  27.965  37.904   4.233
56630W        W29044   7.901  10.830   2.830
56631W        W29045  44.920   6.275   1.813
56632W        W29046  31.493  12.142  13.990
56633W        W29047  27.517  33.476   4.722
56634W        W29048  41.017  29.158   2.873
56635W        W29049  21.173  30.951  12.487
56636W        W29050  38.526  22.112   3.245
56637W        W29051  15.154  42.331  11.113
56638W        W29052  27.601  13.166   4.241
56639W        W29053  30.635   5.277   1.709
56640W        W29054   9.390  24.613  13.957
56641W        W29055  12.307   9.759   3.867
56642W        W29056   1.803  13.811   3.204
56643W        W29057  38.942  33.480  12.398
56644W        W29058  24.710  30.606   4.640
56645W        W29059  22.531  21.088   4.826
56646W        W29060  12.261   1.455   0.425
56647W        W29061  10.307   7.263  12.861
56648W        W29062  19.141  15.804   0.483
56649W        W29063  15.146  18.738   2.180
56650W        W29064   3.460  40.806   0.805
56651W        W29065  36.938   7.318   4.222
56652W        W29066  10.649  35.046  10.632
56653W        W29067  19.059  44.975   0.835
56654W        W29068  29.454  27.617   2.188
56655W        W29069  10.167   3.860  14.314
56656W        W29070  42.338   0.947   1.821
56657W        W29071   5.841  35.544  13.509
56658W        W29072  10.331   0.435   1.330
56659W        W29073  23.724   1.466   2.757
56660W        W29074  24.625  32.996  14.294
56661W        W29075  19.655  41.321   3.290
56662W        W29076  30.122  42.418  14.515
56663W        W29077  38.909  18.287  11.991
56664W        W29078  27.674  14.605  11.907
56665W        W29079  15.780  20.218  10.483
56666W        W29080  37.504  32.011   0.875
56667W        W29081  37.492  23.034  10.405
56668W        W29082  29.644  21.149   2.685
56669W        W29083  26.994  35.560   0.431
56670W        W29084  13.313  18.082  12.393
56671W        W29085  36.072  17.115   0.898
56672W        W29086  38.064   5.420  10.443
56673W        W29087   1.304   8.680   0.914
56674W        W29088  29.130  22.520   4.802
56675W        W29089  22.163  10.142   1.902
56676W        W29090   9.381  24.203   4.319
56677W        W29091  16.202  23.549  13.525
56678W        W29092   4.431   1.418   2.726
56679W        W29093  44.955   1.448   0.809
56680W        W29094   7.891  12.284  14.983
56681W        W29095  40.054  13.250   2.179
56682W        W29096  26.493   2.845   0.965
56683W        W29097  41.903  37.962  13.886
56684W        W29098  18.237   7.806   4.746
56685W        W29099  30.588  14.097  10.068
56686W        W29100  44.961   3.306   3.321
56687W        W29101  43.345   1.382  10.998
56688W        W29102   8.671   2.439  13.861
56689W        W29103  26.656  11.724   0.414
56690W        W29104  16.803  24.151   3.674
56691W        W29105  17.194   6.389   3.715
56692W        W29106  40.945  20.713   0.415
56693W        W29107  34.940  44.276  14.968
56694W        W29108  17.153   0.931  14.451
56695W        W29109   7.407  11.211  13.795
56696W        W29110  40.445   2.291  11.867
56697W        W29111  22.075  16.696  11.075
56698W        W29112  12.644  20.239   4.793
56699W        W29113  18.108  26.513   3.158
56700W        W29114  40.445  28.134  10.512
56701W        W29115  44.008  18.638  11.557
56702W        W29116  37.055  36.029  12.875
56703W        W29117  32.578   7.775   2.323
56704W        W29118  39.964  13.635  12.860
56705W        W29119  21.212  22.539   0.890
56706W        W29120  17.206  39.987   0.787
56707W        W29121  26.022   9.220   4.803
56708W        W29122  41.332  43.375  10.612
56709W        W29123  13.634  34.897  10.938
56710W        W29124  14.320  18.583  13.030
56711W        W29125  20.708  21.674  13.538
56712W        W29126   1.475  41.413   0.844
56713W        W29127  36.043  42.892  10.537
56714W        W29128  41.846  10.685  12.519
56715W        W29129   0.275   5.312  11.477
56716W        W29130  10.850  30.493  13.310
56717W        W29131  25.692  32.008   2.799
56718W        W29132  36.557  40.982  12.513
56719W        W29133  22.614  23.585   1.881
56720W        W29134  22.510  30.494   4.264
56721W        W29135  18.245   2.826   4.771
56722W        W29136  18.123   8.851  10.922
56723W        W29137  40.534   6.826   4.761
56724W        W29138  28.514  23.998   2.185
56725W        W29139  32.937   1.395  12.413
56726W        W29140  37.857  15.822   4.613
56727W        W29141  14.639  21.689  13.382
56728W        W29142   5.688  26.678   5.085
56729W        W29143  34.487   1.274   1.314
56730W        W29144   4.752   6.310   3.259
56731W        W29145  11.709   7.229   0.934
56732W        W29146   2.345   2.295  11.041
56733W        W29147  24.011   0.319  10.507
56734W        W29148  34.521   0.820  12.091
56735W        W29149   5.348  16.179   4.751
56736W        W29150   0.342   9.671  14.501
56737W        W29151  27.495  42.431  12.476
56738W        W29152  22.741  44.481  11.986
56739W        W29153  41.786  37.048  11.503
56740W        W29154  31.426   8.206   1.852
56741W        W29155  10.165  36.931   3.250
56742W        W29156  25.136   3.911  10.530
56743W        W29157   3.790  32.035   2.230
56744W        W29158  14.620  20.226   0.253
56745W        W29159  17.643  14.099   1.343
56746W        W29160  15.810  39.339   0.962
56747W        W29161  31.941  25.091  11.522
56748W        W29162  39.039  16.277   1.880
56749W        W29163   6.696  15.279  11.478
56750W        W29164  17.644  19.158  13.859
56751W        W29165  39.547  30.997  13.507
56752W        W29166  37.516   3.361   0.460
56753W        W29167  32.628  36.486  12.860
56754W        W29168  18.077  24.098   4.125
56755W        W29169  43.275  33.887   4.624
56756W        W29170   4.734  36.392  13.891
56757W        W29171  20.626  19.537   1.933
56758W        W29172   7.299  16.660  13.951
56759W        W29173   0.450   0.910   4.251
56760W        W29174  31.044  11.833  13.013
56761W        W29175  22.715  25.701   4.807
56762W        W29176  16.740   0.399   3.758
56763W        W29177  25.709  40.491  12.953
56764W        W29178  38.374  40.542   0.886
56765W        W29179  42.488   2.794   3.368
56766W        W29180  37.503  10.762   1.271
56767W        W29181  12.229  22.214  11.522
56768W        W29182  44.413  15.693  13.864
56769W        W29183   4.231  42.356   1.737
56770W        W29184  29.655   9.712   1.268
56771W        W29185  12.716  13.795  14.406
56772W        W29186  41.435  40.311  14.842
56773W        W29187  15.184  31.577   3.713
56774W        W29188   7.338  40.422   0.959
56775W        W29189   2.386  29.468   1.694
56776W        W29190   7.173  37.397  12.044
56777W        W29191   9.378  27.471   4.331
56778W        W29192  23.614   6.838  12.391
56779W        W29193  27.518  14.164   4.733
56780W        W29194   3.261  36.044  13.811
56781W        W29195  22.055  20.177  12.476
56782W        W29196  32.548  22.188   1.725
56783W        W29197  40.882  20.254  11.602
56784W        W29198  24.184  37.459   3.687
56785W        W29199  30.986  34.597  10.551
56786W        W29200  27.554  34.461   3.267
56787W        W29201   9.654  29.094   1.368
56788W        W29202   9.302   3.922  11.441
56789W        W29203  44.975  23.067  10.515
56790W        W29204   3.421  13.775   1.371
56791W        W29205  21.132  24.141  11.418
56792W        W29206  42.936  27.453  14.983
56793W        W29207  24.098  12.211  14.892
56794W        W29208  42.455  42.874  13.544
56795W        W29209  10.277  41.305   0.767
56796W        W29210   3.436  27.447   0.416
56797W        W29211  27.068  41.034   2.857
56798W        W29212   8.836  40.492  12.550
56799W        W29213  13.219  19.225   0.470
56800W        W29214   2.829   7.692   4.267
56801W        W29215  35.444   0.839   2.313
56802W        W29216   5.225  26.084   1.830
56803W        W29217  16.268  15.307   4.159
56804W        W29218   5.911  27.558  10.935
56805W        W29219  19.573  33.116   2.667
56806W        W29220  22.592  39.546  13.505
56807W        W29221  17.261  30.953   0.399
56808W        W29222  22.195  41.297  12.475
56809W        W29223  19.666  42.956   1.756
56810W        W29224   9.791  41.984   4.827
56811W        W29225  43.915  17.131  14.453
56812W        W29226   1.933  22.659   3.146
56813W        W29227   4.359  25.507   5.673
56814W        W29228  39.411   7.331   3.387
56815W        W29229  20.678   8.197  14.360
56816W        W29230  30.100  20.046   0.808
56817W        W29231  32.020  19.747  12.526
56818W        W29232  40.376  41.353  13.486
56819W        W29233  13.836  10.734   2.897
56820W        W29234  19.709  22.517   4.180
56821W        W29235   0.484  36.095  12.432
56822W        W29236  41.887  14.612  13.375
56823W        W29237   0.896   7.364   0.914
56824W        W29238  14.285  11.168  11.487
56825W        W29239  32.063  24.097   1.699
56826W        W29240  14.123  37.485  13.036
56827W        W29241  44.440   7.839  13.808
56828W        W29242  39.040  24.170   1.790
56829W        W29243   9.659  34.083  12.542
56830W        W29244   6.708   6.377   1.932
56831W        W29245  26.699  13.605   1.229
56832W        W29246  30.000  16.671   3.654
56833W        W29247   1.941  12.816   2.758
56834W        W29248  28.108   2.253   3.300
56835W        W29249  39.365  19.203  11.400
56836W        W29250  17.209  27.634   2.256
56837W        W29251  37.539  16.210   3.629
56838W        W29252  40.402  44.335  14.013
56839W        W29253  34.593  34.605  10.625
56840W        W29254  33.040  36.998  12.039
56841W        W29255  17.171  15.757  11.083
56842W        W29256   7.324  29.586   2.375
56843W        W29257  16.576  26.152  14.453
56844W        W29258  25.185  39.541   1.876
56845W        W29259  21.155  18.767  14.838
56846W        W29260  28.627  12.663  11.443
56847W        W29261  11.680  44.984   2.680
56848W        W29262   1.475  25.071   4.654
56849W        W29263  36.550  37.875  11.106
56850W        W29264  23.698  40.327  13.466
56851W        W29265  38.838  42.372   3.757
56852W        W29266  20.764  38.412   0.317
56853W        W29267  34.964   6.682  14.794
56854W        W29268   6.835  43.897  11.975
56855W        W29269  20.543   7.751  14.813
56856W        W29270   0.745  19.705  12.065
56857W        W29271   8.403   3.749  11.511
56858W        W29272  26.496  20.632  12.473
56859W        W29273  16.210  42.322   3.799
56860W        W29274  35.528  29.493  11.030
56861W        W29275   1.872  15.324   1.849
56862W        W29276   2.749  14.631  13.842
56863W        W29277  10.214  19.681  13.316
56864W        W29278  17.753   2.332   4.758
56865W        W29279  44.498  36.034  12.077
56866W        W29280  37.560   5.880   2.401
56867W        W29281   4.764   4.843   1.261
56868W        W29282  28.133  15.308   3.789
56869W        W29283  18.167  41.424   0.790
56870W        W29284  37.489  23.159   2.324
56871W        W29285  11.622   5.845  11.463
56872W        W29286  37.934  34.910   4.788
56873W        W29287  15.580  28.543  10.965
56874W        W29288  20.158  15.151  13.061
56875W        W29289  12.743  42.834  12.982
56876W        W29290   0.906  41.535  14.830
56877W        W29291  21.263   6.334   4.311
56878W        W29292  43.493   0.777  12.882
56879W        W29293  44.900  38.472   3.172
56880W        W29294  33.095  44.994   3.325
56881W        W29295   5.404  36.479   1.397
56882W        W29296   1.835  36.527  13.509
56883W        W29297   3.434  12.669  12.042
56884W        W29298  29.583  10.840   1.344
56885W        W29299  44.296  42.292  10.915
56886W        W29300  44.363  35.907  10.609
56887W        W29301  26.955  42.434  11.441
56888W        W29302   8.733   9.806   4.202
56889W        W29303  34.086  42.508   2.180
56890W        W29304  37.544   5.886  14.326
56891W        W29305   0.849  28.173  14.927
56892W        W29306  25.480  19.239   1.276
56893W        W29307  10.281   3.285   4.282
56894W        W29308   1.470  17.568  13.361
56895W        W29309  20.666  11.738  12.531
56896W        W29310  14.217   7.260   0.373
56897W        W29311  23.073  30.465   2.183
56898W        W29312  41.893  29.953   4.231
56899W        W29313  40.831   4.242   3.374
56900W        W29314  38.865  19.729  12.940
56901W        W29315  19.595  14.324   1.708
56902W        W29316   1.480  37.352  14.433
56903W        W29317  26.531  35.510   3.642
56904W        W29318  44.428  32.409   0.440
56905W        W29319  38.889  12.194   1.306
56906W        W29320   6.346  34.875   3.656
56907W        W29321   5.330  29.983   4.286
56908W        W29322  41.444   8.798   3.309
56909W        W29323  10.195  27.590   0.433
56910W        W29324  15.767  28.165   3.198
56911W        W29325  10.667  13.257  12.382
56912W        W29326   6.220   3.848   0.957
56913W        W29327  43.820  35.409  14.477
56914W        W29328  37.076  22.108  13.521
56915W        W29329  27.566  39.498  13.424
56916W        W29330  31.568  12.740  12.067
56917W        W29331  11.155  44.778   2.357
56918W        W29332  41.315  30.063   1.282
56919W        W29333  33.489  21.696  14.984
56920W        W29334  34.469  15.603  10.594
56921W        W29335  16.245  32.911   1.312
56922W        W29336  25.568  32.485   0.931
56923W        W29337  22.560  10.305  14.949
56924W        W29338  28.988  11.275  10.428
56925W        W29339  26.961  31.090   3.667
56926W        W29340  17.725  44.409  13.791
56927W        W29341  23.206  25.575  13.824
56928W        W29342  10.698  25.150  12.893
56929W        W29343  20.252  42.783  10.128
56930W        W29344  37.351  26.696   1.406
56931W        W29345  42.790   4.701  10.988
56932W        W29346  38.886  26.974  14.289
56933W        W29347  17.139   8.763   4.765
56934W        W29348  25.599  41.489   4.162
56935W        W29349  32.030  15.158  10.537
56936W        W29350  31.563  25.966   1.854
56937W        W29351  16.276   9.163  11.079
56938W        W29352   3.784   8.237   1.409
56939W        W29353  14.110  44.990  13.988
56940W        W29354  20.754  33.123   2.236
56941W        W29355  17.761   2.802   2.222
56942W        W29356  42.968  27.018  11.387
56943W        W29357  43.764  31.083   0.803
56944W        W29358   3.914  36.452   1.766
56945W        W29359  20.670   6.784  12.436
56946W        W29360  42.356   2.795  13.903
56947W        W29361  23.615  41.295   2.701
56948W        W29362  17.191  35.860   1.731
56949W        W29363  40.883  33.122  14.790
56950W        W29364  31.588  37.061   4.139
56951W        W29365  10.146  10.206   0.474
56952W        W29366  35.442  40.831  14.892
56953W        W29367   2.878  37.941   4.706
56954W        W29368  14.700   4.807   0.425
56955W        W29369  31.416  39.336   4.175
56956W        W29370  35.521  25.494  14.016
56957W        W29371  25.518  25.694   2.823
56958W        W29372  18.642  16.613   3.845
56959W        W29373  37.883   2.839   3.280
56960W        W29374   6.265  11.625  12.550
56961W        W29375  21.752   4.872  12.037
56962W        W29376  33.012  19.587  10.642
56963W        W29377  43.364  37.886  13.495
56964W        W29378  13.765  27.615  14.828
56965W        W29379  40.844   1.751   1.430
56966W        W29380  16.741   7.346  14.986
56967W        W29381  37.554  21.193   1.825
56968W        W29382  39.355  33.999  12.946
56969W        W29383   4.844   9.835  10.525
56970W        W29384  36.556   4.930   2.409
56971W        W29385  11.711  36.864  14.516
56972W        W29386  39.051   2.227   3.253
56973W        W29387  23.011  40.834   1.413
56974W        W29388  28.062  36.098  14.762
56975W        W29389  17.659  10.283  12.888
56976W        W29390  42.877  13.845   2.785
56977W        W29391  34.402   4.399   1.722
56978W        W29392  24.506   5.244   3.664
56979W        W29393  24.612  42.364  11.913
56980W        W29394  19.660   0.778  10.004
56981W        W29395  35.901  24.684   3.149
56982W        W29396  13.332  26.536   3.718
56983W        W29397  40.538   6.242   3.192
56984W        W29398  43.455  40.026  11.569
56985W        W29399  20.530  37.466   1.847
56986W        W29400  13.759  18.213   1.720
56987W        W29401   5.398  14.115   3.846
56988W        W29402   0.757   8.316   3.326
56989W        W29403  22.110  44.380  11.405
56990W        W29404  28.482   8.169  14.916
56991W        W29405  27.592   6.849  11.460
56992W        W29406  43.974  44.275  14.392
56993W        W29407  24.046  25.620   4.707
56994W        W29408  43.020   7.830  11.972
56995W        W29409  10.368  13.621   0.433
56996W        W29410  39.553  13.666   4.274
56997W        W29411   3.380  21.606   3.199
56998W        W29412  38.565  27.657   4.757
56999W        W29413  42.526  40.958  11.982
57000W        W29414   9.685  11.685  10.894
57001W        W29415  29.632  25.135  12.980
57002W        W29416  19.662  17.265  13.921
57003W        W29417  26.687  24.031   2.692
57004W        W29418  14.182  38.532   0.811
57005W        W29419  15.115  18.682   2.857
57006W        W29420   3.880  36.952   4.180
57007W        W29421  29.492  12.755  14.495
57008W        W29422  39.386  25.556   3.791
57009W        W29423   7.304  17.232  12.452
57010W        W29424  26.631  43.469   5.303
57011W        W29425  37.046   4.922   1.331
57012W        W29426   9.666  13.840  12.340
57013W        W29427  31.569  30.983   0.817
57014W        W29428  15.608  44.364   1.417
57015W        W29429  11.178   9.255   3.193
57016W        W29430  18.643  13.823   3.347
57017W        W29431  41.296  25.678  14.854
57018W        W29432  13.733  42.953  14.490
57019W        W29433   2.438  40.960   2.245
57020W        W29434  21.122   1.415   1.819
57021W        W29435  41.817  18.263   1.324
57022W        W29436  28.013  38.526   2.280
57023W        W29437  29.090  40.400  11.088
57024W        W29438  29.663  43.856   3.228
57025W        W29439  43.766  11.282   4.803
57026W        W29440  11.712  19.230   0.738
57027W        W29441  14.681  31.973  13.323
57028W        W29442   1.763  20.664   0.843
57029W        W29443  30.106  36.492   0.791
57030W        W29444  13.637  32.575  10.413
57031W        W29445  19.538  15.288   3.863
57032W        W29446  37.933  39.934  14.344
57033W        W29447  13.114  17.794   9.674
57034W        W29448  28.457  15.216  14.288
57035W        W29449  44.422  43.355  14.987
57036W        W29450  44.993   8.357  14.371
57037W        W29451  33.454  14.313   2.816
57038W        W29452   4.753  14.791  11.583
57039W        W29453   9.664  27.585   4.816
57040W        W29454  32.929  34.079   4.611
57041W        W29455  43.964  36.928   4.271
57042W        W29456  31.498  38.451  13.058
57043W        W29457  33.070  19.604  13.043
57044W        W29458  41.441  43.959   0.913
57045W        W29459   3.419   3.341   3.815
57046W        W29460   5.877  41.438  11.600
57047W        W29461  28.045   8.340   1.909
57048W        W29462  20.176  29.091   3.715
57049W        W29463  16.638   5.733  10.982
57050W        W29464  19.700  15.090   1.758
57051W        W29465  24.223  26.591  12.859
57052W        W29466  23.656  19.663  13.919
57053W        W29467  18.574  41.466  10.995
57054W        W29468  16.644  30.995  13.026
57055W        W29469  15.759   5.341   2.693
57056W        W29470  20.167  17.149  12.961
57057W        W29471  19.181  13.744   0.386
57058W        W29472   4.863  30.127  10.105
57059W        W29473  26.472   7.694  13.443
57060W        W29474  40.919  25.671  12.449
57061W        W29475  18.188  10.691   0.738
57062W        W29476  17.582  30.597   4.782
57063W        W29477  25.984  10.147  11.427
57064W        W29478  27.661  43.815   0.322
57065W        W29479  37.380  23.617   3.696
57066W        W29480  13.288  20.203  13.464
57067W        W29481   4.831   2.947  10.907
57068W        W29482  21.578  39.335  10.626
57069W        W29483  28.531  38.396   1.215
57070W        W29484   7.710  28.509   0.919
57071W        W29485  19.705  42.009   4.211
57072W        W29486  13.209  43.809  11.609
57073W        W29487  24.719  43.501  13.469
57074W        W29488  30.634  17.580  11.593
57075W        W29489   8.863   6.822   1.774
57076W        W29490  23.030  25.561  10.620
57077W        W29491  36.893   5.402  13.834
57078W        W29492   5.733  23.157  10.620
57079W        W29493  36.471  17.293  14.299
57080W        W29494  35.865  32.140   3.728
57081W        W29495  39.049   4.388  13.035
57082W        W29496  38.967  14.775  13.379
57083W        W29497  25.557  16.131   5.686
57084W        W29498   8.246  33.928  13.957
57085W        W29499  21.685  21.193   4.280
57086W        W29500  26.135  11.774   2.296
57087W        W29501  42.990  33.474   0.756
57088W        W29502  37.927  24.580  13.414
57089W        W29503  19.539  26.481   2.819
57090W        W29504  20.532   3.231   2.351
57091W        W29505  33.007  37.028   3.296
57092W        W29506   8.251  32.042  11.429
57093W        W29507   7.670  13.264  14.452
57094W        W29508  41.880  15.101  10.908
57095W        W29509   5.352  27.590   9.950
57096W        W29510  15.722  28.070  10.608
57097W        W29511  36.908  36.478  10.975
57098W        W29512  42.436  35.035  14.943
57099W        W29513  30.917   8.214  14.837
57100W        W29514   6.756  20.080   3.264
57101W        W29515  26.462  38.499  14.455
57102W        W29516   6.213   3.372   0.945
57103W        W29517  39.908  18.168  11.530
57104W        W29518  28.527  17.181   3.228
57105W        W29519  36.491  23.023  11.990
57106W        W29520  14.181   5.228   0.382
57107W        W29521  42.871  18.547   4.238
57108W        W29522   3.366  17.567  11.034
57109W        W29523  35.558  29.634  13.938
57110W        W29524  30.513  10.261  13.402
57111W        W29525  17.243  16.709  11.021
57112W        W29526  36.865   1.888   1.739
57113W        W29527  39.941   9.243   0.453
57114W        W29528  12.736  13.739  13.324
57115W        W29529  39.538  32.618   1.347
57116W        W29530  29.662   7.312  11.090
57117W        W29531   8.705   9.387   4.191
57118W        W29532  42.350   1.299   4.650
57119W        W29533  37.443   4.901   2.839
57120W        W29534  15.203   3.753   1.304
57121W        W29535  15.584  10.867  12.489
57122W        W29536   9.381  38.528  14.804
57123W        W29537   6.397   9.755  14.435
57124W        W29538   0.886  39.459  14.503
57125W        W29539  22.120  37.390   0.896
57126W        W29540   1.352   7.742  11.592
57127W        W29541  40.478  11.677   4.126
57128W        W29542  26.536  26.564  14.355
57129W        W29543  35.502  23.509  12.867
57130W        W29544  40.352   2.774   1.696
57131W        W29545  11.280  10.252   2.191
57132W        W29546  42.781  12.334  11.551
57133W        W29547  42.489  15.787  10.583
57134W        W29548  28.641  30.995   2.185
57135W        W29549  11.152   5.822  11.381
57136W        W29550   5.373  34.035  13.546
57137W        W29551  25.610  41.454   2.769
57138W        W29552  20.052   7.171   3.195
57139W        W29553  12.709   2.779   1.292
57140W        W29554  38.902   6.833  10.899
57141W        W29555  26.033  35.378  12.418
57142W        W29556  31.632   9.221  10.917
57143W        W29557  16.167   3.335   4.727
57144W        W29558   0.256   2.925  14.900
57145W        W29559  30.950  13.831   2.719
57146W        W29560  44.830  23.653  13.916
57147W        W29561   0.424  34.487   4.308
57148W        W29562  28.477  18.192   1.750
57149W        W29563  20.243  16.085  10.599
57150W        W29564  29.077   5.838  11.486
57151W        W29565   7.204   2.930  11.984
57152W        W29566  20.119  26.496  12.042
57153W        W29567  32.920   7.384  12.419
57154W        W29568   6.260  35.955  12.912
57155W        W29569  15.264  29.581  12.441
57156W        W29570  26.995  26.481   1.799
57157W        W29571  36.549  38.877   2.715
57158W        W29572  29.062   2.354  12.397
57159W        W29573  26.961  41.526   3.230
57160W        W29574  12.833  34.051  11.113
57161W        W29575   9.313   5.912   2.277
57162W        W29576  22.584  25.034   4.289
57163W        W29577   8.867   0.979  13.007
57164W        W29578   2.260  17.275   1.784
57165W        W29579   1.462  32.010  11.934
57166W        W29580  27.194  31.969   4.804
57167W        W29581  29.027  36.410  11.110
57168W        W29582  43.393  19.691   0.731
57169W        W29583  11.764  10.376   3.245
57170W        W29584  32.114  21.648  11.388
57171W        W29585  30.930   1.853  13.333
57172W        W29586  17.103  40.315   5.110
57173W        W29587  36.365   7.270   5.303
57174W        W29588  15.775   7.886  12.987
57175W        W29589  15.697  15.691  12.824
57176W        W29590  13.274   8.404  13.984
57177W        W29591  11.208  39.357   3.714
57178W        W29592  36.449  23.700   3.657
57179W        W29593  32.987  17.709   1.697
57180W        W29594  22.202   6.428  11.871
57181W        W29595  25.198  35.098   5.271
57182W        W29596  34.447  10.219  10.460
57183W        W29597   5.204  26.037  14.434
57184W        W29598  32.135  23.507   3.194
57185W        W29599  37.977  17.702   4.206
57186W        W29600   1.452   2.729   4.659
57187W        W29601  36.566  35.602  12.389
57188W        W29602   7.287  27.526   2.315
57189W        W29603   0.924  24.483   4.213
57190W        W29604  26.207  33.017   0.359
57191W        W29605   6.823  36.493  10.409
57192W        W29606  21.605  38.489   4.610
57193W        W29607  19.088  41.967   3.187
57194W        W29608   4.377  39.444   2.806
57195W        W29609  40.441  37.432   4.149
57196W        W29610  33.445  29.952   0.942
57197W        W29611  40.864  18.683   2.685
57198W        W29612   1.415  29.049   3.844
57199W        W29613   1.894  12.233  14.931
57200W        W29614  23.612   7.843  12.943
57201W        W29615  40.840  16.676   3.680
57202W        W29616  25.964   7.295   4.260
57203W        W29617  22.046  19.189   1.778
57204W        W29618  34.521  36.382  13.361
57205W        W29619   1.327  36.869   4.245
57206W        W29620  39.332   9.391  10.976
57207W        W29621   1.356  17.665  11.115
57208W        W29622  11.241  36.046  11.432
57209W        W29623   4.768  16.638   2.376
57210W        W29624  33.412  33.900   0.851
57211W        W29625   7.908  37.447  14.759
57212W        W29626   6.690  10.349  10.545
57213W        W29627  36.923  18.268  14.812
57214W        W29628  23.169  17.645   5.220
57215W        W29629  18.071   9.164   0.347
57216W        W29630  40.530  30.648   1.707
57217W        W29631  21.684  27.467  14.512
57218W        W29632  27.975  20.132  10.477
57219W        W29633  11.211  32.411   2.794
57220W        W29634   7.250  27.017   3.726
57221W        W29635  28.108  41.936   1.285
57222W        W29636  20.763  15.621  14.444
57223W        W29637   2.795  13.694  11.900
57224W        W29638  19.144   2.946  12.368
57225W        W29639  42.950  16.679   3.376
57226W        W29640   7.892  26.072   2.274
57227W        W29641  36.942  37.958  10.523
57228W        W29642  41.520  30.920   3.709
57229W        W29643  36.892  44.006   4.135
57230W        W29644   4.396  43.377   1.739
57231W        W29645  31.428   3.768  12.437
57232W        W29646  35.924  37.496  12.960
57233W        W29647  26.125  41.359  10.898
57234W        W29648  36.534  19.743   0.459
57235W        W29649  37.565  32.426   4.776
57236W        W29650  19.087   2.396  11.036
57237W        W29651  33.918  18.235  14.951
57238W        W29652  27.668  43.505   1.330
57239W        W29653  33.990  30.648  13.453
57240W        W29654  19.067  13.336  11.608
57241W        W29655   0.889   1.313   2.190
57242W        W29656   1.861  16.784   3.342
57243W        W29657   1.974  21.534   0.323
57244W        W29658   2.241  10.248   0.454
57245W        W29659  19.075  13.161   4.810
57246W        W29660  29.429  29.955   3.321
57247W        W29661   9.731  36.572   3.833
57248W        W29662  13.608  24.122  13.030
57249W        W29663  15.692  39.811  11.111
57250W        W29664   3.400  38.045   0.958
57251W        W29665   5.707  36.967  13.914
57252W        W29666  18.763  39.474  12.059
57253W        W29667  28.133  30.506   4.334
57254W        W29668  11.849   6.264  11.538
57255W        W29669  15.317  10.202   0.449
57256W        W29670  29.560  31.581  14.477
57257W        W29671  35.079  35.505  12.496
57258W        W29672   0.373  10.323  13.479
57259W        W29673  35.860   6.887  12.346
57260W        W29674  20.704  42.450  13.446
57261W        W29675  39.909  19.573  13.913
57262W        W29676   0.256  12.625   3.706
57263W        W29677  27.566  41.508   4.812
57264W        W29678   0.419  14.284  14.888
57265W        W29679   8.304   4.769   3.852
57266W        W29680   9.726  29.602   0.797
57267W        W29681  16.301   3.845  11.942
57268W        W29682  33.586  38.529   3.277
57269W        W29683  15.759   4.799   3.822
57270W        W29684  40.531  29.920   3.341
57271W        W29685  20.101  37.996  10.570
57272W        W29686  28.560  20.117   2.708
57273W        W29687  44.334  24.082   0.439
57274W        W29688  39.020  25.127  14.832
57275W        W29689   5.204   2.353   4.760
57276W        W29690   4.902   3.856  12.068
57277W        W29691  16.747  38.036   1.235
57278W        W29692  14.593  28.021   1.349
57279W        W29693  34.119  17.152  10.988
57280W        W29694  42.920  26.592   4.820
57281W        W29695  33.613  44.346   0.893
57282W        W29696  42.820  27.461   1.932
57283W        W29697  25.544  44.762  10.601
57284W        W29698   4.204  30.006  12.456
57285W        W29699   6.284   8.254  12.025
57286W        W29700  42.811  43.297   0.263
57287W        W29701   8.299  44.503  11.469
57288W        W29702  26.552  19.205  13.956
57289W        W29703  29.082  27.049  14.323
57290W        W29704  11.741  42.781   5.187
57291W        W29705  26.515  24.660   0.438
57292W        W29706  19.752   3.810   2.890
57293W        W29707   5.727  28.491  14.960
57294W        W29708  44.419   2.408   4.795
57295W        W29709  28.004   6.919   1.929
57296W        W29710  19.076  33.965  12.978
57297W        W29711   4.326   5.832   0.924
57298W        W29712  43.787   0.946   2.358
57299W        W29713   0.436  10.701  10.487
57300W        W29714  43.402  16.192   4.335
57301W        W29715  31.113  29.542  14.947
57302W        W29716   6.690  35.066  12.022
57303W        W29717  30.040  12.165   1.924
57304W        W29718  33.561  19.124   4.181
57305W        W29719  22.593  16.776  11.986
57306W        W29720  13.740  21.532  11.606
57307W        W29721  35.405  20.194   1.355
57308W        W29722  30.067  21.100   4.640
57309W        W29723  16.630  27.528   4.624
57310W        W29724  12.817   6.290   3.676
57311W        W29725  14.600  27.641  10.411
57312W        W29726  23.697   1.907  13.504
57313W        W29727  41.930  31.556  12.014
57314W        W29728   7.889  43.465  13.392
57315W        W29729  32.904  12.116  11.610
57316W        W29730  43.022  42.887   0.411
57317W        W29731  20.569  22.056   4.205
57318W        W29732  41.839  26.555  11.601
57319W        W29733   8.657  44.391   2.393
57320W        W29734  40.490  33.385  10.529
57321W        W29735   1.249   4.378   2.226
57322W        W29736  24.571  16.799   1.273
57323W        W29737   0.488  35.892  14.962
57324W        W29738  29.514  39.388  12.357
57325W        W29739  31.086  36.064  10.966
57326W        W29740  28.489  16.083   4.239
57327W        W29741  22.546  44.781   2.880
57328W        W29742   7.325   8.861   2.872
57329W        W29743   5.402  42.878  10.932
57330W        W29744   5.729  32.538   1.755
57331W        W29745   0.832  21.672   2.696
57332W        W29746  43.371  20.267   0.921
57333W        W29747  39.042  22.153   1.922
57334W        W29748  34.386   3.870   1.396
57335W        W29749  21.696  12.681  11.110
57336W        W29750   3.393  21.212  11.122
57337W        W29751   2.463  12.304   3.386
57338W        W29752  24.653  16.207   0.761
57339W        W29753  16.741  37.385   3.173
57340W        W29754   4.230  14.671  14.763
57341W        W29755   7.371   0.362   2.711
57342W        W29756  37.410   7.294   2.811
57343W        W29757  28.559  33.431   1.337
57344W        W29758  18.586   0.252  12.339
57345W        W29759  38.026   3.816  14.443
57346W        W29760   2.775  39.512  11.892
57347W        W29761  43.442   8.197   0.894
57348W        W29762  24.217  21.514  10.539
57349W        W29763   1.874  22.210   3.658
57350W        W29764  26.104   0.848   3.864
57351W        W29765  33.434  23.526  11.946
57352W        W29766   1.946  11.209   3.849
57353W        W29767  15.787  14.825  11.418
57354W        W29768  40.531  23.085  11.871
57355W        W29769  10.706  32.993  12.875
57356W        W29770  36.517  21.628   4.784
57357W        W29771  13.301  12.191   2.797
57358W        W29772  17.688  21.537   1.882
57359W        W29773   4.404  27.684  10.938
57360W        W29774  38.409  40.524   2.356
57361W        W29775   7.897   2.895   3.853
57362W        W29776   2.240  11.174   1.328
57363W        W29777  34.962  24.672  12.551
57364W        W29778  15.756   1.937   9.930
57365W        W29779  42.981  26.088  11.905
57366W        W29780   9.184   5.729   3.350
57367W        W29781  25.686   9.165  12.998
57368W        W29782  19.642  24.561  11.928
57369W        W29783   5.196  15.615   2.201
57370W        W29784  15.206  37.426  12.978
57371W        W29785  20.031  30.621  10.012
57372W        W29786  30.434  15.800   1.271
57373W        W29787  21.526  34.592   2.396
57374W        W29788  44.826  35.929   3.198
57375W        W29789  32.571  40.362   1.777
57376W        W29790  22.093  12.127   3.835
57377W        W29791  31.574  44.769   1.795
57378W        W29792  20.601  34.992  10.577
57379W        W29793  20.759  43.794   9.502
57380W        W29794  44.384  31.014  12.952
57381W        W29795  11.178  15.720   2.331
57382W        W29796  36.884   2.948  10.418
57383W        W29797  24.044  39.847  11.597
57384W        W29798  10.821  24.008  12.032
57385W        W29799  30.964  38.013  13.899
57386W        W29800  38.537   8.191   2.274
57387W        W29801   0.861   1.975   5.168
57388W        W29802   5.210  25.572   4.677
57389W        W29803   0.918  35.480  10.627
57390W        W29804   6.823   1.935   3.365
57391W        W29805  42.374   4.786  12.910
57392W        W29806  13.614   5.828   0.454
57393W        W29807  15.607  12.302   3.153
57394W        W29808  40.444   1.952   3.170
57395W        W29809  21.559   0.432   0.367
57396W        W29810   6.903   3.411  11.380
57397W        W29811   3.328  37.929  11.503
57398W        W29812  35.579  34.045   1.268
57399W        W29813  30.484  10.641  12.388
57400W        W29814  39.957  23.122  13.399
57401W        W29815  33.408  42.312  13.385
57402W        W29816  17.170  42.905  13.954
57403W        W29817  29.008   0.398  14.854
57404W        W29818   9.706   1.392   2.894
57405W        W29819   0.396  23.542   2.852
57406W        W29820  19.053  11.776   3.172
57407W        W29821  40.040  29.616  13.343
57408W        W29822  41.309  35.882   4.333
57409W        W29823  37.022  28.112  12.421
57410W        W29824  38.914  15.329   1.431
57411W        W29825  44.312   6.387  11.564
57412W        W29826  10.680  14.243  10.597
57413W        W29827  23.552  42.309  13.543
57414W        W29828  12.143  27.173   0.390
57415W        W29829   7.726  18.290   1.723
57416W        W29830  37.959   7.283  11.613
57417W        W29831  12.827   7.248  10.944
57418W        W29832  29.665   3.940   4.835
57419W        W29833  15.822  29.101  12.379
57420W        W29834  34.424  38.387  14.994
57421W        W29835  36.516   8.724   4.741
57422W        W29836  27.445  19.108   2.284
57423W        W29837  34.926  13.252  12.569
57424W        W29838  43.372   3.818   1.353
57425W        W29839   5.288  28.166  11.938
57426W        W29840  26.201  14.589  13.545
57427W        W29841  36.076   8.685   3.794
57428W        W29842  40.014   4.209   1.891
57429W        W29843  22.114  31.146   3.285
57430W        W29844  30.619   0.280   1.903
57431W        W29845  42.465  24.091  10.641
57432W        W29846  25.086  22.241   2.398
57433W        W29847  41.993  21.515  14.934
57434W        W29848  26.197  41.379   0.478
57435W        W29849  25.158  21.255  12.084
57436W        W29850   6.214  34.520  13.385
57437W        W29851  31.035  29.104  12.375
57438W        W29852  19.563  38.946   3.813
57439W        W29853  23.131  32.957   3.801
57440W        W29854  31.645   1.802   4.777
57441W        W29855  30.151   3.844  14.295
57442W        W29856   5.903   8.201   0.374
57443W        W29857  29.920  12.743   2.730
57444W        W29858   9.249   4.215   0.283
57445W        W29859  13.166  38.533   0.894
57446W        W29860  36.573  36.514  14.510
57447W        W29861  13.605   2.409  11.572
57448W        W29862  29.487   3.763   0.883
57449W        W29863  25.125  10.207   1.748
57450W        W29864  16.185  35.373  12.897
57451W        W29865  19.701  33.557   4.757
57452W        W29866  36.950  23.227  11.083
57453W        W29867  20.165  11.742   0.766
57454W        W29868  32.472  28.943   0.758
57455W        W29869  37.360  31.023  12.014
57456W        W29870  36.471  16.794   0.932
57457W        W29871   2.765  43.401  10.979
57458W        W29872  23.720  17.607  14.361
57459W        W29873  34.406  24.559   9.553
57460W        W29874  41.809  27.532   1.226
57461W        W29875  42.357  22.615  14.805
57462W        W29876  21.182  26.165   3.768
57463W        W29877   8.214   9.172  11.555
57464W        W29878  25.562   6.190  14.894
57465W        W29879  38.859  10.208   4.597
57466W        W29880  29.978  28.094  13.403
57467W        W29881   5.871   8.667   4.823
57468W        W29882  24.685  43.493  10.998
57469W        W29883  22.191  30.545  12.443
57470W        W29884   2.282  13.802  14.421
57471W        W29885  31.026  40.525  12.949
57472W        W29886  28.133  17.667  11.525
57473W        W29887  43.943  22.090   3.200
57474W        W29888  13.284  12.716   3.733
57475W        W29889  42.957  18.725  11.886
57476W        W29890  36.520  35.943  11.859
57477W        W29891  24.584  41.997  14.908
57478W        W29892  31.569  24.142  13.987
57479W        W29893  41.798  20.575  14.841
57480W        W29894   6.258  38.404  11.547
57481W        W29895  35.959  36.502  14.774
57482W        W29896  33.425  38.505   0.467
57483W        W29897  13.223   3.382   5.271
57484W        W29898  34.383  21.088   1.335
57485W        W29899   7.399  34.891  11.555
57486W        W29900   8.757  22.550   0.461
57487W        W29901   1.910  30.536   3.664
57488W        W29902  28.124  41.927   2.740
57489W        W29903  38.570  44.497  11.452
57490W        W29904  27.526   4.292  12.546
57491W        W29905  34.610  42.505   4.816
57492W        W29906  38.969  28.550   4.708
57493W        W29907  23.675  24.991   0.343
57494W        W29908  26.121  37.901   4.764
57495W        W29909   9.365  17.692  14.987
57496W        W29910  17.705  32.447  13.412
57497W        W29911  26.128  29.509   2.194
57498W        W29912  20.234   1.414  13.939
57499W        W29913  37.892  15.662  14.929
57500W        W29914  36.395  44.287  10.119
57501W        W29915  43.324  13.814   0.393
57502W        W29916  24.224  31.430  14.292
57503W        W29917  17.759  24.061   1.385
57504W        W29918  26.160   9.873  11.594
57505W        W29919  41.810  14.785   0.264
57506W        W29920  31.467  28.120  14.407
57507W        W29921   1.414  31.010  14.466
57508W        W29922  11.130  33.453  14.331
57509W        W29923  22.561  32.547  10.630
57510W        W29924  31.543  31.111   2.303
57511W        W29925  11.155   7.882  13.529
57512W        W29926  29.669  23.552  12.935
57513W        W29927   1.832  41.413  10.048
57514W        W29928  38.064  10.686  14.494
57515W        W29929   9.788  20.048  11.949
57516W        W29930  41.041  41.005   4.132
57517W        W29931   2.230  17.730   4.137
57518W        W29932  12.696  17.263   0.809
57519W        W29933  24.115  14.774   3.309
57520W        W29934   2.407   3.815   1.746
57521W        W29935  40.456  13.844  13.507
57522W        W29936  44.386  18.669  14.815
57523W        W29937  29.578  13.689  11.606
57524W        W29938  34.399  41.470   2.290
57525W        W29939   3.917  12.261  12.489
57526W        W29940  23.989  19.172   2.884
57527W        W29941  36.945  17.266   1.247
57528W        W29942  34.100  12.288   0.370
57529W        W29943  39.001  39.976  11.008
57530W        W29944  16.667  31.591  11.868
57531W        W29945  43.772  12.249   2.887
57532W        W29946  17.772  18.267   0.770
57533W        W29947   0.276  17.781  13.937
57534W        W29948  40.979   7.740   4.641
57535W        W29949  14.705  44.850  11.957
57536W        W29950  14.800  20.128  12.829
57537W        W29951   7.684   3.391   5.087
57538W        W29952  41.946  34.034  14.497
57539W        W29953   5.740   7.801  14.395
57540W        W29954  17.629  14.306   1.707
57541W        W29955  30.927   5.870   0.958
57542W        W29956  39.451  38.497   3.657
57543W        W29957  10.837  34.970   2.326
57544W        W29958  40.971  13.213   3.211
57545W        W29959  30.532  42.882  12.878
57546W        W29960  26.039  17.192   4.673
57547W        W29961  26.668  13.301  11.410
57548W        W29962  22.538   7.887   2.304
57549W        W29963   5.926  17.202   1.382
57550W        W29964  16.715  29.918  12.415
57551W        W29965   1.803  27.600  10.509
57552W        W29966  35.096  36.393   2.752
57553W        W29967  14.800   6.737   3.275
57554W        W29968  28.180  37.424  12.027
57555W        W29969  35.091   9.220   3.325
57556W        W29970  10.340  19.630   1.713
57557W        W29971   7.879  18.654   0.845
57558W        W29972  29.632   2.418  12.479
57559W        W29973  33.415  26.577  11.024
57560W        W29974  29.967  40.966  14.955
57561W        W29975  20.686  44.360   1.283
57562W        W29976   4.798   3.927   2.339
57563W        W29977  17.601   7.778   3.672
57564W        W29978  21.125  10.210   4.114
57565W        W29979   2.860  25.197   0.786
57566W        W29980  26.578   2.856   4.194
57567W        W29981  15.625  24.984  12.022
57568W        W29982  25.210  22.544   1.444
57569W        W29983  30.080  14.774  11.110
57570W        W29984  23.226  25.470  13.321
57571W        W29985  43.819   8.377   2.792
57572W        W29986   2.383  43.831  13.832
57573W        W29987  10.711  28.454  11.886
57574W        W29988  32.618  39.432  13.909
57575W        W29989  31.608  16.137  13.823
57576W        W29990  16.108  17.731   0.361
57577W        W29991  18.162  39.056  10.554
57578W        W29992  41.513  29.954  13.930
57579W        W29993  22.088  25.598   0.847
57580W        W29994  27.157  40.501  10.461
57581W        W29995   2.408   5.331  11.443
57582W        W29996  29.175  26.199   1.767
57583W        W29997  35.950  18.065  11.996
57584W        W29998  24.485  19.700  12.866
57585W        W29999   3.383  36.552   1.412
57586W        W30000  17.093  42.331   1.375
57587W        W30001  26.028  35.592   2.664
57588W        W30002  34.427  20.665   4.754
57589W        W30003   3.283  30.912  13.025
57590W        W30004  38.069  10.338   2.880
57591W        W30005   0.876  35.909  12.920
57592W        W30006  34.975  13.777  14.866
57593W        W30007  17.288   1.859  12.057
57594W        W30008  35.999  28.102  12.966
57595W        W30009  19.041  19.582   2.304
57596W        W30010  12.677  12.652   3.678
57597W        W30011  14.118  39.458   4.269
57598W        W30012  30.427  41.966   0.738
57599W        W30013  42.427  10.701   0.462
57600W        W30014  34.420  10.633  14.418
57601W        W30015  20.172  38.500  11.013
57602W        W30016  40.305  27.448   3.230
57603W        W30017   6.324  37.485  13.363
57604W        W30018  24.546   8.383  12.868
57605W        W30019  44.758  21.710  12.934
57606W        W30020  35.065  34.442  14.969
57607W        W30021  41.867  31.086   4.184
57608W        W30022  37.870  33.446  13.969
57609W        W30023  33.976   5.378   1.828
57610W        W30024   6.864  16.113   3.347
57611W        W30025   0.932  34.038   4.624
57612W        W30026  13.122  39.500  12.517
57613W        W30027  37.830  13.292  14.843
57614W        W30028  16.657   4.711   4.140
57615W        W30029  25.977  21.580   3.206
57616W        W30030   9.850  17.676   4.252
57617W        W30031  15.162  35.883  12.025
57618W        W30032  44.835   0.417   4.656
57619W        W30033   4.407  26.585   0.253
57620W        W30034  10.817   8.205  13.409
57621W        W30035  42.341  18.652  13.899
57622W        W30036  44.393  35.511   1.906
57623W        W30037  10.306  44.366   3.864
57624W        W30038   6.896  33.049   3.185
57625W        W30039   0.338  31.978  14.007
57626W        W30040  25.112  21.182   4.603
57627W        W30041  15.166  19.741   5.227
57628W        W30042   8.888  27.142   3.258
57629W        W30043  11.171   8.803   2.673
57630W        W30044   7.681  32.572  11.114
57631W        W30045  21.094  39.954   1.902
57632W        W30046  22.730   0.954   3.304
57633W        W30047  44.813   0.320   2.282
57634W        W30048  15.140  23.189   3.676
57635W        W30049  35.979  30.101  10.432
57636W        W30050  14.659  18.136  12.992
57637W        W30051  12.635  20.701  13.528
57638W        W30052  20.254  11.812   1.407
57639W        W30053  21.621   0.270  14.427
57640W        W30054   3.726   1.945  12.447
57641W        W30055  31.606  43.784   0.791
57642W        W30056   8.896  26.143  14.944
57643W        W30057  29.157   1.799   2.240
57644W        W30058  19.540   9.284   3.694
57645W        W30059  26.191   1.271   0.264
57646W        W30060   6.309  33.947  11.554
57647W        W30061  37.506  44.936  13.976
57648W        W30062  21.562  12.749   3.239
57649W        W30063  16.148  34.493  10.558
57650W        W30064  38.397  22.673  12.088
57651W        W30065  10.217  26.008   3.348
57652W        W30066  13.144  35.474   3.761
57653W        W30067   4.890   5.848   2.785
57654W        W30068  12.338  30.117  14.837
57655W        W30069  44.765  42.441  14.492
57656W        W30070  34.458  23.190   1.831
57657W        W30071  31.583  21.113   3.754
57658W        W30072  31.941  40.973   4.802
57659W        W30073   1.455  20.691   4.616
57660W        W30074  13.239   6.817   3.338
57661W        W30075  20.090  40.848   4.828
57662W        W30076  40.053  11.311  13.824
57663W        W30077   7.374  20.085  13.062
57664W        W30078  43.877  35.059  13.862
57665W        W30079  42.468  17.777   0.903
57666W        W30080   8.290   6.222  14.360
57667W        W30081  14.678  22.721   3.232
57668W        W30082   0.967  35.460   2.786
57669W        W30083  36.467  32.587   0.771
57670W        W30084  25.539  26.605   4.726
57671W        W30085  20.529   8.727   5.098
57672W        W30086  22.065  15.612  13.480
57673W        W30087  17.722  24.637   0.912
57674W        W30088  31.074  39.010  14.438
57675W        W30089   8.876  37.968   0.287
57676W        W30090  37.445  33.070   5.090
57677W        W30091   8.870  37.940  10.597
57678W        W30092  10.853  19.252   0.775
57679W        W30093  11.867   0.412   1.749
57680W        W30094   7.882  43.954   1.826
57681W        W30095  34.900  40.043  14.492
57682W        W30096   1.839  31.436  13.542
57683W        W30097  31.608  33.544  12.026
57684W        W30098  20.231  13.294   1.229
57685W        W30099  27.528  34.508  11.585
57686W        W30100   1.735  28.087   1.439
57687W        W30101  42.311   6.846   2.844
57688W        W30102  34.542  38.876   0.876
57689W        W30103  36.403  39.365  12.380
57690W        W30104  13.224   9.371   0.810
57691W        W30105  34.992  22.561   3.764
57692W        W30106  19.714  21.638   2.399
57693W        W30107   5.914   5.428  14.927
57694W        W30108  21.089  28.573  12.497
57695W        W30109   3.956  20.149  12.431
57696W        W30110  16.260  24.992   4.163
57697W        W30111   3.281  35.520   3.667
57698W        W30112  19.749  28.128   4.724
57699W        W30113  10.836  25.186  11.923
57700W        W30114  20.601  25.041  13.950
57701W        W30115  19.140  23.231   2.254
57702W        W30116  23.579  42.411  10.561
57703W        W30117  42.797   6.915   0.928
57704W        W30118  21.201  13.817  11.855
57705W        W30119  21.026  30.965  13.468
57706W        W30120  27.980  25.113   9.999
57707W        W30121   5.197  31.531   0.292
57708W        W30122  32.022  32.073  14.477
57709W        W30123  29.520  21.263  14.305
57710W        W30124  32.429   4.273  10.524
57711W        W30125   4.704  27.983   1.380
57712W        W30126  13.693   1.845  12.864
57713W        W30127  14.215  24.521  13.329
57714W        W30128  17.105  33.084  13.946
57715W        W30129  27.490   7.907   1.309
57716W        W30130  14.101  30.016  11.112
57717W        W30131  35.939   8.803  12.478
57718W        W30132   3.460  33.994  13.008
57719W        W30133  15.636  25.207   1.926
57720W        W30134  35.866  21.135  12.872
57721W        W30135  37.528  25.516  14.760
57722W        W30136  29.457  28.929   4.165
57723W        W30137  26.480  18.263   3.736
57724W        W30138  17.675   5.712   0.260
57725W        W30139   2.830  39.345   4.610
57726W        W30140  29.953  22.518  12.986
57727W        W30141   0.808  36.482   3.263
57728W        W30142  32.993  28.448   0.385
57729W        W30143   7.768   8.216   2.399
57730W        W30144  27.448  29.969   1.871
57731W        W30145  20.683  37.881   3.853
57732W        W30146  34.027  23.589   3.225
57733W        W30147   3.355   6.878   4.786
57734W        W30148  13.162  39.977  14.488
57735W        W30149  10.824  43.398   4.709
57736W        W30150  24.487  11.812  11.381
57737W        W30151  25.047  33.524   4.113
57738W        W30152  26.499  39.978   3.334
57739W        W30153  36.497  11.751   0.930
57740W        W30154  41.013   9.169   2.780
57741W        W30155  25.168  41.310  11.607
57742W        W30156  38.335  42.515  13.012
57743W        W30157  39.399   6.276  12.886
57744W        W30158  39.987  11.128  11.011
57745W        W30159  41.922  17.144  14.404
57746W        W30160   5.292  28.181  13.504
57747W        W30161   4.448  10.727  12.358
57748W        W30162  37.967   9.813   4.823
57749W        W30163  44.782   0.824   2.312
57750W        W30164   0.398   8.395   2.227
57751W        W30165   0.924  30.143   0.242
57752W        W30166  18.199  25.091   3.254
57753W        W30167  40.375  12.771  10.579
57754W        W30168  44.289   7.690  10.528
57755W        W30169  21.749  33.983   4.303
57756W        W30170  10.354  38.362  12.862
57757W        W30171   0.746   3.879   2.385
57758W        W30172  10.231   2.346  14.778
57759W        W30173  34.892   3.322   2.269
57760W        W30174  11.199  29.953   0.428
57761W        W30175  40.461  18.141   3.707
57762W        W30176  36.409  32.029   0.427
57763W        W30177  32.434  36.970   1.764
57764W        W30178  38.868  14.752  14.301
57765W        W30179  28.523  29.951   4.182
57766W        W30180   3.389  39.849  12.456
57767W        W30181   0.971   9.652   3.840
57768W        W30182  19.678  13.140  12.368
57769W        W30183  10.788  13.139   3.371
57770W        W30184  33.987  20.109   3.154
57771W        W30185  42.489  41.824   4.791
57772W        W30186   0.462  10.354  12.442
57773W        W30187   5.303   8.763   4.324
57774W        W30188  14.202  40.439  10.643
57775W        W30189   5.759  20.706   2.887
57776W        W30190   9.839  13.723  14.475
57777W        W30191   9.673   2.231   3.680
57778W        W30192  14.214  22.197   2.268
57779W        W30193   7.339  15.087  12.417
57780W        W30194  15.761  30.954  12.454
57781W        W30195  31.488   2.255   0.764
57782W        W30196  41.814  13.277  13.008
57783W        W30197  18.165  44.760  11.476
57784W        W30198  43.905  31.001  13.941
57785W        W30199  28.138  16.315   3.811
57786W        W30200   3.415  14.227   3.847
57787W        W30201  44.296  43.014   0.443
57788W        W30202  33.933  44.830   3.858
57789W        W30203  22.543  19.555  11.564
57790W        W30204  29.056  39.895   3.345
57791W        W30205  13.294  36.970   1.290
57792W        W30206  38.478  16.277  10.470
57793W        W30207  40.395  41.498   0.778
57794W        W30208   6.841   8.670   4.771
57795W        W30209  33.928  25.165  10.526
57796W        W30210  16.253  20.238  10.053
57797W        W30211  20.692  33.419   3.768
57798W        W30212  11.673   9.169   4.251
57799W        W30213  30.079   8.844   0.908
57800W        W30214  17.181  33.879  13.406
57801W        W30215  44.831  32.124  10.597
57802W        W30216  25.637  42.886  12.052
57803W        W30217  23.629  18.120   4.817
57804W        W30218  38.503  10.799  14.919
57805W        W30219  23.067  33.927   3.631
57806W        W30220  10.735  30.139  10.581
57807W        W30221  19.039  15.096  13.998
57808W        W30222  28.538  35.494  13.008
57809W        W30223  30.075  44.321  14.773
57810W        W30224  22.010  41.030   4.168
57811W        W30225  33.406  20.744  13.048
57812W        W30226  20.735  41.793   1.367
57813W        W30227   1.305   8.805   4.261
57814W        W30228  10.291   2.957  11.425
57815W        W30229  37.536  23.148   4.718
57816W        W30230  17.558  37.877   4.157
57817W        W30231  36.068  27.180   0.314
57818W        W30232  44.289  15.738   4.208
57819W        W30233  36.436  33.892   5.209
57820W        W30234  27.489  31.980   3.281
57821W        W30235  16.201  34.573   4.151
57822W        W30236  24.098   9.392  11.981
57823W        W30237  21.254  34.531   1.704
57824W        W30238  33.588   0.947   4.266
57825W        W30239   8.748  39.967   2.277
57826W        W30240  12.852  20.594   1.403
57827W        W30241  27.943  43.867  13.853
57828W        W30242  28.474  10.633   0.324
57829W        W30243   7.869  18.210   0.910
57830W        W30244   2.835  21.680   1.719
57831W        W30245  23.607   0.909   4.189
57832W        W30246   2.814  21.067   2.206
57833W        W30247  27.984  37.974   3.802
57834W        W30248   5.338  44.280  12.491
57835W        W30249  12.232   9.704  13.890
57836W        W30250  25.612  33.022  12.009
57837W        W30251   7.220  21.685  12.092
57838W        W30252  15.808   4.224   4.297
57839W        W30253   3.715  29.442  14.369
57840W        W30254   4.326  21.709  10.565
57841W        W30255   4.930  31.982   2.365
57842W        W30256  17.677  26.510   0.906
57843W        W30257  37.973   1.772  13.051
57844W        W30258  10.792  42.857  13.381
57845W        W30259  43.359  17.275  13.408
57846W        W30260  41.884  26.161   2.212
57847W        W30261  34.414  25.083   1.332
57848W        W30262  24.071   0.845  12.874
57849W        W30263  23.665  16.573  11.095
57850W        W30264  27.134   2.377  14.305
57851W        W30265  33.015  13.720   3.834
57852W        W30266  40.813  42.451   3.330
57853W        W30267  29.977   5.209   4.767
57854W        W30268  30.413  33.126   3.289
57855W        W30269   7.807  33.999  11.511
57856W        W30270  35.461  19.207   0.338
57857W        W30271  35.523   3.298   0.433
57858W        W30272  27.986  44.408   0.743
57859W        W30273  41.360  18.279   0.379
57860W        W30274  26.456  21.721   2.387
57861W        W30275  43.379  19.721  10.892
57862W        W30276  13.215  21.076  12.895
57863W        W30277  10.340  20.170  13.964
57864W        W30278  16.639  16.084   0.872
57865W        W30279  22.064  21.077  14.351
57866W        W30280   1.453  41.900   0.818
57867W        W30281  30.569  22.174  12.960
57868W        W30282  43.319  44.957   2.265
57869W        W30283  20.044  15.629   1.260
57870W        W30284  41.877   7.409  14.030
57871W        W30285   0.275   3.429  14.765
57872W        W30286  36.356  16.126   0.404
57873W        W30287  14.258   9.186   0.870
57874W        W30288  12.200  10.301   1.835
57875W        W30289  37.011  26.592   9.977
57876W        W30290  15.253   4.355   0.766
57877W        W30291  30.063  27.546  14.920
57878W        W30292  41.843  16.745  11.859
57879W        W30293   1.253  21.630   2.886
57880W        W30294  39.516  26.154   0.941
57881W        W30295  18.166  29.954  11.504
57882W        W30296  38.880  28.078   4.141
57883W        W30297   3.854  40.399   5.650
57884W        W30298  42.917  28.478   1.241
57885W        W30299  26.632  17.196  12.076
57886W        W30300   9.878  41.473  10.551
57887W        W30301   7.749  35.486  13.389
57888W        W30302  30.538  27.574   2.288
57889W        W30303  32.493  37.502   2.809
57890W        W30304  12.278  17.670  14.769
57891W        W30305   3.296  40.992   0.305
57892W        W30306  28.132  18.635  13.016
57893W        W30307  43.323   2.752   0.417
57894W        W30308   7.216  27.576  12.356
57895W        W30309  21.058  28.014  13.927
57896W        W30310   4.211  19.630   4.285
57897W        W30311  40.540  44.872  11.019
57898W        W30312  43.943  18.757  12.931
57899W        W30313  13.311  19.176  12.932
57900W        W30314  12.310  35.514   0.803
57901W        W30315   1.922  30.943   3.838
57902W        W30316  20.243  30.061   4.685
57903W        W30317  26.185  41.529  12.860
57904W        W30318   9.170  18.554   4.300
57905W        W30319  31.987  22.510   4.673
57906W        W30320  33.058   3.805   1.334
57907W        W30321  24.626   7.202  10.413
57908W        W30322  22.175  31.112   0.835
57909W        W30323  17.104  37.364   2.208
57910W        W30324  32.428  36.069   3.336
57911W        W30325   0.913  18.124   4.169
57912W        W30326   7.265  22.151  14.392
57913W        W30327   0.778   5.838  13.444
57914W        W30328  44.264  38.868   5.155
57915W        W30329   1.938  20.096   1.288
57916W        W30330  35.869  25.485   1.799
57917W        W30331  44.805  31.560   1.717
57918W        W30332  22.524   0.301   1.310
57919W        W30333   8.784  43.014  13.362
57920W        W30334   2.866  19.190   1.877
57921W        W30335  35.992  23.229  11.380
57922W        W30336  17.728  41.492  11.083
57923W        W30337  39.989  44.501  11.587
57924W        W30338  28.981  20.538   0.892
57925W        W30339  21.547  28.473  12.905
57926W        W30340  10.705  27.983  11.876
57927W        W30341  21.187  41.982   2.315
57928W        W30342  15.610  27.043  14.887
57929W        W30343  17.796  14.761   2.902
57930W        W30344  40.817  11.746   1.931
57931W        W30345  24.998  43.011  13.324
57932W        W30346  25.191  14.696   4.276
57933W        W30347  41.347  28.621  14.824
57934W        W30348   0.394  19.640  12.034
57935W        W30349  11.798  36.020   2.692
57936W        W30350  24.515  14.201  14.449
57937W        W30351   4.255  19.586  12.427
57938W        W30352  24.195  42.993  12.830
57939W        W30353  32.583  44.769   2.206
57940W        W30354  37.580  18.202   0.347
57941W        W30355  43.387  39.372  11.586
57942W        W30356  43.273  10.155  13.966
57943W        W30357  14.694  44.447  10.565
57944W        W30358   7.710  37.009  13.415
57945W        W30359  11.681  26.472   2.812
57946W        W30360   6.214  36.399  10.422
57947W        W30361  25.577  15.168  14.412
57948W        W30362   2.886  26.690   1.257
57949W        W30363  31.530  33.982   1.214
57950W        W30364  36.850  34.508  14.290
57951W        W30365  16.584   6.790  12.377
57952W        W30366   9.239  27.958   3.260
57953W        W30367  16.196   4.374  11.391
57954W        W30368  42.844  31.154  13.420
57955W        W30369  34.009  44.773  13.310
57956W        W30370  40.833  37.580   4.688
57957W        W30371   0.922  10.291   2.284
57958W        W30372  10.848  44.823   0.798
57959W        W30373  35.560   0.897   3.803
57960W        W30374   2.759   7.797  12.557
57961W        W30375  20.578   2.349   2.397
57962W        W30376   9.249  16.245   2.799
57963W        W30377   4.766  30.112  12.997
57964W        W30378  32.912  20.751   3.197
57965W        W30379   1.931   8.753  13.909
57966W        W30380  18.101  37.559   2.362
57967W        W30381  42.873  36.515  11.462
57968W        W30382  13.723  43.902   3.737
57969W        W30383   3.945  23.226   4.807
57970W        W30384   8.254  40.361   1.419
57971W        W30385  23.043  41.883   4.733
57972W        W30386  15.795  14.188   3.256
57973W        W30387  43.979   7.260   3.640
57974W        W30388  34.515  25.677  10.506
57975W        W30389  18.263  22.187   3.268
57976W        W30390  18.561   3.311   9.926
57977W        W30391  39.367   1.427  11.531
57978W        W30392   8.777   1.374  11.091
57979W        W30393  36.963  27.020  13.860
57980W        W30394   9.347  36.902   0.397
57981W        W30395   8.228  22.684   0.960
57982W        W30396  14.782  13.803  12.573
57983W        W30397  24.142  34.054   1.695
57984W        W30398  39.554  41.313   1.247
57985W        W30399  15.285  38.461  13.497
57986W        W30400  30.989   7.261  13.030
57987W        W30401  38.821  18.287  10.097
57988W        W30402  16.220  42.364   0.953
57989W        W30403  41.812  39.484   0.932
57990W        W30404  25.613   5.256  11.459
57991W        W30405  26.005  16.088   5.719
57992W        W30406  26.138   7.900  10.502
57993W        W30407  34.986  22.031  11.035
57994W        W30408   6.288   1.933  13.358
57995W        W30409  11.190  27.578   0.766
57996W        W30410   6.695  28.056   0.865
57997W        W30411  15.617  44.769  13.880
57998W        W30412   8.210   6.229   3.713
57999W        W30413  18.723  44.277  12.437
58000W        W30414  15.325   5.723   5.221
58001W        W30415  29.657  10.277  13.932
58002W        W30416  10.265  38.475  14.336
58003W        W30417   0.813   5.755  11.447
58004W        W30418  36.089  34.036   2.838
58005W        W30419   2.443  42.914   1.741
58006W        W30420  26.187  26.107  10.530
58007W        W30421  28.946  16.701  10.521
58008W        W30422  20.183  13.764   0.401
58009W        W30423  35.538   8.203  12.932
58010W        W30424  18.261   3.732  12.372
58011W        W30425   7.328  12.200   0.459
58012W        W30426  38.071  25.052  12.964
58013W        W30427  26.516  28.095  10.897
58014W        W30428   7.742  31.466  13.447
58015W        W30429  29.641   7.699  10.405
58016W        W30430  36.859  44.364  14.362
58017W        W30431  14.100  38.551   3.280
58018W        W30432  33.529  22.659  10.913
58019W        W30433  33.396  11.224   4.158
58020W        W30434  39.941   8.210  13.851
58021W        W30435  21.733  23.061   1.441
58022W        W30436  33.951   9.395  14.320
58023W        W30437  27.068  43.785   1.376
58024W        W30438  27.031  18.546  11.009
58025W        W30439  16.242   7.702  10.446
58026W        W30440  36.445   9.361   3.828
58027W        W30441  31.133  30.996  13.431
58028W        W30442  17.705  16.157  12.519
58029W        W30443  26.571  11.262  11.042
58030W        W30444   8.719  31.065  13.803
58031W        W30445  11.360  18.158  14.394
58032W        W30446  11.340   1.747  11.439
58033W        W30447   6.428  24.722   3.792
58034W        W30448  28.678  44.968   2.861
58035W        W30449  25.631   6.308   3.178
58036W        W30450  19.668  25.000   0.278
58037W        W30451  19.154   6.197   4.268
58038W        W30452  35.926  36.955   0.758
58039W        W30453  16.772   3.856   3.864
58040W        W30454  27.465   2.366   3.318
58041W        W30455  31.963   5.322   3.761
58042W        W30456  11.224  44.479   1.700
58043W        W30457  30.511  28.050   1.244
58044W        W30458  23.220  30.147  12.403
58045W        W30459  40.854  31.571  11.100
58046W        W30460  34.493  41.800   2.770
58047W        W30461   5.817  18.615  12.978
58048W        W30462  32.933  21.206   1.862
58049W        W30463   3.823  28.535  10.964
58050W        W30464  18.264  41.935   1.289
58051W        W30465  32.057  12.798  11.537
58052W        W30466  34.475  36.439  12.494
58053W        W30467   7.271  11.359   1.237
58054W        W30468   2.276  17.189  13.801
58055W        W30469  29.957  36.066  12.965
58056W        W30470  43.428  42.798  10.405
58057W        W30471  36.918  44.901   3.339
58058W        W30472  20.623  22.529  11.379
58059W        W30473   4.840  43.942  11.580
58060W        W30474  10.362  23.054  10.614
58061W        W30475  33.027  27.186   0.448
58062W        W30476  40.802   2.863  10.983
58063W        W30477  39.342  11.723  12.512
58064W        W30478  18.664  30.150   1.794
58065W        W30479  37.882  23.609   4.737
58066W        W30480  18.082  40.445  12.508
58067W        W30481  33.554  32.108  11.420
58068W        W30482  34.517  12.732   4.321
58069W        W30483   4.742  27.004  14.849
58070W        W30484   8.728  17.715  13.887
58071W        W30485  22.721  39.388   3.686
58072W        W30486  23.217  13.721   3.214
58073W        W30487  21.121  14.724   3.858
58074W        W30488   5.417  30.517   1.881
58075W        W30489  38.065   3.833  14.762
58076W        W30490  25.110  14.751  12.947
58077W        W30491  22.701  19.166  11.905
58078W        W30492  37.502  30.515  12.572
58079W        W30493   3.405   7.738   5.306
58080W        W30494  21.512  41.475  14.989
58081W        W30495  36.077   7.790  14.839
58082W        W30496  30.975  18.239   2.764
58083W        W30497   7.303   5.198  14.461
58084W        W30498   2.325  31.590  14.355
58085W        W30499   4.939  29.028   1.231
58086W        W30500  32.398  29.975   0.297
58087W        W30501  44.263  24.479   2.245
58088W        W30502  25.045  30.929  14.425
58089W        W30503   7.271  31.116   0.854
58090W        W30504  29.975  26.594   9.939
58091W        W30505  31.629  24.164  12.064
58092W        W30506   2.957  28.554   4.227
58093W        W30507  20.754  37.441  13.846
58094W        W30508  26.554   9.251  14.775
58095W        W30509   1.259  29.158   1.701
58096W        W30510  36.012  41.835  12.358
58097W        W30511  35.954  31.104   1.890
58098W        W30512  42.336   8.215  12.431
58099W        W30513   7.323   7.398   4.700
58100W        W30514  16.802  38.049   0.871
58101W        W30515  21.755  36.428  11.959
58102W        W30516  29.979  17.580  11.878
58103W        W30517  25.708   7.358   3.299
58104W        W30518  10.348  31.029  12.482
58105W        W30519  35.508   0.405  11.524
58106W        W30520  30.458   8.807   2.325
58107W        W30521  13.145  21.668  13.426
58108W        W30522  40.830  22.142  13.004
58109W        W30523  27.582  43.013  13.058
58110W        W30524  43.396  38.941  11.566
58111W        W30525  37.514  41.350   4.837
58112W        W30526  17.112  33.113   2.363
58113W        W30527  35.861  44.946   0.373
58114W        W30528  27.146   2.873   2.882
58115W        W30529  16.777  23.517  12.046
58116W        W30530  13.721   2.852  10.940
58117W        W30531  22.716  10.337  10.920
58118W        W30532  10.830  39.437  13.006
58119W        W30533  18.123  16.083  11.918
58120W        W30534   9.835  18.726  13.978
58121W        W30535  21.109  32.580  11.007
58122W        W30536  13.311  21.250   3.734
58123W        W30537  21.609  11.839  12.386
58124W        W30538  37.073  28.650  10.961
58125W        W30539  43.400  27.947  13.016
58126W        W30540  42.468  11.626   0.365
58127W        W30541  16.087  25.112   0.913
58128W        W30542  14.132  39.865  12.853
58129W        W30543  27.528  39.977   1.228
58130W        W30544  44.004  22.194  14.024
58131W        W30545  36.004  37.053   4.180
58132W        W30546  20.562  16.808  14.956
58133W        W30547   9.837  31.468   3.182
58134W        W30548   7.251  31.060   0.347
58135W        W30549   7.295  34.504  14.331
58136W        W30550  35.954  12.847   0.363
58137W        W30551  29.016  24.594  11.964
58138W        W30552  35.879  35.875   0.797
58139W        W30553  43.946  35.904  10.637
58140W        W30554   3.769  36.427  14.030
58141W        W30555  28.031  19.684   5.260
58142W        W30556  33.625  18.661  14.439
58143W        W30557   2.310  24.612  14.298
58144W        W30558  13.609  31.517   3.282
58145W        W30559  10.360  25.651   3.205
58146W        W30560   3.842  22.023   0.767
58147W        W30561  44.467  42.398   4.163
58148W        W30562  14.148  44.852  11.003
58149W        W30563  23.180  41.920  12.901
58150W        W30564  40.329  29.176  14.407
58151W        W30565  32.094   9.282   4.133
58152W        W30566  19.647   3.264  12.991
58153W        W30567   9.363  42.940   9.994
58154W        W30568  16.223   9.174   3.310
58155W        W30569   1.280  30.156  14.976
58156W        W30570   4.879  14.223  11.001
58157W        W30571  41.435  17.240  13.348
58158W        W30572   6.829  27.127   3.211
58159W        W30573   2.413  28.514   4.237
58160W        W30574   6.844   6.890   4.694
58161W        W30575  17.142  43.901   0.272
58162W        W30576  42.435  17.082   2.261
58163W        W30577   5.872  11.209   1.386
58164W        W30578  39.829  22.213  14.822
58165W        W30579  22.713  31.473  12.060
58166W        W30580  26.004  16.587   4.142
58167W        W30581   7.402  44.995   4.658
58168W        W30582  41.965   3.436   3.725
58169W        W30583  40.491  28.932  11.921
58170W        W30584  21.134  23.673   0.952
58171W        W30585   5.405  42.319  14.492
58172W        W30586  14.808  37.563  11.483
58173W        W30587  33.969  42.854  12.944
58174W        W30588  33.532  21.221   4.114
58175W        W30589  12.679   4.728  11.611
58176W        W30590  22.200  23.084   4.128
58177W        W30591  35.536  22.733  12.085
58178W        W30592  16.267  27.127  12.488
58179W        W30593   0.818  17.277   3.783
58180W        W30594  27.558  43.016  11.463
58181W        W30595  18.551   3.437  11.542
58182W        W30596  17.198  28.990   3.825
58183W        W30597  36.573   0.370   1.864
58184W        W30598   7.347  20.042  14.394
58185W        W30599  10.366  22.178  13.020
58186W        W30600  40.478   2.355   1.750
58187W        W30601  33.482  22.562   3.666
58188W        W30602  43.948  41.815   1.450
58189W        W30603  11.156  17.138  10.642
58190W        W30604   0.345  27.638  14.460
58191W        W30605  38.925  17.088  12.407
58192W        W30606  44.387  41.534  12.526
58193W        W30607  32.416  34.103   1.378
58194W        W30608  35.503  30.013  12.039
58195W        W30609  40.424  28.967  11.035
58196W        W30610  44.404  23.149  12.503
58197W        W30611   7.711  28.003  13.309
58198W        W30612   2.798   7.259   4.188
58199W        W30613  27.525  30.995   0.899
58200W        W30614  30.161  40.977  11.557
58201W        W30615  35.479  26.480  13.471
58202W        W30616  12.760  29.936  14.372
58203W        W30617   3.791  10.293   3.785
58204W        W30618  33.619  25.565   3.210
58205W        W30619  22.038  37.579  11.913
58206W        W30620  17.690  38.070  12.998
58207W        W30621   5.393  22.181  11.574
58208W        W30622  25.002  11.137  12.889
58209W        W30623   0.819  36.377   4.152
58210W        W30624   4.254   9.681  14.029
58211W        W30625   7.298  13.601  11.532
58212W        W30626   1.274   5.915  10.425
58213W        W30627  25.039  30.152  12.510
58214W        W30628  36.587  37.008   2.882
58215W        W30629  29.538  10.269   3.190
58216W        W30630   2.248  26.525  10.575
58217W        W30631  13.666   6.762   4.830
58218W        W30632   6.870  39.844   0.408
58219W        W30633   0.763  38.441   0.370
58220W        W30634  34.416  33.528  12.026
58221W        W30635  40.324  13.667   0.458
58222W        W30636  21.224  19.585  10.577
58223W        W30637  25.116  33.064  14.280
58224W        W30638  20.070  13.184   2.874
58225W        W30639  16.751  12.214  10.556
58226W        W30640   9.730   9.368  11.043
58227W        W30641  40.404  29.628   2.745
58228W        W30642  34.933  14.097  11.440
58229W        W30643   5.433  18.243   2.811
58230W        W30644  41.036   2.231   3.335
58231W        W30645  34.064  39.508   1.745
58232W        W30646   6.413  33.601  12.038
58233W        W30647   6.780   2.853   0.844
58234W        W30648  15.288  38.897   0.782
58235W        W30649  19.579  23.996   2.382
58236W        W30650  36.955  18.687   0.311
58237W        W30651  27.543  42.828   2.825
58238W        W30652  16.766   5.270  10.945
58239W        W30653  17.622  14.588   4.697
58240W        W30654  38.005   9.336   1.437
58241W        W30655  23.096   9.264  12.890
58242W        W30656  27.644  35.956  12.842
58243W        W30657  40.428  26.187   0.873
58244W        W30658  20.127  13.278   0.930
58245W        W30659  22.021  34.079   4.801
58246W        W30660  12.654  16.610  10.476
58247W        W30661   1.410   8.265   3.254
58248W        W30662   8.392   5.908   0.841
58249W        W30663  39.395   8.793   0.928
58250W        W30664   7.775  23.071  14.922
58251W        W30665  31.499   3.330  12.493
58252W        W30666  10.163  24.702   1.811
58253W        W30667   8.677  33.011   0.280
58254W        W30668  32.449  31.486  14.003
58255W        W30669  21.736  28.954   1.731
58256W        W30670  40.863  31.485  10.445
58257W        W30671   2.921  12.838  14.317
58258W        W30672  31.044  13.659  12.465
58259W        W30673  38.463  39.913   3.223
58260W        W30674  17.183  41.420  11.372
58261W        W30675   5.771  42.306  10.409
58262W        W30676  31.548  31.569   3.235
58263W        W30677   0.354  32.108  10.594
58264W        W30678  33.599   1.251  11.534
58265W        W30679  17.149   5.429   4.346
58266W        W30680  24.137  35.385   0.397
58267W        W30681  26.003   2.869  11.019
58268W        W30682  16.775  20.228  11.118
58269W        W30683   5.360  28.988   0.270
58270W        W30684  10.355   2.759  10.927
58271W        W30685  31.127  44.363   4.316
58272W        W30686  25.654  20.605   3.185
58273W        W30687  30.613  13.219   0.255
58274W        W30688  13.664  33.574  10.526
58275W        W30689  11.259  39.051  10.607
58276W        W30690  44.967  16.605   2.355
58277W        W30691  42.350  14.284   2.782
58278W        W30692  41.919  27.004   2.281
58279W        W30693  22.646  21.625   3.661
58280W        W30694  10.259   5.895  10.099
58281W        W30695  18.162  33.944  12.964
58282W        W30696  15.177  35.499  10.571
58283W        W30697  12.641  19.066   5.306
58284W        W30698  33.481  25.072  14.915
58285W        W30699  20.643  10.299   2.328
58286W        W30700   6.219  20.191   2.257
58287W        W30701  20.732  34.550   0.332
58288W        W30702   0.932  25.113   4.120
58289W        W30703  23.585  18.227   3.177
58290W        W30704  37.502  32.041   0.347
58291W        W30705  32.894   2.754   1.347
58292W        W30706   7.224  32.887   0.375
58293W        W30707  30.069  17.256   0.885
58294W        W30708  10.365  36.009  12.011
58295W        W30709  17.304  19.228  13.947
58296W        W30710  17.656  30.042  11.071
58297W        W30711  40.488  40.492  11.103
58298W        W30712   3.840  23.115  11.929
58299W        W30713  25.973  22.109   0.841
58300W        W30714  19.738  21.699   0.244
58301W        W30715   1.386  34.576   2.199
58302W        W30716  10.226  29.120  14.412
58303W        W30717   8.325  19.096  14.304
58304W        W30718  18.642  34.585   1.306
58305W        W30719  32.934  13.822   1.221
58306W        W30720  32.137  27.608  14.281
58307W        W30721  42.475  32.030  12.976
58308W        W30722  29.130  42.020   1.336
58309W        W30723  44.370   5.348  13.436
58310W        W30724  16.574   2.765   2.840
58311W        W30725   1.878  41.895   0.859
58312W        W30726  40.493  26.004  14.980
58313W        W30727  24.662   6.877   3.305
58314W        W30728  10.871  17.709  12.931
58315W        W30729  32.430  39.448   1.875
58316W        W30730  23.139  42.512  11.905
58317W        W30731   8.789  34.995  11.999
58318W        W30732  43.434  11.686   3.775
58319W        W30733  21.621  40.963  14.966
58320W        W30734  24.485  35.574   3.747
58321W        W30735   4.915  11.657  11.100
58322W        W30736  22.672  28.581   2.767
58323W        W30737   0.933  24.641  14.296
58324W        W30738  25.178  31.434  13.941
58325W        W30739  15.623  18.194  11.128
58326W        W30740  24.099  13.160  12.427
58327W        W30741  40.938  37.943  13.377
58328W        W30742  44.337   5.280  14.447
58329W        W30743  29.461  22.660  10.521
58330W        W30744  20.697  24.540   2.288
58331W        W30745  36.932   9.721  12.856
58332W        W30746   0.467  43.311  13.826
58333W        W30747   8.306  16.645   4.724
58334W        W30748   4.212   8.769  10.581
58335W        W30749  11.145  28.992   2.818
58336W        W30750  41.883  18.265   4.242
58337W        W30751   3.382   0.825  10.448
58338W        W30752  24.029  13.133   4.265
58339W        W30753  23.578   5.747  13.519
58340W        W30754   7.328  38.946  14.855
58341W        W30755  23.996  30.002   2.314
58342W        W30756  13.799  43.845   1.302
58343W        W30757  26.058   8.810  13.445
58344W        W30758  35.971   7.217  14.435
58345W        W30759  41.866  24.015  11.915
58346W        W30760  32.560  19.547   1.796
58347W        W30761  22.592  29.117  12.416
58348W        W30762  14.175   7.860   3.157
58349W        W30763   0.404   2.880   4.739
58350W        W30764  21.259  32.469   3.186
58351W        W30765  39.813  11.287  13.330
58352W        W30766  33.073  24.594  10.422
58353W        W30767  38.446  14.723   4.350
58354W        W30768  33.481  12.312  11.381
58355W        W30769  23.081  32.885  11.980
58356W        W30770  27.478  37.428   0.781
58357W        W30771   8.176  26.987  13.981
58358W        W30772  16.723  42.825   1.883
58359W        W30773  42.002  28.553  12.364
58360W        W30774  16.143  16.177   0.894
58361W        W30775  24.119  38.991   2.238
58362W        W30776   8.720  17.560  12.500
58363W        W30777   2.729   8.768  10.541
58364W        W30778  23.993  42.307   0.865
58365W        W30779   6.789   9.683  11.527
58366W        W30780  36.554  20.175   2.237
58367W        W30781  23.193  31.457  13.964
58368W        W30782   7.299  20.621  13.418
58369W        W30783  40.308  10.151  14.294
58370W        W30784   2.280  33.590  10.432
58371W        W30785  25.506   0.370   2.387
58372W        W30786  28.010  29.934   2.815
58373W        W30787   9.668  37.984   1.315
58374W        W30788   2.894  21.156  12.466
58375W        W30789  41.950  39.826  13.475
58376W        W30790  13.746   4.879  13.309
58377W        W30791   3.801  28.670   1.915
58378W        W30792  29.041  34.390   4.660
58379W        W30793  26.539  28.576  13.948
58380W        W30794  32.415  40.981   0.453
58381W        W30795  22.739  18.569   0.887
58382W        W30796  29.945  41.893  14.507
58383W        W30797  21.600  15.608   3.307
58384W        W30798  37.847   8.189   0.935
58385W        W30799  40.920  31.419   2.677
58386W        W30800  23.645  14.205   0.290
58387W        W30801  30.026  39.424  12.869
58388W        W30802  13.283  25.712  11.114
58389W        W30803   7.272  25.481  13.340
58390W        W30804  32.903  26.578   4.300
58391W        W30805  21.522   1.842  12.926
58392W        W30806  34.508  14.176  11.862
58393W        W30807  16.774   8.739  11.600
58394W        W30808  43.861  25.663  13.008
58395W        W30809  26.197  21.213  10.027
58396W        W30810  30.444  23.696   3.813
58397W        W30811  15.666  27.604   0.467
58398W        W30812  14.235  44.355  12.476
58399W        W30813  43.943  26.644   2.184
58400W        W30814  22.166  18.053   1.786
58401W        W30815   8.320  37.889   2.761
58402W        W30816  38.029  14.689   0.882
58403W        W30817  36.436  17.641   3.680
58404W        W30818  23.583  15.302  13.002
58405W        W30819  20.580   6.338   0.289
58406W        W30820   3.881   1.939  14.336
58407W        W30821  17.268   5.339  13.339
58408W        W30822   2.353  18.089   0.451
58409W        W30823  35.584  17.700   1.361
58410W        W30824  12.798  40.032   3.307
58411W        W30825  31.647   6.399   1.328
58412W        W30826  34.017  44.785  10.641
58413W        W30827   9.738   2.379  14.346
58414W        W30828  33.073  30.033   1.741
58415W        W30829  22.207  12.814   0.925
58416W        W30830  20.552  14.764  12.963
58417W        W30831  33.398  13.791  10.948
58418W        W30832  18.732   9.717  10.582
58419W        W30833  33.392  36.472  14.500
58420W        W30834  13.743   9.772   3.663
58421W        W30835   5.243  20.143   3.851
58422W        W30836  33.435   6.305  13.966
58423W        W30837  14.741  24.642  14.370
58424W        W30838  37.543  42.433  12.058
58425W        W30839  43.317  25.618  10.618
58426W        W30840   9.350  17.793   2.194
58427W        W30841  18.621  21.070   0.398
58428W        W30842  32.611  26.701  12.508
58429W        W30843   0.327  29.075  12.937
58430W        W30844  24.215  10.182   2.723
58431W        W30845   1.429  10.789   1.925
58432W        W30846  14.140   4.350  14.886
58433W        W30847  39.366  15.719   3.683
58434W        W30848   4.718  44.486   1.287
58435W        W30849  21.624  34.399   4.231
58436W        W30850  19.230  40.309   2.275
58437W        W30851  40.521  30.027   4.717
58438W        W30852   0.292  28.559  14.371
58439W        W30853  41.835  11.315   3.168
58440W        W30854   5.383  34.505  11.502
58441W        W30855  28.633  39.377   0.445
58442W        W30856  16.298  12.750  10.549
58443W        W30857  30.919   8.691  11.993
58444W        W30858   8.800  16.591  14.506
58445W        W30859  39.062  20.578   0.966
58446W        W30860  16.573   9.778   1.723
58447W        W30861   6.306   2.364  13.968
58448W        W30862  41.928  14.803  12.410
58449W        W30863  42.937  29.456   4.678
58450W        W30864  21.574  27.992   3.296
58451W        W30865   3.844  37.548   1.266
58452W        W30866   9.766   6.702   1.871
58453W        W30867  30.161  18.138   0.925
58454W        W30868  36.446  18.750   2.361
58455W        W30869  17.686  17.180  14.439
58456W        W30870  13.176  26.689   1.452
58457W        W30871  12.650  18.059  14.359
58458W        W30872   2.861   1.481   2.324
58459W        W30873  30.611   2.330   4.324
58460W        W30874  37.995  39.998  12.462
58461W        W30875  39.813  20.126   0.471
58462W        W30876  41.427  34.556  13.854
58463W        W30877  17.580  19.671  14.507
58464W        W30878  43.369  34.009  11.875
58465W        W30879  42.350   6.232   1.306
58466W        W30880  11.817   1.881   4.323
58467W        W30881  24.707  15.160   5.243
58468W        W30882   3.744  34.426   4.641
58469W        W30883   2.861   9.715   2.752
58470W        W30884  40.544   7.833  13.307
58471W        W30885  19.714  42.435   4.645
58472W        W30886  25.479  43.783   4.669
58473W        W30887  32.415   0.949  14.506
58474W        W30888  40.946  16.652  11.498
58475W        W30889  27.589  29.111  13.841
58476W        W30890  33.102  39.412   1.423
58477W        W30891  23.066  27.551  11.873
58478W        W30892   9.792  41.804   2.838
58479W        W30893   2.893  38.388  13.041
58480W        W30894  32.970  15.759  13.821
58481W        W30895  37.412  39.047   3.335
58482W        W30896  39.390  22.029  13.324
58483W        W30897  39.554  27.196  13.318
58484W        W30898  17.269  30.141  13.053
58485W        W30899  21.744  27.118  12.853
58486W        W30900  15.220  14.314   4.699
58487W        W30901  21.040  29.154   4.203
58488W        W30902  16.749  17.187   4.196
58489W        W30903  28.038  14.656  11.943
58490W        W30904   8.252   9.272   4.142
58491W        W30905  29.100   3.792  10.591
58492W        W30906  31.615  31.981   4.612
58493W        W30907  29.642  10.302  14.458
58494W        W30908   5.810   2.798   3.753
58495W        W30909  21.108  33.419   2.416
58496W        W30910  31.444   6.919   0.312
58497W        W30911   8.394  12.748  11.954
58498W        W30912  33.915  17.601   1.318
58499W        W30913  35.395  17.775  13.529
58500W        W30914  30.005  43.824   0.782
58501W        W30915  27.649  24.109  14.844
58502W        W30916   4.296  41.921   4.180
58503W        W30917   5.696  31.923   3.642
58504W        W30918  23.676  35.954  10.577
58505W        W30919   0.971  27.030  14.289
58506W        W30920  21.140  13.260  11.901
58507W        W30921   5.728  18.146  10.467
58508W        W30922  43.299  44.009  13.309
58509W        W30923   2.456  38.353   2.713
58510W        W30924   5.367  30.556   0.401
58511W        W30925  26.138  18.737  14.026
58512W        W30926  16.623  13.129   4.739
58513W        W30927  40.895   8.209   4.670
58514W        W30928   6.339  26.124   1.294
58515W        W30929   0.771  17.640  10.592
58516W        W30930  16.247   8.231   3.353
58517W        W30931  12.323  36.512   1.391
58518W        W30932  22.068   0.938   0.433
58519W        W30933  13.329  10.828   2.301
58520W        W30934  43.891  36.921  10.634
58521W        W30935  15.238  44.009  11.961
58522W        W30936  18.619  21.263  14.892
58523W        W30937  32.556  43.413   2.394
58524W        W30938  14.198  43.374  12.396
58525W        W30939  17.792  27.977  14.872
58526W        W30940  25.680   8.240  14.514
58527W        W30941  14.166   5.431   3.145
58528W        W30942   7.219  27.175  12.087
58529W        W30943  16.650  34.986  12.001
58530W        W30944  20.160   8.852   2.368
58531W        W30945  19.605  36.026   2.833
58532W        W30946   9.305  29.647   1.756
58533W        W30947  19.668  15.636  11.421
58534W        W30948  29.118  14.245  14.363
58535W        W30949  30.099  23.529  11.946
58536W        W30950  33.467  21.744   0.336
58537W        W30951  23.564   1.259  10.586
58538W        W30952   2.388  30.001   4.238
58539W        W30953  38.070  25.207   0.333
58540W        W30954   8.722  26.142  14.340
58541W        W30955  15.705  19.233  11.882
58542W        W30956   4.796  14.303  10.047
58543W        W30957   0.366   5.282  14.474
58544W        W30958  33.061  22.548   2.718
58545W        W30959  30.163  18.765   4.344
58546W        W30960  41.963  31.910  12.002
58547W        W30961  15.226   9.357   1.719
58548W        W30962  26.002  42.913   4.722
58549W        W30963  22.174  12.264   3.209
58550W        W30964  14.794  25.651  12.362
58551W        W30965  35.103   3.409  13.339
58552W        W30966  27.479  39.044   1.718
58553W        W30967  11.266  41.945   2.795
58554W        W30968  14.818   8.872   2.735
58555W        W30969  33.065  30.554   2.826
58556W        W30970  44.971  30.456  13.518
58557W        W30971  35.927  22.145   1.356
58558W        W30972  17.306  44.757   0.830
58559W        W30973   2.893  19.630   1.764
58560W        W30974   8.722   6.412  12.537
58561W        W30975   1.372   8.381  10.937
58562W        W30976  22.598   0.252   1.705
58563W        W30977  27.532  24.161  10.986
58564W        W30978  29.558  22.627   4.286
58565W        W30979  29.429  38.508  11.893
58566W        W30980   3.414  35.024   4.323
58567W        W30981  19.607  17.675  13.530
58568W        W30982   4.781  14.736   1.881
58569W        W30983   7.228  29.499   3.743
58570W        W30984  11.634   4.234  11.576
58571W        W30985   6.686  25.551  12.887
58572W        W30986   8.364  35.429   2.291
58573W        W30987  24.714  28.662  14.965
58574W        W30988  44.820  38.420  10.951
58575W        W30989   2.929  10.298  12.532
58576W        W30990  35.050  25.203  10.047
58577W        W30991  22.706  38.070  14.925
58578W        W30992   3.437  11.776   2.708
58579W        W30993  41.491  17.631   3.854
58580W        W30994  22.164  13.609  12.496
58581W        W30995  44.812  26.001  13.018
58582W        W30996  27.596   5.844   4.175
58583W        W30997  31.500  17.733   2.857
58584W        W30998  27.554  41.493   1.298
58585W        W30999  11.711  38.886  14.899
58586W        W31000  18.251  28.001  10.558
58587W        W31001  24.020   7.283  11.068
58588W        W31002  37.384  39.924  10.098
58589W        W31003  25.609  35.586   3.690
58590W        W31004  15.208  34.451  11.094
58591W        W31005  29.540  14.601  10.643
58592W        W31006  15.637  15.820  11.885
58593W        W31007   1.756  10.691   3.253
58594W        W31008  20.182  26.474   4.819
58595W        W31009   7.277  11.811  13.312
58596W        W31010  35.060  35.377   3.673
58597W        W31011  13.797  28.600   0.338
58598W        W31012  39.052  41.809  13.853
58599W        W31013   5.897  28.947  14.370
58600W        W31014  13.229  18.606  10.001
58601W        W31015  36.022  11.276  12.393
58602W        W31016  32.898  10.181  11.038
58603W        W31017   5.700  23.582   2.698
58604W        W31018  31.003  44.349  11.099
58605W        W31019  20.169   6.702   4.640
58606W        W31020  25.090  14.336  11.000
58607W        W31021  40.020  13.236   0.966
58608W        W31022  23.055  35.532  12.366
58609W        W31023  25.068  23.709   4.753
58610W        W31024  13.628   9.802  14.481
58611W        W31025  27.534  37.836   2.696
58612W        W31026  29.639  44.456   1.252
58613W        W31027  18.098  22.047  14.935
58614W        W31028  24.999  30.034  13.017
58615W        W31029  39.411  33.103  11.444
58616W        W31030  32.992  10.137   3.246
58617W        W31031  28.012  35.409   1.695
58618W        W31032   1.279  18.653  13.448
58619W        W31033  18.189  22.550  10.964
58620W        W31034  27.671  33.552   0.387
58621W        W31035  25.532  26.203   3.715
58622W        W31036  12.214  10.797  11.560
58623W        W31037  19.058  18.277  11.502
58624W        W31038   5.216  41.524   3.722
58625W        W31039  24.180  35.102   4.655
58626W        W31040  19.259  35.058   3.297
58627W        W31041   0.876  39.497  11.591
58628W        W31042   0.299  32.599   2.187
58629W        W31043  17.252  21.565  14.504
58630W        W31044   8.271  39.339  12.972
58631W        W31045  13.136   7.185   3.705
58632W        W31046   7.875   1.836   4.286
58633W        W31047  35.544  17.216   2.279
58634W        W31048  27.522  41.470   2.277
58635W        W31049  23.670  32.445  11.883
58636W        W31050  23.567   0.970   4.818
58637W        W31051   9.650  31.001  10.555
58638W        W31052  39.027  16.811   1.377
58639W        W31053  35.856   4.209   1.928
58640W        W31054  40.009   9.787  13.888
58641W        W31055  37.526  33.551   3.270
58642W        W31056  26.169  33.960   4.833
58643W        W31057   3.292  13.739  12.343
58644W        W31058  21.150   9.672   0.797
58645W        W31059  32.428  42.373   4.816
58646W        W31060  44.788  44.323  13.487
58647W        W31061   2.334  12.640   0.325
58648W        W31062   8.229  23.194  12.518
58649W        W31063  22.660  20.065  10.029
58650W        W31064  25.525  18.184   5.189
58651W        W31065  12.815   1.238  12.093
58652W        W31066  42.904   5.249  14.793
58653W        W31067  28.612  30.498  10.582
58654W        W31068   8.654  29.601  13.020
58655W        W31069  40.829  44.902  14.336
58656W        W31070   6.227  21.058   0.835
58657W        W31071  36.904  31.001  11.506
58658W        W31072  39.053  12.171  12.872
58659W        W31073  23.088  18.662  13.801
58660W        W31074   6.735  20.544  11.406
58661W        W31075  31.946  23.528  12.903
58662W        W31076  29.002  34.980   2.870
58663W        W31077   5.698  17.094  11.512
58664W        W31078  12.343  30.962   2.723
58665W        W31079  33.464   1.272   1.424
58666W        W31080   8.368  14.639  13.843
58667W        W31081  27.011  18.716  11.449
58668W        W31082  20.571  24.673  12.866
58669W        W31083  40.849  10.291  11.002
58670W        W31084  19.197  19.773   4.698
58671W        W31085   3.877  44.448  12.382
58672W        W31086   3.409  27.065   1.760
58673W        W31087  15.166  38.891  12.436
58674W        W31088   3.281  36.093  13.425
58675W        W31089  19.745  18.081   4.335
58676W        W31090  33.558  18.595   3.366
58677W        W31091   1.372  37.531  13.999
58678W        W31092  11.364  18.620   4.127
58679W        W31093  34.015  26.975   0.419
58680W        W31094  38.456  41.383   3.347
58681W        W31095  36.894  16.104  12.024
58682W        W31096   0.342  21.197   1.369
58683W        W31097   1.832  40.517  14.441
58684W        W31098  30.484  44.798   3.345
58685W        W31099  29.434  42.869   4.344
58686W        W31100  25.054  23.025  10.944
58687W        W31101  37.957  20.198   4.665
58688W        W31102  26.465   3.267  13.875
58689W        W31103  25.488   4.862  12.449
58690W        W31104   4.900  21.735   2.692
58691W        W31105   5.348  24.719  14.857
58692W        W31106  28.615  36.908  10.579
58693W        W31107  43.283  18.606   1.307
58694W        W31108  27.136  28.026  10.924
58695W        W31109   4.241  16.640  12.500
58696W        W31110  11.663  20.670   3.356
58697W        W31111  21.264  19.092  14.881
58698W        W31112  39.013  11.808   2.893
58699W        W31113  37.546  29.464  13.332
58700W        W31114  29.668  36.355   1.264
58701W        W31115  18.761  25.088  11.524
58702W        W31116   9.273  40.871   4.713
58703W        W31117  20.700  21.127  11.062
58704W        W31118  43.394  16.232   2.834
58705W        W31119   3.728  15.101  12.482
58706W        W31120  39.967   3.436   4.142
58707W        W31121   0.462  13.157  10.890
58708W        W31122   3.362  39.506   2.385
58709W        W31123  21.708  22.206   0.735
58710W        W31124   8.366   2.888   0.256
58711W        W31125  41.791   7.754  14.006
58712W        W31126  38.571  23.183   1.777
58713W        W31127   3.763  11.625   3.383
58714W        W31128  24.541  18.651  12.854
58715W        W31129  37.488  27.067   4.144
58716W        W31130  39.502   4.446   0.933
58717W        W31131  30.143  18.172  14.962
58718W        W31132   3.768  31.066   0.922
58719W        W31133  32.122   2.377  14.495
58720W        W31134  16.178  37.081   0.816
58721W        W31135  24.117   2.383   4.182
58722W        W31136  36.847  21.022  13.831
58723W        W31137  15.705  27.989   0.450
58724W        W31138  21.074  22.516  10.501
58725W        W31139  41.476  18.187  12.986
58726W        W31140  11.352  28.479  11.511
58727W        W31141   0.953   8.775   2.342
58728W        W31142  10.772  32.427  14.426
58729W        W31143  10.320  15.248  11.442
58730W        W31144  37.011  37.473  11.057
58731W        W31145  22.573  24.667  12.488
58732W        W31146  21.256  32.887   1.728
58733W        W31147  33.564  40.813  10.591
58734W        W31148   3.348   6.232   1.384
58735W        W31149  30.503  43.962   0.839
58736W        W31150  26.509  16.736  10.925
58737W        W31151  38.413  27.106  12.938
58738W        W31152  42.490   6.304  12.568
58739W        W31153   6.746  25.713   1.211
58740W        W31154  31.551  36.877   3.785
58741W        W31155  15.173  40.419  11.575
58742W        W31156  32.566  23.143   4.241
58743W        W31157  23.008   5.262  13.818
58744W        W31158  10.316   4.828  12.044
58745W        W31159  16.615  12.766   0.417
58746W        W31160  13.781   2.921   2.250
58747W        W31161  17.649  27.125   4.686
58748W        W31162  24.982  34.571  14.419
58749W        W31163   2.310  10.722  11.506
58750W        W31164  29.953  22.677  10.901
58751W        W31165  32.406   9.381  14.882
58752W        W31166   0.863  41.844   1.914
58753W        W31167  20.540  41.387   4.222
58754W        W31168  20.703   2.412   4.318
58755W        W31169  42.878  34.951   3.306
58756W        W31170  21.088  17.786  13.999
58757W        W31171  16.660  24.600   0.842
58758W        W31172  11.164  20.562   3.284
58759W        W31173   5.286  38.385   2.673
58760W        W31174  17.689  18.561  11.947
58761W        W31175  33.000  13.703   2.195
58762W        W31176   5.254   3.769  11.598
58763W        W31177  16.271  43.452   1.359
58764W        W31178   3.455  11.311   2.249
58765W        W31179  26.609  40.807   4.645
58766W        W31180  34.086  14.305   3.821
58767W        W31181   7.412  32.130   4.350
58768W        W31182  36.502   1.858  12.489
58769W        W31183  23.538  43.896   3.644
58770W        W31184  21.169  15.625  13.366
58771W        W31185  40.535  39.986   3.165
58772W        W31186  32.119  26.539  11.547
58773W        W31187  39.357  10.260   2.316
58774W        W31188   2.863  11.213  12.402
58775W        W31189  22.598   2.357   3.756
58776W        W31190  37.865  23.556  10.513
58777W        W31191  16.113  44.843   0.934
58778W        W31192  22.538   7.367  12.546
58779W        W31193   4.899  11.779   4.680
58780W        W31194  11.660  32.463   1.915
58781W        W31195   6.223   1.939  11.012
58782W        W31196  33.618  30.631   0.388
58783W        W31197  27.176   6.324   1.723
58784W        W31198  44.866  16.624   4.755
58785W        W31199  38.914  27.979   2.766
58786W        W31200  42.337  41.855  10.529
58787W        W31201  28.115  43.352   0.277
58788W        W31202   6.738  14.748   1.211
58789W        W31203  31.994  13.245   5.266
58790W        W31204   0.359   0.482  14.421
58791W        W31205  31.635  13.192  11.073
58792W        W31206  20.153   5.929  11.449
58793W        W31207   7.785  21.258   4.299
58794W        W31208  17.257  42.427   4.742
58795W        W31209  20.717  22.207  10.916
58796W        W31210  43.404  12.157   1.736
58797W        W31211   7.841  13.200   3.689
58798W        W31212  33.437  31.456   4.279
58799W        W31213   5.312   7.210   4.729
58800W        W31214   0.378  43.938   2.298
58801W        W31215  37.893   1.270  14.404
58802W        W31216  24.615   2.261  14.852
58803W        W31217  28.569  10.667  13.999
58804W        W31218  29.538  10.636  11.951
58805W        W31219  26.699  15.717  14.802
58806W        W31220  23.025   6.838  11.582
58807W        W31221  26.608   1.947  10.959
58808W        W31222  24.048  26.183  11.457
58809W        W31223  25.500  28.136  14.356
58810W        W31224  23.526  22.605   1.233
58811W        W31225  18.585  22.006  11.467
58812W        W31226  13.714  38.842   2.268
58813W        W31227  36.573  15.251   1.869
58814W        W31228  41.945  31.002   3.820
58815W        W31229  44.892  22.087  11.021
58816W        W31230   5.285  20.091  10.406
58817W        W31231  33.095  23.608  10.422
58818W        W31232  10.870  28.955  10.914
58819W        W31233  34.935  26.517   1.792
58820W        W31234  12.311  15.182   3.713
58821W        W31235   3.801  31.939   1.752
58822W        W31236  23.054  15.090  12.482
58823W        W31237  44.827  36.575   1.728
58824W        W31238  34.991   2.955   1.350
58825W        W31239  19.181   6.196  11.944
58826W        W31240  27.587  16.805   2.380
58827W        W31241  14.185  18.171   1.413
58828W        W31242   0.798  23.209   4.335
58829W        W31243   2.854  16.714  13.315
58830W        W31244  36.516  42.522   4.781
58831W        W31245  35.886  25.501  13.465
58832W        W31246  42.299  43.785   3.169
58833W        W31247  25.669  21.150  12.432
58834W        W31248  43.371  31.123  11.916
58835W        W31249  18.179  40.339  13.924
58836W        W31250   7.177  32.610  12.559
58837W        W31251  39.517  32.396   4.663
58838W        W31252  34.109  36.971   0.895
58839W        W31253  21.228  38.562   1.775
58840W        W31254   9.684   4.442  11.052
58841W        W31255  13.206  17.257   4.162
58842W        W31256   7.387  26.045   1.421
58843W        W31257  10.372  33.103  12.475
58844W        W31258  26.581  34.594   4.120
58845W        W31259  29.162   2.746   2.755
58846W        W31260  38.044  37.041   0.430
58847W        W31261  38.034  40.436   3.668
58848W        W31262  39.444  24.607   3.201
58849W        W31263  35.863  23.523   4.230
58850W        W31264  40.022  23.109  10.920
58851W        W31265   2.824  22.695   4.130
58852W        W31266  34.440  25.213  11.872
58853W        W31267   5.845   0.392  14.320
58854W        W31268  34.934  28.007  14.501
58855W        W31269  15.142  23.529   0.450
58856W        W31270  32.083  41.920  12.060
58857W        W31271  18.692  25.641  11.541
58858W        W31272  30.572  22.191   3.318
58859W        W31273  17.585  44.440   4.769
58860W        W31274  33.568  13.761  11.867
58861W        W31275  17.710  29.480   1.303
58862W        W31276  36.505  14.277   2.345
58863W        W31277  20.635  37.004   0.728
58864W        W31278  22.707  42.947   4.317
58865W        W31279  34.863  25.002  14.420
58866W        W31280  22.515   6.893  13.874
58867W        W31281   9.663  13.831  11.478
58868W        W31282  43.920  31.477  10.945
58869W        W31283  36.028   1.416   1.849
58870W        W31284  24.157  29.976   0.733
58871W        W31285  11.677  40.825   0.450
58872W        W31286  36.045  11.830   2.767
58873W        W31287   7.308   5.720  14.481
58874W        W31288  15.132  14.604  14.475
58875W        W31289  18.597  42.834   3.242
58876W        W31290  42.372   0.782   3.769
58877W        W31291   5.212   4.856  10.903
58878W        W31292  34.884  25.505   3.646
58879W        W31293  17.794  12.791   4.779
58880W        W31294  44.007  43.324   1.919
58881W        W31295  15.696  16.247  13.513
58882W        W31296   6.876  34.929   4.146
58883W        W31297   7.765  34.405   1.902
58884W        W31298  40.029   6.270  12.392
58885W        W31299  10.681  25.566  10.477
58886W        W31300  43.945   8.693  10.598
58887W        W31301  37.548   4.798   4.189
58888W        W31302  13.678  22.671  12.931
58889W        W31303   3.773  22.998   3.675
58890W        W31304  44.308  17.664  14.827
58891W        W31305  21.640  14.229  13.907
58892W        W31306  34.591  25.136   3.293
58893W        W31307  29.976  28.562  12.369
58894W        W31308  31.055  19.605  12.946
58895W        W31309  30.443  36.531   1.420
58896W        W31310  39.392  41.986  14.288
58897W        W31311  19.603  26.036   3.810
58898W        W31312  21.070  41.453   3.315
58899W        W31313  34.560  26.463   0.350
58900W        W31314  30.568  41.395   2.182
58901W        W31315  16.294  17.297  13.453
58902W        W31316   7.899   9.726  10.630
58903W        W31317  24.116  21.517  12.422
58904W        W31318  40.334  32.979   3.666
58905W        W31319   4.865  36.521  11.410
58906W        W31320   4.753   6.853   3.772
58907W        W31321  24.668  44.266   1.268
58908W        W31322  14.622  29.152  13.321
58909W        W31323  40.901  27.030  14.876
58910W        W31324  14.292  20.190   5.249
58911W        W31325  27.140   9.759   2.836
58912W        W31326  29.590   8.772  12.917
58913W        W31327  18.563   5.930  13.851
58914W        W31328  41.527  39.045  11.544
58915W        W31329   2.724   2.339  14.831
58916W        W31330   4.761   0.766   1.301
58917W        W31331  43.975   0.272   1.431
58918W        W31332  35.545  18.756  11.430
58919W        W31333   6.877  15.279   0.853
58920W        W31334   6.911   8.863   1.871
58921W        W31335  33.000   7.906  12.508
58922W        W31336   2.306   4.787   1.336
58923W        W31337  28.605  28.461   4.162
58924W        W31338  41.795  32.565   2.413
58925W        W31339  39.486  28.519   2.683
58926W        W31340  24.723  23.548   1.389
58927W        W31341  20.203  12.199  13.376
58928W        W31342  31.125  21.703  12.514
58929W        W31343  28.947   2.739  11.523
58930W        W31344   0.269   9.182  12.032
58931W        W31345  15.219   5.417  11.107
58932W        W31346  21.686  26.534   0.266
58933W        W31347   6.371   3.942  13.410
58934W        W31348  23.518   1.918   3.146
58935W        W31349  23.161  35.482   2.685
58936W        W31350  34.876  17.111  11.541
58937W        W31351  36.983  42.390   4.248
58938W        W31352  32.624  23.623  14.017
58939W        W31353   2.937  35.923   2.200
58940W        W31354  10.798  12.279   4.772
58941W        W31355  37.359  33.620  13.343
58942W        W31356  12.684  29.486   2.879
58943W        W31357  36.476  31.897  13.342
58944W        W31358   8.310  30.632  12.350
58945W        W31359   8.394  19.554  12.030
58946W        W31360   4.208  34.958   3.257
58947W        W31361  17.799  33.071  14.869
58948W        W31362  41.416  29.932  11.873
58949W        W31363  13.258  41.922  10.611
58950W        W31364  15.801  32.115  13.475
58951W        W31365   4.308  10.264  14.332
58952W        W31366   1.439  16.205  14.956
58953W        W31367  13.734  19.760   0.367
58954W        W31368  21.216   8.850  14.956
58955W        W31369  27.686   8.749   4.833
58956W        W31370  24.108  31.023  13.363
58957W        W31371  39.333  17.187   2.795
58958W        W31372  12.771  25.533  11.407
58959W        W31373   6.399  19.618   1.245
58960W        W31374  26.972  13.772  12.037
58961W        W31375  26.464  15.137   1.348
58962W        W31376  33.931  27.027   4.150
58963W        W31377  10.175   2.392   2.898
58964W        W31378   4.237  17.768   0.845
58965W        W31379  35.041  43.864   4.639
58966W        W31380  14.163  35.457   2.199
58967W        W31381  20.664  40.977   2.292
58968W        W31382  10.362  11.866  12.888
58969W        W31383  25.052  26.053  10.500
58970W        W31384  18.707  41.449  13.461
58971W        W31385  14.742  12.612   0.750
58972W        W31386  16.710  15.212   3.299
58973W        W31387  15.707  23.068  12.554
58974W        W31388  38.340  13.754  13.463
58975W        W31389  26.510  34.965   2.733
58976W        W31390  37.440  14.591  13.921
58977W        W31391  41.446  30.490   1.396
58978W        W31392   7.794   9.361  10.456
58979W        W31393  38.971  34.904   0.450
58980W        W31394   6.198  18.086  12.834
58981W        W31395  40.014  42.011   2.255
58982W        W31396   3.859  22.654  11.563
58983W        W31397  31.030  39.821  11.075
58984W        W31398  37.012  26.032  14.438
58985W        W31399  28.665  43.975  10.412
58986W        W31400  14.259   9.744  14.995
58987W        W31401  12.736  24.086   1.695
58988W        W31402  35.963  38.391   2.398
58989W        W31403  25.210  28.529  10.952
58990W        W31404  38.480  43.909  14.281
58991W        W31405  12.250   5.252   0.280
58992W        W31406  13.310   8.404  14.345
58993W        W31407  17.767  31.613   0.756
58994W        W31408  33.482  36.070   2.824
58995W        W31409  23.173   4.316  12.400
58996W        W31410  21.694  33.565  13.051
58997W        W31411  19.237  14.203  13.855
58998W        W31412  42.844  36.867  12.454
58999W        W31413  11.213  16.143   0.330
59000W        W31414  40.488   5.383  14.474
59001W        W31415  19.650   0.824   4.295
59002W        W31416   5.417  43.770   1.288
59003W        W31417   5.256  41.908   9.951
59004W        W31418  42.444  16.730   0.833
59005W        W31419  22.717  16.223   0.266
59006W        W31420  18.119  13.832   0.832
59007W        W31421  14.267  22.610  12.469
59008W        W31422  30.510  25.655  12.472
59009W        W31423  28.623  34.531  11.607
59010W        W31424  42.821  19.069  13.481
59011W        W31425  12.229  29.068   1.932
59012W        W31426  25.543   6.184  12.875
59013W        W31427  26.531   5.771   4.181
59014W        W31428  14.640   2.416   4.244
59015W        W31429  27.133  21.119   2.675
59016W        W31430  28.651  30.908   3.659
59017W        W31431  24.598  11.669   4.188
59018W        W31432  13.265  23.183  10.547
59019W        W31433  12.239  37.539  13.975
59020W        W31434  32.542  29.595   3.728
59021W        W31435  27.594   1.839  11.458
59022W        W31436  17.576  31.976   0.452
59023W        W31437  13.192  29.565  10.916
59024W        W31438   7.905  26.076   3.670
59025W        W31439  18.760  39.354   2.383
59026W        W31440  10.375   4.735  10.459
59027W        W31441  33.466  38.819   4.688
59028W        W31442  38.382  19.136  14.407
59029W        W31443  30.018  38.453  11.372
59030W        W31444  12.236  40.466  14.347
59031W        W31445  35.358  22.139   3.809
59032W        W31446  29.626  24.053   1.398
59033W        W31447  23.610  22.015  12.407
59034W        W31448  44.446   3.784   3.198
59035W        W31449  26.061  43.785   1.878
59036W        W31450  10.676  42.370  10.455
59037W        W31451  18.703  24.999   4.800
59038W        W31452  35.872  19.156  13.942
59039W        W31453  14.724  18.634  10.966
59040W        W31454  25.676  25.050   1.703
59041W        W31455  44.944  23.653  11.014
59042W        W31456  29.598  13.796  14.815
59043W        W31457  25.056  37.506  11.548
59044W        W31458  43.779  42.883  13.452
59045W        W31459  38.342  16.659  13.477
59046W        W31460  42.991  16.213   2.263
59047W        W31461  16.705  13.783  12.845
59048W        W31462  19.602  20.562   4.618
59049W        W31463  40.467  30.969   0.451
59050W        W31464  35.872  16.185  14.892
59051W        W31465  15.278  27.452  10.470
59052W        W31466  38.956   0.798   4.183
59053W        W31467  40.400   6.231   0.399
59054W        W31468  17.561  13.202   4.792
59055W        W31469   1.417  21.103   3.640
59056W        W31470  31.941  32.475   0.372
59057W        W31471  40.834  13.201  12.029
59058W        W31472  29.598  26.676   2.261
59059W        W31473  16.776  33.429   2.720
59060W        W31474  34.902  31.003  11.444
59061W        W31475  34.869  19.148  12.921
59062W        W31476   3.942  44.361   4.179
59063W        W31477   9.344   7.785  10.974
59064W        W31478  40.826  38.028  10.951
59065W        W31479  13.641   9.294  11.561
59066W        W31480   2.280  24.998   0.819
59067W        W31481  42.008  42.821   2.727
59068W        W31482  41.979  22.549  13.478
59069W        W31483  16.761  25.087  11.540
59070W        W31484  15.659   3.835   4.304
59071W        W31485  29.585  41.370  14.396
59072W        W31486  27.469   8.174   3.229
59073W        W31487  28.186   8.329  11.065
59074W        W31488  44.879   4.296   1.897
59075W        W31489  36.982  42.940  14.808
59076W        W31490  17.751  41.905  11.060
59077W        W31491  44.832  33.901  12.889
59078W        W31492  20.167  36.891  14.288
59079W        W31493  17.672  38.495  10.912
59080W        W31494  25.632  11.798   0.403
59081W        W31495  30.449  13.287   2.268
59082W        W31496  32.078  14.654  10.463
59083W        W31497  21.263  32.108   4.731
59084W        W31498  11.716  15.178  11.030
59085W        W31499   8.304  26.479  10.118
59086W        W31500  22.574  42.845  12.369
59087W        W31501  34.977  16.177   4.124
59088W        W31502  44.976  28.603   2.399
59089W        W31503  42.411  17.759  12.403
59090W        W31504  21.748  20.638  11.906
59091W        W31505   6.912  37.984   3.377
59092W        W31506  18.601  10.663   0.281
59093W        W31507  41.390   0.358  12.045
59094W        W31508  44.856  13.157   2.763
59095W        W31509  43.355   2.863  13.347
59096W        W31510  28.589  26.561   1.729
59097W        W31511  11.165  38.828   3.209
59098W        W31512   9.855   5.274   0.444
59099W        W31513  44.884  14.653  10.534
59100W        W31514  18.224   8.333  10.544
59101W        W31515  40.838  32.460  11.491
59102W        W31516  23.614  26.989  10.605
59103W        W31517  13.309  22.595   4.712
59104W        W31518  20.101  27.624   3.762
59105W        W31519   9.377  24.497  11.546
59106W        W31520  39.830  10.344  10.633
59107W        W31521  24.999  28.583   0.770
59108W        W31522  11.842  27.473   0.822
59109W        W31523  22.071   1.410   3.630
59110W        W31524  20.540  26.460   0.468
59111W        W31525   8.688   7.314   2.809
59112W        W31526  19.285   3.923  14.358
59113W        W31527  37.354  14.334   4.278
59114W        W31528  15.685  16.206   3.345
59115W        W31529  25.689  19.075   4.629
59116W        W31530  40.833   5.415  13.437
59117W        W31531  16.612  43.987  11.560
59118W        W31532  36.408  39.818  12.533
59119W        W31533  42.411  24.639  10.942
59120W        W31534   4.334  18.733  14.441
59121W        W31535  40.054  27.458  12.507
59122W        W31536  40.417   0.288  10.489
59123W        W31537  31.939  34.503   0.906
59124W        W31538  30.605  10.183  12.933
59125W        W31539  26.534  41.902   2.753
59126W        W31540   2.306  15.646  12.467
59127W        W31541  41.308   1.395  14.397
59128W        W31542  39.369  19.742   1.304
59129W        W31543  24.154  14.780   2.257
59130W        W31544  35.440  26.525  11.051
59131W        W31545  35.449  20.118  10.504
59132W        W31546   6.270  24.098  12.064
59133W        W31547  28.512  43.848   4.740
59134W        W31548   7.887  33.434   3.313
59135W        W31549  20.710  29.979   1.291
59136W        W31550  28.548   0.272   4.675
59137W        W31551  23.038   6.327  12.486
59138W        W31552   8.387  27.103  14.903
59139W        W31553  40.419  16.159   1.262
59140W        W31554   8.894  29.571   4.198
59141W        W31555  37.086  33.032   2.895
59142W        W31556  19.605  35.483   0.847
59143W        W31557  29.169  10.142  10.491
59144W        W31558  43.825  21.224   4.304
59145W        W31559  23.227  23.226  14.838
59146W        W31560  14.114  10.799   2.837
59147W        W31561  16.775  38.424  12.863
59148W        W31562  16.308  35.002  12.087
59149W        W31563  43.423  24.606   1.283
59150W        W31564   4.245  17.166  13.498
59151W        W31565  24.674   6.741  12.429
59152W        W31566  10.843   2.748   3.658
59153W        W31567  19.634  11.708   3.736
59154W        W31568  19.209  40.355   1.838
59155W        W31569  33.608  24.161   3.265
59156W        W31570  40.891   8.316   3.736
59157W        W31571  19.104   9.670   2.338
59158W        W31572  21.131   0.758   1.804
59159W        W31573  18.216  20.701  11.579
59160W        W31574   5.306  24.221  10.518
59161W        W31575  12.352  41.399   1.888
59162W        W31576   3.734   8.356  11.951
59163W        W31577  14.269  15.820   0.275
59164W        W31578  33.392  17.634   4.602
59165W        W31579  31.132   9.677  12.441
59166W        W31580   2.846  32.519  11.966
59167W        W31581  26.164  20.242   0.859
59168W        W31582  11.628  36.032   0.263
59169W        W31583  13.184  31.071  12.377
59170W        W31584  15.262   0.965   0.800
59171W        W31585  31.486  37.566  14.397
59172W        W31586  37.871  13.654   0.744
59173W        W31587  39.908  29.087  11.599
59174W        W31588  12.123  16.657  11.570
59175W        W31589  34.604  27.601   0.269
59176W        W31590  19.763  33.559  14.404
59177W        W31591  28.994  38.975   0.733
59178W        W31592  41.488  28.007   2.226
59179W        W31593  20.220  37.395  10.630
59180W        W31594  23.167  11.751  12.988
59181W        W31595  32.413  24.602   4.633
59182W        W31596   2.409  20.042   4.762
59183W        W31597  26.518  21.079  13.515
59184W        W31598  44.844  14.824  14.809
59185W        W31599  42.464  34.399  12.501
59186W        W31600  41.442  42.826  10.894
59187W        W31601  33.429   3.230   1.326
59188W        W31602  20.690  38.953  10.634
59189W        W31603   4.274  28.136   1.708
59190W        W31604   6.190  41.433  10.020
59191W        W31605  22.154  40.462   3.643
59192W        W31606  36.407  24.220  10.558
59193W        W31607  10.753  16.740   2.357
59194W        W31608  24.205  25.557  11.539
59195W        W31609  15.648  20.210  11.400
59196W        W31610  37.561  13.653  10.897
59197W        W31611  23.511  26.951   4.816
59198W        W31612   5.408  11.162  11.586
59199W        W31613  25.094  25.646  11.511
59200W        W31614   8.325  18.211  14.388
59201W        W31615  25.110  10.168   4.688
59202W        W31616  30.537  18.598  12.539
59203W        W31617  23.663   4.409  14.941
59204W        W31618  24.650  20.566  10.471
59205W        W31619  32.009   6.736  14.504
59206W        W31620  30.522  10.218   1.374
59207W        W31621  22.699  10.689   3.689
59208W        W31622   4.705  43.311   3.264
59209W        W31623  29.430  40.481  12.922
59210W        W31624   1.462   3.850  12.567
59211W        W31625  11.790  18.633   1.781
59212W        W31626  35.878  32.968   2.275
59213W        W31627  13.698  24.702   0.837
59214W        W31628  22.707  31.573   2.384
59215W        W31629  32.542  42.425  12.993
59216W        W31630  30.104  18.738  14.894
59217W        W31631  41.411  22.048   4.628
59218W        W31632   2.315  20.587   0.789
59219W        W31633  11.752  20.082  12.364
59220W        W31634  30.060  42.889   3.201
59221W        W31635  17.091   0.372  11.959
59222W        W31636  14.240  15.686   4.180
59223W        W31637  16.183  25.602  13.840
59224W        W31638  10.231  19.779  12.564
59225W        W31639  32.592  44.429  14.965
59226W        W31640  16.108  37.493   4.328
59227W        W31641  40.390  21.036  11.570
59228W        W31642  43.856  29.074   1.791
59229W        W31643  12.306  29.120  13.001
59230W        W31644  41.437  24.047  14.398
59231W        W31645   3.711  10.791   2.693
59232W        W31646   7.280  12.233   3.317
59233W        W31647  25.008  15.248  14.341
59234W        W31648  32.973  37.553  13.464
59235W        W31649  36.574  10.789   2.321
59236W        W31650  22.136  24.631  12.956
59237W        W31651  42.902   7.736  11.434
59238W        W31652  14.281  19.570   3.384
59239W        W31653  20.620  36.559   2.693
59240W        W31654  23.704  38.920  13.008
59241W        W31655  30.469  10.144   2.767
59242W        W31656  36.875   3.437   4.120
59243W        W31657  41.449  31.479   1.749
59244W        W31658   4.230  12.699   0.847
59245W        W31659  21.584  34.485  12.881
59246W        W31660  13.786  35.364  13.317
59247W        W31661  30.527  30.008   0.257
59248W        W31662   9.797  17.208  14.450
59249W        W31663  33.956   7.674  14.030
59250W        W31664   8.189  10.153   4.620
59251W        W31665  42.870  15.296  14.817
59252W        W31666  12.224  28.539  11.126
59253W        W31667  15.667   9.667   2.190
59254W        W31668  29.626  43.020   1.915
59255W        W31669  40.989   1.965  14.375
59256W        W31670  30.625  14.248   4.775
59257W        W31671  32.414  25.661  13.965
59258W        W31672  30.435  11.264   0.793
59259W        W31673  35.404   5.401   0.943
59260W        W31674  29.966  39.440  12.094
59261W        W31675  44.756  41.821  12.035
59262W        W31676   4.789  42.866  12.386
59263W        W31677  44.845  37.472  11.979
59264W        W31678   3.870  15.323   1.254
59265W        W31679  42.336  23.196  11.036
59266W        W31680  18.142  20.591   1.868
59267W        W31681   8.304   5.804   2.722
59268W        W31682  26.700  25.547  10.464
59269W        W31683  21.639   8.744   5.142
59270W        W31684   8.899  26.464   1.387
59271W        W31685  30.627  17.175   0.302
59272W        W31686  31.133  40.911  11.521
59273W        W31687  14.692  26.106  14.312
59274W        W31688  10.160  40.476   5.210
59275W        W31689  23.608   5.414   2.770
59276W        W31690  30.471  10.781  11.375
59277W        W31691  27.120   1.353  11.951
59278W        W31692   2.820  26.971   1.211
59279W        W31693   1.402   4.448  10.508
59280W        W31694  30.618  23.149  12.910
59281W        W31695  36.578   7.293  13.438
59282W        W31696   6.761  38.882  14.353
59283W        W31697  16.716  14.340  12.059
59284W        W31698  40.007  40.451   0.886
59285W        W31699  34.524   7.698   3.724
59286W        W31700  38.405  12.130  13.463
59287W        W31701  42.326  20.082  12.403
59288W        W31702  39.402  39.364  10.512
59289W        W31703  15.286   7.275   0.342
59290W        W31704  27.003  17.275   1.857
59291W        W31705  28.542  23.644   3.187
59292W        W31706  30.089  40.524   0.436
59293W        W31707   9.853   2.844   2.707
59294W        W31708  22.713  13.304  14.435
59295W        W31709  26.095  44.977   5.246
59296W        W31710  40.533  37.032  11.528
59297W        W31711  42.402   4.815  14.012
59298W        W31712  34.444  23.613  12.061
59299W        W31713  21.237  43.841   0.283
59300W        W31714  34.041   2.422   2.363
59301W        W31715   3.880  37.505  12.942
59302W        W31716   0.828  22.006   4.662
59303W        W31717  18.276  38.952  14.952
59304W        W31718  10.680   0.421  11.955
59305W        W31719   4.821   2.883   0.932
59306W        W31720   4.829  17.238   0.330
59307W        W31721  26.093  10.839   1.421
59308W        W31722   2.915  18.653  11.018
59309W        W31723  41.866   8.244  12.049
59310W        W31724  41.938  24.591  13.992
59311W        W31725  12.691  44.452   3.702
59312W        W31726  41.459  35.069   2.353
59313W        W31727  34.591   6.330  12.451
59314W        W31728  38.423  17.080  10.552
59315W        W31729  11.284  21.132  13.481
59316W        W31730   4.444  24.186  11.068
59317W        W31731  16.122   0.303   0.472
59318W        W31732  28.044  25.612   4.709
59319W        W31733  43.369  18.223  12.888
59320W        W31734  26.027  38.364  12.062
59321W        W31735  18.652  40.832   4.631
59322W        W31736  37.391  16.801  11.417
59323W        W31737   7.798  40.460  11.377
59324W        W31738  41.876   0.821   3.242
59325W        W31739  29.025  25.018   4.779
59326W        W31740  30.590  42.401   2.674
59327W        W31741  34.439  10.151  11.098
59328W        W31742  40.047  36.075  10.614
59329W        W31743  42.799  32.115   1.794
59330W        W31744   2.460  36.069  14.881
59331W        W31745  36.576  28.151   2.216
59332W        W31746   1.347   3.898   2.393
59333W        W31747  18.160   6.206  13.308
59334W        W31748  35.552  34.375  13.399
59335W        W31749  10.328  34.574  11.541
59336W        W31750   4.936  42.413   3.281
59337W        W31751  28.929  35.508   2.774
59338W        W31752  12.358   6.822   1.288
59339W        W31753  32.578  40.810  14.512
59340W        W31754  37.412  42.842  13.987
59341W        W31755  44.839   2.879   1.303
59342W        W31756  10.176  12.236  13.341
59343W        W31757  42.004  19.226   4.614
59344W        W31758  28.010  35.567  11.567
59345W        W31759  40.386  40.856   0.835
59346W        W31760  36.494   7.233  13.863
59347W        W31761  37.082  14.697  13.029
59348W        W31762  12.664  41.383   1.221
59349W        W31763  20.636  26.022  11.501
59350W        W31764  17.570  19.727   2.804
59351W        W31765  27.002  34.100  12.081
59352W        W31766  15.705  11.753   2.799
59353W        W31767   0.359  31.446   2.413
59354W        W31768  17.242  23.082   3.151
59355W        W31769   5.873  27.094  14.351
59356W        W31770  29.158  13.120   0.449
59357W        W31771  14.266   2.458  11.507
59358W        W31772   3.816  12.288   0.933
59359W        W31773  13.198  43.819  13.873
59360W        W31774  12.640   0.359  14.971
59361W        W31775  14.119  10.740   1.278
59362W        W31776  11.235   6.329  12.448
59363W        W31777  30.979  23.107   2.685
59364W        W31778  30.117   9.195   3.356
59365W        W31779  22.999  36.071   4.163
59366W        W31780  34.893  40.362   4.166
59367W        W31781  11.175  17.145  14.796
59368W        W31782  34.426  30.157  11.006
59369W        W31783  28.184  30.062   4.351
59370W        W31784  35.489  36.549  12.433
59371W        W31785  41.942  31.094   4.776
59372W        W31786  37.451  24.215  13.511
59373W        W31787  40.867   8.785  11.580
59374W        W31788  27.979  13.260  14.828
59375W        W31789  43.893  34.505  14.887
59376W        W31790   0.287   0.761  14.492
59377W        W31791  22.689  20.673  14.762
59378W        W31792  21.519   8.689  11.973
59379W        W31793  24.185  14.599   4.277
59380W        W31794  28.603  37.564  12.510
59381W        W31795   2.444   0.339   1.379
59382W        W31796   1.430  43.439   1.373
59383W        W31797  11.139  24.670  12.549
59384W        W31798  27.580  33.931  11.550
59385W        W31799   6.268  14.746   5.777
59386W        W31800  26.025  43.859   9.444
59387W        W31801  12.678  41.526   2.751
59388W        W31802  32.937  22.504  10.079
59389W        W31803  17.622  38.899  11.588
59390W        W31804  12.822   9.778  11.004
59391W        W31805   0.838  41.007   1.333
59392W        W31806  35.909  16.759  12.005
59393W        W31807  11.307  36.362   2.681
59394W        W31808  25.991   0.763  10.097
59395W        W31809  28.117   9.668   4.272
59396W        W31810  31.579   1.469   2.851
59397W        W31811  13.174   2.293  13.448
59398W        W31812   1.890  26.156   4.350
59399W        W31813  32.634   2.824   4.663
59400W        W31814  40.430  42.444   3.231
59401W        W31815   3.366  43.918   2.884
59402W        W31816  24.069  35.494  13.941
59403W        W31817  22.651  33.396  10.406
59404W        W31818  42.930  14.638  12.576
59405W        W31819   3.406   3.316   4.260
59406W        W31820   0.809  19.157   4.810
59407W        W31821  41.295  25.486   0.863
59408W        W31822  24.641   4.272   0.310
59409W        W31823  20.596  21.625   2.286
59410W        W31824  18.660  23.064   4.302
59411W        W31825  18.648  11.271   0.856
59412W        W31826  32.486  32.062   1.382
59413W        W31827  41.291  23.235  14.465
59414W        W31828  41.413  32.025   5.184
59415W        W31829  27.672  27.086  13.343
59416W        W31830  43.462  41.910  12.460
59417W        W31831  11.790   3.216  14.858
59418W        W31832   4.763  41.358  12.457
59419W        W31833  25.500  38.977  13.910
59420W        W31834   1.246  19.777   0.748
59421W        W31835  31.646  32.548   3.834
59422W        W31836  23.009  40.052   2.236
59423W        W31837  22.684  13.704  12.050
59424W        W31838   0.938  40.979   0.388
59425W        W31839  31.038  44.295  14.924
59426W        W31840  20.094   6.339   1.781
59427W        W31841  15.306  24.189  13.506
59428W        W31842  22.612  30.137   4.333
59429W        W31843   3.231  35.036   0.317
59430W        W31844  43.966  15.258   0.316
59431W        W31845  42.820   0.781   2.206
59432W        W31846  21.198  10.746  10.612
59433W        W31847  21.565  23.043   1.833
59434W        W31848  25.154  31.439  13.526
59435W        W31849  35.427  36.957  10.981
59436W        W31850   9.335   5.274   2.820
59437W        W31851  28.107  18.189   3.817
59438W        W31852  20.572  34.485   3.827
59439W        W31853  33.548  43.362  13.468
59440W        W31854  15.724  19.246   3.157
59441W        W31855   8.281  43.442   1.269
59442W        W31856  41.410  42.840  12.913
59443W        W31857  17.676  36.448  14.022
59444W        W31858  37.472  42.387   4.620
59445W        W31859   9.271  42.005   0.274
59446W        W31860  18.569  30.914   0.959
59447W        W31861  37.885  12.802   1.871
59448W        W31862   4.716  24.081  11.952
59449W        W31863  13.193  22.074  14.956
59450W        W31864  43.956   3.946   4.147
59451W        W31865  10.208  42.505   1.810
59452W        W31866   1.828   3.221   0.384
59453W        W31867   1.276  39.470   0.334
59454W        W31868  20.094  12.818   0.825
59455W        W31869  28.138   2.765  11.123
59456W        W31870   3.267  38.328   4.774
59457W        W31871  16.109  30.036  14.461
59458W        W31872   1.943  24.126  12.032
59459W        W31873  37.929   9.182  11.528
59460W        W31874  11.181  16.739  12.523
59461W        W31875  22.040  20.524   4.793
59462W        W31876  24.033  32.497   2.356
59463W        W31877  31.505  41.321   4.687
59464W        W31878   7.784   2.306   4.270
59465W        W31879  41.816  19.675   1.752
59466W        W31880  19.711  38.351  13.011
59467W        W31881  29.660   2.316  12.872
59468W        W31882   0.403   3.328   3.653
59469W        W31883   7.824  27.026  12.557
59470W        W31884  33.985  26.016  12.020
59471W        W31885  24.179  43.950  13.935
59472W        W31886  38.979  39.452   4.788
59473W        W31887  21.584  28.038  10.504
59474W        W31888  14.199  27.062  11.091
59475W        W31889  43.996  12.280   4.171
59476W        W31890  33.063  29.622  14.391
59477W        W31891   8.888  44.438   0.836
59478W        W31892  34.580  11.251   1.310
59479W        W31893  14.211   7.744   1.765
59480W        W31894  42.023  35.901  11.984
59481W        W31895   3.875  40.397  13.975
59482W        W31896  22.694  41.801  10.583
59483W        W31897  13.686  35.089  12.475
59484W        W31898  13.283  23.734   1.795
59485W        W31899  11.253   1.767  13.050
59486W        W31900  34.442  43.897   4.744
59487W        W31901   9.670  39.871  12.356
59488W        W31902  10.281   0.949   4.244
59489W        W31903  18.568  13.806   4.225
59490W        W31904  32.603  37.554  12.541
59491W        W31905  18.074  38.835  14.371
59492W        W31906   4.736  28.115  10.978
59493W        W31907  23.989  23.625   2.226
59494W        W31908  28.488  37.338   3.293
59495W        W31909  22.696  27.963  13.544
59496W        W31910   0.907  28.085  12.028
59497W        W31911   2.299   3.270  14.766
59498W        W31912  38.397   5.378  14.957
59499W        W31913  31.013  37.034  11.588
59500W        W31914  42.924   5.201  11.480
59501W        W31915  19.156  24.519  14.857
59502W        W31916  38.035  15.202   1.426
59503W        W31917  38.876  11.756  11.379
59504W        W31918  24.077   4.289  14.407
59505W        W31919  30.624  24.695   4.212
59506W        W31920  12.668  36.061   0.401
59507W        W31921  30.455  20.539  11.489
59508W        W31922   5.328  37.503  11.511
59509W        W31923  28.626  12.828   0.248
59510W        W31924  21.094  21.243   3.638
59511W        W31925  14.306   8.188   5.286
59512W        W31926  22.194   5.889   1.261
59513W        W31927  36.425  39.957  10.423
59514W        W31928   6.817   9.222   2.855
59515W        W31929   2.296  44.393  11.568
59516W        W31930  43.502  14.133   4.602
59517W        W31931  35.963  20.174   5.268
59518W        W31932  44.276  33.977  10.458
59519W        W31933  14.187  31.116   0.730
59520W        W31934  39.015  19.588  13.898
59521W        W31935  28.996  26.129   3.643
59522W        W31936  14.737   3.722   1.922
59523W        W31937  10.298  34.929   5.243
59524W        W31938  12.164   0.766  12.876
59525W        W31939   6.896  30.990  14.819
59526W        W31940   0.890  35.889   4.678
59527W        W31941  33.529   7.725   0.330
59528W        W31942  42.345  34.517   4.137
59529W        W31943   6.370   6.212   3.334
59530W        W31944  21.095  35.433  11.540
59531W        W31945  23.130  35.074  12.942
59532W        W31946   3.220   8.718   3.796
59533W        W31947  22.625   8.286   2.223
59534W        W31948  24.631   4.923  12.937
59535W        W31949  16.279   8.673   3.219
59536W        W31950  30.465  38.028   0.905
59537W        W31951  13.338  18.164   2.187
59538W        W31952  32.931  44.807   0.868
59539W        W31953   3.715   9.372  11.411
59540W        W31954   7.736  42.355  11.043
59541W        W31955  33.068   2.438  11.023
59542W        W31956  15.209  35.473  13.925
59543W        W31957  37.835  29.034  13.816
59544W        W31958  44.271  31.935   1.336
59545W        W31959   4.297  32.006   3.232
59546W        W31960   0.827  27.456   1.213
59547W        W31961  38.833  20.680  11.393
59548W        W31962  37.471  32.965   3.654
59549W        W31963  14.228  19.108   5.118
59550W        W31964  14.671  33.119  11.922
59551W        W31965  29.621  43.942   2.258
59552W        W31966  11.308  11.200  12.474
59553W        W31967  31.509  41.924   1.446
59554W        W31968  38.839  31.623   1.245
59555W        W31969   4.289   2.363   2.875
59556W        W31970  28.592  11.136   0.896
59557W        W31971  42.798   3.461   2.892
59558W        W31972  37.056  12.659  11.605
59559W        W31973  35.902   2.792  14.871
59560W        W31974  12.305  21.135  11.990
59561W        W31975  18.173  42.813  14.919
59562W        W31976  22.584   2.420   4.668
59563W        W31977  31.590  17.307  11.038
59564W        W31978  17.171   9.787  13.968
59565W        W31979  43.372  24.536   3.863
59566W        W31980   1.444  22.574  10.898
59567W        W31981  41.320  33.953   3.271
59568W        W31982   4.834  42.941  10.940
59569W        W31983  28.963   1.789   3.170
59570W        W31984  44.814  32.115  11.924
59571W        W31985   7.699   4.706   0.449
59572W        W31986  16.210  43.481   4.828
59573W        W31987  28.071  26.972   3.256
59574W        W31988  25.202   2.368  10.888
59575W        W31989  12.713  32.550  14.495
59576W        W31990  13.201   1.751  10.030
59577W        W31991  10.675  40.998  14.839
59578W        W31992  39.478  44.478  13.964
59579W        W31993  13.315  27.032   2.408
59580W        W31994  32.000  19.578  10.040
59581W        W31995  11.737  20.211   2.367
59582W        W31996  16.651  30.093  11.859
59583W        W31997   2.917  37.867  11.038
59584W        W31998  33.521  21.694   5.692
59585W        W31999   1.748   9.366  14.830
59586W        W32000  31.459  42.802   3.842
59587W        W32001  36.573  19.661  12.015
59588W        W32002  31.421  16.707   3.849
59589W        W32003  23.724  37.381   0.280
59590W        W32004  24.147   7.410   4.218
59591W        W32005  26.114  27.014  11.545
59592W        W32006  41.864  11.239   0.299
59593W        W32007  20.714  19.708   3.707
59594W        W32008   9.193  10.259  14.813
59595W        W32009  26.514  22.680   4.171
59596W        W32010  12.706  42.496   1.228
59597W        W32011   1.417   0.362  11.867
59598W        W32012  30.477  15.630  10.930
59599W        W32013  38.007  17.106  11.432
59600W        W32014  17.151  17.157   3.327
59601W        W32015   6.419  17.665   4.684
59602W        W32016  24.187   7.735  13.961
59603W        W32017  44.404  18.715   0.459
59604W        W32018   3.419  29.650  10.605
59605W        W32019   0.467  15.115  13.401
59606W        W32020   4.432  37.015   2.398
59607W        W32021  26.654  19.754  10.032
59608W        W32022  33.495   8.785  13.320
59609W        W32023  34.382   9.848  10.901
59610W        W32024  26.953  24.114   9.962
59611W        W32025   0.379  30.128   2.299
59612W        W32026  30.585  14.780  12.021
59613W        W32027   6.846   5.409   0.794
59614W        W32028  18.591   0.973  14.496
59615W        W32029  39.424  10.712   3.787
59616W        W32030  43.767  14.603   4.200
59617W        W32031  11.676  40.929  12.060
59618W        W32032  10.381  32.556   0.857
59619W        W32033   5.709  33.126   1.372
59620W        W32034   8.768   4.750   0.768
59621W        W32035  31.491  44.803   1.435
59622W        W32036   9.314  35.008   1.279
59623W        W32037  42.318  18.113   2.297
59624W        W32038  36.926  32.109   9.972
59625W        W32039  10.295   8.799   2.256
59626W        W32040  41.346  25.684  14.024
59627W        W32041  16.181  25.973   2.668
59628W        W32042  20.560  12.630   3.668
59629W        W32043  30.472   8.298  10.928
59630W        W32044  25.640  17.246   5.692
59631W        W32045  14.603  40.909  13.343
59632W        W32046  34.071   5.224   0.270
59633W        W32047   6.749  15.214  14.416
59634W        W32048  36.969  12.613   0.825
59635W        W32049  20.643  27.002  14.943
59636W        W32050  34.100  11.791  10.109
59637W        W32051  24.019  37.857   1.330
59638W        W32052  33.937  38.937   2.320
59639W        W32053  33.554   8.308  12.561
59640W        W32054  34.417  30.617   2.744
59641W        W32055  35.597  17.133   3.752
59642W        W32056  16.118  37.337   3.184
59643W        W32057  14.115  16.777   2.298
59644W        W32058  28.949  20.211  14.370
59645W        W32059  29.565  22.028  11.118
59646W        W32060  27.669  14.684  14.759
59647W        W32061  14.680  41.359  10.047
59648W        W32062   7.251  10.724   0.923
59649W        W32063  25.497  17.580   5.646
59650W        W32064  32.625   9.724  11.048
59651W        W32065  40.869   0.746  12.021
59652W        W32066   9.681  27.541   2.832
59653W        W32067  41.374  40.856  13.850
59654W        W32068  16.251  15.262   2.795
59655W        W32069   4.922  41.889  11.540
59656W        W32070  28.450  20.266  11.054
59657W        W32071   6.836  21.591  11.077
59658W        W32072  28.551  38.979   3.247
59659W        W32073  23.994   3.816  12.969
59660W        W32074  44.374  34.562  11.408
59661W        W32075  39.028  22.505   3.282
59662W        W32076   6.883   3.342   4.242
59663W        W32077  26.545  21.614   2.831
59664W        W32078   4.334  26.155  12.033
59665W        W32079   9.749  21.525  12.920
59666W        W32080  36.525  38.328   1.247
59667W        W32081  21.750  32.912   1.275
59668W        W32082  21.075  13.629  13.435
59669W        W32083  43.840  15.610   3.357
59670W        W32084   3.709  17.732  12.539
59671W        W32085   5.374   0.927   2.188
59672W        W32086  24.129  17.557  12.567
59673W        W32087  22.235  42.340  14.912
59674W        W32088  24.983   1.364   5.661
59675W        W32089  12.331  15.740  14.321
59676W        W32090  20.209   0.421   1.422
59677W        W32091  16.237  37.541   0.953
59678W        W32092   3.364  23.100  11.926
59679W        W32093  37.044  34.455   0.447
59680W        W32094  23.492  39.937   4.652
59681W        W32095  24.485   3.713  12.874
59682W        W32096  33.483  26.528   4.113
59683W        W32097  36.543   1.755  10.418
59684W        W32098   8.170   1.955  14.363
59685W        W32099   5.820  44.499  10.413
59686W        W32100   6.251  31.061  14.469
59687W        W32101   6.883  21.058  12.884
59688W        W32102  20.077   3.305   3.836
59689W        W32103  41.478   6.697   4.720
59690W        W32104  17.099  40.547   3.261
59691W        W32105  37.355  13.229   4.612
59692W        W32106  21.686  36.846   4.766
59693W        W32107  19.584  25.584  12.579
59694W        W32108  44.407  40.878  14.992
59695W        W32109  31.547  13.298  14.301
59696W        W32110  29.984  20.254  10.901
59697W        W32111  19.234  20.651   3.316
59698W        W32112  33.117  17.701  10.621
59699W        W32113  29.098  21.655  12.401
59700W        W32114  29.462  37.048  11.963
59701W        W32115   4.746  27.176   0.321
59702W        W32116  21.183  33.119   3.345
59703W        W32117   0.890  19.187  11.000
59704W        W32118  25.560  43.471   0.761
59705W        W32119  15.800   2.922   0.864
59706W        W32120  17.585  20.597  13.940
59707W        W32121  37.874  43.512   3.864
59708W        W32122  12.167  34.488   0.455
59709W        W32123  36.905  17.657  13.051
59710W        W32124  32.020  39.389   4.671
59711W        W32125  26.204  18.724  11.886
59712W        W32126   6.402  44.804   4.351
59713W        W32127  34.611  33.047   0.951
59714W        W32128   6.716  27.676  13.405
59715W        W32129  18.171   7.214   2.281
59716W        W32130  39.947  41.817  12.947
59717W        W32131  37.061   5.375   1.282
59718W        W32132  26.016   8.865  12.558
59719W        W32133  39.962  43.270  13.798
59720W        W32134  33.592  44.450  14.954
59721W        W32135  21.590  30.955   2.394
59722W        W32136  17.217  28.122  14.893
59723W        W32137  35.036  30.433  13.933
59724W        W32138  18.779  42.006  12.922
59725W        W32139  36.403  17.649   0.874
59726W        W32140  29.052  32.459  11.582
59727W        W32141  35.562  36.080  11.474
59728W        W32142  22.657   3.318   1.223
59729W        W32143  44.972  40.992   3.753
59730W        W32144  44.284  29.970   0.880
59731W        W32145  40.873  12.137   2.332
59732W        W32146  38.059   4.214   3.353
59733W        W32147  33.384  37.945   3.846
59734W        W32148  15.630  15.143  13.356
59735W        W32149   2.460  18.753   2.197
59736W        W32150  33.577  25.561   0.954
59737W        W32151  23.644  36.065  13.791
59738W        W32152  26.562   0.270  13.477
59739W        W32153   4.758   2.380   4.253
59740W        W32154  26.600   0.907  12.846
59741W        W32155  21.178   0.765   1.374
59742W        W32156   7.204  41.386   3.289
59743W        W32157   1.817  35.077  11.527
59744W        W32158  27.982  25.610  10.621
59745W        W32159  25.140  23.088   4.668
59746W        W32160  20.556  10.185   3.379
59747W        W32161  36.351  36.850   2.247
59748W        W32162   7.707  36.941  11.589
59749W        W32163   1.401  25.107   2.712
59750W        W32164  18.629  42.313  13.409
59751W        W32165   6.427  35.535   2.265
59752W        W32166  33.546  40.978  11.480
59753W        W32167  18.651  28.053  13.047
59754W        W32168   2.465  13.194   4.681
59755W        W32169   7.328   4.918  11.543
59756W        W32170  26.614  40.998  11.918
59757W        W32171   9.220  15.592   5.209
59758W        W32172   5.405  25.621   4.285
59759W        W32173  12.845  44.884   1.445
59760W        W32174  13.792   3.823  10.512
59761W        W32175  42.339   9.223   1.243
59762W        W32176   0.746  28.930  11.961
59763W        W32177  20.054  40.321  12.350
59764W        W32178  23.224   1.784  14.814
59765W        W32179  20.698  13.738   1.837
59766W        W32180   3.324  12.180   0.776
59767W        W32181   1.292  42.336   3.208
59768W        W32182  41.495   3.232  10.488
59769W        W32183  20.536  14.640  10.499
59770W        W32184   0.339  15.727   2.197
59771W        W32185  13.105   1.836  13.983
59772W        W32186  44.931  24.117  14.854
59773W        W32187  35.425  13.796  14.400
59774W        W32188  19.767  23.118  14.823
59775W        W32189  44.368  37.956   3.312
59776W        W32190  43.969   5.908   3.260
59777W        W32191   7.373  39.808  14.809
59778W        W32192  25.528  31.098  12.400
59779W        W32193  39.851  44.310   4.281
59780W        W32194  38.997  11.780   3.722
59781W        W32195  41.832  32.491  11.489
59782W        W32196  10.266  28.136  14.806
59783W        W32197  39.821  37.857   3.155
59784W        W32198  42.437  40.340  12.928
59785W        W32199  41.329  42.784   0.922
59786W        W32200  37.506   4.795   1.820
59787W        W32201  34.953  32.973  11.538
59788W        W32202   3.868  37.881   1.701
59789W        W32203  16.186  16.305  13.825
59790W        W32204  32.978  21.063  11.062
59791W        W32205  17.307  32.495   0.250
59792W        W32206  15.144  31.417   4.311
59793W        W32207  32.441   5.294  11.961
59794W        W32208  32.599  38.487  14.852
59795W        W32209  33.044  25.129   2.885
59796W        W32210  13.194   5.413  11.578
59797W        W32211  43.356  38.026  12.467
59798W        W32212  14.289  43.809  11.055
59799W        W32213   8.669  10.751  11.013
59800W        W32214  43.934  16.180   1.873
59801W        W32215  15.220   6.731  11.113
59802W        W32216  33.488  33.400   9.987
59803W        W32217  37.347  14.243   3.158
59804W        W32218  20.198  18.228   4.694
59805W        W32219  36.433  15.222  12.351
59806W        W32220  18.691   5.385  11.906
59807W        W32221   8.899  32.591   3.777
59808W        W32222  25.966  15.107   4.700
59809W        W32223   0.306  32.602  12.087
59810W        W32224  19.594  22.743   1.223
59811W        W32225   7.792   5.782   9.955
59812W        W32226   2.316  31.588  11.956
59813W        W32227  24.698   7.226   1.229
59814W        W32228  30.589  40.868  11.934
59815W        W32229  15.689  36.510   3.330
59816W        W32230  20.735   7.255  12.824
59817W        W32231  44.923  34.073   0.416
59818W        W32232  26.480  16.087  11.573
59819W        W32233  43.015   1.785   2.862
59820W        W32234  16.083  39.316  12.063
59821W        W32235  18.651  27.641  12.441
59822W        W32236  27.453  35.539  13.348
59823W        W32237   1.280  28.001   0.405
59824W        W32238  14.194  26.956  13.984
59825W        W32239  27.946   6.202  14.919
59826W        W32240  14.597   8.824  10.084
59827W        W32241  17.300  24.499   1.360
59828W        W32242  10.673   9.728   0.282
59829W        W32243  28.516  40.941   2.338
59830W        W32244  35.575   7.366  13.921
59831W        W32245  34.955   2.422  10.965
59832W        W32246  33.432  26.081   3.352
59833W        W32247  29.502  29.530  13.331
59834W        W32248  30.153  11.741  13.334
59835W        W32249   0.826  34.038   1.376
59836W        W32250  16.215  35.524   0.841
59837W        W32251   1.927  41.906   2.871
59838W        W32252  34.100  24.525  10.623
59839W        W32253  20.762  43.976   3.291
59840W        W32254  17.705   8.314   4.335
59841W        W32255  13.687  22.570  11.118
59842W        W32256   9.186  42.393  13.948
59843W        W32257   6.791   1.472   1.826
59844W        W32258  25.219  31.953   0.360
59845W        W32259   8.708  21.067  13.481
59846W        W32260   5.833  24.692  10.943
59847W        W32261  39.477   8.808  11.068
59848W        W32262   3.917  40.859   2.686
59849W        W32263  27.650  29.578  13.395
59850W        W32264   1.796  20.246   0.272
59851W        W32265   5.305   7.706   4.800
59852W        W32266  14.257  20.747   2.327
59853W        W32267  21.573  10.294   2.186
59854W        W32268  30.549  37.917  10.542
59855W        W32269   5.921   3.349   1.842
59856W        W32270   1.749   8.169   2.866
59857W        W32271   9.187  34.583   5.140
59858W        W32272  17.108  15.665   1.408
59859W        W32273  23.171   8.387  14.448
59860W        W32274  23.561  36.024  13.447
59861W        W32275  10.238  38.381  12.062
59862W        W32276  15.621  30.150   4.269
59863W        W32277  35.511  10.693  12.502
59864W        W32278   8.661  18.689   1.726
59865W        W32279  22.623  32.438   2.310
59866W        W32280   3.351  10.211  14.400
59867W        W32281  12.846  32.471  10.577
59868W        W32282   0.332   9.257  11.073
59869W        W32283  26.511  24.144   1.807
59870W        W32284  21.571  24.517  10.562
59871W        W32285  23.013  11.868   0.796
59872W        W32286  18.218   9.245  10.907
59873W        W32287  20.106  22.190   4.246
59874W        W32288  39.854  12.250  12.960
59875W        W32289  10.869  11.786   1.432
59876W        W32290  25.607  20.198  14.867
59877W        W32291   4.722  30.126   2.670
59878W        W32292  38.899  28.992   1.213
59879W        W32293  39.872  17.648   0.751
59880W        W32294   9.801   1.326   1.213
59881W        W32295  24.093  18.735   4.209
59882W        W32296   2.426  41.532   3.216
59883W        W32297  41.996  42.413  12.459
59884W        W32298   1.953  17.244  12.383
59885W        W32299  17.202  10.142   0.302
59886W        W32300   5.397  17.627  10.456
59887W        W32301  32.605  16.245  11.947
59888W        W32302  41.804  22.649   0.817
59889W        W32303  44.886  20.728  10.431
59890W        W32304   2.921  34.890  14.434
59891W        W32305  25.593  30.436  13.413
59892W        W32306   4.224  11.754   0.445
59893W        W32307  10.379  43.331   1.399
59894W        W32308  23.039  38.538  10.544
59895W        W32309  21.146   0.774   2.258
59896W        W32310  13.299  28.053   0.735
59897W        W32311  16.205  39.434  10.636
59898W        W32312   5.715   3.921   0.766
59899W        W32313   3.328  39.985   4.801
59900W        W32314   3.770  14.749  10.950
59901W        W32315  35.493   0.958  10.957
59902W        W32316  44.817  10.344   3.825
59903W        W32317  13.631  32.499  13.949
59904W        W32318  17.706  18.657   2.750
59905W        W32319  41.952  17.240  10.081
59906W        W32320  36.980  14.096  10.473
59907W        W32321  26.048   5.238   3.746
59908W        W32322  12.619   1.817   0.378
59909W        W32323  29.062  33.559  10.602
59910W        W32324  32.447  16.251  13.310
59911W        W32325  15.604  32.076   3.864
59912W        W32326   5.785  31.920  13.328
59913W        W32327  35.895  19.723  12.007
59914W        W32328  30.164   3.902   3.311
59915W        W32329  31.947   4.386  12.405
59916W        W32330  35.416  16.093  14.291
59917W        W32331  35.560  15.609  13.342
59918W        W32332   1.902  34.426  11.378
59919W        W32333   4.772  40.486  10.630
59920W        W32334  44.479   3.805  12.064
59921W        W32335  39.453  27.131  14.283
59922W        W32336  42.378  23.016   2.226
59923W        W32337  37.848  33.417  12.052
59924W        W32338  39.896   1.317   0.430
59925W        W32339  27.962  15.724   0.883
59926W        W32340  12.643  12.207   3.189
59927W        W32341  41.399  26.132   4.187
59928W        W32342  30.908  22.734   2.724
59929W        W32343  13.819   4.327  12.037
59930W        W32344  30.584  12.297  12.571
59931W        W32345   0.929  34.558   4.763
59932W        W32346   9.322  31.899   3.855
59933W        W32347   7.274  35.531  10.964
59934W        W32348  26.673  39.336  11.417
59935W        W32349   9.791  44.938   0.915
59936W        W32350   0.443  12.808  14.364
59937W        W32351  20.076  21.646   2.384
59938W        W32352  16.189  32.977   3.716
59939W        W32353  33.389  23.134   5.294
59940W        W32354  42.975  43.376  12.345
59941W        W32355  18.257  32.508  13.395
59942W        W32356  34.019  13.688  14.309
59943W        W32357   9.237  33.930   0.835
59944W        W32358  28.640  22.077  11.596
59945W        W32359   2.345  11.182   3.645
59946W        W32360   9.185  11.190  14.439
59947W        W32361  22.541  35.047   4.662
59948W        W32362  10.741  43.318  11.536
59949W        W32363  20.686   9.826  13.024
59950W        W32364  38.070  44.326  11.902
59951W        W32365  39.050  11.850  10.140
59952W        W32366  16.788  24.605  10.888
59953W        W32367  30.617  20.163   4.332
59954W        W32368  44.340  31.094   0.288
59955W        W32369  42.440  34.869  13.478
59956W        W32370  38.865  34.949   1.357
59957W        W32371   5.690  24.205  13.317
59958W        W32372  14.108   1.952  12.037
59959W        W32373  39.811  12.615   3.319
59960W        W32374  44.773  38.470  12.030
59961W        W32375  34.546  29.619   3.343
59962W        W32376  20.610  35.912   0.249
59963W        W32377  16.784  29.003   1.258
59964W        W32378  32.131  15.654   2.391
59965W        W32379  44.336  26.084   1.270
59966W        W32380  33.550   6.694   3.795
59967W        W32381  19.762   2.349  14.915
59968W        W32382   7.746   7.901   2.763
59969W        W32383  39.433  23.107  14.901
59970W        W32384   3.819   7.181  12.927
59971W        W32385   4.700  35.412   9.973
59972W        W32386  36.965   3.937  14.448
59973W        W32387   6.190   0.854   0.873
59974W        W32388   1.455  25.048   4.309
59975W        W32389  44.904  36.587  11.389
59976W        W32390   8.826   0.818  14.905
59977W        W32391   2.456  38.496  13.372
59978W        W32392   6.207  12.842   0.836
59979W        W32393   9.816  17.587   0.281
59980W        W32394   5.865   2.963   2.378
59981W        W32395  39.472  44.008   0.314
59982W        W32396   6.223  36.843  10.916
59983W        W32397  37.860  41.913  14.513
59984W        W32398  33.994  15.113  12.484
59985W        W32399  29.526  21.230   2.238
59986W        W32400  25.689   3.775  13.983
59987W        W32401  41.852  30.029  12.853
59988W        W32402   6.339  35.949  14.412
59989W        W32403  27.119  40.544  12.980
59990W        W32404   7.766   2.790  12.408
59991W        W32405  27.644   2.300   2.777
59992W        W32406  31.904  16.241  14.919
59993W        W32407  17.577  41.512   0.858
59994W        W32408  10.366   5.418  12.421
59995W        W32409  37.580  40.998  11.395
59996W        W32410   5.298  43.418  10.498
59997W        W32411   5.279  18.779   4.739
59998W        W32412  27.599  17.063  10.608
59999W        W32413   5.829  13.621  10.925
60000W        W32414  37.431  33.977  13.393
60001W        W32415  11.754  32.480  11.104
60002W        W32416  39.848  12.283  13.473
60003W        W32417  29.927  18.056   0.335
60004W        W32418  39.887  11.678   2.242
60005W        W32419  30.981  14.835  12.077
60006W        W32420  44.930  30.011  11.925
60007W        W32421  43.969  43.490   3.239
60008W        W32422  41.905   3.415  14.281
60009W        W32423  19.720  16.158  12.974
60010W        W32424  44.307  27.992  12.418
60011W        W32425  10.300  14.789   3.271
60012W        W32426  10.275   9.699   0.445
60013W        W32427  14.154  38.343   4.810
60014W        W32428  16.247  34.867   1.780
60015W        W32429  22.598   9.670   1.790
60016W        W32430  30.460  32.079  14.324
60017W        W32431  20.254  21.696   0.737
60018W        W32432  26.198   4.295  13.407
60019W        W32433  19.144  19.129  11.947
60020W        W32434   5.800  31.089  11.052
60021W        W32435   6.282  25.180   3.658
60022W        W32436  26.983  16.261   0.817
60023W        W32437  19.152  13.719  14.000
60024W        W32438  42.025  14.312   1.754
60025W        W32439  44.928   5.438  14.787
60026W        W32440   9.229  22.653   1.928
60027W        W32441  30.455  27.026  12.085
60028W        W32442  20.574  36.987   0.453
60029W        W32443   8.759  29.509  14.440
60030W        W32444  31.571  43.379  14.947
60031W        W32445   7.267  22.125  14.920
60032W        W32446  26.557  43.973  11.550
60033W        W32447  36.031  41.995   4.208
60034W        W32448  37.917  31.041   3.793
60035W        W32449  17.117  14.293   5.210
60036W        W32450   1.319   0.899  11.575
60037W        W32451  31.098   6.378  13.002
60038W        W32452  32.998  42.307   0.869
60039W        W32453   9.358   7.838  13.821
60040W        W32454   2.393  38.941   3.358
60041W        W32455  36.853  15.175  13.312
60042W        W32456  42.947  43.289  11.470
60043W        W32457  41.501   3.318  11.467
60044W        W32458  37.947  28.951  14.428
60045W        W32459  31.960  16.622  10.424
60046W        W32460  17.802  28.478   2.201
60047W        W32461  38.450  28.629   2.414
60048W        W32462   2.753   1.456   0.833
60049W        W32463  33.513  24.581  14.912
60050W        W32464  13.727  30.051   2.901
60051W        W32465   2.952  33.893  11.563
60052W        W32466  19.156  34.516   0.283
60053W        W32467  36.364  41.402   4.746
60054W        W32468  24.216  22.550   2.231
60055W        W32469  22.128  16.811  12.380
60056W        W32470  13.116  30.986   3.775
60057W        W32471  17.700   2.818  11.501
60058W        W32472  40.797  17.215   0.389
60059W        W32473  26.182  36.579  12.006
60060W        W32474  11.147  42.832  11.545
60061W        W32475  33.996   9.702   0.948
60062W        W32476  19.144  35.358   4.796
60063W        W32477  17.205   4.770   3.712
60064W        W32478   5.815  27.452  10.441
60065W        W32479  36.447  27.186   1.891
60066W        W32480  23.596  26.193   0.267
60067W        W32481  40.902   9.767   0.278
60068W        W32482  40.997  22.050   1.278
60069W        W32483   6.217   0.979  14.386
60070W        W32484  30.939  30.519  11.987
60071W        W32485  22.011  19.571  12.030
60072W        W32486   5.758  23.987   2.772
60073W        W32487   9.709  15.604  14.831
60074W        W32488   2.412  13.781  12.407
60075W        W32489  31.645  13.199  10.464
60076W        W32490  13.671   8.660  10.604
60077W        W32491   7.192  27.985  14.480
60078W        W32492  37.958  27.559  10.579
60079W        W32493   9.271  21.052   0.333
60080W        W32494  34.995   2.433  14.820
60081W        W32495  22.623   4.446  11.085
60082W        W32496  18.266  36.983  12.960
60083W        W32497  20.206  36.967  12.052
60084W        W32498  13.133  39.438   3.837
60085W        W32499  15.278  32.498  11.863
60086W        W32500  40.505  30.912  14.918
60087W        W32501  36.501  42.959  14.991
60088W        W32502  33.953  38.506   1.883
60089W        W32503  35.384  10.357  12.430
60090W        W32504   6.856   2.893   2.293
60091W        W32505  20.716   5.918   2.809
60092W        W32506  21.198  23.103  12.906
60093W        W32507   8.668  20.655   3.327
60094W        W32508  31.049  41.304  10.424
60095W        W32509  29.148  19.683  14.978
60096W        W32510  10.761  26.029   0.809
60097W        W32511   4.929   4.317   0.394
60098W        W32512  15.702  10.272   2.383
60099W        W32513   5.750  33.043   3.722
60100W        W32514   8.848  30.011  12.540
60101W        W32515  15.677  18.162  12.367
60102W        W32516  20.157  18.153  12.983
60103W        W32517  26.200   9.771  14.831
60104W        W32518  16.804   7.324  12.033
60105W        W32519  21.512   9.699  14.992
60106W        W32520  36.464  11.209   0.746
60107W        W32521  35.105  16.283   0.755
60108W        W32522  40.885  20.682   2.669
60109W        W32523   4.267   5.256   4.229
60110W        W32524  29.649  34.030  11.478
60111W        W32525  10.328  29.440  12.047
60112W        W32526  20.241  25.054  13.379
60113W        W32527  14.785   3.744   2.290
60114W        W32528  24.686  19.657   2.782
60115W        W32529   6.255  29.098  13.885
60116W        W32530   5.382   0.899   0.436
60117W        W32531  14.608  16.091  11.065
60118W        W32532  17.213  14.197   3.301
60119W        W32533  40.492  34.484  11.462
60120W        W32534  40.509  12.682   0.861
60121W        W32535  19.134  39.956  10.596
60122W        W32536   0.284  22.027   0.442
60123W        W32537  18.682  23.989   3.700
60124W        W32538  25.170  30.528  12.512
60125W        W32539   5.897  42.909  14.375
60126W        W32540  22.190   3.433   4.654
60127W        W32541  18.696  10.250   3.335
60128W        W32542   9.826  14.305   3.336
60129W        W32543  14.324  30.561   1.332
60130W        W32544  29.654  21.020  14.946
60131W        W32545  19.615  39.378   0.361
60132W        W32546   0.826   3.827  13.336
60133W        W32547  32.523   5.233   4.115
60134W        W32548  35.106   9.351  10.958
60135W        W32549  14.229  27.641  11.934
60136W        W32550  33.509  32.398   3.331
60137W        W32551  42.468  41.351   4.837
60138W        W32552  34.387  29.101   0.882
60139W        W32553  33.103   6.319  10.526
60140W        W32554  29.116  41.525  12.850
60141W        W32555  43.783  19.685   3.302
60142W        W32556  30.002  30.937  12.540
60143W        W32557  37.403  27.662   2.817
60144W        W32558  39.953  10.872   1.770
60145W        W32559  12.775  28.987  14.828
60146W        W32560   5.718  18.073   0.737
60147W        W32561   2.800  40.839  14.511
60148W        W32562  32.085   8.900   3.360
60149W        W32563  13.697   3.262  11.465
60150W        W32564  26.105  19.768   2.350
60151W        W32565  43.825  20.200   4.600
60152W        W32566   2.740  31.632  13.435
60153W        W32567  18.767   7.392   1.768
60154W        W32568  43.973   3.452  14.842
60155W        W32569  33.051  39.039   3.733
60156W        W32570  14.749  27.682  14.460
60157W        W32571  14.706  15.694  11.912
60158W        W32572  32.615  43.862  10.892
60159W        W32573  28.978  36.351   0.373
60160W        W32574  41.033  13.195  14.368
60161W        W32575  35.101  37.573  13.346
60162W        W32576  22.025  42.016  10.508
60163W        W32577   2.359  13.777  13.058
60164W        W32578  11.681  15.774   4.625
60165W        W32579  15.177  22.554  11.034
60166W        W32580  34.052  30.986  12.432
60167W        W32581   2.750   2.302   1.391
60168W        W32582  21.590   7.690   0.440
60169W        W32583  16.637  11.349  11.430
60170W        W32584  21.169   6.762  13.023
60171W        W32585  20.722  34.113  13.972
60172W        W32586  21.651  42.952   3.716
60173W        W32587  13.752  34.927   1.287
60174W        W32588  18.097  44.340   4.174
60175W        W32589   4.283  38.944  13.345
60176W        W32590  41.485  27.964   2.859
60177W        W32591  25.603  11.166   0.434
60178W        W32592   5.378  15.715   0.428
60179W        W32593  20.714   8.749   2.194
60180W        W32594   7.187  40.504  10.549
60181W        W32595  19.578  32.112  14.950
60182W        W32596  29.143   9.179   3.347
60183W        W32597   9.249  35.935   4.750
60184W        W32598  35.092  18.759  13.383
60185W        W32599  32.128  39.425  12.879
60186W        W32600  38.472  26.077   4.244
60187W        W32601  13.337  10.209  12.973
60188W        W32602  37.471  14.108   1.782
60189W        W32603  14.111  11.801  13.350
60190W        W32604   5.206   3.800   4.631
60191W        W32605  39.977  28.531  11.107
60192W        W32606  37.458  13.788  11.411
60193W        W32607  21.245  36.379  11.534
60194W        W32608  25.532  15.197  13.531
60195W        W32609  25.196  16.287   2.856
60196W        W32610  25.154   4.742  13.046
60197W        W32611  21.189  37.337  11.503
60198W        W32612  21.020  12.356  13.845
60199W        W32613  38.876   5.355  10.610
60200W        W32614  19.277   7.217  12.074
60201W        W32615  39.558  30.418  11.100
60202W        W32616   4.863  10.738  13.432
60203W        W32617   3.899  17.240   1.707
60204W        W32618  41.947  28.607  13.927
60205W        W32619  15.651   4.776  14.897
60206W        W32620  30.076  41.451   1.749
60207W        W32621  33.436  22.013   3.660
60208W        W32622  12.751  24.075   1.403
60209W        W32623  20.642  21.212   0.839
60210W        W32624  28.096  10.215   5.285
60211W        W32625  11.819  43.833   3.364
60212W        W32626  34.453  14.704   0.299
60213W        W32627  25.601  16.775  12.058
60214W        W32628  29.042   5.820   3.800
60215W        W32629  41.831  17.643  10.934
60216W        W32630   8.246   8.308  14.506
60217W        W32631  17.145  29.942  12.429
60218W        W32632  37.894  44.278   9.967
60219W        W32633   4.277  15.635   5.108
60220W        W32634  22.224  31.050   4.169
60221W        W32635   0.923  34.994  11.521
60222W        W32636  43.937  21.084   1.273
60223W        W32637   0.967  16.615  14.492
60224W        W32638  38.497   9.189   4.280
60225W        W32639  30.546  42.827   2.307
60226W        W32640   8.367  15.627   0.863
60227W        W32641  29.056   9.152   1.892
60228W        W32642  43.784  42.902   0.483
60229W        W32643  24.050  33.953   0.765
60230W        W32644   2.441  40.317  13.501
60231W        W32645  30.155  28.452  11.890
60232W        W32646  29.465   3.711  10.430
60233W        W32647  12.209   2.253  11.059
60234W        W32648  33.422  42.850  14.921
60235W        W32649  14.718  25.707  13.307
60236W        W32650  37.550  16.691   1.231
60237W        W32651  26.175   0.490   0.423
60238W        W32652  12.130  21.087  11.020
60239W        W32653  35.579  40.367   0.373
60240W        W32654  34.054  23.224  12.069
60241W        W32655  14.674  15.615   0.864
60242W        W32656  28.607   4.334  10.953
60243W        W32657  32.067  31.063  14.817
60244W        W32658  39.435  25.505  11.996
60245W        W32659   9.724  16.137  12.849
60246W        W32660  11.734  10.261  11.472
60247W        W32661  30.622  33.929  14.347
60248W        W32662  36.888  34.571   1.784
60249W        W32663  35.868  25.219   3.260
60250W        W32664  10.827   7.382   1.916
60251W        W32665  33.084  10.180   3.844
60252W        W32666   3.275  41.509   0.395
60253W        W32667  29.102   2.862   0.432
60254W        W32668  11.795   5.378   3.644
60255W        W32669  17.239  11.363   0.361
60256W        W32670  11.237  36.520   3.183
60257W        W32671  23.085  25.511   4.750
60258W        W32672   7.257  44.364   0.741
60259W        W32673  24.108  27.664   3.328
60260W        W32674  26.614   9.718   3.376
60261W        W32675  19.246  27.590  10.556
60262W        W32676  21.194  24.105  12.534
60263W        W32677  16.596  32.958  14.375
60264W        W32678  28.104  38.974   3.757
60265W        W32679  27.556  25.557  11.479
60266W        W32680  12.203   9.346   1.748
60267W        W32681   1.823  12.635   0.476
60268W        W32682   3.284  35.050  13.432
60269W        W32683  38.419  40.518  10.582
60270W        W32684  39.350  23.108   0.308
60271W        W32685  12.681  38.994   1.826
60272W        W32686  34.554  44.383  14.284
60273W        W32687  32.990  12.260  14.365
60274W        W32688   8.383  21.512   1.796
60275W        W32689  23.101  18.745   0.868
60276W        W32690  34.867  13.284   2.861
60277W        W32691  39.554   9.232   2.718
60278W        W32692  20.729  24.007  13.469
60279W        W32693   8.406   8.169  13.933
60280W        W32694   3.458  19.071  14.963
60281W        W32695   4.281  34.501  14.886
60282W        W32696  42.456  17.288   1.402
60283W        W32697  11.365   4.288  12.544
60284W        W32698  34.115   0.437   0.261
60285W        W32699   8.379  20.073  14.829
60286W        W32700  34.546  23.207   2.206
60287W        W32701  29.598  23.010  10.515
60288W        W32702  38.897  15.229   3.384
60289W        W32703   8.184   1.872   3.630
60290W        W32704  44.961  33.895  14.861
60291W        W32705   3.391  12.649  13.858
60292W        W32706  16.579  20.560  12.040
60293W        W32707  35.937  18.289   3.850
60294W        W32708  19.123  41.935  13.982
60295W        W32709  18.675  33.443  10.903
60296W        W32710  34.936  10.712  13.827
60297W        W32711  23.184   8.778  13.876
60298W        W32712  36.071  40.002   1.397
60299W        W32713  28.022   1.768  13.530
60300W        W32714  20.105  17.677   1.367
60301W        W32715  28.992  28.449   1.368
60302W        W32716  42.356  13.807  10.532
60303W        W32717  28.087  12.726  10.096
60304W        W32718   8.380  22.058  11.509
60305W        W32719   0.877   3.434  11.014
60306W        W32720  34.395  21.041  11.536
60307W        W32721   4.800  30.519   3.868
60308W        W32722  43.968  12.687   3.158
60309W        W32723  12.302  10.702   3.777
60310W        W32724  38.353   4.382  13.323
60311W        W32725   6.254   0.447  11.101
60312W        W32726   3.932  29.647  14.959
60313W        W32727  13.298  37.968  12.527
60314W        W32728   8.724  35.902   0.819
60315W        W32729   3.400  19.196  10.889
60316W        W32730   0.982  11.815  10.476
60317W        W32731   6.678  36.950   0.359
60318W        W32732  44.482  18.555  11.105
60319W        W32733  14.260  14.183  14.371
60320W        W32734   6.354  34.936   4.348
60321W        W32735  26.545  21.245  14.951
60322W        W32736   5.714  25.077  12.074
60323W        W32737   2.263  25.618  13.480
60324W        W32738  17.222  27.129   0.946
60325W        W32739   0.926  19.758  10.889
60326W        W32740   3.874  37.357  11.478
60327W        W32741  43.960   3.416   2.316
60328W        W32742  36.971   7.193   3.380
60329W        W32743  25.131  31.966  14.415
60330W        W32744  37.553   1.733  14.473
60331W        W32745   6.845  21.524  11.612
60332W        W32746   5.222  44.964  14.031
60333W        W32747  11.652  12.770  14.008
60334W        W32748  21.121  44.884  13.029
60335W        W32749  19.219  36.403  12.378
60336W        W32750  28.083  27.504   0.746
60337W        W32751  37.966  29.617  13.489
60338W        W32752   7.261   9.216   1.375
60339W        W32753   9.338  39.453   1.400
60340W        W32754  28.026  35.109   1.820
60341W        W32755  42.518  39.504  14.985
60342W        W32756  41.323  36.401   4.814
60343W        W32757  42.840   6.272  14.438
60344W        W32758   9.383  42.445   4.131
60345W        W32759   7.757  44.804  10.544
60346W        W32760  24.228  23.493   3.830
60347W        W32761  32.901  10.781  11.129
60348W        W32762  12.191  24.616   1.926
60349W        W32763  17.601  40.440  10.590
60350W        W32764  26.957  33.586  14.870
60351W        W32765  28.051  10.169  10.608
60352W        W32766   5.826  18.260   3.342
60353W        W32767  27.036   9.215   0.310
60354W        W32768   6.720  33.910  12.466
60355W        W32769  29.544  17.113  10.036
60356W        W32770  27.603  33.002  11.959
60357W        W32771   6.747  33.076   4.224
60358W        W32772   3.302  10.307  12.059
60359W        W32773  32.519  21.213   2.870
60360W        W32774  16.648   7.771   3.198
60361W        W32775   7.909  31.402   1.705
60362W        W32776  12.756  32.959   4.690
60363W        W32777  36.015  15.134   4.621
60364W        W32778   4.782   6.842   0.881
60365W        W32779  12.731  25.118  14.005
60366W        W32780  23.020  13.171   2.208
60367W        W32781  30.535  17.575   4.240
60368W        W32782  30.998  24.973   3.868
60369W        W32783   0.852  18.574   3.691
60370W        W32784   5.877  42.376   2.682
60371W        W32785   9.295  20.236  13.452
60372W        W32786  29.612   0.402   0.893
60373W        W32787  39.842  23.612  10.579
60374W        W32788  31.126   9.355   1.296
60375W        W32789  24.620  25.073   2.765
60376W        W32790   2.402  40.856   0.799
60377W        W32791   1.919  38.829   0.339
60378W        W32792  16.568  10.359   4.297
60379W        W32793  14.155   0.436   2.770
60380W        W32794  34.959  14.611  14.800
60381W        W32795   9.760   6.854   2.692
60382W        W32796   4.713   8.669   3.711
60383W        W32797   2.800  31.914   0.313
60384W        W32798   0.341  23.521   2.386
60385W        W32799  11.227  42.518  14.792
60386W        W32800  27.969  23.615   1.747
60387W        W32801  30.574  17.615   0.941
60388W        W32802  44.974  33.883  13.455
60389W        W32803  35.965   3.932   2.321
60390W        W32804  25.082   2.842  12.465
60391W        W32805  22.046   6.707  14.896
60392W        W32806  26.504  16.576  13.524
60393W        W32807  16.688  44.376   1.694
60394W        W32808  24.591  25.149  14.819
60395W        W32809  12.207   4.846   0.307
60396W        W32810  37.493  23.641  11.013
60397W        W32811  37.451  29.524  12.369
60398W        W32812  28.678   8.823  14.466
60399W        W32813  17.159   5.743   0.945
60400W        W32814  38.569  34.502  12.372
60401W        W32815  24.547  18.287   3.286
60402W        W32816   3.420  14.094   5.243
60403W        W32817  41.466  11.755   3.377
60404W        W32818  40.803  25.025  12.005
60405W        W32819  44.397  34.867   0.782
60406W        W32820   4.895  43.918  14.324
60407W        W32821  15.313  27.687  10.917
60408W        W32822  14.301  11.698  14.937
60409W        W32823  23.549   2.745   1.771
60410W        W32824  17.724   9.229   3.374
60411W        W32825   7.874  40.011   2.274
60412W        W32826  26.671  35.992   1.873
60413W        W32827   1.305  43.324   3.190
60414W        W32828  14.662   7.749   4.775
60415W        W32829  32.630  32.952   2.806
60416W        W32830  10.153  38.939  14.017
60417W        W32831  35.577  21.524   0.959
60418W        W32832  25.520  25.642  14.028
60419W        W32833   0.874  33.564  12.871
60420W        W32834  17.167   4.441  10.431
60421W        W32835  26.171   5.227  11.557
60422W        W32836   9.151   2.730  13.396
60423W        W32837  38.063   7.405  10.943
60424W        W32838  14.659  44.406   0.256
60425W        W32839   8.676   5.888  13.950
60426W        W32840  15.254  30.621   3.809
60427W        W32841  31.969  12.781  11.873
60428W        W32842  26.536  38.385  13.439
60429W        W32843  35.863  13.277  13.339
60430W        W32844  21.083  37.912  12.995
60431W        W32845  38.393  42.455  14.799
60432W        W32846  24.620  29.475  14.944
60433W        W32847  16.666  16.755   0.956
60434W        W32848  24.998  12.625  10.477
60435W        W32849  20.075  34.105   1.696
60436W        W32850  41.485  40.948  11.964
60437W        W32851  10.339   6.376   1.259
60438W        W32852  11.296  23.145   0.374
60439W        W32853   1.412   3.868  10.497
60440W        W32854  38.919  43.327   3.630
60441W        W32855   9.785  29.535   1.731
60442W        W32856  25.669   3.352   5.098
60443W        W32857  38.449   6.878   4.837
60444W        W32858   8.727  24.042   4.205
60445W        W32859   7.334  11.324  10.521
60446W        W32860  12.189  15.790   4.116
60447W        W32861  17.726  26.599   3.749
60448W        W32862  34.389  20.726  11.407
60449W        W32863  15.145  42.827   0.470
60450W        W32864  26.461   1.304  13.805
60451W        W32865  16.239  19.108   0.819
60452W        W32866  13.143  29.958   1.255
60453W        W32867  20.651  44.837   9.559
60454W        W32868  21.664  24.535  11.464
60455W        W32869  37.963  13.631  14.845
60456W        W32870   2.813  17.180  11.419
60457W        W32871   8.666  35.381   4.805
60458W        W32872  40.872  41.458  14.370
60459W        W32873  13.746   4.874   2.278
60460W        W32874  32.885  23.023   5.574
60461W        W32875  18.138  23.165  12.441
60462W        W32876   1.430  38.011  14.514
60463W        W32877  19.236  15.203   4.344
60464W        W32878  12.856  21.718   4.831
60465W        W32879  29.487  27.550   4.805
60466W        W32880  18.665  44.496  12.897
60467W        W32881  13.213  18.142   2.824
60468W        W32882  41.948  14.121  10.965
60469W        W32883  14.759  16.779   4.671
60470W        W32884  32.112   7.217  13.421
60471W        W32885  13.742   3.334  14.373
60472W        W32886   3.860  35.438   0.373
60473W        W32887  40.385  18.591  13.801
60474W        W32888  10.372  10.205   0.959
60475W        W32889  10.801  23.557   1.318
60476W        W32890  42.414   7.792  10.945
60477W        W32891  27.459  27.612   4.184
60478W        W32892  42.414  12.213  11.061
60479W        W32893  13.179   2.307   2.219
60480W        W32894  17.569  18.093  11.970
60481W        W32895  30.458   3.258  10.944
60482W        W32896  42.980  10.732  12.837
60483W        W32897   6.886  40.043  14.027
60484W        W32898  42.835   6.702   4.176
60485W        W32899  30.591  22.678   2.339
60486W        W32900   6.830   0.478  11.909
60487W        W32901  20.144   7.730   4.639
60488W        W32902  39.320  43.921   4.187
60489W        W32903  32.136  16.759  13.055
60490W        W32904  31.981  36.036   0.306
60491W        W32905  22.692  35.579  11.428
60492W        W32906   3.358   3.834  11.579
60493W        W32907  22.591  36.038   0.444
60494W        W32908  25.698   2.815  13.925
60495W        W32909  38.506  24.601   1.306
60496W        W32910   1.929  38.916   2.860
60497W        W32911  14.655  24.718   2.231
60498W        W32912   6.182  35.011  11.500
60499W        W32913  12.758  15.122   3.868
60500W        W32914  34.608   2.732  13.867
60501W        W32915  42.902  24.163   4.313
60502W        W32916  21.566  14.697  13.352
60503W        W32917  12.360   6.726  13.961
60504W        W32918   8.388   0.852   2.324
60505W        W32919  40.861   8.270   2.342
60506W        W32920   2.303  28.971  13.922
60507W        W32921  38.833  15.581  14.839
60508W        W32922  15.182  13.741  14.313
60509W        W32923  42.015  23.538  14.028
60510W        W32924  32.132  17.718   3.753
60511W        W32925  39.393  23.018  10.611
60512W        W32926  43.804  30.147  10.524
60513W        W32927   8.280   5.837   3.753
60514W        W32928  44.398  42.381  11.865
60515W        W32929  19.279  14.150   0.436
60516W        W32930   8.265  44.479  14.351
60517W        W32931  25.616  21.118  13.035
60518W        W32932   5.251  22.656  13.905
60519W        W32933   5.792  31.436   2.726
60520W        W32934  18.763  29.127  14.489
60521W        W32935  13.214   4.310  12.364
60522W        W32936   0.349   7.351  14.848
60523W        W32937  29.584  32.401   3.772
60524W        W32938   4.265   5.756  14.868
60525W        W32939   2.252  42.409  13.379
60526W        W32940  40.810  25.066  14.970
60527W        W32941  39.422  38.054  12.429
60528W        W32942  30.515  25.652   4.621
60529W        W32943  25.696  20.199   1.907
60530W        W32944   1.300   9.835   2.268
60531W        W32945  34.391  28.505   0.875
60532W        W32946  30.057  21.667   0.814
60533W        W32947  27.058  36.586  14.010
60534W        W32948   0.477  34.395  14.827
60535W        W32949  30.491  28.993  14.387
60536W        W32950  22.507  13.771  13.374
60537W        W32951   4.886   8.208  13.513
60538W        W32952  23.181  25.511  10.993
60539W        W32953  26.146  15.679   3.239
60540W        W32954  44.785  14.167  12.976
60541W        W32955  18.628   5.288   1.410
60542W        W32956   8.405  24.707   1.839
60543W        W32957  10.201  38.952  12.925
60544W        W32958  44.935  41.384  11.121
60545W        W32959  23.209  41.887  10.502
60546W        W32960  39.462  23.138  14.424
60547W        W32961   3.892   8.216   2.205
60548W        W32962  25.141  12.723   4.173
60549W        W32963  26.695  25.201   0.867
60550W        W32964  25.019  22.536  10.531
60551W        W32965  33.449  31.409   4.684
60552W        W32966  23.052  16.154  13.347
60553W        W32967  23.197  22.252  13.001
60554W        W32968  18.201  41.366   1.436
60555W        W32969  11.250  13.157   1.869
60556W        W32970  44.313  29.539  11.515
60557W        W32971  19.114  17.790  13.046
60558W        W32972  33.114  37.962  11.399
60559W        W32973  41.937  10.154   5.300
60560W        W32974  11.235  14.239  10.471
60561W        W32975   1.371   1.736  11.049
60562W        W32976  18.743  37.409  11.042
60563W        W32977  37.016  33.466  12.009
60564W        W32978  15.312  14.597  13.394
60565W        W32979  25.989  19.215   3.756
60566W        W32980   2.360   1.877   9.956
60567W        W32981  35.424  19.734  13.361
60568W        W32982   9.258   0.418  14.015
60569W        W32983   1.918   5.750   4.116
60570W        W32984  26.502  18.637  12.342
60571W        W32985  30.603  24.173   2.785
60572W        W32986  30.453  11.354  13.992
60573W        W32987   3.436  27.499   0.900
60574W        W32988  40.802  26.687   5.147
60575W        W32989  27.498  44.923   0.441
60576W        W32990  41.403  34.008   2.784
60577W        W32991  12.319  15.252  10.573
60578W        W32992  37.027  23.160  12.907
60579W        W32993  24.988   6.250  12.459
60580W        W32994   6.335  43.887  14.840
60581W        W32995  24.570   8.696  10.641
60582W        W32996  38.458  15.737  15.000
60583W        W32997   8.380   8.831   1.912
60584W        W32998  16.079   8.231  13.063
60585W        W32999  13.671  16.609   2.701
60586W        W33000  37.076  21.239  10.453
60587W        W33001  37.891  16.672  14.759
60588W        W33002  16.735  25.132  12.414
60589W        W33003   6.677  24.690  11.426
60590W        W33004  22.502  42.413  11.374
60591W        W33005  33.432  42.398  10.592
60592W        W33006   0.942  32.091  13.023
60593W        W33007  23.632  38.356  13.478
60594W        W33008   4.785   9.876  11.117
60595W        W33009   4.426   9.355   2.899
60596W        W33010  36.578  26.700  10.537
60597W        W33011  38.959   2.233   3.828
60598W        W33012  41.938  41.343   3.645
60599W        W33013  37.865  22.517   0.747
60600W        W33014   4.265  21.720  11.971
60601W        W33015  27.560  42.441   0.375
60602W        W33016  42.504  33.566  13.515
60603W        W33017  39.000   7.403   2.716
60604W        W33018  40.816   8.665  13.897
60605W        W33019  43.375  30.983  12.433
60606W        W33020  13.629  23.237  13.055
60607W        W33021   4.437  25.067  12.095
60608W        W33022  41.351  25.700  13.516
60609W        W33023  44.269  11.163   0.439
60610W        W33024  26.055  28.984  13.459
60611W        W33025   5.399  32.598  13.376
60612W        W33026  22.028   9.369  11.008
60613W        W33027  20.677  27.114   3.376
60614W        W33028  39.320  22.654  11.561
60615W        W33029  44.789  28.658  12.847
60616W        W33030   3.381  25.176  13.917
60617W        W33031  11.697  44.762   3.326
60618W        W33032  19.681  30.102   0.846
60619W        W33033  41.880  32.928   1.776
60620W        W33034  31.046  29.565  12.907
60621W        W33035  42.377   8.756   2.416
60622W        W33036   2.415  14.822  13.331
60623W        W33037  23.584  15.801   1.846
60624W        W33038   5.879  19.254  12.857
60625W        W33039  26.633  39.471   3.257
60626W        W33040  36.847   7.841   4.150
60627W        W33041  34.049   3.908  11.382
60628W        W33042  40.367  42.858   0.427
60629W        W33043  25.996   8.846  12.921
60630W        W33044  37.065   8.225  14.013
60631W        W33045  25.010   3.841   2.364
60632W        W33046  27.452  43.370   1.796
60633W        W33047  17.140  22.660   0.318
60634W        W33048  12.681  33.446   4.717
60635W        W33049  28.012  10.316  11.595
60636W        W33050  31.083  19.123  10.567
60637W        W33051  35.459  14.332   3.813
60638W        W33052  37.900  40.054   4.608
60639W        W33053  14.665  42.947   3.361
60640W        W33054  30.954  20.075  10.891
60641W        W33055   0.912  30.484   3.178
60642W        W33056   7.875  24.032  14.023
60643W        W33057  37.484   8.794  12.407
60644W        W33058  19.246  43.958   4.677
60645W        W33059  23.624  38.434   3.292
60646W        W33060  16.590   6.216   4.242
60647W        W33061  12.610  22.073  10.477
60648W        W33062  22.682  37.367  11.055
60649W        W33063  26.062   5.812  13.463
60650W        W33064  31.952   1.276  12.080
60651W        W33065  29.459  27.124   0.435
60652W        W33066  38.398  10.640  14.407
60653W        W33067  32.084  18.085  11.427
60654W        W33068  37.013  35.447   0.272
60655W        W33069  12.160   9.651  11.406
60656W        W33070  40.473  39.826  13.395
60657W        W33071  37.485  22.746  11.389
60658W        W33072  44.991   2.463   1.272
60659W        W33073  31.628   6.317  11.566
60660W        W33074  42.496  29.562   0.250
60661W        W33075  36.860  17.611   2.375
60662W        W33076  12.200  26.194   1.357
60663W        W33077  24.580  34.980  12.565
60664W        W33078  12.799   3.418   3.733
60665W        W33079  41.844  40.937   4.231
60666W        W33080  17.144  12.649  10.999
60667W        W33081   5.246  30.448   3.299
60668W        W33082  34.950  13.838  13.062
60669W        W33083  41.987  13.756   1.236
60670W        W33084  36.588  39.421  14.808
60671W        W33085  28.544  44.900   3.189
60672W        W33086  24.704  43.855   1.423
60673W        W33087  13.202   7.907   3.636
60674W        W33088  38.333   5.257  13.960
60675W        W33089  11.856  28.607   4.738
60676W        W33090  34.482  39.496  11.505
60677W        W33091  31.143  26.141  14.496
60678W        W33092  39.461   2.905   0.758
60679W        W33093  31.638  14.631  14.030
60680W        W33094  28.516  36.019  14.800
60681W        W33095  22.144  15.585   4.677
60682W        W33096   7.309  11.254  14.447
60683W        W33097  32.417  22.657  10.404
60684W        W33098  38.857  34.880  11.487
60685W        W33099   7.776  30.642  13.382
60686W        W33100   7.668  11.722  10.408
60687W        W33101   0.272   1.780  12.977
60688W        W33102   1.239  15.132   1.777
60689W        W33103  37.947  26.463   3.843
60690W        W33104  19.562  42.331  13.800
60691W        W33105   3.368  35.478   4.780
60692W        W33106  10.278   7.369   0.827
60693W        W33107  33.107  20.196   4.703
60694W        W33108   6.221   7.707  11.856
60695W        W33109  32.933  16.207   0.756
60696W        W33110  32.543   3.878   2.406
60697W        W33111   1.890   3.948   1.419
60698W        W33112  23.144   0.930  11.985
60699W        W33113  37.011  44.955   4.667
60700W        W33114  43.471   0.466   1.219
60701W        W33115  16.077   2.838   1.304
60702W        W33116  21.562  37.070   1.305
60703W        W33117   2.949  18.056  11.464
60704W        W33118  36.436   8.326  12.872
60705W        W33119  10.186  35.076  14.482
60706W        W33120  10.269   5.713  14.873
60707W        W33121   3.741  26.662  13.880
60708W        W33122  15.774  16.304  11.102
60709W        W33123   8.168  27.951   2.760
60710W        W33124  13.723  21.598  14.758
60711W        W33125  40.016  27.518  14.782
60712W        W33126  33.100   2.739   4.196
60713W        W33127  30.541  10.138   4.711
60714W        W33128   8.312  33.014  14.862
60715W        W33129  24.709  19.088   4.297
60716W        W33130  43.453   6.871  14.444
60717W        W33131   3.232  14.184   4.194
60718W        W33132  36.084  43.390  11.577
60719W        W33133  26.480  23.007   3.801
60720W        W33134  37.859   0.773   3.225
60721W        W33135  20.768  38.968  12.996
60722W        W33136  35.029  13.282   1.337
60723W        W33137  29.922  24.230   0.475
60724W        W33138   0.283  26.178   2.826
60725W        W33139  17.146  10.197   1.839
60726W        W33140  11.343  35.898  10.587
60727W        W33141  15.661  42.416  11.539
60728W        W33142  23.122  23.045   4.222
60729W        W33143  14.656   3.363   5.171
60730W        W33144  29.544  22.166   0.335
60731W        W33145  30.071   4.859   1.271
60732W        W33146  18.606  15.172  14.005
60733W        W33147  21.614  10.362  10.505
60734W        W33148  25.098  23.158   2.676
60735W        W33149   5.852  39.912  13.360
60736W        W33150  33.961  10.805  11.912
60737W        W33151  29.057  17.279  13.818
60738W        W33152  34.077  43.462  11.108
60739W        W33153  26.116   9.336  13.793
60740W        W33154   8.810   4.243   3.347
60741W        W33155  38.433  35.582   3.709
60742W        W33156  40.391   1.908   4.332
60743W        W33157  17.306   8.901   1.890
60744W        W33158  27.158  20.168   2.745
60745W        W33159  36.452   0.925  11.091
60746W        W33160  24.691  11.128   0.830
60747W        W33161  30.972  34.513   0.243
60748W        W33162  20.177  13.794   0.736
60749W        W33163  16.126   3.427  13.008
60750W        W33164  29.648   9.382   2.806
60751W        W33165  42.487  14.316   4.649
60752W        W33166  13.183  29.579   4.599
60753W        W33167  20.088   9.185  10.642
60754W        W33168  27.037  29.478  14.434
60755W        W33169  36.362  29.057  14.030
60756W        W33170  23.497   9.266   2.833
60757W        W33171  35.474  12.699   3.739
60758W        W33172  40.332  28.159  10.898
60759W        W33173  21.078  30.584  10.004
60760W        W33174  19.113  36.513  10.610
60761W        W33175  38.509  16.761   1.337
60762W        W33176  38.998   5.861  14.909
60763W        W33177  41.902  40.324  12.455
60764W        W33178  19.246  21.574  13.996
60765W        W33179  23.048  42.915   4.241
60766W        W33180  24.629  43.907  13.980
60767W        W33181   6.342  44.446   3.802
60768W        W33182  37.350  11.261  14.935
60769W        W33183   7.386  21.585   1.903
60770W        W33184  28.524  12.340   2.243
60771W        W33185  12.268   8.768   1.277
60772W        W33186  27.961  40.012  14.931
60773W        W33187  33.024  30.982   4.640
60774W        W33188  12.774  37.460  13.445
60775W        W33189  14.611   8.829  13.891
60776W        W33190  40.987  43.838  11.609
60777W        W33191  10.198   6.211  11.092
60778W        W33192   1.425  40.041  11.512
60779W        W33193  32.907  12.120  13.429
60780W        W33194   2.837   4.260  12.042
60781W        W33195  14.177  19.614  13.433
60782W        W33196  25.708  25.091   1.234
60783W        W33197  36.554  34.514   0.903
60784W        W33198  34.948   9.709  14.454
60785W        W33199  35.484  41.903   1.712
60786W        W33200  14.800   7.385  13.522
60787W        W33201   4.799  36.998  13.030
60788W        W33202  37.078  26.176   1.929
60789W        W33203  19.064  33.965   4.292
60790W        W33204  14.638  18.619  11.517
60791W        W33205  40.944  44.826   0.791
60792W        W33206   7.907  23.724   4.259
60793W        W33207  32.591  37.531   1.261
60794W        W33208  29.148  41.810   0.476
60795W        W33209   2.795  24.691  14.457
60796W        W33210  21.073   5.906  11.493
60797W        W33211  28.100  35.358   3.644
60798W        W33212  25.161  29.149   1.884
60799W        W33213  44.829  18.161   4.322
60800W        W33214  42.914  39.935  10.069
60801W        W33215  36.443  18.182  12.954
60802W        W33216   3.810  20.633   2.186
60803W        W33217  13.167   0.276  12.048
60804W        W33218  18.110  44.442   3.288
60805W        W33219   1.787   3.446   2.380
60806W        W33220   2.277  33.087   1.391
60807W        W33221  17.660  43.020  14.931
60808W        W33222   6.376  29.515   2.886
60809W        W33223  20.532   2.843  11.401
60810W        W33224  24.151  34.977   1.220
60811W        W33225  30.920  26.676  12.960
60812W        W33226  16.800  13.244   0.753
60813W        W33227  20.166  29.530   5.128
60814W        W33228  10.847  33.101   0.279
60815W        W33229  22.531  37.926  11.855
60816W        W33230  42.512   2.730  10.926
60817W        W33231  10.851  12.359  10.429
60818W        W33232  32.886  20.637   2.229
60819W        W33233  37.524  13.737   0.257
60820W        W33234  30.658  24.034  12.091
60821W        W33235   5.706  17.108   3.363
60822W        W33236   6.276   5.408   1.810
60823W        W33237  31.928   2.356  11.988
60824W        W33238  25.118  18.770  11.987
60825W        W33239  35.403  39.448   1.764
60826W        W33240   0.960  18.223   1.447
60827W        W33241  13.832  36.408   1.386
60828W        W33242  31.139  28.078  11.613
60829W        W33243   5.910  43.803   1.720
60830W        W33244  24.523  14.628   0.941
60831W        W33245  28.470  32.073  12.519
60832W        W33246  23.596  12.755  11.119
60833W        W33247  31.485  44.952  12.829
60834W        W33248  11.669  10.293  11.885
60835W        W33249   0.823  26.603   4.273
60836W        W33250  22.025  20.035  10.512
60837W        W33251   5.878  35.382   3.857
60838W        W33252  17.593  43.455  11.613
60839W        W33253  23.030  26.561   4.287
60840W        W33254   6.335   1.350   1.877
60841W        W33255   1.474  23.681   1.756
60842W        W33256   0.361  37.350  12.464
60843W        W33257  31.449  24.131  14.436
60844W        W33258  17.116  31.630   1.816
60845W        W33259  38.973   8.726  14.826
60846W        W33260  29.048  33.884  14.313
60847W        W33261   3.386   6.238  10.923
60848W        W33262  10.292  42.422   0.811
60849W        W33263  31.463  26.615   0.745
60850W        W33264   1.277   2.731  12.072
60851W        W33265  38.460  34.387  11.436
60852W        W33266  41.809  30.474   4.620
60853W        W33267  34.931   8.897   3.264
60854W        W33268   7.377  16.717  14.417
60855W        W33269  20.184  28.640  12.070
60856W        W33270  38.397   7.828  13.908
60857W        W33271  41.878  12.818   1.782
60858W        W33272  34.052  37.079  11.859
60859W        W33273  26.471  36.045  14.332
60860W        W33274  16.583  24.092  13.026
60861W        W33275  39.860  32.932   4.177
60862W        W33276  34.879  39.918  11.522
60863W        W33277   7.222  19.569   4.342
60864W        W33278   8.178  30.983   0.864
60865W        W33279  41.298  17.298   0.785
60866W        W33280  16.798  16.690  14.997
60867W        W33281  17.250  25.572   1.425
60868W        W33282  30.498  11.258  14.297
60869W        W33283  36.045  18.279  13.999
60870W        W33284   4.807   7.912  11.608
60871W        W33285  41.471  19.203  11.118
60872W        W33286  37.062   8.801  13.061
60873W        W33287   2.262  14.244   2.334
60874W        W33288   1.248  40.508  13.819
60875W        W33289  21.686  34.589   1.364
60876W        W33290  20.559   8.185   1.425
60877W        W33291  40.964  22.743  13.921
60878W        W33292  32.016  40.339   2.723
60879W        W33293  40.406   1.449  10.639
60880W        W33294  44.817  33.397  14.485
60881W        W33295   0.784  35.871   0.441
60882W        W33296  17.283  30.009  13.957
60883W        W33297   8.731  23.077   2.202
60884W        W33298   1.941  37.911  13.794
60885W        W33299  32.479  25.653   2.326
60886W        W33300  18.755  41.532  11.968
60887W        W33301  19.668   5.778  14.008
60888W        W33302   8.340  40.815  14.932
60889W        W33303  36.582  12.657  10.569
60890W        W33304  35.874  13.293  12.993
60891W        W33305  42.407  31.907   4.715
60892W        W33306  39.390  41.390  12.501
60893W        W33307  20.048  30.958  13.416
60894W        W33308   3.869  41.487   1.799
60895W        W33309  41.012   2.808   4.829
60896W        W33310   8.391  30.465   1.855
60897W        W33311  15.261  21.051  10.061
60898W        W33312  21.587  11.286   2.811
60899W        W33313  10.212  35.512  11.403
60900W        W33314  24.524  37.894  10.525
60901W        W33315   1.918  34.465   0.329
60902W        W33316  31.550  30.967  11.932
60903W        W33317  37.023   1.275  13.926
60904W        W33318  11.632  37.402  12.578
60905W        W33319  13.183  14.763  10.561
60906W        W33320  31.545   3.235   0.872
60907W        W33321   4.433  15.083   3.174
60908W        W33322  23.733  38.846  13.456
60909W        W33323  31.989   8.278  14.007
60910W        W33324  15.202  27.102  12.480
60911W        W33325  42.860  18.222  10.575
60912W        W33326   9.734  16.737   0.901
60913W        W33327   3.247  33.053  11.517
60914W        W33328   6.408  22.555  14.936
60915W        W33329  43.353  37.390   1.363
60916W        W33330   8.239  22.665  12.849
60917W        W33331  22.092  18.753   2.346
60918W        W33332  32.426  17.608  11.085
60919W        W33333  11.164  17.071  10.997
60920W        W33334  29.655  34.527  10.991
60921W        W33335  22.108   1.267  10.551
60922W        W33336  31.461  41.470   2.846
60923W        W33337   7.225  22.134   2.347
60924W        W33338  28.169  21.254   0.946
60925W        W33339  42.972  17.779   0.767
60926W        W33340  20.606  38.466   0.932
60927W        W33341  23.987   4.883  11.480
60928W        W33342   7.230   2.911  11.382
60929W        W33343   0.924   4.707  13.310
60930W        W33344  20.743  27.099   2.842
60931W        W33345  38.399   4.290  13.793
60932W        W33346  23.000  20.033  11.526
60933W        W33347  21.263   2.407   2.857
60934W        W33348  28.072  41.839   0.729
60935W        W33349   6.920  41.833   3.854
60936W        W33350  42.830   4.273   3.279
60937W        W33351  22.680  37.866   2.279
60938W        W33352  41.796  27.682  12.951
60939W        W33353  37.983  20.175  11.103
60940W        W33354  33.432  12.642  13.017
60941W        W33355  37.476  12.654   0.360
60942W        W33356  42.484  21.542   3.663
60943W        W33357  13.142   6.771  13.061
60944W        W33358  21.070  38.899   1.319
60945W        W33359  37.016  43.943  11.480
60946W        W33360  19.239  13.702  10.973
60947W        W33361   9.851  23.727  10.937
60948W        W33362  40.392  11.822  12.386
60949W        W33363  20.680  22.520   0.388
60950W        W33364  38.567  30.432  10.489
60951W        W33365  21.627  40.498  10.901
60952W        W33366  42.831   4.242  14.994
60953W        W33367  19.725  14.137  12.034
60954W        W33368  22.713  16.138   5.254
60955W        W33369  41.537  33.520   3.834
60956W        W33370  30.434  26.020  13.356
60957W        W33371  18.137   0.483  11.458
60958W        W33372  23.669  23.045   0.250
60959W        W33373  20.193  26.653   5.289
60960W        W33374  13.123  36.937  12.945
60961W        W33375  28.661  27.975  14.930
60962W        W33376  19.228  27.019  11.499
60963W        W33377  30.544  33.457   3.729
60964W        W33378  38.491  37.926   0.851
60965W        W33379  18.131  35.936  14.396
60966W        W33380  21.757  28.935  13.798
60967W        W33381  44.301   4.249   1.421
60968W        W33382  20.680   7.196   2.849
60969W        W33383  43.516  36.383  14.916
60970W        W33384  18.237  34.601  12.448
60971W        W33385  40.356  20.615  13.358
60972W        W33386  44.814  44.311  11.466
60973W        W33387  37.431  44.906   0.304
60974W        W33388   4.355  26.137   1.232
60975W        W33389  22.654  14.640  10.422
60976W        W33390  23.733  31.107   1.811
60977W        W33391  28.116  20.632   1.814
60978W        W33392   9.331   3.240   4.188
60979W        W33393  11.739   1.439  13.944
60980W        W33394  39.999   5.852   3.200
60981W        W33395   4.238  24.067  14.496
60982W        W33396  41.910  14.151   3.286
60983W        W33397   9.239   4.230   3.710
60984W        W33398  16.772  28.515  11.548
60985W        W33399  31.440  44.483   0.771
60986W        W33400   5.845  19.084  10.411
60987W        W33401   1.352  16.758  11.893
60988W        W33402  41.999  43.971   1.866
60989W        W33403  16.674  37.485   0.426
60990W        W33404   1.886  21.579  12.027
60991W        W33405   2.230  33.091   2.183
60992W        W33406  22.156  11.799  14.871
60993W        W33407  28.586  30.452  13.842
60994W        W33408  18.607  27.572   3.787
60995W        W33409  27.153  39.519   0.884
60996W        W33410  21.702  13.646   0.942
60997W        W33411   8.388  28.182   4.226
60998W        W33412   3.930  36.012  12.054
60999W        W33413  28.966  14.773  11.553
61000W        W33414  39.466  25.969  11.039
61001W        W33415  21.161  25.512  14.416
61002W        W33416  21.747   4.349   4.253
61003W        W33417  39.450  19.151  12.845
61004W        W33418  38.034  19.252   3.309
61005W        W33419  14.815  15.800  13.453
61006W        W33420  13.841  20.185  12.058
61007W        W33421  35.874   1.956   0.399
61008W        W33422  18.154  10.181  14.287
61009W        W33423  41.824   0.763  13.895
61010W        W33424  17.713  33.623   3.755
61011W        W33425  31.007   0.453  13.960
61012W        W33426  33.960  21.195   0.942
61013W        W33427  26.577  26.085  10.977
61014W        W33428  13.267  14.680  11.037
61015W        W33429  18.738  22.590   3.294
61016W        W33430  39.400  21.027  13.834
61017W        W33431  38.821  35.095   9.940
61018W        W33432  44.297   5.368  11.988
61019W        W33433  39.886  24.066   3.369
61020W        W33434   2.731  18.558  12.021
61021W        W33435  38.958  16.242   3.727
61022W        W33436  20.225   3.926   2.724
61023W        W33437  16.756  41.963  11.373
61024W        W33438  23.233  12.650  13.433
61025W        W33439  27.065  35.046   2.269
61026W        W33440  35.438  44.849  12.359
61027W        W33441  42.011  21.171   0.339
61028W        W33442  33.968  17.634  12.375
61029W        W33443  42.823  23.181   4.247
61030W        W33444  18.714  16.119   3.252
61031W        W33445  37.002  23.106  13.441
61032W        W33446  44.769  28.532   3.306
61033W        W33447  43.787  29.109  13.880
61034W        W33448  24.721  34.120   3.829
61035W        W33449  34.034   3.863   2.671
61036W        W33450  18.737  19.186   1.880
61037W        W33451  40.032   8.658   4.269
61038W        W33452  13.216  26.117   0.802
61039W        W33453   0.761  40.949   2.870
61040W        W33454   7.335  34.480   4.776
61041W        W33455  38.903   7.716  10.529
61042W        W33456  24.206   6.792  11.580
61043W        W33457  34.570   5.378  13.535
61044W        W33458  19.693  36.916  13.336
61045W        W33459  24.110  31.034   3.218
61046W        W33460  35.576  41.895  14.797
61047W        W33461   8.319  29.615  10.530
61048W        W33462  31.594  19.170   2.869
61049W        W33463  12.207   5.242  13.982
61050W        W33464  42.310  19.099   0.462
61051W        W33465  10.695  37.525   4.781
61052W        W33466   2.427  16.254  13.373
61053W        W33467   8.901  44.815   1.397
61054W        W33468  31.611  36.433  13.355
61055W        W33469  14.105  41.403  14.938
61056W        W33470   6.412   5.756  14.457
61057W        W33471   1.784  34.537  11.052
61058W        W33472   6.209   5.853   4.245
61059W        W33473  22.563  16.628  10.066
61060W        W33474  36.505  44.302   1.822
61061W        W33475  36.046  34.919   3.795
61062W        W33476  21.156  36.858   0.770
61063W        W33477  25.567   1.352   1.928
61064W        W33478   9.228   3.894  14.954
61065W        W33479  28.465  39.407   1.873
61066W        W33480  34.550   6.279   1.297
61067W        W33481  15.182  18.676  13.028
61068W        W33482   2.904  10.655   2.187
61069W        W33483   1.824  28.624  10.631
61070W        W33484   2.319  19.175   2.278
61071W        W33485   6.871   5.352  11.009
61072W        W33486  39.995  37.488   2.409
61073W        W33487  29.481   9.189  11.949
61074W        W33488   9.776  14.167  10.998
61075W        W33489   0.317  41.329  11.414
61076W        W33490  34.026  20.609   2.200
61077W        W33491  35.482   8.868  10.517
61078W        W33492  25.629  21.542   1.898
61079W        W33493  34.464  10.298   0.425
61080W        W33494  11.634  10.852  10.534
61081W        W33495   8.347   2.849   0.814
61082W        W33496  20.251  35.039  11.959
61083W        W33497  18.591  14.593  12.379
61084W        W33498  19.670  27.554  10.888
61085W        W33499  37.993  39.962  10.916
61086W        W33500  44.904  34.100   3.323
61087W        W33501  30.528  26.135  13.902
61088W        W33502  18.227  30.136  13.519
61089W        W33503   9.716  18.167   0.933
61090W        W33504   0.414  37.403  14.307
61091W        W33505  21.202  20.213   2.739
61092W        W33506  23.681   4.781  11.997
61093W        W33507  12.630  38.548  14.436
61094W        W33508  42.331   9.382   4.833
61095W        W33509  31.536  21.097   0.809
61096W        W33510   6.350  38.984   1.778
61097W        W33511  26.144  18.076   2.363
61098W        W33512   8.744  29.567   1.279
61099W        W33513  10.874  26.674  10.126
61100W        W33514  14.333  38.048  12.005
61101W        W33515  25.567   2.442  10.078
61102W        W33516   7.352  29.472  12.073
61103W        W33517  40.543  15.590  10.116
61104W        W33518  32.470  24.995  14.936
61105W        W33519  28.639   6.809   0.782
61106W        W33520  11.154  20.758   0.273
61107W        W33521  13.323  22.089   4.121
61108W        W33522  43.957   4.305  10.996
61109W        W33523  42.926  16.224   0.416
61110W        W33524  34.934  18.210   2.386
61111W        W33525  33.033  31.546   3.850
61112W        W33526  44.795   8.348  10.596
61113W        W33527  41.292  12.651   3.718
61114W        W33528   8.789   6.727  12.560
61115W        W33529  23.079   0.342  11.037
61116W        W33530   5.795  28.145   4.678
61117W        W33531  40.467   2.235  12.929
61118W        W33532   9.773  42.898   1.829
61119W        W33533  22.172  39.945  11.013
61120W        W33534  23.105  39.377   4.127
61121W        W33535  16.077  17.119   1.243
61122W        W33536  27.682  18.146  12.969
61123W        W33537  42.786   2.248   2.374
61124W        W33538  30.452  29.031  11.061
61125W        W33539  36.483  33.563  12.443
61126W        W33540  31.011  26.194  12.993
61127W        W33541   9.195   0.346   4.716
61128W        W33542   3.442  11.621  12.071
61129W        W33543   3.346  19.055   0.341
61130W        W33544  29.480  13.230   4.705
61131W        W33545  15.693  44.325   4.154
61132W        W33546  11.363  18.268  11.497
61133W        W33547  28.070  17.571  13.941
61134W        W33548  34.075  36.903  14.869
61135W        W33549  29.437  27.175   4.177
61136W        W33550  36.502   0.404   1.449
61137W        W33551  13.732  37.385   4.656
61138W        W33552  38.546  32.890  12.359
61139W        W33553  43.816  41.846  14.911
61140W        W33554  27.193  37.049   1.780
61141W        W33555  40.372  26.193  14.290
61142W        W33556  11.665  27.145   3.656
61143W        W33557  41.513  25.180   0.471
61144W        W33558  36.036   8.368  13.969
61145W        W33559  31.522  36.430  14.812
61146W        W33560  43.776  32.533  13.449
61147W        W33561  11.703  14.144  12.372
61148W        W33562   6.708  11.690   4.259
61149W        W33563  39.001  33.559   3.665
61150W        W33564  25.666  37.353   3.812
61151W        W33565   5.243  31.044  14.797
61152W        W33566  35.907  33.397   3.275
61153W        W33567  15.787  16.110  12.397
61154W        W33568  18.652  40.517   5.207
61155W        W33569  20.560  38.846   1.301
61156W        W33570  22.539  10.666  11.918
61157W        W33571   0.384  38.941  13.928
61158W        W33572  41.369   2.413  14.505
61159W        W33573  20.251   8.880   1.342
61160W        W33574   9.654  39.428  11.112
61161W        W33575  42.019   0.316   4.119
61162W        W33576  10.661   7.869  14.782
61163W        W33577  39.895  21.192   4.687
61164W        W33578  37.438  28.029   2.314
61165W        W33579  32.498  28.585   3.165
61166W        W33580   1.808  32.518   1.347
61167W        W33581  19.703  39.448  13.331
61168W        W33582  17.121   5.734   2.395
61169W        W33583  11.806  21.677   3.742
61170W        W33584   8.301   7.261  11.011
61171W        W33585  41.027  21.640   3.640
61172W        W33586   4.339  19.776   1.384
61173W        W33587  20.251  16.800  10.441
61174W        W33588  38.964  13.632   3.146
61175W        W33589  11.657  44.757   3.753
61176W        W33590  37.044  23.206   4.640
61177W        W33591  25.176  16.703   4.793
61178W        W33592  42.311   9.322  12.430
61179W        W33593  41.794  27.171   1.904
61180W        W33594  42.524  15.667  14.486
61181W        W33595  13.284  22.675   2.865
61182W        W33596  18.213  18.609  14.314
61183W        W33597  27.667  37.419   1.409
61184W        W33598  24.120  44.847   4.783
61185W        W33599  23.695  42.487   3.218
61186W        W33600  13.246  13.715  13.520
61187W        W33601  13.349  30.504   2.861
61188W        W33602  41.041  34.436   0.275
61189W        W33603  43.900   6.889  14.868
61190W        W33604  12.622  29.520   4.240
61191W        W33605  37.877  17.208   2.251
61192W        W33606  24.227  27.491  13.041
61193W        W33607   5.305  28.075   5.156
61194W        W33608  39.345  44.983   1.720
61195W        W33609  29.968  41.995  14.825
61196W        W33610  44.966  27.134   0.755
61197W        W33611  40.502   6.707  13.488
61198W        W33612  30.593   0.318  10.609
61199W        W33613   5.895  17.272  12.446
61200W        W33614  34.406   7.698   0.261
61201W        W33615  35.531  36.890   2.828
61202W        W33616  24.220  11.244  11.123
61203W        W33617  13.197  30.103  13.003
61204W        W33618  30.033  22.642   2.885
61205W        W33619  13.119  12.804   4.295
61206W        W33620  29.517  27.077  10.473
61207W        W33621  24.645  37.889  12.553
61208W        W33622  11.742  41.841   4.196
61209W        W33623  40.902  10.339  11.599
61210W        W33624  39.010  28.059  12.974
61211W        W33625  18.097   7.797  13.468
61212W        W33626   2.778  28.654  10.595
61213W        W33627  15.084  23.513   4.288
61214W        W33628  14.718   0.258  14.290
61215W        W33629  21.173  23.142   4.240
61216W        W33630  35.984  19.774  11.466
61217W        W33631   1.778  14.273   3.205
61218W        W33632  17.080  38.045   0.766
61219W        W33633  43.791   0.273  10.560
61220W        W33634  36.374  39.048  10.535
61221W        W33635  30.431   8.680   4.784
61222W        W33636  29.630  17.656   2.860
61223W        W33637  21.666  20.524  14.403
61224W        W33638  34.477  24.493  14.765
61225W        W33639  13.179  10.712  10.450
61226W        W33640  37.387  26.201   3.715
61227W        W33641   6.293  23.499   9.961
61228W        W33642   2.405  26.683   4.805
61229W        W33643  37.421  12.676   2.830
61230W        W33644  23.636  12.797   0.393
61231W        W33645  29.931  18.055  13.443
61232W        W33646  31.045  40.310  10.539
61233W        W33647  20.723   7.181   1.707
61234W        W33648  20.134   4.422  13.860
61235W        W33649   0.454  37.444  10.972
61236W        W33650  16.190   2.812  13.440
61237W        W33651  12.652  35.909   1.303
61238W        W33652  28.012   1.943   3.752
61239W        W33653  15.152   1.422  11.587
61240W        W33654  33.103  43.969   4.229
61241W        W33655  10.691   5.423  13.309
61242W        W33656  39.036  13.333  12.533
61243W        W33657  26.655  26.528   3.335
61244W        W33658   4.944  22.252  12.951
61245W        W33659  32.625  20.687   4.763
61246W        W33660  12.162  32.093  14.916
61247W        W33661  18.685  30.038   3.232
61248W        W33662  42.021   6.372  12.363
61249W        W33663   4.213   1.850  12.980
61250W        W33664  16.262  25.170   2.716
61251W        W33665   7.305  13.754  13.391
61252W        W33666  29.025  34.044  11.976
61253W        W33667  26.147   1.410   2.755
61254W        W33668  37.988   2.898  12.540
61255W        W33669  23.148  33.081  13.833
61256W        W33670  26.499  20.165   0.820
61257W        W33671   7.322  37.382  13.921
61258W        W33672  29.497  32.410   3.209
61259W        W33673  26.637   0.755  13.318
61260W        W33674   1.854   8.233  14.889
61261W        W33675   2.267  17.631  13.800
61262W        W33676  29.659  38.393   0.903
61263W        W33677   4.796  12.235  11.588
61264W        W33678  32.886  27.673  11.579
61265W        W33679  37.868   8.658   4.233
61266W        W33680  23.643  40.545   4.761
61267W        W33681  11.302  14.656   2.740
61268W        W33682  12.159  35.872   4.263
61269W        W33683  10.706  18.576  13.382
61270W        W33684   4.755  27.135  13.402
61271W        W33685   1.479  13.792   4.795
61272W        W33686  25.519   1.300   1.292
61273W        W33687   1.422  19.202  11.917
61274W        W33688  38.402  37.413   4.624
61275W        W33689  39.863  22.697   0.856
61276W        W33690  39.351  26.036  14.874
61277W        W33691  14.126  34.548   2.289
61278W        W33692  30.507   8.727  11.934
61279W        W33693   7.296  28.452   2.729
61280W        W33694  20.543  32.466   1.231
61281W        W33695  15.592  40.950  12.430
61282W        W33696  14.286  31.145   0.322
61283W        W33697  26.973   9.784   4.745
61284W        W33698  35.001   1.961   2.386
61285W        W33699  28.974  35.585  12.879
61286W        W33700  31.986   2.319   0.741
61287W        W33701   8.664  21.119   1.372
61288W        W33702  16.567  40.955   0.942
61289W        W33703  25.014   5.731  14.887
61290W        W33704  21.069  10.209  10.022
61291W        W33705  10.643   6.416  11.128
61292W        W33706  14.698   9.271  14.774
61293W        W33707   7.407  35.866   3.386
61294W        W33708   4.877  28.979  10.517
61295W        W33709  20.667  10.140   2.769
61296W        W33710  44.976   1.387  10.577
61297W        W33711  12.814  40.972  12.574
61298W        W33712  13.180  32.963  13.399
61299W        W33713  43.925  22.995  14.910
61300W        W33714   8.404  12.711   1.289
61301W        W33715  24.687   6.189  14.478
61302W        W33716  21.677   9.848   1.714
61303W        W33717  44.478  18.108   0.744
61304W        W33718  39.446   8.362  11.518
61305W        W33719  36.584   8.876   1.247
61306W        W33720  10.797  38.372  13.988
61307W        W33721  32.418   4.856  12.421
61308W        W33722  22.696  35.430  14.389
61309W        W33723  12.144  11.309  10.543
61310W        W33724   9.782  40.425  12.019
61311W        W33725  44.284  32.043  14.915
61312W        W33726   4.840  20.622  11.114
61313W        W33727  38.045   6.287  13.833
61314W        W33728  25.049  13.250  10.909
61315W        W33729  25.970  32.618  10.613
61316W        W33730  38.417  25.971   3.277
61317W        W33731   3.831  44.777  11.006
61318W        W33732   8.897  25.602   4.798
61319W        W33733  30.456   3.407  11.947
61320W        W33734  32.393   3.747   4.276
61321W        W33735  13.823  18.784  10.414
61322W        W33736  26.493  23.055  14.502
61323W        W33737  19.674  26.633   3.805
61324W        W33738  26.183  34.571  13.457
61325W        W33739  39.536  35.038   1.710
61326W        W33740  20.762  36.058  12.462
61327W        W33741  29.013  27.673  10.551
61328W        W33742  15.607  40.951  12.851
61329W        W33743  12.787   9.802   3.194
61330W        W33744  14.109   3.317   3.209
61331W        W33745  29.626   5.196  13.448
61332W        W33746   7.832  19.165   3.719
61333W        W33747  38.511  38.899  13.521
61334W        W33748  13.150   1.971  11.963
61335W        W33749  44.969  12.753  12.927
61336W        W33750  34.512  20.072   1.323
61337W        W33751  40.839  11.714   2.690
61338W        W33752  43.410  30.029  10.944
61339W        W33753  38.831  22.546  14.032
61340W        W33754  41.392  33.066  14.879
61341W        W33755  20.742   0.862   4.819
61342W        W33756  42.507   2.390   1.901
61343W        W33757   8.161  33.942  12.848
61344W        W33758  23.546  27.623  13.422
61345W        W33759   4.756   7.755   3.667
61346W        W33760   7.382  31.981   0.934
61347W        W33761  26.596  37.060  10.617
61348W        W33762  13.218  42.396  13.901
61349W        W33763  43.309   6.286  14.792
61350W        W33764  35.496   0.367   0.749
61351W        W33765   6.726  37.347  12.083
61352W        W33766  10.854   6.424  11.952
61353W        W33767  18.696   7.722   4.291
61354W        W33768   6.879  21.245   1.221
61355W        W33769  44.835  44.302   3.244
61356W        W33770  38.057  31.592  12.996
61357W        W33771   4.906  43.513   4.704
61358W        W33772  11.166  25.475  14.946
61359W        W33773   3.808   0.851  12.082
61360W        W33774  42.346   8.365   0.362
61361W        W33775  43.466   5.761   4.182
61362W        W33776  31.494   7.728  13.898
61363W        W33777  13.610  44.803  12.028
61364W        W33778  16.074  31.576  13.380
61365W        W33779  13.329  38.839  11.072
61366W        W33780   7.807   3.727   1.305
61367W        W33781  19.184  12.161   0.454
61368W        W33782   5.336   5.306   2.662
61369W        W33783  37.853  37.378  14.762
61370W        W33784  19.105  10.633  14.963
61371W        W33785  27.524  29.062  14.398
61372W        W33786   4.783   2.950   1.893
61373W        W33787  16.614  20.640   2.363
61374W        W33788  24.701  17.147  13.925
61375W        W33789  19.190  29.432   0.297
61376W        W33790  27.673  44.855   1.369
61377W        W33791  32.474  44.277   2.301
61378W        W33792   1.750   7.384   0.767
61379W        W33793  12.140  28.583   3.291
61380W        W33794  42.857  33.593   2.362
61381W        W33795  36.997   6.788   2.727
61382W        W33796  37.436  38.443  14.863
61383W        W33797   1.329  36.957   0.881
61384W        W33798   5.751   4.416  14.829
61385W        W33799  11.360   4.245  13.434
61386W        W33800  15.782   2.243  14.786
61387W        W33801  19.752  17.592   2.286
61388W        W33802  30.084  11.674  14.886
61389W        W33803  27.459  17.135   2.769
61390W        W33804  15.172  24.667  14.011
61391W        W33805  23.028   5.197  13.504
61392W        W33806  42.839  36.842   2.386
61393W        W33807   9.319  24.043   4.752
61394W        W33808   4.425   2.841  11.497
61395W        W33809  29.482  36.867  13.032
61396W        W33810   1.296   1.463  12.399
61397W        W33811   6.387   0.924   1.238
61398W        W33812  17.642  29.556   3.701
61399W        W33813  42.284  40.023  13.507
61400W        W33814  30.425  42.876   4.222
61401W        W33815  43.776  38.031   2.717
61402W        W33816  27.670  21.629   4.788
61403W        W33817  29.041  14.713  14.496
61404W        W33818   8.778   1.977   4.648
61405W        W33819  44.002   1.340  12.576
61406W        W33820   5.876   1.859   4.715
61407W        W33821  37.945  24.177  12.052
61408W        W33822  25.995  36.582   0.387
61409W        W33823  40.369  43.490  11.124
61410W        W33824  18.124  21.639   0.405
61411W        W33825  44.260  35.911   4.157
61412W        W33826  29.556  41.393   2.862
61413W        W33827  30.073  21.679   2.714
61414W        W33828  21.082  18.205  13.887
61415W        W33829  18.267  12.809   0.388
61416W        W33830  17.075  33.036  13.393
61417W        W33831  39.366  20.059   2.385
61418W        W33832   7.347  27.955   4.305
61419W        W33833  21.018  44.268  14.806
61420W        W33834  34.428  10.318  14.894
61421W        W33835  37.506  40.962   2.256
61422W        W33836  26.699  20.250  11.548
61423W        W33837   3.284  23.596   1.884
61424W        W33838  31.637   3.332  14.823
61425W        W33839  29.143  16.273  14.422
61426W        W33840  39.436  24.616   1.300
61427W        W33841  32.945   6.255  10.963
61428W        W33842  18.786  29.546  13.919
61429W        W33843   3.885  43.459   2.410
61430W        W33844  17.576  33.993  10.472
61431W        W33845   8.258  20.717  11.949
61432W        W33846  15.678  32.465  13.454
61433W        W33847  15.689  39.892  11.889
61434W        W33848  24.081  29.517   2.387
61435W        W33849   6.754  38.954  13.848
61436W        W33850  16.191  40.974  12.961
61437W        W33851   7.287  11.708   0.460
61438W        W33852  18.759  30.657  13.867
61439W        W33853  14.303  18.721  12.005
61440W        W33854  27.157   4.758  11.097
61441W        W33855  15.201   9.262   0.815
61442W        W33856  23.680  11.301   1.292
61443W        W33857  34.411  27.605   4.737
61444W        W33858   9.312  28.098  13.836
61445W        W33859  25.984  43.994   0.780
61446W        W33860   7.348  27.082  14.507
61447W        W33861  23.592  19.744   0.961
61448W        W33862  18.724   4.353  14.317
61449W        W33863  15.684  43.810  12.954
61450W        W33864  29.964   3.760  11.933
61451W        W33865   0.947   9.780   2.833
61452W        W33866  13.709   8.349   4.747
61453W        W33867  17.632  23.618   0.882
61454W        W33868  43.890  20.049   2.878
61455W        W33869  26.576  31.002  11.464
61456W        W33870  25.527  22.513   3.798
61457W        W33871  12.734  17.651  12.521
61458W        W33872  31.588  33.443  14.439
61459W        W33873  19.689  37.414  11.964
61460W        W33874  42.355   6.330   0.770
61461W        W33875  10.837  24.133   0.904
61462W        W33876  27.963  17.138   1.431
61463W        W33877   8.161  23.548  13.537
61464W        W33878  35.948  32.944  14.316
61465W        W33879  17.705  35.905   3.666
61466W        W33880  37.975  26.700  10.544
61467W        W33881  29.934  43.391  10.415
61468W        W33882  28.132  19.613   4.759
61469W        W33883  43.383  16.770   3.772
61470W        W33884  38.053  40.897   3.200
61471W        W33885  38.536   2.329  11.877
61472W        W33886  25.094   3.279  12.061
61473W        W33887   1.461  44.814  10.626
61474W        W33888   6.395  30.978   3.159
61475W        W33889  42.443  13.616  14.286
61476W        W33890   7.273  27.627   3.167
61477W        W33891  22.732  37.025  10.472
61478W        W33892  37.563  29.144  14.822
61479W        W33893  18.081   7.839   1.934
61480W        W33894   9.186  43.939  14.836
61481W        W33895  40.824   8.719  12.832
61482W        W33896  15.811   8.330   0.469
61483W        W33897  11.649  11.780   1.872
61484W        W33898  32.539   6.915   4.155
61485W        W33899   6.181   1.830  11.454
61486W        W33900  44.995  39.327  13.792
61487W        W33901   3.346  43.271   2.730
61488W        W33902  20.247  34.454   2.306
61489W        W33903  16.211  21.099   3.641
61490W        W33904  41.505   2.325   4.638
61491W        W33905  25.659  34.904  10.483
61492W        W33906  10.670  24.544   2.309
61493W        W33907  31.005  15.321  13.028
61494W        W33908   2.792   0.443  13.315
61495W        W33909   4.286  11.789   2.253
61496W        W33910  28.645  12.778  14.865
61497W        W33911  12.838   9.381   5.283
61498W        W33912   0.769  14.729   0.470
61499W        W33913  10.702  25.993  14.428
61500W        W33914  38.505  36.875   1.851
61501W        W33915   0.276  37.018   3.234
61502W        W33916  38.958   3.254  12.936
61503W        W33917   8.264  36.392  14.321
61504W        W33918  21.239   4.869   4.600
61505W        W33919  16.306  11.835   3.721
61506W        W33920  15.190  36.010   3.151
61507W        W33921  18.561  31.928   1.275
61508W        W33922   1.343  43.362  10.527
61509W        W33923  12.137  41.854   3.325
61510W        W33924  20.237  21.714   1.831
61511W        W33925  16.630  25.205  10.528
61512W        W33926  32.133  21.548   2.816
61513W        W33927  36.568  35.852  13.490
61514W        W33928  14.181  38.021   0.832
61515W        W33929  26.625  15.612  10.943
61516W        W33930  17.716  31.082  14.327
61517W        W33931  44.419  40.990  10.894
61518W        W33932  27.089  16.651  11.897
61519W        W33933  32.066  17.178  14.506
61520W        W33934  18.057  44.992   0.287
61521W        W33935  43.913  14.242  11.387
61522W        W33936  37.522  40.871   1.301
61523W        W33937  37.579  22.691   1.349
61524W        W33938  25.571  31.457   4.253
61525W        W33939   7.364  22.218   2.848
61526W        W33940  26.466  16.706   1.277
61527W        W33941  41.821  25.210  13.446
61528W        W33942  31.985  27.618  11.471
61529W        W33943  36.586  43.935  11.472
61530W        W33944   0.793   3.318  14.890
61531W        W33945   3.351  23.732  12.824
61532W        W33946  34.476  28.604   3.299
61533W        W33947  38.473  14.715  14.445
61534W        W33948   0.743  24.093   1.796
61535W        W33949  43.437  36.842   0.830
61536W        W33950  43.005  19.743  14.974
61537W        W33951   9.334  29.616  14.395
61538W        W33952  38.406   3.817  10.960
61539W        W33953  16.224  24.691   1.239
61540W        W33954  33.122  41.421  13.810
61541W        W33955  32.138  28.014  12.981
61542W        W33956  17.196  15.665  11.865
61543W        W33957  26.590  38.962   4.334
61544W        W33958  41.870  23.732   2.686
61545W        W33959  35.543  26.081   1.885
61546W        W33960  17.091  12.617   1.408
61547W        W33961   4.852  39.371   1.359
61548W        W33962  14.325   5.399   5.266
61549W        W33963  13.672   9.365   2.367
61550W        W33964   6.246  37.972   3.743
61551W        W33965  14.261  41.457  11.437
61552W        W33966  24.055   1.961   2.836
61553W        W33967   9.838   7.299   1.801
61554W        W33968  37.989  18.603  14.439
61555W        W33969  10.154  37.917   2.409
61556W        W33970  42.817  10.385  11.129
61557W        W33971  22.068   9.271  14.964
61558W        W33972  41.850  10.205   2.294
61559W        W33973  38.826  21.051   3.812
61560W        W33974   9.371  38.881   0.405
61561W        W33975   1.262  38.862  10.608
61562W        W33976  18.627   2.270   1.931
61563W        W33977  30.062  28.645  10.626
61564W        W33978  16.288   5.875  14.306
61565W        W33979  40.964  27.040   2.882
61566W        W33980  33.031  25.497  11.988
61567W        W33981  22.686  40.936   2.403
61568W        W33982  26.016   0.359   3.662
61569W        W33983  14.630  12.279  11.972
61570W        W33984  11.260  33.115   1.301
61571W        W33985   1.398  24.581  12.527
61572W        W33986  18.266  28.957  12.909
61573W        W33987  14.675  20.653   5.585
61574W        W33988  33.611  40.536   3.707
61575W        W33989  12.773  16.294   0.332
61576W        W33990   4.392   4.274  14.831
61577W        W33991  42.377  12.625  13.378
61578W        W33992  28.524  35.090  14.940
61579W        W33993  25.117   3.939   0.729
61580W        W33994  24.100  44.824   0.296
61581W        W33995  12.843  30.430  10.583
61582W        W33996  34.395  28.635   1.234
61583W        W33997  36.975  27.974  10.566
61584W        W33998  27.537  14.113   0.749
61585W        W33999   7.700  20.702   4.680
61586W        W34000   8.208  14.152   2.779
61587W        W34001   5.822  39.010   0.444
61588W        W34002  43.964  41.412   4.715
61589W        W34003  12.702  43.795  14.453
61590W        W34004  11.250  38.414  13.023
61591W        W34005  30.163  31.456  11.511
61592W        W34006  29.023  23.048   2.894
61593W        W34007  27.644  13.650  10.906
61594W        W34008  12.837   8.718  10.531
61595W        W34009  33.405   2.429   2.342
61596W        W34010  18.232  23.608   1.320
61597W        W34011  19.100  37.886   1.359
61598W        W34012  40.340  14.154  10.971
61599W        W34013  29.941  25.207   2.741
61600W        W34014  10.177   6.761  13.376
61601W        W34015  12.695  21.174  11.574
61602W        W34016  36.981  40.303  14.909
61603W        W34017  12.706  19.042  13.992
61604W        W34018  11.847   2.361   4.320
61605W        W34019  16.685  12.197  14.325
61606W        W34020  38.566  10.384   1.900
61607W        W34021  40.506  38.914   1.218
61608W        W34022  41.345  38.325   2.371
61609W        W34023  33.527   9.167   0.469
61610W        W34024  35.599  43.445  10.524
61611W        W34025  24.146  27.015   3.333
61612W        W34026   0.831  12.285  14.445
61613W        W34027  32.068  15.274   4.642
61614W        W34028   0.762  18.118  12.568
61615W        W34029  28.557  38.563   4.648
61616W        W34030   4.263  41.519   2.312
61617W        W34031  31.566  19.700   1.365
61618W        W34032  24.668  26.602  12.842
61619W        W34033  20.711   1.775  11.046
61620W        W34034  28.126  19.229   3.244
61621W        W34035  30.932  40.018  13.335
61622W        W34036  21.233  17.270   2.777
61623W        W34037  20.269   9.234  14.787
61624W        W34038  23.023   8.376   3.379
61625W        W34039  39.511   2.760   1.799
61626W        W34040  38.404   5.384  11.901
61627W        W34041  34.975  39.543   2.403
61628W        W34042  30.970  12.811  11.877
61629W        W34043  28.601  17.708  13.471
61630W        W34044  26.698  34.976  13.937
61631W        W34045  16.098   1.353   4.822
61632W        W34046   6.862  14.130  12.056
61633W        W34047  12.653  38.950  12.990
61634W        W34048  32.598   9.213  13.944
61635W        W34049  13.156  10.295  14.980
61636W        W34050  14.622  11.857  14.000
61637W        W34051   1.798  16.130   4.597
61638W        W34052   6.205  18.143   0.787
61639W        W34053  34.999  39.045   3.727
61640W        W34054  22.085  34.553   3.702
61641W        W34055  23.588  27.185  13.853
61642W        W34056  37.490  37.451   1.817
61643W        W34057  23.560   0.867  14.768
61644W        W34058  32.928   7.672   3.311
61645W        W34059   5.337  32.449  10.575
61646W        W34060  42.799   4.337   2.763
61647W        W34061  31.454  17.657  11.524
61648W        W34062   8.703   1.837   3.208
61649W        W34063  42.859  22.141  12.498
61650W        W34064  30.545  25.138   5.227
61651W        W34065  27.083  37.855   0.948
61652W        W34066   9.661  18.706   0.398
61653W        W34067  22.223  11.744  10.439
61654W        W34068  34.553  19.099  14.817
61655W        W34069  34.037  43.376   2.366
61656W        W34070  28.597  38.517   0.913
61657W        W34071  40.460  23.145   3.643
61658W        W34072  40.430  23.208   4.651
61659W        W34073  12.807  10.715  13.039
61660W        W34074   4.449  39.391  14.758
61661W        W34075  11.769  14.785   4.249
61662W        W34076  44.759  29.163   0.416
61663W        W34077  16.760   2.906  11.441
61664W        W34078  44.990  18.074   3.316
61665W        W34079   5.856  21.729  10.514
61666W        W34080  24.002  11.320  11.994
61667W        W34081  10.655  18.544   4.622
61668W        W34082  12.665  33.915   2.350
61669W        W34083  33.380  18.252  11.487
61670W        W34084   9.229   7.285   2.878
61671W        W34085  20.677  19.247  13.890
61672W        W34086  18.246   4.281  11.089
61673W        W34087  21.720   4.705  11.505
61674W        W34088  10.813  35.013   1.365
61675W        W34089  19.670  31.525   1.222
61676W        W34090  24.063  31.403   0.797
61677W        W34091  23.122  35.933  13.484
61678W        W34092   9.360  35.948   9.981
61679W        W34093  24.655  13.311   3.367
61680W        W34094  40.945   1.735   2.723
61681W        W34095  24.514  21.074  12.470
61682W        W34096  43.327   3.766   2.759
61683W        W34097  10.823  29.949   2.775
61684W        W34098  11.275  23.105  14.305
61685W        W34099   0.880   5.408  14.403
61686W        W34100  35.925   7.315   1.828
61687W        W34101  44.857  41.343  11.607
61688W        W34102  13.690  19.699   9.633
61689W        W34103  10.808  24.714   1.293
61690W        W34104   6.280  14.121   2.785
61691W        W34105  42.522  19.211  10.978
61692W        W34106  44.277   5.417   3.361
61693W        W34107  31.088  20.117   3.671
61694W        W34108   4.863  11.182  11.986
61695W        W34109  18.104   8.298  11.100
61696W        W34110  24.651  16.304   2.208
61697W        W34111   6.833   6.899   2.247
61698W        W34112   4.880  14.675   9.983
61699W        W34113  34.483  35.962   3.238
61700W        W34114  15.742  26.498  14.885
61701W        W34115  40.401   1.924   3.810
61702W        W34116  22.689  10.270  10.065
61703W        W34117  32.465   3.788  14.374
61704W        W34118  29.571  16.762  11.934
61705W        W34119  23.556  32.503   2.677
61706W        W34120  16.075  24.696   0.774
61707W        W34121   0.759  32.941  11.594
61708W        W34122  42.465  25.085   4.123
61709W        W34123   8.655   8.369  11.119
61710W        W34124  33.490  25.187   0.294
61711W        W34125  39.395  36.440   2.664
61712W        W34126   5.758  23.985   1.258
61713W        W34127   0.743  19.569   3.334
61714W        W34128  18.632  13.297  11.095
61715W        W34129  26.494  34.542   4.650
61716W        W34130  40.815   5.239  11.465
61717W        W34131   0.932  34.922  14.977
61718W        W34132  12.185  10.699   2.692
61719W        W34133  26.551  19.768  10.520
61720W        W34134   2.383  39.449   3.794
61721W        W34135  12.146  27.171   3.741
61722W        W34136  25.677  14.230  12.972
61723W        W34137  16.713   5.700   4.126
61724W        W34138  10.645   2.293  14.943
61725W        W34139  34.026  35.979   4.774
61726W        W34140  11.270  40.984   1.239
61727W        W34141  29.092  30.070  10.939
61728W        W34142  39.933  25.047  13.063
61729W        W34143  21.072  38.531  13.437
61730W        W34144   9.190   9.357   2.239
61731W        W34145  37.492  33.409  13.908
61732W        W34146  27.690  13.712   2.199
61733W        W34147  41.398  16.240  14.324
61734W        W34148   0.302  22.708   1.264
61735W        W34149  17.160   8.340  14.983
61736W        W34150  26.164  12.330  10.543
61737W        W34151  10.803  33.955   3.180
61738W        W34152  19.199  15.280   1.860
61739W        W34153  22.223  11.645  14.349
61740W        W34154  44.464  39.056   0.382
61741W        W34155  25.977  16.598   5.782
61742W        W34156   6.255   9.720   1.437
61743W        W34157   1.361  38.980  13.827
61744W        W34158  16.695  37.026   0.964
61745W        W34159  30.547  12.126  11.442
61746W        W34160  33.423   8.726  14.365
61747W        W34161  20.151   4.925   2.723
61748W        W34162  34.889  27.129  11.917
61749W        W34163  42.370  34.117   2.211
61750W        W34164  41.310  20.251  12.566
61751W        W34165  34.956  36.093   3.859
61752W        W34166  38.005  30.907  12.053
61753W        W34167  16.169   7.285   2.828
61754W        W34168  18.744  20.562   4.789
61755W        W34169  32.955  15.802   1.902
61756W        W34170  41.457  34.988  13.456
61757W        W34171   8.721  19.747  11.378
61758W        W34172  30.579   7.262   4.664
61759W        W34173  26.607   0.976  13.853
61760W        W34174  43.293   4.840  14.031
61761W        W34175  23.696  34.554   0.310
61762W        W34176  35.917  18.787  13.334
61763W        W34177  32.088  44.787  14.459
61764W        W34178   0.317  31.059  14.983
61765W        W34179  13.726  27.975   4.344
61766W        W34180  28.510   0.356  11.939
61767W        W34181  27.610  36.847   0.362
61768W        W34182  34.892  26.979  13.974
61769W        W34183  31.474  10.263   3.658
61770W        W34184  43.776  14.726   3.209
61771W        W34185  40.501  38.420   0.363
61772W        W34186  35.412  41.509   2.805
61773W        W34187  39.902  43.435  10.517
61774W        W34188  27.173  16.259  13.495
61775W        W34189  34.594  24.529  13.960
61776W        W34190   7.733   4.750   3.281
61777W        W34191  21.102  10.189  10.414
61778W        W34192   3.240  32.519  14.823
61779W        W34193   6.365  20.645   2.781
61780W        W34194   8.291  31.993  13.801
61781W        W34195  33.899  20.220   3.653
61782W        W34196  17.629  44.871   3.382
61783W        W34197  21.644  15.655   1.867
61784W        W34198  15.290   2.724   4.628
61785W        W34199   5.912  34.596   4.247
61786W        W34200  25.181   2.882   0.771
61787W        W34201  37.902  34.951  13.312
61788W        W34202  35.443  34.467   0.450
61789W        W34203  38.040  43.958  13.942
61790W        W34204  18.083   3.790   3.269
61791W        W34205   8.812  43.464   1.409
61792W        W34206   7.222  37.862  12.499
61793W        W34207  16.670  33.973  10.935
61794W        W34208  25.964   0.336   5.247
61795W        W34209  11.133  44.407   0.413
61796W        W34210  17.139  13.750   3.631
61797W        W34211  44.988  37.831  13.821
61798W        W34212   2.802  19.632  11.039
61799W        W34213   8.802  25.520  11.579
61800W        W34214  29.069  34.473   1.366
61801W        W34215  21.220  20.161  11.494
61802W        W34216  42.301  36.949   2.243
61803W        W34217  31.929  36.587  13.053
61804W        W34218  27.154  21.513  14.993
61805W        W34219  29.536  15.104   0.373
61806W        W34220  27.186  38.893  14.447
61807W        W34221  32.615  35.467   2.883
61808W        W34222  33.506   6.272  10.918
61809W        W34223  18.781  38.831   5.161
61810W        W34224  13.753   3.373   0.398
61811W        W34225  12.283  13.288  14.457
61812W        W34226  36.514  17.301  13.832
61813W        W34227  27.478   2.945  13.369
61814W        W34228  21.539  17.183   0.361
61815W        W34229  37.434  44.388   3.355
61816W        W34230  34.582   5.232   2.346
61817W        W34231  26.096  16.205  10.548
61818W        W34232   4.437  21.132   0.850
61819W        W34233  19.091  42.496  10.617
61820W        W34234   6.795  36.093  14.360
61821W        W34235  44.004  16.599  11.018
61822W        W34236  28.027   4.778  10.937
61823W        W34237  38.056  31.118   4.325
61824W        W34238  23.604  15.321  13.803
61825W        W34239  40.354  40.509  12.416
61826W        W34240  38.429  26.065   2.331
61827W        W34241  32.993  23.571  10.120
61828W        W34242  42.926  41.511  11.904
61829W        W34243  41.965  34.417   4.658
61830W        W34244  28.569  40.021   3.149
61831W        W34245   0.784  17.776   1.396
61832W        W34246  24.526  30.917   0.306
61833W        W34247  38.023  22.185   1.817
61834W        W34248  19.651  23.114   2.715
61835W        W34249   4.220  29.964   2.186
61836W        W34250  36.880   5.881   3.776
61837W        W34251  38.036  22.737  12.365
61838W        W34252  23.199  21.146  11.521
61839W        W34253  30.589   1.467  14.875
61840W        W34254  14.780  41.846   0.733
61841W        W34255   5.381   2.325  13.905
61842W        W34256  31.963  34.520  12.459
61843W        W34257  39.432  23.088   1.763
61844W        W34258  19.109  18.711  11.565
61845W        W34259  32.083   8.377  12.431
61846W        W34260  27.130  18.128   1.433
61847W        W34261  22.687  30.509  14.406
61848W        W34262  37.499  10.774  14.295
61849W        W34263  22.738  39.493   1.383
61850W        W34264   7.765  41.342  14.357
61851W        W34265   6.886  27.686  11.551
61852W        W34266   8.864  39.821  10.478
61853W        W34267  16.285  27.115  12.085
61854W        W34268  11.148  41.001   2.387
61855W        W34269   8.698  35.415  11.575
61856W        W34270  22.578  36.565  14.824
61857W        W34271   4.863  36.035  13.456
61858W        W34272  12.782   5.729   4.122
61859W        W34273   5.859  16.224  11.563
61860W        W34274   6.296  34.966  14.425
61861W        W34275  37.574   1.374  13.536
61862W        W34276  15.262  22.227   0.755
61863W        W34277   3.909   6.905   3.273
61864W        W34278   6.215   0.447   1.312
61865W        W34279  35.452  41.538   4.655
61866W        W34280  23.680  36.564   3.155
61867W        W34281  28.174   2.761   4.765
61868W        W34282  40.503  27.022   3.851
61869W        W34283  16.174  35.489   4.661
61870W        W34284  22.070   7.835  12.093
61871W        W34285  37.953   8.701   0.799
61872W        W34286  20.730  26.586  10.438
61873W        W34287  23.588  42.843  12.841
61874W        W34288  43.765  31.593   4.249
61875W        W34289  21.039   4.240  13.389
61876W        W34290  18.751  32.595  14.479
61877W        W34291   5.252  41.003  10.511
61878W        W34292   5.336  42.022  12.859
61879W        W34293  40.810  20.699   3.182
61880W        W34294  37.087  12.844   1.376
61881W        W34295  18.100  31.506  10.937
61882W        W34296  10.777  32.431   2.832
61883W        W34297  32.426   2.795  11.095
61884W        W34298   9.212  33.932  12.086
61885W        W34299   4.358  39.497   4.695
61886W        W34300  25.592  21.552  12.373
61887W        W34301   3.787  10.193   1.248
61888W        W34302   6.738  36.458   0.843
61889W        W34303  27.973  37.068   0.928
61890W        W34304  29.025   4.736  12.839
61891W        W34305  11.275  43.440   2.666
61892W        W34306  16.685  34.955   1.437
61893W        W34307  36.859  40.526   4.709
61894W        W34308  33.497  24.172   0.831
61895W        W34309   3.292  14.742  14.763
61896W        W34310  17.661  27.132   1.362
61897W        W34311  34.391   5.776   0.343
61898W        W34312   7.305  11.644   4.126
61899W        W34313  41.914  40.873  13.844
61900W        W34314  37.980   5.898  14.014
61901W        W34315   7.320  19.108   1.266
61902W        W34316  33.573  26.194   0.326
61903W        W34317   2.729  26.593   3.357
61904W        W34318   2.265   4.845  11.103
61905W        W34319  19.686   5.317   1.215
61906W        W34320  25.047  17.636  10.523
61907W        W34321  18.785  29.543   1.749
61908W        W34322   4.863  36.435  12.848
61909W        W34323  25.043  40.909  12.560
61910W        W34324  36.966   1.324   3.793
61911W        W34325  29.428  31.624   1.839
61912W        W34326  20.244  12.182   1.300
61913W        W34327  13.345  11.139  13.529
61914W        W34328  31.098  25.555   0.351
61915W        W34329   0.904  17.596  13.353
61916W        W34330  42.384  20.145   3.190
61917W        W34331  13.703  11.220  14.359
61918W        W34332  25.174  31.479  10.501
61919W        W34333  36.419  12.836   0.896
61920W        W34334  21.661  26.172  12.879
61921W        W34335  33.561  12.222   0.395
61922W        W34336  28.542  17.128  13.803
61923W        W34337  34.119  12.760  11.509
61924W        W34338  21.033   0.262  11.582
61925W        W34339  27.032  39.840  10.586
61926W        W34340  24.025  14.822   2.698
61927W        W34341   5.920  13.132   2.325
61928W        W34342  14.172  42.917   4.707
61929W        W34343  34.399  43.444  11.994
61930W        W34344   3.804  16.789  12.049
61931W        W34345  40.391  32.007   9.968
61932W        W34346  18.114  37.438  13.311
61933W        W34347  41.799  34.557  11.917
61934W        W34348  43.870  38.929   3.188
61935W        W34349  21.660   3.723   3.357
61936W        W34350  21.741  24.088   2.698
61937W        W34351  36.095  32.602  11.485
61938W        W34352   9.871  43.312   4.315
61939W        W34353  21.217  35.571   3.840
61940W        W34354  43.309  16.676  13.941
61941W        W34355  15.705   2.821   2.335
61942W        W34356  20.641  11.718  13.951
61943W        W34357  20.740  21.078  13.883
61944W        W34358  24.204  26.526   0.279
61945W        W34359  31.003   1.434  12.891
61946W        W34360  31.609   5.768  10.454
61947W        W34361  26.607  28.939  10.645
61948W        W34362  27.507  19.194   4.161
61949W        W34363  31.608  33.906   1.822
61950W        W34364  30.430  18.239  14.416
61951W        W34365  29.953  42.383  12.444
61952W        W34366  23.509  41.012  13.470
61953W        W34367  24.176  17.196   3.257
61954W        W34368   9.693  26.076  11.006
61955W        W34369  12.249  16.733  12.029
61956W        W34370  44.278  12.285   0.302
61957W        W34371  42.310  44.361   3.150
61958W        W34372  35.895  26.469  11.500
61959W        W34373   6.197  18.607  10.534
61960W        W34374  15.709   3.829   1.842
61961W        W34375  28.974  23.217   0.398
61962W        W34376   2.294  15.785  11.933
61963W        W34377  42.931  15.192   1.375
61964W        W34378  12.281  26.006   3.152
61965W        W34379  16.782   0.795  14.803
61966W        W34380  36.393  22.249  13.937
61967W        W34381  38.336   0.774   0.843
61968W        W34382  30.945   4.808  12.902
61969W        W34383  38.362  39.051   4.179
61970W        W34384  20.624   4.344   1.730
61971W        W34385  37.515   5.772   0.884
61972W        W34386  39.537  43.283  12.049
61973W        W34387  27.964  35.488   2.879
61974W        W34388  16.225  29.076   2.180
61975W        W34389  18.060  14.282   4.278
61976W        W34390  29.655  22.155   1.295
61977W        W34391  33.468  19.610  14.973
61978W        W34392   6.805   0.316   3.226
61979W        W34393   2.384  39.856  10.989
61980W        W34394   7.199  13.108  11.966
61981W        W34395  41.407  14.589  12.877
61982W        W34396   7.273  35.466   1.402
61983W        W34397   2.361  29.127  13.500
61984W        W34398   9.740  24.643   1.898
61985W        W34399   3.235  21.539  13.906
61986W        W34400  38.449   0.757  12.928
61987W        W34401  24.668  28.143  11.415
61988W        W34402  44.341  13.826  11.011
61989W        W34403  38.872   9.356  10.527
61990W        W34404  10.822  43.988  12.561
61991W        W34405  10.695  31.487  12.851
61992W        W34406  25.580  34.577  11.521
61993W        W34407  28.590   6.349   3.150
61994W        W34408  20.096  12.799   5.090
61995W        W34409  11.819  25.533   1.435
61996W        W34410  35.086  35.914   4.790
61997W        W34411   6.864  18.124   1.861
61998W        W34412  16.075  18.147   4.190
61999W        W34413  19.086  16.579  12.451
62000W        W34414  39.867  30.952   3.861
62001W        W34415   3.352   3.879   2.325
62002W        W34416  34.586  11.679   2.268
62003W        W34417   5.224  10.211  13.459
62004W        W34418  24.207  28.579  11.074
62005W        W34419   6.428  12.303   4.614
62006W        W34420  44.319  13.844   1.842
62007W        W34421  17.149  35.094   0.860
62008W        W34422  31.964   2.286   2.745
62009W        W34423  17.763  30.528  14.983
62010W        W34424  39.949  14.784  13.896
62011W        W34425  22.226  29.509  10.443
62012W        W34426   1.801  18.151  13.953
62013W        W34427  44.944  11.735  10.130
62014W        W34428  26.691   5.906  11.857
62015W        W34429   1.276  34.980   2.688
62016W        W34430  24.679  41.359   2.210
62017W        W34431   5.274  32.103   0.801
62018W        W34432   7.755  42.383   4.136
62019W        W34433   6.876   8.226   4.192
62020W        W34434   7.896   5.727   4.271
62021W        W34435  33.545  19.615  12.014
62022W        W34436   8.373  13.610  10.572
62023W        W34437  19.082   0.803   0.893
62024W        W34438  22.071  26.997   2.756
62025W        W34439  36.857  44.363   0.935
62026W        W34440  30.039   5.780  14.022
62027W        W34441  13.804  39.004  14.323
62028W        W34442  41.510  11.233   1.745
62029W        W34443   0.365  40.351   0.421
62030W        W34444  26.590  38.989   2.861
62031W        W34445  41.421  36.853   0.273
62032W        W34446   5.849   7.878   0.264
62033W        W34447  30.613  30.042  10.490
62034W        W34448  41.883  11.630  11.550
62035W        W34449  33.986  28.577   3.192
62036W        W34450  30.435  25.583   4.302
62037W        W34451  31.981  14.202  12.510
62038W        W34452  12.763   5.211   1.323
62039W        W34453  10.249  41.523   3.234
62040W        W34454   5.431  40.376  13.375
62041W        W34455  24.007  35.539   0.938
62042W        W34456  24.031  24.580   3.223
62043W        W34457  12.728  14.654   0.799
62044W        W34458   5.335   5.426  12.893
62045W        W34459  24.055  18.760  11.392
62046W        W34460  34.070  18.159   2.351
62047W        W34461  37.912  30.518  10.531
62048W        W34462  11.144  30.503  14.843
62049W        W34463  25.668  20.593  12.386
62050W        W34464   4.892  44.473   2.291
62051W        W34465   9.267  25.134  10.416
62052W        W34466   1.431   5.928  14.916
62053W        W34467  18.739  21.705  11.498
62054W        W34468  34.414  19.239  14.336
62055W        W34469  20.690  28.066   3.850
62056W        W34470  27.652  43.952  14.819
62057W        W34471  39.365  15.682   0.443
62058W        W34472  35.410  15.155   4.210
62059W        W34473  25.578  10.721  11.865
62060W        W34474  30.006  15.196  14.897
62061W        W34475  15.175  24.601   2.713
62062W        W34476  19.551  44.776   4.329
62063W        W34477  40.862  31.628   3.866
62064W        W34478  31.968  21.119  14.308
62065W        W34479  35.434   2.343   3.787
62066W        W34480  25.642  28.527  13.007
62067W        W34481  35.043  44.318  12.000
62068W        W34482  25.492   6.756   1.397
62069W        W34483  19.212  21.029   3.251
62070W        W34484   3.730  23.661   0.821
62071W        W34485   8.791  14.652   0.965
62072W        W34486   3.756  30.940   0.306
62073W        W34487  29.544  31.427  13.819
62074W        W34488  11.214  37.482  10.488
62075W        W34489  36.550  33.408  10.028
62076W        W34490   4.256  40.816  14.488
62077W        W34491   3.949  10.274  11.950
62078W        W34492  22.746  28.523   3.866
62079W        W34493  15.201  29.970   1.912
62080W        W34494  43.283  42.983  11.118
62081W        W34495   1.918   3.222   4.784
62082W        W34496  18.114   4.287   0.478
62083W        W34497  19.091  18.073  12.897
62084W        W34498  12.791   8.297  11.091
62085W        W34499  34.014  39.906   4.807
62086W        W34500   2.263   8.832  11.492
62087W        W34501  26.039  28.983   3.271
62088W        W34502  14.648  25.132  11.979
62089W        W34503  25.581  35.546  10.637
62090W        W34504  14.664  36.585   3.752
62091W        W34505  41.888  23.018  14.490
62092W        W34506   7.225   9.662   4.621
62093W        W34507   2.310  32.557   2.849
62094W        W34508  25.974  30.518   4.324
62095W        W34509   3.748  18.763   0.359
62096W        W34510  11.736   3.285  12.394
62097W        W34511  44.466  35.960   3.169
62098W        W34512  18.684   2.257   1.339
62099W        W34513  11.306  30.620  10.474
62100W        W34514  12.857  40.821  13.879
62101W        W34515  26.595   3.457  11.873
62102W        W34516  27.529  13.615  14.975
62103W        W34517   6.189   8.347  10.645
62104W        W34518  29.139   1.388   2.842
62105W        W34519  42.423  33.087  12.553
62106W        W34520   4.239   4.342   2.269
62107W        W34521   0.365  31.924   3.753
62108W        W34522  33.586  18.182   4.151
62109W        W34523  23.065   3.246  12.004
62110W        W34524   7.838   3.745   4.178
62111W        W34525  17.556  20.211   3.348
62112W        W34526  25.521   9.307   2.756
62113W        W34527  21.204   9.798  11.001
62114W        W34528  30.521  39.389   1.238
62115W        W34529   3.237  22.739   3.696
62116W        W34530  44.799   3.394  10.438
62117W        W34531  23.050  36.023  12.884
62118W        W34532   1.877  15.589   2.725
62119W        W34533   6.335   9.291   4.242
62120W        W34534  39.994  24.985   0.472
62121W        W34535  42.465  30.605  12.025
62122W        W34536  43.916  29.450  12.909
62123W        W34537  43.947   3.852  14.320
62124W        W34538  43.928  18.720   4.117
62125W        W34539  15.216  27.150   0.344
62126W        W34540  42.398  15.723  11.597
62127W        W34541   1.910   6.272  12.561
62128W        W34542  12.840  30.627  11.427
62129W        W34543  24.693  35.859  12.547
62130W        W34544  26.205  14.620  11.947
62131W        W34545  29.043  24.140  12.350
62132W        W34546  10.277  35.544   4.601
62133W        W34547  19.636  35.447  13.397
62134W        W34548  33.601  24.986  11.045
62135W        W34549  21.701   2.941  11.925
62136W        W34550  37.557  36.454  14.388
62137W        W34551  14.597   5.392   3.212
62138W        W34552  44.976  34.443   2.333
62139W        W34553  39.519  22.218  10.919
62140W        W34554  43.001  33.123  12.537
62141W        W34555  25.059   0.766   4.637
62142W        W34556   4.759  38.911   4.265
62143W        W34557  29.573  28.440   3.163
62144W        W34558  42.961  41.002   4.756
62145W        W34559  34.465  25.646   4.141
62146W        W34560  42.478  28.552   4.284
62147W        W34561  37.051   8.806   4.632
62148W        W34562  29.994  40.879   4.137
62149W        W34563  30.577  44.914  11.106
62150W        W34564  22.198  38.986  13.805
62151W        W34565  21.109  28.959   2.718
62152W        W34566  11.159   7.699  13.934
62153W        W34567  42.421  33.419   2.236
62154W        W34568  16.217   0.486  13.878
62155W        W34569  21.693  31.614   0.356
62156W        W34570  22.164  20.697   0.907
62157W        W34571  22.668  40.012   1.419
62158W        W34572  39.972  12.270  13.842
62159W        W34573   7.886  44.301  10.461
62160W        W34574   3.887  39.988   0.746
62161W        W34575   6.293  33.536  11.009
62162W        W34576  37.997  41.970   4.664
62163W        W34577  24.124  11.263   3.279
62164W        W34578  23.084  38.031   4.602
62165W        W34579  26.574  17.559  11.606
62166W        W34580  38.022  11.700  14.818
62167W        W34581  36.936  15.161   3.811
62168W        W34582  40.041   9.340  14.335
62169W        W34583  29.591  14.685  11.507
62170W        W34584  11.169  39.491  11.878
62171W        W34585  23.073   0.488   0.446
62172W        W34586  40.987   2.381   4.755
62173W        W34587  15.138  16.253  12.356
62174W        W34588   1.442  38.532  10.451
62175W        W34589  16.091   4.272  12.011
62176W        W34590  10.219  12.284   4.245
62177W        W34591   7.237   4.847   2.363
62178W        W34592  36.385  13.797  11.089
62179W        W34593  26.660   4.302  10.036
62180W        W34594   4.765  26.084  11.400
62181W        W34595  16.160  41.388   3.866
62182W        W34596  37.535  13.202   5.321
62183W        W34597  35.509  14.197   1.232
62184W        W34598  33.094  14.173   3.232
62185W        W34599  25.030   8.384   1.232
62186W        W34600   4.714  14.240  13.965
62187W        W34601  40.893  11.354   3.386
62188W        W34602  27.111  16.777   1.694
62189W        W34603  13.629  17.116  12.937
62190W        W34604   1.801  28.070  13.378
62191W        W34605  31.930  29.144  13.418
62192W        W34606  36.924  13.207   2.257
62193W        W34607  14.784  30.953  11.051
62194W        W34608  42.442  21.593  11.563
62195W        W34609  21.689  37.957  10.537
62196W        W34610   4.358  13.667   1.856
62197W        W34611  43.986  22.576   1.750
62198W        W34612  35.932  25.603   0.323
62199W        W34613   5.352  17.801  12.969
62200W        W34614  44.806   0.419   3.722
62201W        W34615  39.456   4.265   1.343
62202W        W34616  14.588  35.571   3.632
62203W        W34617  24.479  42.833   4.798
62204W        W34618  28.967  38.494   0.459
62205W        W34619  30.562  34.024   1.299
62206W        W34620  18.577  26.001   0.734
62207W        W34621  18.146  13.699  13.033
62208W        W34622  10.807   1.391  13.022
62209W        W34623  37.567  33.889  14.936
62210W        W34624  42.028  33.531  11.017
62211W        W34625   5.268  16.677  11.095
62212W        W34626  20.648  13.628  10.925
62213W        W34627  44.940  10.270  12.967
62214W        W34628  13.606  38.384   2.333
62215W        W34629  29.459  27.599  13.539
62216W        W34630   1.895  37.538   5.122
62217W        W34631  13.114  22.718  10.479
62218W        W34632   8.258   2.428  11.396
62219W        W34633  13.681  30.659  12.054
62220W        W34634  13.613   8.188   2.773
62221W        W34635  15.769  15.775   3.780
62222W        W34636   1.396  38.968   4.293
62223W        W34637  23.658  14.174   4.619
62224W        W34638  33.881  38.379   2.234
62225W        W34639   5.248  39.887  14.957
62226W        W34640  16.184  32.111  13.865
62227W        W34641  12.826  14.290  11.417
62228W        W34642   2.924  33.107  13.964
62229W        W34643  28.140  13.170  11.108
62230W        W34644  42.410  17.745   2.378
62231W        W34645  22.162  35.871   2.856
62232W        W34646  11.779  41.376   0.958
62233W        W34647   0.753  40.974  14.889
62234W        W34648  30.941   9.152  12.992
62235W        W34649  27.606  19.589  11.449
62236W        W34650  31.512   0.803  12.059
62237W        W34651  35.470  38.929  13.334
62238W        W34652  25.511  12.783  14.957
62239W        W34653  44.837   9.374   3.202
62240W        W34654  41.477   0.332  11.572
62241W        W34655  16.807  34.073   1.219
62242W        W34656  36.587  44.789   3.824
62243W        W34657  24.062  30.580   2.663
62244W        W34658   9.798  26.061   1.879
62245W        W34659  17.600   7.198   3.754
62246W        W34660  25.692   5.728  10.490
62247W        W34661  43.787  18.182   4.158
62248W        W34662  17.078  18.674   3.699
62249W        W34663  37.084  16.665  11.876
62250W        W34664  13.838  26.623  11.607
62251W        W34665  18.091  18.205   3.751
62252W        W34666  29.099  10.278   2.745
62253W        W34667  24.192  33.437  13.518
62254W        W34668  26.488  12.701   3.663
62255W        W34669  34.876  22.187   4.213
62256W        W34670  15.631  25.477  12.510
62257W        W34671  14.256   7.233   0.797
62258W        W34672  43.885   7.218   0.747
62259W        W34673  32.456  38.840   1.698
62260W        W34674  18.121  32.032   4.602
62261W        W34675   2.407   2.780   3.215
62262W        W34676  29.577  25.578   2.665
62263W        W34677  33.616  33.023   2.256
62264W        W34678  24.023  34.013  14.400
62265W        W34679   3.716  37.548  12.394
62266W        W34680  18.155  41.362  11.405
62267W        W34681  28.575  30.452  10.935
62268W        W34682  21.215   9.840   4.828
62269W        W34683  21.206  17.704  11.071
62270W        W34684   4.347  27.999  10.144
62271W        W34685  26.509  33.510  12.845
62272W        W34686   1.439  29.061  11.533
62273W        W34687  39.901  16.109   1.852
62274W        W34688  23.997  13.674  13.914
62275W        W34689  18.724  31.607  12.546
62276W        W34690  26.625  13.605   0.385
62277W        W34691  34.519  21.104   3.215
62278W        W34692  30.561  27.961   2.320
62279W        W34693  16.624  17.629  10.528
62280W        W34694  26.971  37.875  10.628
62281W        W34695  14.744  23.216   0.430
62282W        W34696  41.440  18.743   3.868
62283W        W34697  28.084  26.173  11.397
62284W        W34698  24.704   6.257  12.387
62285W        W34699  12.625  27.119   0.819
62286W        W34700  39.040  19.200   2.261
62287W        W34701  14.797  28.185  12.438
62288W        W34702  11.190  22.021   2.383
62289W        W34703   0.258  28.513  10.426
62290W        W34704  44.863  26.484  10.896
62291W        W34705  34.608  33.027  13.866
62292W        W34706  22.728  38.435  11.864
62293W        W34707  17.270  41.483  13.387
62294W        W34708   7.316  13.124  13.023
62295W        W34709  23.491  18.159  12.940
62296W        W34710  42.982   3.395   1.699
62297W        W34711   5.360  12.808   4.326
62298W        W34712  25.568  25.177   2.778
62299W        W34713  35.573  30.497   4.244
62300W        W34714   9.648  40.802   2.327
62301W        W34715   1.893   1.811   1.439
62302W        W34716  38.035   4.309   4.232
62303W        W34717  12.664  36.064  11.943
62304W        W34718  28.968  41.493   0.273
62305W        W34719  25.991  42.948   1.875
62306W        W34720  34.101  31.052  13.517
62307W        W34721  42.415  30.032   2.875
62308W        W34722   1.404  22.049   3.783
62309W        W34723  26.682  34.478   0.249
62310W        W34724  25.705  42.944  14.964
62311W        W34725   4.756   6.875   3.328
62312W        W34726   7.385  29.139   0.759
62313W        W34727  39.981  23.700   4.786
62314W        W34728  17.715  43.322  12.575
62315W        W34729  29.444   8.301   3.629
62316W        W34730  19.171  22.569  10.633
62317W        W34731  44.455  10.700  14.880
62318W        W34732   1.897  24.480   4.143
62319W        W34733  43.853  25.052   3.745
62320W        W34734  39.499   0.459  13.886
62321W        W34735  38.336  38.567   2.265
62322W        W34736  26.595   0.295   4.164
62323W        W34737   7.377   2.940   2.314
62324W        W34738  16.303  14.203  14.769
62325W        W34739  41.860   7.280   4.161
62326W        W34740   7.678  25.621   0.247
62327W        W34741   5.751  43.475  10.600
62328W        W34742  39.548  26.163   0.316
62329W        W34743   2.839  41.388   0.871
62330W        W34744  34.919  10.327   2.322
62331W        W34745  19.142  35.011   3.642
62332W        W34746   8.332  18.188   3.639
62333W        W34747  40.519   8.260  14.396
62334W        W34748  23.619  11.840   2.800
62335W        W34749  24.663  10.713   4.307
62336W        W34750   4.334  40.036   4.797
62337W        W34751  42.983  21.607  14.931
62338W        W34752  19.547  13.176   3.308
62339W        W34753  31.023   3.361   0.372
62340W        W34754  40.420  20.650   4.773
62341W        W34755  26.495  36.841  13.406
62342W        W34756  21.551  39.030  11.435
62343W        W34757  39.044  33.056  13.863
62344W        W34758  35.557  12.277   3.259
62345W        W34759  22.140   6.896  12.391
62346W        W34760  40.871  24.033   4.803
62347W        W34761  21.240  34.093  11.059
62348W        W34762  38.537  13.257  14.408
62349W        W34763  29.109  36.590  12.838
62350W        W34764   4.412  24.567   2.403
62351W        W34765  19.624   9.890   3.166
62352W        W34766   1.266  23.631   2.298
62353W        W34767  41.822  41.405   4.630
62354W        W34768  21.709  23.710  11.856
62355W        W34769   0.447  23.195  11.060
62356W        W34770  22.197   3.833  14.503
62357W        W34771  30.613   1.298   3.685
62358W        W34772  35.887   6.277   3.761
62359W        W34773  18.613  16.120   4.658
62360W        W34774   0.392  40.422   1.772
62361W        W34775  42.879  26.054   4.141
62362W        W34776   6.220   6.681  12.009
62363W        W34777  23.661  22.163   4.264
62364W        W34778   9.817  15.256  14.477
62365W        W34779  30.513  10.749   4.184
62366W        W34780  22.726  26.567   2.269
62367W        W34781  43.482  29.667   2.234
62368W        W34782  40.428   0.486  12.015
62369W        W34783  39.871  19.167   0.750
62370W        W34784  34.477   1.872  11.912
62371W        W34785   7.888  18.779   2.216
62372W        W34786  14.187  35.530   1.910
62373W        W34787  40.843  31.500   2.272
62374W        W34788  38.016  44.414   4.252
62375W        W34789  41.488  36.011   0.369
62376W        W34790  42.904  11.316  11.948
62377W        W34791   7.738  42.365  11.448
62378W        W34792  40.411  19.563  13.399
62379W        W34793  10.699  11.157  13.958
62380W        W34794  24.177  33.604  12.539
62381W        W34795  28.128  16.108   1.877
62382W        W34796  34.612   7.784   3.306
62383W        W34797  16.282  43.389  12.529
62384W        W34798  42.776  36.541   3.741
62385W        W34799  10.232  40.818  12.897
62386W        W34800   6.922  27.597   1.859
62387W        W34801  20.586  12.227  10.484
62388W        W34802  27.139  26.562  14.952
62389W        W34803   4.858   0.836  13.027
62390W        W34804   7.319  35.388   2.306
62391W        W34805   4.893  29.036  11.967
62392W        W34806   1.845   4.279   4.207
62393W        W34807  36.412  40.003  14.805
62394W        W34808  25.068  11.292   0.425
62395W        W34809  19.542  26.601   1.855
62396W        W34810  13.215   5.790   5.118
62397W        W34811  28.985   9.256   2.288
62398W        W34812  10.721  30.002  13.933
62399W        W34813  23.672  37.519  10.579
62400W        W34814   2.445  38.014  14.918
62401W        W34815  26.128   7.246   3.311
62402W        W34816  37.980  27.991   0.898
62403W        W34817  35.109   0.484  13.469
62404W        W34818  29.940  29.103  14.842
62405W        W34819  28.489   7.407   4.178
62406W        W34820  19.199  41.920  14.431
62407W        W34821  11.747   7.762  13.020
62408W        W34822  42.304  27.501  13.343
62409W        W34823  10.717   6.391  10.491
62410W        W34824  35.100  12.804  11.096
62411W        W34825  15.687  38.033  14.868
62412W        W34826  42.009  11.292   0.848
62413W        W34827  13.808  44.855  14.337
62414W        W34828   4.272   6.332   3.772
62415W        W34829  21.146  26.083  12.879
62416W        W34830   0.422  41.296   2.782
62417W        W34831  12.622  32.590   2.764
62418W        W34832  13.212   7.895  14.796
62419W        W34833  17.639  34.481  14.278
62420W        W34834  18.275   1.778   2.324
62421W        W34835  34.535  24.496   0.335
62422W        W34836  19.711  16.296  14.824
62423W        W34837   2.371   8.391   0.307
62424W        W34838   7.185  26.024  12.519
62425W        W34839  15.658  23.000   0.288
62426W        W34840  43.945  10.666   4.137
62427W        W34841  29.930   2.841   1.807
62428W        W34842  19.200  16.663  14.395
62429W        W34843  10.681  17.272   2.271
62430W        W34844  42.492   6.424  14.459
62431W        W34845  26.083  37.912  13.461
62432W        W34846   8.679   6.423   1.713
62433W        W34847  36.075   6.405  12.033
62434W        W34848  38.433  44.936   4.809
62435W        W34849   0.947  21.038   2.832
62436W        W34850  39.537  30.485  12.442
62437W        W34851  22.700  12.611   5.120
62438W        W34852  20.098  28.626   0.759
62439W        W34853  21.660  19.754  11.960
62440W        W34854   4.369  29.562   1.876
62441W        W34855  25.547  29.645   5.286
62442W        W34856   6.264   1.396  13.472
62443W        W34857  17.673   0.847   0.831
62444W        W34858   2.934   5.806  13.881
62445W        W34859   5.888  25.644   0.442
62446W        W34860  34.113  38.417  10.456
62447W        W34861  24.076  27.552  10.908
62448W        W34862  39.467  25.544  10.913
62449W        W34863   0.267   6.784   1.222
62450W        W34864  19.103  39.448   2.399
62451W        W34865  43.856  16.250   0.857
62452W        W34866  41.791   6.223   5.171
62453W        W34867  28.135  42.987  13.943
62454W        W34868  33.036  36.049   4.216
62455W        W34869  34.542   1.745  14.940
62456W        W34870  37.494  31.475  13.875
62457W        W34871   5.817  11.834  11.488
62458W        W34872  11.737   8.686   0.384
62459W        W34873  33.451  26.095  12.024
62460W        W34874  18.573  28.945  13.886
62461W        W34875  40.377  38.906   1.796
62462W        W34876  34.004  23.078  14.818
62463W        W34877  33.927   7.765  14.968
62464W        W34878  10.250  32.064  13.976
62465W        W34879  20.586   4.741   0.964
62466W        W34880  22.687   8.402  11.864
62467W        W34881  35.917   9.649  13.505
62468W        W34882  22.108  37.539  11.034
62469W        W34883   0.272   0.354   0.327
62470W        W34884  14.191   2.402   0.933
62471W        W34885  25.007  36.010  11.558
62472W        W34886   6.383  32.137   2.778
62473W        W34887  23.021  40.042  13.480
62474W        W34888  21.116  22.515  14.890
62475W        W34889  21.602  31.434  11.912
62476W        W34890   0.747  14.718  10.976
62477W        W34891  12.666  19.541   4.689
62478W        W34892  11.853  33.917   4.220
62479W        W34893   6.242  25.590   4.319
62480W        W34894  27.191   4.901   1.762
62481W        W34895  22.049  33.427  14.502
62482W        W34896   9.214  18.650  12.871
62483W        W34897  17.775  11.628  12.965
62484W        W34898  37.891  16.669  14.013
62485W        W34899  37.832  14.202   1.888
62486W        W34900   2.324  10.638   2.842
62487W        W34901  35.442  37.060   4.636
62488W        W34902   8.213  43.500   0.258
62489W        W34903  37.902   3.357   0.841
62490W        W34904  32.444  21.682  10.447
62491W        W34905  12.181   1.950   2.817
62492W        W34906  42.501   2.811   2.229
62493W        W34907   8.337  38.564  14.459
62494W        W34908  17.153  31.984   3.698
62495W        W34909  32.475  19.726   2.199
62496W        W34910  15.208  36.428  11.484
62497W        W34911   8.287   0.411   4.736
62498W        W34912  18.625  31.981   4.215
62499W        W34913  38.542  25.705   3.228
62500W        W34914   3.887  43.935  13.948
62501W        W34915   4.783  37.530   4.126
62502W        W34916  34.107  38.409   4.328
62503W        W34917  27.642  12.773   0.875
62504W        W34918  28.553  35.488  12.441
62505W        W34919  37.389   2.378  13.539
62506W        W34920  33.530  41.885  14.799
62507W        W34921  38.569  26.110   0.962
62508W        W34922  28.637   2.468   3.252
62509W        W34923  10.183  26.575   0.963
62510W        W34924  20.579  14.105  12.378
62511W        W34925  41.043  13.689   3.210
62512W        W34926   1.906  13.144   0.465
62513W        W34927  19.217  42.521  14.359
62514W        W34928  18.708  20.552   1.726
62515W        W34929  31.027  41.314   2.753
62516W        W34930  27.510  13.673   1.811
62517W        W34931  34.500  25.965   3.672
62518W        W34932   3.765  41.926   3.648
62519W        W34933  21.533  36.510   4.627
62520W        W34934  30.454  17.778  11.061
62521W        W34935  41.943  38.422   4.293
62522W        W34936  26.587  38.931  14.349
62523W        W34937  15.595  10.825   2.737
62524W        W34938  35.545  22.559  13.814
62525W        W34939  10.878  10.803  12.008
62526W        W34940  10.827   1.914  14.935
62527W        W34941   0.456  12.259  11.491
62528W        W34942  13.779   9.725  13.958
62529W        W34943  43.327  43.971   1.922
62530W        W34944  38.072   5.929   1.789
62531W        W34945  28.005  17.298   0.821
62532W        W34946   9.802  44.837  14.941
62533W        W34947  34.002  23.216  10.537
62534W        W34948  32.445  40.476  10.558
62535W        W34949  20.702  36.002  10.452
62536W        W34950   2.760  35.943   1.898
62537W        W34951  31.926   1.256  14.470
62538W        W34952  38.519  19.263  11.581
62539W        W34953  32.420  38.422  12.923
62540W        W34954  17.116  25.966  14.763
62541W        W34955  17.686  11.200  14.399
62542W        W34956  12.291  26.627  12.452
62543W        W34957  22.097  35.990  12.388
62544W        W34958  10.277   7.861  12.479
62545W        W34959   6.213   9.743   2.178
62546W        W34960  29.061  31.920   1.698
62547W        W34961  14.128  41.350   2.816
62548W        W34962   2.825   2.947  13.324
62549W        W34963   4.741  21.650  10.059
62550W        W34964  42.383  33.390  10.488
62551W        W34965  17.718  18.786  14.808
62552W        W34966  24.104  15.818   2.780
62553W        W34967  10.208  37.349   4.291
62554W        W34968  40.311  14.169   5.147
62555W        W34969  38.403  34.468  12.861
62556W        W34970   5.303  25.558  14.510
62557W        W34971  29.096  30.056   3.223
62558W        W34972   2.375  35.993  11.861
62559W        W34973  26.138  34.094  12.852
62560W        W34974  18.778  13.116   0.762
62561W        W34975  32.548   7.695   3.794
62562W        W34976  14.321  33.117  13.469
62563W        W34977   2.865  25.513  14.421
62564W        W34978  42.024  40.824  12.517
62565W        W34979  17.263   3.251   4.796
62566W        W34980   8.248   8.270  14.784
62567W        W34981   1.374  30.415  11.126
62568W        W34982   0.751  21.183  12.437
62569W        W34983  23.579  37.473   3.719
62570W        W34984  16.738   3.403  14.303
62571W        W34985  35.091  32.108  13.063
62572W        W34986  10.250  40.854  13.380
62573W        W34987   7.215  30.432   4.294
62574W        W34988  42.465  36.520  14.949
62575W        W34989  16.217   7.411  14.853
62576W        W34990  20.177  32.900  11.440
62577W        W34991  36.952  33.928  14.762
62578W        W34992  21.747  35.944   4.213
62579W        W34993  31.620   1.790   1.891
62580W        W34994  20.231  25.669  10.606
62581W        W34995  42.002  34.512  10.079
62582W        W34996  35.899  35.957  14.416
62583W        W34997  29.975   8.868  14.454
62584W        W34998  18.694  25.000   3.867
62585W        W34999  13.254  19.253  11.485
62586W        W35000  26.537  10.206  10.918
62587W        W35001  16.602  38.417   4.121
62588W        W35002  36.958   6.254  10.578
62589W        W35003  41.855  11.219  12.096
62590W        W35004  18.085   0.764  12.999
62591W        W35005   9.874  38.504   4.778
62592W        W35006   2.342  28.446  14.894
62593W        W35007  27.137   0.811   2.199
62594W        W35008  39.315  41.821  10.462
62595W        W35009  26.672  35.971  11.031
62596W        W35010  21.021  38.851   4.160
62597W        W35011  21.527  39.025  12.895
62598W        W35012  20.259   8.327  11.970
62599W        W35013  29.654  29.642  14.847
62600W        W35014  23.669  40.536   4.145
62601W        W35015  16.203  26.642   2.233
62602W        W35016  26.535  21.058  10.620
62603W        W35017   5.244   1.375   1.317
62604W        W35018  39.033  16.647   2.277
62605W        W35019  18.705  12.345   4.117
62606W        W35020   6.356  38.953  13.479
62607W        W35021  33.407  17.091  10.558
62608W        W35022  31.015  41.956   1.908
62609W        W35023  34.880  34.478   2.240
62610W        W35024  23.728   5.919   2.403
62611W        W35025   4.363  28.582  14.805
62612W        W35026   4.265  19.049  11.413
62613W        W35027  44.310   3.732  13.423
62614W        W35028   3.790  35.027  12.065
62615W        W35029  27.106  10.313  14.999
62616W        W35030  30.578   5.343   2.826
62617W        W35031   4.262   3.769   4.119
62618W        W35032  33.074  26.179   4.639
62619W        W35033  37.951   7.860   0.360
62620W        W35034   2.447  32.136  11.075
62621W        W35035   6.362  23.132  11.980
62622W        W35036  10.866  26.951   3.283
62623W        W35037  13.108   3.350  10.986
62624W        W35038  23.512  13.680   4.604
62625W        W35039  37.984  22.044  12.490
62626W        W35040  13.128   0.873  10.079
62627W        W35041  20.168  14.815  11.508
62628W        W35042  31.487  39.520  10.501
62629W        W35043  33.478  40.399  14.301
62630W        W35044   3.923  20.651   2.894
62631W        W35045  44.768  20.271  13.848
62632W        W35046  36.579  33.511  14.362
62633W        W35047  27.103  26.130   0.749
62634W        W35048  24.220   6.259  12.349
62635W        W35049  39.344   5.692  11.513
62636W        W35050  28.029  39.040   4.243
62637W        W35051   2.920  31.111  10.988
62638W        W35052  29.572  40.307  14.509
62639W        W35053   4.745  14.606   0.763
62640W        W35054  10.246  36.465  11.532
62641W        W35055   6.201  14.212   3.350
62642W        W35056  28.585  32.593  13.457
62643W        W35057   2.471   1.468   1.427
62644W        W35058  21.647   5.311   4.203
62645W        W35059  36.438  21.244  13.456
62646W        W35060  30.583   4.345  11.488
62647W        W35061  13.285   4.904  11.400
62648W        W35062  20.576  17.644   2.723
62649W        W35063  34.593  44.762  13.458
62650W        W35064  42.527  14.736  11.400
62651W        W35065  38.842  13.252  10.528
62652W        W35066  38.503  17.792  13.545
62653W        W35067  18.545  40.430   2.210
62654W        W35068   5.412  22.513  14.861
62655W        W35069   3.788  39.825   4.291
62656W        W35070  41.857  35.601  12.539
62657W        W35071  21.646  24.138   2.193
62658W        W35072   9.193   9.302  11.542
62659W        W35073  20.065  27.111  14.013
62660W        W35074  28.028  32.888   1.873
62661W        W35075  29.447   6.404  12.924
62662W        W35076  25.976  34.549  11.372
62663W        W35077  34.907  20.062   2.409
62664W        W35078   8.885  10.229  14.851
62665W        W35079  11.158  13.680   2.726
62666W        W35080   4.765   1.279  14.400
62667W        W35081  33.560  15.262  13.051
62668W        W35082  23.492   6.839   4.340
62669W        W35083  30.492  38.331   4.738
62670W        W35084  35.407  43.318  13.445
62671W        W35085  25.068  16.183   5.758
62672W        W35086  20.150  10.298  12.957
62673W        W35087  38.067  24.060   3.330
62674W        W35088   1.817  12.797   4.718
62675W        W35089  36.437  16.637   3.205
62676W        W35090   7.320  15.651   3.642
62677W        W35091  24.221  28.617   3.682
62678W        W35092  42.810   8.820   5.240
62679W        W35093  44.997  35.401   1.733
62680W        W35094   8.678  16.267   0.259
62681W        W35095  18.200  27.176   0.781
62682W        W35096  13.111  12.145   1.801
62683W        W35097  20.637   6.691   3.792
62684W        W35098  39.344  42.820  14.841
62685W        W35099  20.124  20.743   0.388
62686W        W35100  44.485  21.024  13.373
62687W        W35101   4.803  18.207   2.805
62688W        W35102  11.804  14.661  14.426
62689W        W35103  40.984   4.318  13.488
62690W        W35104   4.918  40.879  12.933
62691W        W35105  24.618  37.939   0.463
62692W        W35106   7.691  23.038   4.237
62693W        W35107   3.322  36.974  13.530
62694W        W35108  18.297  37.361   3.852
62695W        W35109   8.688  25.676   0.894
62696W        W35110  43.787  28.474  11.971
62697W        W35111  42.423  23.731   4.134
62698W        W35112   8.839  31.927   0.457
62699W        W35113  30.941  20.648   2.351
62700W        W35114  19.047  12.663   4.204
62701W        W35115  26.541  41.318   4.745
62702W        W35116  38.986  33.617   9.977
62703W        W35117   0.376  15.674  13.523
62704W        W35118  10.658  29.924  11.020
62705W        W35119  44.757   5.349   1.924
62706W        W35120  35.440  41.949  11.959
62707W        W35121   0.316  16.612   3.331
62708W        W35122  14.661   0.256  14.862
62709W        W35123  28.648  42.819   4.789
62710W        W35124   2.437  41.993   4.136
62711W        W35125   8.779  31.632  11.427
62712W        W35126  35.001  19.729  11.937
62713W        W35127  11.696  19.216  14.407
62714W        W35128   5.230  35.072   4.601
62715W        W35129  21.727  20.070   3.657
62716W        W35130  33.932  22.648   2.294
62717W        W35131   1.976  20.608   4.675
62718W        W35132   6.892  28.528   3.684
62719W        W35133  19.546  28.042  13.417
62720W        W35134  34.596  39.869   0.372
62721W        W35135  38.029  15.712  10.515
62722W        W35136  12.768  24.146  10.584
62723W        W35137  39.541  44.958  10.407
62724W        W35138  32.552  22.741   3.745
62725W        W35139  41.964  23.531  12.516
62726W        W35140   3.304   2.432   1.421
62727W        W35141  14.714  21.650   1.411
62728W        W35142   0.834  11.826  14.419
62729W        W35143  23.513  13.332   1.443
62730W        W35144  29.439  30.111  13.970
62731W        W35145  41.463  16.737  12.891
62732W        W35146  18.281  43.960   5.149
62733W        W35147   1.299  25.022  11.611
62734W        W35148  14.235  20.050   1.382
62735W        W35149  21.674   1.780  13.832
62736W        W35150  43.788  17.198   3.349
62737W        W35151  20.179  28.452  12.841
62738W        W35152  13.340  20.597  11.951
62739W        W35153  43.864  23.178   3.354
62740W        W35154   1.453  37.434  11.564
62741W        W35155   4.416  31.582   3.850
62742W        W35156  42.947   4.224  13.457
62743W        W35157  10.827  37.859  14.504
62744W        W35158  42.323  35.017  12.451
62745W        W35159  19.278  14.723   1.883
62746W        W35160  15.300  34.865  12.515
62747W        W35161   2.272  27.611  10.643
62748W        W35162   4.920  16.097   0.925
62749W        W35163  23.629   4.222   4.691
62750W        W35164  37.380  43.850  12.569
62751W        W35165   2.337  22.632   0.730
62752W        W35166  14.220  23.656   2.663
62753W        W35167  34.525  10.318  12.952
62754W        W35168  24.491   5.696   0.390
62755W        W35169  22.678  39.840   4.304
62756W        W35170  39.425   3.259   2.411
62757W        W35171  10.226  25.184  13.929
62758W        W35172  28.096   6.215   1.242
62759W        W35173  36.856  21.155  12.929
62760W        W35174  23.993  15.802  10.023
62761W        W35175  30.509  25.623   0.442
62762W        W35176  21.107  42.920  10.526
62763W        W35177  27.961  18.141  14.410
62764W        W35178  31.013  17.692  11.472
62765W        W35179   5.698  34.949   4.664
62766W        W35180  32.135   7.396  11.558
62767W        W35181  37.984  25.603   2.356
62768W        W35182  13.723  10.217  10.413
62769W        W35183  10.303   7.310  13.817
62770W        W35184  24.620  36.555   1.339
62771W        W35185   9.755  14.610  11.559
62772W        W35186   8.169  31.410   1.813
62773W        W35187  33.028  10.796   0.415
62774W        W35188   6.833  13.639   0.457
62775W        W35189  19.556  21.243   0.794
62776W        W35190   9.208  14.644   1.916
62777W        W35191  38.069  33.098   3.814
62778W        W35192  29.548  20.714   1.866
62779W        W35193  13.229  24.591  12.557
62780W        W35194  32.047  37.051   2.880
62781W        W35195  34.529  41.874   2.224
62782W        W35196  15.668  33.959   4.602
62783W        W35197  20.670  38.393  12.372
62784W        W35198  44.810  27.491  13.509
62785W        W35199  11.356  24.494  11.382
62786W        W35200  24.539  20.043   1.850
62787W        W35201  26.116  10.814   2.298
62788W        W35202  39.390  33.509  14.008
62789W        W35203   5.913  12.199  13.852
62790W        W35204  31.018  10.679   4.801
62791W        W35205   0.880  40.421  14.941
62792W        W35206   0.302  42.281   0.928
62793W        W35207  23.200   5.691  14.872
62794W        W35208  38.531   1.402  10.436
62795W        W35209   0.337  27.176   4.209
62796W        W35210   4.771  27.057   2.839
62797W        W35211  30.000   7.814  10.569
62798W        W35212  23.047  27.118  12.830
62799W        W35213  41.956  17.085   2.402
62800W        W35214  16.108  44.845  10.920
62801W        W35215  41.520  31.136  10.550
62802W        W35216  27.654   2.895   3.327
62803W        W35217  36.891  16.161  11.413
62804W        W35218   7.360  42.304  11.073
62805W        W35219  27.161   4.781   3.206
62806W        W35220  24.140  35.915  11.503
62807W        W35221  31.913   5.277   3.280
62808W        W35222  11.341  16.704   4.635
62809W        W35223  23.004  41.792  11.468
62810W        W35224  18.623  32.505   1.297
62811W        W35225  17.739  27.126  10.897
62812W        W35226  13.153  23.986  12.866
62813W        W35227  16.732  14.665  11.911
62814W        W35228  20.611  11.357   1.377
62815W        W35229  24.140  18.650   0.277
62816W        W35230   3.763  29.527  11.579
62817W        W35231  22.092  36.458  14.021
62818W        W35232  44.373   6.859   1.308
62819W        W35233  40.429  16.137   2.666
62820W        W35234  30.500  33.878  11.069
62821W        W35235  27.678  15.179   0.854
62822W        W35236  34.960   9.743  13.501
62823W        W35237  37.507   3.922  14.016
62824W        W35238  20.763  38.005  12.064
62825W        W35239  36.086   9.813  10.421
62826W        W35240  15.214  14.239  14.392
62827W        W35241   0.284  16.283   0.433
62828W        W35242  33.570  36.073  10.417
62829W        W35243  31.575  39.833   3.784
62830W        W35244  26.498   5.207  10.936
62831W        W35245  37.467  33.962  11.467
62832W        W35246  23.695   7.887  12.493
62833W        W35247  14.833   3.367  13.501
62834W        W35248  11.636  44.760  11.557
62835W        W35249   7.415  21.683  12.388
62836W        W35250  36.987  38.511  13.371
62837W        W35251   9.864  21.094   2.386
62838W        W35252  27.972  20.134   1.821
62839W        W35253  38.897  34.909  13.513
62840W        W35254  17.706  44.414   0.850
62841W        W35255  41.383  27.182   4.147
62842W        W35256  41.924  13.719   2.195
62843W        W35257  22.527  40.888   0.282
62844W        W35258  12.131   2.465  14.821
62845W        W35259  11.696   9.364   2.389
62846W        W35260  10.328  23.031   0.959
62847W        W35261  32.923   3.752   4.201
62848W        W35262  18.264  38.839  12.865
62849W        W35263  26.153   0.961  10.496
62850W        W35264  10.160  26.174   0.782
62851W        W35265  15.792  35.952  12.479
62852W        W35266  26.581  42.783  13.846
62853W        W35267   8.179  16.676  12.546
62854W        W35268  41.352  37.915   1.716
62855W        W35269  11.372   4.905  14.954
62856W        W35270  26.475  39.814   3.800
62857W        W35271  10.634  11.167   2.311
62858W        W35272   1.289  42.795   4.188
62859W        W35273  14.265  20.542  11.126
62860W        W35274  16.582  32.569   4.218
62861W        W35275  25.216  36.916  11.866
62862W        W35276  35.381  38.861   1.306
62863W        W35277   8.803  30.031   2.692
62864W        W35278  35.419  21.645  10.160
62865W        W35279   8.261   2.947  11.478
62866W        W35280   5.211  36.492  12.518
62867W        W35281  12.224  17.771   1.393
62868W        W35282  14.321  29.613   2.269
62869W        W35283  27.193  12.291  11.467
62870W        W35284  38.347   7.882  12.092
62871W        W35285  41.404  41.393  11.099
62872W        W35286  12.262  23.136  14.849
62873W        W35287  13.687  30.477  13.443
62874W        W35288   8.230  33.884  10.939
62875W        W35289   4.782  16.595  12.550
62876W        W35290  44.953  21.696   1.875
62877W        W35291   1.423   7.304  10.999
62878W        W35292   2.895   9.284  12.410
62879W        W35293  10.673  32.477   2.322
62880W        W35294  24.542  41.966  11.961
62881W        W35295  23.006  18.244   2.776
62882W        W35296  41.515  36.395  13.363
62883W        W35297  23.628   1.345  14.876
62884W        W35298   1.831   2.945  13.945
62885W        W35299  34.078   3.747   1.814
62886W        W35300   4.784  25.177   3.797
62887W        W35301   4.855  38.831   0.352
62888W        W35302   7.697  44.281   1.834
62889W        W35303   2.960  24.165  12.004
62890W        W35304  16.680  19.242  11.402
62891W        W35305  30.947  19.199   4.299
62892W        W35306   2.407  23.497   2.357
62893W        W35307  39.319   0.393   4.822
62894W        W35308   0.965  16.275   0.786
62895W        W35309  20.229  10.288   1.444
62896W        W35310  25.661  23.134   1.230
62897W        W35311  10.151  32.493  11.116
62898W        W35312  44.895  39.824  13.948
62899W        W35313   4.704  23.145   3.743
62900W        W35314   7.866  24.500  13.416
62901W        W35315   0.303  35.517   3.368
62902W        W35316  30.103  39.399  13.449
62903W        W35317  13.121  40.505  13.453
62904W        W35318  21.514  35.004  10.532
62905W        W35319  10.761  18.716  13.015
62906W        W35320  17.286  18.250  12.870
62907W        W35321  36.352   0.359  12.999
62908W        W35322  43.315   4.410  13.542
62909W        W35323  21.191  11.143   1.722
62910W        W35324   8.854  26.960  14.446
62911W        W35325  38.347  26.568   0.843
62912W        W35326  31.069  17.780   1.715
62913W        W35327  10.647  29.582   3.704
62914W        W35328  16.578  38.426  13.540
62915W        W35329  36.366   3.411  11.029
62916W        W35330  21.650   6.732   4.291
62917W        W35331   3.445   2.833  14.459
62918W        W35332  19.732  28.656   1.442
62919W        W35333  19.776  28.094   0.310
62920W        W35334  18.673   3.341   2.305
62921W        W35335  27.513   6.922   3.358
62922W        W35336  19.615  36.441  14.827
62923W        W35337  41.527  38.345  14.324
62924W        W35338  40.055  29.161   2.340
62925W        W35339  41.965   9.193   4.144
62926W        W35340  14.670  16.215  14.777
62927W        W35341  14.672  18.694   1.858
62928W        W35342  28.093  29.111   0.885
62929W        W35343  32.456  10.332   0.768
62930W        W35344   1.922  14.619  10.635
62931W        W35345   9.342  21.573   2.903
62932W        W35346  13.684  16.299   4.161
62933W        W35347  43.764  27.562  11.487
62934W        W35348   8.229  17.163  14.867
62935W        W35349  31.149  41.423   0.902
62936W        W35350  21.240   3.805   2.785
62937W        W35351  43.766  30.498   2.734
62938W        W35352  42.891   2.246  14.861
62939W        W35353  22.085  25.536  11.487
62940W        W35354   3.897   7.802  13.351
62941W        W35355  41.812  26.953  10.900
62942W        W35356  24.978  39.954  10.104
62943W        W35357  12.233   6.792   4.228
62944W        W35358   3.934  11.794  10.510
62945W        W35359  36.086  13.178  11.378
62946W        W35360  17.269   9.649  10.922
62947W        W35361  38.893   9.661   3.692
62948W        W35362  19.148  16.250  10.601
62949W        W35363  26.482  39.817  13.476
62950W        W35364  34.107  28.615  14.432
62951W        W35365  41.401  30.961   1.349
62952W        W35366  20.723   9.889   1.318
62953W        W35367  35.065  28.970  14.512
62954W        W35368  23.993  29.617  14.925
62955W        W35369   3.458   3.278   0.883
62956W        W35370  22.117  41.891  10.974
62957W        W35371  11.268   3.400   1.866
62958W        W35372  28.589  18.081   2.237
62959W        W35373   2.909  19.625   3.354
62960W        W35374  12.362  27.628  12.393
62961W        W35375   7.883   9.677  14.356
62962W        W35376  21.732  40.805   3.723
62963W        W35377  36.355  24.638   3.294
62964W        W35378  18.721  43.772   4.146
62965W        W35379  34.866  11.813  11.010
62966W        W35380  39.902  10.215  11.983
62967W        W35381  13.259  15.709  13.546
62968W        W35382   4.939   2.226   0.835
62969W        W35383  44.267  18.709  12.054
62970W        W35384   2.382  23.636  14.003
62971W        W35385  20.045  14.764  10.458
62972W        W35386  15.317  10.797  11.503
62973W        W35387   8.756   4.305   1.334
62974W        W35388  13.326  22.511  12.947
62975W        W35389   5.790  11.138  12.018
62976W        W35390  15.651   5.353   2.363
62977W        W35391  27.959   8.755   3.235
62978W        W35392   5.214   8.265  12.345
62979W        W35393   5.796  13.258   0.727
62980W        W35394  21.095   8.873   0.834
62981W        W35395  27.451  17.562  13.486
62982W        W35396  13.800  42.900   4.707
62983W        W35397  22.119  26.639  11.444
62984W        W35398   2.412  26.621  14.971
62985W        W35399  27.085  10.670  10.528
62986W        W35400   5.421  16.751  12.459
62987W        W35401   7.892   9.780   3.743
62988W        W35402   9.771   0.447  12.355
62989W        W35403  10.243   0.446   4.236
62990W        W35404  23.023  19.770   4.626
62991W        W35405  18.109  15.798  12.016
62992W        W35406  35.399  12.834  13.933
62993W        W35407   4.273  13.830   2.821
62994W        W35408  44.833  22.711  13.482
62995W        W35409  35.592  44.311  11.435
62996W        W35410  27.576   6.864  13.509
62997W        W35411  34.099  14.646   0.901
62998W        W35412   7.812  27.509   4.189
62999W        W35413  25.183   2.954  14.344
63000W        W35414  34.874  12.342  13.836
63001W        W35415  34.371  12.156   1.766
63002W        W35416  42.502  24.615  12.532
63003W        W35417  13.640  32.908  14.477
63004W        W35418  25.997  26.567  13.520
63005W        W35419   6.761  28.976   3.693
63006W        W35420   2.371  21.129   3.707
63007W        W35421  28.087  43.859   3.156
63008W        W35422  27.574  29.614  11.418
63009W        W35423  43.358   8.864  11.857
63010W        W35424  38.471  36.953  12.874
63011W        W35425   8.228  20.759   4.125
63012W        W35426  33.050  22.248   9.570
63013W        W35427  32.109  39.554   1.783
63014W        W35428  21.217  25.524  14.877
63015W        W35429  39.930   2.341  12.065
63016W        W35430  28.079  21.547   1.785
63017W        W35431  40.432  14.663   2.730
63018W        W35432   5.420  16.134  13.819
63019W        W35433  24.094  30.073   1.754
63020W        W35434  40.417  32.008   2.677
63021W        W35435  33.902  35.540  13.922
63022W        W35436   4.815   0.829   0.866
63023W        W35437  25.524  24.096   2.868
63024W        W35438  26.137  37.020   2.707
63025W        W35439  35.880  36.411   1.841
63026W        W35440  20.263  41.961   2.812
63027W        W35441  14.668  29.983  14.353
63028W        W35442   6.218  14.695   1.907
63029W        W35443  15.285  26.638  12.825
63030W        W35444  38.903  23.498  12.536
63031W        W35445   2.795  37.857  11.985
63032W        W35446  15.124   5.213   3.826
63033W        W35447  20.717  19.593   2.210
63034W        W35448   7.363  25.146  14.457
63035W        W35449  13.756  38.867  12.361
63036W        W35450  15.717  20.694   0.814
63037W        W35451  25.056   3.928   2.835
63038W        W35452  14.799  36.887  14.299
63039W        W35453   8.187  42.986  11.499
63040W        W35454  38.996   4.779  10.915
63041W        W35455  42.344  16.581  12.081
63042W        W35456  19.048  30.659   4.325
63043W        W35457  35.938  24.660  14.954
63044W        W35458  40.931  39.450   1.322
63045W        W35459   2.422  41.792   3.841
63046W        W35460   5.421   2.797   4.700
63047W        W35461  33.425  19.669   1.717
63048W        W35462  30.458  18.237  12.488
63049W        W35463  43.880   6.824   4.643
63050W        W35464   6.705   8.824   0.475
63051W        W35465  24.006  43.504  12.513
63052W        W35466  18.202   3.228   1.326
63053W        W35467   3.865  15.198  13.465
63054W        W35468  10.329  10.151   3.161
63055W        W35469  29.589  35.522   3.359
63056W        W35470  26.083   0.465   2.800
63057W        W35471  28.438  12.693   0.936
63058W        W35472   9.746  26.155  14.441
63059W        W35473  28.601   4.364  12.574
63060W        W35474  39.062  10.252  10.928
63061W        W35475  27.689  30.593   3.830
63062W        W35476  36.989  33.978  12.930
63063W        W35477  37.571   2.835  11.457
63064W        W35478  31.532  13.256  13.341
63065W        W35479   9.269  13.687   0.322
63066W        W35480  29.980  42.356   3.189
63067W        W35481  11.360  33.088  11.112
63068W        W35482  32.435  42.931  10.062
63069W        W35483   2.376   5.765  12.985
63070W        W35484  32.596  37.835  14.784
63071W        W35485  14.735  30.156  13.929
63072W        W35486  30.088   1.342   1.221
63073W        W35487  27.618  26.575   0.247
63074W        W35488  40.532   5.406   1.248
63075W        W35489  24.204  15.746   3.185
63076W        W35490  11.155  30.600   3.303
63077W        W35491  18.777  35.004   3.379
63078W        W35492  17.232  36.915  13.479
63079W        W35493  36.878  14.799  14.383
63080W        W35494   6.345  12.266  12.552
63081W        W35495  15.681  26.584  12.881
63082W        W35496  44.984  22.020  13.900
63083W        W35497  18.556  20.203   0.948
63084W        W35498   3.828  40.350   1.728
63085W        W35499  40.966  29.921   0.277
63086W        W35500  27.018   1.737  12.087
63087W        W35501  11.303   6.908  11.024
63088W        W35502  19.146  16.767  12.042
63089W        W35503  31.944  17.173   0.287
63090W        W35504  26.977  25.185   4.333
63091W        W35505  15.149  33.960   3.222
63092W        W35506  36.557  38.905   0.860
63093W        W35507  38.392  42.517  13.442
63094W        W35508   4.870  22.216   4.597
63095W        W35509  19.766  12.160   1.265
63096W        W35510  15.327  43.776  14.002
63097W        W35511  41.839  41.458  12.046
63098W        W35512  39.471  30.597   3.737
63099W        W35513  29.034  29.955   4.786
63100W        W35514   0.877  29.656   0.266
63101W        W35515  38.892   0.985  12.051
63102W        W35516  10.837  36.983  13.861
63103W        W35517  38.393  12.631   1.320
63104W        W35518  31.471  31.592   4.242
63105W        W35519  32.440  13.163   0.788
63106W        W35520  26.075  11.771   0.250
63107W        W35521  11.854  37.459  12.012
63108W        W35522  26.115  12.838  14.341
63109W        W35523   6.784  13.261  14.761
63110W        W35524  23.229  31.004   2.283
63111W        W35525  20.588   4.870  10.011
63112W        W35526   6.901  15.624   4.150
63113W        W35527  40.877   3.780   3.784
63114W        W35528  32.584  31.020   4.770
63115W        W35529  26.045  40.861   4.667
63116W        W35530  33.491   6.229   3.259
63117W        W35531  21.532   5.319  13.060
63118W        W35532  40.990  11.694  11.422
63119W        W35533   9.273  20.605   2.270
63120W        W35534   0.982  44.840   1.405
63121W        W35535   5.934  17.759   2.203
63122W        W35536  13.641  44.336   2.767
63123W        W35537  34.998  16.633   4.134
63124W        W35538   7.842  37.441  11.461
63125W        W35539  31.954  22.709  12.886
63126W        W35540   2.361  20.171  13.949
63127W        W35541  31.044  43.321   0.359
63128W        W35542  30.052  33.614   4.614
63129W        W35543  24.624  19.585  13.466
63130W        W35544  33.608   5.923  13.916
63131W        W35545  23.231  34.074   4.248
63132W        W35546  24.581  35.376  12.467
63133W        W35547  25.586   0.832   9.976
63134W        W35548  42.877   4.422  14.282
63135W        W35549  10.166  43.848   0.750
63136W        W35550  13.107  41.918  11.983
63137W        W35551  20.093  42.822  12.927
63138W        W35552  10.165  12.160  14.365
63139W        W35553  42.323  20.229  11.460
63140W        W35554  31.596  20.227  11.093
63141W        W35555  38.360  26.609  11.101
63142W        W35556   0.872  26.463  10.976
63143W        W35557  35.403  34.895   4.663
63144W        W35558  18.645  13.660   0.287
63145W        W35559  22.147  12.655  13.886
63146W        W35560  34.406  23.137  11.998
63147W        W35561  21.561  28.556  10.573
63148W        W35562  25.591  27.993   4.236
63149W        W35563  16.647   8.197  12.890
63150W        W35564   7.803  16.312  14.815
63151W        W35565  23.126  42.451  14.874
63152W        W35566   1.914  39.962   1.394
63153W        W35567  40.475  18.788  10.577
63154W        W35568  21.635  20.119   0.392
63155W        W35569  35.498  33.498  10.558
63156W        W35570  29.045  22.042  14.890
63157W        W35571  29.013  38.988  11.931
63158W        W35572   4.829  28.951   2.288
63159W        W35573  28.656  17.250  11.508
63160W        W35574  38.394  38.920   3.332
63161W        W35575   1.340  20.140  10.918
63162W        W35576  29.994  21.693   4.274
63163W        W35577  18.578  36.857   3.666
63164W        W35578  23.141  44.898   9.922
63165W        W35579  36.366  17.702   1.739
63166W        W35580   9.366  19.766  13.819
63167W        W35581   0.350  22.010  11.010
63168W        W35582  20.556   9.283   3.670
63169W        W35583  35.854  32.434  12.528
63170W        W35584  12.183  23.689  13.872
63171W        W35585   5.930   3.808  11.893
63172W        W35586   7.749   8.333   3.684
63173W        W35587   7.785  36.991   4.284
63174W        W35588  15.608  31.075   4.167
63175W        W35589  14.804  23.569   0.292
63176W        W35590  24.101   6.276   2.225
63177W        W35591  43.276  35.474  13.387
63178W        W35592  38.875  21.198  13.309
63179W        W35593  26.204   8.675   2.245
63180W        W35594  36.991  16.276   3.702
63181W        W35595  31.096   4.898   4.597
63182W        W35596  16.202   6.787  14.449
63183W        W35597  37.358   5.213  10.985
63184W        W35598   5.392  40.852   0.798
63185W        W35599  15.783  19.546   4.623
63186W        W35600  40.869  24.993  12.351
63187W        W35601  40.958  10.242  10.607
63188W        W35602  44.351  33.572   0.831
63189W        W35603  26.985   2.408  11.486
63190W        W35604  34.082  44.456  12.010
63191W        W35605  33.061  31.073  14.438
63192W        W35606  37.901  12.692  12.851
63193W        W35607  15.610  11.635   4.783
63194W        W35608   1.882  12.674  13.059
63195W        W35609  20.088  26.555  11.108
63196W        W35610   1.836  19.084  12.914
63197W        W35611   2.771   2.410  10.583
63198W        W35612   0.381  29.607   4.293
63199W        W35613   0.858   3.897   3.294
63200W        W35614  22.242  44.935   3.180
63201W        W35615  12.302  31.944  14.439
63202W        W35616  37.038  19.175   3.322
63203W        W35617  35.554   7.207   4.732
63204W        W35618  22.689   4.259  11.979
63205W        W35619  40.799  26.114   2.306
63206W        W35620  30.586  13.795  11.389
63207W        W35621   2.776   3.239  14.460
63208W        W35622  26.688  24.557  12.439
63209W        W35623  26.657  16.162   3.843
63210W        W35624  34.491  29.570   0.286
63211W        W35625  24.691  26.500   1.727
63212W        W35626  24.649  36.472  11.956
63213W        W35627  36.044  36.467   4.668
63214W        W35628  33.110   3.345  12.892
63215W        W35629  15.627  25.106  14.924
63216W        W35630   4.253  10.865  11.070
63217W        W35631  29.489  12.613   2.839
63218W        W35632  31.075  23.111  14.495
63219W        W35633  27.626  22.062  10.933
63220W        W35634  40.504  35.967  12.545
63221W        W35635  19.607  32.133  13.001
63222W        W35636  24.027  26.079   1.393
63223W        W35637  21.707  38.971  10.940
63224W        W35638  14.642  14.192   0.353
63225W        W35639  39.475  22.085   4.198
63226W        W35640  40.952  37.971  12.984
63227W        W35641   4.731  16.777   4.766
63228W        W35642   1.829  25.697  13.390
63229W        W35643  29.065  16.090   4.230
63230W        W35644  10.719   9.758  12.926
63231W        W35645  25.693  28.016   2.900
63232W        W35646  33.529  11.775   0.456
63233W        W35647  40.826  42.509  12.413
63234W        W35648  43.393  44.435  10.993
63235W        W35649  21.074  35.891  13.955
63236W        W35650  39.936  40.905   0.863
63237W        W35651  19.551   1.821   4.301
63238W        W35652  22.617  12.255  10.098
63239W        W35653  21.623   4.282  13.038
63240W        W35654  15.319  14.651   4.793
63241W        W35655  41.416  42.987   0.338
63242W        W35656  23.171  40.868  13.358
63243W        W35657  26.200  29.077   0.264
63244W        W35658   6.775  26.570   1.896
63245W        W35659  15.592  34.052  12.462
63246W        W35660   0.886  19.124   1.755
63247W        W35661  21.589  17.770  14.504
63248W        W35662  15.686   3.712   0.439
63249W        W35663  12.796  32.046  11.580
63250W        W35664   4.326  16.644   1.290
63251W        W35665  19.052  28.501  12.950
63252W        W35666  14.832  23.035   4.625
63253W        W35667  30.923  26.672   2.806
63254W        W35668  41.507  30.535   3.327
63255W        W35669  32.467  11.225  11.522
63256W        W35670  15.088  20.685   4.229
63257W        W35671  42.432  16.759   1.347
63258W        W35672   1.289  37.523  10.474
63259W        W35673   8.886   6.745   0.291
63260W        W35674  42.523  32.588   3.146
63261W        W35675  35.015   0.365  12.002
63262W        W35676  12.850  40.025  13.964
63263W        W35677  28.633   6.748   2.318
63264W        W35678   0.478  14.800  11.112
63265W        W35679  40.999  29.435  14.371
63266W        W35680  42.834  40.020   3.673
63267W        W35681  11.295   2.899  14.979
63268W        W35682  33.460   5.224  12.472
63269W        W35683  30.991  20.723  10.575
63270W        W35684  10.655  21.237  13.469
63271W        W35685  22.997  35.525   0.422
63272W        W35686  35.020  26.626  12.406
63273W        W35687  18.139  42.483   1.826
63274W        W35688  33.038   8.747   3.806
63275W        W35689  39.929  35.481   0.348
63276W        W35690  32.473  33.412   3.372
63277W        W35691  43.470  19.200   0.821
63278W        W35692  19.662  14.620  14.882
63279W        W35693  16.806  32.583  12.063
63280W        W35694  41.921   6.785   3.744
63281W        W35695  44.307  19.732   3.270
63282W        W35696  44.913  29.085   3.656
63283W        W35697   8.302  36.021   3.781
63284W        W35698  21.020  35.417   3.332
63285W        W35699  21.088  22.193   2.871
63286W        W35700  12.147   0.405   0.886
63287W        W35701  31.077  43.913   3.196
63288W        W35702  23.676  36.488   2.860
63289W        W35703  32.109  32.982  10.509
63290W        W35704   3.376   9.217  12.434
63291W        W35705  17.197  14.204   1.228
63292W        W35706  20.224  41.374  12.347
63293W        W35707  21.727  27.957   0.829
63294W        W35708  19.180  14.298   2.407
63295W        W35709   2.277   0.897   1.436
63296W        W35710  29.952  29.589  13.018
63297W        W35711  14.222  32.578  14.368
63298W        W35712  30.565  18.180  11.452
63299W        W35713  17.660  33.526   1.847
63300W        W35714   7.761  30.097  11.022
63301W        W35715  25.499  23.619  14.954
63302W        W35716   5.221  11.222   3.763
63303W        W35717  24.717  11.147  10.405
63304W        W35718  15.622  42.431   0.355
63305W        W35719  38.837  39.370  10.578
63306W        W35720  15.225  43.365  14.783
63307W        W35721  27.654  24.213   1.417
63308W        W35722  29.110   8.787  11.102
63309W        W35723  28.639  36.914  13.422
63310W        W35724  31.551  25.655  11.862
63311W        W35725  40.939  41.388  12.340
63312W        W35726  42.359  25.106   0.924
63313W        W35727  22.031  42.827   9.941
63314W        W35728  38.920  35.935  12.977
63315W        W35729  18.770  17.071   3.864
63316W        W35730  28.968  42.932   2.712
63317W        W35731  27.009  39.553   3.844
63318W        W35732   2.723  31.945   1.713
63319W        W35733  26.143  31.935   0.315
63320W        W35734  41.382   2.306  13.459
63321W        W35735   5.407  17.276  14.407
63322W        W35736  21.237  11.128   3.246
63323W        W35737  40.039  16.228   2.311
63324W        W35738  14.096  26.660   5.226
63325W        W35739  28.043  41.377   1.451
63326W        W35740  22.526  17.560   3.173
63327W        W35741   2.226  33.515   5.192
63328W        W35742  28.641  12.124   1.919
63329W        W35743   2.921  24.499   4.336
63330W        W35744  23.593  31.422   3.659
63331W        W35745  38.939   3.284  11.432
63332W        W35746  27.560  42.865  11.928
63333W        W35747   7.883  23.222   1.387
63334W        W35748  39.045  17.277   1.770
63335W        W35749  36.575  39.449   1.374
63336W        W35750  35.417   9.259  13.919
63337W        W35751  23.634  35.372   3.672
63338W        W35752  38.569  35.577   0.925
63339W        W35753  11.769  33.621  13.367
63340W        W35754  33.605   8.337  14.880
63341W        W35755   4.867   8.720  10.040
63342W        W35756  32.060  43.483   1.323
63343W        W35757   0.480  35.460  14.424
63344W        W35758  42.914  22.638  11.491
63345W        W35759  12.812   2.784   0.758
63346W        W35760  26.080  38.410  14.866
63347W        W35761   1.792  17.731   0.958
63348W        W35762   8.743  33.958   0.801
63349W        W35763   9.812   6.344   4.825
63350W        W35764   4.337  25.649   0.442
63351W        W35765  13.601   5.720  14.026
63352W        W35766  43.931  15.290   1.861
63353W        W35767  24.151  44.370   5.647
63354W        W35768  39.853  12.299   2.669
63355W        W35769  39.539  43.393  10.567
63356W        W35770   6.820  29.481   1.334
63357W        W35771  12.246  16.229  10.595
63358W        W35772  43.514  21.190  13.419
63359W        W35773  38.963  22.520  13.035
63360W        W35774  20.572  27.549  11.035
63361W        W35775   6.352  44.004   4.761
63362W        W35776  15.793  43.498   0.440
63363W        W35777  39.026  14.095   3.277
63364W        W35778  41.426  34.398   0.917
63365W        W35779   9.323  14.130   1.704
63366W        W35780  27.082  36.098   4.329
63367W        W35781   2.862  22.248   1.813
63368W        W35782  39.432  22.007   3.226
63369W        W35783  39.325   4.339   2.792
63370W        W35784  27.485  44.278   2.246
63371W        W35785  20.551  24.076   1.759
63372W        W35786  23.521  18.250   0.351
63373W        W35787  17.210  27.637   3.306
63374W        W35788  27.465  42.285  11.994
63375W        W35789  34.909  44.802   3.685
63376W        W35790  30.462   2.267  14.919
63377W        W35791  31.614  41.298  13.497
63378W        W35792  38.360   6.280   1.894
63379W        W35793  28.545  42.820  14.362
63380W        W35794  35.406   7.244   1.286
63381W        W35795   3.772  30.517   4.210
63382W        W35796  21.133  25.710   1.239
63383W        W35797  29.098   5.272  13.998
63384W        W35798  25.638  13.699   1.713
63385W        W35799  41.852  30.073   1.864
63386W        W35800  14.590  14.599   1.808
63387W        W35801  35.365  37.084  13.398
63388W        W35802  13.772  37.411   2.729
63389W        W35803  26.591  12.747   1.238
63390W        W35804  35.069   6.236   4.644
63391W        W35805  37.994   8.312   3.702
63392W        W35806  33.532  31.906   3.632
63393W        W35807  14.277  21.686  14.301
63394W        W35808  20.676  12.183  10.948
63395W        W35809  20.629  32.900   1.797
63396W        W35810  38.373  28.108  11.939
63397W        W35811   4.884  17.798  12.964
63398W        W35812  16.646  38.401   3.763
63399W        W35813   2.866  16.705  11.917
63400W        W35814  44.998  42.389   3.757
63401W        W35815   9.326  28.654  12.080
63402W        W35816  30.515   6.698   3.753
63403W        W35817  34.457  44.963   0.873
63404W        W35818   3.358   6.819   2.790
63405W        W35819  29.451   5.813   1.401
63406W        W35820  40.444   8.882   2.378
63407W        W35821  17.632  21.144   3.178
63408W        W35822  16.702   0.273  13.449
63409W        W35823  20.209   1.460   1.237
63410W        W35824  10.185  28.934   2.322
63411W        W35825  20.221   1.951  13.377
63412W        W35826  25.153   1.865   5.599
63413W        W35827  27.097  22.531  14.323
63414W        W35828  37.516  33.545   1.901
63415W        W35829   6.795   7.197  11.866
63416W        W35830  20.224  21.256  11.526
63417W        W35831  42.843  42.986  11.984
63418W        W35832  31.469   3.260  13.337
63419W        W35833  39.021  32.953   0.844
63420W        W35834   7.409  22.234   3.651
63421W        W35835  31.023  23.176  12.900
63422W        W35836   9.796   4.270   4.340
63423W        W35837  44.779  14.742  12.529
63424W        W35838  15.143  12.788  11.582
63425W        W35839   0.312  39.483  14.998
63426W        W35840  17.591  34.909   1.336
63427W        W35841  37.373  40.518  14.373
63428W        W35842  14.162  41.842   4.641
63429W        W35843  27.992   5.801   1.378
63430W        W35844   2.284  36.855  11.443
63431W        W35845   8.208  26.689   3.691
63432W        W35846   8.283   1.741   1.249
63433W        W35847   3.224   4.378   1.358
63434W        W35848  25.505  17.776  14.799
63435W        W35849  24.594  21.260   1.323
63436W        W35850  22.117  36.987   4.778
63437W        W35851  25.007  24.226  14.346
63438W        W35852   9.868   8.896  13.908
63439W        W35853  10.167  20.604  10.464
63440W        W35854   7.204   6.878  12.989
63441W        W35855  44.452  13.289   4.142
63442W        W35856  26.008  26.008   2.182
63443W        W35857  39.401  43.403   3.787
63444W        W35858  39.326  39.452   0.418
63445W        W35859  18.210  30.097   4.679
63446W        W35860  40.338  25.021  14.800
63447W        W35861  19.737  34.999  11.978
63448W        W35862  15.603  26.021   4.153
63449W        W35863  11.216   1.907  13.547
63450W        W35864  14.280   3.391   1.291
63451W        W35865  37.041  12.134   3.387
63452W        W35866   3.298   0.747  12.830
63453W        W35867   8.232   0.317  14.776
63454W        W35868  38.005  10.760  11.553
63455W        W35869  32.426  27.126   1.287
63456W        W35870  22.078  26.091   4.769
63457W        W35871  17.245  21.175   2.376
63458W        W35872  44.904  39.367   4.303
63459W        W35873   3.329  29.075  13.516
63460W        W35874  15.257  19.602  13.424
63461W        W35875  38.025   3.331  14.466
63462W        W35876  13.800   7.838  11.091
63463W        W35877  10.381  10.703   1.365
63464W        W35878  23.551  41.803   1.302
63465W        W35879  27.003  38.391  13.433
63466W        W35880  26.668  32.048   4.722
63467W        W35881  33.413  34.863  14.875
63468W        W35882  26.552   8.765  14.975
63469W        W35883  10.684  41.039  12.824
63470W        W35884  34.051  43.934   1.733
63471W        W35885  25.508   8.347  14.856
63472W        W35886  15.145  18.127   1.332
63473W        W35887  27.074  37.002  14.021
63474W        W35888   4.873  22.566  10.893
63475W        W35889  16.173  18.159   9.518
63476W        W35890   9.292  28.521   0.403
63477W        W35891  22.598  39.858  11.378
63478W        W35892  38.061   8.166  12.032
63479W        W35893  25.217  31.517   1.258
63480W        W35894   2.285  28.088  11.111
63481W        W35895   4.319  28.159   4.181
63482W        W35896  32.095  34.996   4.615
63483W        W35897  19.228  44.273   0.283
63484W        W35898  42.428  24.646  14.926
63485W        W35899  18.742  40.333  13.800
63486W        W35900   3.897  36.479   3.770
63487W        W35901  28.954   4.881   2.289
63488W        W35902  23.160   0.865   2.192
63489W        W35903   7.280   6.332   2.723
63490W        W35904   0.825  33.942   1.807
63491W        W35905  24.649  28.590   2.902
63492W        W35906  23.182  13.183  14.468
63493W        W35907  29.019  11.211  13.025
63494W        W35908   5.229  10.294   2.241
63495W        W35909  36.847  36.980  12.472
63496W        W35910  23.158  40.342  12.921
63497W        W35911  42.376  18.581   0.468
63498W        W35912  19.132  31.046  11.398
63499W        W35913  17.302  43.811   2.667
63500W        W35914  43.870  33.080  12.940
63501W        W35915  43.881   4.866   0.470
63502W        W35916   6.373  39.988  11.990
63503W        W35917  12.350  10.877   4.165
63504W        W35918  19.551  26.521  13.908
63505W        W35919  12.780  21.671  14.447
63506W        W35920   5.202  44.976  12.400
63507W        W35921  11.625   9.372   2.902
63508W        W35922   2.300  17.632   1.422
63509W        W35923  30.556  26.116   4.242
63510W        W35924  10.797   3.799  14.315
63511W        W35925  26.639  36.535   2.770
63512W        W35926  10.878  42.348  12.427
63513W        W35927   4.842  26.591  12.516
63514W        W35928  12.257   5.350  10.952
63515W        W35929  15.210  20.700   2.662
63516W        W35930  38.450  20.037   0.763
63517W        W35931  27.607  28.083  13.390
63518W        W35932  26.989  27.089  10.634
63519W        W35933  41.014  16.584   2.854
63520W        W35934   4.350  39.905   4.286
63521W        W35935  41.961  44.877  12.028
63522W        W35936  38.385  17.258  12.891
63523W        W35937  31.939  19.611  14.808
63524W        W35938  14.133  11.185  13.419
63525W        W35939   5.426  33.626   4.236
63526W        W35940   2.824  29.453   4.309
63527W        W35941  14.766  30.428  10.413
63528W        W35942   1.472   8.889  12.369
63529W        W35943  38.416  36.921   3.854
63530W        W35944  29.501   6.904  13.483
63531W        W35945  44.314   2.753  14.444
63532W        W35946  14.314  26.660  14.915
63533W        W35947  26.163   3.865   4.203
63534W        W35948  33.425  42.470  11.081
63535W        W35949  41.815  17.243  10.593
63536W        W35950  37.479  25.521   3.224
63537W        W35951   2.332  42.895   4.601
63538W        W35952  15.790  11.263  14.847
63539W        W35953  30.431  42.021  12.536
63540W        W35954  44.757  15.740   5.157
63541W        W35955  44.762  12.779  12.001
63542W        W35956  17.639   8.279   2.198
63543W        W35957  27.099  21.229  11.072
63544W        W35958  14.302  26.128   0.254
63545W        W35959   5.708   6.272   1.848
63546W        W35960   8.246  23.550   4.309
63547W        W35961  10.834  15.249   0.479
63548W        W35962  30.484  35.510  13.861
63549W        W35963  23.519   3.851   0.448
63550W        W35964   8.303  40.054  11.371
63551W        W35965  22.047  23.232  14.008
63552W        W35966   6.844  34.880   1.727
63553W        W35967  35.045  30.656   1.790
63554W        W35968  19.658  17.682  12.077
63555W        W35969  37.395   5.776   2.848
63556W        W35970  22.131  21.531  11.583
63557W        W35971  44.421  25.519   2.354
63558W        W35972  27.643  14.650   3.182
63559W        W35973  12.736  15.656  10.626
63560W        W35974   8.397  43.831   3.199
63561W        W35975  44.393  41.353  14.868
63562W        W35976   4.771   2.910  13.063
63563W        W35977  21.186  15.790   3.371
63564W        W35978  35.541  20.660  10.031
63565W        W35979   8.878  42.304   4.823
63566W        W35980  40.361  22.163  10.514
63567W        W35981  34.436  32.626   0.254
63568W        W35982  15.796  18.713   0.816
63569W        W35983  41.434   2.955   4.296
63570W        W35984  24.089  28.994   0.340
63571W        W35985  39.530  12.656   2.361
63572W        W35986   8.681   4.377   3.728
63573W        W35987  35.534  26.148   3.865
63574W        W35988   5.382   5.799   3.147
63575W        W35989  30.958  32.930  12.884
63576W        W35990  30.118   2.393   2.231
63577W        W35991   8.765  40.537   2.783
63578W        W35992  11.786  42.884  13.345
63579W        W35993  39.450  36.569  14.462
63580W        W35994   1.332   5.273   4.767
63581W        W35995  41.513  42.844   3.271
63582W        W35996  27.569  12.659   1.902
63583W        W35997  17.713   5.856  11.941
63584W        W35998  13.827  15.729  11.479
63585W        W35999  10.226  27.642   4.678
63586W        W36000  30.530  31.620   3.320
63587W        W36001  37.993  32.984   5.799
63588W        W36002  18.207  18.274   4.669
63589W        W36003  37.937  14.287   1.410
63590W        W36004   3.882  11.137   1.727
63591W        W36005  15.161  13.638   0.932
63592W        W36006  24.043  22.573   4.613
63593W        W36007  20.196  32.133  14.514
63594W        W36008  40.428   0.256  13.408
63595W        W36009  38.545  14.833   2.323
63596W        W36010   2.803  29.488   3.726
63597W        W36011  16.125  11.639  10.517
63598W        W36012  29.071  27.592  14.315
63599W        W36013  31.481  10.349  13.424
63600W        W36014   2.956  38.028  12.426
63601W        W36015   3.415   6.427  14.362
63602W        W36016  39.410  19.696   2.245
63603W        W36017  13.813  32.061   2.873
63604W        W36018  27.585  12.741  12.344
63605W        W36019  11.195  19.658   0.781
63606W        W36020  25.204  15.653  13.357
63607W        W36021   7.733  43.297   4.709
63608W        W36022  43.799  31.584  11.925
63609W        W36023  34.512  26.509  11.986
63610W        W36024  10.297  23.100   0.249
63611W        W36025  17.267  33.570   2.698
63612W        W36026  11.211  32.420   0.791
63613W        W36027  16.770   9.220  12.952
63614W        W36028   4.343  37.066  10.591
63615W        W36029  41.968  34.554   0.750
63616W        W36030  40.339  14.141   4.120
63617W        W36031  25.597  31.058  12.972
63618W        W36032  28.566  30.936  13.962
63619W        W36033  12.298  23.096  12.483
63620W        W36034   6.909   7.695  14.510
63621W        W36035   4.261  14.190  12.551
63622W        W36036  15.650  33.007  14.863
63623W        W36037  26.572  36.514   5.098
63624W        W36038  14.660  17.065  10.594
63625W        W36039  36.405  43.483  11.013
63626W        W36040  11.797  34.439  12.579
63627W        W36041   0.893  41.838   4.607
63628W        W36042  18.162  23.563   3.800
63629W        W36043  19.566  38.076  12.492
63630W        W36044   0.814  43.905  14.007
63631W        W36045  12.639  43.483   3.820
63632W        W36046  10.679  38.524  10.640
63633W        W36047  22.009  21.581   2.769
63634W        W36048  41.406  23.605  13.434
63635W        W36049   8.757  17.272  13.831
63636W        W36050   8.784  16.812   2.410
63637W        W36051   7.276  36.846   3.256
63638W        W36052   6.378  16.580   0.870
63639W        W36053  29.435  33.883  14.344
63640W        W36054  42.960   1.762  12.520
63641W        W36055  41.933   3.757   2.398
63642W        W36056  31.437   6.692   2.178
63643W        W36057  21.691  12.782   1.376
63644W        W36058  21.094  27.550  13.033
63645W        W36059  40.946  12.342  10.514
63646W        W36060  15.777   7.811  10.118
63647W        W36061  22.662  41.018   2.773
63648W        W36062  33.971  27.140  12.021
63649W        W36063  27.972  42.972   3.694
63650W        W36064  40.501  39.833  10.922
63651W        W36065  36.029  33.461  13.793
63652W        W36066  30.052  15.232   0.368
63653W        W36067   0.435  22.667  11.066
63654W        W36068  12.691  40.048  10.498
63655W        W36069  34.471  32.141  14.496
63656W        W36070  12.305  21.562   0.754
63657W        W36071  42.842  32.937   1.266
63658W        W36072  39.487   4.210  10.983
63659W        W36073  16.090  27.978  12.872
63660W        W36074  21.256  39.866   4.288
63661W        W36075  40.895  43.276  14.021
63662W        W36076  38.948  22.520  14.473
63663W        W36077  16.718  34.866   3.243
63664W        W36078  44.939  20.028   1.882
63665W        W36079  40.853  28.970   0.856
63666W        W36080  38.437  18.714  12.991
63667W        W36081  44.944  40.868   4.799
63668W        W36082  18.579   7.755   4.707
63669W        W36083  15.787  16.650   0.316
63670W        W36084  43.798  39.906   2.873
63671W        W36085  13.221   8.807  13.379
63672W        W36086  28.510  23.138  11.857
63673W        W36087  25.114  35.098  14.888
63674W        W36088  33.960  44.868   0.312
63675W        W36089  39.886  36.926   4.741
63676W        W36090  21.735   2.445  11.491
63677W        W36091  17.710  12.753  11.100
63678W        W36092  43.427   1.971   2.188
63679W        W36093  10.159  30.540   5.132
63680W        W36094  28.045  17.162  10.403
63681W        W36095  22.249  37.425   4.607
63682W        W36096   7.905  42.392   0.944
63683W        W36097  23.680  27.463   3.645
63684W        W36098   7.418   3.952   4.680
63685W        W36099   2.737  33.583   0.430
63686W        W36100  21.724  13.729  11.891
63687W        W36101  37.567  34.373   3.739
63688W        W36102  40.986  18.638  12.432
63689W        W36103  13.159  22.212   3.222
63690W        W36104  37.948  27.000   0.469
63691W        W36105  15.643  42.996  13.041
63692W        W36106  28.528  17.139  14.511
63693W        W36107  10.635   6.877   4.167
63694W        W36108  13.648  38.416  14.456
63695W        W36109  41.794   1.268  14.816
63696W        W36110   6.424  14.107  12.903
63697W        W36111  39.027   7.692   0.845
63698W        W36112  17.574  18.753  10.457
63699W        W36113  43.842  24.996   0.900
63700W        W36114  34.882  28.086  11.859
63701W        W36115  14.730  40.938  11.530
63702W        W36116  29.976   5.767   4.724
63703W        W36117  24.135  36.903   0.410
63704W        W36118  34.083   1.769  11.930
63705W        W36119  27.587  13.162  11.502
63706W        W36120  10.366  30.955   0.345
63707W        W36121  35.364  16.736   1.422
63708W        W36122  26.037   7.730   4.325
63709W        W36123  14.652  23.644  12.978
63710W        W36124   1.380   3.309   2.670
63711W        W36125   0.848  43.917  14.963
63712W        W36126  21.020  44.854  11.082
63713W        W36127  35.395   6.685  11.933
63714W        W36128  20.641  29.564  13.525
63715W        W36129   4.825   0.826  13.415
63716W        W36130  40.942  12.642   3.379
63717W        W36131  24.672  31.503  13.485
63718W        W36132  11.713  22.520   1.921
63719W        W36133   8.814  26.566  14.821
63720W        W36134  20.579  37.064  14.449
63721W        W36135  22.525  18.240  13.819
63722W        W36136   3.889  32.895   3.733
63723W        W36137   3.715   0.304  10.594
63724W        W36138   8.771  10.353  12.342
63725W        W36139  38.464   3.313   4.341
63726W        W36140  18.123  11.327   0.345
63727W        W36141  15.780   5.777  13.957
63728W        W36142  39.827  31.002   0.348
63729W        W36143  12.853  17.629  14.838
63730W        W36144  24.542  29.985   4.790
63731W        W36145   6.253   8.365  12.351
63732W        W36146  12.260  11.176  14.372
63733W        W36147  28.661  33.412  10.949
63734W        W36148  32.529   4.380  11.920
63735W        W36149  42.511   2.778   0.922
63736W        W36150  10.355   3.863   3.640
63737W        W36151  36.498   0.298   4.601
63738W        W36152   6.243  39.968   2.775
63739W        W36153  35.516   4.222   2.699
63740W        W36154   8.295   3.721   4.800
63741W        W36155   9.653   7.668  10.972
63742W        W36156  12.795   6.860   0.321
63743W        W36157   4.355  25.080   0.901
63744W        W36158  24.632  24.997   4.624
63745W        W36159  33.932   1.877  12.947
63746W        W36160  22.514  36.904  10.954
63747W        W36161  13.806  18.228  12.892
63748W        W36162  27.025   8.201  12.019
63749W        W36163  25.662  38.915  12.533
63750W        W36164  23.178  23.067  12.368
63751W        W36165  14.801   2.426  11.462
63752W        W36166  41.437  12.643  12.398
63753W        W36167   6.748  44.891  12.344
63754W        W36168  15.745  23.548   4.142
63755W        W36169   7.316   4.360   0.329
63756W        W36170  32.601  19.200   3.251
63757W        W36171  14.176  18.554   1.765
63758W        W36172  31.011  25.060  13.420
63759W        W36173  35.954  43.369   3.178
63760W        W36174   9.772  44.483  14.477
63761W        W36175   0.478  20.030   1.248
63762W        W36176   6.824  12.655   1.443
63763W        W36177   4.940  30.452   0.813
63764W        W36178  23.543  19.190   2.669
63765W        W36179  36.862   3.407   1.908
63766W        W36180  16.175  18.081  12.442
63767W        W36181  34.566  26.610  14.943
63768W        W36182  39.878  32.967  14.351
63769W        W36183  13.308  36.927   4.313
63770W        W36184  13.275  40.814  11.118
63771W        W36185  44.288  36.521   3.642
63772W        W36186  14.279   4.812  14.947
63773W        W36187  13.740  40.897  11.584
63774W        W36188  35.028  21.583  13.002
63775W        W36189  13.836  20.573   0.848
63776W        W36190   0.863  11.146  13.370
63777W        W36191  31.460  44.841   4.189
63778W        W36192  28.494   5.376  12.009
63779W        W36193  27.122  32.119  12.024
63780W        W36194  32.634  16.218  14.392
63781W        W36195  16.710  16.099  14.997
63782W        W36196  28.063  38.426   0.846
63783W        W36197   0.295   2.466  10.565
63784W        W36198  30.639  34.500   1.841
63785W        W36199  33.909  11.678   0.466
63786W        W36200  33.601  12.846  11.993
63787W        W36201  18.226  27.516  14.356
63788W        W36202   7.850  26.020  10.435
63789W        W36203  31.971  34.403  14.017
63790W        W36204   6.918  13.134   3.280
63791W        W36205  32.905  42.888  13.500
63792W        W36206   9.677  44.829  12.846
63793W        W36207  17.733  16.728  14.396
63794W        W36208  41.983   1.749   4.682
63795W        W36209   8.699  41.799   3.353
63796W        W36210  34.405  37.046  13.833
63797W        W36211  12.765   7.222  12.049
63798W        W36212  11.184  12.733  14.326
63799W        W36213  34.525   3.716   1.874
63800W        W36214  14.102  26.986   2.668
63801W        W36215  20.155  15.181   2.336
63802W        W36216  41.441   3.312  11.039
63803W        W36217  32.600  14.252  14.336
63804W        W36218  30.939  36.849   1.321
63805W        W36219  19.535  42.958  14.797
63806W        W36220  12.270  17.192  11.999
63807W        W36221  21.068  13.194   2.247
63808W        W36222  24.665  43.888   4.761
63809W        W36223  32.900   6.840  14.289
63810W        W36224   9.356  13.336  10.986
63811W        W36225  29.933  35.593   4.310
63812W        W36226  26.502  37.419  13.817
63813W        W36227  32.524   2.874   3.672
63814W        W36228  28.477   9.323   2.797
63815W        W36229  24.022  29.991   3.729
63816W        W36230   4.910  20.553  14.899
63817W        W36231  36.469  42.287   4.321
63818W        W36232   0.333  36.014   1.932
63819W        W36233   6.332  35.376   0.906
63820W        W36234  12.243  41.498  13.500
63821W        W36235  15.818  21.672  12.081
63822W        W36236  42.410  36.935   4.143
63823W        W36237  33.597  21.698   2.271
63824W        W36238  26.121  13.149  10.414
63825W        W36239  36.369  24.185   2.268
63826W        W36240   0.314  39.537   3.323
63827W        W36241  28.169  24.148  12.972
63828W        W36242  15.266  33.919   4.263
63829W        W36243  12.725  31.988   3.742
63830W        W36244  29.452  30.446  14.343
63831W        W36245   2.404   0.886   3.776
63832W        W36246  39.875  24.990  13.800
63833W        W36247  26.164  38.032  12.078
63834W        W36248   9.721  26.574   1.816
63835W        W36249  36.385   5.395  12.031
63836W        W36250  17.695  28.063  13.988
63837W        W36251  31.500   6.208  13.806
63838W        W36252  26.696  40.011  11.572
63839W        W36253  38.339  20.123  11.978
63840W        W36254  26.977  22.180   0.465
63841W        W36255  43.799   7.850   1.424
63842W        W36256  19.198  34.943   0.870
63843W        W36257  42.979   1.271  11.452
63844W        W36258  29.070  34.567   2.207
63845W        W36259   7.242  37.455   3.816
63846W        W36260   6.895  28.040   4.114
63847W        W36261   8.804  26.547  12.478
63848W        W36262  17.624  36.954   2.800
63849W        W36263  29.054  13.670  11.856
63850W        W36264  22.083  44.483   0.831
63851W        W36265   9.367  10.632   3.691
63852W        W36266   2.748  34.105   2.410
63853W        W36267   4.869  38.004   2.179
63854W        W36268  25.103  29.650   3.744
63855W        W36269  37.876  23.082  14.280
63856W        W36270  34.418   4.314  12.348
63857W        W36271   4.250  32.082   0.407
63858W        W36272   8.211  15.292  13.360
63859W        W36273   2.396   1.309   0.261
63860W        W36274  36.371  41.988  10.582
63861W        W36275  29.023  19.236   0.756
63862W        W36276  22.503  20.226  11.062
63863W        W36277  41.436  25.122   2.298
63864W        W36278   7.358   4.925  14.880
63865W        W36279  39.485   9.151   1.285
63866W        W36280  36.044  11.673   2.229
63867W        W36281  13.762   5.258   1.863
63868W        W36282  22.175  44.442  13.486
63869W        W36283  20.070  16.133  12.972
63870W        W36284  18.662  32.886  14.385
63871W        W36285  19.221  39.497   4.693
63872W        W36286  10.320   3.852  12.575
63873W        W36287  15.253  12.248   2.668
63874W        W36288  31.963  37.851   1.427
63875W        W36289  29.556   1.333  10.480
63876W        W36290  44.971   4.300  10.615
63877W        W36291  31.560   5.244   2.748
63878W        W36292  35.882  25.565   2.667
63879W        W36293  26.545  14.684  12.416
63880W        W36294  44.799  37.445   1.300
63881W        W36295  32.442  39.049  10.926
63882W        W36296  23.168  29.505   3.297
63883W        W36297  42.446   7.403   2.246
63884W        W36298  15.248  28.176  12.374
63885W        W36299   6.393  29.106   2.760
63886W        W36300   8.889  13.156   3.274
63887W        W36301  11.832  16.313   1.219
63888W        W36302   6.238  26.072  13.796
63889W        W36303   2.315   5.900   0.452
63890W        W36304   8.231  35.042   4.758
63891W        W36305   7.860   0.895   4.287
63892W        W36306  28.054  19.137   3.780
63893W        W36307  40.832   8.862   1.828
63894W        W36308  19.691  31.949  11.976
63895W        W36309   9.333  10.310   3.694
63896W        W36310  29.466  42.885  10.431
63897W        W36311   5.750  42.526   0.352
63898W        W36312  44.358  34.612  12.908
63899W        W36313  26.678  41.433   1.267
63900W        W36314  17.256  42.022   3.290
63901W        W36315  27.551  28.111   1.433
63902W        W36316  38.015  31.478   3.378
63903W        W36317  34.590  17.172  11.054
63904W        W36318  35.991   7.727  14.332
63905W        W36319  37.564   3.892  14.418
63906W        W36320  17.764   4.414  12.907
63907W        W36321  17.087  36.846  14.022
63908W        W36322  34.997  36.962  13.427
63909W        W36323   9.791  44.385   4.204
63910W        W36324  41.412  12.288   0.300
63911W        W36325   0.443   9.788   3.385
63912W        W36326  12.227  18.546   1.280
63913W        W36327  23.503  13.273  11.584
63914W        W36328   6.738  17.582  12.494
63915W        W36329  19.615  36.898   3.296
63916W        W36330  32.018  10.734   0.295
63917W        W36331  10.189   9.771   2.222
63918W        W36332  23.520  32.920  13.330
63919W        W36333   4.384  19.652  12.925
63920W        W36334  14.231  11.796   3.207
63921W        W36335  26.955  25.665   0.358
63922W        W36336   0.464  43.918  11.991
63923W        W36337   8.794   8.772   0.398
63924W        W36338  33.615  38.500  11.475
63925W        W36339  34.448  14.622  11.389
63926W        W36340  26.183   4.385   4.225
63927W        W36341  28.958   0.256  11.061
63928W        W36342  23.617   2.867  14.500
63929W        W36343  18.587  36.962   0.415
63930W        W36344  10.324   0.964  14.514
63931W        W36345  11.292   7.821   1.857
63932W        W36346  30.484  21.243   0.261
63933W        W36347  16.572  37.578   3.757
63934W        W36348   9.194   2.908  14.468
63935W        W36349  12.121  44.893  13.491
63936W        W36350  42.465  43.340   1.889
63937W        W36351   1.875  24.525  12.993
63938W        W36352  32.920  22.219  10.505
63939W        W36353  13.142   8.681  12.487
63940W        W36354  11.291  37.885   2.230
63941W        W36355  30.122   9.196  13.475
63942W        W36356  16.140  44.461  13.484
63943W        W36357  22.529  24.995  12.078
63944W        W36358  20.527  36.437   0.331
63945W        W36359  41.295  41.524  14.863
63946W        W36360  17.065  41.382  10.415
63947W        W36361  16.716   2.794  13.451
63948W        W36362  24.097  23.226  13.808
63949W        W36363  33.551  24.114   1.278
63950W        W36364   0.371  26.483   4.781
63951W        W36365  28.164  43.800   4.247
63952W        W36366   1.894  29.490  10.407
63953W        W36367  21.054   4.258  11.052
63954W        W36368  21.653  10.800   4.626
63955W        W36369  22.034  44.858  12.053
63956W        W36370   2.276  10.674  13.925
63957W        W36371   5.364  21.582  13.858
63958W        W36372  36.354  29.498  14.911
63959W        W36373  31.128  41.854  11.111
63960W        W36374  21.658  32.957  11.453
63961W        W36375  25.569  38.544  11.030
63962W        W36376  15.178  25.124   4.254
63963W        W36377  15.630  12.776   2.897
63964W        W36378  17.217  44.984   3.264
63965W        W36379  21.033  24.564   2.331
63966W        W36380  32.454  41.016   4.243
63967W        W36381  22.719   8.697   2.197
63968W        W36382  33.573   5.244   3.268
63969W        W36383  40.909  21.048   2.703
63970W        W36384  43.481   5.285  12.024
63971W        W36385  10.335   2.463  11.532
63972W        W36386   1.833  29.980  11.515
63973W        W36387   2.367  44.401  11.964
63974W        W36388  17.753  16.722   0.863
63975W        W36389   3.921  10.177   4.633
63976W        W36390  11.716  17.675   4.689
63977W        W36391   3.794  18.165  12.478
63978W        W36392  43.515  13.297   3.341
63979W        W36393  12.203  31.919   3.686
63980W        W36394  30.443  15.750  12.054
63981W        W36395  35.493   2.387  11.098
63982W        W36396  41.512   4.817   2.812
63983W        W36397  16.729  18.635   1.416
63984W        W36398  34.001  33.462   4.651
63985W        W36399  30.029  12.234   0.484
63986W        W36400   8.161  42.954   4.620
63987W        W36401   8.346  22.736  12.472
63988W        W36402  35.363  37.541  12.400
63989W        W36403  27.967   0.822   2.833
63990W        W36404  34.934   5.877  11.090
63991W        W36405  20.244  18.066   0.469
63992W        W36406  24.496  44.436  13.790
63993W        W36407  18.760  41.377   2.347
63994W        W36408  17.765  15.110  14.444
63995W        W36409  32.411  38.830  14.460
63996W        W36410  40.304  24.110  13.830
63997W        W36411  31.070  20.105   0.780
63998W        W36412   6.707  10.240   1.303
63999W        W36413   5.750  13.773  13.932
64000W        W36414  22.535  19.576   2.367
64001W        W36415   2.462  37.448  12.450
64002W        W36416  37.849   9.690  11.093
64003W        W36417  27.582   5.902   1.399
64004W        W36418  23.666   8.222   4.702
64005W        W36419  26.076  38.512  13.985
64006W        W36420  20.067  13.215  12.886
64007W        W36421  10.147  11.302   4.700
64008W        W36422   4.433  14.803  12.978
64009W        W36423  10.226   7.770   1.422
64010W        W36424  29.073  14.283  10.553
64011W        W36425  42.346  43.306  13.035
64012W        W36426  38.983  27.576  13.363
64013W        W36427   5.326  26.462  12.515
64014W        W36428  32.996  25.500   2.841
64015W        W36429  17.587  10.642  14.898
64016W        W36430  34.894   9.687   2.777
64017W        W36431   4.716  30.056   3.643
64018W        W36432  36.501   1.268  14.998
64019W        W36433   3.310  32.996   2.794
64020W        W36434   4.249  27.649   1.770
64021W        W36435  34.442   2.415   2.392
64022W        W36436  31.597  33.040   2.867
64023W        W36437  44.798  10.871  12.462
64024W        W36438  32.475   9.287  13.502
64025W        W36439  12.794   7.678  11.096
64026W        W36440  22.073  31.597   4.712
64027W        W36441   5.816  14.298   1.861
64028W        W36442  11.746  16.095  14.829
64029W        W36443   1.267  38.067   4.201
64030W        W36444  29.156  39.004  10.524
64031W        W36445   3.427   5.761  11.477
64032W        W36446  42.347  19.762   4.821
64033W        W36447  13.238   3.434   1.265
64034W        W36448  11.854   7.849   3.680
64035W        W36449   9.820   3.449   2.392
64036W        W36450  14.607  12.673   0.294
64037W        W36451  11.763  21.149   1.765
64038W        W36452  11.820  37.913  12.403
64039W        W36453   0.335  35.549  13.475
64040W        W36454  22.148  25.055   0.243
64041W        W36455   4.320  10.820  11.998
64042W        W36456  24.111  21.699  13.901
64043W        W36457  24.140   0.303   5.243
64044W        W36458  28.486  41.889   1.875
64045W        W36459  16.296   6.810  10.929
64046W        W36460  40.380  14.186  13.346
64047W        W36461  10.382  13.706  11.592
64048W        W36462  41.911  12.301   1.450
64049W        W36463  35.448  38.328   1.416
64050W        W36464  13.725   2.736   0.322
64051W        W36465  15.293  27.176   3.174
64052W        W36466  21.213  10.284   2.328
64053W        W36467  17.165  28.566  11.080
64054W        W36468   2.243  15.673  14.295
64055W        W36469   4.838  40.347  10.941
64056W        W36470  33.066  14.112   0.451
64057W        W36471   9.672  18.659   3.791
64058W        W36472   9.816  34.552  11.949
64059W        W36473   6.860  44.787   4.751
64060W        W36474  25.698  24.530  11.096
64061W        W36475  36.017  36.468   3.301
64062W        W36476  20.178  34.579   1.847
64063W        W36477  39.021  43.292  10.100
64064W        W36478  24.145  39.402   4.274
64065W        W36479  26.520   2.263  11.415
64066W        W36480  28.095  24.562  12.494
64067W        W36481  13.338  27.654  12.372
64068W        W36482  39.840  28.571  12.415
64069W        W36483  34.948  28.609  14.397
64070W        W36484  26.559   0.927   5.775
64071W        W36485   3.750  39.958   9.565
64072W        W36486  23.195  31.499   1.315
64073W        W36487  19.183  43.394  10.454
64074W        W36488   1.788  17.772   3.631
64075W        W36489  13.286  17.064  13.526
64076W        W36490  27.998   3.353   5.093
64077W        W36491  13.768   2.723  12.079
64078W        W36492  16.299   2.326  14.778
64079W        W36493  42.480   4.801  14.393
64080W        W36494  34.074  24.057  12.504
64081W        W36495  25.139   1.333  14.796
64082W        W36496  28.010  23.041   4.807
64083W        W36497   6.776  44.980   0.409
64084W        W36498  16.669   0.781   4.259
64085W        W36499   5.829  21.632  14.791
64086W        W36500  32.074  11.203   1.848
64087W        W36501  24.608  12.664  13.439
64088W        W36502  36.578  10.699  13.835
64089W        W36503  26.491  13.137   1.867
64090W        W36504  16.798  29.108  11.468
64091W        W36505   4.275   2.382   3.178
64092W        W36506  35.450  25.061  11.984
64093W        W36507  41.470  34.952  14.956
64094W        W36508  40.045   4.712  10.619
64095W        W36509  39.434   3.454  14.360
64096W        W36510  28.059  27.984   2.883
64097W        W36511   7.673  32.086  11.396
64098W        W36512  30.020  14.670  10.638
64099W        W36513   2.239  35.986   3.692
64100W        W36514   7.410  38.429  14.995
64101W        W36515  39.814  16.143  14.829
64102W        W36516  23.022  43.293   4.633
64103W        W36517   4.361  38.387   4.196
64104W        W36518   9.806  17.120   3.716
64105W        W36519  12.285  44.791   3.168
64106W        W36520  26.081  35.019  11.042
64107W        W36521  27.565  17.077   0.869
64108W        W36522  21.530  20.692   3.302
64109W        W36523   5.438  13.773   0.249
64110W        W36524  43.282  30.584  13.946
64111W        W36525  29.575   6.830  13.887
64112W        W36526  28.610   1.836   4.758
64113W        W36527  18.634  14.619  11.378
64114W        W36528  28.645  20.636   3.299
64115W        W36529  42.496  30.038  13.420
64116W        W36530   5.277  11.781   1.252
64117W        W36531  19.238   1.428  13.316
64118W        W36532   2.787   4.392  13.331
64119W        W36533   9.215  42.870  14.993
64120W        W36534   8.372  15.819  13.884
64121W        W36535  18.184  38.368  14.936
64122W        W36536  27.523   7.863   2.396
64123W        W36537  29.029  40.492   0.386
64124W        W36538  12.259  40.020  14.469
64125W        W36539   4.925  11.694   5.300
64126W        W36540  18.728  13.268   4.205
64127W        W36541  35.580  38.524  13.888
64128W        W36542  10.723   1.414   0.750
64129W        W36543  42.518  29.011  13.465
64130W        W36544   1.327  32.532  10.463
64131W        W36545   1.435  35.947   0.965
64132W        W36546  12.363  34.876   1.892
64133W        W36547   2.728  15.108  13.536
64134W        W36548   4.818  25.108   2.342
64135W        W36549  44.441  22.231   0.880
64136W        W36550  26.021  24.717  10.480
64137W        W36551  39.057  18.549   3.702
64138W        W36552  41.387  15.696  10.499
64139W        W36553  13.330   1.890   3.257
64140W        W36554  43.493   6.368  10.577
64141W        W36555  18.550  42.795   4.328
64142W        W36556  30.998  18.207  13.453
64143W        W36557   3.238  35.397  13.063
64144W        W36558  28.558  11.841   0.848
64145W        W36559  12.732  20.207   0.279
64146W        W36560  40.532   0.804  14.287
64147W        W36561  21.249   7.707   2.796
64148W        W36562   1.806  13.253  14.874
64149W        W36563  29.028  28.523  10.608
64150W        W36564  19.129  42.907   5.289
64151W        W36565   9.303   5.749  11.940
64152W        W36566   1.939  36.001  11.446
64153W        W36567  33.121   6.373   4.230
64154W        W36568   3.793  22.574   0.481
64155W        W36569  26.120  29.485  11.047
64156W        W36570  40.349  20.080  14.387
64157W        W36571  31.024   1.827   0.747
64158W        W36572  11.336  13.251  12.060
64159W        W36573  38.422  32.945   3.386
64160W        W36574  40.363  26.544  11.374
64161W        W36575   2.957   3.436   0.270
64162W        W36576  17.605  20.035  11.902
64163W        W36577   3.865   1.918   9.984
64164W        W36578  12.806   4.897  11.934
64165W        W36579  33.084  15.720   4.344
64166W        W36580   3.872  15.122   1.871
64167W        W36581  16.672   1.834  12.838
64168W        W36582  15.646  31.487  14.936
64169W        W36583  42.797  24.085   4.640
64170W        W36584  21.672  29.574  10.113
64171W        W36585  13.279   4.938  14.002
64172W        W36586   4.745  31.604  13.046
64173W        W36587  43.775  22.524   4.258
64174W        W36588  38.991  30.132  12.350
64175W        W36589  30.457   9.804  11.532
64176W        W36590  10.658  15.231  13.813
64177W        W36591   6.896  24.686  12.831
64178W        W36592   9.322  37.465   4.647
64179W        W36593   2.426  32.553   0.293
64180W        W36594  26.041  12.174   2.726
64181W        W36595   9.770  38.902   1.315
64182W        W36596   7.796  12.330   4.255
64183W        W36597  32.476  33.974  11.509
64184W        W36598   4.420  26.603   3.711
64185W        W36599  14.196  36.035   0.408
64186W        W36600   0.351  33.472   3.809
64187W        W36601   5.389  11.167  13.466
64188W        W36602   5.336  41.843   0.283
64189W        W36603  30.422   3.344   0.424
64190W        W36604   3.389  13.182  14.484
64191W        W36605  22.578   2.377  12.357
64192W        W36606  24.651  30.023  14.029
64193W        W36607  36.366   2.284   2.814
64194W        W36608  40.489  33.545   0.390
64195W        W36609  20.162  19.589   0.833
64196W        W36610   5.866  28.169  13.890
64197W        W36611   4.341  18.759   2.288
64198W        W36612   8.377  15.106   2.880
64199W        W36613  40.459  22.653  12.501
64200W        W36614  41.305  33.914  13.814
64201W        W36615  22.035  10.715   0.435
64202W        W36616  30.151  20.634  12.404
64203W        W36617   2.263  40.421   0.810
64204W        W36618  20.053  20.671   0.820
64205W        W36619  26.966  24.225   4.143
64206W        W36620  12.709   2.300   3.797
64207W        W36621  28.674  11.263  10.498
64208W        W36622   0.805  39.369  11.857
64209W        W36623  12.194  32.502  12.075
64210W        W36624  27.018  32.574   1.835
64211W        W36625  36.369  22.503   4.248
64212W        W36626  37.871  21.021   1.434
64213W        W36627  24.515  11.148  13.025
64214W        W36628  22.056   0.437  11.933
64215W        W36629  40.821  13.251   4.644
64216W        W36630  36.937  13.704  14.323
64217W        W36631  32.961  44.384   0.856
64218W        W36632   4.833  33.545  10.590
64219W        W36633  32.457  29.919   0.892
64220W        W36634  23.168   4.826  10.410
64221W        W36635   3.934   4.844  13.389
64222W        W36636   1.895  26.985   4.767
64223W        W36637   3.420  16.176  11.436
64224W        W36638  29.494  43.482   4.288
64225W        W36639  10.763  17.268  13.533
64226W        W36640  25.103  43.780  14.351
64227W        W36641  20.542  36.036   1.261
64228W        W36642  17.284  36.955   2.833
64229W        W36643  16.744  32.011  12.402
64230W        W36644  27.481  42.407  14.025
64231W        W36645   6.898  35.382   1.720
64232W        W36646  43.403  20.051   3.157
64233W        W36647  21.072   6.412  14.861
64234W        W36648  43.987  10.317  13.515
64235W        W36649   9.756  27.176  12.834
64236W        W36650  24.612   9.203   0.391
64237W        W36651  13.758   6.776   4.131
64238W        W36652  30.480   3.773  10.894
64239W        W36653  32.634  21.020   1.885
64240W        W36654   7.688  21.729  11.087
64241W        W36655  16.197   8.680   1.442
64242W        W36656  26.049  35.094   1.241
64243W        W36657   6.262  19.115  14.824
64244W        W36658  26.170  12.844   2.812
64245W        W36659  39.957   5.333  11.998
64246W        W36660  19.621  39.003  12.409
64247W        W36661  35.061  17.186   2.273
64248W        W36662  27.630   1.288  13.792
64249W        W36663  22.020  41.467  12.985
64250W        W36664  27.546  16.735  14.943
64251W        W36665  20.645  27.690   0.455
64252W        W36666  14.650  25.500   0.887
64253W        W36667  15.275  42.475  13.532
64254W        W36668  15.221  39.010  12.989
64255W        W36669  26.561   4.368   4.324
64256W        W36670  33.102  24.130  13.357
64257W        W36671  44.314  17.708   0.906
64258W        W36672  40.862   5.874  14.426
64259W        W36673   4.758  20.700   4.188
64260W        W36674  33.411  16.171   5.093
64261W        W36675  32.950  39.975  12.003
64262W        W36676   7.295   0.983  13.513
64263W        W36677  20.240  44.363  11.938
64264W        W36678  41.376   2.822   2.341
64265W        W36679  17.271  32.563   3.766
64266W        W36680  21.581  44.935   2.203
64267W        W36681  15.768   6.383  14.358
64268W        W36682  36.377  35.870   0.255
64269W        W36683  41.955   7.875   2.193
64270W        W36684  41.429  13.184  14.384
64271W        W36685  15.656   6.394  13.964
64272W        W36686  35.095  23.994   0.458
64273W        W36687   8.357  28.469  12.377
64274W        W36688  23.030  23.139  13.345
64275W        W36689  27.460   9.233   4.665
64276W        W36690  31.529  28.183   2.851
64277W        W36691  43.326  17.718   0.914
64278W        W36692  22.124  18.121  13.791
64279W        W36693  34.535  24.670  11.501
64280W        W36694  13.647  17.157  14.989
64281W        W36695   6.351  21.145   2.374
64282W        W36696  23.528   9.207   3.337
64283W        W36697  33.564   6.375   1.223
64284W        W36698  31.547   4.365   2.397
64285W        W36699   2.867  14.724  12.527
64286W        W36700   9.747  30.424   3.705
64287W        W36701  31.638   6.863  13.836
64288W        W36702  25.525  41.362   1.320
64289W        W36703  20.731  42.329  11.565
64290W        W36704  40.049  29.176   2.701
64291W        W36705  39.497  30.042   4.222
64292W        W36706  27.561  32.099  12.900
64293W        W36707   3.409   2.899   4.196
64294W        W36708  27.135  32.539   4.127
64295W        W36709  38.570  21.682  11.611
64296W        W36710  27.950  21.163  11.100
64297W        W36711  39.537  21.558  14.394
64298W        W36712  22.207  36.547  14.505
64299W        W36713  31.572  20.168  11.439
64300W        W36714  39.964  36.520  13.943
64301W        W36715   4.856  22.241   3.317
64302W        W36716  41.342  35.095   4.609
64303W        W36717  23.543  29.450  14.857
64304W        W36718  21.160  34.001  14.419
64305W        W36719  36.355  21.108  14.975
64306W        W36720  34.101  15.329  11.036
64307W        W36721  33.118  40.814  12.018
64308W        W36722   6.791   6.341  12.402
64309W        W36723  43.913  35.031   4.792
64310W        W36724  16.573  28.516  14.836
64311W        W36725  43.841  27.149  11.437
64312W        W36726  31.520   0.870  10.999
64313W        W36727   6.281  26.163  13.346
64314W        W36728  38.979   4.237  10.059
64315W        W36729   0.795   7.393   4.229
64316W        W36730  13.159  15.157  12.522
64317W        W36731   7.910  15.772   3.850
64318W        W36732  20.074   6.829  12.405
64319W        W36733  15.178   4.315  13.536
64320W        W36734  38.070  32.536  14.356
64321W        W36735   3.868  14.830   4.148
64322W        W36736  42.496  34.101  12.361
64323W        W36737  18.614  12.736  10.518
64324W        W36738  36.579  10.818   1.860
64325W        W36739  27.515  40.458   0.752
64326W        W36740  16.619  38.820   1.736
64327W        W36741   6.887   4.759  13.545
64328W        W36742  34.447   4.353  12.843
64329W        W36743  29.140  44.427  14.822
64330W        W36744  29.061   3.267  11.486
64331W        W36745  32.996   1.870  12.062
64332W        W36746   9.241   4.333  14.484
64333W        W36747  27.535  23.512   2.189
64334W        W36748   9.803  43.942   3.752
64335W        W36749  15.597  39.536   2.270
64336W        W36750  18.758  11.816  13.443
64337W        W36751   1.344  28.656  13.313
64338W        W36752  32.044  11.796  12.374
64339W        W36753   8.293  20.236   0.912
64340W        W36754  33.489  34.506  12.995
64341W        W36755  32.414   2.239   1.911
64342W        W36756   0.319  43.455   2.770
64343W        W36757   5.749  24.039  13.022
64344W        W36758   6.904  20.720   0.468
64345W        W36759  23.075  33.991  14.806
64346W        W36760  10.849   2.348  11.577
64347W        W36761  23.575  20.084   3.726
64348W        W36762   7.865  26.969  10.623
64349W        W36763  33.528   8.255   3.365
64350W        W36764   2.810  42.923  10.981
64351W        W36765  16.693  27.576   0.929
64352W        W36766  19.683   8.180  13.875
64353W        W36767  44.823  21.192  12.052
64354W        W36768   8.860  32.485  14.507
64355W        W36769  32.456  21.660  14.862
64356W        W36770  30.536  14.175  12.549
64357W        W36771   3.387  11.273   0.331
64358W        W36772  40.958  21.258  12.930
64359W        W36773  43.993  28.543  11.124
64360W        W36774   1.420  21.254  11.967
64361W        W36775  42.998   2.748   1.725
64362W        W36776  33.517  28.098   1.698
64363W        W36777   8.164  22.735  10.591
64364W        W36778  30.960  42.460   0.267
64365W        W36779  44.775  30.589   1.387
64366W        W36780  29.492  27.098  13.043
64367W        W36781  36.445  20.197   0.811
64368W        W36782   5.371  17.735   0.461
64369W        W36783   6.875   2.286   4.752
64370W        W36784   2.760  24.544   2.261
64371W        W36785  30.975  21.700   4.196
64372W        W36786  33.879  35.079  12.840
64373W        W36787  27.591  10.728   4.703
64374W        W36788  32.603  31.031  14.448
64375W        W36789   7.816  36.541   3.326
64376W        W36790  21.131  14.710   2.862
64377W        W36791  22.705   9.850   2.253
64378W        W36792  13.180  29.606   3.384
64379W        W36793   4.426   4.829  10.520
64380W        W36794   7.261  40.356  13.421
64381W        W36795  21.629  35.435  12.837
64382W        W36796  21.234   5.900  14.293
64383W        W36797   7.786  40.451   0.317
64384W        W36798  33.528  37.507  14.932
64385W        W36799  32.578  20.587   1.869
64386W        W36800   5.272   5.310  13.393
64387W        W36801  20.669  39.408  14.004
64388W        W36802  14.132  39.918   4.135
64389W        W36803   6.742  20.126  11.890
64390W        W36804   6.330  12.829  13.846
64391W        W36805  37.072  24.710  11.128
64392W        W36806   2.244  16.679  11.866
64393W        W36807  18.553  14.236   0.760
64394W        W36808   4.854   3.772  12.938
64395W        W36809   9.757   9.281  12.832
64396W        W36810  19.041  39.379  14.802
64397W        W36811  18.126  19.178   4.346
64398W        W36812   3.709  25.539  10.463
64399W        W36813   2.914  23.653  12.950
64400W        W36814  19.115  20.620  14.341
64401W        W36815  32.472  28.642   3.867
64402W        W36816  27.059  26.128   0.462
64403W        W36817   2.727  17.227   4.685
64404W        W36818   4.860   0.407  12.363
64405W        W36819  43.862  22.246  11.571
64406W        W36820  30.118  25.171  12.894
64407W        W36821  35.104   7.395   2.762
64408W        W36822   8.216  43.866  14.925
64409W        W36823  20.670  23.502  13.431
64410W        W36824  18.273  16.190   1.918
64411W        W36825  15.201  19.267   0.770
64412W        W36826  36.376  15.598  11.104
64413W        W36827  38.370  33.921  13.991
64414W        W36828  24.585   9.279  13.434
64415W        W36829   7.859   0.361  11.000
64416W        W36830  28.627   2.352  13.019
64417W        W36831  12.833  31.573   3.666
64418W        W36832  36.504  27.477  11.066
64419W        W36833  16.652   4.370   1.421
64420W        W36834  38.456  33.114  12.988
64421W        W36835  39.028  19.711  13.513
64422W        W36836  29.631  11.127  12.340
64423W        W36837  13.190   8.734   1.809
64424W        W36838  22.018  13.735  13.509
64425W        W36839  32.928  14.809   0.746
64426W        W36840   2.730  28.457  12.496
64427W        W36841  26.136   1.353   4.251
64428W        W36842  21.727  39.932   0.252
64429W        W36843   4.358  12.131   5.197
64430W        W36844  23.722  11.164  12.056
64431W        W36845   4.870  26.160   2.760
64432W        W36846  31.996  42.451  13.430
64433W        W36847   4.238   8.808   1.313
64434W        W36848   3.932  24.105  11.532
64435W        W36849  24.514  30.636  12.969
64436W        W36850  14.274  16.115  13.971
64437W        W36851  38.503   4.887  13.494
64438W        W36852  17.775  38.981   3.150
64439W        W36853  10.199   0.937  10.130
64440W        W36854  12.713  10.827   0.458
64441W        W36855  36.503  10.303  10.532
64442W        W36856  13.152  14.304  12.917
64443W        W36857   2.390  39.949   1.279
64444W        W36858  13.801  12.144   0.385
64445W        W36859  35.083   6.748   4.211
64446W        W36860  16.281   8.221   0.789
64447W        W36861  29.979  24.161  10.490
64448W        W36862  18.683  14.197  10.611
64449W        W36863  42.285  35.865   2.846
64450W        W36864  38.922  40.315   4.615
64451W        W36865   7.791  35.946   3.197
64452W        W36866  35.880  35.565  14.902
64453W        W36867   8.212  37.484  11.610
64454W        W36868  38.446  27.118  10.951
64455W        W36869  20.689  18.574   4.141
64456W        W36870  34.883  44.816  11.510
64457W        W36871  18.163   1.901  14.503
64458W        W36872  40.458  28.478  10.528
64459W        W36873  21.518   1.754   2.380
64460W        W36874  28.101  36.576  14.952
64461W        W36875  28.949  42.025  11.097
64462W        W36876  39.959  40.445  10.968
64463W        W36877  21.079  20.580   2.257
64464W        W36878  43.354   4.828   3.294
64465W        W36879  35.856  37.857   1.333
64466W        W36880  41.363   6.732   3.644
64467W        W36881  35.995  28.930  14.425
64468W        W36882  38.461  13.256   4.114
64469W        W36883   7.305   6.793   3.695
64470W        W36884  16.729  36.081   1.801
64471W        W36885  31.051  30.025  12.489
64472W        W36886   1.968  30.064   0.857
64473W        W36887   5.327   6.210  11.953
64474W        W36888  15.685  41.510   3.654
64475W        W36889  38.564  34.369   3.299
64476W        W36890  25.014  36.482   0.911
64477W        W36891  17.270  40.476  10.419
64478W        W36892  24.132   7.363  10.082
64479W        W36893  22.021  44.866   1.766
64480W        W36894  44.785  36.582  10.989
64481W        W36895  11.807   5.435  13.968
64482W        W36896  13.768  37.478   3.833
64483W        W36897  15.259  23.205  14.393
64484W        W36898  10.803   8.761  11.874
64485W        W36899  17.096   3.837   0.844
64486W        W36900  11.782  29.160  11.050
64487W        W36901  32.595  40.539  14.447
64488W        W36902  33.890  39.476   4.603
64489W        W36903  41.504  23.073  11.404
64490W        W36904  17.657  18.183  13.319
64491W        W36905  43.899  10.834   2.373
64492W        W36906  41.316  15.603   1.783
64493W        W36907  33.459  30.006   2.391
64494W        W36908  17.266  16.184  14.456
64495W        W36909  37.918  17.183  14.291
64496W        W36910  38.545   5.774   0.446
64497W        W36911  11.764   8.245  12.996
64498W        W36912  17.675  10.821  11.455
64499W        W36913  42.970  33.592  12.036
64500W        W36914   3.379  44.919   4.709
64501W        W36915   0.270  38.972   3.822
64502W        W36916  43.391  31.597  11.582
64503W        W36917  22.686  22.240  12.409
64504W        W36918  13.185  30.949   4.179
64505W        W36919  28.455  17.665   0.391
64506W        W36920  24.143  28.629  12.892
64507W        W36921  35.079  41.371  10.047
64508W        W36922  22.530  35.026  12.560
64509W        W36923  38.878  29.446  11.931
64510W        W36924  37.003   1.286   3.322
64511W        W36925  11.810  16.180  13.382
64512W        W36926  36.533  18.183  10.134
64513W        W36927  24.178  27.145   0.881
64514W        W36928  30.415  15.657  12.897
64515W        W36929  38.533  38.430  11.385
64516W        W36930  13.663  23.674   0.830
64517W        W36931   7.361   2.471  11.423
64518W        W36932  31.998  12.206  13.944
64519W        W36933   3.341  24.063  10.435
64520W        W36934  32.970   2.424   2.816
64521W        W36935   4.803  14.833  11.913
64522W        W36936  43.370   3.786   3.304
64523W        W36937  31.974  25.517   1.864
64524W        W36938   6.836  30.475  11.088
64525W        W36939   9.185  17.131  10.585
64526W        W36940  22.010  16.727   9.663
64527W        W36941  11.867   4.331   1.902
64528W        W36942  18.101   7.173  13.382
64529W        W36943  10.165  11.863   0.774
64530W        W36944  33.898  32.570   2.374
64531W        W36945  33.961  17.657   0.958
64532W        W36946  32.014  23.558  11.497
64533W        W36947   8.255  41.531   3.841
64534W        W36948  18.685  37.043   1.328
64535W        W36949  20.152  40.913  12.860
64536W        W36950  39.440  42.985   0.449
64537W        W36951   2.790   7.304  10.404
64538W        W36952  14.144  43.829  12.906
64539W        W36953  33.596  11.229  13.387
64540W        W36954  42.849  32.109   4.206
64541W        W36955  15.314  23.617  14.031
64542W        W36956   1.878  23.021  10.578
64543W        W36957  28.943   6.854   4.785
64544W        W36958  22.571  11.679  11.378
64545W        W36959  18.724  34.375  14.437
64546W        W36960  39.539  16.621   2.742
64547W        W36961  40.488  23.190   1.324
64548W        W36962   3.913  41.013  12.974
64549W        W36963  22.063   6.231  10.486
64550W        W36964  29.579  16.680   2.384
64551W        W36965  13.195   1.749   2.419
64552W        W36966   1.356  20.657  12.975
64553W        W36967   7.863  22.656  11.979
64554W        W36968  20.752   9.712   4.789
64555W        W36969  35.421  16.172  11.595
64556W        W36970  15.675   0.862  13.380
64557W        W36971  43.387  31.599   1.297
64558W        W36972  23.171  41.376  11.060
64559W        W36973  41.513  30.122  14.811
64560W        W36974  10.743  17.796  14.877
64561W        W36975  43.990   8.241  14.373
64562W        W36976   8.390  44.443   4.309
64563W        W36977   8.239   4.703  14.915
64564W        W36978  42.797  41.449  14.821
64565W        W36979  14.157   4.910   0.457
64566W        W36980   7.873  33.970   0.869
64567W        W36981  27.538  18.186  11.579
64568W        W36982  12.254  15.754   4.724
64569W        W36983  12.218  38.863   1.386
64570W        W36984  35.022   5.697  10.568
64571W        W36985   5.777   4.793   0.732
64572W        W36986  12.244   8.797  10.594
64573W        W36987  40.506  25.684  13.861
64574W        W36988  34.527   1.372  14.316
64575W        W36989  38.345  40.379  13.525
64576W        W36990  21.662  44.459  14.801
64577W        W36991  28.594  30.988  11.399
64578W        W36992  19.774  34.450   3.646
64579W        W36993  39.011  41.525  12.000
64580W        W36994  27.022  30.511   4.816
64581W        W36995  43.938  13.840  13.832
64582W        W36996  11.783  30.062   4.621
64583W        W36997  24.167  25.078  12.959
64584W        W36998  19.205  33.466   3.178
64585W        W36999  28.538   7.676  13.033
64586W        W37000   3.942   5.351   4.201
64587W        W37001  32.450  34.992   0.757
64588W        W37002  16.272  11.293   2.346
64589W        W37003   8.656  24.653  12.056
64590W        W37004  17.684   6.755  10.422
64591W        W37005   8.199   3.867   0.782
64592W        W37006  24.698  17.215   1.707
64593W        W37007  10.791  10.213  13.428
64594W        W37008  27.455  18.631  13.402
64595W        W37009  36.968  11.804   2.325
64596W        W37010  26.189  21.087  11.553
64597W        W37011  21.705  35.427  14.445
64598W        W37012  35.973  18.751  12.435
64599W        W37013  19.719  11.687  11.898
64600W        W37014   2.469  18.671  14.022
64601W        W37015  17.186  14.647  10.905
64602W        W37016   0.323  19.573  11.415
64603W        W37017  34.940  14.691  12.951
64604W        W37018  29.585  29.079  12.350
64605W        W37019  41.966   5.409  14.306
64606W        W37020   2.346  11.220   1.709
64607W        W37021  22.529  32.108   9.998
64608W        W37022  43.315  28.591   2.205
64609W        W37023  22.537  40.969  10.455
64610W        W37024  25.553  27.096  13.380
64611W        W37025  14.122  27.108   4.319
64612W        W37026   3.741   0.790   1.852
64613W        W37027  36.862  36.057   2.793
64614W        W37028   2.363  44.411  12.518
64615W        W37029   7.293  26.070  11.451
64616W        W37030  42.930  40.396  12.425
64617W        W37031  29.465  12.654   1.787
64618W        W37032  42.524  34.597   4.831
64619W        W37033   4.380   4.763  12.495
64620W        W37034  19.101  34.119  11.405
64621W        W37035  21.081   1.823   1.887
64622W        W37036   2.802  44.475  14.914
64623W        W37037  19.567  36.898   2.193
64624W        W37038   5.268  13.282   1.391
64625W        W37039  16.710  20.557  13.842
64626W        W37040   0.295  34.086   4.146
64627W        W37041  36.502  20.251  10.921
64628W        W37042   9.297  28.467   2.760
64629W        W37043   2.332  16.243  10.494
64630W        W37044   0.823  41.366   3.351
64631W        W37045   4.789  41.863   0.850
64632W        W37046   8.857   9.246  13.961
64633W        W37047  13.346   7.699   4.673
64634W        W37048   8.231   7.665  14.023
64635W        W37049  29.543  29.946  14.789
64636W        W37050   8.672  35.920  13.372
64637W        W37051   4.384  14.115  14.937
64638W        W37052  16.296  28.056   3.636
64639W        W37053  30.019  13.212  13.003
64640W        W37054  14.155  31.033  14.781
64641W        W37055  33.034  16.626  12.521
64642W        W37056   9.647  44.329   4.631
64643W        W37057  12.144  30.938   1.792
64644W        W37058  24.000  16.179  14.414
64645W        W37059   8.865  39.399  11.946
64646W        W37060  42.461  28.146   3.866
64647W        W37061  21.229  30.443  12.554
64648W        W37062  32.091  14.094  10.429
64649W        W37063  26.516  39.526  13.401
64650W        W37064   6.262  35.926   0.847
64651W        W37065   6.242  17.287   1.330
64652W        W37066   7.181   8.174   0.820
64653W        W37067   8.871   0.340  11.476
64654W        W37068  35.585  32.608  13.808
64655W        W37069  44.948  37.965  11.987
64656W        W37070  16.712  14.177   2.228
64657W        W37071  16.261  21.572   3.196
64658W        W37072  26.180  40.956   2.308
64659W        W37073  23.501  20.648   1.302
64660W        W37074  15.285  26.199  11.000
64661W        W37075  42.445  11.781   4.635
64662W        W37076  34.376  16.129  13.825
64663W        W37077  43.884  26.646   3.311
64664W        W37078  20.091  37.050  13.007
64665W        W37079  44.303   7.178   2.181
64666W        W37080  23.001  42.489   3.682
64667W        W37081  31.563  18.683  14.911
64668W        W37082  26.070  42.829  14.968
64669W        W37083  33.108  35.522  13.459
64670W        W37084  42.403   7.815   1.898
64671W        W37085  23.998   2.870   2.281
64672W        W37086  23.215  20.708   1.221
64673W        W37087   1.933   7.204   1.901
64674W        W37088  10.376  32.574  14.930
64675W        W37089  10.730  33.923  12.391
64676W        W37090   2.952  27.511   0.766
64677W        W37091  17.289  14.235  11.003
64678W        W37092  16.660  43.989   5.578
64679W        W37093  32.485   2.955  11.917
64680W        W37094  33.889  32.926   3.678
64681W        W37095   1.789  37.519   1.220
64682W        W37096  15.618  19.105   2.883
64683W        W37097   1.853  29.637  13.441
64684W        W37098  32.630  25.163   2.748
64685W        W37099  34.603  31.898   2.683
64686W        W37100  10.233  38.050  13.327
64687W        W37101  11.760  27.688   4.291
64688W        W37102  25.577   7.373  13.316
64689W        W37103  12.774  31.964   0.731
64690W        W37104   2.893  37.929   3.788
64691W        W37105  23.138  14.711   4.290
64692W        W37106   3.789  20.097   3.857
64693W        W37107  40.470   0.828  10.489
64694W        W37108   0.941  33.568  10.056
64695W        W37109   3.448  36.356  14.930
64696W        W37110  42.494  15.143   4.348
64697W        W37111  23.149  32.890  10.449
64698W        W37112  22.061  15.200   2.845
64699W        W37113  17.069  42.817  12.888
64700W        W37114  24.207  25.472   0.956
64701W        W37115  34.027  34.106  14.819
64702W        W37116   1.952  36.080   2.849
64703W        W37117   3.953  21.036   4.336
64704W        W37118  35.576  42.924   2.321
64705W        W37119   4.322   8.381  12.544
64706W        W37120  31.626  15.183  12.423
64707W        W37121  40.886  13.743   0.777
64708W        W37122  33.951  13.305   1.863
64709W        W37123  44.825  33.564   1.296
64710W        W37124   1.330   9.235  14.470
64711W        W37125  34.386  30.540   1.736
64712W        W37126  26.007  35.394  13.868
64713W        W37127  17.123  31.936   2.852
64714W        W37128  35.069   2.913  10.975
64715W        W37129  22.013  12.216  12.951
64716W        W37130  36.028   3.800   4.645
64717W        W37131  15.752  36.023   4.334
64718W        W37132  39.444  25.646   0.800
64719W        W37133  36.020   0.884   4.634
64720W        W37134  27.171  42.351   4.310
64721W        W37135  24.606  39.354  11.481
64722W        W37136   0.268  23.221   3.176
64723W        W37137  40.849  42.836   3.672
64724W        W37138  38.002   5.798  11.380
64725W        W37139  32.905   7.740   0.461
64726W        W37140  38.537  20.638  10.477
64727W        W37141  43.779  23.631   1.241
64728W        W37142   6.336  21.198  14.948
64729W        W37143   0.432   3.776   3.656
64730W        W37144  23.119  29.937  13.452
64731W        W37145   3.461   4.700   5.317
64732W        W37146   5.376  42.410  12.454
64733W        W37147  30.423  43.275  10.593
64734W        W37148  30.643  24.524   0.871
64735W        W37149  17.222  10.677  14.448
64736W        W37150  44.439   3.745  14.315
64737W        W37151  21.056  17.251   3.828
64738W        W37152  14.307  13.733  14.029
64739W        W37153  26.030  10.687  13.015
64740W        W37154  18.055  43.453  10.032
64741W        W37155  39.849  16.136  12.832
64742W        W37156  37.003  25.634  13.437
64743W        W37157  43.347  39.349   2.201
64744W        W37158  24.668  33.458  14.449
64745W        W37159  20.761   6.197  12.864
64746W        W37160  16.573  19.635  14.415
64747W        W37161  26.564   6.388  12.912
64748W        W37162  14.103  10.797   4.129
64749W        W37163  12.663  21.190  10.470
64750W        W37164  29.469  32.410  12.566
64751W        W37165  41.384   4.238   3.692
64752W        W37166   6.922  29.481   2.748
64753W        W37167  12.820  25.129  12.089
64754W        W37168  14.613  31.509   2.275
64755W        W37169   9.312  15.628  13.468
64756W        W37170  25.590  15.111   3.184
64757W        W37171  24.478  34.111   4.773
64758W        W37172   0.842   4.358  10.982
64759W        W37173  32.017  32.031   5.100
64760W        W37174  33.539  35.422   3.323
64761W        W37175  14.684  14.123   4.826
64762W        W37176  36.401  16.089   1.819
64763W        W37177  33.571  26.527  12.000
64764W        W37178  39.008   4.806   1.407
64765W        W37179  10.359  18.586   0.729
64766W        W37180  43.367  15.766   3.378
64767W        W37181  38.911   9.780   2.848
64768W        W37182   5.889  19.159   4.247
64769W        W37183  20.270  38.924   2.817
64770W        W37184  18.547  13.170   3.841
64771W        W37185  23.199  24.527  14.894
64772W        W37186  44.283  13.756  12.488
64773W        W37187  19.098  21.233   2.342
64774W        W37188  23.519  32.958  11.499
64775W        W37189  33.944   1.895  14.787
64776W        W37190  11.645  24.182   0.286
64777W        W37191   7.204  13.648  14.501
64778W        W37192  24.664  25.193  13.315
64779W        W37193  40.016  20.084   3.723
64780W        W37194  10.839  26.602  14.994
64781W        W37195  19.157  12.822   3.798
64782W        W37196  31.455  19.717  11.916
64783W        W37197  10.818  23.092   4.832
64784W        W37198  33.434  27.031  10.598
64785W        W37199   1.822  35.558  11.909
64786W        W37200   9.676  32.932   4.127
64787W        W37201  14.257  21.585   1.742
64788W        W37202  36.457  20.083   4.706
64789W        W37203  33.388  10.705   1.237
64790W        W37204  39.908   3.237  12.990
64791W        W37205  44.442  28.058   3.329
64792W        W37206  18.234  11.286  13.468
64793W        W37207  30.559   4.333   4.264
64794W        W37208  26.521  14.263  12.841
64795W        W37209  17.796  32.398  11.047
64796W        W37210  17.147   7.792  11.534
64797W        W37211  26.071  27.486   0.422
64798W        W37212   4.754  27.569   3.634
64799W        W37213  17.083  10.342   2.812
64800W        W37214  18.102  22.670  14.338
64801W        W37215  13.745   5.691   0.840
64802W        W37216  27.572   1.324   0.948
64803W        W37217  14.706  43.801   0.258
64804W        W37218  29.449  27.017   2.282
64805W        W37219  27.641  15.147  13.980
64806W        W37220  26.113  18.289  11.512
64807W        W37221  27.581  42.836   3.733
64808W        W37222  41.905  36.920  14.432
64809W        W37223   4.416   7.840   4.261
64810W        W37224  20.100  14.197   4.716
64811W        W37225  34.575  26.988   3.719
64812W        W37226  42.496  25.486   3.362
64813W        W37227  27.974   7.765  14.407
64814W        W37228  25.680  32.064   3.155
64815W        W37229  30.987  44.358  14.416
64816W        W37230  13.758  34.891   3.212
64817W        W37231  14.213  33.961   1.813
64818W        W37232  15.098  17.295   4.755
64819W        W37233   3.373  41.839  12.911
64820W        W37234   0.752  24.174   3.301
64821W        W37235  32.141  14.785  10.889
64822W        W37236  10.144  35.042   1.273
64823W        W37237  15.748  19.252  12.837
64824W        W37238  37.487  12.753   2.296
64825W        W37239  38.039   8.729  11.427
64826W        W37240  40.405  18.188   0.294
64827W        W37241  24.120  19.622  12.040
64828W        W37242   5.300   7.819  14.943
64829W        W37243   1.392   8.822  14.889
64830W        W37244  41.517  14.724  11.465
64831W        W37245  33.418  18.601   1.293
64832W        W37246   4.894  18.164   9.965
64833W        W37247  13.726  34.051  13.793
64834W        W37248   5.416  19.246  11.065
64835W        W37249   2.344   1.975  11.432
64836W        W37250  15.581  37.540   1.851
64837W        W37251  13.330  28.068   3.629
64838W        W37252  42.861  28.082   1.912
64839W        W37253  23.160  42.848  10.604
64840W        W37254  40.515   4.303  10.947
64841W        W37255  39.040  18.595  14.990
64842W        W37256  31.071   5.750  12.542
64843W        W37257  34.044  16.316  11.879
64844W        W37258  19.124   4.895   2.665
64845W        W37259  24.723  10.271   4.719
64846W        W37260  33.084  37.454   2.676
64847W        W37261  10.181  20.566  13.063
64848W        W37262   7.784  15.105   3.630
64849W        W37263  23.674  22.044  13.541
64850W        W37264  25.529  42.987   1.708
64851W        W37265  35.513  27.505   3.652
64852W        W37266  30.050  20.095   4.228
64853W        W37267  40.024  15.191  11.597
64854W        W37268  13.671   8.847  13.383
64855W        W37269   8.714  27.083  10.508
64856W        W37270  19.054  37.951   4.315
64857W        W37271   0.947   6.721   2.381
64858W        W37272  17.252  24.704  12.523
64859W        W37273  15.730  26.621  11.381
64860W        W37274  24.980  37.494   4.669
64861W        W37275   7.282   2.788   3.233
64862W        W37276  13.146  33.999   4.809
64863W        W37277   4.338  32.062  10.534
64864W        W37278  11.761  28.613  14.274
64865W        W37279  26.627  15.611   2.802
64866W        W37280  17.186  37.562   2.720
64867W        W37281  12.155  38.534   3.635
64868W        W37282  22.161  10.827   1.762
64869W        W37283   6.304  16.226  14.018
64870W        W37284  36.401  36.915   4.203
64871W        W37285  18.766   5.746   0.434
64872W        W37286  23.199  24.208  13.798
64873W        W37287   1.271  13.643  10.418
64874W        W37288   9.175   4.829  13.462
64875W        W37289  27.476  13.706  12.393
64876W        W37290  23.705  17.714   4.642
64877W        W37291  23.617  44.990  12.517
64878W        W37292  11.730  33.487   2.881
64879W        W37293  40.849   3.944  14.810
64880W        W37294  43.461  44.929  14.289
64881W        W37295  21.120   8.358  12.981
64882W        W37296  30.907  39.840   4.185
64883W        W37297   9.159  27.482   0.812
64884W        W37298  37.423  16.752   2.776
64885W        W37299   6.383  12.309  10.009
64886W        W37300  25.541  11.335  12.007
64887W        W37301  26.519  16.760   3.775
64888W        W37302  30.508  35.019  14.864
64889W        W37303   3.766  19.588   2.247
64890W        W37304   8.224  26.531   3.353
64891W        W37305  36.348  42.830  11.881
64892W        W37306  43.454  33.009  11.099
64893W        W37307  24.208  24.487   3.731
64894W        W37308  38.525  35.030   4.731
64895W        W37309  13.659  11.795   3.251
64896W        W37310   6.182   4.851   3.870
64897W        W37311  13.344  18.768   2.316
64898W        W37312  24.642  15.088  10.602
64899W        W37313   8.219   4.212   1.769
64900W        W37314  20.260  25.038   0.961
64901W        W37315  41.508  37.522  10.616
64902W        W37316  25.629  43.825   4.281
64903W        W37317  29.139  25.583  14.808
64904W        W37318  13.182  37.466  13.338
64905W        W37319   2.875  13.727   1.346
64906W        W37320  11.234  12.759   2.275
64907W        W37321  12.339  16.189  11.558
64908W        W37322  20.711  23.195  14.811
64909W        W37323  13.306  23.545  11.961
64910W        W37324   9.753   2.762  13.058
64911W        W37325  22.587   7.836  13.923
64912W        W37326   4.933   8.695   1.743
64913W        W37327  21.640   4.308   0.943
64914W        W37328  43.308  11.138   1.289
64915W        W37329  43.312   1.821  13.870
64916W        W37330  26.474  11.671  12.505
64917W        W37331  14.690  30.581  12.097
64918W        W37332  17.644   9.700  12.551
64919W        W37333  22.249  30.630  12.037
64920W        W37334  14.222  33.450  13.474
64921W        W37335  42.922  34.575   1.259
64922W        W37336  12.723  11.685   1.807
64923W        W37337   2.280  25.534  14.961
64924W        W37338  19.116   0.383   3.714
64925W        W37339  43.768  39.861   0.863
64926W        W37340  17.249  39.472   2.689
64927W        W37341  38.536  20.194  12.950
64928W        W37342  10.249  28.511   9.924
64929W        W37343  31.572  44.345   3.830
64930W        W37344   0.432  32.504  13.798
64931W        W37345  44.353  43.979   4.136
64932W        W37346   8.168  11.233  10.520
64933W        W37347  34.443  19.614   2.241
64934W        W37348  16.295  12.679   3.846
64935W        W37349  36.006  42.905  13.812
64936W        W37350  26.112  17.068   4.130
64937W        W37351  41.359  18.230  11.058
64938W        W37352  42.501  37.497   1.241
64939W        W37353  27.978   0.408   0.863
64940W        W37354  10.359  19.679  13.813
64941W        W37355  18.133   2.762  14.427
64942W        W37356   4.362  26.073   3.712
64943W        W37357  28.084   1.900   3.292
64944W        W37358  39.965  28.064   2.894
64945W        W37359  17.725  33.902   2.872
64946W        W37360  25.053  43.776   5.651
64947W        W37361  12.696  21.221   1.410
64948W        W37362   5.311  44.398   2.367
64949W        W37363  43.815  16.284  14.510
64950W        W37364  15.773  39.491   4.244
64951W        W37365  23.588  38.978   2.822
64952W        W37366  44.385  20.561   2.392
64953W        W37367  22.010  16.574   0.754
64954W        W37368  19.077  39.847   1.831
64955W        W37369   2.790  16.080  14.022
64956W        W37370  43.848  22.219   0.885
64957W        W37371   6.218   5.224   0.320
64958W        W37372  17.305   3.936   4.794
64959W        W37373   3.726   5.696  10.144
64960W        W37374   4.736  34.373  13.483
64961W        W37375  36.909  14.771  12.060
64962W        W37376  40.422  31.520   0.251
64963W        W37377   4.372  32.454  11.988
64964W        W37378  32.570  31.133   0.911
64965W        W37379  25.080  34.539  10.971
64966W        W37380  20.035   1.363  11.085
64967W        W37381   3.442  11.253   1.769
64968W        W37382  44.276  16.165   3.365
64969W        W37383   5.844  44.796  10.945
64970W        W37384  22.214  20.764   0.414
64971W        W37385  17.163   3.816   2.330
64972W        W37386  41.373  40.838   4.707
64973W        W37387   3.942  27.964  12.445
64974W        W37388  22.605   8.225   1.233
64975W        W37389  42.451  15.824   3.864
64976W        W37390  18.136  39.350   2.698
64977W        W37391  16.732  26.002  14.908
64978W        W37392  43.021  34.458  10.640
64979W        W37393  22.144  26.021   4.249
64980W        W37394  33.081   3.375   2.731
64981W        W37395   9.839  13.237  14.929
64982W        W37396  11.846   2.765  11.940
64983W        W37397  15.716  18.774  12.511
64984W        W37398  20.747  13.184   4.790
64985W        W37399  36.532   7.231   0.268
64986W        W37400  19.606  17.128   0.835
64987W        W37401  18.189  36.472  13.307
64988W        W37402  12.292  27.983  13.307
64989W        W37403  24.665  21.558   1.892
64990W        W37404  19.137  28.485   3.270
64991W        W37405  23.212  42.950  12.391
64992W        W37406  14.816  18.613   3.196
64993W        W37407   5.799  31.107  13.876
64994W        W37408   9.660  22.576  12.832
64995W        W37409  30.531  17.721   1.868
64996W        W37410   3.799   7.210   5.269
64997W        W37411   1.975  31.000  11.458
64998W        W37412   9.844  35.999   0.777
64999W        W37413  20.752  38.442  12.052
65000W        W37414  44.309   5.873  10.940
65001W        W37415  37.422  29.083  13.547
65002W        W37416  26.130  42.966   2.886
65003W        W37417  34.020  32.515  14.827
65004W        W37418  21.739  42.001   0.947
65005W        W37419  11.789  27.009  13.493
65006W        W37420  31.558  10.189  10.464
65007W        W37421  17.272  20.113   4.697
65008W        W37422  34.594  29.479  10.431
65009W        W37423  23.584  11.365  12.860
65010W        W37424  37.032  12.236   3.806
65011W        W37425  31.543  31.485  14.367
65012W        W37426  43.917  27.111  13.414
65013W        W37427  37.422  34.531  12.469
65014W        W37428  28.142  31.933   5.093
65015W        W37429   7.804  44.850   3.829
65016W        W37430  44.369  20.096  14.292
65017W        W37431  34.079  11.247   2.674
65018W        W37432  18.631  39.522   1.906
65019W        W37433  22.558   9.652   0.885
65020W        W37434  24.510  36.385  10.979
65021W        W37435  11.713  12.351   1.266
65022W        W37436  37.032  11.246  11.385
65023W        W37437  31.930   6.893  12.389
65024W        W37438  36.907  40.319  12.962
65025W        W37439  41.983  37.853  12.533
65026W        W37440  43.798  15.237  11.429
65027W        W37441  34.918   8.222   1.758
65028W        W37442  33.915  14.269   0.844
65029W        W37443   1.916  26.675  13.856
65030W        W37444  12.655  43.893   3.774
65031W        W37445   5.263  24.978   1.892
65032W        W37446  12.167  36.497  14.919
65033W        W37447  19.214   2.896   3.358
65034W        W37448  13.114  38.066   2.716
65035W        W37449  14.179  15.641  12.044
65036W        W37450  33.094  22.542   3.149
65037W        W37451  27.681  42.846   1.302
65038W        W37452  37.932  39.504  11.950
65039W        W37453  27.977   5.694   3.685
65040W        W37454  14.808  38.843   4.253
65041W        W37455  33.048  29.594   2.779
65042W        W37456   4.213  27.572   4.338
65043W        W37457  18.598  43.500  12.996
65044W        W37458  29.923   9.312   2.306
65045W        W37459  31.917  38.868  13.523
65046W        W37460  18.183  28.572  10.968
65047W        W37461  29.962  42.795   0.462
65048W        W37462  21.240  12.834   1.236
65049W        W37463  34.910   8.171  10.901
65050W        W37464  37.969  22.251   3.861
65051W        W37465  19.777  23.539  11.102
65052W        W37466  13.206  40.305   1.875
65053W        W37467   8.695   5.421   3.710
65054W        W37468  17.649  15.595  13.860
65055W        W37469  18.653  30.417  10.950
65056W        W37470   1.474  41.394   2.180
65057W        W37471  40.917  42.518  13.339
65058W        W37472  11.171  12.786   2.892
65059W        W37473  34.086  44.407   3.864
65060W        W37474   0.766   9.171  12.993
65061W        W37475  14.812  16.178  10.461
65062W        W37476  12.282  40.423   0.821
65063W        W37477  42.292  19.069   3.711
65064W        W37478  37.076  41.354   1.887
65065W        W37479  40.844  35.527  11.967
65066W        W37480  30.074   4.256  10.484
65067W        W37481  23.033  30.087  14.892
65068W        W37482  18.753  23.695   0.360
65069W        W37483   8.334  44.452  12.019
65070W        W37484  19.622  18.673   4.299
65071W        W37485  41.988  44.758   2.831
65072W        W37486  29.078  41.861   4.290
65073W        W37487  28.187  44.978  10.613
65074W        W37488  32.446  32.495   4.141
65075W        W37489   0.461  25.030   1.419
65076W        W37490  25.998   3.916   3.770
65077W        W37491   3.273  18.266  12.966
65078W        W37492  22.579  44.468   2.409
65079W        W37493  38.922  26.473   1.875
65080W        W37494  12.282   9.838  10.621
65081W        W37495  34.953  33.954   0.922
65082W        W37496   2.850  37.436  10.924
65083W        W37497  37.990  24.991  10.430
65084W        W37498  29.132  20.584  12.454
65085W        W37499  34.864  25.511  12.377
65086W        W37500  31.618  10.355  13.971
65087W        W37501  31.478   0.253  12.088
65088W        W37502   2.347   3.851   0.451
65089W        W37503  40.427  42.819   4.319
65090W        W37504  11.784  10.220   4.297
65091W        W37505  43.461  19.074  14.513
65092W        W37506   3.309  38.913  14.300
65093W        W37507  19.556  42.499  14.424
65094W        W37508  28.137  16.810  10.444
65095W        W37509   0.374  30.139   2.725
65096W        W37510  31.132  29.429   1.411
65097W        W37511  21.026  11.700   0.411
65098W        W37512  19.678   1.786  13.017
65099W        W37513  41.294  32.535  12.371
65100W        W37514  20.670  17.294  11.477
65101W        W37515   6.725   2.922  10.574
65102W        W37516  26.643  25.470   4.303
65103W        W37517   2.822   1.318  13.870
65104W        W37518   5.400   8.302  11.874
65105W        W37519  13.694   9.224   2.850
65106W        W37520   9.679  29.442   2.890
65107W        W37521  36.076  39.995  11.508
65108W        W37522  44.829   0.351  11.433
65109W        W37523  38.069  27.520   2.870
65110W        W37524  41.508  16.573   0.388
65111W        W37525  19.636  32.035   1.849
65112W        W37526  17.297   3.403  12.496
65113W        W37527  31.131  32.494   1.275
65114W        W37528  41.407  23.542   4.709
65115W        W37529  37.947  24.539  14.391
65116W        W37530  21.533  22.094   4.830
65117W        W37531   5.820  35.959   0.399
65118W        W37532   3.783   2.458  11.381
65119W        W37533  33.547  44.964   4.188
65120W        W37534   8.720  43.340  14.286
65121W        W37535  39.419  38.944  12.987
65122W        W37536  39.392  23.157   4.330
65123W        W37537  34.568  44.969   3.337
65124W        W37538  25.575  13.671   2.681
65125W        W37539  27.171  42.369  14.872
65126W        W37540  25.510  30.601   0.277
65127W        W37541  26.540  26.049   0.903
65128W        W37542  19.242  31.935   4.636
65129W        W37543  16.737  15.623  13.891
65130W        W37544  16.160  37.344   1.380
65131W        W37545   9.697  14.229  14.289
65132W        W37546  27.648  40.444   2.666
65133W        W37547  21.039  42.344  11.498
65134W        W37548  21.713  24.550   0.825
65135W        W37549  10.665  34.121  11.046
65136W        W37550  39.940  33.015   2.241
65137W        W37551  39.045  11.782   5.200
65138W        W37552   1.435  19.225  13.997
65139W        W37553  41.787   2.438  11.518
65140W        W37554   2.328   6.209  13.440
65141W        W37555  38.039   4.334   3.846
65142W        W37556   1.775  12.196  13.046
65143W        W37557  13.127  29.071  14.861
65144W        W37558  11.738  27.013   0.745
65145W        W37559  28.004  11.772  14.958
65146W        W37560  42.964  14.316   3.644
65147W        W37561   8.202  15.114  13.949
65148W        W37562   7.736   4.845   2.757
65149W        W37563  15.584   1.954  12.978
65150W        W37564   8.269  16.295   4.283
65151W        W37565  21.237  18.245  13.046
65152W        W37566  35.360  19.644  14.930
65153W        W37567  38.011   4.792   2.314
65154W        W37568  44.774  10.796  14.027
65155W        W37569  18.167   4.727  10.080
65156W        W37570  40.308  24.719  12.846
65157W        W37571  36.358  15.089  14.817
65158W        W37572   3.868  14.112   4.191
65159W        W37573  40.002  11.773   0.776
65160W        W37574  17.234   7.763   2.780
65161W        W37575  35.868  39.967  13.319
65162W        W37576  10.340  43.496   0.477
65163W        W37577  15.195  10.268   1.925
65164W        W37578  26.656  34.551   3.324
65165W        W37579  11.258   8.748   3.716
65166W        W37580   0.346  13.193  13.386
65167W        W37581  10.173   1.845   4.751
65168W        W37582   1.415  20.724   2.227
65169W        W37583  15.666  44.873   3.306
65170W        W37584  29.617  19.741  11.386
65171W        W37585  44.869   4.819   1.881
65172W        W37586   9.394  11.323  10.552
65173W        W37587  17.116  13.316   3.714
65174W        W37588  21.223  12.202   1.790
65175W        W37589   2.302  25.103  12.961
65176W        W37590  29.061   9.859  13.912
65177W        W37591  14.204   7.323   3.330
65178W        W37592  24.521  17.635  13.882
65179W        W37593  26.621  25.634   2.261
65180W        W37594  39.907   6.706   2.664
65181W        W37595   6.796  39.377  14.025
65182W        W37596  40.008   1.285  12.383
65183W        W37597   6.215  26.174   3.703
65184W        W37598  24.540  28.502   3.639
65185W        W37599  27.081  33.034   3.655
65186W        W37600   9.186  24.991   9.983
65187W        W37601  27.643  23.101  13.026
65188W        W37602  39.421  32.954  14.372
65189W        W37603  14.285  32.903  12.984
65190W        W37604  29.024   0.830   4.345
65191W        W37605  42.332   6.887   1.747
65192W        W37606  11.750  11.190   2.356
65193W        W37607  41.314  28.067  11.086
65194W        W37608  32.899  33.124   1.724
65195W        W37609  43.324  32.021   1.696
65196W        W37610  40.938  16.586   2.249
65197W        W37611  13.654  19.543   2.720
65198W        W37612  10.334  14.155  10.892
65199W        W37613  14.281   2.436  14.794
65200W        W37614  36.046  20.236   1.337
65201W        W37615   9.195   8.810  13.950
65202W        W37616  36.010   9.364   1.346
65203W        W37617   5.304  43.955  10.928
65204W        W37618  20.553  39.028   1.898
65205W        W37619  36.363  24.214   0.883
65206W        W37620  33.589  37.059   2.216
65207W        W37621  14.671  11.777  10.118
65208W        W37622  21.690  44.327   4.615
65209W        W37623   9.340   4.270  11.409
65210W        W37624  17.707  35.393   1.881
65211W        W37625   7.308  40.436  14.832
65212W        W37626  11.217  27.667   3.262
65213W        W37627  29.585  28.141   9.925
65214W        W37628  24.983  17.260  11.457
65215W        W37629  18.151  36.050   3.358
65216W        W37630   2.894  32.455  12.874
65217W        W37631  33.462  41.821   2.239
65218W        W37632  10.263   6.731  12.094
65219W        W37633  23.540  17.773  14.933
65220W        W37634  40.053  30.138   2.366
65221W        W37635  25.560  10.155   2.664
65222W        W37636   6.724   4.271   0.300
65223W        W37637  10.713   4.699  12.853
65224W        W37638  16.571  31.075   1.788
65225W        W37639  33.915  33.129   2.703
65226W        W37640  25.187  15.628   0.767
65227W        W37641  44.284  12.687   2.738
65228W        W37642  34.463  38.040   4.692
65229W        W37643  24.136  24.066  13.495
65230W        W37644  12.744  43.491  13.883
65231W        W37645  44.414  14.224  13.847
65232W        W37646   2.933  37.838  13.039
65233W        W37647   0.461  16.807   0.733
65234W        W37648  32.968  10.817   2.412
65235W        W37649  14.165   5.916   5.286
65236W        W37650   7.886  14.784  12.984
65237W        W37651  43.313  14.589  12.481
65238W        W37652  36.515  37.941  11.502
65239W        W37653  31.646   6.768   2.690
65240W        W37654  21.618  14.152   4.121
65241W        W37655   2.823  24.199   2.391
65242W        W37656  26.004  28.985  11.070
65243W        W37657   8.771  17.273   4.324
65244W        W37658  14.663  12.829   3.694
65245W        W37659  44.816   9.224   0.939
65246W        W37660  38.403  44.005  14.870
65247W        W37661  13.763  26.981  14.276
65248W        W37662  29.470  42.362   2.731
65249W        W37663   0.392  11.793  10.968
65250W        W37664  30.430  10.785  14.781
65251W        W37665   9.775  25.966   2.688
65252W        W37666  22.084   6.427  13.012
65253W        W37667  39.865  10.267   1.372
65254W        W37668  14.173   2.278   2.402
65255W        W37669  41.504   4.225  11.521
65256W        W37670  40.939  15.589  13.982
65257W        W37671  42.952  11.369  13.396
65258W        W37672  22.249  26.603  10.630
65259W        W37673  32.098  12.150   1.318
65260W        W37674   3.364   3.771   1.400
65261W        W37675   7.757  20.190  12.995
65262W        W37676   8.236   7.686   2.717
65263W        W37677  27.572  24.630   1.278
65264W        W37678  43.814  24.132  13.440
65265W        W37679  19.694   4.442  13.543
65266W        W37680  39.334  16.119  14.852
65267W        W37681   6.900  12.799  10.915
65268W        W37682  28.661  19.744  12.066
65269W        W37683  25.611  16.241  13.800
65270W        W37684  25.097  28.093  13.807
65271W        W37685  44.382  11.202  11.114
65272W        W37686  34.528  11.241  13.935
65273W        W37687   8.256   6.690   0.448
65274W        W37688  32.529  14.778   1.293
65275W        W37689   4.392   9.204   1.698
65276W        W37690  23.050  27.047  12.354
65277W        W37691  34.058  40.395  12.347
65278W        W37692  22.537  17.071  10.476
65279W        W37693  24.997   1.768   1.907
65280W        W37694  24.504  26.495   3.784
65281W        W37695   1.295  43.863  13.912
65282W        W37696  13.704  43.824  14.467
65283W        W37697  37.013  21.520  10.626
65284W        W37698  14.154  30.157  10.642
65285W        W37699  32.888  32.905   3.841
65286W        W37700  12.650  16.573  14.474
65287W        W37701  25.106  36.580  13.393
65288W        W37702  14.804  22.068   1.774
65289W        W37703  19.132   2.729  11.007
65290W        W37704  30.933  18.753   4.175
65291W        W37705  39.018  43.877  14.497
65292W        W37706   1.856   3.418   5.127
65293W        W37707  42.850  36.898   4.818
65294W        W37708  31.519  26.109   0.728
65295W        W37709  26.143  23.011   0.811
65296W        W37710  10.206  25.113  11.110
65297W        W37711  42.827   1.433  11.095
65298W        W37712  29.546  38.441   2.896
65299W        W37713  14.115  18.147  12.442
65300W        W37714  23.721   5.787   3.694
65301W        W37715  38.504  42.907   1.447
65302W        W37716  43.478  25.131  14.953
65303W        W37717  11.793   6.370   4.616
65304W        W37718  30.163  31.062   1.292
65305W        W37719  43.291   2.916   4.724
65306W        W37720   4.797   9.890   1.297
65307W        W37721   2.264  14.337   4.759
65308W        W37722  27.449  17.225  11.510
65309W        W37723   2.431  20.095   4.252
65310W        W37724  35.966   5.853  10.551
65311W        W37725  42.424  25.487  11.022
65312W        W37726  38.950  42.466  13.312
65313W        W37727   8.171  30.545  11.397
65314W        W37728  25.999  40.430   1.276
65315W        W37729  40.433  37.373   1.696
65316W        W37730  28.608  24.201   3.364
65317W        W37731  14.143  43.507   4.688
65318W        W37732  43.278  12.785  13.426
65319W        W37733  13.623  17.110   4.175
65320W        W37734   0.895  15.713   3.744
65321W        W37735  18.116   0.856   1.831
65322W        W37736  14.242  12.222   1.343
65323W        W37737  38.960  30.036   2.669
65324W        W37738  11.186  16.807   2.297
65325W        W37739   1.307   8.779   4.660
65326W        W37740   7.415  42.914  11.553
65327W        W37741  27.976  31.046   1.238
65328W        W37742  32.410  18.131   5.190
65329W        W37743  18.587   1.894   0.868
65330W        W37744   9.322  38.043  12.016
65331W        W37745   3.409  26.500  13.363
65332W        W37746  36.071  15.238   2.780
65333W        W37747   4.931  42.822   1.878
65334W        W37748  36.567  22.102  10.607
65335W        W37749  40.402   4.259  13.030
65336W        W37750  26.157  31.926  13.817
65337W        W37751  39.433   8.211   1.922
65338W        W37752  33.107  23.688   0.785
65339W        W37753  30.488  18.555   1.719
65340W        W37754  13.610   8.370  14.880
65341W        W37755  37.863  34.049   4.137
65342W        W37756  42.940   4.862  10.438
65343W        W37757   3.364  26.656   2.344
65344W        W37758  32.496   5.265   2.770
65345W        W37759   7.394   5.715   0.964
65346W        W37760  19.117  11.633  12.898
65347W        W37761   0.385  14.792  14.776
65348W        W37762  30.463  13.137  13.365
65349W        W37763  44.294  20.120  12.422
65350W        W37764  20.764  29.164   3.714
65351W        W37765  30.522   9.238   1.717
65352W        W37766  24.219  34.525   1.440
65353W        W37767  33.392  13.176  10.901
65354W        W37768  24.140   8.297  13.944
65355W        W37769  34.092   7.373  10.466
65356W        W37770  17.224  26.972  14.954
65357W        W37771  23.112  40.535  11.608
65358W        W37772  10.636  18.621  12.541
65359W        W37773  35.577  35.066  13.050
65360W        W37774  31.427  24.071   4.729
65361W        W37775  33.918  20.095  11.479
65362W        W37776  41.313  12.198   2.276
65363W        W37777   0.806   5.733   1.899
65364W        W37778  18.171  29.619   3.367
65365W        W37779  27.177   1.439  13.325
65366W        W37780  16.138  26.688  14.949
65367W        W37781   6.424  37.463   5.238
65368W        W37782  24.215  22.164  14.358
65369W        W37783  17.252  22.609   4.803
65370W        W37784  30.587  41.951   0.341
65371W        W37785  14.222  23.536  10.480
65372W        W37786  36.391  26.137   2.244
65373W        W37787   3.383  27.031  12.015
65374W        W37788  43.847  10.752  11.558
65375W        W37789  32.959  43.912  11.104
65376W        W37790  30.485   7.667   5.116
65377W        W37791  13.330  41.808   2.796
65378W        W37792  39.811  32.916  14.868
65379W        W37793  22.029  24.678   0.880
65380W        W37794  43.910  13.228  11.534
65381W        W37795  27.613   2.781   3.853
65382W        W37796  27.152  12.667   1.819
65383W        W37797  20.524  32.054  12.843
65384W        W37798   2.950  41.436  11.886
65385W        W37799  34.587  20.539  13.957
65386W        W37800  23.563  18.295  11.033
65387W        W37801  24.202  18.167   0.915
65388W        W37802  33.929  16.243  11.004
65389W        W37803  39.929   2.292  13.878
65390W        W37804  38.452  26.648  10.535
65391W        W37805  37.523   6.905   4.632
65392W        W37806  30.159  30.908  13.004
65393W        W37807  27.149   2.435  12.836
65394W        W37808   3.828   8.209  14.460
65395W        W37809  37.928  20.122  14.939
65396W        W37810  34.497  18.594  11.026
65397W        W37811  35.865   4.268  14.992
65398W        W37812  44.873   6.894  10.992
65399W        W37813   5.874  28.672   2.885
65400W        W37814   6.219  24.176  13.793
65401W        W37815   3.424  29.631  14.898
65402W        W37816  18.764   2.731   4.281
65403W        W37817  44.487  30.046  13.816
65404W        W37818  24.216  29.434   4.752
65405W        W37819  42.513   0.902   3.147
65406W        W37820  15.770  38.853   4.276
65407W        W37821  30.562   3.382   1.737
65408W        W37822  31.988  32.912  10.942
65409W        W37823  44.343   6.774  12.872
65410W        W37824   9.378  31.528   2.224
65411W        W37825   4.858  34.378   0.471
65412W        W37826   8.255   5.305  11.869
65413W        W37827  22.158  19.137   4.758
65414W        W37828  20.062  15.243   1.920
65415W        W37829  22.521  13.745   3.236
65416W        W37830  23.209  22.641   4.347
65417W        W37831  41.899   4.412  13.008
65418W        W37832  18.675  22.146  12.363
65419W        W37833  39.339   1.743  11.425
65420W        W37834  17.307  15.598  12.441
65421W        W37835  18.670  33.535  14.304
65422W        W37836   4.208  31.060   2.401
65423W        W37837  31.050  27.606   2.814
65424W        W37838  14.227   1.410  13.986
65425W        W37839  20.265   2.271   2.250
65426W        W37840  13.346   8.847  11.921
65427W        W37841  24.020  29.106   2.377
65428W        W37842  37.574  42.849   1.816
65429W        W37843  24.635  37.419   2.309
65430W        W37844  18.704  25.615   4.262
65431W        W37845   6.838  17.136   1.704
65432W        W37846  37.938  13.732   1.908
65433W        W37847   3.720  10.688  14.458
65434W        W37848  14.588  38.550   0.269
65435W        W37849  18.649  24.995  13.453
65436W        W37850   6.792  36.496   1.348
65437W        W37851  34.496  31.944  12.903
65438W        W37852  34.427   5.197   4.625
65439W        W37853  23.177   8.296  13.063
65440W        W37854  14.659  17.293  14.781
65441W        W37855   9.224  33.607  12.835
65442W        W37856  15.727   6.902   0.449
65443W        W37857  24.699   4.706  10.912
65444W        W37858   7.744  27.000  14.866
65445W        W37859  17.089  39.362   4.277
65446W        W37860  12.312   7.851  12.996
65447W        W37861   0.388  15.799   0.737
65448W        W37862  37.028  34.937  14.863
65449W        W37863  34.388  28.048  12.435
65450W        W37864  17.729  39.360  14.439
65451W        W37865   3.720  29.637   3.856
65452W        W37866  35.087  24.016  13.014
65453W        W37867  10.254  19.583  14.368
65454W        W37868  16.702  24.204  14.508
65455W        W37869  43.865  19.556   3.814
65456W        W37870  16.232   6.773  13.333
65457W        W37871  26.167  16.636   4.640
65458W        W37872  12.180   5.905   1.889
65459W        W37873  32.489  11.241   3.276
65460W        W37874  26.666  14.649  12.902
65461W        W37875  13.337  39.510  11.887
65462W        W37876  39.970  11.274   0.921
65463W        W37877  11.832  30.456  10.431
65464W        W37878   1.404   8.377  12.963
65465W        W37879   5.726  38.906  12.494
65466W        W37880  34.027  16.708  11.098
65467W        W37881  41.806  26.641  12.438
65468W        W37882  18.737  12.659   4.114
65469W        W37883  36.858   2.806  12.038
65470W        W37884  13.694  33.971  14.897
65471W        W37885  31.405  25.992   3.795
65472W        W37886  15.220  27.055   4.609
65473W        W37887  33.549   1.960   4.122
65474W        W37888  23.081  17.262   1.787
65475W        W37889  38.438  22.010   0.471
65476W        W37890  32.064  31.592  10.494
65477W        W37891  22.026  29.173   2.189
65478W        W37892  20.261   1.421   0.295
65479W        W37893  10.762   3.455  14.452
65480W        W37894   2.827  39.896   2.244
65481W        W37895  30.927   5.766   4.292
65482W        W37896  36.068  11.794  11.454
65483W        W37897  37.499  33.895   1.867
65484W        W37898  44.913  34.993   1.772
65485W        W37899  32.471  42.028  13.345
65486W        W37900   6.808  35.587   0.297
65487W        W37901   8.292  42.474  12.485
65488W        W37902   1.911  34.379  10.608
65489W        W37903  37.377  27.635  11.434
65490W        W37904  10.297  15.314  13.414
65491W        W37905  15.586  40.459  13.002
65492W        W37906  31.503  27.105  14.948
65493W        W37907  40.415  21.616  14.845
65494W        W37908  22.198  41.032  13.045
65495W        W37909  13.172   2.902   1.423
65496W        W37910  28.963   8.292   4.804
65497W        W37911   8.794  26.114  11.537
65498W        W37912   8.707  44.335  12.086
65499W        W37913  41.527  17.585   0.452
65500W        W37914  40.992  20.653   0.928
65501W        W37915  23.634  36.868  12.055
65502W        W37916  34.895  22.692   4.728
65503W        W37917  41.833  34.995  10.492
65504W        W37918  24.062  30.590  10.957
65505W        W37919  26.485   0.323  13.946
65506W        W37920  17.748  39.058   3.832
65507W        W37921  33.496  22.152  10.957
65508W        W37922  16.738  29.605   2.336
65509W        W37923  36.593  12.840  12.468
65510W        W37924  33.512   9.356  12.520
65511W        W37925  27.449  34.989   4.597
65512W        W37926  23.039   2.921   0.291
65513W        W37927  40.416  21.250   0.325
65514W        W37928  21.677  11.836   2.851
65515W        W37929  25.139  33.031   3.289
65516W        W37930  17.091   6.396   5.202
65517W        W37931  22.580  35.967  11.431
65518W        W37932  19.198  18.773  14.819
65519W        W37933  26.157  19.640  13.428
65520W        W37934  14.170  21.523  12.093
65521W        W37935  26.187  34.091   2.778
65522W        W37936  22.537   7.801   1.927
65523W        W37937  21.245   1.460   3.173
65524W        W37938  23.010  13.110  13.035
65525W        W37939   4.762  31.061   2.665
65526W        W37940   5.782  37.024  10.539
65527W        W37941  21.714   6.748  14.812
65528W        W37942  12.853  17.182  11.391
65529W        W37943  37.985   4.283   1.391
65530W        W37944  37.371  31.619  12.502
65531W        W37945   8.868  38.564  11.552
65532W        W37946  24.048  19.751   2.830
65533W        W37947   0.983  35.915   3.795
65534W        W37948  29.652  19.243  14.316
65535W        W37949  26.505  16.295   2.770
65536W        W37950  23.687  30.054   3.723
65537W        W37951  12.706   0.962   2.690
65538W        W37952  10.838  17.674   2.363
65539W        W37953   8.248  32.926   4.337
65540W        W37954  22.600  29.590   5.165
65541W        W37955  23.025   7.367  14.827
65542W        W37956  23.587   9.325  12.360
65543W        W37957  43.287  28.944  14.877
65544W        W37958  36.553  38.984   4.329
65545W        W37959  19.092  34.461  13.996
65546W        W37960  34.941  32.106  11.449
65547W        W37961  13.812  23.190   4.763
65548W        W37962  34.974  18.113   5.307
65549W        W37963  38.865  24.526   2.295
65550W        W37964  10.163  33.542  11.901
65551W        W37965  23.493   2.466   2.370
65552W        W37966   1.742  23.492  12.429
65553W        W37967  30.061  10.873  13.987
65554W        W37968  28.122  20.249  12.898
65555W        W37969   6.393  29.997   0.947
65556W        W37970   4.926   1.242  13.022
65557W        W37971  25.107   6.333   5.120
65558W        W37972  14.645  12.336   1.709
65559W        W37973   0.794  23.683  13.449
65560W        W37974   3.868  24.709   4.351
65561W        W37975   9.371  29.058  12.569
65562W        W37976  39.002   6.363   5.243
65563W        W37977  24.151  19.278   9.446
65564W        W37978  30.085  30.500  12.846
65565W        W37979   8.675  44.861   4.723
65566W        W37980  22.049  31.997   3.206
65567W        W37981  30.070   1.804   0.443
65568W        W37982   3.942  42.005   0.469
65569W        W37983   1.446  39.374   3.730
65570W        W37984  20.206   9.149   4.825
65571W        W37985  40.339  40.377  12.939
65572W        W37986  26.054  12.650  11.002
65573W        W37987  32.095  26.485   0.321
65574W        W37988  11.834  19.746   2.780
65575W        W37989  14.208  28.144  13.448
65576W        W37990  28.499  37.474   2.217
65577W        W37991  35.528  13.230   1.448
65578W        W37992  28.127  19.045  10.564
65579W        W37993  17.659   3.408  13.355
65580W        W37994  25.206  44.778   4.830
65581W        W37995  20.178  20.099  14.378
65582W        W37996  29.424  43.798  13.041
65583W        W37997  18.735  11.681   1.284
65584W        W37998   6.281  35.402   3.757
65585W        W37999   1.307   1.443   4.771
65586W        W38000  32.597  40.447   3.283
65587W        W38001  37.087  10.756  13.007
65588W        W38002  39.460   4.273  14.508
65589W        W38003  33.512   8.397   2.783
65590W        W38004  30.434  41.813   2.322
65591W        W38005   6.862  25.046   4.645
65592W        W38006  17.290  42.898  11.610
65593W        W38007  25.578  36.373   2.713
65594W        W38008  32.992  23.192  13.445
65595W        W38009  44.849   5.929  14.873
65596W        W38010  42.926  23.122  14.440
65597W        W38011   8.851   8.680   2.333
65598W        W38012  43.274  37.374  10.112
65599W        W38013  41.325  34.982  12.993
65600W        W38014  42.901  27.543  14.337
65601W        W38015  25.153  39.317  11.392
65602W        W38016  13.683  14.241   4.166
65603W        W38017  20.219   2.900  13.432
65604W        W38018  24.131   6.904   1.262
65605W        W38019  23.192  41.873  14.797
65606W        W38020  23.662  22.071  11.872
65607W        W38021  11.657  10.275   4.810
65608W        W38022  23.497  26.502   4.695
65609W        W38023  29.637   3.850  11.485
65610W        W38024   2.408  15.107   4.751
65611W        W38025  12.742  40.402  10.452
65612W        W38026  32.017   3.325  10.488
65613W        W38027   5.218  31.621   2.694
65614W        W38028  20.103  29.645  13.909
65615W        W38029  37.373  25.519   5.096
65616W        W38030  11.798  44.271  14.351
65617W        W38031  14.190   6.733  12.935
65618W        W38032  16.598  11.167   4.681
65619W        W38033  19.664  24.161   1.814
65620W        W38034  26.570  17.190  13.525
65621W        W38035  34.963  14.158  14.970
65622W        W38036  21.716  32.633  11.892
65623W        W38037  41.390  25.104  12.368
65624W        W38038  33.119  25.188  12.355
65625W        W38039  15.786  30.016   4.663
65626W        W38040  28.540  20.699   1.405
65627W        W38041   9.850  11.365  13.050
65628W        W38042   2.925  16.180  10.537
65629W        W38043  31.946   7.694   0.277
65630W        W38044  21.659  13.640   1.255
65631W        W38045  36.567   8.313   0.756
65632W        W38046  10.738  26.997   1.747
65633W        W38047  17.612  44.284  13.458
65634W        W38048  19.091  26.100   1.224
65635W        W38049   3.289   1.768  14.915
65636W        W38050  20.751  41.404   0.912
65637W        W38051  14.119   6.204  11.931
65638W        W38052  30.133  34.591   2.712
65639W        W38053  21.191   0.924   0.424
65640W        W38054   7.221  33.914   2.355
65641W        W38055   0.440  32.517   3.376
65642W        W38056  12.146  32.056   4.333
65643W        W38057   9.872  43.509  10.625
65644W        W38058  27.137  14.747  13.800
65645W        W38059  20.670  11.203   2.734
65646W        W38060  12.210   6.795  13.374
65647W        W38061  14.194  17.726   5.636
65648W        W38062  20.549  17.636  11.017
65649W        W38063  24.197   7.864   2.370
65650W        W38064  17.736  15.193  11.072
65651W        W38065  11.168  16.309  13.994
65652W        W38066   3.781  16.115   4.197
65653W        W38067  41.511  28.655  10.964
65654W        W38068  43.017   6.309  10.558
65655W        W38069  31.980   5.854   3.227
65656W        W38070  17.790  40.843   2.217
65657W        W38071  32.069  26.550   0.910
65658W        W38072  15.659   2.766   1.278
65659W        W38073  19.678  13.208   3.776
65660W        W38074  31.574  40.534   0.312
65661W        W38075  39.020  37.969  14.910
65662W        W38076  41.494   7.703   4.200
65663W        W38077  16.316   3.398  14.307
65664W        W38078  25.130  15.098  13.960
65665W        W38079  28.049  17.163   4.173
65666W        W38080  30.019  35.987  14.460
65667W        W38081  41.327   0.746   1.348
65668W        W38082  40.486  41.919  14.963
65669W        W38083  35.538  34.383   0.945
65670W        W38084  37.474   4.277   1.404
65671W        W38085  35.527  25.109  10.965
65672W        W38086  29.432  32.019  12.376
65673W        W38087  17.128   0.906   5.293
65674W        W38088  11.699  10.699   1.260
65675W        W38089   4.710  36.553   1.372
65676W        W38090  11.705  42.393   4.142
65677W        W38091  33.022   4.750  10.610
65678W        W38092   7.370  12.207  12.539
65679W        W38093  11.673  12.667   4.195
65680W        W38094  33.002  22.233  12.041
65681W        W38095  40.819  11.310  14.848
65682W        W38096  32.620  23.142  11.897
65683W        W38097  10.675   1.328   1.884
65684W        W38098  13.339  16.190   1.216
65685W        W38099  12.281  40.891   0.893
65686W        W38100  13.673  20.678  14.006
65687W        W38101  10.668  37.986   1.918
65688W        W38102  14.243  17.138  12.492
65689W        W38103  42.310  15.638   1.244
65690W        W38104  24.524   2.773   3.733
65691W        W38105  30.642  32.934  14.333
65692W        W38106  31.567  21.689   4.205
65693W        W38107  21.550   1.939  11.490
65694W        W38108   2.902  19.241   3.235
65695W        W38109  41.012  41.409  13.370
65696W        W38110   7.284  41.839   3.696
65697W        W38111  30.998  44.826  13.314
65698W        W38112  20.582  20.238  13.027
65699W        W38113  43.384  14.215   0.829
65700W        W38114   5.232   9.164  13.405
65701W        W38115   5.358  32.009   1.886
65702W        W38116  16.785  36.356   4.274
65703W        W38117  30.928   5.789  14.432
65704W        W38118   7.285  28.972  10.939
65705W        W38119   8.849  42.324   4.324
65706W        W38120   4.819  37.379   0.753
65707W        W38121   9.360  32.398  14.025
65708W        W38122  28.606  18.558   4.626
65709W        W38123  35.588   1.824   1.414
65710W        W38124  18.571  38.937  12.483
65711W        W38125  43.787   0.988   0.480
65712W        W38126  31.960   0.438   1.727
65713W        W38127  10.361  37.422   3.172
65714W        W38128  28.963  12.326  13.404
65715W        W38129  34.979   6.805   1.312
65716W        W38130   3.722  21.108  10.619
65717W        W38131   2.855  13.826   2.194
65718W        W38132  43.821  36.973  10.912
65719W        W38133  17.077  10.313  12.340
65720W        W38134  30.146  15.316  11.435
65721W        W38135  33.911  14.272  12.069
65722W        W38136   0.798  33.441  11.892
65723W        W38137  44.408  11.156   3.379
65724W        W38138  20.233  12.156  14.426
65725W        W38139  16.594  40.013   3.260
65726W        W38140  26.125  18.091   5.086
65727W        W38141   7.179  31.551   3.751
65728W        W38142  17.695  25.048   4.625
65729W        W38143  15.328  18.648   1.241
65730W        W38144  44.336  32.927   5.124
65731W        W38145  19.050  21.047  14.393
65732W        W38146  38.019  25.661  14.424
65733W        W38147  31.022   5.274   0.945
65734W        W38148   7.182  15.085  12.864
65735W        W38149  25.100  35.583  12.031
65736W        W38150   9.798  39.395  14.938
65737W        W38151  16.109  16.674   0.400
65738W        W38152  24.004  21.608  11.429
65739W        W38153  22.520  44.880   0.733
65740W        W38154  42.825  29.425   5.195
65741W        W38155   0.458   8.308  10.445
65742W        W38156  16.210  39.449  14.960
65743W        W38157  34.076  29.564  14.367
65744W        W38158  25.605  36.895   2.864
65745W        W38159  41.525  25.668   3.819
65746W        W38160  14.101   3.780  11.867
65747W        W38161  10.732   5.785  11.378
65748W        W38162  21.729  21.074  10.938
65749W        W38163  44.428  32.100  11.089
65750W        W38164   4.842   6.197   4.641
65751W        W38165  33.486  20.119   4.697
65752W        W38166  38.502  36.556   2.823
65753W        W38167  24.672  29.133  11.873
65754W        W38168   1.792  27.172   1.817
65755W        W38169  21.683  27.051   1.852
65756W        W38170  39.509  29.615   0.946
65757W        W38171  33.092  32.105  12.952
65758W        W38172  13.123  23.566   2.805
65759W        W38173  10.840   8.208   1.831
65760W        W38174   4.709  18.129  12.832
65761W        W38175  31.015  35.501   1.294
65762W        W38176   1.262  11.315   1.890
65763W        W38177  38.538  32.450   3.827
65764W        W38178  24.622  16.657   2.835
65765W        W38179  42.844  31.648   2.378
65766W        W38180  38.003   7.666  13.363
65767W        W38181   1.759   2.354  13.471
65768W        W38182  24.621  11.823   0.245
65769W        W38183  17.233   0.319   4.634
65770W        W38184  29.579  44.790   0.739
65771W        W38185   1.785  38.965  14.318
65772W        W38186   0.425   0.358   3.231
65773W        W38187   4.902  21.606  11.068
65774W        W38188  43.302  25.499  13.423
65775W        W38189   0.321  20.705  12.040
65776W        W38190  22.015  35.938   3.767
65777W        W38191  17.685  20.053  12.935
65778W        W38192  44.306  38.371   4.667
65779W        W38193   0.965  29.602   2.317
65780W        W38194  36.952  23.216  12.557
65781W        W38195  17.580  29.602  10.105
65782W        W38196  23.616  26.118  11.888
65783W        W38197  37.076   6.707   1.844
65784W        W38198   8.218  38.060   4.131
65785W        W38199  17.217  12.824  12.855
65786W        W38200  39.047  38.958  12.579
65787W        W38201   2.366   4.888   4.161
65788W        W38202   6.840  44.431   4.779
65789W        W38203  23.242  10.742   4.262
65790W        W38204  32.900  35.010   0.347
65791W        W38205   0.366  16.663   0.358
65792W        W38206   8.331  12.300   1.405
65793W        W38207  33.604  23.015   1.771
65794W        W38208   6.212  25.027   0.806
65795W        W38209  44.940  24.099   2.744
65796W        W38210  15.188   4.765  11.492
65797W        W38211   0.456  14.748  11.975
65798W        W38212  33.058  33.497   4.800
65799W        W38213  18.647  32.905  12.341
65800W        W38214  32.428  16.606  14.767
65801W        W38215  36.430   4.266  14.871
65802W        W38216  13.122   8.712   9.963
65803W        W38217  37.418  18.120  11.017
65804W        W38218  15.262   8.347  10.618
65805W        W38219   7.746  39.449   4.790
65806W        W38220   4.763  41.859   1.440
65807W        W38221  24.516  21.582  14.002
65808W        W38222  40.906  20.091  13.849
65809W        W38223  40.413   6.342  12.963
65810W        W38224  42.850   9.661  10.469
65811W        W38225  25.035  43.882   5.245
65812W        W38226  39.363  29.090   4.808
65813W        W38227  13.252  37.405  12.370
65814W        W38228  16.150   5.795   3.287
65815W        W38229  44.001  26.667  12.066
65816W        W38230  30.575  31.153  10.486
65817W        W38231  40.049  28.159  10.439
65818W        W38232  41.792   4.867  10.968
65819W        W38233  37.955  44.436   1.700
65820W        W38234  11.261  21.714  10.639
65821W        W38235  34.948  23.019  12.524
65822W        W38236  44.918   5.864   0.739
65823W        W38237  30.073  12.144  14.492
65824W        W38238  43.389   6.682   3.175
65825W        W38239  43.334  37.385   0.279
65826W        W38240  15.170  41.537   3.187
65827W        W38241  32.906  27.078   2.686
65828W        W38242  18.689  10.701   0.943
65829W        W38243  40.976  39.455   3.827
65830W        W38244  33.128  16.579   4.603
65831W        W38245  37.020   4.235   1.826
65832W        W38246   8.845   7.366  13.357
65833W        W38247  30.101  30.156  11.120
65834W        W38248  11.684  25.029   4.250
65835W        W38249  10.660   7.752   4.324
65836W        W38250  42.964  29.517  14.015
65837W        W38251   7.845  41.301  11.405
65838W        W38252  17.759  12.231   1.416
65839W        W38253  40.982  18.701  10.962
65840W        W38254  28.596  38.457  14.964
65841W        W38255  28.583  32.079  10.477
65842W        W38256  17.652  31.585  11.951
65843W        W38257  17.648  34.599  13.018
65844W        W38258  20.130  18.690   1.746
65845W        W38259   2.914  12.181   3.705
65846W        W38260  14.178  37.487  14.887
65847W        W38261  28.555   3.710   4.804
65848W        W38262  43.883  15.293  10.450
65849W        W38263  27.493  26.692  13.996
65850W        W38264  21.661  12.124  13.978
65851W        W38265  28.634  32.896   1.328
65852W        W38266  23.165  14.821  13.959
65853W        W38267  19.767  19.699   2.280
65854W        W38268  26.982  27.576  12.562
65855W        W38269  42.502  18.679   0.941
65856W        W38270  25.008  10.378  11.485
65857W        W38271  22.189   8.747  11.986
65858W        W38272  35.577   1.469  14.391
65859W        W38273  29.926  36.408   1.415
65860W        W38274  32.027   2.742  11.371
65861W        W38275  34.992  35.412  11.533
65862W        W38276   9.791  18.092   4.119
65863W        W38277   1.969  11.199  14.333
65864W        W38278  17.766  23.991   2.219
65865W        W38279  40.841  43.937   4.750
65866W        W38280  14.588   4.240  12.951
65867W        W38281  10.824  31.093  12.422
65868W        W38282   5.879  32.621   2.258
65869W        W38283  36.958  14.618   3.220
65870W        W38284  24.144  23.090   4.260
65871W        W38285   9.193  43.850  13.997
65872W        W38286   6.186   2.817  11.608
65873W        W38287   6.857   0.347   2.889
65874W        W38288   5.436  13.205  13.413
65875W        W38289   0.761  13.736   2.893
65876W        W38290  27.188  38.878   0.361
65877W        W38291  11.839  40.385   3.285
65878W        W38292  30.431   9.244   2.772
65879W        W38293   4.322  28.655   2.339
65880W        W38294  19.773  10.823  10.477
65881W        W38295  40.463  22.595   0.870
65882W        W38296  25.481  30.118  11.381
65883W        W38297   5.870  17.612  11.408
65884W        W38298  38.043  35.507   2.690
65885W        W38299  42.887  32.975   4.806
65886W        W38300   6.336  14.626   0.303
65887W        W38301  43.816  44.424   0.436
65888W        W38302   3.424  39.046   4.347
65889W        W38303  42.889  25.710   2.360
65890W        W38304  15.166  29.160   1.915
65891W        W38305  34.880   0.985  10.578
65892W        W38306   3.302  33.026  12.825
65893W        W38307   2.790  36.435   4.824
65894W        W38308  23.625  39.502  13.322
65895W        W38309  34.476  14.136   3.705
65896W        W38310  36.905   1.779  14.779
65897W        W38311  17.801  31.604   2.318
65898W        W38312  26.662   2.278   3.187
65899W        W38313  21.707  25.635   1.251
65900W        W38314  20.766  13.706  13.043
65901W        W38315  22.192   6.183   0.871
65902W        W38316  12.738  33.069   0.251
65903W        W38317  17.629  31.543  10.958
65904W        W38318   4.209  43.416   0.869
65905W        W38319  28.171  28.150  12.965
65906W        W38320  28.613  28.590   2.773
65907W        W38321  14.106   0.253   1.743
65908W        W38322  28.508  37.977  13.322
65909W        W38323  34.068  10.236  11.448
65910W        W38324  36.492  31.004   2.709
65911W        W38325  22.722  29.103   1.215
65912W        W38326  22.688  32.594  10.997
65913W        W38327  25.033  22.108   0.258
65914W        W38328  35.864  42.291  10.610
65915W        W38329   9.710  43.857   2.810
65916W        W38330  39.907  26.670   3.726
65917W        W38331  20.762  27.678  14.377
65918W        W38332  34.051  37.993  10.593
65919W        W38333  21.533  16.219  11.423
65920W        W38334  37.406  10.352  11.127
65921W        W38335   4.825  41.525  11.573
65922W        W38336  36.475   1.346  11.550
65923W        W38337  20.048   5.341   1.449
65924W        W38338  38.956  10.247   1.380
65925W        W38339  40.999  38.569  14.949
65926W        W38340  20.555  40.451   1.441
65927W        W38341  38.070  40.418  14.939
65928W        W38342  15.655  42.784   2.253
65929W        W38343   7.265  33.874   1.388
65930W        W38344  11.670  28.962   4.216
65931W        W38345  26.616  15.209   0.827
65932W        W38346  29.106   4.925   4.204
65933W        W38347  13.111  37.862  11.392
65934W        W38348   0.398   2.433   0.941
65935W        W38349   7.410  26.028   2.713
65936W        W38350  27.674  32.582   0.880
65937W        W38351  22.513  18.728  11.945
65938W        W38352  14.201  31.611   4.747
65939W        W38353   3.441  39.018   1.755
65940W        W38354   3.894  11.719  11.461
65941W        W38355   6.775  35.852   2.720
65942W        W38356  33.465   3.819  14.985
65943W        W38357  40.376  29.147   1.919
65944W        W38358  22.152  35.541   0.941
65945W        W38359   3.886  31.600  13.427
65946W        W38360  34.438   1.772  13.968
65947W        W38361  33.974  34.578  10.888
65948W        W38362  27.981  41.390   4.819
65949W        W38363  16.257  33.013   4.306
65950W        W38364   5.735  36.547   2.774
65951W        W38365   9.728  41.346  13.335
65952W        W38366  19.241  44.860  13.040
65953W        W38367  43.450   1.378  14.311
65954W        W38368   9.790  37.508   4.798
65955W        W38369   4.698  11.649   4.323
65956W        W38370   8.844  20.622  13.405
65957W        W38371  15.651  27.502  12.941
65958W        W38372   1.768  13.826   4.702
65959W        W38373  36.477   0.424  12.370
65960W        W38374  35.886  32.632   1.429
65961W        W38375  14.685  44.946   2.845
65962W        W38376  17.614  29.126   4.277
65963W        W38377   9.834  26.482   1.216
65964W        W38378  21.032  40.847   4.261
65965W        W38379   3.909  20.273  14.892
65966W        W38380  21.058   2.941   3.834
65967W        W38381  17.561  31.584   4.296
65968W        W38382  44.439  15.654  10.447
65969W        W38383  32.513   7.389   3.783
65970W        W38384  11.769  14.265  13.387
65971W        W38385  39.967   8.367   1.247
65972W        W38386  21.118   5.909   2.266
65973W        W38387  34.372  29.054   2.280
65974W        W38388  19.642  24.580   1.750
65975W        W38389  12.848  41.307  12.404
65976W        W38390  44.833   7.401   3.734
65977W        W38391  43.787  41.485  10.435
65978W        W38392   1.807  11.216   2.350
65979W        W38393  26.565   0.464   5.675
65980W        W38394  44.007  16.599  13.415
65981W        W38395  36.902  23.208  10.067
65982W        W38396  24.995  11.817   2.833
65983W        W38397   0.428   6.856   0.422
65984W        W38398   1.804  11.806   2.383
65985W        W38399  26.587   5.303  11.389
65986W        W38400  22.635  33.450  14.901
65987W        W38401   1.273   0.890   1.303
65988W        W38402  33.552  18.639  13.941
65989W        W38403  23.094  27.485   4.258
65990W        W38404  30.920  34.101  14.790
65991W        W38405  17.778  29.618   4.819
65992W        W38406  29.629  35.560   1.926
65993W        W38407  40.965   2.872   3.815
65994W        W38408  42.500   3.411   3.764
65995W        W38409  20.724  30.022  13.419
65996W        W38410  23.075  21.168   4.306
65997W        W38411  20.250  41.454   2.388
65998W        W38412  40.498  30.926   4.640
65999W        W38413  17.631  38.027   1.413
66000W        W38414  36.507  21.681   3.283
66001W        W38415  40.361  13.140  10.913
66002W        W38416  29.156  41.917   3.148
66003W        W38417   3.843  29.018   0.340
66004W        W38418  34.440  36.907  10.502
66005W        W38419  31.580  28.124  12.892
66006W        W38420   6.377  25.547   0.768
66007W        W38421  18.549  41.800   4.599
66008W        W38422  43.502  29.119   1.776
66009W        W38423  18.639  13.177  14.277
66010W        W38424  23.607  26.528  13.958
66011W        W38425  35.469  44.834   1.395
66012W        W38426  40.532   9.724  10.494
66013W        W38427  36.414  20.204   1.836
66014W        W38428  23.699  40.045  11.910
66015W        W38429  12.723  21.564   2.397
66016W        W38430  31.129  37.863  14.336
66017W        W38431   4.892  15.736   1.219
66018W        W38432   4.243   1.849   4.629
66019W        W38433  30.600  38.050  14.903
66020W        W38434  26.180  32.443  14.028
66021W        W38435  43.885   2.258  13.848
66022W        W38436  23.650  23.014   1.915
66023W        W38437   7.215  19.252  10.986
66024W        W38438  26.508  11.267  12.553
66025W        W38439  15.721  12.620  14.494
66026W        W38440  28.136   7.728   1.824
66027W        W38441  41.400  22.113  13.421
66028W        W38442   0.891  10.317   0.852
66029W        W38443  27.670  32.971   2.286
66030W        W38444  15.262  34.060   2.855
66031W        W38445  15.138  36.358  12.017
66032W        W38446  40.347  22.186  14.912
66033W        W38447  44.934   8.744  11.022
66034W        W38448  24.144  13.617   3.847
66035W        W38449  19.533  24.649  12.492
66036W        W38450  11.349  33.397  13.448
66037W        W38451   6.844  28.661   3.256
66038W        W38452  29.546  16.260  13.019
66039W        W38453  21.205  10.757   0.778
66040W        W38454   1.321   9.215   3.163
66041W        W38455  35.896  13.826   4.277
66042W        W38456  35.952  33.071   0.339
66043W        W38457   3.781   3.764  14.824
66044W        W38458  39.440   7.374  10.460
66045W        W38459  39.470  40.528   1.329
66046W        W38460  36.871   8.308   3.297
66047W        W38461  27.498  40.372   0.398
66048W        W38462  28.033  14.669   4.831
66049W        W38463  15.765  29.437  13.850
66050W        W38464  20.221   8.856  13.803
66051W        W38465  43.809  14.785   2.372
66052W        W38466   9.224  28.499   3.379
66053W        W38467  37.008  36.490  14.967
66054W        W38468   9.298  33.489  14.844
66055W        W38469  20.686  38.021  13.547
66056W        W38470  19.241   2.403   1.286
66057W        W38471  35.940  10.703   2.218
66058W        W38472  33.418  14.818   1.398
66059W        W38473   8.297  18.774   3.233
66060W        W38474  35.862   9.326  11.923
66061W        W38475   3.895  11.354  11.431
66062W        W38476  20.702  25.487   1.787
66063W        W38477  11.834  12.229  13.984
66064W        W38478   3.930  42.321   1.451
66065W        W38479  40.354  15.579  14.483
66066W        W38480  44.470   0.794  10.568
66067W        W38481  10.755   5.855  14.965
66068W        W38482  31.508  22.697  10.598
66069W        W38483  19.571  15.190  14.487
66070W        W38484  20.257  24.562  13.494
66071W        W38485  31.983  34.045  14.389
66072W        W38486  14.764   0.983  14.496
66073W        W38487  40.355  34.448  13.382
66074W        W38488   5.345  41.443  13.976
66075W        W38489  25.585   9.857  11.858
66076W        W38490  36.970   1.407   2.819
66077W        W38491   1.763   9.802   3.729
66078W        W38492  41.043  37.940   3.246
66079W        W38493  11.685   6.754   1.756
66080W        W38494  41.995  38.997  12.547
66081W        W38495  37.417  40.303   2.375
66082W        W38496   7.795  24.664   1.881
66083W        W38497  11.791  22.175  12.410
66084W        W38498  25.497   6.306  12.521
66085W        W38499  24.628  31.022  13.830
66086W        W38500  43.475  32.099  10.008
66087W        W38501  37.563  42.433  11.410
66088W        W38502  31.035   1.304   0.304
66089W        W38503   8.841   5.432  11.009
66090W        W38504  38.478  18.054   2.319
66091W        W38505   2.925  44.786  12.979
66092W        W38506  40.913  42.016  11.052
66093W        W38507  40.540  26.628  10.104
66094W        W38508  24.143  10.851   4.176
66095W        W38509   4.310  26.167   4.802
66096W        W38510  27.066  37.518  13.325
66097W        W38511  19.168  20.749   2.855
66098W        W38512  19.122  43.335  14.943
66099W        W38513  25.543  27.154   2.375
66100W        W38514  24.709   7.292   3.328
66101W        W38515  32.991  38.536   4.216
66102W        W38516  40.849   1.395   2.309
66103W        W38517  26.110  10.329   0.290
66104W        W38518  34.398  34.499   3.218
66105W        W38519  44.922  29.171  12.472
66106W        W38520   3.820  26.678   1.812
66107W        W38521  21.113  40.982  11.498
66108W        W38522   6.335   2.256   0.942
66109W        W38523  18.680  25.991   0.434
66110W        W38524   4.295   7.401  12.375
66111W        W38525  34.024  32.984  13.480
66112W        W38526  28.645  10.721  13.323
66113W        W38527  30.567  22.642   3.229
66114W        W38528  24.069   1.804  10.535
66115W        W38529  17.189  42.794   1.767
66116W        W38530  40.397   1.804  12.919
66117W        W38531  23.717  15.702  12.352
66118W        W38532  40.025  33.618   0.283
66119W        W38533   7.186   3.747   0.740
66120W        W38534  43.287  28.673  14.770
66121W        W38535  27.954  11.806  12.964
66122W        W38536  19.769  15.164   0.750
66123W        W38537  20.033  29.977  11.005
66124W        W38538   7.753  22.506   1.221
66125W        W38539  41.903  36.360   4.784
66126W        W38540  13.708  13.732   1.242
66127W        W38541   4.348  18.786  14.999
66128W        W38542  39.396  21.097   4.202
66129W        W38543  43.363  14.603   4.808
66130W        W38544  23.153  28.940  11.490
66131W        W38545  31.581   3.298  10.911
66132W        W38546  19.047   5.371   1.218
66133W        W38547  25.627  33.064  14.421
66134W        W38548  37.401  31.951  12.341
66135W        W38549  40.950  26.159  14.925
66136W        W38550  38.935  13.197   0.911
66137W        W38551  18.293  36.911   1.292
66138W        W38552  33.104   4.215  11.455
66139W        W38553  11.224  31.983   5.242
66140W        W38554   1.820  22.725   1.433
66141W        W38555  33.472  16.223  13.458
66142W        W38556   1.340   9.159   2.673
66143W        W38557   3.906  35.878   3.861
66144W        W38558  23.137   8.843   3.688
66145W        W38559  34.924   5.257  14.491
66146W        W38560  36.474   5.877  14.773
66147W        W38561   8.673  17.241   2.890
66148W        W38562  38.834  26.177  12.547
66149W        W38563  23.500   8.896  13.905
66150W        W38564  42.826  25.588  12.468
66151W        W38565  17.087  42.020   2.767
66152W        W38566   5.209  15.580  11.521
66153W        W38567  42.848   3.794  10.614
66154W        W38568  14.320  24.126  12.405
66155W        W38569  38.507  13.659  10.960
66156W        W38570  43.914  30.961  14.821
66157W        W38571  43.498   1.300  13.394
66158W        W38572  26.649  17.279   2.839
66159W        W38573   7.770  33.932  13.386
66160W        W38574  13.278   2.249  13.905
66161W        W38575   7.182  41.360   3.862
66162W        W38576  33.515  30.609   2.362
66163W        W38577   8.753  28.539  14.813
66164W        W38578  24.047  32.622  10.991
66165W        W38579  23.661  36.382   1.318
66166W        W38580  44.405  23.553  10.640
66167W        W38581  12.842   5.439   0.854
66168W        W38582  32.563  36.893  10.548
66169W        W38583  32.571   7.707   3.374
66170W        W38584  33.015   4.213  13.525
66171W        W38585  10.185  13.723   1.728
66172W        W38586  41.422   6.321   2.833
66173W        W38587  36.579  41.301   1.856
66174W        W38588  28.650  12.725  14.447
66175W        W38589  22.036  31.518  12.533
66176W        W38590  25.599  40.543   2.294
66177W        W38591  15.724   9.701  10.474
66178W        W38592   2.331  41.870   5.781
66179W        W38593  30.521  43.492  11.880
66180W        W38594   9.342   2.965   0.365
66181W        W38595  24.500  44.808   2.205
66182W        W38596  44.776  33.608  10.962
66183W        W38597  23.524  25.171   3.222
66184W        W38598   1.797  37.987   2.254
66185W        W38599  10.863  18.772  12.034
66186W        W38600  33.933  34.101   1.217
66187W        W38601  24.099  36.477  11.120
66188W        W38602   4.362  20.603  13.921
66189W        W38603  36.936  24.178   1.768
66190W        W38604  43.298  26.008  11.114
66191W        W38605  25.067  44.935   9.967
66192W        W38606  23.175  29.630  13.917
66193W        W38607   4.347   3.828  11.915
66194W        W38608   8.184  29.950  11.456
66195W        W38609  43.501  23.626   2.872
66196W        W38610  37.423   1.427   2.321
66197W        W38611  39.345  37.564  12.092
66198W        W38612  25.636  15.205  12.339
66199W        W38613  24.584  15.315  13.794
66200W        W38614  25.101   8.403  13.939
66201W        W38615  10.733  39.428  14.277
66202W        W38616   3.375  35.934  11.025
66203W        W38617   0.810  22.207  10.450
66204W        W38618   5.893   2.858  10.892
66205W        W38619  20.082  26.657  12.390
66206W        W38620   7.215   5.209  12.859
66207W        W38621   1.877  17.281   3.646
66208W        W38622   7.177  13.181  10.489
66209W        W38623   6.374  24.485   1.851
66210W        W38624  19.203  22.577   3.345
66211W        W38625  19.247  29.474   1.726
66212W        W38626  32.139   5.368  11.003
66213W        W38627  39.020   9.873  13.330
66214W        W38628   0.833  24.059  10.987
66215W        W38629   9.848   2.757  10.590
66216W        W38630  41.043  15.623   3.209
66217W        W38631  17.147  21.599  14.954
66218W        W38632  31.595  22.736  13.803
66219W        W38633  12.228  19.227   0.265
66220W        W38634  12.686   9.316   4.246
66221W        W38635  44.957  18.243   1.905
66222W        W38636  25.203  26.151   1.767
66223W        W38637   4.734  13.725   2.386
66224W        W38638  13.602   0.368  13.430
66225W        W38639  40.844  35.522   3.732
66226W        W38640  41.393  16.694   0.737
66227W        W38641   0.477  12.345  13.987
66228W        W38642  15.255   9.211  14.786
66229W        W38643  21.634   2.776   2.883
66230W        W38644  21.648  24.010   1.881
66231W        W38645  23.492  31.497   4.169
66232W        W38646  44.462  11.195  13.358
66233W        W38647  24.983  10.746   0.904
66234W        W38648  23.230   4.301  13.537
66235W        W38649  14.615   4.729  14.026
66236W        W38650  40.468   0.288  13.022
66237W        W38651  30.443  29.499   4.247
66238W        W38652  22.162   1.878   2.824
66239W        W38653   7.327  26.695  13.022
66240W        W38654  38.436  42.399  14.335
66241W        W38655  26.077  16.742   0.331
66242W        W38656  13.829  32.080  11.062
66243W        W38657  24.074  38.061  14.297
66244W        W38658  23.172  41.799   3.837
66245W        W38659  24.126  23.558   4.666
66246W        W38660  19.147  33.501   4.322
66247W        W38661   2.738  26.055   1.712
66248W        W38662  39.920  25.973   4.662
66249W        W38663   9.804  18.103   3.722
66250W        W38664   9.217  41.804  11.965
66251W        W38665  39.527  40.324  13.359
66252W        W38666  26.001  12.835   4.232
66253W        W38667  11.686  12.309   3.147
66254W        W38668  12.719   8.867   3.728
66255W        W38669  38.889  38.924  13.337
66256W        W38670   5.342  17.697   3.366
66257W        W38671   6.280  34.408   2.376
66258W        W38672  27.536   3.823  10.521
66259W        W38673   2.410  44.432   4.821
66260W        W38674   5.905  15.286  10.490
66261W        W38675   1.967  24.588   0.755
66262W        W38676   0.460  14.829  11.506
66263W        W38677  12.215  32.090  11.994
66264W        W38678   1.264  27.172  13.436
66265W        W38679  29.932  31.412   2.850
66266W        W38680  32.405  42.963   3.287
66267W        W38681  39.533  38.866   0.355
66268W        W38682  29.542  42.003  14.443
66269W        W38683  22.133  11.309   0.935
66270W        W38684   0.429  27.588   3.862
66271W        W38685   2.864  17.625   2.409
66272W        W38686  26.590   0.387   2.253
66273W        W38687   3.908  22.546   3.662
66274W        W38688   9.669  10.266  11.861
66275W        W38689  10.706  42.371  13.877
66276W        W38690  10.160  24.179   1.732
66277W        W38691  25.500   1.931  14.010
66278W        W38692   8.341   7.758  12.027
66279W        W38693   5.372  16.232   2.718
66280W        W38694  26.962  29.004  14.504
66281W        W38695  19.155  27.655   3.278
66282W        W38696  16.616  14.104  10.611
66283W        W38697  28.630   2.239   4.724
66284W        W38698  30.588  11.859   4.345
66285W        W38699  39.898  14.229   0.273
66286W        W38700   0.928  35.550   0.349
66287W        W38701  19.594  32.621   2.691
66288W        W38702  40.512  33.504  11.068
66289W        W38703  21.170  22.163  10.106
66290W        W38704   3.808  21.751   4.242
66291W        W38705  37.561  12.260  12.395
66292W        W38706  12.713   1.942   1.258
66293W        W38707  40.033  22.112   3.340
66294W        W38708  24.528  13.123  10.417
66295W        W38709  12.189  38.345  11.563
66296W        W38710   4.241  34.917  12.839
66297W        W38711  25.469   8.230   3.631
66298W        W38712  32.452   6.204  10.976
66299W        W38713  31.903   7.266  14.470
66300W        W38714   2.454   9.149   4.231
66301W        W38715  22.620  42.431   3.200
66302W        W38716  35.594  18.125  13.484
66303W        W38717   6.223  12.706  14.463
66304W        W38718  34.071  20.146   4.776
66305W        W38719  19.594  34.404   0.726
66306W        W38720  28.985  18.699  14.378
66307W        W38721  35.097   5.257   2.378
66308W        W38722   0.831  30.523  12.086
66309W        W38723   2.257  15.281  12.920
66310W        W38724  14.669  17.084  12.881
66311W        W38725  14.826  28.558   3.704
66312W        W38726   8.757  43.964  11.080
66313W        W38727   5.790  29.561  12.000
66314W        W38728   6.867  37.466  12.349
66315W        W38729  34.918  30.550   4.824
66316W        W38730   9.698  44.839  12.469
66317W        W38731   1.465  33.011  14.951
66318W        W38732  17.761  43.838  10.639
66319W        W38733  23.027  30.520  11.004
66320W        W38734  29.581  32.045  10.888
66321W        W38735  42.359   0.747   1.243
66322W        W38736  19.113  31.570   0.437
66323W        W38737  37.085  37.533  14.503
66324W        W38738  39.526  38.408  11.513
66325W        W38739  30.530  23.047  10.436
66326W        W38740  11.361  25.980  14.765
66327W        W38741  42.919  26.512  10.998
66328W        W38742   5.794  14.640   0.339
66329W        W38743   6.774  43.012   1.247
66330W        W38744  30.451  20.694   3.810
66331W        W38745  19.551  13.791   1.792
66332W        W38746  25.146  23.735   1.426
66333W        W38747  17.233  32.894  10.893
66334W        W38748   0.927  37.419   0.968
66335W        W38749  31.951  36.064  13.397
66336W        W38750  41.294   3.395  11.874
66337W        W38751   1.873  33.461   1.885
66338W        W38752  21.734  32.963   4.638
66339W        W38753  14.606  35.417   0.355
66340W        W38754  38.039  26.472  10.071
66341W        W38755  37.896  34.945  11.609
66342W        W38756  14.756  30.413  10.887
66343W        W38757   5.901  24.494   3.289
66344W        W38758  10.165  29.057   9.935
66345W        W38759  22.739  27.163  11.946
66346W        W38760  24.099  12.780  13.834
66347W        W38761  41.535   9.864   4.265
66348W        W38762  21.172   4.868   0.884
66349W        W38763   7.280  18.552  11.089
66350W        W38764  42.816   4.794   1.732
66351W        W38765  20.631  18.597  14.323
66352W        W38766  25.483  21.708  14.350
66353W        W38767  14.302   2.383  14.393
66354W        W38768   7.341   2.409  14.908
66355W        W38769   5.360  28.469   1.896
66356W        W38770   0.819   0.485   2.417
66357W        W38771  14.109  25.513  12.957
66358W        W38772  16.747  28.454   1.354
66359W        W38773  34.381  34.062   2.692
66360W        W38774  37.373  23.597  13.487
66361W        W38775  29.014  36.587   2.241
66362W        W38776  44.857  28.053  11.855
66363W        W38777   6.381  15.215   4.325
66364W        W38778  27.564  10.679   4.128
66365W        W38779  29.054  38.990  12.827
66366W        W38780  16.618  29.546   4.349
66367W        W38781   1.837  24.652   2.714
66368W        W38782   0.966   7.687  11.113
66369W        W38783  33.084  40.443  12.564
66370W        W38784  35.071   4.370   3.178
66371W        W38785  36.095   4.927   1.404
66372W        W38786  25.208   2.439   4.799
66373W        W38787  10.187   0.748  13.363
66374W        W38788   9.680  30.469   0.904
66375W        W38789  22.197  32.569  12.998
66376W        W38790  22.047   0.366  13.029
66377W        W38791  38.480   8.196  12.874
66378W        W38792   7.359  16.200  12.053
66379W        W38793   3.408  12.736   9.977
66380W        W38794  21.144  22.105   0.345
66381W        W38795   6.208   8.656   2.402
66382W        W38796  32.442   9.686   1.892
66383W        W38797  26.065  40.416   4.710
66384W        W38798  39.877  11.712  12.017
66385W        W38799  26.575   1.256   1.890
66386W        W38800  32.086   9.836   4.308
66387W        W38801   1.372  23.119  12.051
66388W        W38802  15.112  24.540   4.300
66389W        W38803   7.859  26.470   0.298
66390W        W38804  17.585  21.591   0.852
66391W        W38805  14.254   0.833   1.335
66392W        W38806  25.020   7.704   2.706
66393W        W38807   5.787  17.753  11.973
66394W        W38808  21.227  21.248  14.946
66395W        W38809  24.584   4.722   9.955
66396W        W38810  26.572  35.559  14.370
66397W        W38811   8.897  44.994   3.168
66398W        W38812  43.897  20.180  14.868
66399W        W38813  21.208  12.681   9.952
66400W        W38814  43.349   0.923  13.968
66401W        W38815  20.652  14.174   5.313
66402W        W38816  33.575  44.892  11.109
66403W        W38817  29.919  14.293   1.451
66404W        W38818   2.809  30.654   2.679
66405W        W38819  28.482  28.171  12.849
66406W        W38820  27.983  24.688  13.944
66407W        W38821  33.530  33.060  12.033
66408W        W38822  23.003  18.138  10.904
66409W        W38823  27.504  33.076   0.350
66410W        W38824  13.824  21.628   1.784
66411W        W38825  15.699  18.130  11.406
66412W        W38826  17.263  38.957  14.376
66413W        W38827   3.304  25.493   0.831
66414W        W38828  23.518  37.865   0.814
66415W        W38829  26.532   7.405  14.361
66416W        W38830  15.778  37.987   4.124
66417W        W38831  19.775   0.853  10.539
66418W        W38832  43.989  20.670  12.961
66419W        W38833   2.318  33.890  13.059
66420W        W38834   2.274  44.830   0.745
66421W        W38835  37.976   0.335   2.294
66422W        W38836  24.087  11.280   2.723
66423W        W38837  15.089  42.929  12.849
66424W        W38838  12.793  29.455   3.631
66425W        W38839  26.102  17.226  10.637
66426W        W38840  40.541  14.275   2.216
66427W        W38841  27.155   4.298  14.872
66428W        W38842  21.605  39.882   2.290
66429W        W38843   7.301  12.686   2.345
66430W        W38844  13.607  10.293   1.889
66431W        W38845   1.854  12.651  10.512
66432W        W38846  35.471  22.040   2.766
66433W        W38847  39.351  33.088  12.513
66434W        W38848  14.189   3.288   2.205
66435W        W38849  27.688   3.833  11.070
66436W        W38850  41.440  43.423   1.762
66437W        W38851  32.454  38.380  11.949
66438W        W38852  12.610   8.262   1.253
66439W        W38853  17.225  42.519   3.247
66440W        W38854  39.350   9.881  10.578
66441W        W38855   8.838  23.492  13.959
66442W        W38856   1.774   8.782  14.439
66443W        W38857  28.640  20.131  12.551
66444W        W38858  41.907  13.757   4.125
66445W        W38859   7.852   1.786  10.987
66446W        W38860  17.657  19.234  12.075
66447W        W38861  10.853  36.503   3.717
66448W        W38862   6.350  12.137   2.196
66449W        W38863  17.062  41.807  14.453
66450W        W38864  14.743  15.660   1.881
66451W        W38865  44.330   8.406   4.320
66452W        W38866   3.458  36.589   2.716
66453W        W38867   4.882  30.991  13.013
66454W        W38868   7.177   4.380   4.338
66455W        W38869   4.389  12.362  14.350
66456W        W38870   6.324   7.742   1.749
66457W        W38871  17.629  35.377  11.965
66458W        W38872  26.189  28.987  14.876
66459W        W38873  38.934  23.562   0.257
66460W        W38874  39.396  42.295   0.879
66461W        W38875  20.047  21.653   4.724
66462W        W38876   5.217  41.007   4.125
66463W        W38877  39.843  44.411   2.832
66464W        W38878  37.028  14.329  13.388
66465W        W38879  30.570  16.794  13.950
66466W        W38880  16.283  39.984   1.768
66467W        W38881  24.014  43.405  14.813
66468W        W38882   1.891  27.474   1.310
66469W        W38883  21.246  17.642   1.892
66470W        W38884  15.279  24.702   0.869
66471W        W38885  29.154  28.134  11.899
66472W        W38886   0.781   4.428   4.643
66473W        W38887  23.195  19.098   4.275
66474W        W38888  15.708  34.612  14.498
66475W        W38889  21.724  18.073  11.035
66476W        W38890  39.841   6.414  14.433
66477W        W38891  10.214   1.867   1.880
66478W        W38892  16.227   3.241   3.775
66479W        W38893  21.030   1.759   0.435
66480W        W38894  26.048  14.660  14.810
66481W        W38895  30.437  27.530   0.303
66482W        W38896  41.810   8.328  14.474
66483W        W38897  28.148  37.472   9.956
66484W        W38898  30.958  13.296   0.453
66485W        W38899  11.735  41.387  10.606
66486W        W38900  25.570  33.081  12.565
66487W        W38901  20.230  13.609  12.519
66488W        W38902  26.529   5.413   0.298
66489W        W38903  28.662  22.566  12.827
66490W        W38904   4.802   4.930   2.737
66491W        W38905  39.040  29.076  13.047
66492W        W38906  15.728   9.243   3.227
66493W        W38907  41.813  15.185   0.254
66494W        W38908   0.800  35.977  10.973
66495W        W38909  20.242  44.499  10.627
66496W        W38910   8.883  19.649  13.997
66497W        W38911  26.584  21.513  10.570
66498W        W38912  25.512  35.403  14.280
66499W        W38913  36.062  31.615   0.317
66500W        W38914   2.227  25.090   2.821
66501W        W38915  44.831   5.767  12.574
66502W        W38916  41.984  32.079  11.115
66503W        W38917  30.988   6.689  12.511
66504W        W38918  11.328  23.691  10.465
66505W        W38919  42.359  17.780  11.569
66506W        W38920  42.021   3.294   0.871
66507W        W38921  23.228   0.464  13.396
66508W        W38922  15.626  30.941   4.676
66509W        W38923  15.253  44.984  12.422
66510W        W38924  41.885   1.424  11.907
66511W        W38925  14.607  15.613   3.309
66512W        W38926  37.570  17.721  11.074
66513W        W38927  29.568   8.197   3.319
66514W        W38928   6.830  42.881   2.876
66515W        W38929  11.347  19.712   3.356
66516W        W38930   4.344   1.471   1.810
66517W        W38931  44.423  31.417  13.327
66518W        W38932   1.253  20.562  11.591
66519W        W38933  16.683  28.141  12.565
66520W        W38934  28.054   1.356  10.603
66521W        W38935  40.418  18.137   0.809
66522W        W38936   1.889  14.302  13.510
66523W        W38937   6.841  33.419   2.400
66524W        W38938  32.555  10.137  13.444
66525W        W38939  18.720  42.421  14.902
66526W        W38940  38.046   6.769   3.639
66527W        W38941  41.503  15.697  12.974
66528W        W38942  11.697   3.434   2.689
66529W        W38943  10.788  28.139  14.902
66530W        W38944  22.052  23.034   2.857
66531W        W38945   5.696  34.951  11.423
66532W        W38946  17.169   5.320   1.342
66533W        W38947  19.568  31.504   0.454
66534W        W38948  38.930   6.888  14.382
66535W        W38949  33.396  33.521  11.577
66536W        W38950  37.451  24.617   3.327
66537W        W38951  41.435  24.680  11.447
66538W        W38952  36.480  21.084   4.744
66539W        W38953   6.856  31.911   4.256
66540W        W38954   4.884   0.877  12.075
66541W        W38955  31.623  31.593  11.492
66542W        W38956  22.670  42.782   4.810
66543W        W38957   3.352  33.077   4.310
66544W        W38958  42.457  12.798   0.340
66545W        W38959   0.873   9.788  14.938
66546W        W38960   7.785   4.323   3.264
66547W        W38961  34.388  19.182  13.001
66548W        W38962   2.786   1.732  11.115
66549W        W38963  22.735  26.517  13.347
66550W        W38964  30.507   2.829   3.841
66551W        W38965   2.374  26.004   1.728
66552W        W38966   0.914   2.738   2.817
66553W        W38967  15.718   6.276   1.777
66554W        W38968  37.486  37.930  12.044
66555W        W38969  27.615  37.901   3.635
66556W        W38970  21.204  23.226  11.382
66557W        W38971  19.076  36.541   3.328
66558W        W38972  40.824  35.089   2.294
66559W        W38973  27.099  26.073  14.434
66560W        W38974  31.068  11.231  11.551
66561W        W38975  29.158  33.037  12.438
66562W        W38976  35.375  11.352  11.396
66563W        W38977  13.822  15.289   4.213
66564W        W38978  12.321  28.567  11.544
66565W        W38979  17.105  27.143  13.792
66566W        W38980   5.701   7.819   0.864
66567W        W38981   1.307   8.750  13.823
66568W        W38982  25.536  18.209   3.265
66569W        W38983  42.339   9.662   1.826
66570W        W38984  40.889   7.406  12.023
66571W        W38985  32.506  43.339  12.562
66572W        W38986  12.263   7.819   4.142
66573W        W38987   5.370  12.738  14.959
66574W        W38988   3.759  42.441   4.121
66575W        W38989  37.851  44.502   0.432
66576W        W38990  23.683   5.815  14.995
66577W        W38991  34.395   2.916   0.881
66578W        W38992  36.552  19.224   1.773
66579W        W38993  27.536  25.505   1.246
66580W        W38994  24.499   2.450   5.185
66581W        W38995  31.582  25.106  11.949
66582W        W38996  10.280  28.958  12.033
66583W        W38997  37.481  40.502  11.473
66584W        W38998  36.380  14.594   1.895
66585W        W38999  25.575  42.017  12.908
66586W        W39000  26.531  36.911   4.321
66587W        W39001  13.603   3.894  12.069
66588W        W39002  28.581  43.343   3.710
66589W        W39003  15.184  30.538   0.460
66590W        W39004  36.562  44.470  11.597
66591W        W39005   2.860  32.073   9.982
66592W        W39006  15.097  19.140   5.155
66593W        W39007   2.371  33.945   0.257
66594W        W39008   7.328  23.571  11.403
66595W        W39009  36.016  21.525   9.617
66596W        W39010  36.857  41.037  12.030
66597W        W39011   0.359  20.201  10.623
66598W        W39012   2.852  29.019   0.815
66599W        W39013  33.581  38.421   4.121
66600W        W39014  16.799  18.612  14.513
66601W        W39015  13.166   9.713  12.383
66602W        W39016  10.341  15.652  10.118
66603W        W39017  34.984  23.203   5.787
66604W        W39018  38.338  18.754  11.082
66605W        W39019  43.448   0.327  12.885
66606W        W39020   7.785  38.327  10.992
66607W        W39021  16.222  27.021   1.883
66608W        W39022  34.493  41.041  10.641
66609W        W39023  43.912  31.445  13.824
66610W        W39024   5.887  37.041  14.870
66611W        W39025   6.369  28.441   2.333
66612W        W39026  25.208  21.190  11.080
66613W        W39027   0.299  36.374   3.813
66614W        W39028  13.242  26.157  14.827
66615W        W39029  18.128  31.921  12.025
66616W        W39030  24.489  38.369  13.964
66617W        W39031  40.904  18.685   0.952
66618W        W39032  39.479   6.762  14.447
66619W        W39033   5.198   3.836  14.870
66620W        W39034  43.343  18.695   0.287
66621W        W39035  28.679   4.401   0.779
66622W        W39036  29.460  18.768   5.142
66623W        W39037   0.336  31.030  11.036
66624W        W39038  17.113  23.510   3.281
66625W        W39039   5.929  37.372   2.685
66626W        W39040  32.107   1.872  10.082
66627W        W39041  26.551  31.617   2.665
66628W        W39042  17.260  42.854  14.382
66629W        W39043   0.266   3.281  13.825
66630W        W39044  35.484  10.152   2.399
66631W        W39045  39.449  19.573  13.376
66632W        W39046  29.015  23.999  13.047
66633W        W39047  14.339  36.440  11.574
66634W        W39048  11.233  21.248   0.750
66635W        W39049  24.611  14.164   1.739
66636W        W39050  22.069  31.631   2.759
66637W        W39051  28.496  22.678   0.323
66638W        W39052   2.837  32.991   1.220
66639W        W39053  18.559  31.453  11.535
66640W        W39054  30.445  13.663  12.023
66641W        W39055   8.881   3.746   0.407
66642W        W39056  20.582  33.093  14.774
66643W        W39057  26.180  42.392   4.824
66644W        W39058  19.559   4.799  10.902
66645W        W39059  20.035  28.550   2.768
66646W        W39060   1.731  34.407  14.458
66647W        W39061  34.059  45.000   0.954
66648W        W39062   6.922   5.800   0.338
66649W        W39063  42.952  28.930  13.413
66650W        W39064  38.053  40.984  11.077
66651W        W39065  36.511   9.671  12.461
66652W        W39066   9.885  44.791  13.348
66653W        W39067  17.284   5.367   0.430
66654W        W39068  21.076   4.412   0.787
66655W        W39069  41.908  22.634   0.415
66656W        W39070  28.163  25.975   4.229
66657W        W39071   5.437  27.154   2.334
66658W        W39072  21.617  13.331   3.670
66659W        W39073  44.462  28.135   2.336
66660W        W39074  18.570  21.521  14.824
66661W        W39075   1.779  37.528  12.976
66662W        W39076  41.910   6.295   1.269
66663W        W39077  41.401  28.133  11.427
66664W        W39078  17.199  36.401   2.381
66665W        W39079   2.869  20.169  11.600
66666W        W39080  28.051  16.777  12.068
66667W        W39081  24.481  41.841   0.910
66668W        W39082  10.188   6.793  14.470
66669W        W39083  24.575  38.918  12.915
66670W        W39084  12.202  33.438  14.361
66671W        W39085   5.787  25.676   3.655
66672W        W39086   3.739  40.867  13.492
66673W        W39087  42.312  42.030   2.790
66674W        W39088  14.716  22.657   4.758
66675W        W39089  25.037  42.298  12.055
66676W        W39090  37.883   4.303  11.855
66677W        W39091  20.057  34.889  10.564
66678W        W39092   2.411   6.802   1.729
66679W        W39093  15.181  24.496   3.735
66680W        W39094  12.698  23.109  13.915
66681W        W39095  12.330  34.986  11.113
66682W        W39096  10.635  35.488  13.974
66683W        W39097  16.140  26.519   1.406
66684W        W39098   7.240   8.708  11.091
66685W        W39099   5.769  28.127   1.420
66686W        W39100  11.224  11.295  11.538
66687W        W39101   9.155   5.737  10.495
66688W        W39102  38.398  44.423  12.061
66689W        W39103  29.094   0.795   3.752
66690W        W39104   3.253  35.997   4.774
66691W        W39105  10.747  33.432   1.811
66692W        W39106  16.618   5.381   3.368
66693W        W39107  16.578  29.638   0.266
66694W        W39108  40.423  42.947   0.873
66695W        W39109  40.949   3.790   1.793
66696W        W39110  21.030   5.862   9.948
66697W        W39111   3.251  39.996  11.911
66698W        W39112  26.060   9.273   4.300
66699W        W39113  30.041  43.421   2.204
66700W        W39114  10.823  13.110  11.376
66701W        W39115  29.116   2.467  10.574
66702W        W39116  20.250  36.843  11.415
66703W        W39117  22.006   1.747   1.803
66704W        W39118  40.847  10.819   3.218
66705W        W39119   6.309   1.312   2.242
66706W        W39120  14.313  11.293   2.699
66707W        W39121   2.939  10.688  14.764
66708W        W39122  33.000  11.354  10.571
66709W        W39123  37.350  43.019  12.902
66710W        W39124  13.781  34.980   1.804
66711W        W39125  14.589  39.006  10.902
66712W        W39126  35.486  39.535   3.731
66713W        W39127   6.427   7.816   4.779
66714W        W39128  22.650   1.813  12.402
66715W        W39129  40.867   1.390   0.914
66716W        W39130  34.096  23.198   3.686
66717W        W39131  25.611   4.741   2.753
66718W        W39132  35.981  15.118   3.750
66719W        W39133   9.882  10.747   3.745
66720W        W39134   9.782   7.756   3.728
66721W        W39135  23.214  28.171   4.790
66722W        W39136  32.444  19.714  12.340
66723W        W39137   7.811  15.203  13.912
66724W        W39138  24.620  27.106  13.328
66725W        W39139  38.513   4.239  11.560
66726W        W39140  39.008   4.911  12.444
66727W        W39141  27.503  38.887  10.474
66728W        W39142  29.553  32.596  10.476
66729W        W39143  42.473  16.290  10.475
66730W        W39144   1.827  18.250  12.961
66731W        W39145  44.864  10.873   3.767
66732W        W39146  11.845  17.157  14.364
66733W        W39147  41.871  43.293  13.483
66734W        W39148   5.754  18.685   1.440
66735W        W39149  23.594   2.344  11.921
66736W        W39150  15.119  39.430   1.895
66737W        W39151   2.922  43.931   3.206
66738W        W39152  27.181   3.755   0.837
66739W        W39153  24.523   5.252  10.460
66740W        W39154  11.140   9.379  12.014
66741W        W39155   6.351  13.714  11.599
66742W        W39156  32.986  36.551   2.867
66743W        W39157  26.988  43.014  13.522
66744W        W39158  39.957  24.581   4.313
66745W        W39159  41.973  36.535  11.961
66746W        W39160  36.888   4.238   4.233
66747W        W39161  22.022  19.273   0.324
66748W        W39162  32.955   0.973  13.871
66749W        W39163  37.026  32.941  14.958
66750W        W39164  17.247  32.529  11.053
66751W        W39165  35.451  16.207  10.941
66752W        W39166  10.763   2.950   0.339
66753W        W39167   2.449   0.464  14.302
66754W        W39168  42.839  27.047  13.845
66755W        W39169  25.185  27.063   4.340
66756W        W39170  25.987  15.104  13.885
66757W        W39171   6.846  41.926   2.269
66758W        W39172  33.478  15.083   4.645
66759W        W39173  25.536  37.052  11.511
66760W        W39174  35.594  44.291  13.038
66761W        W39175  43.898  42.516   0.825
66762W        W39176   1.822   7.298  14.369
66763W        W39177  39.447  40.897   3.865
66764W        W39178  22.212  25.056   2.867
66765W        W39179  41.039  41.855   4.253
66766W        W39180  31.936  37.977   4.731
66767W        W39181   0.795  30.595  12.548
66768W        W39182  35.521   3.846   3.710
66769W        W39183  30.027  21.731  14.318
66770W        W39184  25.590   4.373  13.374
66771W        W39185   0.856  14.106  14.011
66772W        W39186  38.031  19.151   1.751
66773W        W39187  16.235  44.481   3.790
66774W        W39188   9.278   4.368   3.202
66775W        W39189  13.680  28.989   3.831
66776W        W39190  41.362  44.423  12.494
66777W        W39191  28.574  23.502   4.263
66778W        W39192   0.387  30.035  11.094
66779W        W39193  12.748   4.384  13.410
66780W        W39194  30.497   3.943  13.511
66781W        W39195   3.260  25.645   1.765
66782W        W39196  38.518  27.462  10.428
66783W        W39197  13.763  15.736  12.498
66784W        W39198   4.747  35.963   2.306
66785W        W39199  15.637  24.122  11.532
66786W        W39200  32.121   0.491   2.897
66787W        W39201  43.009  38.339  13.444
66788W        W39202  34.488   5.717  14.916
66789W        W39203  31.582   0.258  14.477
66790W        W39204  35.531  38.415  14.377
66791W        W39205  12.745  25.583  13.973
66792W        W39206   9.198   4.846  14.373
66793W        W39207   4.335  19.693   2.665
66794W        W39208  27.036  16.722   0.748
66795W        W39209  18.169  35.006   2.295
66796W        W39210   0.305  22.718  13.053
66797W        W39211  13.827  36.371  10.894
66798W        W39212   2.856   6.766   1.397
66799W        W39213  29.155   0.765  10.577
66800W        W39214   7.776   4.830  12.529
66801W        W39215   4.210  30.501   0.290
66802W        W39216  16.661   4.883  12.020
66803W        W39217  43.296  43.961  10.490
66804W        W39218   6.203  37.899   2.367
66805W        W39219   3.406  20.058   2.361
66806W        W39220  27.468   6.212  14.887
66807W        W39221  23.707  33.923   4.707
66808W        W39222  11.359  39.505   0.778
66809W        W39223  27.148  15.749   4.621
66810W        W39224  35.488  43.902   1.891
66811W        W39225  24.593  21.674   1.415
66812W        W39226  38.852  18.238   2.813
66813W        W39227  36.363  40.812  12.946
66814W        W39228  31.012   6.854   1.913
66815W        W39229  24.050  29.017  11.438
66816W        W39230  13.191  33.110   2.358
66817W        W39231  29.165  21.571  11.124
66818W        W39232  23.560  35.436  14.389
66819W        W39233  32.581  31.552   4.768
66820W        W39234  31.960  29.963  14.920
66821W        W39235  42.006  36.455  12.867
66822W        W39236   4.370  42.840   2.178
66823W        W39237  37.335  29.997   0.800
66824W        W39238  21.074  25.994   5.200
66825W        W39239  30.453  21.757   3.834
66826W        W39240  34.461  16.673   1.768
66827W        W39241  38.842  19.227   4.621
66828W        W39242  39.957  37.568   3.249
66829W        W39243   1.446  19.266  12.393
66830W        W39244  25.560   3.804   3.828
66831W        W39245  12.620   4.236  11.380
66832W        W39246  13.793  32.494  11.577
66833W        W39247   3.716  13.165   5.242
66834W        W39248  28.047  44.884  11.514
66835W        W39249  43.373  12.738   2.306
66836W        W39250  26.672  43.320   3.191
66837W        W39251  41.390  11.688  12.984
66838W        W39252  34.052   8.833  11.938
66839W        W39253  28.987  34.597  12.506
66840W        W39254  20.620   5.369   4.606
66841W        W39255  25.124   6.699  12.033
66842W        W39256  23.067   0.844  11.106
66843W        W39257  14.765  34.548  11.929
66844W        W39258   1.895  12.223  14.368
66845W        W39259   9.292  10.870   0.285
66846W        W39260  10.655   7.304  13.876
66847W        W39261  26.021  14.312   0.311
66848W        W39262  32.408   5.304  11.463
66849W        W39263  42.822  12.640   2.358
66850W        W39264  32.892  29.075  12.558
66851W        W39265  40.904  41.493   1.839
66852W        W39266   5.711  25.010  13.499
66853W        W39267  10.640   9.811   0.924
66854W        W39268  35.077  27.170   1.344
66855W        W39269   2.746  27.584   4.304
66856W        W39270  37.524  19.651  12.361
66857W        W39271  32.436   5.881   1.305
66858W        W39272  11.245  29.067   3.358
66859W        W39273   9.692  34.597   0.479
66860W        W39274  31.086  16.214  12.058
66861W        W39275  31.500  28.113  14.776
66862W        W39276  12.734  14.606   1.753
66863W        W39277  21.578  18.777  13.820
66864W        W39278  40.964  34.103  14.010
66865W        W39279  20.093  39.024   2.297
66866W        W39280  38.379  15.636   2.791
66867W        W39281  16.224   9.659  12.095
66868W        W39282  33.103  19.108   4.611
66869W        W39283  10.354  13.312   0.760
66870W        W39284  32.989  41.969  13.908
66871W        W39285  16.104  43.406   2.721
66872W        W39286  10.279  31.089  12.953
66873W        W39287  39.053  38.354  11.031
66874W        W39288  27.475   4.726  14.820
66875W        W39289  37.844  20.668   0.861
66876W        W39290  33.031  15.275  14.758
66877W        W39291  14.707  12.757  13.403
66878W        W39292  18.138  32.475   3.860
66879W        W39293  35.534   8.839   1.876
66880W        W39294  23.557   8.199  12.569
66881W        W39295  42.505  15.651   2.885
66882W        W39296  29.157  43.306   1.792
66883W        W39297  32.397  14.714  13.007
66884W        W39298  27.462  32.567   4.636
66885W        W39299  22.244  37.867  13.818
66886W        W39300   7.849   3.254  11.949
66887W        W39301  24.483  17.613  11.611
66888W        W39302  42.884  11.811  11.437
66889W        W39303  38.850   3.227   0.482
66890W        W39304  21.664  26.176   0.758
66891W        W39305  43.429  35.458  12.553
66892W        W39306   6.222  44.809  12.959
66893W        W39307  14.230  31.976   4.192
66894W        W39308  27.065  33.451   3.789
66895W        W39309  38.550   1.394  13.316
66896W        W39310  10.749  18.720   3.315
66897W        W39311  35.531  17.282   1.845
66898W        W39312  23.023  13.618  10.501
66899W        W39313  20.761  40.041   0.469
66900W        W39314   4.751   4.367   1.923
66901W        W39315  44.373  42.808   9.963
66902W        W39316  10.242  39.440  14.888
66903W        W39317  31.546  12.717   1.445
66904W        W39318  31.482  38.826  13.063
66905W        W39319  39.976  31.519   4.205
66906W        W39320  17.751  13.766   4.632
66907W        W39321  40.387   7.297   0.398
66908W        W39322  21.163   7.685  11.994
66909W        W39323  37.439  33.996   4.643
66910W        W39324  34.442  11.287  12.916
66911W        W39325  41.312  23.512   2.242
66912W        W39326  27.108   2.337   3.341
66913W        W39327  19.743  14.724   4.759
66914W        W39328  29.667  30.979  14.483
66915W        W39329  42.394  30.507  13.002
66916W        W39330  11.847  17.235   4.788
66917W        W39331  12.625  25.991   3.679
66918W        W39332  17.305  15.115   3.681
66919W        W39333  18.124  22.072  13.488
66920W        W39334   6.272   5.359   4.174
66921W        W39335  35.593   7.889  12.577
66922W        W39336  33.452  34.918   5.092
66923W        W39337  19.168  28.098  13.026
66924W        W39338  33.547  33.393  14.957
66925W        W39339  14.676  13.794   1.877
66926W        W39340  17.221  40.451   0.318
66927W        W39341  24.562  26.604  14.874
66928W        W39342  25.989  30.039  12.438
66929W        W39343  32.461  44.900   1.851
66930W        W39344  25.011  13.342  11.982
66931W        W39345  18.228  24.548   1.221
66932W        W39346  25.662  38.343  11.886
66933W        W39347  12.846   6.769   5.734
66934W        W39348  16.738  43.327   4.599
66935W        W39349  14.594   7.743   2.750
66936W        W39350  22.224  29.076  12.825
66937W        W39351   3.290  38.552   0.299
66938W        W39352  31.933  37.992  14.818
66939W        W39353  43.456  17.135   0.360
66940W        W39354  40.387  10.840  12.063
66941W        W39355  15.298  30.045  14.446
66942W        W39356  27.139  17.589  12.462
66943W        W39357  16.214  21.211  14.941
66944W        W39358  36.865  26.609   1.720
66945W        W39359  29.595   6.919  12.886
66946W        W39360  44.493  32.984   1.290
66947W        W39361  28.614  25.500   4.184
66948W        W39362  19.100  32.052   0.285
66949W        W39363  38.906  14.646   9.975
66950W        W39364  10.209  21.020  14.999
66951W        W39365  39.837  39.446   4.157
66952W        W39366   9.286  16.713   1.753
66953W        W39367   0.906   5.394   3.712
66954W        W39368   8.386   6.792   1.281
66955W        W39369   2.776  26.504   4.268
66956W        W39370  33.598  43.476   1.337
66957W        W39371  33.535  31.623  13.812
66958W        W39372  39.985  29.539  10.549
66959W        W39373  12.842  22.251   1.766
66960W        W39374  12.713   6.921  13.540
66961W        W39375  16.193  11.779   0.809
66962W        W39376  29.450  37.497  13.483
66963W        W39377   7.317  15.164   3.680
66964W        W39378  44.392  23.730   4.740
66965W        W39379   9.718  15.115  12.436
66966W        W39380  40.976  44.380   1.263
66967W        W39381   3.850  12.148  14.934
66968W        W39382  33.398  30.498   3.720
66969W        W39383  36.035  38.017   3.273
66970W        W39384  29.138  16.173   4.730
66971W        W39385  35.944  12.612  13.850
66972W        W39386  38.408  12.243  12.424
66973W        W39387  26.689  20.058   3.146
66974W        W39388   2.316  31.914   1.928
66975W        W39389   3.863   3.363   2.400
66976W        W39390  20.709  44.295  13.481
66977W        W39391  34.517  25.048  10.424
66978W        W39392  24.190  40.453   5.094
66979W        W39393  38.946  12.287  12.463
66980W        W39394  35.915   7.710  11.077
66981W        W39395  27.170  32.609   1.437
66982W        W39396  15.740  44.940  11.437
66983W        W39397  31.010   1.295   4.152
66984W        W39398  10.704  39.831  12.580
66985W        W39399  35.569  29.136   1.317
66986W        W39400  16.603  36.473  14.476
66987W        W39401  12.614   3.216   1.378
66988W        W39402  28.544   8.692   1.352
66989W        W39403   3.826  34.585   2.270
66990W        W39404  26.500  22.725   1.863
66991W        W39405  11.776  43.428   4.671
66992W        W39406  29.479  27.009  13.334
66993W        W39407   2.892   1.835  14.475
66994W        W39408  24.981  18.586  12.890
66995W        W39409  11.789  10.727   2.272
66996W        W39410  39.427  39.355   2.786
66997W        W39411  33.441  14.636  13.354
66998W        W39412   4.945   8.298  11.541
66999W        W39413  33.903  34.917   2.672
67000W        W39414   9.367  17.116   0.280
67001W        W39415  44.875  41.372   1.852
67002W        W39416   5.296  30.958  10.515
67003W        W39417  16.283  26.506  14.012
67004W        W39418  29.005  27.074  12.545
67005W        W39419  39.336  37.830  11.449
67006W        W39420  43.775   8.171  11.463
67007W        W39421  43.817  17.239  14.825
67008W        W39422  32.012  18.575  14.387
67009W        W39423  40.348   6.406  13.890
67010W        W39424   6.324  21.688  14.956
67011W        W39425   4.354   7.234   3.696
67012W        W39426   6.841  14.691  11.004
67013W        W39427  12.636  11.625  14.960
67014W        W39428  26.039   1.477   5.734
67015W        W39429  23.057  33.111  13.474
67016W        W39430  41.318  18.675  14.999
67017W        W39431  31.921  40.053  11.007
67018W        W39432  20.112  33.029   0.437
67019W        W39433   2.726  39.881  14.427
67020W        W39434  36.875  14.232   3.684
67021W        W39435  20.528   9.737  14.391
67022W        W39436  11.338  16.575  14.507
67023W        W39437   3.241   1.411  14.446
67024W        W39438   1.293   0.270   3.371
67025W        W39439  15.230  11.181   3.154
67026W        W39440  36.032  15.785   3.690
67027W        W39441  30.510   7.889  14.840
67028W        W39442  41.834  39.946  11.938
67029W        W39443  20.174   4.863  13.847
67030W        W39444  40.898  31.019   4.351
67031W        W39445  18.163   6.286  11.428
67032W        W39446  28.143  33.565  12.410
67033W        W39447  15.119  39.038   0.245
67034W        W39448  36.087   3.329   4.775
67035W        W39449  18.764  35.059   1.912
67036W        W39450  27.155  31.579   4.796
67037W        W39451  36.491  19.667  10.145
67038W        W39452  10.163  26.049   0.332
67039W        W39453   3.295  35.533  14.870
67040W        W39454   3.933   1.946   0.484
67041W        W39455   0.289  40.023   2.806
67042W        W39456  24.095  29.130   2.854
67043W        W39457   0.889   2.342   1.903
67044W        W39458   0.881   3.331  13.034
67045W        W39459  29.936   3.393  12.427
67046W        W39460  36.479  41.946   3.764
67047W        W39461  30.615  11.357  14.803
67048W        W39462  43.349  12.832  14.801
67049W        W39463  27.038   8.655  10.466
67050W        W39464  27.969  11.850   3.838
67051W        W39465  23.112  31.544  14.334
67052W        W39466  21.155  19.778   3.839
67053W        W39467  27.601  12.128  11.127
67054W        W39468  41.453   5.779  14.840
67055W        W39469  15.722   8.654  13.342
67056W        W39470  43.884  11.285   0.308
67057W        W39471  19.055  24.002   4.659
67058W        W39472  15.164  27.635  12.469
67059W        W39473  24.217  13.632   2.219
67060W        W39474  21.655  14.726  10.972
67061W        W39475  31.547  31.453  12.964
67062W        W39476  18.134   9.746   1.420
67063W        W39477  29.099  38.059   4.294
67064W        W39478   8.684  18.177  12.908
67065W        W39479  15.785   8.311  13.946
67066W        W39480  14.667  16.222  11.975
67067W        W39481  36.890  17.254  12.076
67068W        W39482  29.965  10.308  13.841
67069W        W39483  38.357  31.623   3.338
67070W        W39484  43.877   9.315   2.310
67071W        W39485   4.334  15.693   1.294
67072W        W39486   3.711  22.019   2.272
67073W        W39487  16.246  35.521  11.537
67074W        W39488  11.705   1.919  11.117
67075W        W39489  16.127   7.743   2.696
67076W        W39490  32.043   4.342  11.108
67077W        W39491  33.399  23.056  14.491
67078W        W39492  31.585  33.905  14.361
67079W        W39493  32.624  36.860   4.805
67080W        W39494  30.540  28.083   5.159
67081W        W39495  16.601  19.071  10.065
67082W        W39496  33.995  14.714   4.257
67083W        W39497  16.074  18.147   4.789
67084W        W39498   4.211   6.834  13.867
67085W        W39499  21.551   8.328  14.338
67086W        W39500  18.164  31.532  12.063
67087W        W39501  32.968  13.189  11.899
67088W        W39502  36.981  42.899  12.851
67089W        W39503  27.959  37.498  14.997
67090W        W39504  19.146  33.935  14.502
67091W        W39505  16.616  16.174   0.344
67092W        W39506  37.573   1.266  14.503
67093W        W39507  35.091  20.523   3.686
67094W        W39508  25.986  21.034   0.373
67095W        W39509  13.314  10.164   4.135
67096W        W39510  16.300   1.285   2.215
67097W        W39511   6.889  37.489   1.843
67098W        W39512  17.649  40.356  13.346
67099W        W39513  35.513  27.692  11.383
67100W        W39514  11.711  38.013  13.056
67101W        W39515   6.816  21.598  13.518
67102W        W39516  19.165  11.340  12.535
67103W        W39517  11.333  28.117  11.545
67104W        W39518  26.615   9.395  12.060
67105W        W39519  34.098   9.720  14.324
67106W        W39520  42.804  32.610  12.458
67107W        W39521  16.086  30.658  11.977
67108W        W39522   9.353   1.776  13.908
67109W        W39523  38.545   3.274  13.475
67110W        W39524  11.706  19.736   0.949
67111W        W39525  11.367  31.937   4.173
67112W        W39526  42.955  40.525   3.165
67113W        W39527  31.439  23.691  11.118
67114W        W39528  13.626  37.907  13.539
67115W        W39529  15.173   1.890   3.187
67116W        W39530  44.938  12.204  13.543
67117W        W39531   9.230  29.449  13.506
67118W        W39532   4.215  34.012   1.267
67119W        W39533  27.099  21.705   1.259
67120W        W39534  40.832   9.322   0.744
67121W        W39535   4.420   1.793  10.420
67122W        W39536  22.083  43.319   4.340
67123W        W39537   0.285   3.273   2.722
67124W        W39538  24.147  27.587  11.581
67125W        W39539  28.092  23.494   0.429
67126W        W39540   8.312  13.306  11.865
67127W        W39541  41.335   9.776  11.905
67128W        W39542  25.987  14.312   3.345
67129W        W39543  25.504  10.780   3.702
67130W        W39544   6.191  12.643   1.722
67131W        W39545  32.471  32.564  14.926
67132W        W39546   5.831   0.286   2.770
67133W        W39547  21.110   8.372   3.819
67134W        W39548  41.030  14.251  14.831
67135W        W39549  21.256  26.588   1.809
67136W        W39550  17.081  13.116  11.589
67137W        W39551   5.419  34.889   0.764
67138W        W39552  27.574  15.803   3.748
67139W        W39553  23.510   8.201  10.989
67140W        W39554  10.862  27.660  14.464
67141W        W39555   5.803  28.158   2.236
67142W        W39556  16.790  18.557  10.533
67143W        W39557  12.836  30.994  14.887
67144W        W39558   1.319  16.788  12.397
67145W        W39559  19.284  22.724  12.922
67146W        W39560  14.784  42.926  10.020
67147W        W39561  30.043   5.303  13.971
67148W        W39562  26.603  17.796   0.312
67149W        W39563  23.708  12.314  13.008
67150W        W39564   5.750  42.839   1.235
67151W        W39565   4.395  42.343   5.690
67152W        W39566  21.026  43.365   3.698
67153W        W39567  20.665  39.339   3.156
67154W        W39568  33.482  14.104   3.350
67155W        W39569  36.965  43.844   2.365
67156W        W39570   5.365  24.557  10.491
67157W        W39571  30.986  24.531   3.693
67158W        W39572  22.568  21.561   2.406
67159W        W39573  15.100  34.944   1.933
67160W        W39574  13.337  26.997   3.269
67161W        W39575  42.815  22.242   1.228
67162W        W39576  29.613  20.071   1.842
67163W        W39577  32.060   2.453   3.762
67164W        W39578  12.253  37.086   4.626
67165W        W39579  33.944  10.815  11.091
67166W        W39580   7.758   1.914   3.823
67167W        W39581   9.736  39.384   1.289
67168W        W39582   7.685   6.837   0.417
67169W        W39583  15.198  13.620  12.037
67170W        W39584  10.673  31.899   2.740
67171W        W39585  23.200   0.388   1.268
67172W        W39586  10.197  36.437   3.287
67173W        W39587  32.000  20.270  11.944
67174W        W39588  25.511  27.021  13.940
67175W        W39589   9.824   3.824   2.324
67176W        W39590  33.036  22.084  14.768
67177W        W39591  26.628  16.665   4.264
67178W        W39592   6.263  22.685  10.038
67179W        W39593   9.762  33.021   3.710
67180W        W39594  18.693  44.303   1.714
67181W        W39595  15.786  31.911  11.032
67182W        W39596  23.986  31.040  13.053
67183W        W39597  10.349   1.461  12.981
67184W        W39598  11.206   8.341  10.475
67185W        W39599  19.209   2.322   3.180
67186W        W39600  32.592  39.867   1.732
67187W        W39601   3.297  19.232  13.815
67188W        W39602  35.570  18.573   2.410
67189W        W39603  38.466  30.948   1.384
67190W        W39604   6.195  20.135   3.869
67191W        W39605  28.984  20.766   3.761
67192W        W39606  27.192  28.021   4.162
67193W        W39607   0.879  28.929   3.292
67194W        W39608  41.414  37.434   3.672
67195W        W39609  35.411  27.028   1.364
67196W        W39610  33.512   4.391  13.473
67197W        W39611  19.215  26.575   3.779
67198W        W39612  16.084  26.506  14.275
67199W        W39613   4.356   7.371   0.359
67200W        W39614   4.348  33.986   0.793
67201W        W39615   7.791  25.078   1.434
67202W        W39616  17.700   0.984  10.909
67203W        W39617  36.871  17.573  13.395
67204W        W39618  44.403  27.991  11.577
67205W        W39619  21.050  20.711  12.485
67206W        W39620   5.700  21.114   1.695
67207W        W39621  34.864   7.187  10.576
67208W        W39622   1.304  25.097  12.096
67209W        W39623  31.412  26.486   3.352
67210W        W39624   4.749  19.077  12.347
67211W        W39625  23.533  19.281  11.524
67212W        W39626  23.549  36.889   2.679
67213W        W39627  36.047   6.257   5.093
67214W        W39628   2.271   5.434  12.064
67215W        W39629  35.960   6.407  14.471
67216W        W39630  11.229  43.006   0.956
67217W        W39631   3.871   1.322  12.428
67218W        W39632  35.952  38.899  12.504
67219W        W39633  43.795   9.850   1.856
67220W        W39634  37.579  26.999  11.486
67221W        W39635  27.475  12.326   4.350
67222W        W39636   8.793  32.084  11.591
67223W        W39637  34.420  18.676   0.917
67224W        W39638  36.943  16.129  14.313
67225W        W39639   7.234  27.987   1.921
67226W        W39640  26.169  17.181  14.921
67227W        W39641  25.965   4.717   3.255
67228W        W39642  25.998  25.178  11.403
67229W        W39643  10.731  33.893   4.703
67230W        W39644  19.604  31.455  12.016
67231W        W39645  24.718  34.540   3.257
67232W        W39646  37.010  25.035  14.965
67233W        W39647  38.922   8.283   0.272
67234W        W39648  35.408  25.963   4.255
67235W        W39649  20.604  44.435  10.477
67236W        W39650  33.442  19.562   4.792
67237W        W39651   3.793  24.563  13.824
67238W        W39652  21.646   5.727   4.653
67239W        W39653  44.003  15.250  14.370
67240W        W39654  18.680  33.980   1.918
67241W        W39655  36.919  23.705   2.307
67242W        W39656  40.428  27.126   0.803
67243W        W39657  10.345  12.352   1.836
67244W        W39658  41.430  39.387   3.674
67245W        W39659  14.792  20.593  11.041
67246W        W39660  34.918  17.683   3.810
67247W        W39661   4.812  38.549   4.245
67248W        W39662  30.942  25.671  12.438
67249W        W39663   0.290  38.983  13.321
67250W        W39664  43.832  17.760   1.847
67251W        W39665  21.255  13.646   2.248
67252W        W39666   7.172  16.594  11.861
67253W        W39667   6.331   9.323   1.227
67254W        W39668  18.574  19.668   2.322
67255W        W39669  31.031  41.967  13.024
67256W        W39670  26.592  30.094   4.686
67257W        W39671  32.094  17.778  10.899
67258W        W39672  13.253   2.944  11.392
67259W        W39673   2.266   6.843  10.951
67260W        W39674  28.611  16.605   3.241
67261W        W39675  38.326  10.669  10.495
67262W        W39676   6.712  33.922  13.941
67263W        W39677   3.410  44.954  12.909
67264W        W39678  40.968  26.701  13.442
67265W        W39679  41.974   6.685   0.891
67266W        W39680  32.557  36.535  11.443
67267W        W39681  31.415  20.764   2.246
67268W        W39682  35.997  44.338   0.276
67269W        W39683  36.514  35.071  14.773
67270W        W39684  26.076   1.369   3.804
67271W        W39685  36.083  16.669  14.777
67272W        W39686  39.004   8.717   5.284
67273W        W39687  32.475   8.738  11.127
67274W        W39688  19.074  26.515  13.544
67275W        W39689  16.248  32.960   2.376
67276W        W39690  14.597  20.060  10.595
67277W        W39691  28.618  16.123  13.997
67278W        W39692  31.451  22.225   4.269
67279W        W39693  24.125   2.277   1.802
67280W        W39694  38.042  36.850  13.853
67281W        W39695   0.440  21.686   0.269
67282W        W39696   4.780  40.934   0.429
67283W        W39697  29.086  35.359   4.163
67284W        W39698  18.214  34.946   2.747
67285W        W39699  36.948  27.061  10.935
67286W        W39700  38.904  16.808  10.118
67287W        W39701  44.269   0.257   9.988
67288W        W39702  15.650  36.845  13.960
67289W        W39703  19.739  44.332   5.235
67290W        W39704   2.301  43.338   2.745
67291W        W39705  11.274  16.310   1.392
67292W        W39706  14.258  36.454  10.951
67293W        W39707   7.810   6.717  13.537
67294W        W39708  40.913  38.959   0.779
67295W        W39709   0.836  36.481   3.696
67296W        W39710   7.741   8.262  14.983
67297W        W39711   7.266   8.325  12.857
67298W        W39712  35.935  17.580   1.785
67299W        W39713   7.695  16.191   2.852
67300W        W39714   6.395  13.311   3.349
67301W        W39715  31.107   7.282   9.985
67302W        W39716  44.824  19.279  10.611
67303W        W39717  14.652  16.660   5.125
67304W        W39718   8.240   8.715  12.509
67305W        W39719  25.981   5.219  12.077
67306W        W39720  37.558  14.157   4.837
67307W        W39721  37.567  32.969  12.378
67308W        W39722  16.657  11.849   4.282
67309W        W39723   6.247  22.249   3.380
67310W        W39724   4.212  44.987  14.397
67311W        W39725  15.250  14.262   4.157
67312W        W39726  42.471  23.729   1.823
67313W        W39727  34.485  38.970   1.720
67314W        W39728  20.596   7.829  14.363
67315W        W39729  32.580  11.208  13.827
67316W        W39730  21.545  24.698  14.771
67317W        W39731  39.993  26.651  13.410
67318W        W39732  38.993  28.111  10.567
67319W        W39733  23.626  16.141   4.132
67320W        W39734  27.552   3.310  14.394
67321W        W39735  40.807   4.894  11.903
67322W        W39736   7.798  28.940  10.477
67323W        W39737  42.489  43.367   4.140
67324W        W39738  17.142  17.095   2.685
67325W        W39739  31.458  43.826  13.938
67326W        W39740  26.559  31.130   4.150
67327W        W39741   2.788  25.058  14.478
67328W        W39742  18.185  17.721   2.331
67329W        W39743  23.729   6.324   3.736
67330W        W39744   6.763  32.932   0.932
67331W        W39745  20.274  32.496   4.778
67332W        W39746  37.890  11.755  10.980
67333W        W39747  36.919  11.351   0.882
67334W        W39748  31.997  10.173   5.216
67335W        W39749  18.581   6.291  11.416
67336W        W39750   4.371  22.188   1.834
67337W        W39751  16.202  12.184  12.827
67338W        W39752  34.894  36.418   4.331
67339W        W39753  13.254   0.332   1.821
67340W        W39754  38.003  14.251   3.770
67341W        W39755  20.532   0.783  14.386
67342W        W39756  12.192  36.538   3.731
67343W        W39757   4.402  34.027  10.917
67344W        W39758   3.709  32.429   0.794
67345W        W39759  34.574  26.048  14.469
67346W        W39760  44.798   3.350   1.700
67347W        W39761  24.508  32.948  14.765
67348W        W39762  35.879   8.234   3.342
67349W        W39763  30.129  42.389  10.511
67350W        W39764  35.368  17.668   4.311
67351W        W39765  15.662   4.899  14.346
67352W        W39766  16.610   9.864  13.446
67353W        W39767  33.946   2.863   3.300
67354W        W39768  11.188  40.356  11.018
67355W        W39769   7.288  15.633  11.571
67356W        W39770  43.409  19.128   0.329
67357W        W39771  23.999  28.449  14.431
67358W        W39772   8.846  15.660   0.436
67359W        W39773  43.409  14.697   3.717
67360W        W39774  31.938  20.123   3.654
67361W        W39775  41.042  36.486  11.493
67362W        W39776  25.218   6.922   0.243
67363W        W39777  33.892  11.263   2.352
67364W        W39778   6.197  40.851   4.225
67365W        W39779   2.893  32.582  11.521
67366W        W39780  30.463  36.544  13.395
67367W        W39781  43.418  22.742  11.869
67368W        W39782   9.296   9.212  13.308
67369W        W39783  10.338  13.111   2.312
67370W        W39784  41.892  23.085  12.955
67371W        W39785  21.051  20.665   3.800
67372W        W39786  10.178  36.070  12.945
67373W        W39787   7.721   2.269   2.685
67374W        W39788  35.399  23.583  13.993
67375W        W39789  40.037  21.618   4.708
67376W        W39790  44.279  21.614   3.665
67377W        W39791   3.899  27.032   3.803
67378W        W39792   2.369  25.005  10.983
67379W        W39793  26.539  33.893  14.875
67380W        W39794   0.420  24.127  14.850
67381W        W39795   7.882  17.243  12.986
67382W        W39796   7.909  42.837  12.942
67383W        W39797  39.441  44.300  14.823
67384W        W39798  22.511  44.843  12.927
67385W        W39799  18.552  14.814  13.803
67386W        W39800  38.011  13.137   3.680
67387W        W39801  36.572  21.693  14.011
67388W        W39802   5.258  29.524  14.459
67389W        W39803  34.488  20.529   0.911
67390W        W39804  32.609  30.568   2.860
67391W        W39805  44.476  21.156   1.743
67392W        W39806   9.833   2.761   0.859
67393W        W39807  12.769  10.640  10.611
67394W        W39808  40.539   9.651  14.349
67395W        W39809  23.689  32.925  14.021
67396W        W39810  35.565  28.439   3.805
67397W        W39811  31.954   1.479   1.276
67398W        W39812  31.445   2.736  11.424
67399W        W39813  17.220  37.944  13.019
67400W        W39814  26.965  18.776   0.871
67401W        W39815  44.464  23.550   2.813
67402W        W39816   8.845   1.259  12.081
67403W        W39817  17.222  26.096  12.546
67404W        W39818  44.419  19.111   1.893
67405W        W39819  42.859  19.777   2.749
67406W        W39820  44.290   8.182   5.166
67407W        W39821   2.737  39.535   2.385
67408W        W39822  18.712  42.356  11.923
67409W        W39823  29.659  16.617   4.769
67410W        W39824  25.707  20.677   4.130
67411W        W39825  28.144  35.041  12.007
67412W        W39826   7.188  28.598  14.913
67413W        W39827  33.414   0.331  13.011
67414W        W39828  31.592  14.308  13.804
67415W        W39829  44.375  31.123  14.338
67416W        W39830  16.199  43.861   3.237
67417W        W39831   9.864   8.327   2.830
67418W        W39832  20.205  11.832  14.020
67419W        W39833  29.551  18.141  14.406
67420W        W39834  14.781  41.023  14.399
67421W        W39835  11.712  20.116  14.388
67422W        W39836  30.555   0.905   3.196
67423W        W39837  28.679   7.911   2.725
67424W        W39838  41.949   8.822   0.904
67425W        W39839  15.086   8.296  14.792
67426W        W39840  12.249  38.385   2.263
67427W        W39841  41.944  15.762   0.389
67428W        W39842  36.451   5.725   1.443
67429W        W39843  31.574   1.348  12.002
67430W        W39844   1.280  43.273  11.983
67431W        W39845  36.997  43.897  10.639
67432W        W39846  13.113  13.624  14.840
67433W        W39847  27.597  38.038  14.915
67434W        W39848   9.342  18.588   0.256
67435W        W39849  30.430  37.432  10.919
67436W        W39850  37.025  20.228   2.768
67437W        W39851  17.070  11.708   4.171
67438W        W39852  21.204  31.914   2.246
67439W        W39853  20.669  17.762  14.281
67440W        W39854  38.053  33.590   2.752
67441W        W39855  39.041   1.772  12.417
67442W        W39856  39.954  23.628  13.394
67443W        W39857  11.255  25.586   2.737
67444W        W39858  44.306  44.958  13.542
67445W        W39859  22.684   9.846  10.612
67446W        W39860  19.550  14.655   3.841
67447W        W39861  30.157   0.778  14.980
67448W        W39862  28.175   8.670  14.927
67449W        W39863  42.454  17.100  14.901
67450W        W39864  12.199   6.746   2.232
67451W        W39865   7.277  38.939   2.317
67452W        W39866  14.315  36.843   4.283
67453W        W39867  44.461  43.891   4.811
67454W        W39868  24.659  20.594   2.762
67455W        W39869  44.326  39.485   3.797
67456W        W39870  11.745  35.038  14.962
67457W        W39871  17.220  12.772   3.161
67458W        W39872   4.234  26.463   0.877
67459W        W39873  22.010  32.413  13.809
67460W        W39874  21.193  28.634  10.534
67461W        W39875  35.518  31.075  12.386
67462W        W39876  26.581  23.731   0.468
67463W        W39877   3.217  12.169   3.176
67464W        W39878  27.449   6.267  10.987
67465W        W39879  18.222  11.660   2.407
67466W        W39880  27.036  23.180   0.940
67467W        W39881   8.194  16.285   1.342
67468W        W39882  15.170  44.886   0.881
67469W        W39883  30.414  39.317   0.782
67470W        W39884  39.459  34.880  13.883
67471W        W39885  25.140  43.929  12.842
67472W        W39886  16.587  19.203   9.531
67473W        W39887  23.547  14.256   2.676
67474W        W39888   6.375  32.538   2.759
67475W        W39889  22.110   8.361  11.404
67476W        W39890  25.023   2.756  12.950
67477W        W39891  32.112  37.518   2.296
67478W        W39892  34.500  20.674  11.879
67479W        W39893  33.942   0.949  12.567
67480W        W39894  27.605  23.720   1.919
67481W        W39895  20.721  31.509   2.258
67482W        W39896   2.450  42.787  13.891
67483W        W39897  13.315  38.955  13.808
67484W        W39898  31.416  20.044   2.794
67485W        W39899  16.726   6.277  12.884
67486W        W39900  27.105   8.176  12.407
67487W        W39901  30.954  23.573   4.164
67488W        W39902  25.174   8.778  13.364
67489W        W39903  35.891  22.614  10.994
67490W        W39904   7.783  37.522   2.302
67491W        W39905  17.784   5.869  12.522
67492W        W39906  24.645  41.013  13.065
67493W        W39907  15.282  21.085  13.527
67494W        W39908  29.570  12.209   1.933
67495W        W39909   2.417   7.190  12.482
67496W        W39910  36.997   8.761   0.735
67497W        W39911  41.396   8.212   1.867
67498W        W39912  18.568   8.898  10.590
67499W        W39913   9.374  44.427   9.990
67500W        W39914   7.905  34.870  14.318
67501W        W39915  17.648  41.009   1.278
67502W        W39916  40.913  44.300   4.688
67503W        W39917  43.850  19.574   5.307
67504W        W39918   0.978   9.829   2.291
67505W        W39919   9.237  17.666  14.421
67506W        W39920  15.621  36.399  13.875
67507W        W39921  15.203  14.136   3.273
67508W        W39922  41.966  40.361   2.186
67509W        W39923   3.794  38.337   3.836
67510W        W39924  14.631  39.461   1.779
67511W        W39925  34.876   2.245   0.417
67512W        W39926  11.825  20.546  13.923
67513W        W39927  31.907  11.632   1.737
67514W        W39928  18.692  30.489  11.536
67515W        W39929  13.762  43.321   1.699
67516W        W39930   7.328  38.975   0.932
67517W        W39931  38.999  12.210   0.850
67518W        W39932  37.081  42.945   0.841
67519W        W39933  13.280  40.941   1.768
67520W        W39934  26.042  26.059  13.851
67521W        W39935   7.695  28.037   0.922
67522W        W39936  35.512   7.796  11.087
67523W        W39937  26.485   2.275   0.906
67524W        W39938   0.269  34.909   2.324
67525W        W39939  36.894  11.802   3.231
67526W        W39940  42.017  20.239  13.419
67527W        W39941  20.537  29.560   1.910
67528W        W39942  22.539  29.633  13.999
67529W        W39943  37.388  33.419   0.909
67530W        W39944  33.000  44.772  14.997
67531W        W39945  21.085  43.346   2.855
67532W        W39946  12.181  35.990   3.294
67533W        W39947   7.762  22.597   5.313
67534W        W39948  18.640  26.163   2.286
67535W        W39949  37.993  19.667  12.918
67536W        W39950  20.721  38.511   1.742
67537W        W39951   0.450  36.540   0.871
67538W        W39952  26.968  40.027   2.794
67539W        W39953  18.551  26.490   3.359
67540W        W39954   7.346   1.958  10.467
67541W        W39955  40.855  30.160   1.839
67542W        W39956  32.053   9.314  14.485
67543W        W39957   8.342   7.717   1.403
67544W        W39958  23.001   7.803  10.926
67545W        W39959  16.291  33.559   1.277
67546W        W39960  29.580  41.919  13.890
67547W        W39961  42.016  29.466   0.946
67548W        W39962  14.666  26.062   4.827
67549W        W39963  34.574  30.974   4.650
67550W        W39964  20.082   3.776  12.029
67551W        W39965  43.780  44.795  13.058
67552W        W39966  30.452  19.144  11.108
67553W        W39967  26.532  17.099   0.434
67554W        W39968   6.263  37.068   2.316
67555W        W39969   0.440  20.764  14.810
67556W        W39970  33.879   5.933   3.285
67557W        W39971  38.446  16.081   4.211
67558W        W39972   1.823  25.523  10.944
67559W        W39973  25.136  21.262  12.418
67560W        W39974  34.062  30.624   2.348
67561W        W39975  40.514  13.627   2.408
67562W        W39976  35.946  23.552   0.295
67563W        W39977  10.219   9.868  13.347
67564W        W39978  22.641  10.239   1.293
67565W        W39979  14.282  32.081   1.905
67566W        W39980   8.743  15.704   1.315
67567W        W39981  20.110  33.916  14.000
67568W        W39982  25.533   0.470  11.496
67569W        W39983   3.416  28.007   2.668
67570W        W39984  24.118  23.137  13.528
67571W        W39985  16.786  39.367  13.020
67572W        W39986  29.924  18.109   1.331
67573W        W39987  36.353  42.943   5.239
67574W        W39988  44.755  42.020   3.725
67575W        W39989   3.792   4.763   0.776
67576W        W39990  18.068  41.875   0.412
67577W        W39991  18.679  18.209  10.151
67578W        W39992  29.590  44.259   4.752
67579W        W39993  37.499  37.841  12.860
67580W        W39994  16.763  43.828   2.308
67581W        W39995   1.244   8.367   1.397
67582W        W39996   1.421  38.406  12.905
67583W        W39997  18.143  12.762  10.901
67584W        W39998  29.981  29.087  12.035
67585W        W39999   6.308  21.078  13.520
67586W        W40000  44.918   5.901   4.601
67587W        W40001  10.634  39.357   0.320
67588W        W40002  13.664  35.497   4.613
67589W        W40003  27.557  35.581   1.701
67590W        W40004   5.831   7.261  13.517
67591W        W40005  27.190  44.449  12.410
67592W        W40006  25.189   6.195  10.597
67593W        W40007  13.285   2.367  12.923
67594W        W40008   0.421  12.139   3.742
67595W        W40009  40.981   0.748   0.821
67596W        W40010  21.223  34.900   2.823
67597W        W40011  11.709  35.396   0.400
67598W        W40012  23.729   1.344   2.371
67599W        W40013   6.854  28.486  10.439
67600W        W40014  24.042  44.964  13.311
67601W        W40015   5.784  32.500  13.400
67602W        W40016  34.069  13.754  11.544
67603W        W40017  42.843  36.979  13.793
67604W        W40018  19.771   0.430   0.302
67605W        W40019  12.278  28.030   4.349
67606W        W40020  25.569  23.225   0.872
67607W        W40021  35.888  42.994   9.993
67608W        W40022   7.701   8.769  12.074
67609W        W40023  44.277   8.163  14.963
67610W        W40024  25.509  39.813   1.272
67611W        W40025   1.454   4.897  13.885
67612W        W40026  12.128  34.548   4.255
67613W        W40027   5.802  42.312  10.081
67614W        W40028  25.682  35.973   9.981
67615W        W40029  30.626  35.073   4.237
67616W        W40030  20.663  42.298   4.636
67617W        W40031   3.779  17.237   0.749
67618W        W40032   3.762  10.147   2.356
67619W        W40033  42.782  17.304   3.854
67620W        W40034  40.857   2.398   1.300
67621W        W40035  20.088  44.934  12.465
67622W        W40036  13.262   7.898  13.034
67623W        W40037   3.335   2.263   1.854
67624W        W40038  17.087  16.700  10.519
67625W        W40039  10.662  41.974  13.348
67626W        W40040  20.205  34.986   1.368
67627W        W40041  13.119  35.102   2.815
67628W        W40042  37.436  37.444   4.729
67629W        W40043   6.418  19.659   2.205
67630W        W40044  38.076   8.676   2.200
67631W        W40045  39.921  42.465   3.644
67632W        W40046  44.917  17.620  10.489
67633W        W40047  22.674  13.213  14.769
67634W        W40048  13.826  38.395  13.052
67635W        W40049  16.228  11.659  10.943
67636W        W40050  33.550  43.346   4.268
67637W        W40051   8.832  31.601   4.728
67638W        W40052   6.213  29.984  11.942
67639W        W40053  28.039  23.161  14.961
67640W        W40054  24.691  19.047   1.243
67641W        W40055  19.649  18.150  10.932
67642W        W40056  28.665  24.581   4.248
67643W        W40057   5.216  16.648   1.846
67644W        W40058  43.851  25.995   0.786
67645W        W40059  34.422  31.023  10.516
67646W        W40060   7.209  24.587  10.596
67647W        W40061  23.101   1.966   4.210
67648W        W40062  29.130  42.327   1.329
67649W        W40063   4.721  16.304  13.461
67650W        W40064   8.272  23.574  14.936
67651W        W40065  42.024  23.714  14.338
67652W        W40066   5.269  14.644   0.286
67653W        W40067  15.699  36.526  12.353
67654W        W40068   5.230  24.063  14.931
67655W        W40069  23.071  15.282  11.103
67656W        W40070  33.604  24.645   3.743
67657W        W40071  14.709  41.813  14.458
67658W        W40072  19.721  27.076   2.888
67659W        W40073   2.787  25.011   0.267
67660W        W40074  17.233  34.070  14.776
67661W        W40075  15.738  14.319   4.204
67662W        W40076  18.670  41.385  13.875
67663W        W40077  39.982  21.724  13.534
67664W        W40078  34.428  12.202  13.453
67665W        W40079   8.715  38.379  10.956
67666W        W40080  33.486   4.805  11.113
67667W        W40081  20.136   7.872  10.602
67668W        W40082  23.528   7.669   4.330
67669W        W40083   1.938   2.383  11.867
67670W        W40084  43.501  11.711  12.083
67671W        W40085   6.244  41.854  11.957
67672W        W40086  14.140  30.574   3.853
67673W        W40087   2.423   5.705   9.950
67674W        W40088  15.220  26.051   0.859
67675W        W40089  26.588  24.085  11.446
67676W        W40090  29.095  36.367   0.816
67677W        W40091  19.117   5.837  12.453
67678W        W40092  40.998  22.246   2.779
67679W        W40093  29.670  29.021  10.591
67680W        W40094  24.184  44.313   0.840
67681W        W40095  27.449  11.249   2.887
67682W        W40096  26.952   6.702  12.066
67683W        W40097  35.984  33.623  11.020
67684W        W40098   1.901  40.873   3.168
67685W        W40099  29.030  12.134   2.197
67686W        W40100   2.828  34.073  13.831
67687W        W40101  11.149  21.140  10.452
67688W        W40102   1.848  42.985  10.500
67689W        W40103  37.364  26.521  14.379
67690W        W40104  31.008  15.610   1.846
67691W        W40105  14.316  41.984  14.287
67692W        W40106   5.406  15.740   3.186
67693W        W40107  34.105   7.844   2.301
67694W        W40108  32.542  23.496  13.026
67695W        W40109   7.210  13.327  11.121
67696W        W40110  14.327  13.277   0.408
67697W        W40111  21.124  40.356   4.250
67698W        W40112  34.004  28.650  11.509
67699W        W40113  34.590  29.631  13.850
67700W        W40114  29.118  11.720  10.526
67701W        W40115  27.472   4.412   0.341
67702W        W40116  32.029  30.461  12.996
67703W        W40117  28.128   7.794   2.686
67704W        W40118  41.887  32.992   4.130
67705W        W40119  14.242   4.719  10.989
67706W        W40120   7.275  41.944  14.424
67707W        W40121  35.947   8.235   4.153
67708W        W40122   8.220  11.813  10.949
67709W        W40123  44.307   0.313  11.117
67710W        W40124  17.697   5.232  12.541
67711W        W40125  32.072  31.937   0.943
67712W        W40126   8.166   7.193  13.946
67713W        W40127  36.397  30.064   4.661
67714W        W40128  29.138  21.168  10.023
67715W        W40129  41.379  15.622  13.420
67716W        W40130  22.606  22.106   3.153
67717W        W40131  38.350   4.326   0.826
67718W        W40132  41.864  32.975   4.736
67719W        W40133  15.706   4.228   0.256
67720W        W40134   9.263  27.967   4.191
67721W        W40135  42.417  25.511   3.791
67722W        W40136  30.608  25.042  13.458
67723W        W40137   4.785  24.064  14.371
67724W        W40138   5.732  27.498   9.507
67725W        W40139   5.776  26.655  14.434
67726W        W40140  43.427  21.605  11.884
67727W        W40141  20.715  20.155  14.393
67728W        W40142  22.635   9.855   3.849
67729W        W40143  33.961   8.232  10.474
67730W        W40144  22.507   9.333  11.456
67731W        W40145   2.362  15.645   0.921
67732W        W40146   9.877   3.351  12.374
67733W        W40147  10.228  32.438   1.331
67734W        W40148  21.106  38.885   3.296
67735W        W40149  16.678  20.256   2.799
67736W        W40150  30.116   6.697   0.737
67737W        W40151   7.812  30.152  10.598
67738W        W40152  44.889  22.031  12.006
67739W        W40153  13.611  37.024  10.899
67740W        W40154  11.134  43.842   0.844
67741W        W40155  21.099  30.999  12.866
67742W        W40156  35.430  34.903  14.391
67743W        W40157  42.461  24.672   4.734
67744W        W40158  34.062  10.756   4.273
67745W        W40159  21.059  38.559  10.916
67746W        W40160  41.801  27.685   2.286
67747W        W40161  35.924  22.588   3.778
67748W        W40162  17.150   3.911   3.386
67749W        W40163  36.900  29.032  13.879
67750W        W40164  20.686  38.927  12.540
67751W        W40165  43.995  10.333  14.852
67752W        W40166  18.138   7.171   4.307
67753W        W40167   2.337  10.288   1.369
67754W        W40168   1.934  41.798  14.967
67755W        W40169   7.809  38.523   1.846
67756W        W40170  28.662   8.847  13.498
67757W        W40171  15.700  33.044   4.667
67758W        W40172  39.960  10.328   3.352
67759W        W40173   6.362  31.924   1.396
67760W        W40174  30.029  22.047   2.664
67761W        W40175  20.218  26.548  10.423
67762W        W40176  36.426  43.289  10.490
67763W        W40177  39.885   0.323  12.034
67764W        W40178   7.325  21.590   4.662
67765W        W40179  37.999  18.616   3.770
67766W        W40180  34.945   8.872   1.913
67767W        W40181  35.938  12.748   1.867
67768W        W40182  29.433  24.579  13.329
67769W        W40183  37.832  44.776  14.780
67770W        W40184  17.270  19.698   2.235
67771W        W40185   1.978  18.118  13.541
67772W        W40186  23.620  20.253  10.454
67773W        W40187  39.969  34.387   3.281
67774W        W40188  18.095  23.222  10.591
67775W        W40189  25.213  23.719  11.513
67776W        W40190   4.410   2.251  12.835
67777W        W40191  10.674   8.342   4.628
67778W        W40192   0.878  20.274  11.898
67779W        W40193   0.443   0.822  11.570
67780W        W40194  11.219  24.551  14.394
67781W        W40195  44.914   7.771   2.826
67782W        W40196  35.404  14.597   4.121
67783W        W40197  22.077  13.815  10.512
67784W        W40198  21.147   0.949  10.522
67785W        W40199  36.504  31.418   3.284
67786W        W40200  39.881  11.704   3.207
67787W        W40201   7.845   9.184  12.915
67788W        W40202  30.526   1.403  14.293
67789W        W40203  24.607  21.673   0.895
67790W        W40204   5.807  17.700   0.966
67791W        W40205  39.844   3.380   1.805
67792W        W40206  41.017  36.497   3.289
67793W        W40207  19.147  18.754  14.489
67794W        W40208   7.856  37.571   4.663
67795W        W40209  38.395  14.311   1.776
67796W        W40210  30.629  27.517  13.464
67797W        W40211  16.626  37.349  10.947
67798W        W40212   2.295   3.265   4.215
67799W        W40213  14.665  18.549  10.134
67800W        W40214  27.018  42.363  13.969
67801W        W40215  41.531   3.782  13.513
67802W        W40216  37.517  34.474  11.014
67803W        W40217  23.216  30.600   2.873
67804W        W40218  15.715  41.374  10.025
67805W        W40219  24.599   8.875   3.720
67806W        W40220   7.891   7.196   1.774
67807W        W40221  28.527  22.566   1.313
67808W        W40222  24.596  40.352   2.785
67809W        W40223  27.508  42.963   0.753
67810W        W40224   9.225   8.857   3.860
67811W        W40225  32.014   4.351  11.978
67812W        W40226   1.792  31.457   4.340
67813W        W40227   7.822  44.981   0.472
67814W        W40228  44.005  11.301   1.892
67815W        W40229   9.812  26.483  10.925
67816W        W40230  13.800  34.403  12.837
67817W        W40231  14.120  33.082  12.091
67818W        W40232  41.873  42.930   3.162
67819W        W40233   4.407   9.370   2.196
67820W        W40234   6.339  41.949  10.423
67821W        W40235  36.890   6.352  14.461
67822W        W40236   0.384   0.287  13.412
67823W        W40237  32.434  11.297   3.799
67824W        W40238  43.916  35.958   3.352
67825W        W40239  39.007  33.927  10.555
67826W        W40240  25.553   2.328   3.774
67827W        W40241  33.935  10.340   0.379
67828W        W40242  35.396  22.048  12.022
67829W        W40243   8.744  24.642  14.003
67830W        W40244  25.683  42.485   3.356
67831W        W40245  44.007  40.828  11.532
67832W        W40246   9.825  16.172   3.827
67833W        W40247  10.242  13.778   2.903
67834W        W40248  11.721  37.347   4.691
67835W        W40249  15.084  40.311   3.745
67836W        W40250  18.128  16.752   0.355
67837W        W40251  39.366  40.311  11.886
67838W        W40252   8.333  23.527   1.732
67839W        W40253  40.326   8.349   2.880
67840W        W40254   1.257   2.874   2.702
67841W        W40255  41.030  30.570   1.275
67842W        W40256  44.263  30.632  14.329
67843W        W40257  14.761  18.126   0.385
67844W        W40258  12.654  17.130   4.271
67845W        W40259  29.637  34.050   2.860
67846W        W40260   0.491  11.264  14.500
67847W        W40261  38.061  15.671   2.244
67848W        W40262  32.483  13.822  13.379
67849W        W40263  19.726   6.750  11.408
67850W        W40264   9.156  28.055  13.030
67851W        W40265  14.824  21.702  11.034
67852W        W40266  44.436   3.302   2.186
67853W        W40267  44.359  27.512   3.747
67854W        W40268  11.638  30.537   1.219
67855W        W40269  16.141  31.094  12.400
67856W        W40270  14.240  15.617   3.233
67857W        W40271   1.913  39.870   0.945
67858W        W40272  13.697   8.192  12.352
67859W        W40273   8.267  18.557   4.180
67860W        W40274  20.110  44.861   2.301
67861W        W40275  18.661  13.312  13.469
67862W        W40276  25.644  21.624   3.220
67863W        W40277   8.701  14.681  11.129
67864W        W40278  22.012  43.473   0.876
67865W        W40279  29.609   8.379   2.359
67866W        W40280  18.704  25.571  13.050
67867W        W40281  15.758   3.403   2.347
67868W        W40282  36.353   3.929  13.521
67869W        W40283  24.590  35.494  10.988
67870W        W40284  16.713   6.789   1.243
67871W        W40285   1.350  31.951   3.682
67872W        W40286  17.557  11.257   3.358
67873W        W40287  40.465  21.729  13.971
67874W        W40288  10.720   3.319   0.802
67875W        W40289   8.389  14.805   3.283
67876W        W40290  16.257  31.648  12.927
67877W        W40291  26.595  44.370   2.669
67878W        W40292  14.710  24.143  10.493
67879W        W40293  20.537  33.020  12.580
67880W        W40294   0.491   8.216   4.208
67881W        W40295  24.160  23.712   5.280
67882W        W40296   5.818  33.555  12.071
67883W        W40297  26.073  27.164   2.207
67884W        W40298  31.963  21.148  12.825
67885W        W40299  12.807   4.222  14.398
67886W        W40300   7.395   4.842  13.442
67887W        W40301  44.870  43.462   1.423
67888W        W40302   1.480  24.119  10.608
67889W        W40303   3.721  41.421   1.444
67890W        W40304  26.694  40.411   5.188
67891W        W40305  11.223  23.110  10.934
67892W        W40306  14.701   9.659  14.389
67893W        W40307  30.939  30.563  10.640
67894W        W40308   8.757   8.186   0.350
67895W        W40309  16.614  17.179  12.537
67896W        W40310   5.930  13.265  13.447
67897W        W40311  26.638   1.314  12.365
67898W        W40312  29.464  32.094  13.334
67899W        W40313   7.197  19.729   1.386
67900W        W40314  29.430  33.403   1.807
67901W        W40315   8.748  29.165  11.550
67902W        W40316  34.900   3.946  13.517
67903W        W40317  12.614   1.844  13.028
67904W        W40318  27.153   3.343  14.863
67905W        W40319  26.122  17.156   0.880
67906W        W40320   9.781   8.218   1.787
67907W        W40321  24.567  19.103   5.757
67908W        W40322  19.753  18.693   3.325
67909W        W40323  30.999  40.492   4.187
67910W        W40324  10.860  24.987  14.990
67911W        W40325   3.367  29.031   4.789
67912W        W40326  37.054   4.246   3.826
67913W        W40327  41.334  11.631  13.338
67914W        W40328  35.026  32.574   3.763
67915W        W40329  32.620  36.429  12.387
67916W        W40330   7.218  15.134   1.306
67917W        W40331  19.281  44.280  12.384
67918W        W40332  33.380  39.922  14.965
67919W        W40333  32.090  31.049   0.898
67920W        W40334   1.250  29.014  11.010
67921W        W40335  38.506   4.331   2.289
67922W        W40336  32.052  25.144  14.324
67923W        W40337  13.652   3.720  13.403
67924W        W40338  42.485  37.061  11.863
67925W        W40339  22.161  29.572   1.384
67926W        W40340  42.806  28.524  11.455
67927W        W40341   6.187  15.602   3.255
67928W        W40342  20.611  26.461   3.795
67929W        W40343   5.420  40.965  11.987
67930W        W40344   3.733  14.798  14.946
67931W        W40345  13.760  33.580  14.981
67932W        W40346   5.207   9.384   4.297
67933W        W40347   3.390  22.592  13.977
67934W        W40348  19.090  26.144  10.414
67935W        W40349  39.444  37.422   0.288
67936W        W40350  24.201  41.889   1.876
67937W        W40351   4.736  18.592  10.632
67938W        W40352  38.419  24.510   0.928
67939W        W40353  43.373   9.709   0.887
67940W        W40354  32.108  28.008   3.658
67941W        W40355   8.657   9.688  12.551
67942W        W40356  24.126  30.095  10.614
67943W        W40357  22.669  42.030   2.308
67944W        W40358  41.410  30.109   0.886
67945W        W40359  41.296  16.602   2.857
67946W        W40360  22.523  35.468   1.330
67947W        W40361   1.261  42.408  13.384
67948W        W40362  25.594  16.792  11.057
67949W        W40363  22.735  26.547   3.779
67950W        W40364   5.891  12.801  13.933
67951W        W40365  25.124  37.914   0.821
67952W        W40366  11.344  12.161   3.782
67953W        W40367  44.816  42.986   0.419
67954W        W40368  20.110  30.436  13.981
67955W        W40369  44.326  33.086  14.332
67956W        W40370  35.952  20.098  11.438
67957W        W40371  41.824  37.430   4.284
67958W        W40372   6.235   0.314  12.982
67959W        W40373  37.994  26.695   3.151
67960W        W40374   2.889  21.188   1.386
67961W        W40375  37.344  19.702   0.350
67962W        W40376  43.981  31.063   1.394
67963W        W40377   5.393  14.143  12.495
67964W        W40378   3.916  33.487  10.073
67965W        W40379  33.875   8.672   5.099
67966W        W40380  29.666  22.143  13.035
67967W        W40381   1.299   2.290  12.526
67968W        W40382  28.564   2.847   4.254
67969W        W40383  36.574  25.503   2.278
67970W        W40384  15.150  21.526   1.877
67971W        W40385  37.355  13.807  13.488
67972W        W40386  41.430  36.399  11.046
67973W        W40387  19.563  35.413   3.869
67974W        W40388   0.286  12.655   0.893
67975W        W40389  20.108  35.888  14.468
67976W        W40390  24.642  39.505  10.892
67977W        W40391  10.819  15.209   4.204
67978W        W40392  43.302  15.735   0.922
67979W        W40393  16.607   9.319   3.845
67980W        W40394  10.197  24.999  12.563
67981W        W40395   9.373  35.446  12.571
67982W        W40396   2.325  32.019   4.755
67983W        W40397  10.783  26.570   2.863
67984W        W40398  11.861   6.338   3.156
67985W        W40399  14.595   8.261   2.212
67986W        W40400  11.202   8.180   2.254
67987W        W40401   4.361  21.587   2.814
67988W        W40402  12.344  27.065  12.469
67989W        W40403  37.419  10.230  14.014
67990W        W40404   3.388  32.965  11.122
67991W        W40405  17.065  19.638   4.272
67992W        W40406  13.260  12.291  13.002
67993W        W40407  23.124  27.174   1.441
67994W        W40408   9.216   8.868   0.310
67995W        W40409   8.827  38.431  14.491
67996W        W40410   5.725  14.805  14.299
67997W        W40411  24.708   6.277  11.384
67998W        W40412  31.517  15.323   3.870
67999W        W40413  41.312  28.068   3.772
68000W        W40414  27.191   0.418   2.835
68001W        W40415  34.024  27.020   3.705
68002W        W40416  27.171  18.597   0.394
68003W        W40417  13.285  30.500  14.787
68004W        W40418  21.204   1.747   3.370
68005W        W40419   3.913  29.435   4.137
68006W        W40420  10.869  14.610  14.450
68007W        W40421  21.074  40.012  11.062
68008W        W40422  12.273  31.458   0.382
68009W        W40423   1.836  41.831  13.510
68010W        W40424  14.325   4.397   3.251
68011W        W40425  21.092  21.648   4.319
68012W        W40426  22.602  28.090   2.852
68013W        W40427  11.232   1.417  13.362
68014W        W40428  40.481  36.351   2.345
68015W        W40429   1.384  43.402   4.654
68016W        W40430  15.123  28.172   2.889
68017W        W40431  15.116  13.233   4.740
68018W        W40432  42.960  20.249  10.908
68019W        W40433   4.303  28.520  14.000
68020W        W40434  18.560  30.620  12.875
68021W        W40435   5.420   9.697   1.306
68022W        W40436  40.998  44.475   1.824
68023W        W40437  24.074   9.387   4.646
68024W        W40438  17.278  39.396   1.233
68025W        W40439  40.491  11.300   0.879
68026W        W40440  27.633  20.711  12.930
68027W        W40441   9.877  28.042   1.268
68028W        W40442  11.140  31.958   1.916
68029W        W40443  21.617   8.376   3.234
68030W        W40444  10.877   0.319   4.322
68031W        W40445  20.631  22.191   0.277
68032W        W40446  34.070  11.677   4.289
68033W        W40447   7.902   4.377   2.287
68034W        W40448  18.598   1.760   0.348
68035W        W40449  35.094  33.479   1.737
68036W        W40450  13.344  33.473   4.323
68037W        W40451  38.853  29.467   2.680
68038W        W40452  31.501  26.625  11.855
68039W        W40453  21.081  14.762  11.485
68040W        W40454  10.252   7.785   2.803
68041W        W40455  21.045  23.155  10.499
68042W        W40456  13.604  29.544  14.364
68043W        W40457   3.460   6.916  10.927
68044W        W40458  10.210  44.410  14.432
68045W        W40459  38.413  17.697  14.923
68046W        W40460   6.761   0.442  13.968
68047W        W40461  33.980  32.442  10.889
68048W        W40462  14.614   3.379   2.791
68049W        W40463  39.349   9.862   1.725
68050W        W40464  38.361   0.318  12.983
68051W        W40465  34.595   1.933   4.223
68052W        W40466  12.156  31.541  13.008
68053W        W40467  17.585  12.812  11.925
68054W        W40468  13.617  25.652   1.732
68055W        W40469  24.983   7.342   0.790
68056W        W40470  32.508  28.672   2.665
68057W        W40471  24.159  35.992   3.820
68058W        W40472  36.455  40.028  13.809
68059W        W40473  26.598   5.331   1.303
68060W        W40474  22.091  41.307   2.805
68061W        W40475  20.689  24.695   4.226
68062W        W40476  29.430  38.934   3.632
68063W        W40477  28.090   1.473   1.869
68064W        W40478  39.434  34.382  10.121
68065W        W40479  32.598  35.980   4.602
68066W        W40480   4.729  12.646   2.687
68067W        W40481  42.798  29.655   2.272
68068W        W40482   5.763  30.438  14.352
68069W        W40483  32.065  32.559  14.027
68070W        W40484   0.789  44.305  10.958
68071W        W40485  26.965   7.740   4.165
68072W        W40486  30.003   2.230   3.329
68073W        W40487  26.614  30.563   5.098
68074W        W40488  23.084   0.988   0.413
68075W        W40489  29.595  19.613  10.441
68076W        W40490   3.740   2.391  13.921
68077W        W40491  34.373  36.049  14.453
68078W        W40492  16.245   1.883   4.240
68079W        W40493  18.587  13.846   4.599
68080W        W40494  36.446  38.066   4.768
68081W        W40495  22.558  11.796  10.599
68082W        W40496  11.314  42.366  12.993
68083W        W40497  34.958  10.242   2.865
68084W        W40498  22.591  43.408   3.223
68085W        W40499  21.092   2.320   1.380
68086W        W40500  43.893  21.025  10.074
68087W        W40501  40.876  16.635   1.392
68088W        W40502  43.821   2.914   0.419
68089W        W40503   6.819   6.689  12.060
68090W        W40504   9.220  41.892  14.804
68091W        W40505   0.774   0.477   0.382
68092W        W40506  22.548  34.051   0.767
68093W        W40507  34.967  37.965   3.295
68094W        W40508  34.400  30.632  13.858
68095W        W40509  19.118  35.514  12.985
68096W        W40510  14.677  30.972  11.451
68097W        W40511  40.304  25.220  10.458
68098W        W40512  32.473   0.318  14.305
68099W        W40513  13.191   9.335  10.618
68100W        W40514  40.464  27.127  14.295
68101W        W40515   4.885  19.173   1.443
68102W        W40516   2.730   9.773  14.931
68103W        W40517  31.048   0.427   4.156
68104W        W40518  34.878  25.575  10.928
68105W        W40519  32.636  13.843   0.421
68106W        W40520   0.924  30.123  14.009
68107W        W40521   3.859  31.492  11.041
68108W        W40522  28.099  30.618   0.825
68109W        W40523   0.855  29.096   1.909
68110W        W40524  41.997  14.635   4.691
68111W        W40525  25.033  10.333  13.354
68112W        W40526  20.114   6.305   2.747
68113W        W40527  14.189  41.360  13.979
68114W        W40528  13.634  36.883  11.921
68115W        W40529  30.442  22.563   3.711
68116W        W40530  17.626  36.422   2.807
68117W        W40531  26.565   9.652  10.053
68118W        W40532  16.766  23.085  14.762
68119W        W40533  41.422  43.937  12.948
68120W        W40534  16.712  12.241   4.258
68121W        W40535   4.422   2.921  13.021
68122W        W40536   5.398  30.650  11.030
68123W        W40537  42.800  15.114  13.384
68124W        W40538  26.570   2.283   0.297
68125W        W40539  32.407  25.615   0.756
68126W        W40540   2.850   5.732  14.759
68127W        W40541   1.253  29.655  12.370
68128W        W40542  37.859  35.375   1.352
68129W        W40543   1.423  13.130   1.702
68130W        W40544  15.146  39.820   3.698
68131W        W40545  10.384  28.057   4.700
68132W        W40546  39.904  27.643   2.321
68133W        W40547  41.838  21.687   2.721
68134W        W40548  28.141  24.665   4.344
68135W        W40549  11.191  12.809   1.798
68136W        W40550  18.285  44.426   5.220
68137W        W40551  37.491  29.007  11.888
68138W        W40552  41.818  10.202   3.822
68139W        W40553  44.321   9.388   4.268
68140W        W40554  19.240  32.503  12.493
68141W        W40555  12.828  24.594  14.829
68142W        W40556   1.735  43.972  11.905
68143W        W40557  21.653  16.654   2.209
68144W        W40558  22.672   9.369   0.352
68145W        W40559   5.195  15.190   1.716
68146W        W40560  43.306  24.567   1.741
68147W        W40561  38.483   4.208  12.954
68148W        W40562  37.083   9.657  11.991
68149W        W40563  32.551  26.490   0.733
68150W        W40564  26.681  37.865  13.940
68151W        W40565  28.553  12.737   2.714
68152W        W40566   7.227  33.075  13.059
68153W        W40567   3.786   5.256   2.244
68154W        W40568   6.910   4.387  14.292
68155W        W40569  25.219  13.605  11.007
68156W        W40570  26.024  31.530  13.430
68157W        W40571  28.622  27.025   0.251
68158W        W40572  11.363  19.068   4.206
68159W        W40573   6.201  42.293   3.305
68160W        W40574  18.546  39.328   1.250
68161W        W40575   7.759  16.611  13.047
68162W        W40576  24.146   4.791   3.641
68163W        W40577  41.958  10.228   0.248
68164W        W40578  24.037  20.529  12.867
68165W        W40579   5.803  10.786   4.748
68166W        W40580  23.049  43.924  14.996
68167W        W40581  14.144  32.617  14.864
68168W        W40582  39.972  31.070   1.917
68169W        W40583   8.327   8.891  10.441
68170W        W40584  12.272  22.164   3.727
68171W        W40585  30.414   8.708  12.416
68172W        W40586  37.552   6.872   2.415
68173W        W40587  40.044   4.774   3.231
68174W        W40588  22.061  34.588   3.172
68175W        W40589  30.157  19.767   1.737
68176W        W40590  30.908  12.650   0.955
68177W        W40591  36.524  14.750  11.935
68178W        W40592  18.782  35.897  10.042
68179W        W40593  14.194  25.561   1.359
68180W        W40594  24.655   0.822   0.274
68181W        W40595  38.061   4.253   2.339
68182W        W40596  35.555  13.816  11.018
68183W        W40597  10.272  23.534   3.325
68184W        W40598  12.329   5.266  14.332
68185W        W40599  35.029  37.983  14.371
68186W        W40600  11.335  36.442  14.940
68187W        W40601   6.358   7.262   3.299
68188W        W40602   0.860  36.858   4.629
68189W        W40603   6.383  37.466  10.505
68190W        W40604   1.347  21.557  13.019
68191W        W40605  31.018  28.052   2.860
68192W        W40606  11.813  13.157  12.475
68193W        W40607   3.850  44.462   0.306
68194W        W40608   0.788  40.988  11.468
68195W        W40609   0.829  13.213   4.349
68196W        W40610  41.996  10.139   1.763
68197W        W40611   9.833   2.920   4.810
68198W        W40612   5.365   3.853   2.830
68199W        W40613   0.268  43.372   2.276
68200W        W40614  36.008  13.121  14.875
68201W        W40615   7.748  26.049   3.263
68202W        W40616  32.941  38.949   2.752
68203W        W40617   6.305  41.378   1.704
68204W        W40618   9.222  18.658  12.470
68205W        W40619   5.281   5.410  12.504
68206W        W40620  23.040   2.750  12.909
68207W        W40621  32.129  35.960  14.874
68208W        W40622  29.569  28.568  13.047
68209W        W40623  21.193  16.689   0.771
68210W        W40624  26.161  34.974   0.925
68211W        W40625  17.230  30.414  13.844
68212W        W40626  20.665  42.992   1.340
68213W        W40627  35.916  12.650  13.480
68214W        W40628  33.991  32.014  12.961
68215W        W40629  44.413  40.950  13.444
68216W        W40630  31.008  39.897   3.713
68217W        W40631  35.378   1.331   1.858
68218W        W40632   2.956  17.585   3.228
68219W        W40633   2.439  34.456   2.737
68220W        W40634  28.942  33.917  12.835
68221W        W40635  43.850   7.901  14.352
68222W        W40636  20.632   9.832   0.859
68223W        W40637  30.431  31.982  12.827
68224W        W40638  21.240  23.162  12.027
68225W        W40639  15.736  43.273  12.490
68226W        W40640   3.791  36.435  11.999
68227W        W40641  43.278   8.731   4.221
68228W        W40642  34.552  44.449   3.866
68229W        W40643  44.414  16.664  11.047
68230W        W40644  43.288   6.677  11.574
68231W        W40645   9.804   9.850  14.462
68232W        W40646  34.526  16.299  13.024
68233W        W40647   6.379  21.599  13.019
68234W        W40648  36.568   7.372  10.025
68235W        W40649  13.132  13.302  13.547
68236W        W40650  18.261   4.317   4.611
68237W        W40651  16.683  25.171   0.932
68238W        W40652  30.597  38.016   4.113
68239W        W40653  33.441  27.510  12.419
68240W        W40654  25.622  39.340   0.784
68241W        W40655  41.353   6.800   0.328
68242W        W40656  38.033  38.349   3.214
68243W        W40657  35.571  23.112   4.599
68244W        W40658  43.380  13.231   2.199
68245W        W40659   7.250  27.951   0.406
68246W        W40660  11.812  37.396   2.335
68247W        W40661  30.920   7.721  12.428
68248W        W40662   0.923  11.167   0.385
68249W        W40663  12.303  33.554  14.990
68250W        W40664  13.339  38.517   1.367
68251W        W40665  26.539  41.302   0.897
68252W        W40666  44.472  22.502   5.168
68253W        W40667  39.925  43.868  13.015
68254W        W40668  42.028  27.125  11.455
68255W        W40669   0.319  21.233  10.934
68256W        W40670  42.333  41.892  13.963
68257W        W40671  24.191  21.061   1.433
68258W        W40672  10.632  16.655  12.416
68259W        W40673  24.218   1.274  11.997
68260W        W40674  24.987   9.389   1.313
68261W        W40675  39.916  43.306  10.923
68262W        W40676  29.001  13.843   3.219
68263W        W40677  15.761  19.564  10.087
68264W        W40678  10.371  14.733   1.782
68265W        W40679  39.025  20.724  13.064
68266W        W40680   9.181  30.092  13.373
68267W        W40681  33.951  33.421  13.033
68268W        W40682   2.867  11.822   0.255
68269W        W40683  24.031   0.463   0.908
68270W        W40684  44.997  37.908  12.877
68271W        W40685  41.388  35.997   1.720
68272W        W40686  35.068  27.008  12.558
68273W        W40687   7.694  33.904   3.640
68274W        W40688  32.017  33.982   1.838
68275W        W40689  41.967  10.709  11.965
68276W        W40690  33.483  41.394  12.844
68277W        W40691  39.461   8.243  13.401
68278W        W40692   8.314  16.784   0.772
68279W        W40693   8.323  37.569   3.768
68280W        W40694  34.526  25.209   2.832
68281W        W40695  29.040   8.667  13.797
68282W        W40696  43.377  26.580   2.743
68283W        W40697  39.490  36.929  14.975
68284W        W40698  44.477   9.693  10.411
68285W        W40699   2.438  10.670  13.336
68286W        W40700  13.697   3.418  12.369
68287W        W40701   4.896  38.432   1.730
68288W        W40702  41.799  33.065   0.921
68289W        W40703  27.514   6.732  14.762
68290W        W40704  19.283  18.756  11.954
68291W        W40705  41.963  42.836  11.107
68292W        W40706  16.077  41.967   2.835
68293W        W40707  39.957   3.908  12.845
68294W        W40708  11.290  20.128  13.455
68295W        W40709  38.344  16.276  14.293
68296W        W40710  36.864  38.042  11.596
68297W        W40711   3.794   7.728  13.855
68298W        W40712  25.188   2.347  13.812
68299W        W40713  40.443  20.558   2.405
68300W        W40714  22.558   2.810   2.364
68301W        W40715  22.119  38.836  11.530
68302W        W40716  13.342   6.234  11.913
68303W        W40717   4.735  20.130  14.832
68304W        W40718  14.695  27.657   0.855
68305W        W40719   8.718   7.732   1.297
68306W        W40720  26.202  42.510  14.017
68307W        W40721  11.321  15.672  11.373
68308W        W40722  23.005  11.361  14.382
68309W        W40723  30.529  29.469   1.420
68310W        W40724   2.279  16.635   3.209
68311W        W40725  26.533  33.626   1.257
68312W        W40726  38.476  26.180  14.008
68313W        W40727   9.316  12.693  11.938
68314W        W40728  26.989  37.450  14.827
68315W        W40729   1.277  28.624   3.835
68316W        W40730  33.410  37.545   4.794
68317W        W40731   6.308   8.726   4.774
68318W        W40732  34.454  39.508   0.418
68319W        W40733   2.851  39.371  10.433
68320W        W40734  23.123  12.297  11.493
68321W        W40735  32.100   2.254  13.512
68322W        W40736   2.333   6.356   1.403
68323W        W40737   1.809  44.891  10.517
68324W        W40738  17.564  22.037   4.698
68325W        W40739  26.702   6.702  13.800
68326W        W40740  35.055  29.547   1.311
68327W        W40741  43.370  42.457   1.234
68328W        W40742  33.392  44.365  12.544
68329W        W40743  17.557   0.953   3.735
68330W        W40744  25.476  26.038   0.885
68331W        W40745  26.482  11.273  13.525
68332W        W40746  39.874  33.548   2.202
68333W        W40747  35.975   4.826  14.482
68334W        W40748   5.857  33.573  13.391
68335W        W40749   2.428  37.048  11.956
68336W        W40750  44.430  17.195   4.196
68337W        W40751  26.619   9.279   3.254
68338W        W40752  40.460  41.372  12.062
68339W        W40753   4.898  34.905   4.132
68340W        W40754  39.955  38.920   2.678
68341W        W40755  16.234  16.633  13.343
68342W        W40756  41.428  14.814  10.551
68343W        W40757  21.155  44.778  12.420
68344W        W40758  26.165  18.163   3.723
68345W        W40759  30.076  23.674   3.723
68346W        W40760  27.170   8.856  14.477
68347W        W40761  14.727  19.186   9.465
68348W        W40762  21.222  14.160   4.324
68349W        W40763  32.488  13.673   1.320
68350W        W40764   1.927   0.479  10.434
68351W        W40765  26.090  11.760   3.338
68352W        W40766  42.321   7.761  11.416
68353W        W40767   5.315  39.935   5.158
68354W        W40768  18.709  28.023  11.522
68355W        W40769  39.865  34.562   0.752
68356W        W40770  20.561  26.543   1.431
68357W        W40771   7.259  24.503  14.883
68358W        W40772  11.130  23.136   3.661
68359W        W40773  14.748  23.011  13.924
68360W        W40774  24.098   1.274   3.757
68361W        W40775  27.472  32.035   3.798
68362W        W40776   1.424   3.744   0.302
68363W        W40777  13.783  44.942   4.687
68364W        W40778   8.684   7.903   1.808
68365W        W40779  22.007  13.138   3.812
68366W        W40780  39.049   1.889  10.454
68367W        W40781  41.303  28.108  12.917
68368W        W40782  10.688  21.018   2.802
68369W        W40783  10.717  25.525  11.474
68370W        W40784  21.035  41.828  13.391
68371W        W40785  22.690  13.753  14.029
68372W        W40786   8.899  27.453  10.475
68373W        W40787   4.754  38.998   3.699
68374W        W40788  42.447   5.794   2.711
68375W        W40789   8.858  19.606   4.309
68376W        W40790  30.070  16.115   2.334
68377W        W40791  16.579  31.920  13.465
68378W        W40792  26.044   6.316  11.118
68379W        W40793  38.036  35.531   0.874
68380W        W40794  20.531  21.138   0.374
68381W        W40795  31.465  24.190  13.025
68382W        W40796  39.381  29.075   2.229
68383W        W40797  39.822   8.281  12.038
68384W        W40798  26.146   6.707  11.598
68385W        W40799   9.189  37.962   4.169
68386W        W40800  18.055  20.618   2.362
68387W        W40801   5.885  15.794   4.791
68388W        W40802  29.608  39.346  12.954
68389W        W40803  19.534  38.535   3.636
68390W        W40804  21.756   0.336   1.340
68391W        W40805  37.054  22.653  11.077
68392W        W40806   6.684   0.939   4.135
68393W        W40807  26.185   3.859   2.817
68394W        W40808  27.023  19.239   2.321
68395W        W40809  28.571  14.222   4.827
68396W        W40810   7.753  20.149   2.409
68397W        W40811  33.615   9.874   1.822
68398W        W40812  41.818  11.227   2.846
68399W        W40813   9.790   2.919   1.742
68400W        W40814   5.348  42.505  12.094
68401W        W40815  14.275  36.550  14.817
68402W        W40816  32.629  43.771   4.184
68403W        W40817   2.267  38.466   3.720
68404W        W40818  14.725  44.902   3.782
68405W        W40819  25.985  31.053   4.287
68406W        W40820  21.207  31.034   3.856
68407W        W40821  40.429   2.767   1.393
68408W        W40822   8.707  38.395  13.448
68409W        W40823  36.981   8.847   2.684
68410W        W40824   9.670  24.538   2.240
68411W        W40825  29.058  14.798  11.036
68412W        W40826   1.868  26.148   3.741
68413W        W40827  26.989  35.395  12.400
68414W        W40828   4.837  30.070  12.512
68415W        W40829  32.086  37.945  10.631
68416W        W40830  24.173  15.591  12.021
68417W        W40831  32.949   3.904  14.911
68418W        W40832  19.715  21.745   1.241
68419W        W40833  42.930  22.128  14.406
68420W        W40834   7.827  34.433   0.270
68421W        W40835  22.046  16.102   2.778
68422W        W40836  33.430  29.142  12.055
68423W        W40837  35.057  27.985   1.820
68424W        W40838  38.920  42.031   4.691
68425W        W40839  18.706  14.621  10.618
68426W        W40840  29.560  17.217   0.398
68427W        W40841  40.896  12.692   4.275
68428W        W40842  20.600  37.394   2.367
68429W        W40843  36.570   5.399   4.838
68430W        W40844   5.922   6.834  14.301
68431W        W40845  14.186  15.170  14.887
68432W        W40846  17.648   2.895  12.095
68433W        W40847  30.950  32.142   2.226
68434W        W40848   8.384   7.742  12.470
68435W        W40849  20.075  44.958   1.779
68436W        W40850  15.304  32.540   4.771
68437W        W40851   1.343   4.724   3.699
68438W        W40852  41.398  18.620   1.906
68439W        W40853   4.239  17.086  10.427
68440W        W40854  12.162  30.445  11.894
68441W        W40855  20.124  22.578   2.245
68442W        W40856  24.173  43.337   0.341
68443W        W40857  41.833  28.571  11.008
68444W        W40858  41.333   8.673   0.872
68445W        W40859  24.543  27.025   0.253
68446W        W40860  23.521  26.596   3.309
68447W        W40861  19.779  35.910  14.017
68448W        W40862  18.055  18.709   0.397
68449W        W40863  24.594   6.204  13.883
68450W        W40864  41.404   3.719   0.755
68451W        W40865  23.091   2.915  10.463
68452W        W40866   8.809  35.069   1.300
68453W        W40867  42.319  10.810  12.929
68454W        W40868  24.005  41.005   2.221
68455W        W40869  36.555  15.668  13.064
68456W        W40870  22.187  33.432  12.906
68457W        W40871   3.293  31.108   5.264
68458W        W40872  20.105   0.375  10.077
68459W        W40873   9.784   5.816   1.401
68460W        W40874   4.908  32.593   2.394
68461W        W40875  31.442  21.653  13.960
68462W        W40876  28.610  38.455  10.553
68463W        W40877  31.114  19.656   1.275
68464W        W40878  16.697  23.020   3.264
68465W        W40879  12.768  36.851   4.770
68466W        W40880  16.616  15.172  12.391
68467W        W40881  44.472  15.715   1.253
68468W        W40882  32.102  18.189  10.522
68469W        W40883  24.179  20.661   3.766
68470W        W40884  14.632   7.803   1.313
68471W        W40885   0.339  22.556   3.779
68472W        W40886  35.439  11.674  11.601
68473W        W40887   9.769  35.494   4.170
68474W        W40888   6.298  32.506   1.924
68475W        W40889   8.831  41.027  13.024
68476W        W40890  44.438  37.931   4.816
68477W        W40891  11.713  38.860   1.271
68478W        W40892   3.797  22.646  14.488
68479W        W40893  24.723  12.336  11.126
68480W        W40894  23.238   0.313  13.905
68481W        W40895   5.697  38.560   3.724
68482W        W40896  27.153   6.740   1.791
68483W        W40897  17.576   5.320  11.904
68484W        W40898  14.101  10.379  12.877
68485W        W40899  28.947  30.063  14.004
68486W        W40900  14.779  21.090   2.303
68487W        W40901  22.069   9.754   1.355
68488W        W40902   6.247   4.392   0.775
68489W        W40903  25.614   2.835  14.309
68490W        W40904  20.068  38.487   2.307
68491W        W40905   6.218  15.253  10.410
68492W        W40906   2.370  36.554   4.286
68493W        W40907  27.468   6.681  14.294
68494W        W40908  36.937  35.462   4.699
68495W        W40909   2.894  36.956   2.877
68496W        W40910  29.971  38.546   4.839
68497W        W40911  33.531   8.269   4.736
68498W        W40912  23.523  33.433   3.815
68499W        W40913  32.143   6.416  11.898
68500W        W40914  39.555   6.335  14.454
68501W        W40915  24.008   1.932  13.042
68502W        W40916  32.079  13.139  14.489
68503W        W40917   5.766   2.895  10.634
68504W        W40918  30.122  44.937   4.679
68505W        W40919   2.405  40.369   1.735
68506W        W40920  42.461  38.341  12.418
68507W        W40921   7.808   0.976  12.503
68508W        W40922  32.589  34.397  11.923
68509W        W40923   4.828  10.201  11.539
68510W        W40924  38.955  44.796   0.865
68511W        W40925   4.701  30.551   1.233
68512W        W40926  26.518   2.339   3.771
68513W        W40927   6.859   1.954  14.304
68514W        W40928  36.443  28.623   1.418
68515W        W40929  41.016  33.529  12.382
68516W        W40930  31.420   8.245   1.345
68517W        W40931  15.196  43.297   1.403
68518W        W40932  23.087  33.402  12.943
68519W        W40933   2.320  39.407  13.546
68520W        W40934  15.200  32.949   4.228
68521W        W40935  36.011  15.328  11.922
68522W        W40936  26.021   8.773   0.888
68523W        W40937  37.480  31.962   2.821
68524W        W40938  18.666  32.429   2.403
68525W        W40939  38.518  38.401   4.753
68526W        W40940  30.064  29.518  11.379
68527W        W40941  21.028  10.662   1.913
68528W        W40942  21.674  25.964   3.840
68529W        W40943   2.404  35.534  13.477
68530W        W40944  37.480  28.008   0.904
68531W        W40945   6.189  34.522  10.436
68532W        W40946  32.507  27.081  11.541
68533W        W40947   0.463  23.993  14.312
68534W        W40948  14.802  14.106  10.587
68535W        W40949  10.205  16.801   5.314
68536W        W40950  18.549  18.085  12.495
68537W        W40951  23.148  21.222  10.000
68538W        W40952  34.873  33.994   2.821
68539W        W40953   3.775  30.980   2.728
68540W        W40954  26.688  31.924   3.244
68541W        W40955  28.571  43.907  12.034
68542W        W40956  34.044  34.489  13.031
68543W        W40957   8.169   6.381   4.115
68544W        W40958  39.938   9.829   1.706
68545W        W40959  13.128  34.025  13.525
68546W        W40960  21.518  19.622  13.049
68547W        W40961  29.588  28.992  12.984
68548W        W40962  44.318  25.559   0.260
68549W        W40963  38.033  36.023  14.022
68550W        W40964  29.081  30.538  11.101
68551W        W40965  21.644   1.749  12.523
68552W        W40966   2.270  36.370   1.312
68553W        W40967  30.043  34.563  12.462
68554W        W40968   0.308  23.169  12.502
68555W        W40969  12.718  35.371  13.974
68556W        W40970  16.663  10.143  14.349
68557W        W40971   4.932   6.225   5.256
68558W        W40972  19.167  30.023  14.515
68559W        W40973   9.212  22.609   3.636
68560W        W40974  15.121  12.687  13.483
68561W        W40975  44.445  12.288  12.967
68562W        W40976   9.874   8.791  11.544
68563W        W40977  34.542  32.568  11.998
68564W        W40978  23.649  34.544  13.965
68565W        W40979  14.783   6.288  13.853
68566W        W40980  19.262  34.596  12.416
68567W        W40981  27.508  23.000  12.072
68568W        W40982  18.664  18.623   1.900
68569W        W40983   6.734  31.915   3.654
68570W        W40984  30.600  30.918   1.700
68571W        W40985   0.965   9.677  11.074
68572W        W40986  31.953  34.472   4.760
68573W        W40987  34.546  31.516  13.317
68574W        W40988   1.927  36.961   2.758
68575W        W40989   8.889  43.283  13.510
68576W        W40990   9.778   6.802  13.912
68577W        W40991  17.712   6.797   3.800
68578W        W40992  33.505  29.491   3.716
68579W        W40993   9.719  11.286   0.465
68580W        W40994  15.820   8.393  11.063
68581W        W40995  28.162  25.980  13.978
68582W        W40996  27.171   2.282   3.853
68583W        W40997  14.129  30.452   4.185
68584W        W40998  30.632   9.209   1.413
68585W        W40999   5.407   7.842   2.343
68586W        W41000  23.729   9.646   1.295
68587W        W41001  41.528  23.998  14.818
68588W        W41002  29.651  42.323  14.456
68589W        W41003  10.833  27.006  14.460
68590W        W41004   9.175  44.869  14.009
68591W        W41005  35.565  29.960  13.506
68592W        W41006  23.528  24.624   4.348
68593W        W41007  23.147  24.217  10.540
68594W        W41008   8.858  13.753   3.183
68595W        W41009  22.241   8.769  10.471
68596W        W41010  43.446  38.560   0.811
68597W        W41011  21.222  21.246   4.327
68598W        W41012   5.341  24.673   3.800
68599W        W41013   8.870   2.357   2.281
68600W        W41014  22.023  30.563   0.446
68601W        W41015  27.513  11.252  11.494
68602W        W41016  32.407   1.891   3.651
68603W        W41017   4.311  27.020   3.305
68604W        W41018  24.118  16.138  12.922
68605W        W41019  16.189  29.547   1.229
68606W        W41020  11.334  37.044   4.311
68607W        W41021  11.674  29.446  13.997
68608W        W41022   6.344   2.943  10.928
68609W        W41023  26.540  22.097  13.400
68610W        W41024  26.979  12.254  10.952
68611W        W41025  30.142  10.219   0.280
68612W        W41026  14.330   2.472  10.577
68613W        W41027   9.712  23.072  13.958
68614W        W41028   9.208   8.334  12.545
68615W        W41029  44.308  16.748  12.452
68616W        W41030  15.638  22.042  13.361
68617W        W41031  15.323  13.163  14.870
68618W        W41032  21.579  21.203   2.705
68619W        W41033  18.713  22.207   2.243
68620W        W41034   1.750  23.224  11.568
68621W        W41035   3.239  25.603   2.886
68622W        W41036  41.877   2.810  12.926
68623W        W41037  17.165  19.128  12.557
68624W        W41038  27.470  27.109   1.890
68625W        W41039  20.257  14.667   1.894
68626W        W41040  27.511  31.410  11.535
68627W        W41041  40.999  36.998   2.205
68628W        W41042  16.706  22.645  13.043
68629W        W41043  36.573   4.903  11.079
68630W        W41044  20.211  42.983  14.509
68631W        W41045   7.315  30.998  10.574
68632W        W41046   7.865  26.653   0.946
68633W        W41047  16.287  16.685   1.392
68634W        W41048  27.174   3.846   2.829
68635W        W41049   1.824  18.091   3.385
68636W        W41050  15.713  30.055   2.669
68637W        W41051  42.023  41.820   1.909
68638W        W41052   3.834  18.698   1.910
68639W        W41053  32.570  42.020  14.809
68640W        W41054  31.127  15.698  13.496
68641W        W41055   5.267  11.366   4.775
68642W        W41056   1.751  13.828  13.321
68643W        W41057  34.896  38.380  10.532
68644W        W41058  40.492  39.542  12.877
68645W        W41059  35.958   7.796   0.928
68646W        W41060  29.010  43.998  13.933
68647W        W41061  18.087  41.939   0.860
68648W        W41062  15.240  13.692  12.464
68649W        W41063  43.970   2.927  13.883
68650W        W41064  22.234  16.591   2.742
68651W        W41065  42.524  34.427  10.959
68652W        W41066   3.411  35.368   3.226
68653W        W41067  12.179  30.491   4.794
68654W        W41068  42.396  17.710   4.127
68655W        W41069  15.168  38.526  10.953
68656W        W41070  26.649   2.867  14.455
68657W        W41071  27.160  13.826   0.280
68658W        W41072  44.987   6.233  14.810
68659W        W41073   1.867  32.581  10.488
68660W        W41074  25.077  30.502   4.652
68661W        W41075   2.306  19.083  14.369
68662W        W41076  19.641  31.100  13.525
68663W        W41077  30.601  39.878  13.910
68664W        W41078  39.369  12.674  14.414
68665W        W41079   4.841   7.698  10.512
68666W        W41080  31.616  24.038  14.844
68667W        W41081  41.514  30.008  11.531
68668W        W41082  11.189  26.133   2.871
68669W        W41083  24.096  17.784   0.794
68670W        W41084  24.655  26.058  14.398
68671W        W41085  16.632   7.793   2.357
68672W        W41086  43.017  24.593   2.690
68673W        W41087  42.497  18.226  13.801
68674W        W41088  42.513  29.044   3.761
68675W        W41089   1.948   4.398  11.374
68676W        W41090  34.532  11.835  11.532
68677W        W41091  33.518   4.846  11.383
68678W        W41092   4.738  15.098  13.876
68679W        W41093   2.757  31.430  10.588
68680W        W41094   0.949  13.797   2.294
68681W        W41095  33.131   9.168   0.862
68682W        W41096  30.463  40.347   0.298
68683W        W41097  17.220   7.679   5.292
68684W        W41098  41.031   9.371   3.826
68685W        W41099  35.483  17.580   1.923
68686W        W41100  41.805  27.632  14.451
68687W        W41101  35.905  20.637  13.008
68688W        W41102  21.677  19.278   1.695
68689W        W41103  13.296  15.300  14.446
68690W        W41104  25.584  21.758  13.312
68691W        W41105  44.769  19.627   2.819
68692W        W41106  43.926   4.311  13.016
68693W        W41107  32.897  35.424   4.633
68694W        W41108  44.352  11.316  14.955
68695W        W41109  31.112  37.483   4.705
68696W        W41110  41.903   5.791  11.990
68697W        W41111  31.963  35.100  11.579
68698W        W41112  21.021  33.508   1.834
68699W        W41113  36.092  21.099   2.249
68700W        W41114  36.383  15.641   4.211
68701W        W41115   7.827  34.014  14.848
68702W        W41116  26.667  31.474  11.547
68703W        W41117   1.738  15.779  14.505
68704W        W41118   3.256  29.488   1.734
68705W        W41119  15.188  28.163  11.957
68706W        W41120  37.861  29.512  12.507
68707W        W41121  27.668   2.426   3.806
68708W        W41122   4.252  43.477   3.643
68709W        W41123  31.647  13.743   0.309
68710W        W41124  12.209  20.760  13.472
68711W        W41125  12.191  13.135   2.211
68712W        W41126  19.539  23.561  14.324
68713W        W41127  30.057  41.461   0.295
68714W        W41128  23.079  32.544  13.914
68715W        W41129  10.725   4.852   0.963
68716W        W41130  17.165   8.810  12.567
68717W        W41131   3.782  32.098   0.250
68718W        W41132  34.120  26.028  13.330
68719W        W41133  37.435  10.246   5.297
68720W        W41134  20.184  11.214   4.610
68721W        W41135  35.054  29.621   0.398
68722W        W41136   2.230  16.619   2.221
68723W        W41137  29.502   0.762  12.390
68724W        W41138   3.842  35.011  12.395
68725W        W41139  14.639  38.365  12.578
68726W        W41140   9.374   5.716   0.808
68727W        W41141   8.738  31.574  14.984
68728W        W41142  34.509  12.779  14.427
68729W        W41143  28.126   2.406  10.111
68730W        W41144  11.743  41.905  14.372
68731W        W41145  16.191   3.744  11.387
68732W        W41146   3.810  23.141  14.292
68733W        W41147   9.222   3.939   0.277
68734W        W41148   1.744  29.967  12.012
68735W        W41149   4.260  27.506  14.946
68736W        W41150  31.024  36.354   4.765
68737W        W41151  44.905  21.683  14.832
68738W        W41152  15.734  43.966  10.054
68739W        W41153  12.644  25.202   0.813
68740W        W41154  42.973  15.808  13.891
68741W        W41155  14.180  17.628  12.980
68742W        W41156  33.087  16.190   2.330
68743W        W41157  29.156   3.225   0.359
68744W        W41158  32.005  23.661   2.405
68745W        W41159   1.329  32.595   1.779
68746W        W41160  15.313  31.942  14.362
68747W        W41161  42.451   4.250  14.426
68748W        W41162  26.085  19.636   5.224
68749W        W41163  29.578  30.024  13.036
68750W        W41164  14.834   9.232   2.346
68751W        W41165  16.164  23.130   0.905
68752W        W41166   3.314   8.811   1.877
68753W        W41167  26.467  42.837  14.369
68754W        W41168  43.363  22.170   4.659
68755W        W41169  44.883  26.666  12.940
68756W        W41170  32.481   3.240   4.174
68757W        W41171  12.693   2.902  13.987
68758W        W41172  20.214   7.787  14.372
68759W        W41173  32.516  22.639  14.760
68760W        W41174  15.714  17.075   1.420
68761W        W41175   8.290  20.258  11.493
68762W        W41176  10.832  40.548   4.766
68763W        W41177  18.092  24.012   0.443
68764W        W41178   1.821  39.982   3.236
68765W        W41179   3.236  18.551   3.183
68766W        W41180  20.041  30.909  14.459
68767W        W41181  43.459  14.608   0.426
68768W        W41182   7.339  11.316  11.452
68769W        W41183  19.764   9.193  11.467
68770W        W41184  34.501  23.140  10.502
68771W        W41185  13.788  37.459   5.239
68772W        W41186  36.911  39.809   4.653
68773W        W41187  40.910  31.929   1.308
68774W        W41188  32.102  11.209  11.879
68775W        W41189  14.782   5.332  14.408
68776W        W41190  44.821  25.610   4.264
68777W        W41191  31.114  41.981   1.412
68778W        W41192  42.869  24.012   2.702
68779W        W41193  12.727  33.056  12.354
68780W        W41194  44.427  43.884  10.589
68781W        W41195  11.851  36.993  10.537
68782W        W41196  41.364  31.562  14.805
68783W        W41197  36.066  33.055  12.074
68784W        W41198  11.709  30.645  13.836
68785W        W41199  41.807  24.072  11.568
68786W        W41200  21.719  17.209  12.413
68787W        W41201  42.946  43.483  11.993
68788W        W41202  13.112  12.805   5.285
68789W        W41203   0.899  34.573  12.868
68790W        W41204  33.489  20.699   4.294
68791W        W41205   4.223  28.645   4.650
68792W        W41206  22.604  39.503  14.873
68793W        W41207   3.382  40.014  10.578
68794W        W41208  38.937  26.008   4.165
68795W        W41209   4.883  40.519   9.520
68796W        W41210  36.071  44.917   2.405
68797W        W41211   3.275  18.166   2.871
68798W        W41212  17.156   9.847  12.555
68799W        W41213  39.808   4.413  13.380
68800W        W41214  36.476  37.958   3.779
68801W        W41215  28.437  11.692   0.348
68802W        W41216  18.245  36.385  13.899
68803W        W41217  31.617   1.288  10.598
68804W        W41218  21.714  29.927  14.924
68805W        W41219  28.153  31.970  13.897
68806W        W41220  39.333   4.277  14.031
68807W        W41221   0.415  44.879   1.400
68808W        W41222  13.109  38.379  14.817
68809W        W41223  14.326  15.818   2.742
68810W        W41224  21.154   1.742   4.221
68811W        W41225   0.399  31.562  14.376
68812W        W41226  35.379  28.589  12.830
68813W        W41227  16.694  35.375   2.679
68814W        W41228  11.288  39.816   0.948
68815W        W41229  36.575   6.393  14.385
68816W        W41230  32.503  15.762  11.943
68817W        W41231  14.624  40.931   1.776
68818W        W41232  39.992  35.067   0.322
68819W        W41233  36.864  39.973   0.781
68820W        W41234  37.462  14.227   0.805
68821W        W41235   1.304   4.742  11.371
68822W        W41236   7.287  39.479   3.281
68823W        W41237  11.208  27.189  14.764
68824W        W41238  31.955  26.499   3.377
68825W        W41239  24.205   5.377   3.855
68826W        W41240  35.913  22.632  13.887
68827W        W41241   8.741  31.131  11.122
68828W        W41242  38.530  20.220   3.697
68829W        W41243  37.501  17.677   4.762
68830W        W41244  27.189   7.224  12.538
68831W        W41245  21.174  38.514  14.435
68832W        W41246   3.855  15.774  11.543
68833W        W41247  21.672  13.342   4.127
68834W        W41248   5.858  37.842   3.310
68835W        W41249  39.921  24.616   2.896
68836W        W41250   3.360  33.920  12.043
68837W        W41251   5.258  17.200   4.186
68838W        W41252  40.836  32.458  11.096
68839W        W41253  27.666  42.461  14.275
68840W        W41254  13.676  39.330   0.894
68841W        W41255  31.038  36.405   1.735
68842W        W41256  12.711   5.339   3.319
68843W        W41257  15.778  14.175   4.712
68844W        W41258  32.616  21.114  13.898
68845W        W41259  35.380   0.808  12.417
68846W        W41260  19.279  12.233   3.230
68847W        W41261  36.061  10.211  14.419
68848W        W41262  26.178   8.280   4.661
68849W        W41263  44.317  21.693   0.844
68850W        W41264  12.152   2.441  10.489
68851W        W41265   3.800  40.331  12.863
68852W        W41266  15.683  38.568  14.422
68853W        W41267  17.659  32.044   1.369
68854W        W41268  23.043  26.150   1.763
68855W        W41269   6.768   8.781  13.469
68856W        W41270  27.014  41.928  12.934
68857W        W41271  42.937   3.806   4.259
68858W        W41272  13.278   1.873  14.279
68859W        W41273  26.979  31.961  12.916
68860W        W41274   9.151  14.602   4.731
68861W        W41275  19.176  32.625   1.225
68862W        W41276  19.117  16.602  12.837
68863W        W41277  43.767   3.394  12.086
68864W        W41278   9.747  18.268  12.038
68865W        W41279  26.696  25.581   1.884
68866W        W41280  36.374  19.533   3.148
68867W        W41281  39.551  24.513  12.412
68868W        W41282  13.687  39.537  13.402
68869W        W41283   4.291  32.611   2.184
68870W        W41284  34.009   0.783  13.979
68871W        W41285  17.159  41.958  14.939
68872W        W41286  24.216  38.357   1.779
68873W        W41287  35.015  14.721   1.800
68874W        W41288   3.407  21.074   2.376
68875W        W41289  38.373  11.133   0.311
68876W        W41290  37.466  37.919   2.834
68877W        W41291  35.864  39.315  11.428
68878W        W41292   7.696  31.505   3.783
68879W        W41293   2.282   4.432  10.476
68880W        W41294   6.402   2.273   1.852
68881W        W41295  23.027  11.175   2.732
68882W        W41296  17.616  43.461  14.428
68883W        W41297  24.634   2.820  11.888
68884W        W41298   3.275   1.972   2.212
68885W        W41299  44.885  37.378   3.657
68886W        W41300  12.830  43.828   4.766
68887W        W41301  14.627  35.928   1.239
68888W        W41302  23.225   5.201   2.878
68889W        W41303  39.007  30.003   0.264
68890W        W41304  23.168   9.710  13.465
68891W        W41305  36.579   4.741  13.993
68892W        W41306  19.045  29.562  12.433
68893W        W41307  37.016  18.090  13.525
68894W        W41308  11.258  26.186   3.308
68895W        W41309  40.011  26.458  12.403
68896W        W41310   1.327  14.802   3.212
68897W        W41311  28.519  30.422  14.819
68898W        W41312  19.712  33.393  11.392
68899W        W41313  35.524  18.121  14.006
68900W        W41314  18.121  35.877  13.843
68901W        W41315  25.684  43.020  14.495
68902W        W41316  17.612  35.400   0.446
68903W        W41317   9.870   9.889  10.988
68904W        W41318   4.242   8.678   4.647
68905W        W41319  34.496   2.342   0.465
68906W        W41320   8.869  18.705  14.801
68907W        W41321  21.069  29.934  10.440
68908W        W41322   8.724  30.931   0.778
68909W        W41323  18.599  11.736   0.377
68910W        W41324  16.651  28.127   3.643
68911W        W41325  13.607  30.165   4.121
68912W        W41326  43.915  22.705  11.100
68913W        W41327  17.223   3.914   3.762
68914W        W41328  29.965  37.883   1.432
68915W        W41329   3.286  26.631  11.004
68916W        W41330  43.416   9.737   3.175
68917W        W41331   1.906  15.093  10.411
68918W        W41332  42.910   7.388  13.820
68919W        W41333  44.801   8.281   2.368
68920W        W41334  19.682  25.183  13.506
68921W        W41335  14.283  21.048  13.523
68922W        W41336  15.231  25.482  10.896
68923W        W41337  16.673  23.585   2.875
68924W        W41338  29.659   2.958   0.279
68925W        W41339  23.506  21.577  14.512
68926W        W41340  35.994  18.105   2.180
68927W        W41341  22.641  19.689  11.113
68928W        W41342  27.156   0.838  14.300
68929W        W41343  25.066   2.462  11.915
68930W        W41344  13.808  28.584   4.604
68931W        W41345  29.929  44.305  12.434
68932W        W41346  38.956  20.536   2.287
68933W        W41347  34.972  21.114   3.309
68934W        W41348  43.860   3.932   0.401
68935W        W41349  10.687  19.760   1.729
68936W        W41350  44.432  20.216   1.709
68937W        W41351  23.592   7.337  11.112
68938W        W41352  23.185  38.441  13.008
68939W        W41353  31.481  16.640   2.758
68940W        W41354   1.821  26.962  14.412
68941W        W41355  32.474  29.638  14.919
68942W        W41356  28.593  27.463   3.775
68943W        W41357  41.509   9.324  11.916
68944W        W41358  12.256  13.249  13.426
68945W        W41359  37.399  42.428   0.963
68946W        W41360  24.166  13.212  13.394
68947W        W41361   0.823  31.425  14.813
68948W        W41362  28.493  13.189  12.871
68949W        W41363  14.777  16.673   1.902
68950W        W41364   0.820  22.565   4.178
68951W        W41365  11.745  33.975   2.819
68952W        W41366  35.014  13.836   4.607
68953W        W41367   0.261  34.931   4.806
68954W        W41368  34.605  42.939   3.776
68955W        W41369   4.448   0.391  11.603
68956W        W41370  17.077  31.027  14.975
68957W        W41371   8.728  33.599   1.710
68958W        W41372   5.921  17.799   0.268
68959W        W41373  14.259  12.250   2.670
68960W        W41374  36.450  16.653   4.603
68961W        W41375  40.367   0.821   4.805
68962W        W41376  32.522  38.356   4.817
68963W        W41377  43.960  37.980  14.794
68964W        W41378   0.408  18.773  11.460
68965W        W41379  42.964   2.242   5.305
68966W        W41380   9.734   8.317  13.909
68967W        W41381  40.324   7.287   3.743
68968W        W41382  41.833  20.056   1.888
68969W        W41383  10.786   2.240   3.234
68970W        W41384  16.141  27.111  14.770
68971W        W41385   6.235   7.301  10.498
68972W        W41386  15.135  17.138  11.924
68973W        W41387  36.919   1.754   1.246
68974W        W41388  36.561   7.688   3.339
68975W        W41389  18.218  43.993  12.944
68976W        W41390   0.945   9.151  12.074
68977W        W41391  14.268   8.299  13.397
68978W        W41392   0.385  33.111  14.022
68979W        W41393  41.826  31.465   4.231
68980W        W41394  35.976   4.759   4.304
68981W        W41395  38.880  11.242  11.441
68982W        W41396  20.633   2.848  10.935
68983W        W41397  29.583  11.135   4.335
68984W        W41398  14.308   0.869   1.695
68985W        W41399  28.948  42.865  14.333
68986W        W41400  13.309  28.998  12.842
68987W        W41401  24.037  16.583   1.808
68988W        W41402  30.437  38.469   3.176
68989W        W41403  29.590   8.730   3.702
68990W        W41404  12.176  15.130  12.079
68991W        W41405   9.150  38.343  13.802
68992W        W41406  32.558  33.881  12.429
68993W        W41407  21.752  37.522   1.258
68994W        W41408  12.658  22.569  12.450
68995W        W41409  16.768  11.235  10.472
68996W        W41410  32.085   0.944   3.237
68997W        W41411  18.287  34.034   0.349
68998W        W41412  36.576  39.403  13.064
68999W        W41413  34.094  14.322   2.281
69000W        W41414  20.185  35.579  13.508
69001W        W41415  41.797   5.701   1.266
69002W        W41416  43.508  21.714  13.531
69003W        W41417  44.780   7.709  13.361
69004W        W41418   4.830  29.644  10.626
69005W        W41419   9.168  42.887   4.293
69006W        W41420  11.221  14.757  12.875
69007W        W41421   1.738   4.821  13.387
69008W        W41422   5.368  13.732  14.778
69009W        W41423  29.067  11.206   1.892
69010W        W41424  23.532  44.004  13.828
69011W        W41425  37.522   6.751   3.713
69012W        W41426   3.355  33.919   2.851
69013W        W41427   9.832  33.578  14.006
69014W        W41428  40.017  22.226  11.080
69015W        W41429   9.395  34.558   3.288
69016W        W41430  17.267  15.084   4.257
69017W        W41431  35.023  26.580   0.337
69018W        W41432  17.767   2.762  12.579
69019W        W41433  21.054  35.398  10.553
69020W        W41434  26.162  37.034  12.922
69021W        W41435  12.208  15.666  10.073
69022W        W41436  35.445  36.923   3.368
69023W        W41437  35.927   1.389   3.754
69024W        W41438  16.607  37.861  11.036
69025W        W41439   1.743  42.334  13.983
69026W        W41440  14.592  27.629   4.611
69027W        W41441   7.274  18.194  13.346
69028W        W41442  26.136  12.293  12.499
69029W        W41443  10.238   0.375  11.970
69030W        W41444  28.437  13.603  14.016
69031W        W41445  37.006  39.919  14.843
69032W        W41446  38.849  13.305   1.825
69033W        W41447  42.366  16.100  14.806
69034W        W41448  27.957  14.786   0.259
69035W        W41449  35.438  32.010   4.252
69036W        W41450   1.432  34.455   4.631
69037W        W41451  43.912  35.380   1.854
69038W        W41452  16.721  17.115  12.979
69039W        W41453   6.719  25.576  14.331
69040W        W41454  33.505  20.031  12.069
69041W        W41455  33.505   1.769   5.312
69042W        W41456  18.179  19.263   3.802
69043W        W41457  41.306  24.572  14.025
69044W        W41458  11.321  16.166  12.833
69045W        W41459  23.222  20.575  12.500
69046W        W41460  18.169  37.042  14.849
69047W        W41461  43.813  37.445  12.965
69048W        W41462  14.827   8.751  12.887
69049W        W41463  31.905  33.906  11.397
69050W        W41464   6.296  27.166  11.937
69051W        W41465  33.428  30.435  11.099
69052W        W41466  12.770  39.530   3.787
69053W        W41467  20.764  24.485  11.972
69054W        W41468  28.048  25.161  13.428
69055W        W41469  13.334  15.608  11.410
69056W        W41470  24.653  32.430   0.476
69057W        W41471  26.200   4.811   0.932
69058W        W41472   1.371  31.933  10.983
69059W        W41473  22.509  43.971   1.414
69060W        W41474  27.096  15.326   4.284
69061W        W41475  27.511  29.460   1.231
69062W        W41476  32.050  31.419  12.919
69063W        W41477  18.678   8.780   3.166
69064W        W41478  21.153  19.161   1.763
69065W        W41479  17.111  22.133  11.023
69066W        W41480  40.915  38.841   3.206
69067W        W41481  19.715  13.184   5.112
69068W        W41482  15.710  33.451   3.159
69069W        W41483  28.088  18.603   4.261
69070W        W41484  31.015  28.950   4.642
69071W        W41485   7.673  28.537   3.723
69072W        W41486  43.425  38.877   1.398
69073W        W41487  41.040  40.460  13.381
69074W        W41488  14.704  23.547   5.276
69075W        W41489  14.639  28.631  12.062
69076W        W41490  40.520   2.463  13.465
69077W        W41491  14.325  19.060  13.422
69078W        W41492  37.922  17.272  13.345
69079W        W41493  44.871  17.600  13.887
69080W        W41494   7.851  10.193   0.783
69081W        W41495   0.937   0.779  11.578
69082W        W41496  16.574  10.383  13.507
69083W        W41497  15.109   6.203   4.789
69084W        W41498  26.139  18.631   3.781
69085W        W41499  19.695  26.457   4.127
69086W        W41500  22.621  26.008  12.558
69087W        W41501   7.904  14.174  14.506
69088W        W41502  12.241   7.802  11.560
69089W        W41503  11.674   8.734  11.496
69090W        W41504   3.437  14.754   4.691
69091W        W41505  44.481  33.547   9.991
69092W        W41506   1.965  11.189   1.904
69093W        W41507   9.229  34.486   2.196
69094W        W41508  43.814  40.985  12.848
69095W        W41509  26.519  31.461   0.438
69096W        W41510  31.027   7.200  14.375
69097W        W41511  16.799   1.914   0.261
69098W        W41512  16.259   5.271   2.752
69099W        W41513  12.270  18.251  14.381
69100W        W41514  16.093  14.249  11.443
69101W        W41515  19.090  13.767   4.255
69102W        W41516   3.378  39.524   2.812
69103W        W41517  34.521  26.016   1.291
69104W        W41518   6.677  14.799   0.937
69105W        W41519   9.376  23.672  12.091
69106W        W41520  39.511  44.956  12.004
69107W        W41521  29.648  31.136  10.632
69108W        W41522  34.934  12.350   3.290
69109W        W41523   8.201   2.753   1.289
69110W        W41524  14.825  24.997   4.272
69111W        W41525   5.928  19.752  10.598
69112W        W41526   1.423  39.320  14.833
69113W        W41527  29.440  14.172  13.414
69114W        W41528   2.319  20.203   1.321
69115W        W41529  22.602  16.673   9.466
69116W        W41530  38.852   6.419   1.267
69117W        W41531   6.203  24.071   4.165
69118W        W41532  42.996  11.148  13.993
69119W        W41533  32.062  40.476  13.308
69120W        W41534  35.387   2.237  10.474
69121W        W41535  18.056  36.983  11.607
69122W        W41536   4.905  15.599   0.421
69123W        W41537  33.940  11.623  11.053
69124W        W41538  11.326   7.754   1.385
69125W        W41539  34.041  32.008   1.338
69126W        W41540   9.759  21.623   0.781
69127W        W41541   8.809  38.516  14.943
69128W        W41542  31.955  20.651   4.289
69129W        W41543  16.154  33.455  12.395
69130W        W41544   0.859   8.847  14.291
69131W        W41545  36.898   2.853   0.919
69132W        W41546  30.630  25.082   2.704
69133W        W41547  33.009  13.241  11.103
69134W        W41548  33.436  22.742   0.915
69135W        W41549   6.293  19.637  10.051
69136W        W41550  24.113  23.605  13.350
69137W        W41551  26.642  27.615  12.951
69138W        W41552  33.077  10.223   0.747
69139W        W41553  11.167  36.407  10.496
69140W        W41554   0.829  23.683   0.727
69141W        W41555  31.452  26.207  14.434
69142W        W41556  10.148  13.269  14.999
69143W        W41557   2.891  26.575   0.437
69144W        W41558   4.768  43.382  11.923
69145W        W41559  32.543  36.859   4.261
69146W        W41560  31.528  37.548   0.354
69147W        W41561   7.295  19.568  13.381
69148W        W41562  17.795  43.006   2.809
69149W        W41563   0.264  40.490  11.525
69150W        W41564  42.492  30.087  11.066
69151W        W41565   3.433  17.720   4.799
69152W        W41566  34.368  23.221  12.974
69153W        W41567  40.534  30.495   4.647
69154W        W41568   4.761   5.337  13.861
69155W        W41569  22.124  41.401  11.012
69156W        W41570  39.908  24.707  12.079
69157W        W41571  18.722  43.481   0.368
69158W        W41572  33.483  33.993  13.986
69159W        W41573  34.103   0.349  14.388
69160W        W41574   7.898  38.550   4.824
69161W        W41575  34.486  24.640  11.084
69162W        W41576  18.766  19.631  12.486
69163W        W41577  21.557  44.783  14.417
69164W        W41578  23.695  32.895  14.985
69165W        W41579   6.726  21.542  10.539
69166W        W41580   4.779   1.861   1.399
69167W        W41581  13.655  32.040  13.465
69168W        W41582  25.030  41.003   4.693
69169W        W41583  36.944  24.629  12.494
69170W        W41584  15.108  31.548   3.168
69171W        W41585  24.185   2.777  11.557
69172W        W41586  39.818   4.342  14.327
69173W        W41587  12.812  33.113  14.451
69174W        W41588  20.640   5.407   3.290
69175W        W41589  25.139   5.419   1.800
69176W        W41590   2.394   2.735  13.502
69177W        W41591  30.163  35.495   0.376
69178W        W41592  41.528   1.369   0.480
69179W        W41593  10.856  18.230  12.857
69180W        W41594  32.567  29.458  12.519
69181W        W41595  29.050  13.122   2.809
69182W        W41596  12.184  41.500   0.445
69183W        W41597  26.467  13.177   2.726
69184W        W41598   9.303  20.769   4.324
69185W        W41599  32.400  12.624  12.448
69186W        W41600  20.649  39.809  14.932
69187W        W41601   8.402  20.671   3.263
69188W        W41602  40.530  20.587  10.513
69189W        W41603  29.447  38.414  14.955
69190W        W41604  26.023  34.512  12.850
69191W        W41605   2.267   4.847   2.249
69192W        W41606  36.890  10.787   1.887
69193W        W41607   6.913   6.191   2.789
69194W        W41608  41.898  19.106  14.020
69195W        W41609  37.011   5.433   3.229
69196W        W41610  41.369  18.184   1.809
69197W        W41611  34.451  23.508   9.580
69198W        W41612   7.319  25.693  13.998
69199W        W41613  18.267  14.629   3.158
69200W        W41614  32.977  33.505   4.183
69201W        W41615  43.361  29.050  13.809
69202W        W41616   9.153   1.795   2.759
69203W        W41617  13.205  41.451  14.802
69204W        W41618  10.139  24.990   4.611
69205W        W41619   1.447   1.892   3.749
69206W        W41620  20.596  18.757   3.819
69207W        W41621  32.102  34.975   0.468
69208W        W41622  42.356  37.574   5.140
69209W        W41623  36.094  17.084   5.258
69210W        W41624  27.008  22.032  14.463
69211W        W41625  36.529  44.930  13.927
69212W        W41626   9.163  33.559  11.103
69213W        W41627  11.822  30.506  12.559
69214W        W41628  23.539  36.386   3.807
69215W        W41629  29.978   2.942   3.846
69216W        W41630  25.052  14.297  10.424
69217W        W41631  36.011  18.252   3.199
69218W        W41632   0.903  29.462   4.205
69219W        W41633  13.244   9.748   2.263
69220W        W41634  21.526   3.877  12.560
69221W        W41635  14.296   0.367  11.994
69222W        W41636  38.455   0.925   2.323
69223W        W41637  35.857  41.301  10.468
69224W        W41638   0.453  27.017   0.431
69225W        W41639  17.180  44.332  11.003
69226W        W41640   2.361  12.688   4.283
69227W        W41641  35.088  16.802   1.910
69228W        W41642  33.919  37.527  11.415
69229W        W41643  15.779   2.435   2.690
69230W        W41644  44.443  23.688  13.318
69231W        W41645   6.733   3.934   2.880
69232W        W41646  15.664  19.695  10.430
69233W        W41647  25.037  17.148  14.507
69234W        W41648  23.529   5.198   0.878
69235W        W41649   1.471  25.976   2.341
69236W        W41650  16.186  34.066  13.315
69237W        W41651   3.273  17.713   1.368
69238W        W41652  43.402  34.575  10.566
69239W        W41653  13.289   4.880   2.305
69240W        W41654  24.975  42.404  14.025
69241W        W41655   5.201  36.908   3.735
69242W        W41656   0.864   6.884   4.150
69243W        W41657  13.794  31.432  11.906
69244W        W41658  27.552  27.609   2.831
69245W        W41659   7.416  42.010   2.663
69246W        W41660  41.382  32.556  14.922
69247W        W41661  28.972  39.454   4.738
69248W        W41662  30.474  44.320   0.910
69249W        W41663  11.342  41.000  11.907
69250W        W41664  21.250  38.459   2.272
69251W        W41665  21.163   7.196   2.708
69252W        W41666   9.316   6.243   3.799
69253W        W41667  20.111  44.901  14.957
69254W        W41668  36.514   5.216   3.730
69255W        W41669  25.026  38.876   1.914
69256W        W41670  21.574   2.859   3.229
69257W        W41671  32.410   8.208   3.796
69258W        W41672  43.995  12.278   4.715
69259W        W41673  22.591  18.220   0.778
69260W        W41674  40.441  24.564   3.719
69261W        W41675  29.992  41.925   1.834
69262W        W41676  43.435  29.071  10.456
69263W        W41677  29.051  29.550  13.019
69264W        W41678  35.049  26.474  10.156
69265W        W41679  44.368  26.700   3.631
69266W        W41680  20.693  28.181  10.638
69267W        W41681   8.866  29.486   2.873
69268W        W41682  16.719  44.365   3.186
69269W        W41683  37.910   0.428  10.963
69270W        W41684  12.714   4.348  10.440
69271W        W41685  21.026  19.278  11.577
69272W        W41686  31.072  21.049  14.987
69273W        W41687  23.151  24.040  12.531
69274W        W41688  25.203  27.671   1.775
69275W        W41689  15.085  31.016   4.797
69276W        W41690  38.410  21.695  11.965
69277W        W41691  19.283  12.691  11.913
69278W        W41692  34.869   6.357  10.447
69279W        W41693  28.643  39.910   3.708
69280W        W41694  17.138  37.381  10.093
69281W        W41695  16.316  28.561   1.915
69282W        W41696  43.351   7.383  13.405
69283W        W41697  20.227  22.530   3.254
69284W        W41698  36.531  43.880   0.272
69285W        W41699  34.435   0.307  11.555
69286W        W41700  34.457  27.458   3.647
69287W        W41701  19.178   1.357   3.813
69288W        W41702  19.644  43.310   0.276
69289W        W41703  17.160   2.279  14.910
69290W        W41704  35.902  28.537   0.296
69291W        W41705  11.275  20.224   3.728
69292W        W41706  29.921  41.339  11.554
69293W        W41707  22.695   3.882  14.438
69294W        W41708  31.600  12.797  14.458
69295W        W41709   2.866  40.445   5.729
69296W        W41710  10.252  26.654  12.910
69297W        W41711  14.132  12.241  14.472
69298W        W41712  15.130  26.081  12.874
69299W        W41713  14.188  18.588  11.536
69300W        W41714  21.551  27.513   0.829
69301W        W41715   5.706   1.240  11.430
69302W        W41716   5.886  25.487   0.888
69303W        W41717  35.520   0.811  13.844
69304W        W41718  36.079  35.959   1.389
69305W        W41719  22.559  25.670   1.336
69306W        W41720   0.822   8.257   0.325
69307W        W41721   0.750  24.530   1.358
69308W        W41722  42.927  33.940   1.387
69309W        W41723  30.026  38.372   1.719
69310W        W41724  25.183  26.969  14.876
69311W        W41725   5.927  43.932   2.257
69312W        W41726   1.277  36.502  10.925
69313W        W41727   1.461  30.946   3.772
69314W        W41728  10.335  26.954  14.504
69315W        W41729  18.198  34.434   1.735
69316W        W41730  17.747  29.919  13.448
69317W        W41731  25.704  43.458   1.345
69318W        W41732   0.310  31.918   1.804
69319W        W41733  25.537   4.359  11.917
69320W        W41734  27.534  19.591   0.474
69321W        W41735  28.534  19.183  11.545
69322W        W41736  44.499  21.060  11.866
69323W        W41737  13.798  13.233   2.396
69324W        W41738  18.751  15.595   2.763
69325W        W41739  43.891   8.323  13.871
69326W        W41740   8.790  36.398   2.666
69327W        W41741  28.174   8.836  14.396
69328W        W41742  11.752   6.366   3.633
69329W        W41743  10.279  15.327  10.078
69330W        W41744   1.818  19.650  11.906
69331W        W41745  23.695  40.928   1.732
69332W        W41746  20.555  15.284   4.614
69333W        W41747   1.900  23.695   4.759
69334W        W41748  29.122  30.607  14.930
69335W        W41749  31.944   2.815   2.393
69336W        W41750  14.340   6.798   3.257
69337W        W41751  12.211  31.965  10.563
69338W        W41752  40.374  43.816   2.253
69339W        W41753  19.054  44.816   5.236
69340W        W41754  23.561   5.425  14.816
69341W        W41755  41.795  19.648  13.533
69342W        W41756  24.098  38.037   0.922
69343W        W41757  28.491  44.875  11.014
69344W        W41758  16.762   9.889  12.422
69345W        W41759  15.817  21.242  14.854
69346W        W41760   7.182  32.395  12.952
69347W        W41761  34.946  12.308   4.795
69348W        W41762  31.038  41.521   4.256
69349W        W41763  37.055  41.850   3.166
69350W        W41764   0.456  11.308   0.786
69351W        W41765  32.128   4.390   0.334
69352W        W41766  22.996  21.530   0.475
69353W        W41767   1.792  19.163  13.439
69354W        W41768   4.310  33.419  14.845
69355W        W41769  17.559  25.081  11.597
69356W        W41770  12.324  43.304   3.783
69357W        W41771  28.956  42.028  11.395
69358W        W41772  20.648  28.049  12.973
69359W        W41773  21.575   6.907  10.570
69360W        W41774  11.824   5.329  11.589
69361W        W41775  38.038  37.045  14.375
69362W        W41776  20.069  41.803  11.010
69363W        W41777   5.891  38.933  14.808
69364W        W41778  24.176  23.519  11.112
69365W        W41779  27.145  32.546   2.714
69366W        W41780  42.809  22.178  10.518
69367W        W41781  15.630  29.104  13.450
69368W        W41782   7.720   6.887  10.520
69369W        W41783  21.043  33.904  12.061
69370W        W41784  33.621   4.309  10.960
69371W        W41785  23.712  31.518   1.320
69372W        W41786  40.381  28.183   3.761
69373W        W41787   1.347   8.662   0.273
69374W        W41788  43.795  37.896   3.152
69375W        W41789  13.123  39.475  14.296
69376W        W41790  20.683  39.952  12.088
69377W        W41791   6.361  15.242  13.425
69378W        W41792  34.928  20.568   4.603
69379W        W41793  29.601   1.887   3.256
69380W        W41794  14.683  31.600  10.518
69381W        W41795  22.590  22.996   4.647
69382W        W41796  43.327  25.477   4.180
69383W        W41797  15.738  33.114   4.245
69384W        W41798  37.560  11.315   1.410
69385W        W41799  29.998  34.897  13.982
69386W        W41800  40.891  42.921  14.759
69387W        W41801  24.998  15.238   3.672
69388W        W41802   8.875   1.739  13.414
69389W        W41803  23.489  17.076   1.239
69390W        W41804  17.277  10.646   2.721
69391W        W41805  14.095  43.826   9.994
69392W        W41806  18.296   5.759  12.027
69393W        W41807  37.503  32.980   0.444
69394W        W41808  13.231  41.381   1.394
69395W        W41809  35.438  15.148   4.658
69396W        W41810  30.039   3.866  12.464
69397W        W41811   4.861  11.860   1.733
69398W        W41812  10.717   8.869   2.294
69399W        W41813  31.943  30.086   4.607
69400W        W41814  10.179  21.675  13.969
69401W        W41815  13.748   3.743  14.993
69402W        W41816  16.293  39.039   4.334
69403W        W41817  42.935  17.188   4.285
69404W        W41818  43.423  16.148   1.757
69405W        W41819  20.151  32.413   2.888
69406W        W41820  23.654  36.023   2.883
69407W        W41821  33.000  38.912  13.334
69408W        W41822  39.028  29.594  10.605
69409W        W41823  14.167  34.948   3.738
69410W        W41824   0.907  36.478   0.961
69411W        W41825  11.311  41.356  10.959
69412W        W41826  28.616  40.946  12.001
69413W        W41827  15.122   6.308  10.939
69414W        W41828  34.526  40.852  14.500
69415W        W41829  43.773  14.233  10.969
69416W        W41830  17.290  38.045  10.439
69417W        W41831  10.146  14.597   4.661
69418W        W41832  41.889   5.374   4.146
69419W        W41833  19.690   0.321   2.272
69420W        W41834  33.941  27.593   3.716
69421W        W41835  22.163   8.338   0.798
69422W        W41836  20.576   4.265  10.509
69423W        W41837  24.485  23.156  13.023
69424W        W41838  21.208  29.498  14.024
69425W        W41839  32.503  40.869   1.817
69426W        W41840  25.048   0.985   4.236
69427W        W41841  34.001  18.688   3.812
69428W        W41842  37.059  12.705  14.354
69429W        W41843  18.776  41.797  11.115
69430W        W41844   1.858  40.961  13.355
69431W        W41845  43.014  30.150   0.253
69432W        W41846   6.301   1.786   2.886
69433W        W41847  26.578  41.401  12.997
69434W        W41848  21.201   7.272   3.199
69435W        W41849   5.841  39.968  14.450
69436W        W41850  31.001  15.214   4.327
69437W        W41851  28.986  12.358  11.491
69438W        W41852  16.669  33.617  13.875
69439W        W41853  42.941  43.950   1.238
69440W        W41854   1.350  23.610  12.946
69441W        W41855  13.115   3.833  11.884
69442W        W41856  28.569  39.362   0.834
69443W        W41857  20.608   3.855   0.834
69444W        W41858  39.025  36.909  12.421
69445W        W41859  40.508  23.625  11.953
69446W        W41860  12.826  41.958  11.909
69447W        W41861  39.985  42.450   2.343
69448W        W41862  44.845  34.994   1.210
69449W        W41863  33.435  23.674   4.335
69450W        W41864  30.091  11.728   0.936
69451W        W41865  28.136  34.567   3.316
69452W        W41866  33.418   4.771   0.327
69453W        W41867  14.215   5.810   0.797
69454W        W41868  12.738  31.031   2.775
69455W        W41869  11.641  23.156   4.335
69456W        W41870   4.758  37.899  13.477
69457W        W41871  36.584   2.423   3.643
69458W        W41872  25.660  43.940  12.534
69459W        W41873   8.701  22.229   0.471
69460W        W41874  35.563   2.724   1.257
69461W        W41875   6.253  36.447  14.492
69462W        W41876  24.133  29.653  13.540
69463W        W41877  44.937  18.580   4.215
69464W        W41878  36.514  17.205   2.195
69465W        W41879  15.319   5.838  13.844
69466W        W41880  39.873  11.687   1.212
69467W        W41881  38.337  37.040  14.948
69468W        W41882  22.656  40.989   3.387
69469W        W41883   7.404   4.401  11.999
69470W        W41884   2.790   1.439  11.043
69471W        W41885   9.706  38.520  14.842
69472W        W41886  35.466  18.544  11.926
69473W        W41887  16.752  17.072   3.840
69474W        W41888  38.018  27.577   0.328
69475W        W41889   5.405  20.591  14.290
69476W        W41890   8.334  40.890  11.882
69477W        W41891  35.867  30.583   4.666
69478W        W41892  23.551  31.917   2.716
69479W        W41893  15.286  39.937   1.797
69480W        W41894   9.842   7.306   3.224
69481W        W41895   8.884  14.293   3.250
69482W        W41896  31.104  25.965   4.676
69483W        W41897  32.504   8.287   0.801
69484W        W41898   6.358  26.698   1.713
69485W        W41899  39.998  34.404  14.389
69486W        W41900  18.148   0.255   5.575
69487W        W41901  42.442  37.840  14.840
69488W        W41902   9.679  15.252  12.007
69489W        W41903  24.560  29.120   4.204
69490W        W41904  35.075  36.947  12.348
69491W        W41905  25.622  25.541  11.007
69492W        W41906  21.597  37.951   0.755
69493W        W41907  13.786  14.787  14.324
69494W        W41908  24.670  37.890   0.872
69495W        W41909  10.167  32.527  12.400
69496W        W41910  15.731  37.441  14.377
69497W        W41911  43.846  14.178   0.341
69498W        W41912  19.671  24.051   3.178
69499W        W41913  26.203  11.357   3.720
69500W        W41914  15.159  23.503   3.350
69501W        W41915  26.584   7.705  11.927
69502W        W41916  23.608  18.231   2.887
69503W        W41917  22.730   0.293   4.240
69504W        W41918  27.156  30.526  14.793
69505W        W41919   1.760  27.469  14.446
69506W        W41920  30.423   5.846  12.419
69507W        W41921   3.308  23.077   4.655
69508W        W41922  17.564  12.710   3.178
69509W        W41923  11.242   6.215   2.754
69510W        W41924   6.404  16.225  11.571
69511W        W41925  16.165  31.148   3.716
69512W        W41926  43.395  21.125   1.827
69513W        W41927  41.928  39.505  13.437
69514W        W41928  23.215  29.472  11.121
69515W        W41929  10.330  26.702  10.425
69516W        W41930  26.961   2.334   4.266
69517W        W41931  14.773  34.016   1.368
69518W        W41932   5.824  39.333  12.050
69519W        W41933  22.115  30.910   3.821
69520W        W41934   0.276  19.145  12.049
69521W        W41935  24.999   4.320   3.340
69522W        W41936  21.561   5.774   2.216
69523W        W41937  16.314  14.632  13.968
69524W        W41938   4.403  27.456  12.553
69525W        W41939   4.867  19.762   1.825
69526W        W41940  23.510  36.480   4.691
69527W        W41941  23.536  11.236   4.724
69528W        W41942   6.220   1.244  11.112
69529W        W41943  26.504  26.145   3.739
69530W        W41944  39.540  38.028  13.044
69531W        W41945  28.062  13.162  12.379
69532W        W41946  38.880  41.897  11.401
69533W        W41947  21.093   2.909  14.906
69534W        W41948  40.917  43.875   3.354
69535W        W41949  41.348  35.422   1.825
69536W        W41950  11.766  36.502  11.531
69537W        W41951  29.949   9.877   1.732
69538W        W41952  21.110   2.945  11.569
69539W        W41953  21.642  42.831  10.978
69540W        W41954  40.832  44.873  13.437
69541W        W41955   8.816  10.657   3.177
69542W        W41956   3.306  31.076  13.911
69543W        W41957   7.762   4.284  14.347
69544W        W41958   7.847  27.064   2.844
69545W        W41959   4.372  15.260   0.439
69546W        W41960  38.985  12.769  11.027
69547W        W41961  29.127  38.949  14.985
69548W        W41962  19.118  25.974   0.343
69549W        W41963  37.056  20.262   1.230
69550W        W41964  12.310  19.187   1.710
69551W        W41965   5.211  29.580  12.942
69552W        W41966  30.608  12.339   3.167
69553W        W41967  21.646  21.562   3.176
69554W        W41968  18.605  26.635   1.362
69555W        W41969  40.967  12.357   1.764
69556W        W41970  30.940   9.731   3.653
69557W        W41971  10.346   1.788   0.798
69558W        W41972  12.319  22.123  13.393
69559W        W41973  10.202  15.667  13.953
69560W        W41974  20.599  36.474  12.938
69561W        W41975  44.816  14.622   4.288
69562W        W41976  17.184  34.866  10.936
69563W        W41977  39.471   2.228   3.798
69564W        W41978  21.561  30.572   1.338
69565W        W41979  22.130  25.186   0.782
69566W        W41980  19.567   8.799   3.645
69567W        W41981   3.837  26.698  14.758
69568W        W41982  11.365  37.361   1.764
69569W        W41983  44.397  17.601   3.634
69570W        W41984  27.959   2.392  12.400
69571W        W41985  33.888  12.217  10.428
69572W        W41986   5.207  13.176   4.292
69573W        W41987  27.176  40.361   3.631
69574W        W41988  24.718  13.642  13.823
69575W        W41989  26.557   6.254  11.929
69576W        W41990  16.649   2.408  12.541
69577W        W41991  29.499   9.804   1.841
69578W        W41992  40.804  40.318   1.810
69579W        W41993  36.492  18.074   3.279
69580W        W41994  29.140  41.354   3.190
69581W        W41995  12.135  30.608   2.763
69582W        W41996  34.541   2.334  11.564
69583W        W41997  36.976  15.644  11.586
69584W        W41998  27.634   0.907  14.460
69585W        W41999  33.484  37.374  10.939
69586W        W42000  21.075  29.556  12.888
69587W        W42001  34.479  11.301   0.934
69588W        W42002   3.382  40.010   3.670
69589W        W42003  42.332  28.651   1.729
69590W        W42004  39.315   8.892   4.170
69591W        W42005   6.879  17.212   3.692
69592W        W42006  39.909  33.944  12.350
69593W        W42007  34.406   9.235  10.433
69594W        W42008  20.142  22.725   4.710
69595W        W42009  21.129   5.437  11.859
69596W        W42010   0.818  16.714   4.737
69597W        W42011  17.272  19.125  14.394
69598W        W42012  34.915  26.966  12.994
69599W        W42013   0.899  30.619   0.304
69600W        W42014  17.580  17.294  12.064
69601W        W42015  20.211  35.575  10.639
69602W        W42016   8.381  31.571   0.927
69603W        W42017   9.282   0.250  14.319
69604W        W42018  36.031  38.970  12.063
69605W        W42019   5.812   6.253  10.984
69606W        W42020   6.734  31.412   4.605
69607W        W42021   5.913  16.615   1.362
69608W        W42022  33.454  34.114  11.372
69609W        W42023   2.385  24.619  12.989
69610W        W42024   7.836   9.286  11.913
69611W        W42025  35.884   2.807  14.359
69612W        W42026  15.199  28.019   3.835
69613W        W42027  44.778  22.042  14.773
69614W        W42028  20.609  26.479  11.054
69615W        W42029   5.262  43.494  14.912
69616W        W42030  36.066  19.092  12.483
69617W        W42031  25.575  21.222   1.283
69618W        W42032  26.669  27.674   2.713
69619W        W42033  22.108  26.618   4.301
69620W        W42034  41.497  14.142   2.221
69621W        W42035  11.305  29.429  13.943
69622W        W42036  30.949  15.678  14.760
69623W        W42037  16.127  40.407   1.314
69624W        W42038   6.687  36.427   1.895
69625W        W42039  13.318  33.918   1.262
69626W        W42040  32.907  36.088  10.604
69627W        W42041   6.208  36.877   3.233
69628W        W42042  13.172  13.666   1.714
69629W        W42043  22.721  42.023  13.984
69630W        W42044  39.532  11.834   4.798
69631W        W42045   4.240  15.681   4.340
69632W        W42046  19.699   5.439  13.006
69633W        W42047  23.027  17.726  11.947
69634W        W42048  32.023   3.287  10.941
69635W        W42049   0.890  33.577   1.815
69636W        W42050  12.175  31.100  14.956
69637W        W42051  38.892  38.828   3.803
69638W        W42052  40.954   0.881   1.880
69639W        W42053  38.050  24.029  13.901
69640W        W42054  41.923  31.500  11.021
69641W        W42055  12.125   6.292  11.961
69642W        W42056  37.544  25.082   3.701
69643W        W42057  26.676  26.685   1.359
69644W        W42058  37.398  11.771   4.786
69645W        W42059  31.447   5.329   1.799
69646W        W42060   7.862  30.157  11.889
69647W        W42061  20.110  16.740   2.409
69648W        W42062  16.632  13.650  14.418
69649W        W42063  41.806   4.906  13.388
69650W        W42064  16.787  41.441   3.195
69651W        W42065  34.516  28.139  13.992
69652W        W42066  15.648   3.743   1.320
69653W        W42067  17.759  40.873   2.892
69654W        W42068  43.361  17.639   3.309
69655W        W42069  24.484  26.972  14.411
69656W        W42070  38.445   3.905  11.551
69657W        W42071  42.980  21.146   5.209
69658W        W42072  10.375  30.099  10.476
69659W        W42073  44.859   2.750   4.276
69660W        W42074  14.318  27.024   1.426
69661W        W42075  18.668   8.388  11.039
69662W        W42076  35.526  36.902  11.602
69663W        W42077  40.488  16.598  12.906
69664W        W42078  13.318  37.457  14.870
69665W        W42079  43.317  43.781   4.606
69666W        W42080  19.754   4.304   0.729
69667W        W42081   8.235  38.833   0.894
69668W        W42082  43.913  25.653  12.393
69669W        W42083   6.224   7.198   1.812
69670W        W42084  11.160  13.814   4.194
69671W        W42085  14.638  24.496   0.288
69672W        W42086  21.244  27.454  11.440
69673W        W42087  32.457   0.333  10.090
69674W        W42088  10.316   9.884  11.591
69675W        W42089  44.852   5.216  11.424
69676W        W42090  44.965   3.242  14.835
69677W        W42091  25.969  24.683  14.777
69678W        W42092  18.766  33.073  14.952
69679W        W42093  18.253  43.773  14.488
69680W        W42094  43.325  17.607  14.028
69681W        W42095  10.868   7.666  13.847
69682W        W42096  25.646  10.335   9.948
69683W        W42097  12.243  29.498   3.280
69684W        W42098  19.144   7.836   4.234
69685W        W42099  29.955  27.196   3.293
69686W        W42100  42.946   6.328   5.245
69687W        W42101  26.612  16.624  11.609
69688W        W42102  33.068  33.472  10.078
69689W        W42103  15.740   2.843  11.468
69690W        W42104  26.032  26.620  11.946
69691W        W42105   2.435   3.889   3.726
69692W        W42106   7.414  34.009   3.651
69693W        W42107  17.143   9.326   1.316
69694W        W42108  17.064  31.462  12.562
69695W        W42109   4.246  43.976   4.160
69696W        W42110  22.194  27.020  14.455
69697W        W42111  37.556  12.713   1.254
69698W        W42112  44.828  15.823  11.039
69699W        W42113  39.456  30.505  13.907
69700W        W42114  39.832   0.907  13.382
69701W        W42115   1.246  35.521  11.091
69702W        W42116   4.920  43.888  14.860
69703W        W42117  29.607  41.955  11.018
69704W        W42118  38.523  22.609   2.273
69705W        W42119  35.948  21.219  12.535
69706W        W42120  19.214  11.635   0.806
69707W        W42121  32.563  14.830  14.346
69708W        W42122  16.713   3.755   3.370
69709W        W42123   3.292  14.306  12.351
69710W        W42124  35.863  40.353   2.679
69711W        W42125  21.540  14.214   5.290
69712W        W42126  11.813  38.458  14.984
69713W        W42127  39.905  23.620   3.344
69714W        W42128  30.649  10.805   1.816
69715W        W42129   1.897  16.690   0.242
69716W        W42130  18.295   9.250   4.744
69717W        W42131  19.088  44.348  14.515
69718W        W42132  30.075   0.793  13.806
69719W        W42133   8.853  38.541   4.782
69720W        W42134   8.812  30.114   3.260
69721W        W42135  42.288  37.410  11.514
69722W        W42136  17.177  12.348   1.935
69723W        W42137  15.774  13.666  12.468
69724W        W42138  44.960  36.384  10.495
69725W        W42139  20.212  41.309  10.536
69726W        W42140  23.557  30.586   3.233
69727W        W42141  15.766  10.771   4.213
69728W        W42142  22.048  18.630   3.811
69729W        W42143  10.813   9.781  10.454
69730W        W42144  43.816  18.671  12.577
69731W        W42145   6.844   0.258  10.945
69732W        W42146  42.814  29.003  12.829
69733W        W42147  27.464   7.820  14.868
69734W        W42148   8.799  28.958   0.247
69735W        W42149  18.157  13.614   4.318
69736W        W42150  17.723  19.568   5.161
69737W        W42151   5.236  24.541  11.883
69738W        W42152  40.044  38.543  14.995
69739W        W42153  43.960  29.550  14.854
69740W        W42154  19.753  39.019   0.374
69741W        W42155   7.709  25.119   1.896
69742W        W42156  43.395   6.701   0.882
69743W        W42157  27.040  29.471  10.889
69744W        W42158   8.305  18.609   2.762
69745W        W42159   0.477  35.575   2.750
69746W        W42160   9.372  14.311  13.854
69747W        W42161  15.130  26.098  13.413
69748W        W42162  24.201  20.107   0.281
69749W        W42163  28.109   5.922  12.424
69750W        W42164   1.254  37.561  12.578
69751W        W42165  10.263  14.173  14.847
69752W        W42166  21.196   1.848   2.878
69753W        W42167   5.777   6.199  13.910
69754W        W42168  43.459  23.491   2.269
69755W        W42169   7.807  16.604  12.442
69756W        W42170   0.365  43.859  11.065
69757W        W42171   7.880  41.385   0.344
69758W        W42172  42.956  11.689   2.731
69759W        W42173   9.856  39.962  12.919
69760W        W42174   5.841  32.414   0.445
69761W        W42175  22.136  12.837   1.815
69762W        W42176  28.047  37.464  11.058
69763W        W42177  44.877   7.813  14.503
69764W        W42178  38.459  17.638  13.826
69765W        W42179  32.600   9.812   0.796
69766W        W42180  41.912  24.550  10.497
69767W        W42181  15.221  35.030  12.850
69768W        W42182  22.058  40.895  12.531
69769W        W42183   5.893  28.638   4.171
69770W        W42184  34.114  39.351  14.939
69771W        W42185  42.918   3.318   4.601
69772W        W42186  29.121  14.642   3.361
69773W        W42187  44.340   0.363  13.829
69774W        W42188   4.937  39.335   3.837
69775W        W42189  36.876  20.234  13.850
69776W        W42190  38.446  35.489   9.673
69777W        W42191  33.061  23.727  11.494
69778W        W42192  33.567  10.740   0.831
69779W        W42193  18.660  19.285  12.075
69780W        W42194   2.333  13.209  14.908
69781W        W42195  42.333  39.539  13.465
69782W        W42196   5.809  36.024  10.566
69783W        W42197  12.638   5.923  13.910
69784W        W42198  32.080  22.247  11.501
69785W        W42199   6.385  40.859   5.224
69786W        W42200   2.463  16.590  11.113
69787W        W42201   9.833  29.466  10.944
69788W        W42202  13.786  44.968   1.363
69789W        W42203  27.624  34.397   3.866
69790W        W42204  30.554   1.868  11.094
69791W        W42205  22.034  40.927   3.195
69792W        W42206   4.211  29.081   4.335
69793W        W42207  18.185  17.275   4.163
69794W        W42208  31.970  30.007  14.363
69795W        W42209   7.882  24.631  10.414
69796W        W42210  37.884  31.466   1.810
69797W        W42211   5.902  40.823   2.299
69798W        W42212  13.285  40.521  12.340
69799W        W42213  40.801  10.344   0.876
69800W        W42214  11.817   3.799   2.418
69801W        W42215  41.920  29.026   5.152
69802W        W42216   8.806  34.913   4.132
69803W        W42217   0.896  24.699   0.922
69804W        W42218  27.636  36.909  10.445
69805W        W42219  14.600   3.243   3.340
69806W        W42220   2.747   3.911   0.397
69807W        W42221  35.863  21.611   4.818
69808W        W42222  29.145  39.536  11.388
69809W        W42223   9.230  27.035  14.929
69810W        W42224  25.153  38.554  12.891
69811W        W42225  29.425  24.586   3.219
69812W        W42226   2.401   9.717   3.856
69813W        W42227  26.587  26.537   3.811
69814W        W42228  38.328   3.264   0.332
69815W        W42229  14.267  38.831  12.832
69816W        W42230   2.844  44.422  13.392
69817W        W42231  29.494  35.560   4.255
69818W        W42232  22.710  20.032  13.428
69819W        W42233  12.803  37.076  14.773
69820W        W42234  27.658  36.914  12.877
69821W        W42235   5.723  37.927   4.193
69822W        W42236  18.755  26.955   4.725
69823W        W42237   8.214  25.201   2.771
69824W        W42238   1.964  42.861   3.739
69825W        W42239  39.982   6.343   1.340
69826W        W42240  35.515  31.923  11.556
69827W        W42241  42.395  41.349  11.429
69828W        W42242  20.544  41.993   2.673
69829W        W42243  35.407  36.943  12.975
69830W        W42244  18.648   3.400   1.367
69831W        W42245   1.767  31.043  12.986
69832W        W42246  16.238  40.929   4.680
69833W        W42247   8.768   1.855   0.838
69834W        W42248  26.495   8.339  14.303
69835W        W42249   2.282  21.580   1.855
69836W        W42250   0.861  38.036  10.924
69837W        W42251  44.452  28.993  10.556
69838W        W42252  26.526  37.051  12.392
69839W        W42253  15.587  28.641   4.642
69840W        W42254  13.337  27.460   3.821
69841W        W42255  36.963  28.146   2.268
69842W        W42256  39.425  24.040  13.456
69843W        W42257  26.698  19.172   3.631
69844W        W42258  12.703   9.188  11.023
69845W        W42259  44.264  24.212   1.450
69846W        W42260  44.363  19.598  12.423
69847W        W42261  13.311   0.441  13.524
69848W        W42262  32.057  10.657  11.939
69849W        W42263  33.502  27.457   1.879
69850W        W42264  21.721  38.444  11.583
69851W        W42265  14.590  29.471  12.389
69852W        W42266  23.661  31.454   2.344
69853W        W42267  43.012   6.403  11.583
69854W        W42268   0.770   0.842   0.404
69855W        W42269   4.392   1.958   1.746
69856W        W42270  13.678  13.701  11.022
69857W        W42271  44.293  13.178   2.240
69858W        W42272  12.778  44.342   1.903
69859W        W42273  30.441  20.753   0.333
69860W        W42274   8.791  29.091  13.795
69861W        W42275  37.916  24.035  13.435
69862W        W42276  44.996  17.085   3.660
69863W        W42277  32.133  29.063  10.963
69864W        W42278  43.490  41.403  11.487
69865W        W42279  17.673   6.423  11.470
69866W        W42280  41.426  40.371   2.793
69867W        W42281   7.414  17.721  12.040
69868W        W42282  30.020  27.143   3.768
69869W        W42283  26.467  21.647   4.126
69870W        W42284  24.628  24.020  13.378
69871W        W42285  17.229  30.559  13.000
69872W        W42286  39.032  33.952   9.988
69873W        W42287  42.976  41.041   3.178
69874W        W42288  20.550  40.904   3.364
69875W        W42289  37.554  12.723  12.838
69876W        W42290  36.431  27.150  11.940
69877W        W42291  35.032   6.210   5.084
69878W        W42292  40.863  43.968   2.416
69879W        W42293   1.943  15.822  10.596
69880W        W42294  27.151   0.460  12.087
69881W        W42295  42.455   1.355  10.612
69882W        W42296  23.541  16.680  14.874
69883W        W42297  10.269  15.793  10.620
69884W        W42298  24.179   0.859   5.155
69885W        W42299  42.514  39.016   1.235
69886W        W42300  23.686   6.749  12.002
69887W        W42301  17.593  30.652  11.006
69888W        W42302  31.125  39.839  14.339
69889W        W42303   9.348  10.635   2.754
69890W        W42304  41.857  25.014   4.206
69891W        W42305  29.439  10.376  12.823
69892W        W42306  23.535  26.591  10.611
69893W        W42307  34.998  17.639  13.034
69894W        W42308  25.668  11.178   2.896
69895W        W42309  19.566  13.299  13.962
69896W        W42310  26.700   1.282   5.155
69897W        W42311  39.828  42.856   0.741
69898W        W42312  33.030  19.753  12.477
69899W        W42313  34.449  28.577  12.875
69900W        W42314  37.060  16.804   4.351
69901W        W42315  24.075  32.932  12.080
69902W        W42316  43.924  21.577  13.328
69903W        W42317  28.993   8.854  12.368
69904W        W42318  11.226   5.928   0.396
69905W        W42319   5.774  29.445  11.110
69906W        W42320  28.097   9.804   3.303
69907W        W42321   9.207  18.214   0.919
69908W        W42322   9.212  40.518  11.012
69909W        W42323  29.072  26.954  14.904
69910W        W42324  10.859  37.925   3.864
69911W        W42325   1.851  33.469   4.717
69912W        W42326  14.800  29.932  10.640
69913W        W42327  25.493   1.763   4.611
69914W        W42328  19.560  26.701   0.858
69915W        W42329  37.977  14.658  13.492
69916W        W42330  31.574  25.533  13.803
69917W        W42331  32.558   6.897   0.733
69918W        W42332  19.583  15.114   1.340
69919W        W42333  36.014   1.847   4.778
69920W        W42334   2.363  18.637   1.735
69921W        W42335  10.874  18.150  12.425
69922W        W42336  28.503  30.536   1.881
69923W        W42337  27.513  43.991  14.424
69924W        W42338   3.331   8.167   2.883
69925W        W42339  14.211  42.798  13.345
69926W        W42340   6.407   2.921   1.764
69927W        W42341  42.416  28.097  14.775
69928W        W42342  19.537   4.775  11.388
69929W        W42343  18.782  20.764   1.211
69930W        W42344   3.746   7.729   4.824
69931W        W42345   0.279  23.022   0.865
69932W        W42346  17.558  10.680   4.656
69933W        W42347  25.193   7.359   2.248
69934W        W42348  41.927  22.731   4.281
69935W        W42349  39.047  28.665  12.823
69936W        W42350  16.244  22.572  12.468
69937W        W42351  44.951  11.714   0.816
69938W        W42352  34.891  19.635   0.954
69939W        W42353   2.853  24.056   0.750
69940W        W42354   3.230  13.649  10.117
69941W        W42355   3.743  17.302   2.307
69942W        W42356  37.362  27.004  10.534
69943W        W42357  20.561  34.889   3.369
69944W        W42358  40.829  36.876   1.741
69945W        W42359  13.637  13.265   4.718
69946W        W42360  27.523  38.887  12.904
69947W        W42361  23.718   3.214   1.378
69948W        W42362   9.649  13.728   4.817
69949W        W42363   3.870  44.474  13.997
69950W        W42364  31.638   8.738  12.080
69951W        W42365  20.634  23.127  14.366
69952W        W42366  24.530  29.590   0.790
69953W        W42367  41.965  35.902  13.380
69954W        W42368  22.248  30.635  11.047
69955W        W42369  25.628  44.338   3.208
69956W        W42370  43.827  12.341   1.229
69957W        W42371  44.890  28.016  10.597
69958W        W42372   9.168   3.236  10.097
69959W        W42373   9.737  44.377  13.351
69960W        W42374  11.843  26.632  13.473
69961W        W42375  39.330  17.584  13.334
69962W        W42376  29.058  30.051  14.906
69963W        W42377   3.793  11.352   4.664
69964W        W42378  41.947  18.785   4.828
69965W        W42379  35.547  30.517   1.254
69966W        W42380  39.826  20.110   1.820
69967W        W42381  43.475  35.879  10.574
69968W        W42382  25.500  35.887  12.520
69969W        W42383   6.196   3.955  14.971
69970W        W42384  12.651  15.083  12.841
69971W        W42385  32.076  20.609  13.794
69972W        W42386  16.194  18.639   0.877
69973W        W42387  27.986  37.978   3.246
69974W        W42388  39.995  14.210   3.752
69975W        W42389  44.788  39.441   2.381
69976W        W42390   5.390   6.380   0.342
69977W        W42391  32.092   6.856  10.505
69978W        W42392   0.980  37.875   3.184
69979W        W42393  18.572  28.587   3.776
69980W        W42394   9.258  35.496  14.937
69981W        W42395  44.319  28.640   3.295
69982W        W42396  29.585   2.778  12.463
69983W        W42397  10.854  23.117  12.853
69984W        W42398  20.120  24.178   2.852
69985W        W42399  20.549  15.199   1.381
69986W        W42400   1.899  24.163  13.465
69987W        W42401   5.222  16.579  11.988
69988W        W42402   5.708  24.705   1.878
69989W        W42403  37.434  23.212  11.979
69990W        W42404  33.420  23.493   5.705
69991W        W42405  15.792  34.004   0.832
69992W        W42406  21.126  28.022   3.291
69993W        W42407  24.078   6.220   4.641
69994W        W42408  14.222  26.555  10.411
69995W        W42409   8.366  37.432   2.717
69996W        W42410  19.171  17.303  11.973
69997W        W42411  38.067   6.344   2.300
69998W        W42412  34.015  26.547   3.357
69999W        W42413  20.059   9.834   2.376
70000W        W42414  43.816  34.577   1.281
70001W        W42415   3.729   9.163   3.857
70002W        W42416  44.783   7.894   3.210
70003W        W42417  39.474  39.914  11.099
70004W        W42418  20.065  15.652   3.788
70005W        W42419  27.606  37.025   2.837
70006W        W42420  40.395  31.139  10.551
70007W        W42421  44.287  18.740   2.850
70008W        W42422   1.249  33.456  11.544
70009W        W42423  21.575  25.213   2.789
70010W        W42424  15.087  22.511  12.973
70011W        W42425  43.477  35.518  14.448
70012W        W42426  33.960  41.893  10.968
70013W        W42427   4.819  15.699  12.346
70014W        W42428  35.406  24.589  11.392
70015W        W42429  11.271  44.946  13.514
70016W        W42430  10.223  14.141  12.505
70017W        W42431  12.232  33.881  14.340
70018W        W42432  36.012  20.700   3.166
70019W        W42433  43.002  37.570   5.201
70020W        W42434  12.748  19.071  13.547
70021W        W42435  20.143  44.423   5.161
70022W        W42436   8.275   1.814   4.318
70023W        W42437   3.737   4.933   1.344
70024W        W42438  43.275  27.046   2.864
70025W        W42439  15.122  17.298   9.545
70026W        W42440  36.070   1.838   2.286
70027W        W42441   4.805  20.142  12.021
70028W        W42442  31.029  20.145   1.448
70029W        W42443   0.488  35.025   2.735
70030W        W42444  13.271  42.933   2.695
70031W        W42445  39.350   3.790   3.666
70032W        W42446   7.176  29.961  12.863
70033W        W42447  20.117  11.750  12.411
70034W        W42448  28.056  30.030  11.475
70035W        W42449  24.576  25.578   2.774
70036W        W42450   9.387   9.243  13.017
70037W        W42451  24.576   2.885  12.512
70038W        W42452   4.759  37.352  13.965
70039W        W42453  40.483  43.439  12.030
70040W        W42454  23.594  42.468  14.286
70041W        W42455   9.842  40.458   2.862
70042W        W42456  33.063  41.393   2.304
70043W        W42457  26.985  21.079   2.294
70044W        W42458   3.889  39.431  11.564
70045W        W42459  40.989  18.186   4.182
70046W        W42460   5.767  12.706  12.564
70047W        W42461  21.046  40.982   2.248
70048W        W42462   9.708  29.131   4.722
70049W        W42463  21.722  16.785  13.414
70050W        W42464  20.186  38.912   5.097
70051W        W42465  33.625  34.386   3.742
70052W        W42466  11.361   6.200  12.831
70053W        W42467  23.113   9.372  12.011
70054W        W42468  34.418  22.589   1.773
70055W        W42469  16.607  31.154  14.279
70056W        W42470  14.697  25.598   1.259
70057W        W42471  25.678   3.807  14.970
70058W        W42472   4.444  21.043  13.797
70059W        W42473  40.958   5.694   1.339
70060W        W42474  44.998   3.859  14.351
70061W        W42475  29.174  11.803  12.548
70062W        W42476   0.948  21.110  14.872
70063W        W42477  26.642  24.622  13.432
70064W        W42478   6.720  32.621  10.583
70065W        W42479  13.688  39.032  10.452
70066W        W42480  18.587  16.642  11.422
70067W        W42481  14.103  26.080  12.426
70068W        W42482  33.421  38.946   5.239
70069W        W42483  28.440  24.714  12.848
70070W        W42484  42.958  33.447  14.965
70071W        W42485   5.229  32.907   4.197
70072W        W42486   7.356  10.736   4.600
70073W        W42487  39.388   4.846   3.234
70074W        W42488  18.691  14.120   3.258
70075W        W42489  41.372  41.916   4.612
70076W        W42490   9.816  18.597   1.909
70077W        W42491   5.837   1.788  12.575
70078W        W42492  17.067  40.835  12.017
70079W        W42493  31.516  18.604   2.801
70080W        W42494  12.299  14.182   3.246
70081W        W42495  29.445  34.935  14.476
70082W        W42496  14.773  26.958   2.770
70083W        W42497  38.045  27.448  13.885
70084W        W42498  23.650  19.696   4.752
70085W        W42499  40.464  30.626   0.866
70086W        W42500   4.336  12.834   2.282
70087W        W42501  17.645  12.654  13.905
70088W        W42502  34.899  21.132  10.082
70089W        W42503  28.499  37.983   0.952
70090W        W42504  13.655  36.916  14.796
70091W        W42505   3.272   8.807  13.365
70092W        W42506  33.964  32.447  12.537
70093W        W42507   0.288  15.636  10.892
70094W        W42508   4.938   4.702   4.613
70095W        W42509  36.541  29.113   4.118
70096W        W42510  36.080  10.208  11.507
70097W        W42511  17.756   3.772  13.846
70098W        W42512  38.380   0.439  12.555
70099W        W42513  16.666  28.187   1.321
70100W        W42514  26.504   7.340  12.020
70101W        W42515  26.145  19.557  12.544
70102W        W42516  13.197   9.193   2.709
70103W        W42517  39.362   9.732  12.069
70104W        W42518   5.312   7.314  12.856
70105W        W42519  26.610  10.636   4.160
70106W        W42520   9.645  42.790  10.455
70107W        W42521  14.272  34.498  10.044
70108W        W42522  30.488  24.073  14.401
70109W        W42523  31.643  42.955   4.777
70110W        W42524  27.159  23.050  12.929
70111W        W42525  38.926  35.070  14.980
70112W        W42526  24.606  18.764  10.967
70113W        W42527  30.491  43.374   1.310
70114W        W42528  10.724  29.494  12.851
70115W        W42529  18.084  39.355  14.511
70116W        W42530  43.295  15.160  10.633
70117W        W42531  17.155  27.620   1.362
70118W        W42532  31.535  26.665   1.276
70119W        W42533  18.149   9.864  11.952
70120W        W42534  11.625   0.755   4.650
70121W        W42535  31.523  19.586   2.363
70122W        W42536  24.206  28.057   1.333
70123W        W42537  13.780  42.424  10.460
70124W        W42538  42.300   8.260   0.896
70125W        W42539  22.550   4.441   2.181
70126W        W42540  40.800   1.296  14.982
70127W        W42541  21.159  27.659   0.295
70128W        W42542  21.734  13.800  13.820
70129W        W42543  33.586  16.210   2.838
70130W        W42544   0.343  15.663   4.825
70131W        W42545  43.405  42.956   1.709
70132W        W42546  23.197  33.404   3.777
70133W        W42547  11.642   8.209  14.987
70134W        W42548  16.172  41.331  13.330
70135W        W42549  25.577  34.419   3.654
70136W        W42550   4.805  41.307   1.818
70137W        W42551   9.314  24.162  11.569
70138W        W42552   7.383  18.618  10.604
70139W        W42553  27.195  44.830   2.405
70140W        W42554  23.000  15.700   3.755
70141W        W42555   5.758  40.416   2.320
70142W        W42556  13.610  32.984  13.828
70143W        W42557   3.718  11.648   0.845
70144W        W42558  32.892  23.143   9.443
70145W        W42559  24.639  34.920   4.810
70146W        W42560  24.115  30.424   1.222
70147W        W42561  30.012   6.895   4.684
70148W        W42562  44.323  33.574  12.953
70149W        W42563  22.997  29.428   4.683
70150W        W42564  40.477  19.214   0.732
70151W        W42565   9.842  17.715  14.819
70152W        W42566  28.560  20.110  13.340
70153W        W42567  26.154  36.468   3.809
70154W        W42568  16.228  31.464   3.761
70155W        W42569  16.776  27.597   4.198
70156W        W42570  27.618  37.491   3.829
70157W        W42571  16.658  35.490  12.959
70158W        W42572   9.684  26.980   2.325
70159W        W42573  14.741   9.869   1.741
70160W        W42574   4.735  11.270  13.422
70161W        W42575   7.401  13.611  10.944
70162W        W42576  35.002  28.623   2.721
70163W        W42577  14.178  30.473   0.904
70164W        W42578  11.737  42.367   3.182
70165W        W42579  44.775  25.088  12.461
70166W        W42580  10.212  33.066  14.934
70167W        W42581   1.872  17.671  13.358
70168W        W42582  42.382  18.265   4.254
70169W        W42583   8.181   7.279   3.750
70170W        W42584   1.284  35.538  12.368
70171W        W42585  34.512  38.041  13.324
70172W        W42586  41.955  32.129  12.366
70173W        W42587  28.673  23.991   3.807
70174W        W42588  20.761  22.581   1.806
70175W        W42589  24.213  32.009  10.042
70176W        W42590  33.564   8.736  12.417
70177W        W42591  32.497  38.045   3.640
70178W        W42592  15.179  10.339   2.380
70179W        W42593  35.430  35.901   2.347
70180W        W42594  33.381  30.031  12.379
70181W        W42595   7.187  30.032  13.937
70182W        W42596  41.874  26.539   5.116
70183W        W42597  42.492   1.852  11.481
70184W        W42598   7.216  30.957  11.065
70185W        W42599   7.878   0.874  12.937
70186W        W42600  27.547   3.270  14.782
70187W        W42601   7.817  22.511   4.269
70188W        W42602  13.198  17.682  11.856
70189W        W42603  12.237  30.420   0.951
70190W        W42604  18.571  39.000   0.962
70191W        W42605  38.529  24.139   4.635
70192W        W42606  21.067  27.587  10.997
70193W        W42607   5.197  33.423   0.250
70194W        W42608  25.089   0.895   0.823
70195W        W42609  20.051   2.927   4.145
70196W        W42610  14.331   5.909  11.427
70197W        W42611   9.699  30.484  12.902
70198W        W42612  26.470  27.656   0.320
70199W        W42613  12.663  28.147   4.717
70200W        W42614  14.209   7.683  14.297
70201W        W42615  44.845  17.604  11.931
70202W        W42616   3.226  25.142  10.442
70203W        W42617  34.875  44.897  14.441
70204W        W42618  14.107  35.031  14.382
70205W        W42619  17.623  12.766   1.770
70206W        W42620  12.819  13.314  14.026
70207W        W42621   4.234  24.653  13.425
70208W        W42622   4.885  17.284  10.067
70209W        W42623  15.215  18.718  13.844
70210W        W42624   0.446  11.148  10.992
70211W        W42625  26.696  14.204   2.734
70212W        W42626  11.236  26.661   0.821
70213W        W42627  14.736  37.480   3.239
70214W        W42628  37.047   6.298   3.759
70215W        W42629  10.319  30.635  12.530
70216W        W42630  26.182  38.975  10.994
70217W        W42631  19.719  38.453   1.357
70218W        W42632  39.940   1.940   0.954
70219W        W42633  15.218  25.492  13.336
70220W        W42634  15.804  42.416   4.342
70221W        W42635  24.646  25.965   2.350
70222W        W42636  31.601  40.303   3.191
70223W        W42637  41.910  22.231   3.196
70224W        W42638  25.009  17.110   2.208
70225W        W42639  16.575  35.947   3.851
70226W        W42640  16.601  31.059   3.787
70227W        W42641  25.504  30.458  13.018
70228W        W42642   5.277  42.008  14.438
70229W        W42643  12.325  17.699  12.436
70230W        W42644   1.962  40.544  13.039
70231W        W42645  43.359  14.118   2.806
70232W        W42646  14.129  20.048  11.462
70233W        W42647  21.077   4.921  10.926
70234W        W42648  14.736  32.088  14.841
70235W        W42649   3.790   3.814  14.449
70236W        W42650  17.105  42.444   0.843
70237W        W42651  36.541  38.473   2.395
70238W        W42652  27.612  15.617   2.748
70239W        W42653   4.420  17.254  12.012
70240W        W42654  23.666   2.859   4.694
70241W        W42655  22.061  15.313  14.778
70242W        W42656  13.199  41.907   2.351
70243W        W42657   2.811  39.487   4.278
70244W        W42658  29.947  32.962  14.424
70245W        W42659  25.066   4.705  14.319
70246W        W42660  19.114   1.314  10.046
70247W        W42661  24.070  33.466   5.288
70248W        W42662  29.001  41.474  11.922
70249W        W42663  34.072  35.368   1.825
70250W        W42664   2.944  22.541   3.807
70251W        W42665  22.068   1.805  13.876
70252W        W42666  44.918  29.034  11.035
70253W        W42667  43.460  40.012  14.890
70254W        W42668  42.002  32.495   0.342
70255W        W42669  20.213   2.467   1.903
70256W        W42670  44.260  30.967  10.531
70257W        W42671   2.796  30.601   3.817
70258W        W42672  26.998  44.792   4.286
70259W        W42673   6.394   0.385   4.186
70260W        W42674  18.744   2.234  12.416
70261W        W42675  22.217   1.468  12.832
70262W        W42676  14.332  26.679   3.804
70263W        W42677   8.721  36.437   0.954
70264W        W42678  25.216  26.683  13.465
70265W        W42679   1.889   3.739  11.878
70266W        W42680  37.564  13.223  13.937
70267W        W42681   7.399  31.112  11.964
70268W        W42682  44.937  38.565   0.737
70269W        W42683  34.471  38.381  11.884
70270W        W42684  43.351  44.317  10.127
70271W        W42685   9.886  25.207   4.808
70272W        W42686  43.324  30.540  11.106
70273W        W42687  37.501  15.114   2.272
70274W        W42688  40.031   9.195  12.405
70275W        W42689   3.324  38.522   0.874
70276W        W42690   6.918  28.092  14.436
70277W        W42691  31.421   9.795  11.932
70278W        W42692  37.081   6.334   4.296
70279W        W42693   8.735  41.379  13.859
70280W        W42694  27.980  33.543  10.146
70281W        W42695  25.607  23.684   4.313
70282W        W42696  36.918  32.610   1.784
70283W        W42697  28.090  34.533  11.094
70284W        W42698   7.235  43.777  14.511
70285W        W42699  32.131  10.838  12.373
70286W        W42700  21.625  10.283  10.136
70287W        W42701  21.186   8.724  12.485
70288W        W42702  32.395  22.710  11.396
70289W        W42703   1.265  43.808  14.412
70290W        W42704   2.892   8.846   2.844
70291W        W42705  43.340   4.448   1.764
70292W        W42706  15.302  41.978  11.013
70293W        W42707  44.488  40.476   0.761
70294W        W42708  17.756  14.144   4.759
70295W        W42709  34.093  17.069   4.646
70296W        W42710  31.102  22.630   2.230
70297W        W42711  25.578  27.468   2.830
70298W        W42712  15.577   7.773   0.848
70299W        W42713  43.969  33.964   3.194
70300W        W42714  35.576   6.299  10.992
70301W        W42715   4.770  37.411   3.665
70302W        W42716  19.769   2.324   4.692
70303W        W42717  22.534   3.332   0.349
70304W        W42718  34.097  43.324   1.756
70305W        W42719  35.932  42.394   4.326
70306W        W42720  33.605  23.585   0.332
70307W        W42721  43.917   1.410  11.075
70308W        W42722  26.598   5.900   3.350
70309W        W42723  37.064  40.420   2.218
70310W        W42724  40.373  43.389   4.788
70311W        W42725  41.458  16.586  12.428
70312W        W42726  13.178  13.145  12.544
70313W        W42727  30.909  23.013   3.757
70314W        W42728  42.456   7.719  13.048
70315W        W42729  38.837  37.001   1.423
70316W        W42730  23.136  27.667   2.229
70317W        W42731   7.404  21.111   0.903
70318W        W42732   3.322   4.722  10.074
70319W        W42733  32.631  32.573  12.453
70320W        W42734   3.383   3.805   3.249
70321W        W42735  40.452  21.133  12.078
70322W        W42736  27.478  24.119  13.309
70323W        W42737   3.215  13.270   1.290
70324W        W42738  30.564  41.445  10.644
70325W        W42739   1.349   0.470   1.415
70326W        W42740  37.504  40.533  10.522
70327W        W42741  26.994   3.245   2.401
70328W        W42742  28.064  39.494   2.786
70329W        W42743  34.924   5.791   0.366
70330W        W42744  33.609  14.136  11.502
70331W        W42745  39.932  16.578  13.441
70332W        W42746  13.168   8.298  10.957
70333W        W42747   0.817  12.782  12.410
70334W        W42748  42.940  23.724  13.833
70335W        W42749  15.198  30.067  10.599
70336W        W42750   1.966  26.626   0.261
70337W        W42751  33.412  22.198  13.825
70338W        W42752  26.527  33.989  13.833
70339W        W42753   3.353  23.050  13.847
70340W        W42754  10.380  23.048  13.370
70341W        W42755  40.485  30.989  11.421
70342W        W42756  21.033  35.389  14.319
70343W        W42757  23.647  16.271   9.444
70344W        W42758  11.863  17.227   5.281
70345W        W42759   4.357   3.420   4.759
70346W        W42760   4.737  26.008   3.154
70347W        W42761   7.884  30.442  11.060
70348W        W42762  37.395  32.434  10.069
70349W        W42763  39.875  38.328   1.316
70350W        W42764  13.668  13.145  10.596
70351W        W42765  25.668  42.862  11.529
70352W        W42766  18.072   0.969   2.844
70353W        W42767   0.330  44.285  12.379
70354W        W42768   0.891  30.425  13.533
70355W        W42769   3.847   9.880   1.848
70356W        W42770  15.260  14.796   0.905
70357W        W42771  16.567  30.930  10.922
70358W        W42772   5.410   2.831   4.142
70359W        W42773  35.026   7.858   1.917
70360W        W42774  31.034  26.622  11.588
70361W        W42775  41.807  12.820  12.398
70362W        W42776   5.711  44.429  10.909
70363W        W42777   9.352   7.699   4.207
70364W        W42778   8.253  25.704  14.383
70365W        W42779  28.668  25.609  11.021
70366W        W42780   5.253  20.194  14.335
70367W        W42781   2.233   6.309  10.455
70368W        W42782  18.087  11.691  11.059
70369W        W42783  44.384  44.844  12.488
70370W        W42784  20.607  30.620  13.932
70371W        W42785  18.288  28.491   1.919
70372W        W42786   7.823  26.113  14.380
70373W        W42787  16.273   7.901   1.915
70374W        W42788   6.288  21.236  14.286
70375W        W42789   2.840  23.221  11.571
70376W        W42790  11.705  14.680  13.898
70377W        W42791   0.444   3.946   2.204
70378W        W42792   5.438  27.082   0.437
70379W        W42793  10.708  42.501  14.870
70380W        W42794  20.601  15.617  13.966
70381W        W42795  39.470  42.392   3.749
70382W        W42796   2.903  40.876   1.372
70383W        W42797  27.635  13.744   0.247
70384W        W42798   0.339  10.302  13.848
70385W        W42799  10.746  10.849   3.731
70386W        W42800  20.242  40.482   4.124
70387W        W42801   6.907  44.400   3.272
70388W        W42802   8.721  34.017  11.498
70389W        W42803   9.173  15.661  14.465
70390W        W42804  31.084   6.706   0.793
70391W        W42805  15.642  21.216  13.792
70392W        W42806   8.246   8.163  12.972
70393W        W42807   9.836  40.385  13.972
70394W        W42808  38.970  27.042  10.618
70395W        W42809  23.595  14.331   0.926
70396W        W42810  30.158  39.813   4.202
70397W        W42811   9.389  38.455  10.921
70398W        W42812  27.013  40.045  14.312
70399W        W42813  41.885  39.477  11.076
70400W        W42814   7.408  44.992   0.483
70401W        W42815   3.935  23.110  13.398
70402W        W42816  18.075  35.522   2.329
70403W        W42817  37.034  43.293  13.464
70404W        W42818  34.456  20.756  12.457
70405W        W42819  24.701  37.392  14.030
70406W        W42820  20.141  42.472   3.305
70407W        W42821   8.660  39.998   3.712
70408W        W42822  36.515  42.486   2.701
70409W        W42823  34.889  21.747   3.846
70410W        W42824  42.365  22.133  10.604
70411W        W42825  33.055  20.615   3.690
70412W        W42826  23.207   2.852   0.924
70413W        W42827  30.986  36.972  12.979
70414W        W42828   7.881   2.814  10.607
70415W        W42829  33.003  12.327  12.983
70416W        W42830  13.839  28.519   3.780
70417W        W42831  21.100  17.076  12.412
70418W        W42832  16.748  10.303   0.474
70419W        W42833   7.912  21.240  10.439
70420W        W42834   8.768   8.773  10.450
70421W        W42835  22.079   5.873   0.420
70422W        W42836   9.199  10.682   2.275
70423W        W42837  43.829  38.837   0.833
70424W        W42838   4.824  21.732   1.918
70425W        W42839  43.886  30.428   4.173
70426W        W42840  43.791  22.143   2.768
70427W        W42841  26.036  17.694   2.354
70428W        W42842  31.433  41.024  13.428
70429W        W42843   6.223   9.827   3.629
70430W        W42844  21.172   9.644   3.810
70431W        W42845   6.862  16.813   2.871
70432W        W42846  24.581  19.723   4.820
70433W        W42847  17.188  18.054   1.253
70434W        W42848  21.657  31.440   0.961
70435W        W42849   0.986  13.620   4.273
70436W        W42850  13.739  19.180   1.259
70437W        W42851  39.003   0.368  11.074
70438W        W42852   8.345  26.698   2.681
70439W        W42853  27.612   5.387   4.603
70440W        W42854  22.723  14.112   4.272
70441W        W42855   5.750   4.852   3.277
70442W        W42856   3.861  41.314  12.376
70443W        W42857  23.184  39.043  10.951
70444W        W42858  37.450  13.265  12.435
70445W        W42859  16.783  28.036  12.949
70446W        W42860  10.821   5.383   4.164
70447W        W42861   5.233  35.474  12.022
70448W        W42862  36.420   3.366  12.367
70449W        W42863  26.123  17.083   3.209
70450W        W42864  13.341  34.435  12.870
70451W        W42865  19.091   1.876  12.450
70452W        W42866  27.618  33.022  11.531
70453W        W42867  25.484  32.482   3.796
70454W        W42868  18.084  33.056  10.439
70455W        W42869  20.270   2.263  12.568
70456W        W42870  31.512   9.800   0.821
70457W        W42871  34.951  41.910   3.734
70458W        W42872  15.816  38.486  10.544
70459W        W42873   2.847  26.484  14.943
70460W        W42874  15.259  14.701  12.917
70461W        W42875  14.265  19.050  13.995
70462W        W42876  35.908   6.737  13.547
70463W        W42877   0.277  25.009  14.378
70464W        W42878  19.702  36.392  13.487
70465W        W42879  11.355  41.035   3.752
70466W        W42880   7.332   9.811  12.958
70467W        W42881  43.429  39.004   4.690
70468W        W42882  44.806   1.802   4.828
70469W        W42883  33.595  39.040  13.870
70470W        W42884  16.600  32.478   2.898
70471W        W42885  10.317   1.286   1.932
70472W        W42886  22.100  28.474  14.026
70473W        W42887  30.990  20.601  11.925
70474W        W42888   6.257  29.631  13.417
70475W        W42889   2.246  10.351   1.791
70476W        W42890  13.252  38.033  10.925
70477W        W42891   0.823  15.753   2.832
70478W        W42892  38.571  33.474   4.115
70479W        W42893  37.443  15.609   3.323
70480W        W42894  28.555  43.911  13.326
70481W        W42895  13.331  14.208   4.329
70482W        W42896  35.442   4.261   1.869
70483W        W42897   2.384  19.748  12.029
70484W        W42898  24.697  19.744   0.838
70485W        W42899  10.637  10.812   0.735
70486W        W42900  29.570   6.212   2.778
70487W        W42901   0.829  24.153  10.023
70488W        W42902  20.595   3.335  10.433
70489W        W42903  37.948  42.996  14.316
70490W        W42904   7.905   2.363  14.812
70491W        W42905  26.611   3.260  11.384
70492W        W42906  20.750  11.662   4.219
70493W        W42907  10.793  37.340  11.861
70494W        W42908  10.285  23.503  10.993
70495W        W42909  39.859   3.388   1.391
70496W        W42910  11.805  18.769  11.097
70497W        W42911  36.486  30.587  13.924
70498W        W42912  44.865   7.801   1.230
70499W        W42913  12.277  31.611   4.748
70500W        W42914  13.766  38.488  11.873
70501W        W42915  37.010  34.007  11.426
70502W        W42916   1.970   0.842   3.307
70503W        W42917  42.873  23.066  11.451
70504W        W42918  11.787  32.991   4.623
70505W        W42919  28.580  39.815   1.716
70506W        W42920   0.462  41.480  11.937
70507W        W42921  27.453  18.171  14.894
70508W        W42922  13.810   6.421   3.169
70509W        W42923  16.215   8.318  10.083
70510W        W42924  12.684  31.561  11.563
70511W        W42925  10.733  37.415  13.002
70512W        W42926  10.663  20.616  14.392
70513W        W42927  25.975  40.879   3.695
70514W        W42928   8.328   3.438   5.104
70515W        W42929  17.159  27.479   1.872
70516W        W42930  17.178   2.918  12.082
70517W        W42931  38.498   3.367   4.618
70518W        W42932  13.181  41.518  10.578
70519W        W42933  23.071  14.215   0.767
70520W        W42934  19.759   6.260   4.829
70521W        W42935  40.990  15.206   2.864
70522W        W42936   7.211  23.208  14.392
70523W        W42937   9.166  24.516   3.837
70524W        W42938  25.713  18.080  11.000
70525W        W42939  17.119   1.739   1.828
70526W        W42940   3.419   8.788   3.250
70527W        W42941  18.159   9.657   0.758
70528W        W42942  21.722  15.124   1.437
70529W        W42943   7.821  14.140  13.517
70530W        W42944  44.798  14.828   4.817
70531W        W42945  29.143  17.100   3.354
70532W        W42946  40.979  23.030   3.870
70533W        W42947  42.927  29.583   1.229
70534W        W42948  13.785   1.389   1.741
70535W        W42949  40.448  31.933  10.643
70536W        W42950  32.417  28.145   9.933
70537W        W42951  26.656  28.988  12.976
70538W        W42952  11.351   6.246  13.979
70539W        W42953  34.918  41.822  14.960
70540W        W42954  17.098  37.483   4.141
70541W        W42955  32.561  31.545  14.328
70542W        W42956  35.582  10.788  14.782
70543W        W42957   3.761  34.069   2.402
70544W        W42958   9.311  27.127  14.432
70545W        W42959  25.148   1.245   4.729
70546W        W42960   9.182  44.311  11.465
70547W        W42961  22.078  12.311   4.807
70548W        W42962  26.183  34.001   2.394
70549W        W42963  13.220  13.254  12.843
70550W        W42964  38.542  31.104  13.497
70551W        W42965  13.141  12.158   4.237
70552W        W42966  39.460  14.680  12.034
70553W        W42967   1.322   9.337  10.961
70554W        W42968  43.896  30.501  13.532
70555W        W42969  21.065  33.456  10.451
70556W        W42970   0.374   1.454  14.294
70557W        W42971  33.545  41.365  13.832
70558W        W42972  10.769  24.663   0.878
70559W        W42973  11.798   2.967  10.896
70560W        W42974  13.161  19.077   2.347
70561W        W42975   6.755  29.022  10.449
70562W        W42976  36.513  16.661   1.787
70563W        W42977  28.628  32.433   3.717
70564W        W42978   8.182  35.534   4.299
70565W        W42979  22.060  24.481  11.955
70566W        W42980  34.478  35.518   3.641
70567W        W42981   0.481  36.585   1.769
70568W        W42982  18.226  25.536  11.007
70569W        W42983  32.013  27.063   4.808
70570W        W42984   4.317   4.282  10.446
70571W        W42985  25.556   4.775  10.993
70572W        W42986  23.012  29.477   0.259
70573W        W42987  44.876  31.055  12.956
70574W        W42988  26.618  21.216  12.424
70575W        W42989  29.139  25.585   2.697
70576W        W42990   4.321  18.082  14.349
70577W        W42991  38.475  29.077   2.234
70578W        W42992  11.220  22.650   2.789
70579W        W42993  27.162  21.042  12.096
70580W        W42994   4.727  21.088  10.576
70581W        W42995  27.492  19.087  13.870
70582W        W42996  34.468  30.004   4.721
70583W        W42997  37.865  32.397  11.019
70584W        W42998  21.148  23.544  11.914
70585W        W42999  28.592   8.845   2.384
70586W        W43000  29.048  17.273   4.808
70587W        W43001  28.064   9.852  10.525
70588W        W43002  36.011   7.222  13.023
70589W        W43003   0.836   7.667  13.397
70590W        W43004  15.821   8.178   2.187
70591W        W43005  23.046  27.189   2.394
70592W        W43006  44.298  11.644  11.411
70593W        W43007  24.579  24.003   3.325
70594W        W43008   2.855  34.915  14.941
70595W        W43009  19.770   0.406   4.659
70596W        W43010  25.667  38.513   3.659
70597W        W43011  32.125  33.487  12.948
70598W        W43012  26.177  25.192  14.275
70599W        W43013  26.122  17.565  12.498
70600W        W43014  44.778  25.694  11.512
70601W        W43015  11.778  33.055  11.444
70602W        W43016  43.806   8.659   3.629
70603W        W43017  33.603  13.235   3.679
70604W        W43018  27.578  29.962   3.245
70605W        W43019  32.968  34.375  13.970
70606W        W43020   6.892  38.051   3.802
70607W        W43021  30.971  39.061   2.207
70608W        W43022  10.800  18.290   3.233
70609W        W43023  14.138   1.817  10.447
70610W        W43024  40.890  32.028  10.462
70611W        W43025  23.059  41.832   2.363
70612W        W43026  17.109  41.428   4.773
70613W        W43027  43.352  26.684   3.328
70614W        W43028  32.909   0.392   2.725
70615W        W43029  11.211  23.519   1.822
70616W        W43030  18.608  26.696   0.807
70617W        W43031   9.744  22.556  13.507
70618W        W43032  27.551   6.331  12.377
70619W        W43033  31.488  24.064   1.838
70620W        W43034  10.205  42.844   0.336
70621W        W43035  18.123  42.322   0.347
70622W        W43036  35.574  36.024  10.564
70623W        W43037  25.548  11.779   0.869
70624W        W43038  35.966  27.051  14.320
70625W        W43039   9.342  35.570  12.015
70626W        W43040  34.468  10.359  13.475
70627W        W43041  13.742  12.707   4.751
70628W        W43042  13.698  10.651  11.415
70629W        W43043  11.701  22.133   1.402
70630W        W43044  43.450  30.058   2.295
70631W        W43045  41.515  16.172   0.383
70632W        W43046  15.789   4.795   3.161
70633W        W43047   9.888  32.586  13.029
70634W        W43048  18.153   5.242  11.090
70635W        W43049  15.163  17.199   2.672
70636W        W43050  20.626  41.375   1.869
70637W        W43051   8.890  42.953   4.820
70638W        W43052  41.942  12.854  11.423
70639W        W43053  31.152   7.767   2.762
70640W        W43054  35.056  12.163   0.797
70641W        W43055  11.165  39.821   4.694
70642W        W43056  25.614  13.602   1.435
70643W        W43057   1.283  24.534   2.297
70644W        W43058   6.383  13.118   0.834
70645W        W43059   9.206   4.821  14.829
70646W        W43060   3.926  15.263   5.140
70647W        W43061  34.091   7.815  11.478
70648W        W43062  44.926   6.309  12.581
70649W        W43063  29.573  40.938   0.246
70650W        W43064  19.589  43.313  11.110
70651W        W43065  25.592  39.032  12.094
70652W        W43066  42.820   0.840  11.929
70653W        W43067  26.586  32.923  14.855
70654W        W43068  43.323  37.429  13.859
70655W        W43069   6.329  43.832   2.313
70656W        W43070  10.678   6.272   0.759
70657W        W43071  40.472  39.998   2.353
70658W        W43072  10.672   2.762  10.427
70659W        W43073  35.568   2.881   0.801
70660W        W43074  33.988   4.352  12.558
70661W        W43075  43.904  24.985  14.367
70662W        W43076  40.820  33.529  13.836
70663W        W43077  38.077  33.944   3.315
70664W        W43078  39.415  20.038   0.900
70665W        W43079   6.349   7.789   4.168
70666W        W43080  19.694  28.012   5.137
70667W        W43081  34.918  43.989  14.352
70668W        W43082  15.645   5.893   3.639
70669W        W43083  44.473   5.721   4.683
70670W        W43084  39.020  35.983  12.490
70671W        W43085  27.567  19.082  14.358
70672W        W43086  23.529   4.943   4.175
70673W        W43087  34.028  15.289   3.335
70674W        W43088  32.428  43.867   3.842
70675W        W43089  23.089  14.267   3.259
70676W        W43090  43.475  27.490   2.861
70677W        W43091  20.525  38.975   4.780
70678W        W43092  25.007  26.081   2.233
70679W        W43093  29.169  31.123  10.577
70680W        W43094   5.788  43.498   3.184
70681W        W43095  42.426  17.294   0.319
70682W        W43096  27.595  33.110   3.273
70683W        W43097  23.557  20.746   3.315
70684W        W43098   1.355   6.344  12.489
70685W        W43099  24.129   8.708   0.901
70686W        W43100   4.287  30.490  11.008
70687W        W43101  25.017  13.804  10.615
70688W        W43102  30.014  29.986   2.289
70689W        W43103  15.789  30.068  12.350
70690W        W43104  20.723   3.347  12.955
70691W        W43105  19.660  35.555  13.891
70692W        W43106  27.560   4.246  11.904
70693W        W43107  25.669   0.960   1.744
70694W        W43108  24.117  30.007  12.388
70695W        W43109  15.259  24.571  14.960
70696W        W43110  33.576   1.359   4.318
70697W        W43111  34.949  21.576   4.751
70698W        W43112  29.602  28.151   5.189
70699W        W43113   6.689  43.875   1.346
70700W        W43114   7.708  21.125   1.917
70701W        W43115  10.168  23.645  12.421
70702W        W43116  35.940  20.139  12.906
70703W        W43117  23.650  22.704  12.940
70704W        W43118   0.432  31.561   3.815
70705W        W43119  39.995  25.128   2.360
70706W        W43120  21.564  21.710  10.923
70707W        W43121  33.914   1.408   3.719
70708W        W43122  28.120  39.345  14.498
70709W        W43123  24.507  11.355  11.555
70710W        W43124  12.826  10.740   2.339
70711W        W43125  35.395  18.081  14.446
70712W        W43126   0.970  27.627   3.290
70713W        W43127  10.298   1.291  14.786
70714W        W43128  39.397  21.668  14.858
70715W        W43129  38.845  19.617   1.267
70716W        W43130  13.648   8.307  13.488
70717W        W43131  24.021  39.950   3.666
70718W        W43132  39.513  31.495  14.393
70719W        W43133  15.170  16.641   3.859
70720W        W43134  25.611  27.641   0.824
70721W        W43135  44.353  34.420   4.191
70722W        W43136  43.955  36.468  13.843
70723W        W43137  11.231  18.762  14.289
70724W        W43138   3.259   4.240   3.364
70725W        W43139  36.417  22.601  10.046
70726W        W43140   8.244  27.062   4.204
70727W        W43141  14.312  31.142  13.446
70728W        W43142  17.163  40.914   1.734
70729W        W43143  17.612  23.170  12.378
70730W        W43144  28.093  12.615   5.231
70731W        W43145   0.973   1.430  13.896
70732W        W43146  10.155  26.519  14.823
70733W        W43147  34.610  31.997  12.494
70734W        W43148  29.607  24.481  11.521
70735W        W43149  36.480  42.792   4.665
70736W        W43150  19.641  19.243   2.798
70737W        W43151   4.756  17.767   3.198
70738W        W43152  18.252  19.667  14.319
70739W        W43153   7.253  38.060  13.806
70740W        W43154  31.993  44.815   1.794
70741W        W43155   3.834  17.781  12.078
70742W        W43156   3.919  38.916  10.986
70743W        W43157  36.396   3.845   1.708
70744W        W43158  44.893  33.074  10.643
70745W        W43159  39.879  22.179  11.385
70746W        W43160  41.904  17.575  10.590
70747W        W43161   7.690  28.587  14.429
70748W        W43162  38.859  13.338   4.688
70749W        W43163  16.110   4.428  13.420
70750W        W43164  10.272  33.422  14.447
70751W        W43165  13.697  26.126   0.932
70752W        W43166  33.009  38.825  13.865
70753W        W43167  19.752  16.742  10.589
70754W        W43168  23.068  28.497  11.434
70755W        W43169  33.930  25.072  12.860
70756W        W43170  33.417  31.594  11.880
70757W        W43171  37.391   9.238  12.487
70758W        W43172  43.433  43.796  11.454
70759W        W43173   5.247   0.282   0.877
70760W        W43174  32.969  24.993  14.841
70761W        W43175  32.461  10.346  10.003
70762W        W43176  27.471  39.377  12.391
70763W        W43177  32.488   4.276   0.938
70764W        W43178  34.981  37.459  10.566
70765W        W43179  44.888  41.853   1.911
70766W        W43180  32.910  42.446   4.769
70767W        W43181  42.794  39.864  12.474
70768W        W43182  20.691  36.950  13.857
70769W        W43183   9.232  28.556   1.318
70770W        W43184  23.145   6.412   1.222
70771W        W43185  41.910  39.393  10.447
70772W        W43186  22.202   3.422   0.728
70773W        W43187  20.715   1.836   1.789
70774W        W43188  11.326  20.179   2.865
70775W        W43189  21.705  14.222   1.806
70776W        W43190  31.139  12.737   2.213
70777W        W43191  13.616  27.051   3.704
70778W        W43192   0.473   7.416   2.274
70779W        W43193  16.681  44.983   0.811
70780W        W43194  23.059  20.242   2.764
70781W        W43195  44.384  31.995   2.693
70782W        W43196  23.566   4.214  11.079
70783W        W43197  37.049  15.203   1.406
70784W        W43198  11.331  15.786  13.947
70785W        W43199  14.209   2.326   4.219
70786W        W43200  32.492   3.913   4.791
70787W        W43201   0.396  40.444   0.874
70788W        W43202  22.997   2.355   2.695
70789W        W43203  40.979  34.025   2.348
70790W        W43204  28.019  10.253  11.857
70791W        W43205   3.711   6.677   2.360
70792W        W43206  31.010  31.906   4.143
70793W        W43207  36.549  37.399  10.516
70794W        W43208   1.929   5.867  14.476
70795W        W43209  14.114  37.369  10.515
70796W        W43210  32.602   7.346  10.472
70797W        W43211  16.077  16.684   3.317
70798W        W43212   5.902  11.623   3.198
70799W        W43213  16.590  31.071  12.382
70800W        W43214  15.723   8.889  11.982
70801W        W43215  35.978  19.641   2.743
70802W        W43216  16.772   1.415   3.352
70803W        W43217  25.657  20.215   0.339
70804W        W43218  17.649  35.595   3.752
70805W        W43219  25.178  34.537  11.927
70806W        W43220   7.697   9.807  10.971
70807W        W43221   5.196   6.345  13.824
70808W        W43222  34.578  32.060  11.049
70809W        W43223  39.433  41.313  11.582
70810W        W43224  11.324   4.401   1.753
70811W        W43225   0.980  31.471   2.251
70812W        W43226  34.487  32.009   5.115
70813W        W43227  42.856  20.716   2.234
70814W        W43228   5.705  32.467   3.860
70815W        W43229  21.614   5.420  13.323
70816W        W43230  19.207  20.560  11.881
70817W        W43231  28.943  17.198   3.853
70818W        W43232  44.972  29.943  14.954
70819W        W43233   6.241  33.593   2.232
70820W        W43234  42.373  32.396  13.022
70821W        W43235  40.015  12.711  11.039
70822W        W43236  29.562   7.893   3.754
70823W        W43237  26.500  19.699   1.717
70824W        W43238  11.229  24.977   0.328
70825W        W43239  12.357   7.304  10.994
70826W        W43240   0.412  28.007   0.837
70827W        W43241  12.139  43.853  13.891
70828W        W43242  15.728  17.263  14.829
70829W        W43243  27.521  32.552  10.472
70830W        W43244  18.675  10.834  10.558
70831W        W43245  30.635  16.260  10.476
70832W        W43246  20.700  14.280  14.998
70833W        W43247  12.357   3.317   1.697
70834W        W43248  11.632  40.389  10.073
70835W        W43249  22.242   5.819  10.581
70836W        W43250  39.938  23.585   2.766
70837W        W43251   4.221  32.105  14.394
70838W        W43252  43.842   8.336   1.403
70839W        W43253  23.998   3.422   3.778
70840W        W43254  31.428  29.445  12.866
70841W        W43255  42.477  43.972   2.818
70842W        W43256   2.321   1.365   2.824
70843W        W43257   0.860  17.675   0.856
70844W        W43258   9.311   3.758   2.361
70845W        W43259  24.982  25.036   0.454
70846W        W43260  16.229  28.605   4.719
70847W        W43261   6.311  27.061   4.281
70848W        W43262  23.040   9.199  11.113
70849W        W43263   4.399  36.369  10.518
70850W        W43264  37.438  19.273  14.468
70851W        W43265  26.146   6.370   3.783
70852W        W43266  23.516  20.565  13.846
70853W        W43267  11.208   8.180   0.407
70854W        W43268  44.005  19.141  10.910
70855W        W43269   9.680  14.749  11.034
70856W        W43270  14.225   7.787  12.413
70857W        W43271   5.691  27.978  12.026
70858W        W43272  24.619  23.676  12.054
70859W        W43273  40.948   3.766   3.328
70860W        W43274   6.197  16.589  11.516
70861W        W43275  24.529  20.087  13.416
70862W        W43276  30.536  35.526  12.397
70863W        W43277   7.279   3.946   0.337
70864W        W43278  26.592  20.126   2.196
70865W        W43279   5.917  38.452   2.307
70866W        W43280  15.120  42.406   3.229
70867W        W43281  18.118  37.927  11.404
70868W        W43282  18.649  14.229  12.924
70869W        W43283  23.044  31.592   2.685
70870W        W43284  17.087   8.163  11.006
70871W        W43285  42.472  44.263   1.755
70872W        W43286  20.752   4.786  11.372
70873W        W43287  42.896  12.823  13.445
70874W        W43288  41.377  26.662  11.864
70875W        W43289   3.219   7.361  12.360
70876W        W43290  26.131   9.852  12.529
70877W        W43291  36.585  31.529  14.809
70878W        W43292  37.475  34.414  10.435
70879W        W43293   0.810   3.320   1.387
70880W        W43294  33.995  12.672   3.386
70881W        W43295   8.654   9.649   2.775
70882W        W43296   2.927  24.125  13.536
70883W        W43297  18.622  11.269  11.876
70884W        W43298   9.820  28.961   2.712
70885W        W43299  19.692  28.521   3.182
70886W        W43300  31.959  23.525  14.998
70887W        W43301  38.975  28.175  11.531
70888W        W43302  38.988  39.944   1.308
70889W        W43303   4.371  28.504  12.838
70890W        W43304  31.591  33.960  13.422
70891W        W43305  39.937  44.912   0.286
70892W        W43306  19.563  39.433   3.689
70893W        W43307  27.948  33.595   5.168
70894W        W43308  22.042  32.087  12.067
70895W        W43309  39.922   5.277   0.749
70896W        W43310  31.609  23.103   0.325
70897W        W43311  32.123   7.206   4.156
70898W        W43312  39.521   0.301   0.777
70899W        W43313  31.996  11.312   2.390
70900W        W43314  39.383  43.435  14.871
70901W        W43315  42.968  20.243   1.884
70902W        W43316   6.718  15.684  13.368
70903W        W43317   1.302  33.624  14.928
70904W        W43318  29.572  14.117  14.809
70905W        W43319  26.460  40.971  11.473
70906W        W43320  31.507   0.396   2.284
70907W        W43321  21.145   8.231   0.870
70908W        W43322  29.550  39.455  11.877
70909W        W43323   5.749  18.144  13.468
70910W        W43324  32.597  40.448   0.418
70911W        W43325  28.488   0.393  10.624
70912W        W43326  28.134  14.196  12.495
70913W        W43327  15.151  34.985   3.803
70914W        W43328  24.015  18.572  14.302
70915W        W43329  15.649  22.088  14.929
70916W        W43330   6.814  15.773   3.711
70917W        W43331   0.355  25.634  11.929
70918W        W43332  33.876  15.219   4.663
70919W        W43333  31.422   0.341  10.505
70920W        W43334  28.065  36.010  11.020
70921W        W43335   0.815  10.333   4.833
70922W        W43336   5.318  36.064   1.835
70923W        W43337   8.364   3.262   2.389
70924W        W43338  29.166  42.334  12.485
70925W        W43339  19.662   4.277   0.454
70926W        W43340  35.424  21.640   4.689
70927W        W43341  29.092  28.128  13.946
70928W        W43342  43.507  39.960   4.678
70929W        W43343  21.602  13.222  10.958
70930W        W43344  37.341  19.559  10.609
70931W        W43345  16.655   8.353   1.816
70932W        W43346  18.707  11.693  11.554
70933W        W43347  36.414  44.436   0.822
70934W        W43348  18.551  29.595  13.414
70935W        W43349  26.017  15.233   1.366
70936W        W43350  42.825  35.107   0.481
70937W        W43351   7.826  19.778  13.930
70938W        W43352  12.290  30.943  14.019
70939W        W43353  23.512  22.706   4.197
70940W        W43354  30.634  15.819   4.173
70941W        W43355  14.783  21.583  13.929
70942W        W43356  17.133  23.234   3.642
70943W        W43357  41.525  10.319   1.699
70944W        W43358   3.382   2.264   3.837
70945W        W43359  38.010   9.313   4.305
70946W        W43360  42.012   1.750  12.347
70947W        W43361   0.767  18.111  13.396
70948W        W43362  24.121   4.920  10.573
70949W        W43363  22.542  34.013  14.015
70950W        W43364  30.565  18.598  14.476
70951W        W43365  41.954  43.783  11.099
70952W        W43366  13.298   4.298  14.770
70953W        W43367   7.314  32.507  13.436
70954W        W43368  42.496   0.290   0.746
70955W        W43369  14.804  44.963   3.308
70956W        W43370  18.628  12.669  13.934
70957W        W43371  32.460  33.898  14.009
70958W        W43372  21.058  26.083  10.110
70959W        W43373  25.169  16.679  10.421
70960W        W43374  33.081  40.385   3.157
70961W        W43375   7.823  24.112   0.334
70962W        W43376   4.842   5.698  11.394
70963W        W43377   5.851   8.775   3.354
70964W        W43378  24.130  44.320   9.630
70965W        W43379  28.039  24.975   0.737
70966W        W43380  36.048  10.867   0.479
70967W        W43381  30.533  24.524   3.211
70968W        W43382  24.648  39.319  14.479
70969W        W43383  17.763  12.207   0.777
70970W        W43384  32.423  11.626   1.873
70971W        W43385   5.386   0.949   1.221
70972W        W43386  24.636   9.861  10.474
70973W        W43387   6.772   7.180   4.203
70974W        W43388   7.706   1.965   9.934
70975W        W43389  31.402   3.379   3.147
70976W        W43390  18.666   3.924   3.742
70977W        W43391   9.717  17.251  10.582
70978W        W43392  14.798  38.071  11.002
70979W        W43393   3.778  28.990  12.573
70980W        W43394  23.561  32.543   3.866
70981W        W43395  25.063  13.263   2.667
70982W        W43396  37.473   0.493   4.265
70983W        W43397  41.809  21.201   3.365
70984W        W43398  26.208  21.061  10.929
70985W        W43399  30.556  22.195   3.674
70986W        W43400   3.238  43.394   2.235
70987W        W43401  41.306   5.311   1.821
70988W        W43402  16.213  36.912  11.493
70989W        W43403  35.052  20.731   0.748
70990W        W43404  28.486   8.290   2.302
70991W        W43405  38.530  13.160  11.938
70992W        W43406  12.327  30.054   2.345
70993W        W43407   0.330  12.813   2.803
70994W        W43408  14.788   1.731  13.974
70995W        W43409  24.043   2.927   0.783
70996W        W43410  39.405  26.079  14.417
70997W        W43411  38.073  27.531   4.792
70998W        W43412  21.696  14.115  13.317
70999W        W43413  40.806  41.494   2.323
71000W        W43414  40.922  10.345  13.900
71001W        W43415   0.980  14.190   1.450
71002W        W43416  22.150  19.075   3.831
71003W        W43417  24.705  44.800  14.292
71004W        W43418  40.042   8.201   1.776
71005W        W43419   8.383  42.942   4.311
71006W        W43420  11.322  34.984   3.733
71007W        W43421   9.869  28.451  14.342
71008W        W43422  21.684  43.021  13.831
71009W        W43423  29.175  40.922  12.493
71010W        W43424  13.833  12.155   3.757
71011W        W43425   0.784   7.309   1.926
71012W        W43426   5.783  31.610   1.312
71013W        W43427   6.371  31.074  12.366
71014W        W43428  28.054  22.574   0.738
71015W        W43429  28.097  29.109   5.108
71016W        W43430  16.653  11.702  14.360
71017W        W43431  31.617  13.129   4.767
71018W        W43432  36.874   2.861   2.413
71019W        W43433   1.471  33.445   3.326
71020W        W43434  44.830  35.060  12.940
71021W        W43435  24.982  31.967   4.142
71022W        W43436  39.380  18.219  10.626
71023W        W43437  40.458   5.913   1.229
71024W        W43438  19.706  30.645   0.323
71025W        W43439  26.639  11.730   2.408
71026W        W43440  35.960  25.042  11.475
71027W        W43441  38.516  21.067   2.384
71028W        W43442  31.416  21.577  11.486
71029W        W43443  20.542  35.041   2.268
71030W        W43444  24.515   7.787  11.410
71031W        W43445  34.995   7.868  11.517
71032W        W43446   4.941  13.702  14.380
71033W        W43447  36.394  39.952  12.857
71034W        W43448   1.767  36.051  14.420
71035W        W43449  27.685  21.636  12.420
71036W        W43450  27.197  25.614   2.226
71037W        W43451  14.593   7.191  10.144
71038W        W43452  39.349   3.236   0.785
71039W        W43453   6.681  30.522   4.627
71040W        W43454  21.621  42.498   1.814
71041W        W43455   1.280  29.048   0.817
71042W        W43456   6.694  24.088  11.002
71043W        W43457  26.693  20.593   3.287
71044W        W43458   4.209  28.096   2.340
71045W        W43459  40.839   3.923   4.266
71046W        W43460  41.928  17.662   3.252
71047W        W43461   0.751  10.698  11.418
71048W        W43462  21.022  11.837   5.238
71049W        W43463  14.137   8.372   2.246
71050W        W43464   8.186  42.407  13.013
71051W        W43465  35.380  23.564   2.383
71052W        W43466  28.586   8.208   3.256
71053W        W43467  39.029  18.706   3.327
71054W        W43468   0.957  18.264  10.152
71055W        W43469  20.745  30.016   4.125
71056W        W43470  11.152  33.596   4.751
71057W        W43471   4.381  34.984  14.307
71058W        W43472  29.040  14.590   0.314
71059W        W43473  21.125  21.042   2.297
71060W        W43474  44.486  39.423   1.259
71061W        W43475  13.202   1.274   3.345
71062W        W43476  14.674   1.441  14.366
71063W        W43477  22.609  19.260   4.664
71064W        W43478  19.116   4.236  12.400
71065W        W43479   8.869   0.755   2.755
71066W        W43480  44.393   7.307   9.926
71067W        W43481   9.844  23.595  10.645
71068W        W43482  20.527  31.972   1.262
71069W        W43483  32.000  23.543  10.938
71070W        W43484  15.718  40.909   4.200
71071W        W43485  19.726   2.425   0.372
71072W        W43486  29.070   9.730  10.575
71073W        W43487  10.642  31.966   4.168
71074W        W43488  14.699  11.190   1.766
71075W        W43489  14.759   9.153  11.577
71076W        W43490  20.587  30.979  13.318
71077W        W43491  27.553  44.819  12.342
71078W        W43492  41.786  34.997   4.742
71079W        W43493  13.117  42.294   1.263
71080W        W43494  40.414  31.051  13.000
71081W        W43495   6.738  28.502  10.903
71082W        W43496  19.099  19.651  13.987
71083W        W43497  19.045  10.680  11.071
71084W        W43498  18.630  33.920  14.769
71085W        W43499  29.011  24.034   2.216
71086W        W43500   8.381   6.704  14.283
71087W        W43501   2.259  13.795   3.277
71088W        W43502  29.462  38.938  10.993
71089W        W43503  15.724   7.849   4.259
71090W        W43504   1.399  32.899   4.268
71091W        W43505  23.986  22.136  12.931
71092W        W43506  38.520  20.597   2.300
71093W        W43507  23.561   9.351   3.696
71094W        W43508  39.477   7.704   2.346
71095W        W43509  24.521  33.504   0.926
71096W        W43510  26.203  28.569   4.653
71097W        W43511  25.015   9.287  14.323
71098W        W43512  25.586   4.317  13.023
71099W        W43513   3.394  28.557   0.395
71100W        W43514   0.910  30.978  12.350
71101W        W43515  37.548  23.077  13.949
71102W        W43516  30.567  41.993  13.547
71103W        W43517   1.877  25.517   1.901
71104W        W43518  29.518   5.887  14.876
71105W        W43519  19.554  39.528   1.353
71106W        W43520   4.441  31.120   4.126
71107W        W43521   4.340  14.711  12.571
71108W        W43522  17.211  39.892  11.434
71109W        W43523  19.631   0.275  14.839
71110W        W43524  38.407  10.237  13.547
71111W        W43525  32.464  32.562  11.049
71112W        W43526  19.174  17.555  12.080
71113W        W43527  36.537   0.312   0.350
71114W        W43528  22.564  24.036  13.537
71115W        W43529  39.904  40.486   1.311
71116W        W43530   3.352  12.610   2.357
71117W        W43531   3.850  22.539  10.521
71118W        W43532   2.956  44.266   4.209
71119W        W43533  43.305  26.111  14.425
71120W        W43534  11.362  30.949  11.040
71121W        W43535  27.064  42.422   0.434
71122W        W43536  43.889  39.060  10.492
71123W        W43537  19.280  12.809  14.872
71124W        W43538  14.307  25.962   3.808
71125W        W43539   2.773  22.173   0.261
71126W        W43540  41.813  35.503  14.837
71127W        W43541   4.892   6.241   4.348
71128W        W43542  19.653  34.475  14.769
71129W        W43543   5.281   4.870   3.686
71130W        W43544  29.159  26.046   2.900
71131W        W43545   4.316   9.383  10.445
71132W        W43546  14.802  30.042   0.330
71133W        W43547  43.512  34.609   0.464
71134W        W43548  16.165  20.732  13.035
71135W        W43549  39.555  42.921  12.530
71136W        W43550  19.692  34.961  10.444
71137W        W43551   0.938   2.877  14.409
71138W        W43552  28.557  17.074  11.956
71139W        W43553  29.515  39.403  13.523
71140W        W43554  13.118  43.901   0.288
71141W        W43555  39.898  26.013  14.361
71142W        W43556  29.651   5.322   4.165
71143W        W43557  25.203  36.035   1.351
71144W        W43558  40.913  18.765   0.467
71145W        W43559  29.622  14.818  13.405
71146W        W43560  42.853  16.616   2.687
71147W        W43561  12.131  40.909   0.474
71148W        W43562  27.985   6.211   0.856
71149W        W43563  29.932  15.306   3.173
71150W        W43564  29.655  17.619  13.331
71151W        W43565   6.364  44.468   3.228
71152W        W43566  13.604  27.144   1.884
71153W        W43567  22.077  24.978  14.473
71154W        W43568  36.007  21.690   2.886
71155W        W43569  36.994  27.965   4.698
71156W        W43570   5.917  22.521  12.550
71157W        W43571  24.990  29.156   4.148
71158W        W43572  43.017  41.525   2.410
71159W        W43573   4.378   5.732  11.471
71160W        W43574  36.918  19.157  13.050
71161W        W43575  15.717  37.966   2.722
71162W        W43576   6.681  20.728  10.616
71163W        W43577  30.976  40.420   0.742
71164W        W43578  32.422  14.656  11.477
71165W        W43579  39.373  12.190   4.163
71166W        W43580  12.125   5.692  12.463
71167W        W43581  43.516  40.908   1.249
71168W        W43582   2.772  38.446  11.076
71169W        W43583  39.882  21.727   3.850
71170W        W43584  34.021   1.873  13.533
71171W        W43585  14.648  18.726   5.311
71172W        W43586  36.021   0.312  10.430
71173W        W43587   4.808  27.960  12.091
71174W        W43588  11.642  33.074   0.771
71175W        W43589  35.545  18.719   0.892
71176W        W43590  26.011  36.968   1.326
71177W        W43591  37.368  23.165   1.401
71178W        W43592  17.646  36.863  13.458
71179W        W43593  33.580  23.994  13.030
71180W        W43594  23.109  38.864   1.789
71181W        W43595   8.340  19.623   4.623
71182W        W43596  10.762  19.115  14.444
71183W        W43597  34.445  40.051  12.457
71184W        W43598  41.438  35.904   1.441
71185W        W43599   7.275   4.298   1.754
71186W        W43600  27.095   9.338  14.018
71187W        W43601   8.670  19.770  14.508
71188W        W43602  13.184   0.844   2.772
71189W        W43603   3.807  37.454   4.307
71190W        W43604  25.011  33.912   0.729
71191W        W43605  15.136   7.823   3.747
71192W        W43606  29.959   4.389   4.809
71193W        W43607   8.792  19.557  11.036
71194W        W43608  26.161  29.487  10.575
71195W        W43609  39.937   2.293  12.913
71196W        W43610  44.464  39.529  14.451
71197W        W43611  11.358   8.258   3.741
71198W        W43612  17.640   4.709   4.210
71199W        W43613  35.414  21.754   1.744
71200W        W43614  34.570  30.021  11.538
71201W        W43615  16.247  14.757  14.366
71202W        W43616  14.239  41.939   2.332
71203W        W43617  38.944  12.653   2.192
71204W        W43618   6.895   4.717   1.319
71205W        W43619  22.612  44.362   1.720
71206W        W43620  34.962  41.536   0.776
71207W        W43621   5.808  13.134  10.160
71208W        W43622  23.220  31.057  13.925
71209W        W43623  39.416  12.828  13.420
71210W        W43624  38.348  25.177   3.780
71211W        W43625   4.872   9.173  13.838
71212W        W43626  21.528  29.032   2.326
71213W        W43627  25.162  19.537  12.863
71214W        W43628  25.098   9.294  13.314
71215W        W43629   4.935  40.881   3.716
71216W        W43630  28.093  18.705  10.642
71217W        W43631   2.393   7.273   1.445
71218W        W43632  28.970  31.461  13.842
71219W        W43633   7.813   0.936  11.880
71220W        W43634  29.973  42.926   2.367
71221W        W43635   1.767  12.166  13.973
71222W        W43636  36.351  18.220   4.288
71223W        W43637  33.392   1.358   1.779
71224W        W43638   0.316  29.982   4.626
71225W        W43639   8.742  37.396   3.147
71226W        W43640  36.354   5.717  12.880
71227W        W43641  11.630  23.717   3.648
71228W        W43642  22.741  10.213  13.842
71229W        W43643  38.455  41.535  10.500
71230W        W43644  33.886  35.860   0.479
71231W        W43645  22.705   2.835   1.856
71232W        W43646  41.878  15.213   1.813
71233W        W43647  35.103  29.068   4.757
71234W        W43648  17.696   5.853   4.196
71235W        W43649   8.788  17.202  12.885
71236W        W43650  13.821  34.563   4.259
71237W        W43651  22.686  28.582  11.023
71238W        W43652   1.922  29.495  12.880
71239W        W43653  11.659  38.924   2.352
71240W        W43654   1.831  29.172   0.480
71241W        W43655  28.676   8.398  13.854
71242W        W43656  12.697   8.210   4.655
71243W        W43657  22.501  10.844   0.743
71244W        W43658  24.582  27.512   2.900
71245W        W43659  11.727  28.057   4.318
71246W        W43660  33.417   7.696  14.461
71247W        W43661  34.919  35.575   2.793
71248W        W43662  15.119   6.856   2.332
71249W        W43663  16.594  19.152  10.475
71250W        W43664  32.490  28.679  14.914
71251W        W43665  29.995   3.909  13.369
71252W        W43666   3.795   8.169   2.864
71253W        W43667  39.335  12.206   0.894
71254W        W43668  24.106  40.971  12.957
71255W        W43669  24.592  26.970   0.906
71256W        W43670  19.205  17.086  14.853
71257W        W43671   8.389  30.583  10.613
71258W        W43672  21.607  11.845   1.429
71259W        W43673  39.842  17.179   0.828
71260W        W43674  44.302   5.280   1.925
71261W        W43675  26.187  20.153  13.901
71262W        W43676  27.675  11.230  13.472
71263W        W43677  24.542   4.731  12.418
71264W        W43678  37.495  14.617  12.505
71265W        W43679  41.035  39.553   3.303
71266W        W43680   1.833  23.010  11.971
71267W        W43681   2.401  33.611  14.946
71268W        W43682  20.201  31.040   4.216
71269W        W43683  10.267  38.993   2.270
71270W        W43684  10.157  24.645   4.249
71271W        W43685   3.390  15.211  11.481
71272W        W43686  21.102  12.175  12.962
71273W        W43687  23.497  32.983   2.898
71274W        W43688  25.583  25.619  11.490
71275W        W43689   1.313  19.723  13.521
71276W        W43690  31.438  12.321   4.661
71277W        W43691   4.267  15.088   9.608
71278W        W43692   4.221  35.047   2.745
71279W        W43693  29.141   2.441   2.665
71280W        W43694  40.961  12.791   0.430
71281W        W43695  32.606  19.695  14.863
71282W        W43696  18.286  23.088   3.384
71283W        W43697  38.060  36.352  10.638
71284W        W43698  26.601   1.935  12.386
71285W        W43699  33.462   0.872  12.839
71286W        W43700  10.310  24.996  13.377
71287W        W43701  32.616  20.760  11.544
71288W        W43702  24.078  34.992   0.245
71289W        W43703  35.406  30.011   3.677
71290W        W43704  43.485  27.481   1.327
71291W        W43705  21.593   5.803  12.496
71292W        W43706  43.385  22.116   0.835
71293W        W43707  44.367  20.608  11.388
71294W        W43708  41.820  18.561   1.853
71295W        W43709  20.627   4.742  12.571
71296W        W43710   3.442  42.301  13.047
71297W        W43711  11.345  41.814  10.948
71298W        W43712  24.124  31.646  13.318
71299W        W43713  21.261   3.924   3.370
71300W        W43714  32.526  31.581  11.106
71301W        W43715  27.659  20.182  10.575
71302W        W43716   0.860  23.985   1.339
71303W        W43717  10.179   7.695   1.759
71304W        W43718  30.968  26.530  10.969
71305W        W43719  18.113   8.833   3.181
71306W        W43720  44.830  15.622  14.022
71307W        W43721  27.486   1.870  13.522
71308W        W43722   4.796  40.416   0.283
71309W        W43723  44.971  26.001   3.328
71310W        W43724  28.098   1.758   0.961
71311W        W43725  39.529   1.907  12.874
71312W        W43726  18.721  17.569  10.497
71313W        W43727   6.366  26.671   2.283
71314W        W43728  43.437  21.086  13.867
71315W        W43729  36.349   4.418  13.432
71316W        W43730  13.828  30.632  10.442
71317W        W43731  35.552  20.055  14.509
71318W        W43732   2.313  35.101  11.381
71319W        W43733  21.128  21.591   4.732
71320W        W43734  30.512   0.939  14.414
71321W        W43735  26.527  40.009  11.975
71322W        W43736  31.103  12.833  11.087
71323W        W43737  16.200  13.651  13.017
71324W        W43738  35.063  34.378  12.513
71325W        W43739   6.870  31.487   3.310
71326W        W43740  35.860  18.111  11.571
71327W        W43741  20.034  18.779  11.061
71328W        W43742  20.096  32.933  14.446
71329W        W43743  20.136  17.740  13.984
71330W        W43744   8.817  30.531  13.045
71331W        W43745   5.264  37.048  14.824
71332W        W43746   1.951  25.992   2.852
71333W        W43747   5.816   5.927  14.499
71334W        W43748  22.592  41.857  11.863
71335W        W43749  12.713  36.447  14.509
71336W        W43750  42.005  25.643  11.068
71337W        W43751   8.197   6.724  10.918
71338W        W43752  20.684  43.921   1.918
71339W        W43753  40.906  35.545  13.350
71340W        W43754   6.365  23.230  14.795
71341W        W43755  22.155  20.187  13.519
71342W        W43756  36.514   3.812   3.867
71343W        W43757  40.037   2.938  10.933
71344W        W43758  23.679  42.513   2.213
71345W        W43759   7.299  25.486   2.741
71346W        W43760  42.986  27.109  11.003
71347W        W43761  16.809  28.006  13.880
71348W        W43762  38.884  28.641   1.799
71349W        W43763  12.705  11.811   2.377
71350W        W43764  34.990   9.789   1.271
71351W        W43765  15.743  20.712  13.954
71352W        W43766   7.889  39.040  10.497
71353W        W43767   6.760   5.927   1.763
71354W        W43768  36.462  39.957  11.056
71355W        W43769  14.094  13.160   1.851
71356W        W43770  16.715  29.614  13.349
71357W        W43771   2.327  32.430  12.444
71358W        W43772  38.419   5.233   3.384
71359W        W43773  18.714  31.576   1.387
71360W        W43774  30.093  23.506  14.759
71361W        W43775   9.193  23.017  11.902
71362W        W43776  35.442  27.461   4.670
71363W        W43777  32.433  13.328   1.919
71364W        W43778  40.885  23.168  12.977
71365W        W43779  38.834  11.325  10.634
71366W        W43780  26.982  28.470   3.176
71367W        W43781   2.807  31.068  11.395
71368W        W43782  21.247  42.860  11.590
71369W        W43783   7.250  11.828  14.844
71370W        W43784  33.584  13.212   4.629
71371W        W43785  31.094  27.965   1.301
71372W        W43786  34.085  41.030  13.870
71373W        W43787   0.771  32.399   2.758
71374W        W43788  33.506  26.521   1.389
71375W        W43789   8.741   1.786   4.274
71376W        W43790  37.511  10.345   4.264
71377W        W43791  25.019  20.586   3.687
71378W        W43792   9.886  40.024   4.768
71379W        W43793   2.960  13.286  12.368
71380W        W43794  41.948  28.649   4.294
71381W        W43795  44.762  35.963  10.927
71382W        W43796  25.590  32.443   4.338
71383W        W43797  43.444  27.669   3.294
71384W        W43798  21.060   3.955  14.485
71385W        W43799  27.988  29.453   3.696
71386W        W43800  26.005  33.907  12.548
71387W        W43801   7.714  14.597  11.978
71388W        W43802  29.565   1.370   1.862
71389W        W43803  35.566  21.574  12.019
71390W        W43804  15.670  39.504   2.687
71391W        W43805  16.666  35.588  11.591
71392W        W43806  27.998   1.428  11.981
71393W        W43807   7.274   4.925   4.269
71394W        W43808  21.035  21.071   2.729
71395W        W43809  16.234  18.749   1.766
71396W        W43810  19.058  26.521  10.549
71397W        W43811  20.044  12.806  10.124
71398W        W43812   3.806   3.432  11.528
71399W        W43813  11.235  35.053   4.633
71400W        W43814  37.951  11.778  13.399
71401W        W43815  36.533  36.988  13.344
71402W        W43816  11.689  42.462   0.463
71403W        W43817  15.707  35.435  10.508
71404W        W43818  33.103  24.186  12.935
71405W        W43819  37.570  27.521  10.564
71406W        W43820  24.568   6.824  11.098
71407W        W43821  12.829  31.409   4.296
71408W        W43822  20.685  23.002   3.771
71409W        W43823  43.342   4.779  12.431
71410W        W43824  23.648  21.592   4.246
71411W        W43825   5.865  33.893   4.661
71412W        W43826  21.115   1.887  12.918
71413W        W43827  11.857  19.133   3.281
71414W        W43828  27.656  20.762  10.977
71415W        W43829   0.493  10.266  12.886
71416W        W43830   5.698  33.938  10.466
71417W        W43831  29.938  26.086  14.867
71418W        W43832  22.595  31.984   1.249
71419W        W43833  15.685  25.620   3.637
71420W        W43834  38.993  25.084   9.977
71421W        W43835  18.057  13.653  12.442
71422W        W43836  24.074  14.266  12.506
71423W        W43837  13.661   3.956   2.880
71424W        W43838  36.372   1.881  10.975
71425W        W43839  34.454  12.151   4.677
71426W        W43840  16.784  14.640  10.581
71427W        W43841  38.554  39.018   1.806
71428W        W43842  26.962  20.753  11.399
71429W        W43843  29.124  31.019  13.920
71430W        W43844  29.140  16.716  14.935
71431W        W43845  13.700  16.757  14.990
71432W        W43846  13.242  37.910   0.250
71433W        W43847  24.991  14.807   4.726
71434W        W43848  23.701   6.909   2.289
71435W        W43849  27.473  14.665  10.499
71436W        W43850   5.264  15.286  14.374
71437W        W43851  35.433  33.915  12.435
71438W        W43852  21.600  35.040   2.232
71439W        W43853  15.099   1.280  10.510
71440W        W43854  10.351  15.649   1.414
71441W        W43855   1.866  23.683   0.271
71442W        W43856  44.315  10.791   4.814
71443W        W43857  39.338   0.323   2.677
71444W        W43858  25.622  43.928   9.994
71445W        W43859  27.012  34.417  12.887
71446W        W43860   7.287   3.416  14.440
71447W        W43861  12.187  13.734   1.761
71448W        W43862  18.784  18.127   1.327
71449W        W43863  39.333   0.303  11.919
71450W        W43864  28.588  15.221  13.481
71451W        W43865  16.706   8.277   0.873
71452W        W43866  32.465  10.875  13.925
71453W        W43867  34.071  34.581  13.441
71454W        W43868   6.278  43.508   0.864
71455W        W43869  38.377   5.803   4.303
71456W        W43870  21.593  35.108   4.269
71457W        W43871  29.126  33.914   0.272
71458W        W43872  43.930  11.235  14.477
71459W        W43873   4.822  29.059   4.332
71460W        W43874  13.208  16.745   4.348
71461W        W43875  21.020  21.243  13.033
71462W        W43876   5.748  10.278   1.861
71463W        W43877  37.448  31.542   0.349
71464W        W43878  20.191  44.969   2.716
71465W        W43879  21.199  33.617   2.768
71466W        W43880  31.590   2.345  12.019
71467W        W43881  15.729  11.810   4.308
71468W        W43882  33.073  21.082   4.722
71469W        W43883  18.642  29.533   0.314
71470W        W43884  26.168  36.936   3.346
71471W        W43885  36.386   3.784  14.286
71472W        W43886   4.397   6.846  10.556
71473W        W43887  39.364  24.537   0.325
71474W        W43888  43.369  42.860  11.921
71475W        W43889   7.232  43.914  11.383
71476W        W43890   8.690  24.507   2.321
71477W        W43891  32.421   7.671   1.382
71478W        W43892  27.108  19.767  12.835
71479W        W43893  32.100  33.900   2.728
71480W        W43894   0.755  40.457  12.884
71481W        W43895   2.422   6.255  11.090
71482W        W43896  10.831   1.832   3.350
71483W        W43897  23.140  31.014   1.708
71484W        W43898  21.137  25.998  14.481
71485W        W43899  13.810   5.337   2.813
71486W        W43900  21.133  21.067  13.808
71487W        W43901  13.624  40.052   4.673
71488W        W43902  32.929  11.167   4.248
71489W        W43903  33.935  38.951   0.869
71490W        W43904   1.333  21.056  13.050
71491W        W43905  11.220  24.160  10.619
71492W        W43906  33.453  11.328   3.695
71493W        W43907   1.438  15.226  10.484
71494W        W43908  14.658  35.093   4.187
71495W        W43909  41.466  17.752   0.729
71496W        W43910  25.521  11.708   4.702
71497W        W43911  41.493  22.518  12.984
71498W        W43912  42.499  14.770   2.250
71499W        W43913  18.547  33.607  10.562
71500W        W43914  22.087  19.665   4.326
71501W        W43915  22.626   8.697  13.430
71502W        W43916   3.742  43.322  13.961
71503W        W43917  38.021  19.573  12.574
71504W        W43918  28.044  41.993   2.291
71505W        W43919  42.788  15.268  11.428
71506W        W43920   7.352  17.564   0.906
71507W        W43921   1.805  14.252  10.568
71508W        W43922   1.278   8.291   4.656
71509W        W43923  17.065   0.455  11.014
71510W        W43924   6.829  28.978   4.615
71511W        W43925  42.390  21.555  11.047
71512W        W43926  21.237  33.113   0.902
71513W        W43927  12.751  25.013  11.496
71514W        W43928  32.637  19.641  14.310
71515W        W43929  26.541  14.759   1.825
71516W        W43930  18.640  31.128   1.828
71517W        W43931  17.634  35.378  12.870
71518W        W43932  16.262   1.427   2.781
71519W        W43933  26.589  39.424   2.403
71520W        W43934  12.285   7.733  10.528
71521W        W43935  10.337  11.256   1.319
71522W        W43936  28.558  12.613  13.545
71523W        W43937  44.895   1.295  13.001
71524W        W43938  19.165  11.752  13.331
71525W        W43939  13.197  40.441   4.257
71526W        W43940  39.322  30.511   4.212
71527W        W43941  11.130  26.986   4.823
71528W        W43942  33.533   9.800  11.103
71529W        W43943  26.694   3.953   1.307
71530W        W43944  11.827  29.517   1.837
71531W        W43945  43.905   8.202   4.235
71532W        W43946  12.635   5.705   3.728
71533W        W43947  25.135  25.507  13.512
71534W        W43948  12.130  18.735  10.483
71535W        W43949   4.400  35.874  13.930
71536W        W43950  25.010  22.612   3.839
71537W        W43951  17.589   4.319  11.053
71538W        W43952  23.229  23.001  11.431
71539W        W43953   5.912  43.858  12.015
71540W        W43954  44.312  14.651   0.380
71541W        W43955  33.472  34.389   2.857
71542W        W43956  19.623  23.674   4.788
71543W        W43957  38.499   1.399   1.893
71544W        W43958  44.343  37.918  10.486
71545W        W43959   4.894  20.149  13.797
71546W        W43960  11.652  17.663  14.456
71547W        W43961  36.543  16.216  14.957
71548W        W43962  20.241  27.149  12.926
71549W        W43963  38.526  29.039  13.322
71550W        W43964  27.513  25.997  10.598
71551W        W43965  43.896   1.252  12.093
71552W        W43966  25.027  42.959  14.477
71553W        W43967  16.270  30.428   2.294
71554W        W43968   4.422   0.921   4.351
71555W        W43969   9.200  10.216   1.735
71556W        W43970  44.323   7.375  11.072
71557W        W43971  19.717  32.633  13.056
71558W        W43972  38.841  15.214   4.609
71559W        W43973   2.921  31.115  12.927
71560W        W43974  29.585  43.882  11.467
71561W        W43975  20.161   8.870  14.304
71562W        W43976  28.557  16.809   3.665
71563W        W43977   5.210  10.350   4.749
71564W        W43978  13.212  31.953   5.098
71565W        W43979  30.648   8.726   4.199
71566W        W43980  16.099  25.508   4.655
71567W        W43981  22.511  36.921   2.777
71568W        W43982  20.268  10.666   3.149
71569W        W43983   1.443   3.336   3.284
71570W        W43984  15.771  25.023  14.010
71571W        W43985  32.085  39.942   3.222
71572W        W43986  36.459  11.653  12.866
71573W        W43987  34.055   5.811  11.445
71574W        W43988   1.901  15.289  14.992
71575W        W43989  44.358  19.719  12.914
71576W        W43990   2.358  41.818  10.607
71577W        W43991  18.597  23.128   3.648
71578W        W43992  44.468  29.083  14.346
71579W        W43993  32.129  29.076   2.359
71580W        W43994  12.222  34.061  13.453
71581W        W43995  27.026  39.946  11.482
71582W        W43996  32.088  19.758  10.620
71583W        W43997  22.529   0.868  13.517
71584W        W43998  10.875  23.240   0.263
71585W        W43999  19.121  12.151   3.804
71586W        W44000  22.631  30.058  10.915
71587W        W44001  18.778  10.268  14.829
71588W        W44002  32.020  38.519   4.726
71589W        W44003  17.184  35.529  13.984
71590W        W44004  14.763  14.196   0.785
71591W        W44005  10.837  12.247   2.829
71592W        W44006  19.241  31.425  12.021
71593W        W44007  18.242  11.287   3.831
71594W        W44008  26.562  30.412  14.800
71595W        W44009   3.357   2.417   5.286
71596W        W44010  33.877  30.062  11.967
71597W        W44011  14.145  41.394   1.859
71598W        W44012  43.475   5.418  14.774
71599W        W44013  26.114  33.096  10.578
71600W        W44014  28.055  13.842  12.393
71601W        W44015   5.746  37.502  11.459
71602W        W44016  15.805  35.588   2.328
71603W        W44017  36.926  23.668  10.939
71604W        W44018  25.700  13.282  12.521
71605W        W44019  44.496  34.421   3.792
71606W        W44020  40.372  16.782   4.677
71607W        W44021   0.771  17.097   3.325
71608W        W44022  37.049  13.658  11.004
71609W        W44023  33.450  35.905   3.827
71610W        W44024  25.185  16.738  12.490
71611W        W44025  28.470   8.249  12.993
71612W        W44026  42.885  22.707   1.296
71613W        W44027  38.505  12.731  14.410
71614W        W44028   6.390  30.994   1.850
71615W        W44029   0.910  21.163   1.710
71616W        W44030   5.895  12.732  10.018
71617W        W44031  24.695  11.329   1.322
71618W        W44032  36.557  22.579   5.184
71619W        W44033   9.824  41.033   3.328
71620W        W44034  24.533   5.205   0.806
71621W        W44035  16.585  25.579   4.779
71622W        W44036  32.915   8.352  12.009
71623W        W44037  39.973   3.920   0.918
71624W        W44038   8.775   0.903  13.455
71625W        W44039  18.109  17.649  13.916
71626W        W44040  42.880  35.968   1.305
71627W        W44041  38.026  11.247   4.321
71628W        W44042   4.825  40.911   5.092
71629W        W44043  42.031   3.424   2.861
71630W        W44044  25.218  31.996  13.881
71631W        W44045   1.452  25.469   0.949
71632W        W44046  15.282  36.406  14.988
71633W        W44047   4.789  39.022  11.545
71634W        W44048  11.721  10.671   3.326
71635W        W44049  26.015  31.648   4.780
71636W        W44050  28.445  29.574  14.398
71637W        W44051  37.060  43.313  11.468
71638W        W44052   7.704   6.330   1.391
71639W        W44053  24.002  34.536   4.737
71640W        W44054  19.656   6.806   0.304
71641W        W44055   2.255  33.022  14.934
71642W        W44056   2.762  13.350   9.485
71643W        W44057  19.168   7.275  13.966
71644W        W44058  27.154  20.763  10.987
71645W        W44059   1.932  38.947   3.780
71646W        W44060   4.849  26.537  13.871
71647W        W44061   8.763  16.756  13.943
71648W        W44062  11.739  12.783  12.376
71649W        W44063   2.763  36.557   3.305
71650W        W44064   9.661  37.002  14.885
71651W        W44065   3.906  42.852   2.363
71652W        W44066   6.816   8.747   1.365
71653W        W44067  32.087  29.125  12.446
71654W        W44068  38.048  19.629  13.376
71655W        W44069  42.385  23.002   2.751
71656W        W44070  42.831  25.191   4.816
71657W        W44071   9.187   2.348  12.978
71658W        W44072  22.129  29.160  10.474
71659W        W44073   9.198  10.256  14.501
71660W        W44074  17.228  43.394   4.838
71661W        W44075  17.694  21.713   3.189
71662W        W44076   7.351   5.210  13.821
71663W        W44077  42.926  17.158  11.895
71664W        W44078   2.426  20.743  12.474
71665W        W44079  22.733  41.820  14.349
71666W        W44080  35.975  43.434  10.461
71667W        W44081  36.555  26.193  11.862
71668W        W44082  44.442  26.470   0.342
71669W        W44083  31.623  27.135   4.628
71670W        W44084  25.069  28.448  12.974
71671W        W44085   6.332   4.314   3.863
71672W        W44086   0.858  28.941   4.140
71673W        W44087  13.692  29.104   0.303
71674W        W44088   2.255  23.237  11.545
71675W        W44089  11.216  18.050   4.762
71676W        W44090  41.835  16.771   2.365
71677W        W44091  18.765   6.819  12.929
71678W        W44092  20.530  44.354   4.827
71679W        W44093   7.712  28.651  11.051
71680W        W44094  24.167  17.588   4.727
71681W        W44095   6.820  32.010   1.894
71682W        W44096  23.660  15.295   0.324
71683W        W44097  32.524  21.120  11.098
71684W        W44098  39.318  31.146   1.312
71685W        W44099   1.848  31.501  13.964
71686W        W44100  39.840   1.895  14.296
71687W        W44101  32.918  12.624   0.415
71688W        W44102  23.489  29.964   4.339
71689W        W44103   5.841   0.265   1.435
71690W        W44104  21.692  44.799   3.704
71691W        W44105  17.112  20.699   1.795
71692W        W44106  19.551  20.652  11.416
71693W        W44107  38.050  30.588   4.268
71694W        W44108  30.128  42.300   0.245
71695W        W44109  40.049  24.569  12.519
71696W        W44110  22.521  21.055  12.875
71697W        W44111  12.772  19.636  13.531
71698W        W44112  39.844  15.112  11.910
71699W        W44113  10.369  17.671  11.914
71700W        W44114  41.508  16.634  14.516
71701W        W44115  21.206  43.976  10.422
71702W        W44116  28.505  20.543  12.577
71703W        W44117  24.664  33.938  11.517
71704W        W44118  19.657   8.684  11.513
71705W        W44119  33.034  36.951  10.486
71706W        W44120  30.050  29.926  12.506
71707W        W44121  24.075  14.152   3.166
71708W        W44122  17.787   2.354  14.484
71709W        W44123   2.894  33.612  14.959
71710W        W44124  22.189  10.288  12.824
71711W        W44125  17.793  12.347  10.962
71712W        W44126  30.640  32.490   4.185
71713W        W44127  26.146  37.372   1.430
71714W        W44128  33.567  40.015   1.832
71715W        W44129  44.292  22.654   1.737
71716W        W44130  34.389  35.562  14.493
71717W        W44131   3.255  13.747  13.962
71718W        W44132   0.274  39.046  13.009
71719W        W44133  18.171  16.656  14.453
71720W        W44134  18.649  33.910  12.903
71721W        W44135  36.873   6.720  12.942
71722W        W44136  42.953  23.996  13.321
71723W        W44137  29.000  18.681   1.837
71724W        W44138  24.626  44.915   4.622
71725W        W44139  32.908  15.648   2.890
71726W        W44140  12.168  34.554   4.818
71727W        W44141  42.292  12.705   0.731
71728W        W44142  21.689  20.723   0.728
71729W        W44143  12.134   8.863   1.891
71730W        W44144  27.128  21.675  13.815
71731W        W44145  23.002   3.352   4.245
71732W        W44146   8.743   3.440  12.998
71733W        W44147  24.185   8.802  13.513
71734W        W44148  28.529   9.319   2.266
71735W        W44149  15.795   0.248  14.809
71736W        W44150  13.746  22.738   4.634
71737W        W44151   0.362  24.650   3.192
71738W        W44152  29.505   7.264  13.003
71739W        W44153  30.502   1.285  11.001
71740W        W44154  15.799  42.349  12.893
71741W        W44155  10.696  30.431   2.220
71742W        W44156  38.933   1.477   3.172
71743W        W44157   1.823  35.427  12.530
71744W        W44158  18.780  27.172   4.131
71745W        W44159  20.072  11.255  14.892
71746W        W44160  30.502   3.717  11.963
71747W        W44161  21.235   6.706  14.313
71748W        W44162  44.312   3.847  13.828
71749W        W44163   2.272  26.063   2.389
71750W        W44164  27.958  28.484  13.062
71751W        W44165  17.136  27.147   1.909
71752W        W44166  16.263  34.599   3.254
71753W        W44167  16.084  18.064   1.860
71754W        W44168  13.659  40.984  12.919
71755W        W44169  39.869  10.315   2.890
71756W        W44170  40.916  16.182   0.856
71757W        W44171   5.786   9.217  13.972
71758W        W44172  36.050  34.918   3.240
71759W        W44173  14.281  10.633   1.800
71760W        W44174  43.846   4.354  11.474
71761W        W44175  16.308  21.757  13.424
71762W        W44176  24.139  35.555   1.416
71763W        W44177   7.773  17.083  10.984
71764W        W44178  14.279  22.029  13.340
71765W        W44179  42.810  10.340   1.695
71766W        W44180  16.741  28.603   2.272
71767W        W44181  18.113  36.880  10.569
71768W        W44182   0.339  36.055   1.363
71769W        W44183  40.871  24.580  13.899
71770W        W44184  17.182  37.463   0.385
71771W        W44185  35.538  14.127   0.476
71772W        W44186   6.788  14.755  13.936
71773W        W44187  33.470   2.409   4.786
71774W        W44188  42.817  39.424   4.632
71775W        W44189  16.758  13.345  13.017
71776W        W44190  39.910  37.068   1.723
71777W        W44191  11.843  29.051   3.253
71778W        W44192  19.243  31.939   2.678
71779W        W44193  24.613   9.823  13.027
71780W        W44194  11.790  36.068   9.982
71781W        W44195  33.535  26.550  14.429
71782W        W44196   7.896   1.301  12.496
71783W        W44197  22.660  15.680   4.296
71784W        W44198  44.924  36.051   4.823
71785W        W44199  28.668   6.284   0.819
71786W        W44200   7.326   0.478  14.426
71787W        W44201  23.580   6.826  14.816
71788W        W44202  37.928  15.656  14.013
71789W        W44203   3.281  20.629   1.827
71790W        W44204  13.261  13.185   0.353
71791W        W44205  15.656  39.006   2.811
71792W        W44206  15.587   2.790  12.551
71793W        W44207  29.451  12.304   4.292
71794W        W44208  12.283  40.474   4.307
71795W        W44209  27.064  33.899   0.426
71796W        W44210  24.151   9.737  13.913
71797W        W44211  37.944   6.182  12.850
71798W        W44212  43.799   5.894   0.341
71799W        W44213   8.262  40.468   3.834
71800W        W44214   5.351  43.418  14.032
71801W        W44215   8.816  26.061  12.523
71802W        W44216   0.472  23.044  13.447
71803W        W44217  38.409  37.058  13.369
71804W        W44218  16.079  44.969   1.420
71805W        W44219  31.581  37.081  14.770
71806W        W44220  33.075  31.432   4.215
71807W        W44221  40.345  18.186   4.796
71808W        W44222  27.152  11.224  11.102
71809W        W44223  43.912  36.560  12.464
71810W        W44224  19.103  22.194   3.309
71811W        W44225   6.730  21.054   2.885
71812W        W44226  14.133  36.947  11.580
71813W        W44227   8.227  16.630   0.348
71814W        W44228  36.347  36.998   1.320
71815W        W44229  35.543  25.518   1.223
71816W        W44230  14.107  23.167   4.697
71817W        W44231  33.086  24.655   3.675
71818W        W44232  34.939  23.584   4.211
71819W        W44233  41.807  41.431   1.283
71820W        W44234  17.721  40.836   1.851
71821W        W44235  22.709  22.247   2.313
71822W        W44236  29.611   9.260  13.459
71823W        W44237  18.270  21.164   3.639
71824W        W44238   4.853  42.815   0.402
71825W        W44239  26.698  19.672  11.411
71826W        W44240   0.466  16.213   4.776
71827W        W44241  42.921  26.645   0.479
71828W        W44242   3.836  13.177   3.828
71829W        W44243  37.351  33.115   2.402
71830W        W44244   8.228  14.270   4.190
71831W        W44245  14.822   2.357  13.314
71832W        W44246  10.716  19.689  11.569
71833W        W44247  27.500  31.582   1.891
71834W        W44248  32.129   5.891  12.916
71835W        W44249   1.477  15.774   1.448
71836W        W44250  43.301  43.372  13.528
71837W        W44251   0.896  42.440   1.239
71838W        W44252  19.759   0.453   5.229
71839W        W44253  24.647  32.976   2.263
71840W        W44254  19.226  33.024  14.013
71841W        W44255  24.113   5.244   0.444
71842W        W44256  16.079  38.520  10.418
71843W        W44257   5.899  42.869   0.750
71844W        W44258  34.445   3.368  14.508
71845W        W44259  27.534   4.204  11.504
71846W        W44260  21.747  14.297  11.926
71847W        W44261  31.578   2.436  13.349
71848W        W44262   0.378  10.289   3.325
71849W        W44263  35.413  13.171   4.705
71850W        W44264  20.547  10.384  12.539
71851W        W44265   0.893   9.841  12.363
71852W        W44266  44.414  40.454  14.895
71853W        W44267   4.406  20.738   2.894
71854W        W44268  38.561  41.412  12.985
71855W        W44269   2.252  41.311   2.838
71856W        W44270  34.507  38.420  12.395
71857W        W44271  27.124  23.204   4.133
71858W        W44272   5.693  42.838  12.902
71859W        W44273  37.861   1.401   2.677
71860W        W44274   2.745  11.339  14.429
71861W        W44275  15.583   9.192   1.756
71862W        W44276   6.393  40.942   0.483
71863W        W44277  30.547  19.688   1.302
71864W        W44278  32.129  35.561   0.744
71865W        W44279  38.491   3.747   3.160
71866W        W44280  42.007  43.818   3.826
71867W        W44281   5.210  44.318  13.504
71868W        W44282  15.607  24.000  12.024
71869W        W44283  39.830  13.776   2.686
71870W        W44284   4.422   8.365   4.188
71871W        W44285   1.425  37.908  12.938
71872W        W44286  31.435  21.039  11.894
71873W        W44287  16.652  24.126  13.319
71874W        W44288   0.482  17.752  13.464
71875W        W44289  18.746  35.896  12.400
71876W        W44290  13.729  13.135   1.809
71877W        W44291  43.823  35.860   1.314
71878W        W44292  21.027  37.993  14.826
71879W        W44293  21.628  12.167   3.352
71880W        W44294  14.609  38.531   2.265
71881W        W44295   3.366   5.724  14.998
71882W        W44296  37.981  23.660   1.900
71883W        W44297  10.682   7.694  11.400
71884W        W44298  34.586  34.935  14.997
71885W        W44299   4.740  20.546  10.554
71886W        W44300  20.628  18.675   2.373
71887W        W44301  24.178  19.555   2.265
71888W        W44302  31.407  43.372   0.822
71889W        W44303   6.365  34.895   1.451
71890W        W44304  36.506  43.861   2.798
71891W        W44305  26.997  42.779   0.359
71892W        W44306  37.384  37.056   4.340
71893W        W44307   5.262  39.328  12.881
71894W        W44308  22.681  29.967   0.433
71895W        W44309  32.099  25.603   5.293
71896W        W44310  36.981  34.909  10.060
71897W        W44311   1.862   3.785  10.477
71898W        W44312  22.056  32.441  10.997
71899W        W44313   5.909  24.548   1.336
71900W        W44314  27.497  24.511  13.470
71901W        W44315   6.734  42.382   0.909
71902W        W44316  38.350   8.775  11.509
71903W        W44317  41.424  42.851  11.996
71904W        W44318   5.885   2.436  14.459
71905W        W44319  22.637   9.707  11.457
71906W        W44320  15.603  30.952  10.583
71907W        W44321   4.800   6.286   1.441
71908W        W44322   4.907  36.958   4.161
71909W        W44323  13.287  32.086  13.903
71910W        W44324  39.021  19.673   0.821
71911W        W44325  41.528  23.668   3.830
71912W        W44326  19.177  17.745  10.958
71913W        W44327  44.903  15.176  14.386
71914W        W44328  18.748  20.088  13.377
71915W        W44329  25.603  22.168   2.278
71916W        W44330   0.416  44.811  12.359
71917W        W44331   3.434  28.950   3.176
71918W        W44332  26.607  18.735   2.196
71919W        W44333  27.456  31.554   4.618
71920W        W44334  30.124   5.897   1.392
71921W        W44335  31.491  11.181   4.245
71922W        W44336  22.202   2.731  13.364
71923W        W44337  12.275  44.356   2.195
71924W        W44338  11.260  42.015  13.885
71925W        W44339   6.763  29.929   0.734
71926W        W44340   4.828   3.778   4.188
71927W        W44341  33.452  22.139   0.882
71928W        W44342  37.488  40.981   3.849
71929W        W44343  22.527  23.985  13.860
71930W        W44344  22.635   2.917   0.243
71931W        W44345   2.300   8.875  12.493
71932W        W44346  26.054  32.462  10.956
71933W        W44347  18.220   9.213  13.337
71934W        W44348  37.940  30.456   3.255
71935W        W44349  12.613  29.952   4.742
71936W        W44350  35.457   8.708   3.233
71937W        W44351  31.086  21.081   1.341
71938W        W44352  28.959  29.980  14.340
71939W        W44353   4.273  35.097   3.779
71940W        W44354  14.305  25.488   2.387
71941W        W44355  16.146  23.213  14.953
71942W        W44356  44.409   5.716  11.372
71943W        W44357  38.353  20.651   0.384
71944W        W44358  38.877  36.569   1.286
71945W        W44359  23.207  22.501  13.536
71946W        W44360  12.188  10.799   1.376
71947W        W44361  26.128  24.040   1.258
71948W        W44362   9.378  17.658  10.921
71949W        W44363   0.274  38.946  12.480
71950W        W44364  12.210  26.169   3.737
71951W        W44365  35.862  18.682   4.198
71952W        W44366   0.804  35.576   4.280
71953W        W44367  29.926  10.146   4.685
71954W        W44368   5.431   1.972   3.631
71955W        W44369  19.776  12.151  14.478
71956W        W44370  27.691   9.868  13.528
71957W        W44371  25.586  19.641   0.866
71958W        W44372  16.759  22.708  14.941
71959W        W44373   5.930  24.520   0.380
71960W        W44374  13.763  26.700   0.290
71961W        W44375   3.852  40.966  14.982
71962W        W44376  44.829  13.116   1.839
71963W        W44377  34.878   6.207  14.313
71964W        W44378   1.376  17.235  10.455
71965W        W44379  20.552  15.807  12.506
71966W        W44380  40.007  37.383  14.763
71967W        W44381  19.048   5.391   1.696
71968W        W44382  10.153  41.521  11.044
71969W        W44383  23.668  39.446  11.464
71970W        W44384   2.835  40.348   3.765
71971W        W44385  30.147  30.985  11.057
71972W        W44386  29.477  44.788   1.393
71973W        W44387  10.245  21.602  12.849
71974W        W44388  24.537  41.373  11.422
71975W        W44389   0.438  36.097  10.404
71976W        W44390   3.348   4.276  11.964
71977W        W44391  10.744  31.435   1.853
71978W        W44392  31.524  11.634   3.277
71979W        W44393  43.795   8.274   2.255
71980W        W44394  17.279  29.940   3.208
71981W        W44395  30.647  43.462  11.478
71982W        W44396  32.595  19.581   0.365
71983W        W44397  31.043  12.199  14.959
71984W        W44398  30.945  22.649  12.947
71985W        W44399   2.384   1.420  12.498
71986W        W44400   6.284  33.910   2.775
71987W        W44401  14.758   7.331   2.227
71988W        W44402  44.268   1.780  14.985
71989W        W44403  23.188   2.962  13.440
71990W        W44404  32.585  32.518  14.434
71991W        W44405  41.424  42.884   2.682
71992W        W44406  16.318  31.476   2.232
71993W        W44407  31.081  24.503   0.350
71994W        W44408   6.217  39.057  11.499
71995W        W44409   1.801  16.246  12.957
71996W        W44410   2.263  27.482  11.049
71997W        W44411  25.708  10.306   1.866
71998W        W44412  18.626  19.209   0.830
71999W        W44413  29.656  17.186  12.557
72000W        W44414  23.501  21.235  14.764
72001W        W44415  29.443  42.898   2.391
72002W        W44416  16.188   0.325   3.747
72003W        W44417  44.329  30.484   2.713
72004W        W44418  23.495  28.993   3.693
72005W        W44419  29.061  42.897  12.072
72006W        W44420  44.824   5.873   0.310
72007W        W44421  22.012  36.457   0.857
72008W        W44422  25.043  36.400  12.003
72009W        W44423   5.246   6.772   0.407
72010W        W44424  21.615  42.404  14.800
72011W        W44425   6.308  10.321  12.072
72012W        W44426  35.920  19.739  10.636
72013W        W44427  21.149  26.044   2.256
72014W        W44428  31.543  23.240  13.524
72015W        W44429  40.434   7.393  12.970
72016W        W44430  22.640  38.022   4.733
72017W        W44431  14.651  44.473   1.773
72018W        W44432  39.425   6.331  10.415
72019W        W44433   7.381  41.340  11.599
72020W        W44434  33.556  34.925   2.225
72021W        W44435  13.344  17.601   2.790
72022W        W44436  30.983   2.953  12.924
72023W        W44437  21.158  39.359  14.312
72024W        W44438  30.516  16.191   4.820
72025W        W44439   6.829  27.546   2.361
72026W        W44440   2.239  15.662   3.153
72027W        W44441  18.103   9.212  12.385
72028W        W44442  10.845  25.006   2.745
72029W        W44443  29.134  22.606  12.381
72030W        W44444  42.849  17.293   0.312
72031W        W44445  15.690  33.527  13.380
72032W        W44446  39.039  14.326  13.976
72033W        W44447   9.190  44.966  13.006
72034W        W44448  11.790  44.766   2.410
72035W        W44449  41.367  41.530   2.313
72036W        W44450   0.385  32.065  14.285
72037W        W44451   3.358  29.132   2.678
72038W        W44452  20.760  38.035   0.459
72039W        W44453  10.796  25.567   0.468
72040W        W44454  22.566  12.653  13.890
72041W        W44455   5.392  23.552  12.879
72042W        W44456  38.946  44.449   0.448
72043W        W44457  34.871   9.219  13.485
72044W        W44458   8.197  30.651   2.792
72045W        W44459   0.970  14.633  13.951
72046W        W44460   4.332  42.327  12.022
72047W        W44461  15.732  35.954  11.931
72048W        W44462  34.441  12.611   4.744
72049W        W44463  21.223   0.405  10.125
72050W        W44464  17.568  15.801  13.337
72051W        W44465  42.387  12.695   2.395
72052W        W44466   6.202  35.073  10.535
72053W        W44467  27.059  11.272  13.513
72054W        W44468  29.600   7.908   0.375
72055W        W44469   5.774  39.808   1.695
72056W        W44470  32.034  14.262   1.376
72057W        W44471  28.508  18.695   1.717
72058W        W44472  20.115   8.360   1.278
72059W        W44473  17.227  40.048   2.870
72060W        W44474  26.588  42.376   0.394
72061W        W44475  19.692  18.204  12.453
72062W        W44476  18.116   3.291   3.733
72063W        W44477   3.910   1.461   0.891
72064W        W44478  13.656  44.915   2.775
72065W        W44479  15.578  14.303  12.857
72066W        W44480   9.188   6.323  11.865
72067W        W44481   8.393  34.875  10.641
72068W        W44482  31.088  44.989  10.452
72069W        W44483   8.232   9.846  11.414
72070W        W44484  17.630  37.406   4.675
72071W        W44485  40.514  15.596  13.985
72072W        W44486  10.816  42.921   0.959
72073W        W44487   1.448  18.065  13.005
72074W        W44488  39.502  10.795  14.912
72075W        W44489  19.247   9.736  10.578
72076W        W44490  27.533   9.817  14.796
72077W        W44491  17.686  25.083   3.659
72078W        W44492  35.489   1.395   2.701
72079W        W44493  38.868  22.243   0.440
72080W        W44494  20.612  21.542  13.006
72081W        W44495   1.438   2.372   1.254
72082W        W44496  34.026  15.220  12.075
72083W        W44497  28.994  20.753  11.533
72084W        W44498  24.623  39.946   1.357
72085W        W44499  25.655  10.638  14.814
72086W        W44500  44.990   1.899  13.471
72087W        W44501  17.726  37.972  13.385
72088W        W44502   0.441   5.893  12.915
72089W        W44503  12.644  19.755   1.771
72090W        W44504  44.774  29.445   3.215
72091W        W44505  36.089   5.337  14.464
72092W        W44506  40.512  24.715   0.848
72093W        W44507  15.248  15.265  14.837
72094W        W44508   3.441  39.473  11.978
72095W        W44509   8.716  19.183  13.486
72096W        W44510   8.727  41.456  11.511
72097W        W44511  31.509   5.348  10.897
72098W        W44512  41.472  16.262  13.049
72099W        W44513  11.182  24.122  14.380
72100W        W44514  27.004   1.349   5.132
72101W        W44515  32.541   9.343  11.102
72102W        W44516  15.731  30.920  12.912
72103W        W44517  20.567  17.258  10.969
72104W        W44518  35.911  42.993  11.601
72105W        W44519  19.601  38.380  13.935
72106W        W44520  21.616  32.889  14.362
72107W        W44521  34.949   4.441   2.827
72108W        W44522  33.909  28.131  14.433
72109W        W44523   0.292   0.870   3.646
72110W        W44524  39.998  32.596  14.982
72111W        W44525  20.543   3.269   4.814
72112W        W44526  41.348  44.433  14.016
72113W        W44527  19.763   9.836  12.083
72114W        W44528   8.820  20.234  10.510
72115W        W44529  43.339  40.934   3.171
72116W        W44530  12.731  37.025   0.347
72117W        W44531  43.351   2.445   4.178
72118W        W44532  37.487  17.616   1.713
72119W        W44533  20.555  31.949  14.457
72120W        W44534  31.561  16.598   4.138
72121W        W44535  29.454   7.797  11.558
72122W        W44536   9.754  41.371   2.213
72123W        W44537  33.582  44.793   2.226
72124W        W44538  32.911  31.064  12.084
72125W        W44539   2.805  30.524   0.346
72126W        W44540  35.013  26.641   0.769
72127W        W44541  17.655  10.634   0.390
72128W        W44542  31.569  20.225   4.233
72129W        W44543  34.455  28.109   0.424
72130W        W44544  41.461   8.394   0.967
72131W        W44545  10.259  31.405   3.753
72132W        W44546  43.899  44.316  14.821
72133W        W44547  42.469   5.766  12.038
72134W        W44548  31.428  22.745   3.156
72135W        W44549  32.542   5.315  13.496
72136W        W44550  16.214  32.529   2.835
72137W        W44551  41.805  26.971  14.445
72138W        W44552  21.629  12.785  14.447
72139W        W44553   4.424  13.219   2.808
72140W        W44554  15.783  26.519   4.652
72141W        W44555  43.372  32.943  12.864
72142W        W44556  31.486  19.272   4.690
72143W        W44557   5.207   8.840  12.830
72144W        W44558  42.306   6.341   2.353
72145W        W44559  41.411  36.014   2.346
72146W        W44560  24.111   0.258  14.310
72147W        W44561   9.350  19.094  14.314
72148W        W44562  35.964   7.195   4.238
72149W        W44563  44.460  42.861  13.437
72150W        W44564  35.549  11.359   0.948
72151W        W44565  38.551   3.219  12.911
72152W        W44566  15.194  11.245  14.876
72153W        W44567  42.354  43.941  11.604
72154W        W44568   5.869  37.427   4.716
72155W        W44569  30.976   8.164   0.256
72156W        W44570  16.755  34.105  14.469
72157W        W44571   3.381  36.991  14.400
72158W        W44572  41.798   0.494   2.303
72159W        W44573   5.784  27.527   3.213
72160W        W44574  30.507  40.804  12.420
72161W        W44575   3.716   0.898   9.955
72162W        W44576  41.491  16.154  10.576
72163W        W44577  19.592  34.888   3.326
72164W        W44578  30.525  42.842  14.888
72165W        W44579  34.399   1.439  13.867
72166W        W44580   8.318  22.737   3.735
72167W        W44581  19.618   7.823  14.031
72168W        W44582   8.768  27.164  11.959
72169W        W44583   8.694  10.650  12.052
72170W        W44584  41.925  35.015   2.414
72171W        W44585  13.674  20.621   1.882
72172W        W44586  34.418   2.278   1.719
72173W        W44587   9.876  34.590  14.898
72174W        W44588   9.340  25.143   3.373
72175W        W44589  30.523  29.975   4.693
72176W        W44590  13.699  10.253  14.970
72177W        W44591  43.497   8.268   3.337
72178W        W44592  30.424  37.463  11.427
72179W        W44593  24.056  10.189  12.980
72180W        W44594  15.127  27.969  13.817
72181W        W44595  17.102  24.649   1.827
72182W        W44596  13.665  25.152  14.921
72183W        W44597  19.681   4.927  12.984
72184W        W44598  18.146   3.761   4.331
72185W        W44599  44.267  30.470  14.787
72186W        W44600  37.975  14.630  14.302
72187W        W44601  26.135  33.567   1.822
72188W        W44602  19.159  28.101  12.554
72189W        W44603  30.053  32.996   1.768
72190W        W44604  34.495  13.195   2.236
72191W        W44605  21.564  17.139   1.899
72192W        W44606   8.816  14.818  11.570
72193W        W44607  25.142  11.334   1.739
72194W        W44608  26.652   2.252  14.374
72195W        W44609   8.252   8.289   3.758
72196W        W44610  28.940  37.511  12.974
72197W        W44611   3.382  31.981   0.312
72198W        W44612  32.424  16.247   0.478
72199W        W44613  28.585  10.379   1.873
72200W        W44614  18.701  19.766   3.811
72201W        W44615  10.379  30.640   2.817
72202W        W44616  41.929  38.859  13.480
72203W        W44617  28.576  41.330   1.333
72204W        W44618   9.688  15.736  13.891
72205W        W44619  36.370  38.023  14.281
72206W        W44620  20.124  15.667   2.262
72207W        W44621  13.610  30.909  11.874
72208W        W44622  11.740  17.801  10.617
72209W        W44623  31.450  41.824  13.362
72210W        W44624  44.942  33.110  11.586
72211W        W44625  20.238  43.351  10.590
72212W        W44626  38.969  18.710   0.469
72213W        W44627  13.662   1.971  11.085
72214W        W44628  19.083  18.558   1.712
72215W        W44629  30.978   6.920  11.127
72216W        W44630  17.142  11.824   0.260
72217W        W44631   7.251   9.191  13.474
72218W        W44632  25.654  18.282  10.531
72219W        W44633  42.953  24.561  10.500
72220W        W44634  28.168   6.821   0.893
72221W        W44635  25.697  38.891  14.879
72222W        W44636  35.426  16.631  14.023
72223W        W44637   4.723  38.944   0.734
72224W        W44638  13.133  37.466   1.846
72225W        W44639   8.322  39.993   0.244
72226W        W44640  43.397   4.850  14.402
72227W        W44641  37.509  10.309  11.598
72228W        W44642  19.266  10.192  14.835
72229W        W44643   5.247  30.156   4.753
72230W        W44644   8.393  39.821   2.305
72231W        W44645  28.539   6.917   0.261
72232W        W44646  15.213   5.841   3.675
72233W        W44647  25.199  23.135   4.163
72234W        W44648  29.547   7.887  14.868
72235W        W44649  26.104  44.353  14.781
72236W        W44650  27.450  15.092   3.715
72237W        W44651  43.886  12.854  11.951
72238W        W44652  44.404  29.544  13.383
72239W        W44653   4.329  12.160  11.416
72240W        W44654  19.609   7.191   4.241
72241W        W44655  40.438  29.983  11.548
72242W        W44656  39.810  36.845   4.248
72243W        W44657  27.045  33.453  10.416
72244W        W44658  24.488  42.874  10.091
72245W        W44659  11.355  43.800  12.347
72246W        W44660  35.025   9.881  11.051
72247W        W44661   8.204  37.877   0.404
72248W        W44662   3.890  20.693   0.865
72249W        W44663  26.074  39.866  14.444
72250W        W44664  21.639  31.090  13.448
72251W        W44665  35.414  15.319   0.917
72252W        W44666  36.056  15.586   0.255
72253W        W44667  37.045  32.904   9.960
72254W        W44668  35.521  12.155   0.917
72255W        W44669  39.975   9.754  11.978
72256W        W44670  44.986  37.528   2.826
72257W        W44671   3.941  39.879  13.994
72258W        W44672  40.015  13.616  14.302
72259W        W44673   4.708  35.469  14.012
72260W        W44674   8.295  32.983  11.898
72261W        W44675  20.607  40.363  10.586
72262W        W44676  35.470  13.248   4.294
72263W        W44677  25.219   3.431   1.233
72264W        W44678  16.732  23.629  13.394
72265W        W44679  14.761   5.437   3.734
72266W        W44680   4.255  35.461   3.758
72267W        W44681  40.832  26.541   1.267
72268W        W44682  10.693  31.938   0.762
72269W        W44683   2.259   7.238   2.815
72270W        W44684  37.550  10.330   2.269
72271W        W44685  42.887  10.701  11.128
72272W        W44686  11.236  36.943   1.804
72273W        W44687  39.977  34.527   3.691
72274W        W44688  33.389  12.770   3.321
72275W        W44689  10.651  18.278  12.087
72276W        W44690   8.662  31.550   2.364
72277W        W44691  23.222  31.924   1.385
72278W        W44692  22.046  17.129   1.850
72279W        W44693  21.675  43.816  13.331
72280W        W44694  12.234  15.092   1.890
72281W        W44695   1.467  42.921  14.837
72282W        W44696  11.254   9.823  14.785
72283W        W44697  41.930  21.621  10.947
72284W        W44698  33.539  30.513   1.773
72285W        W44699   2.957  14.715   4.282
72286W        W44700  30.041   9.850   3.701
72287W        W44701  41.367   3.397   5.202
72288W        W44702  40.471  24.984   0.839
72289W        W44703  18.622  30.025   2.413
72290W        W44704  24.682   8.893   3.176
72291W        W44705  11.678   6.299  12.865
72292W        W44706   0.821  38.058   1.383
72293W        W44707  42.816   6.839  10.944
72294W        W44708  13.291  33.586   4.811
72295W        W44709  40.867  28.465   4.615
72296W        W44710  32.018  38.949   4.801
72297W        W44711  18.199  20.739   3.309
72298W        W44712   8.758   5.894   0.364
72299W        W44713  17.629  19.163   2.272
72300W        W44714  33.041   7.232   0.933
72301W        W44715  18.103  36.509   4.770
72302W        W44716   8.350  38.877   2.331
72303W        W44717  24.165  15.102   0.936
72304W        W44718   4.718   9.682   2.346
72305W        W44719  28.492  29.605  11.904
72306W        W44720  24.712  20.088  10.468
72307W        W44721   3.767  23.644  14.926
72308W        W44722  37.563  29.514  10.953
72309W        W44723  27.594  44.294   3.778
72310W        W44724  35.367  31.044  13.912
72311W        W44725  38.051  17.086   3.242
72312W        W44726  38.489   8.199   2.835
72313W        W44727  12.251  25.643  11.090
72314W        W44728  43.433  33.551   0.357
72315W        W44729  20.062  29.663   0.382
72316W        W44730  38.533   2.243  13.359
72317W        W44731  42.965  39.958  12.992
72318W        W44732  16.237  20.559  10.473
72319W        W44733  25.646  30.614   1.356
72320W        W44734  38.448  29.057  10.901
72321W        W44735  43.298  14.758  11.866
72322W        W44736   1.285   9.332  13.976
72323W        W44737  28.602  15.823  14.420
72324W        W44738  11.315  36.351   2.291
72325W        W44739  10.179  11.686  13.357
72326W        W44740  14.108   8.340   4.302
72327W        W44741  23.549  27.490   0.959
72328W        W44742  26.470  32.993   2.211
72329W        W44743  43.446  21.545   0.845
72330W        W44744  28.104  24.184  12.433
72331W        W44745  11.660   7.272  14.386
72332W        W44746  24.529  35.977  11.042
72333W        W44747  23.100  30.426  11.401
72334W        W44748  21.209  41.901   1.310
72335W        W44749  28.013  36.384   2.746
72336W        W44750  36.360   5.810  12.520
72337W        W44751  33.051  38.999  12.415
72338W        W44752  31.583  27.098  13.855
72339W        W44753   1.933  31.585   1.350
72340W        W44754  15.094   9.758  10.421
72341W        W44755  32.531  16.692  14.491
72342W        W44756  44.451  33.409   2.705
72343W        W44757  24.699  43.837   4.347
72344W        W44758  22.183  12.717  11.408
72345W        W44759  38.359  20.558   3.703
72346W        W44760  41.532  22.205   4.228
72347W        W44761  31.443  38.038  14.939
72348W        W44762  40.478  22.056  14.459
72349W        W44763  10.325  26.991   1.228
72350W        W44764  25.700  43.406   3.175
72351W        W44765  31.936  21.057   2.745
72352W        W44766  35.017  19.226   0.267
72353W        W44767   6.738  35.431   2.842
72354W        W44768   5.408   3.732   2.231
72355W        W44769  14.230  17.643  14.775
72356W        W44770  38.535  26.531   4.274
72357W        W44771  11.221  39.950   3.691
72358W        W44772   1.969  44.971  12.556
72359W        W44773  27.521  42.373   0.892
72360W        W44774   0.296  33.583   1.864
72361W        W44775   1.940  19.726   2.861
72362W        W44776  40.963  19.186  12.951
72363W        W44777  25.128  38.356  14.769
72364W        W44778  27.021  38.842  14.793
72365W        W44779  38.526  24.650  11.936
72366W        W44780   0.430  25.195  10.636
72367W        W44781  27.534  18.725  10.585
72368W        W44782  38.868  29.659  12.968
72369W        W44783  15.670  14.213   1.367
72370W        W44784  10.716  14.724  10.570
72371W        W44785  29.444   8.853   4.655
72372W        W44786  41.028   1.763   1.907
72373W        W44787  14.704  28.512  11.575
72374W        W44788  27.645  36.962  12.534
72375W        W44789   0.920   4.922  13.912
72376W        W44790  14.667  12.232   2.337
72377W        W44791  29.000  36.418   2.794
72378W        W44792   9.783  10.707   4.120
72379W        W44793  32.036  16.592   2.193
72380W        W44794  15.278  16.701   3.375
72381W        W44795  40.883   9.790  10.500
72382W        W44796   6.722  24.184   4.319
72383W        W44797  42.345  23.156   4.643
72384W        W44798  44.432  14.323  12.031
72385W        W44799  21.531  13.767   2.827
72386W        W44800  37.336  25.573  13.388
72387W        W44801  25.669   8.835   0.315
72388W        W44802   7.776  25.081   4.707
72389W        W44803  33.032  23.228  12.024
72390W        W44804  26.661  28.582  11.387
72391W        W44805  39.385   2.307   3.255
72392W        W44806  31.904  18.149  12.945
72393W        W44807  12.333  11.327  13.449
72394W        W44808  22.088   7.901   2.850
72395W        W44809  21.683   8.852   1.927
72396W        W44810  40.472  16.607   3.661
72397W        W44811  17.301  38.533   1.355
72398W        W44812  35.584  25.552   2.310
72399W        W44813  43.337  13.278   0.929
72400W        W44814   3.394  33.882  10.467
72401W        W44815  44.359   1.462   4.789
72402W        W44816  20.054   1.337  12.969
72403W        W44817  25.089  33.532  10.899
72404W        W44818  15.615  29.645   1.420
72405W        W44819  41.495  38.931  12.368
72406W        W44820  34.011   8.243   3.850
72407W        W44821  24.583  33.949   0.916
72408W        W44822  37.545  32.547  12.021
72409W        W44823  27.997  35.005  12.942
72410W        W44824  39.946  26.657  14.467
72411W        W44825   2.472  34.057  13.973
72412W        W44826  29.468  34.458   4.688
72413W        W44827  11.764  15.700  13.535
72414W        W44828  20.087  38.951   4.253
72415W        W44829   4.352  18.292   2.903
72416W        W44830   7.806  32.007   2.865
72417W        W44831  23.157  28.663  12.069
72418W        W44832  12.714  13.162  14.843
72419W        W44833  28.124   1.883   2.200
72420W        W44834  14.620   8.676   9.461
72421W        W44835   7.307  31.587   2.903
72422W        W44836   1.309  11.316   0.397
72423W        W44837  34.580  27.076   4.137
72424W        W44838  11.856  12.671   0.463
72425W        W44839  40.872   3.808   4.801
72426W        W44840  24.024  39.890  13.537
72427W        W44841  10.690  11.161   1.255
72428W        W44842  16.124  20.205  11.875
72429W        W44843  32.631  36.953  13.007
72430W        W44844  10.148  18.674   4.304
72431W        W44845   2.931  26.029  14.859
72432W        W44846  37.959   0.973   2.282
72433W        W44847   2.362  34.876   2.242
72434W        W44848  39.835  42.361  11.089
72435W        W44849  27.451  44.350   0.901
72436W        W44850   7.173  18.676  11.445
72437W        W44851  33.915  38.934   0.465
72438W        W44852  13.727   4.731  14.841
72439W        W44853  41.322  36.013   3.771
72440W        W44854  38.368  15.283   1.392
72441W        W44855  21.243  26.640  10.630
72442W        W44856  18.775  27.026  11.945
72443W        W44857  17.580   7.911   0.936
72444W        W44858   8.894  14.810   4.205
72445W        W44859  19.538  13.828   3.247
72446W        W44860  38.962  11.168  12.421
72447W        W44861   1.877  42.309   2.253
72448W        W44862  32.611  33.916  12.983
72449W        W44863  18.095  14.821  13.930
72450W        W44864  14.185   8.239   1.824
72451W        W44865  20.265  38.919  12.005
72452W        W44866  19.085  26.962  13.915
72453W        W44867  25.595   5.249   1.721
72454W        W44868  43.436  38.470   4.614
72455W        W44869  30.968  36.450  10.892
72456W        W44870  28.559  38.327  12.551
72457W        W44871  15.171   6.858   1.745
72458W        W44872  32.995  40.980   0.250
72459W        W44873  33.129   6.717  14.948
72460W        W44874  28.172  26.075  11.904
72461W        W44875  40.974   1.417  13.359
72462W        W44876  14.743   7.728  14.781
72463W        W44877   5.433   2.456   0.256
72464W        W44878  24.567  30.919  11.406
72465W        W44879  38.906  34.456   4.139
72466W        W44880   3.791  13.134   0.400
72467W        W44881  24.687  19.260  13.485
72468W        W44882  37.424   0.456  14.938
72469W        W44883   4.345  13.274   3.737
72470W        W44884   0.798  16.799   1.239
72471W        W44885  44.815  23.534   3.345
72472W        W44886  43.946  28.453   1.918
72473W        W44887   8.822   0.953   4.340
72474W        W44888   3.715  28.484   1.302
72475W        W44889  30.564  19.692   2.332
72476W        W44890  33.883  28.083  10.019
72477W        W44891  39.351   2.404  11.937
72478W        W44892  25.157  20.653  11.572
72479W        W44893  38.897  37.490   3.672
72480W        W44894  24.667   4.858  11.378
72481W        W44895  42.022  21.658   1.284
72482W        W44896  43.999  19.081   1.323
72483W        W44897   7.387  21.155  14.861
72484W        W44898  31.145  24.223  14.394
72485W        W44899  32.921  32.576   2.688
72486W        W44900  15.794   3.299  10.997
72487W        W44901   4.881  31.472   2.773
72488W        W44902   0.823  36.557   4.606
72489W        W44903  15.596  37.028   0.294
72490W        W44904   1.359  38.487   4.738
72491W        W44905  14.724  34.119   0.456
72492W        W44906  44.427  23.731   1.377
72493W        W44907  31.963   6.206   2.395
72494W        W44908  23.093  15.796   2.855
72495W        W44909  24.599   6.223   2.214
72496W        W44910   2.231  21.618   2.775
72497W        W44911  18.062  20.271  13.360
72498W        W44912   8.786  30.968   1.933
72499W        W44913  14.313  35.589   2.756
72500W        W44914  14.676   2.279   3.320
72501W        W44915   8.729  29.457  12.033
72502W        W44916  43.773  14.156   2.870
72503W        W44917   1.310   3.752  11.488
72504W        W44918  18.152  33.562   1.794
72505W        W44919   7.792  38.340  12.933
72506W        W44920  35.523   1.342   3.307
72507W        W44921  18.138  26.070   2.384
72508W        W44922  12.620  16.602  13.451
72509W        W44923  21.209   5.376   1.832
72510W        W44924  15.818  22.573   3.770
72511W        W44925  44.326  28.133  12.868
72512W        W44926  22.083  13.840   2.672
72513W        W44927   7.323  20.166   3.858
72514W        W44928  19.253   0.385   3.221
72515W        W44929  40.004   9.279  13.463
72516W        W44930  13.682   7.898  12.456
72517W        W44931  43.419   0.828   2.374
72518W        W44932   8.872  25.539   3.375
72519W        W44933  10.314  20.028   5.305
72520W        W44934   8.758  12.285  14.791
72521W        W44935  12.734   8.173   9.975
72522W        W44936  23.033  40.477   3.180
72523W        W44937  26.172   3.458  12.013
72524W        W44938  18.629   5.359   2.722
72525W        W44939   8.239  18.255  11.947
72526W        W44940  26.474  35.602   0.872
72527W        W44941  16.656   3.330   2.279
72528W        W44942  11.170  20.524   4.264
72529W        W44943  38.914   0.881   5.152
72530W        W44944   4.333   5.843   3.237
72531W        W44945  16.641  42.338  13.875
72532W        W44946  12.736  16.610  14.826
72533W        W44947  15.218  37.839   3.861
72534W        W44948   0.947  40.937   2.209
72535W        W44949  35.062  16.594   2.298
72536W        W44950  35.894  10.142   3.377
72537W        W44951  43.322  15.761  12.439
72538W        W44952  24.988  39.007   5.307
72539W        W44953  41.813   6.677  13.531
72540W        W44954  18.561   7.722   3.161
72541W        W44955   8.782  13.739   2.237
72542W        W44956  21.206   1.318   2.900
72543W        W44957  21.568  26.023  10.893
72544W        W44958  39.999  20.664   4.333
72545W        W44959   1.360   9.851   3.656
72546W        W44960  13.610  43.848  11.861
72547W        W44961  22.016  33.018  12.090
72548W        W44962   5.693  19.544  12.860
72549W        W44963  11.227   4.765   0.338
72550W        W44964  32.564  25.511   2.711
72551W        W44965   4.909  43.325   3.794
72552W        W44966  13.259  38.821   3.823
72553W        W44967  38.967   9.254   3.343
72554W        W44968   2.290   9.227  14.481
72555W        W44969  21.592  17.136   0.855
72556W        W44970  15.084   2.294  14.779
72557W        W44971   7.312  42.880  14.828
72558W        W44972  15.731  34.997  14.342
72559W        W44973  31.098  11.662   0.408
72560W        W44974  14.287  36.364  12.530
72561W        W44975  17.114  26.961  12.382
72562W        W44976  32.515  43.818   0.834
72563W        W44977   6.340   0.896  10.450
72564W        W44978   3.436  14.751   2.743
72565W        W44979  13.143  31.441   2.686
72566W        W44980  15.098  30.626   0.892
72567W        W44981  30.616   1.881  14.893
72568W        W44982  36.851   5.209  13.002
72569W        W44983  17.575  20.697   0.958
72570W        W44984  41.886  16.192  13.872
72571W        W44985  35.022  13.182   0.412
72572W        W44986  21.140  21.526  10.888
72573W        W44987  39.507   7.873  11.939
72574W        W44988  10.285   8.786  12.477
72575W        W44989  14.221  30.617   1.899
72576W        W44990  27.153  30.478   4.252
72577W        W44991  34.442  41.456   4.721
72578W        W44992  14.134   3.786   1.443
72579W        W44993  23.633  35.429  13.894
72580W        W44994   9.198  26.623  14.030
72581W        W44995   5.419  18.221  11.004
72582W        W44996  29.112  40.506  11.472
72583W        W44997  14.283  41.533   3.858
72584W        W44998  35.877  22.110  13.950
72585W        W44999  37.483  18.051   3.771
72586W        W45000   8.705  14.169  12.395
72587W        W45001  39.032   3.305  11.938
72588W        W45002  42.470  43.983   4.737
72589W        W45003  32.613   8.242   1.237
72590W        W45004  25.476   5.393   3.708
72591W        W45005  16.099   0.489  11.388
72592W        W45006  29.934  10.321   3.307
72593W        W45007  18.755  26.530  11.524
72594W        W45008  42.378  33.551  11.046
72595W        W45009  21.676  31.430   2.821
72596W        W45010  38.910  30.573  14.462
72597W        W45011   1.840   3.760   3.238
72598W        W45012  27.644  37.927   0.808
72599W        W45013  14.119  26.535   0.919
72600W        W45014  16.214  19.131  10.014
72601W        W45015  27.589  32.549   1.900
72602W        W45016  29.959   2.387   0.867
72603W        W45017  25.086  15.728  11.026
72604W        W45018   7.256   2.965   0.291
72605W        W45019  18.142  24.096   2.853
72606W        W45020  38.841  28.603  10.888
72607W        W45021  28.059   0.749   1.729
72608W        W45022  22.582  44.756  12.516
72609W        W45023  22.101  40.365  13.917
72610W        W45024  20.271  30.498  13.384
72611W        W45025  14.768  31.088   4.662
72612W        W45026  39.410  10.810  10.640
72613W        W45027  31.921   4.295   4.276
72614W        W45028  14.123  13.134   4.157
72615W        W45029  26.673  18.225   2.202
72616W        W45030  12.814  44.480  11.076
72617W        W45031  37.561  28.549   3.729
72618W        W45032  27.469  26.657   4.708
72619W        W45033  30.584  22.567   2.812
72620W        W45034  22.172  15.660   0.287
72621W        W45035  15.136  31.430   1.229
72622W        W45036   1.245  16.163  10.967
72623W        W45037  25.703  35.091   1.906
72624W        W45038   2.860  31.964   5.173
72625W        W45039  16.611   8.228   4.786
72626W        W45040  30.614   0.434  14.945
72627W        W45041  19.571  10.696  11.558
72628W        W45042  20.550  44.388  11.424
72629W        W45043  25.529  39.456  11.554
72630W        W45044  23.189  10.689   1.231
72631W        W45045  42.473  31.073   3.691
72632W        W45046  12.756  13.622   4.777
72633W        W45047  32.971  38.053  10.534
72634W        W45048  17.192   9.697  12.012
72635W        W45049  25.469   9.169   3.688
72636W        W45050  36.454  26.474  12.437
72637W        W45051  22.676  25.703   2.699
72638W        W45052  41.391  39.359  13.990
72639W        W45053  16.151   1.816   5.111
72640W        W45054   9.796  26.459  13.024
72641W        W45055  10.843  41.325   0.941
72642W        W45056  32.915  33.055  14.822
72643W        W45057  43.366  23.232   4.657
72644W        W45058  27.526  12.701  11.386
72645W        W45059  12.706  33.508   3.292
72646W        W45060  17.747  25.612  14.998
72647W        W45061  22.241  19.132   3.221
72648W        W45062   4.432  36.356   3.186
72649W        W45063  20.666  25.685  11.972
72650W        W45064  44.918   0.886   1.695
72651W        W45065   7.840  23.581   4.612
72652W        W45066  21.659   9.771   1.393
72653W        W45067  42.291  15.686   4.118
72654W        W45068  19.688  41.027  14.341
72655W        W45069  33.019  35.911   0.412
72656W        W45070   5.295  27.122   3.846
72657W        W45071   2.254  12.778  13.840
72658W        W45072   9.708  26.678  11.991
72659W        W45073  23.167  12.212   4.347
72660W        W45074  25.618  20.695  10.609
72661W        W45075  44.428  11.843   2.306
72662W        W45076  11.705  28.579   3.640
72663W        W45077   0.329  37.579   2.304
72664W        W45078  30.649  31.064  13.912
72665W        W45079   9.751   0.266  13.875
72666W        W45080  38.484  34.865  11.940
72667W        W45081  26.194  24.696   2.884
72668W        W45082  26.639  15.272   3.299
72669W        W45083  31.952   3.372   4.705
72670W        W45084   3.314   4.943   2.363
72671W        W45085  20.725  43.419  12.890
72672W        W45086  31.484   1.346  14.905
72673W        W45087  12.275  23.063   0.899
72674W        W45088  32.105  26.654  12.038
72675W        W45089  33.032  37.529  11.588
72676W        W45090  38.849   8.283  13.524
72677W        W45091  44.365  12.649   0.759
72678W        W45092  38.441  25.151   4.202
72679W        W45093  28.646   4.321   3.848
72680W        W45094  23.031  30.989   0.908
72681W        W45095  40.325   5.845   3.665
72682W        W45096  39.407   2.940   0.379
72683W        W45097  22.637  42.446   3.752
72684W        W45098  32.528  44.321   9.991
72685W        W45099  26.967   9.666  11.107
72686W        W45100  44.898  40.472  14.405
72687W        W45101   7.698   8.825  14.298
72688W        W45102   7.373  22.648   1.280
72689W        W45103  30.653  11.193   2.275
72690W        W45104   9.344  35.392   4.602
72691W        W45105  14.230   8.346  12.096
72692W        W45106  31.153   4.725   2.178
72693W        W45107   4.292  21.019  12.043
72694W        W45108  18.103  36.433  11.407
72695W        W45109  17.069  36.071   4.670
72696W        W45110  21.146  43.270  14.911
72697W        W45111  16.737  27.949   3.170
72698W        W45112  41.818   3.349  12.825
72699W        W45113  22.634  35.488  12.847
72700W        W45114   3.377  19.172  12.419
72701W        W45115  11.325  13.269  13.350
72702W        W45116  31.981  21.103   4.772
72703W        W45117  35.540  37.858  14.022
72704W        W45118  17.713  14.668  12.853
72705W        W45119  33.543  30.567  10.082
72706W        W45120  32.538  37.582   0.414
72707W        W45121  26.621  33.540   3.736
72708W        W45122   4.409  29.986   1.736
72709W        W45123  10.820   8.687   0.817
72710W        W45124   7.256   8.271   2.733
72711W        W45125   3.231  34.520  12.893
72712W        W45126  24.682  29.945   1.781
72713W        W45127  22.722  16.598   5.201
72714W        W45128  15.634  28.167   5.239
72715W        W45129  27.558  37.520  13.803
72716W        W45130   9.241  42.414  13.419
72717W        W45131  44.501   0.315   4.242
72718W        W45132  21.226  34.558   0.396
72719W        W45133  35.088   2.401  13.433
72720W        W45134  32.951  39.390  13.449
72721W        W45135  20.201  34.921   2.736
72722W        W45136  19.740  41.824  13.400
72723W        W45137  40.920  32.112  10.065
72724W        W45138   6.899  21.122   2.374
72725W        W45139  23.574  13.732  10.433
72726W        W45140  27.135  25.648   4.710
72727W        W45141  42.959  30.502   2.186
72728W        W45142  43.877  10.262   1.395
72729W        W45143  16.289  26.587  12.991
72730W        W45144   9.819  27.566   0.477
72731W        W45145   8.368  39.314  14.325
72732W        W45146  34.932  27.549   0.264
72733W        W45147  41.794   4.748  14.452
72734W        W45148  26.157  37.408  14.936
72735W        W45149  20.740  26.093   2.191
72736W        W45150  44.789  39.040   0.391
72737W        W45151  26.532  26.088  13.863
72738W        W45152  41.956   4.773   3.280
72739W        W45153  38.398  19.727   0.347
72740W        W45154  30.974  43.315   4.245
72741W        W45155  23.220  38.052  11.036
72742W        W45156  12.196  29.443  12.906
72743W        W45157  41.846  12.764   3.259
72744W        W45158  24.114  42.808   1.860
72745W        W45159  37.847  10.261  12.344
72746W        W45160  39.000  42.806   3.825
72747W        W45161  18.604   3.874   0.297
72748W        W45162  11.712   9.192   0.843
72749W        W45163  30.006  18.060   4.605
72750W        W45164  37.533  18.073   2.416
72751W        W45165  20.681  17.212   3.678
72752W        W45166  37.572   0.963  12.465
72753W        W45167  38.413  17.661  12.927
72754W        W45168  12.652  44.790   1.868
72755W        W45169   8.329  36.384   3.244
72756W        W45170  38.891  26.562   0.369
72757W        W45171  15.634   3.857   9.940
72758W        W45172   5.237  24.616   0.950
72759W        W45173  42.004  20.176  14.794
72760W        W45174  42.024   1.425   0.825
72761W        W45175  36.908  38.329   4.191
72762W        W45176  33.127  44.306   0.480
72763W        W45177  12.286  15.207   0.409
72764W        W45178  34.407  36.557  11.071
72765W        W45179  43.451  14.778  13.905
72766W        W45180  13.322   4.306   2.385
72767W        W45181  18.688   0.905   3.383
72768W        W45182  29.424   4.227  13.945
72769W        W45183  41.796  31.628   3.222
72770W        W45184  44.326   8.780  14.495
72771W        W45185  31.534   4.880  11.543
72772W        W45186  28.026  27.147   1.351
72773W        W45187   6.841  33.430   3.274
72774W        W45188   7.763  15.199   2.269
72775W        W45189   2.807  42.507   5.168
72776W        W45190  44.489   9.804   2.683
72777W        W45191  30.029   0.391  11.002
72778W        W45192   2.959  20.764   4.601
72779W        W45193  39.858  21.627   4.321
72780W        W45194  36.391   2.782   2.720
72781W        W45195  36.498  22.194   4.336
72782W        W45196   3.336  18.603  11.037
72783W        W45197  35.586  24.128   3.686
72784W        W45198   4.277  16.083   1.371
72785W        W45199  32.396  33.113  10.414
72786W        W45200  16.144   3.394  11.938
72787W        W45201  24.705  20.703   3.325
72788W        W45202   2.731  43.770  12.559
72789W        W45203  29.478  13.674   0.482
72790W        W45204  35.943  17.655  14.858
72791W        W45205  11.702  12.225  10.070
72792W        W45206  29.101  11.277   3.769
72793W        W45207  34.071   2.859  10.931
72794W        W45208  32.135   4.272   3.849
72795W        W45209  37.923  38.028  13.880
72796W        W45210  36.935  31.978   5.278
72797W        W45211  16.315  33.939  11.032
72798W        W45212   6.333   5.810  13.914
72799W        W45213  26.667   1.860  13.064
72800W        W45214  13.671  29.616  10.522
72801W        W45215  16.284  32.397   4.802
72802W        W45216  18.569  17.215  10.426
72803W        W45217  37.945   7.183   2.404
72804W        W45218  16.197  14.273   4.638
72805W        W45219  22.646  11.257  14.871
72806W        W45220  32.926   5.389   2.335
72807W        W45221  27.111  12.230   0.749
72808W        W45222  18.065  15.652  12.860
72809W        W45223  25.050  12.845   1.697
72810W        W45224  12.242  16.617   4.122
72811W        W45225  12.116  36.448  10.998
72812W        W45226  27.147  20.205   2.315
72813W        W45227  16.661   8.290   4.204
72814W        W45228  38.062  24.677   4.659
72815W        W45229   2.905  38.488   2.667
72816W        W45230  33.510  44.772  10.573
72817W        W45231  33.483  39.905  11.599
72818W        W45232  22.526  31.930   2.360
72819W        W45233  39.398  18.601  10.576
72820W        W45234   0.905  27.096   1.788
72821W        W45235  20.661  37.517  11.045
72822W        W45236  31.997  26.116  13.426
72823W        W45237  15.192   4.327  14.297
72824W        W45238   7.740  32.122  12.422
72825W        W45239  43.912   2.380  13.411
72826W        W45240   8.792  18.205  13.997
72827W        W45241  28.982  37.017   0.858
72828W        W45242  14.138  25.074  14.471
72829W        W45243  20.146  35.537   4.699
72830W        W45244  40.518  40.419   1.268
72831W        W45245  14.772  14.220  11.429
72832W        W45246   4.242  34.886  11.483
72833W        W45247  32.539   3.347  11.039
72834W        W45248  32.489  21.598   4.120
72835W        W45249  31.980   4.765   1.407
72836W        W45250   1.744   7.272   4.828
72837W        W45251  16.087  22.609  12.985
72838W        W45252  39.361   9.783  11.484
72839W        W45253  39.984  10.285  13.016
72840W        W45254  35.521  21.561   1.350
72841W        W45255  27.009   3.331   5.173
72842W        W45256  24.065  32.427  14.877
72843W        W45257  19.042  17.639  13.325
72844W        W45258  41.442  27.945  12.462
72845W        W45259  24.145  25.004  10.508
72846W        W45260  43.494  10.361   2.248
72847W        W45261  27.089  17.602   2.206
72848W        W45262  14.097  34.375   4.135
72849W        W45263  17.630  21.082  12.489
72850W        W45264  20.615  11.132   3.247
72851W        W45265  29.093   6.738   1.306
72852W        W45266  33.117  17.303   0.893
72853W        W45267  24.046  24.012  14.848
72854W        W45268   0.891  29.531  10.158
72855W        W45269  30.019  34.523   1.237
72856W        W45270   1.889   3.822   4.621
72857W        W45271  37.061  29.569   1.743
72858W        W45272   9.309  31.950   1.894
72859W        W45273  27.559  33.924   2.221
72860W        W45274  26.070  33.412   2.852
72861W        W45275   7.407  17.215   1.361
72862W        W45276   6.384  15.765   1.224
72863W        W45277  39.385  33.525  11.474
72864W        W45278  27.978  38.508  13.314
72865W        W45279  11.293  30.614  12.848
72866W        W45280  11.675  29.513   3.275
72867W        W45281  35.597  30.943   0.836
72868W        W45282  15.588  39.524  14.315
72869W        W45283  12.256  30.506  10.489
72870W        W45284  39.324  28.618   3.774
72871W        W45285  11.284  40.372  11.611
72872W        W45286  35.064  24.086   5.142
72873W        W45287   0.466   5.309   1.280
72874W        W45288  35.438  23.504   0.745
72875W        W45289  17.623   3.298   2.371
72876W        W45290  25.635  11.629  13.885
72877W        W45291   5.705  23.190   1.299
72878W        W45292  43.883  14.203   4.665
72879W        W45293  10.690  35.454   0.948
72880W        W45294  24.541  30.639   0.734
72881W        W45295  36.037  38.944   1.904
72882W        W45296  23.163   1.273  11.475
72883W        W45297  35.003  20.664  11.900
72884W        W45298  43.354  43.795  12.868
72885W        W45299  20.091  14.260  12.919
72886W        W45300  34.055   5.211  13.486
72887W        W45301  36.075  38.070   4.773
72888W        W45302  39.986  27.546   1.403
72889W        W45303  21.751  16.620  10.587
72890W        W45304   6.284  36.039  13.943
72891W        W45305  17.570   7.242  11.489
72892W        W45306   8.235   6.222   2.295
72893W        W45307  21.171  30.580   5.224
72894W        W45308  17.223  30.621   4.737
72895W        W45309  28.062  30.930  11.609
72896W        W45310  18.651  13.648  10.626
72897W        W45311  37.496  44.353  13.325
72898W        W45312   5.354  19.715  13.454
72899W        W45313  34.995  37.996  10.570
72900W        W45314   2.375   0.379   2.866
72901W        W45315  28.681   3.927   4.129
72902W        W45316  12.792  28.523  12.471
72903W        W45317  13.737  24.013  12.344
72904W        W45318  14.713   3.829   3.228
72905W        W45319  39.060  15.762  12.549
72906W        W45320  39.892  17.206  10.624
72907W        W45321  36.436  28.975  14.820
72908W        W45322  32.923  21.082   0.386
72909W        W45323  22.673  21.176   1.439
72910W        W45324  15.769   1.769  14.479
72911W        W45325  36.425  43.342   2.854
72912W        W45326  26.068  17.793  12.022
72913W        W45327   1.930  39.376   2.259
72914W        W45328  27.021  37.001  12.941
72915W        W45329  24.721   5.788   3.650
72916W        W45330  15.673   6.680   5.711
72917W        W45331  34.982  31.131  10.971
72918W        W45332  36.544  27.063   1.442
72919W        W45333  18.591  12.663   3.778
72920W        W45334   0.938   9.159  10.431
72921W        W45335  34.009  14.111  11.561
72922W        W45336   1.863  39.957   2.404
72923W        W45337   9.341  29.138   0.291
72924W        W45338  41.318  44.908  12.078
72925W        W45339   7.352  21.599   2.308
72926W        W45340  27.023  12.340   2.664
72927W        W45341  25.563   5.698   2.358
72928W        W45342  14.816  10.355   5.111
72929W        W45343  15.301  17.170   9.947
72930W        W45344   9.846   8.691  12.824
72931W        W45345  17.659   3.712  10.645
72932W        W45346  29.150  40.852  13.464
72933W        W45347  12.727  14.635   4.227
72934W        W45348   3.232  12.773   0.764
72935W        W45349  24.005  29.165   1.763
72936W        W45350  13.759  40.337   2.202
72937W        W45351  22.055   9.169   4.238
72938W        W45352  41.414  35.497  12.475
72939W        W45353  18.255  18.715   1.222
72940W        W45354  30.523  16.152  11.075
72941W        W45355  42.999   9.833   4.722
72942W        W45356   6.415  36.449   9.988
72943W        W45357  40.889  31.631   3.176
72944W        W45358  12.238  29.612   0.868
72945W        W45359   3.319  13.187   2.181
72946W        W45360  36.457   1.340   2.875
72947W        W45361  41.861  13.222   4.302
72948W        W45362  33.492  15.597   4.728
72949W        W45363  27.067   2.236  12.497
72950W        W45364  28.017   0.296  14.439
72951W        W45365  24.063  17.260  14.010
72952W        W45366   7.769  11.360  14.964
72953W        W45367   0.832   0.895  13.458
72954W        W45368  19.625   8.265   4.194
72955W        W45369   4.856  14.242  13.488
72956W        W45370  36.526  12.804  14.799
72957W        W45371  17.285  10.178  10.568
72958W        W45372  20.721  40.453  12.395
72959W        W45373  43.820  17.742  11.123
72960W        W45374  42.812  39.978  13.391
72961W        W45375  23.624  21.190   0.367
72962W        W45376  33.478  16.671   0.943
72963W        W45377  37.557  24.623   0.886
72964W        W45378  26.964   4.889   4.121
72965W        W45379  41.037  35.955   1.320
72966W        W45380  13.798  23.696  13.413
72967W        W45381  24.132  42.286   1.797
72968W        W45382  43.360   6.729   1.393
72969W        W45383  16.266  15.143   0.436
72970W        W45384  26.600  27.567  11.860
72971W        W45385   9.750  25.468  14.474
72972W        W45386  44.266   2.229  12.012
72973W        W45387  40.446   6.250  11.452
72974W        W45388  15.764   2.383   0.823
72975W        W45389  32.079  13.230   1.714
72976W        W45390  27.000  37.022   0.464
72977W        W45391  11.218  42.458   4.152
72978W        W45392   3.771  37.940   4.826
72979W        W45393  40.306  17.767   4.708
72980W        W45394  13.317  21.642  14.819
72981W        W45395  15.152   0.947  13.041
72982W        W45396  23.084  31.541  11.122
72983W        W45397  22.060   4.875  11.964
72984W        W45398  18.195   8.839  10.489
72985W        W45399   7.294  25.562   1.240
72986W        W45400  31.978  36.045  10.913
72987W        W45401   2.759  43.298  14.882
72988W        W45402   4.811  36.531  12.538
72989W        W45403  11.287  14.649  13.314
72990W        W45404  27.969  15.774  12.084
72991W        W45405  26.530  31.943  11.084
72992W        W45406  40.359  32.544  10.414
72993W        W45407  34.108  23.239   0.915
72994W        W45408  38.478  28.969   2.697
72995W        W45409  14.803   2.831  14.867
72996W        W45410  32.624  24.671  11.125
72997W        W45411  15.670  13.643  13.918
72998W        W45412  17.188  10.228  11.472
72999W        W45413  19.711  20.525  11.863
73000W        W45414  40.547   3.920  11.059
73001W        W45415  24.010  29.611   1.277
73002W        W45416   2.863  11.738  11.380
73003W        W45417   0.425  43.430  14.389
73004W        W45418  30.933  10.796  14.020
73005W        W45419   7.269  14.102   3.675
73006W        W45420  42.495   1.464  14.895
73007W        W45421  32.950   0.401  10.629
73008W        W45422   5.436   7.313   0.411
73009W        W45423  30.463  23.493  10.443
73010W        W45424   5.300  18.555  14.332
73011W        W45425  41.461  43.823   3.706
73012W        W45426   5.835  31.896   0.957
73013W        W45427  26.579  43.981   0.436
73014W        W45428  28.044  41.892  10.977
73015W        W45429  27.679  16.284  13.902
73016W        W45430  13.756  39.522  12.965
73017W        W45431  14.644  10.863   3.342
73018W        W45432  29.147   4.220   4.781
73019W        W45433  33.457   9.327   3.193
73020W        W45434  29.947  39.924   4.755
73021W        W45435  44.420  25.563  14.275
73022W        W45436   1.886  23.663   1.928
73023W        W45437  20.654  44.434   2.687
73024W        W45438   6.811   8.353   2.215
73025W        W45439  25.552  35.586  14.811
73026W        W45440  11.710  37.937   3.775
73027W        W45441  32.931  11.824   4.211
73028W        W45442  11.740   3.373  11.880
73029W        W45443  13.640  19.056   4.227
73030W        W45444  13.285  19.692  10.645
73031W        W45445   9.886  31.127   3.852
73032W        W45446  31.470  13.266   2.665
73033W        W45447   1.372   5.298   4.170
73034W        W45448   8.766  31.436  14.478
73035W        W45449   4.415  39.949   3.279
73036W        W45450  39.838  14.331   2.663
73037W        W45451  25.480  33.422   1.422
73038W        W45452  40.451   9.798   2.811
73039W        W45453  40.890   7.258   2.191
73040W        W45454  24.103  36.579   2.789
73041W        W45455  18.154  20.625  12.849
73042W        W45456  25.695   3.352   0.959
73043W        W45457   8.232  40.325   0.898
73044W        W45458   8.311  16.695   2.253
73045W        W45459  15.692  23.601   1.351
73046W        W45460  38.011  11.275  12.904
73047W        W45461  10.214   3.399   2.785
73048W        W45462   1.835  43.413  10.958
73049W        W45463   3.338  28.087  10.037
73050W        W45464  15.771   0.463  11.583
73051W        W45465  28.010  18.055  12.059
73052W        W45466  13.755  22.192   4.223
73053W        W45467  12.175  37.886   4.280
73054W        W45468  27.147  13.812   2.666
73055W        W45469  23.129  31.595   0.771
73056W        W45470  18.706  33.963  12.060
73057W        W45471  14.258  26.188  13.375
73058W        W45472  10.754  34.001   1.375
73059W        W45473  12.680  24.676   0.802
73060W        W45474  41.507  37.446  14.356
73061W        W45475  32.550  24.712   2.826
73062W        W45476  24.037  41.328   0.258
73063W        W45477  35.045  23.027   3.672
73064W        W45478  18.581   3.284  10.634
73065W        W45479  24.034  20.766   2.401
73066W        W45480   1.897  44.792  12.029
73067W        W45481  10.293  16.111   1.312
73068W        W45482  25.534  29.625   1.379
73069W        W45483  19.068  37.387  13.525
73070W        W45484  17.600  20.115  14.990
73071W        W45485  21.260  20.143   4.261
73072W        W45486  36.033  44.270  12.029
73073W        W45487  19.271  27.157   1.894
73074W        W45488  14.697  39.990   3.864
73075W        W45489  28.549   4.737  12.087
73076W        W45490  14.178   9.734   1.374
73077W        W45491  19.769  41.387   4.613
73078W        W45492   3.435  42.332   2.722
73079W        W45493  16.662   6.272   1.322
73080W        W45494   3.298  12.830  14.838
73081W        W45495  29.946   2.764  12.368
73082W        W45496  19.184  13.638  12.408
73083W        W45497   2.944  23.512  13.490
73084W        W45498  14.604  33.920  11.895
73085W        W45499  37.955  39.351   4.212
73086W        W45500  22.176  28.999   1.397
73087W        W45501  21.705   1.448  11.535
73088W        W45502  15.117  20.126   2.764
73089W        W45503  28.980   1.297   1.777
73090W        W45504   5.285  24.595  11.128
73091W        W45505  24.071  39.503  10.555
73092W        W45506  27.979  16.682   4.157
73093W        W45507  41.906   0.492  13.975
73094W        W45508  42.907   9.840  10.955
73095W        W45509  40.003   5.874   0.334
73096W        W45510  14.735  14.678   1.377
73097W        W45511  21.222   0.785  11.074
73098W        W45512  40.037  18.578  10.971
73099W        W45513   5.365  27.123  11.951
73100W        W45514  28.499  18.787   0.821
73101W        W45515   4.335   0.792  12.848
73102W        W45516  31.553  42.383   4.162
73103W        W45517   2.809  29.555  12.544
73104W        W45518  10.758  15.207  13.497
73105W        W45519  34.966  28.472   1.775
73106W        W45520  23.055  22.233  14.396
73107W        W45521  30.599  41.009   4.296
73108W        W45522  17.154  29.920   1.295
73109W        W45523  36.030  13.813   1.895
73110W        W45524  18.175  12.755  13.004
73111W        W45525  17.140   6.864  12.079
73112W        W45526  44.262  34.901  10.555
73113W        W45527   6.828   8.802   4.290
73114W        W45528  41.936  26.146  10.610
73115W        W45529   2.324   3.929  12.843
73116W        W45530  11.311  27.447   2.666
73117W        W45531  22.629  30.066   4.740
73118W        W45532  30.964  28.643  14.010
73119W        W45533  18.203  21.665   4.316
73120W        W45534  40.978   9.266   2.357
73121W        W45535  26.063  26.547   1.744
73122W        W45536  43.492  34.456  13.366
73123W        W45537   2.786  34.033   1.918
73124W        W45538   6.273   2.263   1.269
73125W        W45539  42.833  34.428  14.944
73126W        W45540  21.086  15.779   0.755
73127W        W45541  31.506   7.817  12.031
73128W        W45542  30.545  33.422  14.905
73129W        W45543   7.379   3.759  13.013
73130W        W45544  23.637   0.278   1.293
73131W        W45545   5.886  22.734   3.219
73132W        W45546  20.250  13.601  12.035
73133W        W45547   2.469  32.946  11.906
73134W        W45548   2.911  19.195  14.906
73135W        W45549  24.711  15.093   2.290
73136W        W45550  13.330  40.005  10.581
73137W        W45551  32.918  41.453   4.295
73138W        W45552  43.900   5.731   2.679
73139W        W45553  11.214  11.195   4.244
73140W        W45554  27.484   1.847   1.801
73141W        W45555  37.866  33.080   4.219
73142W        W45556  36.395  30.614   0.439
73143W        W45557  41.363   0.334   3.321
73144W        W45558   9.664  36.975   2.179
73145W        W45559   0.388  26.557  14.421
73146W        W45560  30.096  15.659   4.786
73147W        W45561  33.123  25.100   1.730
73148W        W45562  31.074  15.206   0.730
73149W        W45563  30.518  38.371   3.690
73150W        W45564  20.716   5.298  10.947
73151W        W45565   0.828  26.185  13.532
73152W        W45566  10.195  33.385   3.784
73153W        W45567  20.239   7.317  11.040
73154W        W45568  29.059   2.933  10.639
73155W        W45569  24.152  25.208  13.420
73156W        W45570  39.031  34.488   0.782
73157W        W45571  44.903  40.817   2.214
73158W        W45572  28.479   7.700  12.447
73159W        W45573  10.776  29.630  13.447
73160W        W45574  29.460   0.793  11.545
73161W        W45575   9.806  32.491   0.359
73162W        W45576  23.720   8.406  14.472
73163W        W45577  43.019  19.266  10.614
73164W        W45578  34.066  13.229   3.835
73165W        W45579  30.551   7.688   4.328
73166W        W45580  28.115  40.894  14.436
73167W        W45581  18.558  39.373   2.673
73168W        W45582   5.295   1.952  11.473
73169W        W45583  20.205  23.197  11.601
73170W        W45584   9.726   8.700  13.535
73171W        W45585  30.511  15.181   4.611
73172W        W45586   6.359  42.820  12.881
73173W        W45587  38.035  36.968   3.377
73174W        W45588   8.394  30.001   1.354
73175W        W45589  42.464   4.296   3.155
73176W        W45590  20.175   2.385  13.795
73177W        W45591   9.674  20.046   4.135
73178W        W45592  38.362  11.639   0.792
73179W        W45593   8.859   1.316  12.490
73180W        W45594  26.036  40.436   3.313
73181W        W45595  26.526  27.998  10.161
73182W        W45596  28.666   9.233   1.701
73183W        W45597  14.104   0.868   3.256
73184W        W45598  13.828   2.273   0.886
73185W        W45599  44.486  16.760   0.854
73186W        W45600  20.610  11.311   2.277
73187W        W45601  24.991  43.912  10.639
73188W        W45602   1.339  26.144  14.017
73189W        W45603   7.704  37.513   1.413
73190W        W45604  21.102  44.388   3.846
73191W        W45605  12.297  36.565   0.811
73192W        W45606  28.610  14.129   1.411
73193W        W45607  32.911   0.756  14.837
73194W        W45608  23.543  37.983   1.781
73195W        W45609  42.301   3.718   1.268
73196W        W45610   3.908  38.009  12.894
73197W        W45611  26.951  20.702   1.397
73198W        W45612  29.027   6.881  11.087
73199W        W45613  14.294  23.111  13.064
73200W        W45614  11.722   0.858   5.099
73201W        W45615  31.935  32.475  13.543
73202W        W45616  12.199  26.961  11.071
73203W        W45617  43.406  28.535   1.386
73204W        W45618  38.341  42.317  13.981
73205W        W45619  17.202  37.427  10.498
73206W        W45620  34.593  42.844   0.857
73207W        W45621  14.828  13.633   0.959
73208W        W45622  10.301  37.548   2.691
73209W        W45623  39.530  28.616   4.745
73210W        W45624  20.545  42.322  13.843
73211W        W45625  26.578  43.896  13.825
73212W        W45626  14.225  33.412   3.866
73213W        W45627  27.007  31.151  13.023
73214W        W45628   9.187  38.057  13.355
73215W        W45629  17.218   2.911   3.254
73216W        W45630  37.379  22.023   1.762
73217W        W45631  41.004   4.924   1.407
73218W        W45632  25.656  38.517  12.391
73219W        W45633  20.751   2.872  13.051
73220W        W45634  17.641  26.207  10.511
73221W        W45635  25.027   6.739   4.617
73222W        W45636   6.251  11.204  10.639
73223W        W45637  21.159  28.002  10.516
73224W        W45638  19.158  26.061   3.148
73225W        W45639  42.897  32.419   4.343
73226W        W45640  42.887  25.482   0.367
73227W        W45641  31.632  17.174  12.927
73228W        W45642   5.710   8.387  12.083
73229W        W45643  38.384  27.058  13.932
73230W        W45644  13.660   3.412   1.760
73231W        W45645  19.234  22.554  13.916
73232W        W45646  14.620   2.361  11.897
73233W        W45647   8.212   3.833  14.939
73234W        W45648   1.351  29.625   4.250
73235W        W45649  33.107  25.166  13.818
73236W        W45650  19.757  18.111  11.534
73237W        W45651  44.908   3.791   2.807
73238W        W45652  12.201  10.209   0.399
73239W        W45653  20.175  18.783  13.818
73240W        W45654  44.815  39.556  12.387
73241W        W45655  36.067  42.470  13.310
73242W        W45656  31.614  32.104   1.918
73243W        W45657   8.238  31.450   3.360
73244W        W45658  34.098   2.834   2.274
73245W        W45659  11.163  21.078  14.440
73246W        W45660  28.103  16.318  11.553
73247W        W45661  29.981  26.470   2.882
73248W        W45662  41.030  39.968   3.178
73249W        W45663  10.250  34.071   2.221
73250W        W45664  33.564  35.918   0.776
73251W        W45665  42.288  32.993  13.979
73252W        W45666  13.618  15.230   1.790
73253W        W45667  12.208  42.903  12.089
73254W        W45668  15.682  26.200  13.357
73255W        W45669  26.989  42.867   4.236
73256W        W45670  19.722   5.796  12.347
73257W        W45671  20.535  39.041  14.027
73258W        W45672  32.608  18.602   1.888
73259W        W45673  34.926  25.539   4.155
73260W        W45674   7.710   3.269  12.411
73261W        W45675  28.645  44.326   1.755
73262W        W45676  40.962  41.387  11.095
73263W        W45677   0.423  29.661  11.504
73264W        W45678  38.939   3.862  14.456
73265W        W45679   3.782  38.878  10.566
73266W        W45680  11.793  30.995   1.702
73267W        W45681   3.360   0.829   0.311
73268W        W45682  36.972   6.903   4.616
73269W        W45683  30.418  40.407   0.764
73270W        W45684   2.385  13.336   2.199
73271W        W45685  37.009  23.206   1.407
73272W        W45686  44.855  30.161   0.280
73273W        W45687  27.060  19.138   2.743
73274W        W45688  18.700  32.950   4.210
73275W        W45689  31.070  34.455   4.651
73276W        W45690   6.189   6.740   1.916
73277W        W45691   1.289   1.914   2.383
73278W        W45692  16.670  13.784   4.308
73279W        W45693  40.826  35.595   2.899
73280W        W45694  37.418  23.072  10.953
73281W        W45695  11.656   0.853  14.872
73282W        W45696  13.601  42.318   4.661
73283W        W45697  20.205  26.958  11.060
73284W        W45698  23.138   2.736  13.879
73285W        W45699  25.553   5.692  10.928
73286W        W45700   9.830  44.931  11.971
73287W        W45701  23.617  11.756   1.411
73288W        W45702  35.551  18.115  14.955
73289W        W45703  16.635  27.187  14.440
73290W        W45704  23.229  14.735   3.732
73291W        W45705  40.868  25.495   3.848
73292W        W45706  19.198  32.521   1.885
73293W        W45707  25.502  29.940  14.431
73294W        W45708  10.658  34.436   0.395
73295W        W45709   7.848  32.986   2.732
73296W        W45710   6.729  14.796   3.360
73297W        W45711   4.917   5.282  11.595
73298W        W45712  22.057  23.667  13.814
73299W        W45713  41.349  31.464   1.235
73300W        W45714   0.874  10.876   1.695
73301W        W45715   1.475   6.205   2.793
73302W        W45716  43.822  40.966   3.742
73303W        W45717  10.768  32.564  11.578
73304W        W45718  24.989  25.138   1.846
73305W        W45719  26.497   2.960  12.535
73306W        W45720  14.206  26.620   2.741
73307W        W45721  13.333   7.410   2.361
73308W        W45722  37.871  33.040   1.710
73309W        W45723   5.823  27.070   3.346
73310W        W45724  27.567  14.227  11.482
73311W        W45725  30.428   2.356  11.601
73312W        W45726  16.189   0.756  10.611
73313W        W45727  38.569  11.640   1.373
73314W        W45728  41.948  34.029   3.150
73315W        W45729   3.847  26.494  12.951
73316W        W45730  24.067   4.724   5.312
73317W        W45731  34.546  18.078  13.415
73318W        W45732  11.156  27.592   3.653
73319W        W45733  21.043  41.993   4.316
73320W        W45734  38.361  20.558   1.831
73321W        W45735  37.524  28.060  13.446
73322W        W45736  14.663  12.811   2.340
73323W        W45737  27.043  11.233  12.918
73324W        W45738  40.415  12.189   4.692
73325W        W45739  26.194  37.922  12.866
73326W        W45740  24.030  21.125   3.679
73327W        W45741  25.043  31.121   4.729
73328W        W45742  16.752  44.950   1.226
73329W        W45743  25.021  24.007  11.457
73330W        W45744  16.778  40.849  11.503
73331W        W45745  27.057   2.270   1.440
73332W        W45746  29.047  21.105  13.028
73333W        W45747  29.426  13.206   2.840
73334W        W45748   6.379  43.463   3.638
73335W        W45749  32.467  13.267   0.435
73336W        W45750  35.406   6.769   2.356
73337W        W45751  40.977   9.264   3.204
73338W        W45752  35.950   2.472  11.926
73339W        W45753  21.541  15.128  10.641
73340W        W45754  13.313  29.153  12.054
73341W        W45755  29.584  36.518  14.459
73342W        W45756   9.772  18.621  11.100
73343W        W45757  25.669  30.073  14.978
73344W        W45758  14.127  35.360   1.269
73345W        W45759   3.879  19.587  11.445
73346W        W45760  18.053  23.096  14.875
73347W        W45761   9.674  40.019  14.977
73348W        W45762  39.058  18.088  10.519
73349W        W45763  25.658  13.120   0.363
73350W        W45764  24.187  39.450  12.012
73351W        W45765  44.866   7.403  10.505
73352W        W45766   0.896  29.018  13.958
73353W        W45767  32.018  14.679  14.326
73354W        W45768   1.787  13.217  13.969
73355W        W45769  37.998  11.830  12.891
73356W        W45770   1.385  18.709   4.836
73357W        W45771   5.862   4.269  14.512
73358W        W45772  39.050  29.586  13.502
73359W        W45773  15.726  21.545  11.054
73360W        W45774  37.077  41.018  13.923
73361W        W45775  15.090  32.119  12.924
73362W        W45776  13.664   1.862  10.473
73363W        W45777  12.219  34.036   0.745
73364W        W45778  37.001  34.995  12.930
73365W        W45779  24.992  43.942   2.782
73366W        W45780  14.137  38.406  11.002
73367W        W45781  22.249  42.853   4.331
73368W        W45782  21.077  31.631  13.416
73369W        W45783  29.948   2.770   0.371
73370W        W45784   4.389   9.776   2.739
73371W        W45785  35.453   6.418  12.988
73372W        W45786  42.302  17.741  13.319
73373W        W45787   2.819   7.776   2.315
73374W        W45788   0.939  32.891  14.463
73375W        W45789  14.829  44.920  10.435
73376W        W45790   3.926  41.895  14.019
73377W        W45791  32.999  44.366   1.346
73378W        W45792  30.507   9.233   3.855
73379W        W45793  16.700  27.500   3.360
73380W        W45794   1.958  25.650   4.704
73381W        W45795   6.397  16.632  14.356
73382W        W45796  31.035  22.142  13.854
73383W        W45797  23.630   9.779  13.445
73384W        W45798   2.295   9.378  13.005
73385W        W45799   2.325  30.138  12.940
73386W        W45800  31.147  14.694   2.181
73387W        W45801   5.332  27.472   9.635
73388W        W45802  15.788  17.790  10.061
73389W        W45803  30.522  43.392  11.120
73390W        W45804   9.878  12.328  12.473
73391W        W45805  12.334  26.995  13.843
73392W        W45806  41.920  42.821   3.845
73393W        W45807  12.688  31.088  13.860
73394W        W45808  15.635  15.298  10.127
73395W        W45809  24.987  38.886   4.771
73396W        W45810  13.257   0.935   0.863
73397W        W45811  20.632  35.085  11.060
73398W        W45812  26.018   4.828   0.356
73399W        W45813   0.940  35.536   1.263
73400W        W45814  29.556   2.736  13.545
73401W        W45815  35.552  15.221  13.946
73402W        W45816  40.934   3.233  10.466
73403W        W45817  12.697  31.535   2.699
73404W        W45818  30.512  25.206  10.501
73405W        W45819  21.025  36.448   0.371
73406W        W45820  43.012  21.108   3.772
73407W        W45821   6.367   1.431  14.383
73408W        W45822  10.836  26.029   3.844
73409W        W45823  10.157   4.885   2.808
73410W        W45824  43.351  20.644  12.939
73411W        W45825   6.746  42.005   3.250
73412W        W45826   6.213  30.637   3.279
73413W        W45827  10.858  20.265  13.417
73414W        W45828  36.916   6.424  11.878
73415W        W45829  41.842  43.452   0.349
73416W        W45830  28.153  37.952   0.247
73417W        W45831  31.457  15.184  14.848
73418W        W45832  32.540  12.201  10.405
73419W        W45833   1.911  20.103   3.860
73420W        W45834  28.140  37.922   2.826
73421W        W45835   1.940  19.678   0.825
73422W        W45836  10.195  33.593  13.439
73423W        W45837  38.076   2.465  10.473
73424W        W45838  34.397  29.580  12.845
73425W        W45839  18.276  35.576  12.823
73426W        W45840  35.380  12.116  12.387
73427W        W45841   0.442  33.520  11.996
73428W        W45842  25.205  27.963   3.670
73429W        W45843  29.436  14.170  11.416
73430W        W45844  28.997  24.028  10.925
73431W        W45845  31.559  41.008  14.334
73432W        W45846  44.836  25.015   4.711
73433W        W45847  14.321  10.161   2.862
73434W        W45848   7.250   7.720   1.713
73435W        W45849  20.119  24.653   3.226
73436W        W45850  14.614  22.223  12.387
73437W        W45851  25.020  35.936   3.868
73438W        W45852   6.849   4.438  13.450
73439W        W45853  23.583   8.781   4.233
73440W        W45854   1.386  41.501  14.989
73441W        W45855  38.515   3.818  12.367
73442W        W45856  19.685   6.303   0.477
73443W        W45857  14.331   9.651  11.008
73444W        W45858  30.460  43.420  13.026
73445W        W45859  28.502  42.989   1.390
73446W        W45860  31.520   6.192   3.314
73447W        W45861  39.905  27.976  10.968
73448W        W45862  34.548  15.165  13.505
73449W        W45863  30.947  32.941   2.772
73450W        W45864  38.966  30.491   3.805
73451W        W45865  33.461  44.800   2.711
73452W        W45866   1.342  37.034  14.302
73453W        W45867  38.942  22.553   5.320
73454W        W45868   5.897  13.266  10.434
73455W        W45869  16.081  30.641   3.787
73456W        W45870  28.631   6.789   3.332
73457W        W45871  44.313   3.321  10.598
73458W        W45872  24.563  36.051  13.927
73459W        W45873  16.657   8.317  14.336
73460W        W45874  17.673  44.303   1.730
73461W        W45875  13.833  26.046  14.489
73462W        W45876   0.449  31.084   3.860
73463W        W45877   8.784   4.405   2.833
73464W        W45878  30.428  13.320  12.578
73465W        W45879   9.686  41.928  14.467
73466W        W45880  23.109  24.486   2.269
73467W        W45881  32.454  17.687   3.699
73468W        W45882  19.259   0.484   1.344
73469W        W45883   6.291  35.862   4.777
73470W        W45884  17.292  30.480   3.635
73471W        W45885  18.135   0.362   1.778
73472W        W45886  17.618  24.667  13.538
73473W        W45887  40.349  13.176   4.354
73474W        W45888  13.212  27.513   3.379
73475W        W45889  33.617  26.529   5.221
73476W        W45890   4.712  40.363  12.528
73477W        W45891  33.568  23.580  13.411
73478W        W45892  32.117  35.602   2.400
73479W        W45893   4.254  14.603   9.971
73480W        W45894  10.818  28.045  10.097
73481W        W45895  20.682  17.587   1.342
73482W        W45896   7.692  22.107   1.346
73483W        W45897  19.548  33.513  13.831
73484W        W45898  39.018  23.706  10.551
73485W        W45899   1.471  27.000   3.632
73486W        W45900  26.580  22.547  13.973
73487W        W45901  25.002  24.125  12.515
73488W        W45902   1.976  19.596  13.816
73489W        W45903  33.537  22.632   1.806
73490W        W45904  22.014   6.421  13.370
73491W        W45905  20.586  18.637   2.895
73492W        W45906  38.511   5.841  10.593
73493W        W45907   7.834  33.383   1.900
73494W        W45908   0.401  31.589  12.540
73495W        W45909   6.246   3.347  13.384
73496W        W45910   6.754   1.480  13.791
73497W        W45911   3.844  35.596  13.396
73498W        W45912  21.614  41.502  10.919
73499W        W45913  12.303  11.797  14.799
73500W        W45914  32.407  24.601  11.981
73501W        W45915   8.655  18.174   1.278
73502W        W45916   6.292  28.544   0.784
73503W        W45917  20.524  38.433  14.032
73504W        W45918  37.084  25.472   2.895
73505W        W45919  42.408  15.117  11.856
73506W        W45920  20.523  25.017   2.239
73507W        W45921  35.079  40.531  12.012
73508W        W45922   3.221  22.551  11.488
73509W        W45923  39.027  33.536   4.658
73510W        W45924   0.845  41.462   4.639
73511W        W45925  18.658  12.296   1.234
73512W        W45926   8.786  18.160  14.877
73513W        W45927  35.878   8.767  11.013
73514W        W45928  31.636  10.848  12.981
73515W        W45929  12.793  16.634   0.750
73516W        W45930  26.002  19.088   0.833
73517W        W45931   1.736   4.864   1.899
73518W        W45932  27.120  34.107   0.827
73519W        W45933  27.504  33.919   0.776
73520W        W45934  38.430  43.891   2.902
73521W        W45935   8.337  27.576  14.503
73522W        W45936  25.171  32.500  12.839
73523W        W45937  14.234  17.750   3.740
73524W        W45938  17.196  34.938  14.007
73525W        W45939   1.361   0.974   0.791
73526W        W45940   6.302  15.778   2.761
73527W        W45941  10.662  17.290   4.349
73528W        W45942  18.279  16.290  13.948
73529W        W45943  22.735  35.856   1.716
73530W        W45944  22.581  30.907  14.836
73531W        W45945  41.354   7.838  10.998
73532W        W45946   3.756  41.517   5.145
73533W        W45947  41.999  25.660   1.920
73534W        W45948  39.379  29.489   1.365
73535W        W45949  41.520  42.926  12.512
73536W        W45950  19.594  44.972   4.804
73537W        W45951  10.346  40.038  10.553
73538W        W45952  15.622  34.062  10.473
73539W        W45953  24.634  12.236  14.799
73540W        W45954  24.528  42.357  10.902
73541W        W45955   2.450   6.363   1.867
73542W        W45956   9.682  15.761   3.852
73543W        W45957   3.353  28.585   2.272
73544W        W45958   1.325  30.130   0.831
73545W        W45959  35.393  44.869  10.586
73546W        W45960  35.919  34.606   0.473
73547W        W45961  16.110  13.705   4.714
73548W        W45962  36.487  28.141   1.854
73549W        W45963  28.437  25.697   3.157
73550W        W45964   4.877  34.582   2.831
73551W        W45965  24.180   9.722   3.703
73552W        W45966  27.062   5.720  10.429
73553W        W45967  36.913  37.032   0.266
73554W        W45968  16.257  23.212  13.456
73555W        W45969   9.299  13.776  13.881
73556W        W45970  21.082  26.606   2.362
73557W        W45971  15.657   7.214   1.890
73558W        W45972  22.504  36.476   4.646
73559W        W45973  13.305  24.225   1.291
73560W        W45974  43.369  38.912   0.409
73561W        W45975  23.512   5.197  11.529
73562W        W45976  39.391   6.319   3.221
73563W        W45977   8.183   4.322   3.243
73564W        W45978  11.302  13.692   3.242
73565W        W45979  26.034  37.489  13.045
73566W        W45980  14.149   3.401  10.579
73567W        W45981  40.952  20.181  14.895
73568W        W45982  13.122  39.915  11.962
73569W        W45983  26.539   1.409  10.911
73570W        W45984  13.153  41.313   0.423
73571W        W45985  23.713   7.205  11.373
73572W        W45986  21.051  39.861  10.131
73573W        W45987  35.997  16.115   1.877
73574W        W45988  22.655  14.629   0.263
73575W        W45989   7.418  44.950  14.008
73576W        W45990  16.705  40.514  14.012
73577W        W45991  20.587  17.077  14.486
73578W        W45992   3.908  25.169   4.116
73579W        W45993  28.029  10.238   1.421
73580W        W45994  40.445  22.526  13.950
73581W        W45995  15.667  19.048  10.609
73582W        W45996  10.246  42.834   2.670
73583W        W45997  28.108  24.153   4.797
73584W        W45998  23.112   9.223  14.834
73585W        W45999  35.395  35.397   1.819
73586W        W46000  38.352  19.737  11.567
73587W        W46001  17.120  22.222   2.248
73588W        W46002  29.620  12.702   2.265
73589W        W46003  22.706  36.866  10.124
73590W        W46004  10.845   1.744  13.321
73591W        W46005   7.874  14.118  10.893
73592W        W46006  42.290  19.764  14.901
73593W        W46007  25.973   2.231  14.031
73594W        W46008  27.683  30.038  14.813
73595W        W46009  32.443  14.165  10.405
73596W        W46010  24.085  43.820   2.722
73597W        W46011  22.545  13.787  12.882
73598W        W46012  34.977  36.985  12.970
73599W        W46013  39.473  23.633  13.492
73600W        W46014  17.233  20.665   2.311
73601W        W46015  13.282  37.500  11.517
73602W        W46016  23.653  18.569   1.713
73603W        W46017  37.390  22.516   2.729
73604W        W46018  24.151  17.729   9.971
73605W        W46019   7.851  30.609  14.411
73606W        W46020   2.805  14.823   0.879
73607W        W46021  30.943   8.738   2.217
73608W        W46022  20.074  40.334  11.870
73609W        W46023  32.953   2.770  14.488
73610W        W46024  33.416   0.907  13.959
73611W        W46025  17.300  30.127  14.423
73612W        W46026  44.347  31.476   1.332
73613W        W46027   4.205  27.981   0.733
73614W        W46028   4.448  22.594  11.444
73615W        W46029  38.523   5.926  13.440
73616W        W46030  27.551  16.575   3.764
73617W        W46031  18.199  41.831  10.470
73618W        W46032  32.620   8.202  10.546
73619W        W46033  25.548  17.188   1.362
73620W        W46034  37.946   5.234   1.391
73621W        W46035  35.467  26.957   2.368
73622W        W46036   0.303  10.833   1.756
73623W        W46037  35.584  44.283  12.465
73624W        W46038  38.500  26.697  14.789
73625W        W46039  43.783  40.389   3.286
73626W        W46040  31.043  34.863   1.751
73627W        W46041   4.818  21.512  13.442
73628W        W46042  13.769  44.475  13.460
73629W        W46043  20.128  39.926   4.128
73630W        W46044  28.528   3.954   3.631
73631W        W46045   1.790  24.228  14.515
73632W        W46046  18.295  33.061   2.779
73633W        W46047  35.909  36.882  14.475
73634W        W46048  17.259  26.512  13.934
73635W        W46049  11.325  13.236   0.885
73636W        W46050  39.490  29.173  12.992
73637W        W46051  18.705  33.940   0.373
73638W        W46052   1.325  11.355   3.710
73639W        W46053  29.428   0.305   4.641
73640W        W46054  19.642  19.769  14.384
73641W        W46055  31.086  10.811  13.051
73642W        W46056  35.027   5.712  13.940
73643W        W46057  26.621   7.901   2.392
73644W        W46058  24.142  22.118   4.294
73645W        W46059  15.105   6.683   0.954
73646W        W46060  27.641   8.363  11.062
73647W        W46061  35.600  16.141   3.853
73648W        W46062  33.596   2.822   0.422
73649W        W46063  23.027   9.297   3.671
73650W        W46064   3.252  44.397  14.317
73651W        W46065  14.742  13.820  14.360
73652W        W46066   8.774  29.073   3.275
73653W        W46067  26.964  30.658  14.389
73654W        W46068   0.969   8.762  10.633
73655W        W46069  11.763  36.971  11.561
73656W        W46070  31.411  42.309   0.850
73657W        W46071  31.067  21.659  11.601
73658W        W46072   3.423  29.077  10.047
73659W        W46073  26.513  34.980  12.058
73660W        W46074   3.879  18.660  12.546
73661W        W46075   6.411  17.561   1.271
73662W        W46076  11.772  15.285  12.530
73663W        W46077  10.272  26.602  11.081
73664W        W46078  33.434  30.440  14.846
73665W        W46079   7.231  44.971   1.914
73666W        W46080   5.231   0.789  10.519
73667W        W46081   0.820  27.557   0.841
73668W        W46082  31.467   5.382   3.238
73669W        W46083  16.773  38.478  14.376
73670W        W46084   3.721  33.920   1.383
73671W        W46085  14.598   0.335   2.893
73672W        W46086   9.865  20.578  13.910
73673W        W46087   1.332  44.908  12.912
73674W        W46088  44.822  10.291   5.170
73675W        W46089  41.371  20.537   0.291
73676W        W46090  10.143  43.847  11.856
73677W        W46091  42.837   9.845   4.320
73678W        W46092  10.812  18.623   3.685
73679W        W46093  38.863  40.475   3.279
73680W        W46094  11.859  26.177   4.141
73681W        W46095   5.205  27.566  14.349
73682W        W46096  43.490  18.571  11.882
73683W        W46097  15.620  18.181   0.735
73684W        W46098  20.248   5.783   0.737
73685W        W46099  30.467  32.047   4.244
73686W        W46100   0.807  21.137  10.506
73687W        W46101  18.707  41.997   0.281
73688W        W46102  40.405  35.454  12.032
73689W        W46103   1.407  27.172  14.418
73690W        W46104  12.815  11.690  14.335
73691W        W46105  42.959  14.733  14.430
73692W        W46106   6.853  23.514   0.426
73693W        W46107  25.185  34.536   2.754
73694W        W46108  29.039  41.966   3.677
73695W        W46109  12.685  34.613   4.669
73696W        W46110   8.274   8.356  10.630
73697W        W46111  37.384  36.509  10.006
73698W        W46112  12.666  27.979  12.038
73699W        W46113  21.113  23.702   1.216
73700W        W46114  33.008  23.049   3.659
73701W        W46115  11.361  28.043  12.394
73702W        W46116   8.319  38.006  10.450
73703W        W46117   6.241   6.771  13.952
73704W        W46118  10.636  19.126   4.838
73705W        W46119  36.437  30.573  12.573
73706W        W46120  12.183  37.871   2.262
73707W        W46121  44.971  14.126  13.519
73708W        W46122   1.793  11.649   5.096
73709W        W46123  43.506  26.541  14.787
73710W        W46124  18.669   1.753  12.840
73711W        W46125  20.173  11.331  10.536
73712W        W46126  27.048   6.242   4.303
73713W        W46127  37.477  22.040  12.884
73714W        W46128   4.858  33.938   1.237
73715W        W46129  23.624  18.280  13.947
73716W        W46130  10.246  11.353   2.285
73717W        W46131  23.191  30.598  13.804
73718W        W46132  13.813  18.643   4.279
73719W        W46133  24.628  27.964   0.821
73720W        W46134  33.412  14.151   0.438
73721W        W46135  21.139  37.967   4.128
73722W        W46136  15.646  18.140   3.313
73723W        W46137  35.903  30.578  14.379
73724W        W46138  14.132  42.321  12.056
73725W        W46139  42.874  16.270   4.174
73726W        W46140   5.237   3.441   3.870
73727W        W46141  14.602  37.008  11.609
73728W        W46142   8.817  26.070   0.887
73729W        W46143  31.995  36.588  11.508
73730W        W46144  30.135  18.197  11.971
73731W        W46145   4.207  43.339   3.205
73732W        W46146  22.625  23.100   1.234
73733W        W46147  32.394   9.801  14.329
73734W        W46148   1.833  39.047   9.972
73735W        W46149   9.684   5.856  11.096
73736W        W46150  40.504  43.961  11.401
73737W        W46151  21.708  22.743   4.134
73738W        W46152  32.080  23.664   4.209
73739W        W46153  23.199  23.720   2.791
73740W        W46154  13.230  18.164   1.313
73741W        W46155  14.605  22.190   1.226
73742W        W46156   1.466   3.310  13.793
73743W        W46157  14.314  28.481  14.835
73744W        W46158  44.867  21.524  12.542
73745W        W46159  36.024  13.647  13.958
73746W        W46160  27.675  17.562  12.553
73747W        W46161   5.788  20.154  13.979
73748W        W46162  27.649  38.840  12.340
73749W        W46163  40.000   1.953   2.895
73750W        W46164  38.004  26.074   2.262
73751W        W46165  24.199  41.856   3.230
73752W        W46166  16.639  36.508   3.779
73753W        W46167   9.668  41.040  14.821
73754W        W46168  42.864  37.579   3.210
73755W        W46169   0.386  43.375  10.450
73756W        W46170   6.250  32.091  10.145
73757W        W46171  39.459   2.391   4.631
73758W        W46172  31.048  29.127  13.019
73759W        W46173  42.385  21.630  11.932
73760W        W46174  26.123  18.651   1.231
73761W        W46175  31.058  29.919   2.687
73762W        W46176  16.592  12.712   0.814
73763W        W46177  32.011  33.079   2.738
73764W        W46178   4.925  29.455   1.753
73765W        W46179  20.263  10.241  11.492
73766W        W46180  38.826  12.212   3.657
73767W        W46181   1.908  38.526   2.289
73768W        W46182  20.655  14.647  14.422
73769W        W46183  16.079   5.232   0.476
73770W        W46184  24.670  14.167   1.370
73771W        W46185   9.691  30.632   1.230
73772W        W46186  22.528  35.390   4.220
73773W        W46187  28.450  34.961  12.834
73774W        W46188  29.444   4.779   2.685
73775W        W46189   2.293  27.508  14.291
73776W        W46190  34.449  17.761  10.572
73777W        W46191  33.999   5.717   3.827
73778W        W46192  19.133  36.010   3.826
73779W        W46193  25.996   1.790   3.302
73780W        W46194  15.102   5.903  10.502
73781W        W46195  24.484  25.129   3.637
73782W        W46196   4.732  44.350  13.921
73783W        W46197  26.104  40.036   3.176
73784W        W46198  17.238  10.346   4.762
73785W        W46199  16.615  29.122   4.619
73786W        W46200  28.930   2.901  11.063
73787W        W46201  31.413  19.077  10.894
73788W        W46202  41.298  11.282  11.864
73789W        W46203  24.096  37.368  10.478
73790W        W46204  13.663  18.210   0.318
73791W        W46205  26.194  29.110  10.517
73792W        W46206   1.250  14.600  13.995
73793W        W46207  39.499   7.290  13.801
73794W        W46208  39.842  21.668  13.021
73795W        W46209  40.321   9.746   4.336
73796W        W46210  28.958  32.584  13.021
73797W        W46211  29.579   8.718   5.269
73798W        W46212  18.178  37.340   1.785
73799W        W46213  16.207  41.499   4.709
73800W        W46214  26.169   9.786   3.762
73801W        W46215  38.553  22.183   2.866
73802W        W46216  34.059  39.421   4.332
73803W        W46217   2.807  26.130   0.444
73804W        W46218  22.502   8.271   4.611
73805W        W46219  30.458   7.877  11.873
73806W        W46220   4.315  37.390  10.088
73807W        W46221  28.027   4.216  12.942
73808W        W46222   9.210  13.827   1.381
73809W        W46223  28.180  41.802   4.234
73810W        W46224  14.602  29.566  13.495
73811W        W46225  32.902  27.623   0.245
73812W        W46226   3.911  22.165   4.680
73813W        W46227  20.634   5.425   1.374
73814W        W46228  37.391  20.639   2.769
73815W        W46229  15.689  35.591   0.395
73816W        W46230  34.929  41.020   1.765
73817W        W46231  15.218   3.440   1.433
73818W        W46232  41.832  19.146   0.796
73819W        W46233  16.684  27.087   4.752
73820W        W46234   8.405  44.832  12.565
73821W        W46235  37.009  27.505  12.516
73822W        W46236  14.676  29.093  11.049
73823W        W46237  32.431  41.362   0.966
73824W        W46238  38.481  11.371  12.346
73825W        W46239  36.898  38.072   2.860
73826W        W46240  44.505  26.526  12.974
73827W        W46241  26.618   9.164  13.439
73828W        W46242  39.482  31.578  10.906
73829W        W46243  18.776  32.550   0.878
73830W        W46244  17.245  23.031   4.802
73831W        W46245  39.961  21.240  14.919
73832W        W46246  32.069  12.749  13.979
73833W        W46247  41.490   2.254   1.450
73834W        W46248  32.026  16.776   1.350
73835W        W46249  32.570  32.409   2.709
73836W        W46250   0.853   2.459  11.597
73837W        W46251  13.127   7.888   0.249
73838W        W46252  36.038  41.022  10.558
73839W        W46253   1.773  35.943   2.293
73840W        W46254  25.592   8.737   3.755
73841W        W46255  31.944  36.507   3.257
73842W        W46256  27.555  18.595   4.173
73843W        W46257  18.223   3.259   1.764
73844W        W46258  11.805  13.211  14.456
73845W        W46259   3.722  19.041   2.784
73846W        W46260  25.062   2.262  14.990
73847W        W46261   9.349  41.342  14.893
73848W        W46262  22.185  40.471  14.278
73849W        W46263  38.553   1.363  12.522
73850W        W46264  42.880  33.042   3.680
73851W        W46265   0.817   2.903  11.957
73852W        W46266  20.637  18.100  10.617
73853W        W46267  33.037   3.270   2.335
73854W        W46268  12.632  36.572  13.998
73855W        W46269  34.961   2.421   4.723
73856W        W46270  11.187  43.808  13.372
73857W        W46271  19.550   2.456  12.925
73858W        W46272  25.535  29.659   1.888
73859W        W46273   8.813  33.452  11.107
73860W        W46274  44.930   9.789   2.864
73861W        W46275  22.732  41.904   0.257
73862W        W46276  13.846  11.740   3.686
73863W        W46277   4.824  28.098   0.361
73864W        W46278  29.513  21.704   0.949
73865W        W46279  32.512  24.059  10.433
73866W        W46280   1.848  25.214   2.202
73867W        W46281  10.183  19.547   4.750
73868W        W46282   5.430  23.577   1.867
73869W        W46283  44.322  23.514   3.820
73870W        W46284  42.481  31.643   2.742
73871W        W46285  20.639   3.318   0.438
73872W        W46286   0.325  19.550  12.843
73873W        W46287  30.585  23.635  11.562
73874W        W46288  35.530  16.680  11.462
73875W        W46289  27.619  18.760   2.864
73876W        W46290  24.221  13.216  11.419
73877W        W46291  22.550  24.052  10.891
73878W        W46292   1.438  15.671   4.809
73879W        W46293  13.720  21.583  10.472
73880W        W46294   8.290  14.144  12.879
73881W        W46295  44.291  10.877   2.401
73882W        W46296  17.727  19.725   4.806
73883W        W46297  38.474  31.935   3.297
73884W        W46298  37.891  11.178   1.862
73885W        W46299   5.814  34.544   0.414
73886W        W46300  37.505  21.632   3.364
73887W        W46301  28.127   9.184   3.385
73888W        W46302  32.031  42.371   3.188
73889W        W46303   3.403  40.967   3.687
73890W        W46304  42.858  33.015  11.508
73891W        W46305  10.638  15.119  14.443
73892W        W46306  31.149   2.271   3.169
73893W        W46307  42.919  34.036  13.451
73894W        W46308  35.056   0.973  10.932
73895W        W46309  31.937  15.135   1.289
73896W        W46310  13.213  21.543   1.443
73897W        W46311  35.358  35.994   1.304
73898W        W46312   5.247  39.000  14.303
73899W        W46313  24.635  13.183   1.763
73900W        W46314  16.162  10.775   1.223
73901W        W46315  24.024  29.484  10.508
73902W        W46316  34.954  20.134  13.504
73903W        W46317  37.541  10.716   4.733
73904W        W46318  10.154  12.744   1.323
73905W        W46319  16.668  29.045   3.793
73906W        W46320  43.341  31.000  14.474
73907W        W46321   5.821  27.161   4.743
73908W        W46322  30.954  30.523   4.774
73909W        W46323  39.992  30.095   1.345
73910W        W46324  25.533  16.283   3.844
73911W        W46325   4.367   1.301   1.421
73912W        W46326  42.970   8.280  13.522
73913W        W46327  38.425   5.278   0.405
73914W        W46328  30.076  36.473  11.063
73915W        W46329  28.014  10.701   4.752
73916W        W46330   2.812  22.087  13.995
73917W        W46331  40.451  37.395   4.673
73918W        W46332   4.229  20.685   3.380
73919W        W46333  13.298   9.394  10.947
73920W        W46334  41.422  30.147   1.755
73921W        W46335  29.053   4.294  14.885
73922W        W46336  15.248  15.318   3.668
73923W        W46337   6.338  12.169  13.498
73924W        W46338  33.019  35.982  11.920
73925W        W46339   2.327  39.523  11.942
73926W        W46340  44.955  16.657  12.578
73927W        W46341  37.962   3.242   2.233
73928W        W46342  33.088  21.646   4.312
73929W        W46343  43.374  24.676  12.533
73930W        W46344   7.675  43.471  10.442
73931W        W46345  33.462  41.529  10.574
73932W        W46346  23.597  15.103   1.263
73933W        W46347  11.636  33.932  10.972
73934W        W46348  12.668  42.876   4.701
73935W        W46349  12.255   2.892  12.845
73936W        W46350   2.426  31.028  13.917
73937W        W46351  13.743   7.891   3.655
73938W        W46352  15.316  25.038   1.831
73939W        W46353  31.003   0.744   2.775
73940W        W46354  42.512  16.138  13.813
73941W        W46355  15.203  25.076  11.876
73942W        W46356   9.877   7.274  14.884
73943W        W46357   8.687  20.768  10.412
73944W        W46358  44.773  26.665   0.965
73945W        W46359  16.145   4.939   4.778
73946W        W46360  36.025  17.121  13.899
73947W        W46361  13.624   8.287   2.262
73948W        W46362   0.759  12.131   2.851
73949W        W46363  26.670  38.025  12.023
73950W        W46364   8.879  39.393   4.195
73951W        W46365   2.915  31.972  13.496
73952W        W46366   4.775  23.582  11.448
73953W        W46367   3.836  31.460  10.481
73954W        W46368   7.888  22.605  13.336
73955W        W46369  34.934  31.997   4.350
73956W        W46370  43.007  11.203  11.053
73957W        W46371  38.529  31.424   4.315
73958W        W46372  24.685  32.430  13.897
73959W        W46373  23.570  21.177  11.928
73960W        W46374   0.407  18.635   3.338
73961W        W46375  39.355  18.146   3.715
73962W        W46376  34.029  25.475   1.405
73963W        W46377   8.398  35.535  10.530
73964W        W46378  23.665   7.361  13.052
73965W        W46379  42.869  19.063   3.270
73966W        W46380  30.643   8.737  14.898
73967W        W46381  38.372  27.545   1.787
73968W        W46382   1.448  33.385  13.030
73969W        W46383  33.994  37.387   0.818
73970W        W46384  43.292  30.552  14.988
73971W        W46385  38.507   3.430   5.180
73972W        W46386   4.824  14.749  14.445
73973W        W46387  36.930  21.668   0.269
73974W        W46388  26.132  20.034  11.119
73975W        W46389  27.617  23.654   0.743
73976W        W46390  33.568   6.258  13.010
73977W        W46391  27.686  11.140   2.316
73978W        W46392  16.291   7.813  11.112
73979W        W46393  21.585   9.676   3.377
73980W        W46394  14.327  11.231   0.256
73981W        W46395  27.595  10.163  13.042
73982W        W46396  12.262  32.409   2.395
73983W        W46397  27.105  28.044   3.238
73984W        W46398  25.036  11.804   4.344
73985W        W46399  30.562  13.270  12.932
73986W        W46400   9.805  32.636  13.460
73987W        W46401  11.293   2.260  11.940
73988W        W46402  40.988  36.893   3.754
73989W        W46403  17.133   2.804   2.395
73990W        W46404  37.950  24.564  14.768
73991W        W46405   8.815  40.830  13.474
73992W        W46406   1.397   1.281  13.528
73993W        W46407  10.766   8.751   5.161
73994W        W46408  44.318  44.283  10.989
73995W        W46409  10.252  25.680   4.772
73996W        W46410  12.335   9.883  12.946
73997W        W46411  21.236  40.467   0.820
73998W        W46412  13.305  35.089   3.669
73999W        W46413  28.603  13.256  14.356
74000W        W46414   9.192  33.528  13.446
74001W        W46415  23.493   5.412   2.354
74002W        W46416   9.657  27.018   2.793
74003W        W46417  12.282   0.966   0.436
74004W        W46418   8.240  11.738  14.937
74005W        W46419  34.021  13.143   2.294
74006W        W46420  28.021  38.875   3.354
74007W        W46421   3.787  13.210  11.942
74008W        W46422  30.001   0.333  11.561
74009W        W46423  18.078   0.392   2.714
74010W        W46424   6.814  19.102   3.188
74011W        W46425  39.396  38.417   2.889
74012W        W46426  41.430  41.502   1.852
74013W        W46427  16.753  19.262   2.200
74014W        W46428  20.540  31.498   2.840
74015W        W46429   3.902  19.723   1.790
74016W        W46430  35.508  22.552   2.691
74017W        W46431  23.565  35.430   4.154
74018W        W46432   8.266  37.963  13.351
74019W        W46433  13.163  10.247  10.087
74020W        W46434  20.721   0.878   3.761
74021W        W46435  35.889  39.415   1.354
74022W        W46436  37.021  36.443   2.265
74023W        W46437  39.420   6.782   3.186
74024W        W46438  16.124  12.664  13.368
74025W        W46439  39.444  28.526   4.144
74026W        W46440  38.990  34.889  14.346
74027W        W46441  19.579  21.075  10.616
74028W        W46442   0.251  43.338  12.383
74029W        W46443  20.189  16.765  14.332
74030W        W46444  35.910  23.604   2.300
74031W        W46445  13.212  43.347  11.398
74032W        W46446  21.086  15.682  14.812
74033W        W46447  36.058  36.868   0.354
74034W        W46448  21.239  30.095   2.339
74035W        W46449  34.095  12.271   1.745
74036W        W46450  32.033  13.127  13.925
74037W        W46451   5.207  13.759   1.734
74038W        W46452  12.724  40.409   4.235
74039W        W46453  34.577   6.417  11.086
74040W        W46454  30.497  16.571  12.558
74041W        W46455   8.355  10.695  14.502
74042W        W46456  30.477  39.932  10.900
74043W        W46457  15.155  35.918   0.382
74044W        W46458  11.357   9.749  11.515
74045W        W46459  17.592   1.363  14.987
74046W        W46460  41.293  35.907   2.860
74047W        W46461  36.950  28.086  10.912
74048W        W46462   3.952  18.283   1.724
74049W        W46463  16.091  36.394  10.496
74050W        W46464   6.854  10.770  12.356
74051W        W46465  19.706  36.381   2.417
74052W        W46466   8.172  35.468  12.462
74053W        W46467   7.206  19.604   2.246
74054W        W46468  19.776  39.357  14.458
74055W        W46469  28.668  17.757  10.898
74056W        W46470  22.611   5.253   4.234
74057W        W46471  38.528  36.999  12.082
74058W        W46472  13.307  28.070  13.523
74059W        W46473  19.085  42.286   9.658
74060W        W46474  43.808  20.176   3.711
74061W        W46475  26.568  39.506  10.955
74062W        W46476  10.232  19.081   0.316
74063W        W46477  14.722  31.575  12.416
74064W        W46478  31.935  19.771   2.417
74065W        W46479  30.556   6.416   1.889
74066W        W46480   9.173  23.625  10.896
74067W        W46481  20.050  26.049  14.876
74068W        W46482  21.747   4.410  13.313
74069W        W46483  30.109   8.400   1.700
74070W        W46484  42.292  41.808  10.984
74071W        W46485  43.464  33.023   0.772
74072W        W46486  14.764  20.267   4.737
74073W        W46487  41.840  11.329  12.933
74074W        W46488  27.010  21.099   4.231
74075W        W46489  31.615  18.779   4.609
74076W        W46490   1.806  34.093  10.915
74077W        W46491  11.715  41.483  10.148
74078W        W46492  24.040  29.526  14.449
74079W        W46493  23.652  27.173   3.171
74080W        W46494  38.981  35.079   2.407
74081W        W46495  34.387  23.695  14.773
74082W        W46496  36.019  18.778  11.451
74083W        W46497   3.915   9.354   2.249
74084W        W46498  35.942  40.886   1.734
74085W        W46499  21.190  44.935   3.839
74086W        W46500  15.199  32.994  12.372
74087W        W46501  36.395  35.465   3.387
74088W        W46502  25.177  44.977  13.462
74089W        W46503   7.393   6.755  13.467
74090W        W46504  20.249  26.498   1.370
74091W        W46505  18.568  35.099   2.672
74092W        W46506  29.121  32.509   0.942
74093W        W46507  23.597  16.715   1.284
74094W        W46508  20.243  40.801  12.027
74095W        W46509  17.075  15.136  12.862
74096W        W46510  26.099  10.817  11.909
74097W        W46511  20.149  35.405  11.901
74098W        W46512   7.854  33.941   1.776
74099W        W46513  41.888  11.770  11.046
74100W        W46514  41.942  32.106   1.782
74101W        W46515  35.421   6.295   0.805
74102W        W46516  16.611   9.833  11.064
74103W        W46517   4.370  11.838   0.794
74104W        W46518  44.383   8.746  10.508
74105W        W46519  40.841  43.864   1.702
74106W        W46520  37.435   0.784  14.447
74107W        W46521  27.520  14.269  12.847
74108W        W46522  16.090  35.090  13.434
74109W        W46523  28.601  10.791   4.752
74110W        W46524  24.720  41.533   3.164
74111W        W46525   1.456  39.991   3.702
74112W        W46526  21.555  24.147  12.011
74113W        W46527   2.820   8.202   2.288
74114W        W46528  38.034   1.882  13.369
74115W        W46529  44.976   6.827   1.304
74116W        W46530   3.902   0.784  12.869
74117W        W46531  33.973  37.876  14.443
74118W        W46532  23.550  19.076   0.384
74119W        W46533  31.511  41.882   4.300
74120W        W46534   3.216  21.632  14.424
74121W        W46535  35.924  24.512  11.958
74122W        W46536  12.123   5.412   2.787
74123W        W46537  12.720   0.886  12.466
74124W        W46538  13.678  20.607  13.019
74125W        W46539  35.534   7.415   1.861
74126W        W46540  21.701   0.922   3.213
74127W        W46541  22.504   0.911   0.317
74128W        W46542   4.396  25.513  10.071
74129W        W46543  28.998  23.553  12.849
74130W        W46544  26.147  25.568   3.721
74131W        W46545  32.536  20.058   1.889
74132W        W46546  16.196  12.136  14.429
74133W        W46547  20.093  40.969   3.179
74134W        W46548  34.555  20.038   0.297
74135W        W46549  26.166  33.586  11.071
74136W        W46550   7.746  11.850   1.716
74137W        W46551  33.059   3.280   1.797
74138W        W46552  44.927  30.624  14.887
74139W        W46553   2.854   8.220  11.006
74140W        W46554   4.409  37.459   1.243
74141W        W46555  18.134  12.712  13.334
74142W        W46556  13.144  25.478  12.537
74143W        W46557  18.294   7.774  11.938
74144W        W46558   7.681  15.743  13.924
74145W        W46559  44.268  30.064  10.468
74146W        W46560   9.330  31.954  13.447
74147W        W46561  20.161  12.853  13.380
74148W        W46562  44.346  43.408  10.571
74149W        W46563  32.459  25.137   1.719
74150W        W46564  26.196  35.902   1.914
74151W        W46565  34.583   0.890  10.513
74152W        W46566  28.134  32.443  13.443
74153W        W46567   0.902   6.676   4.607
74154W        W46568  43.349   4.772   5.171
74155W        W46569  38.485   9.743   1.843
74156W        W46570  32.512  39.456  12.960
74157W        W46571  36.554  29.151  10.524
74158W        W46572  26.139  31.105   1.875
74159W        W46573  32.027  41.983   2.376
74160W        W46574   8.188  14.236   3.348
74161W        W46575  12.853  11.832  12.083
74162W        W46576  31.424  40.358  11.098
74163W        W46577  20.075   5.330  14.928
74164W        W46578  17.786  15.109   4.326
74165W        W46579  14.125   0.414  12.488
74166W        W46580  16.806   4.371  13.382
74167W        W46581  18.764  20.049  14.409
74168W        W46582  16.128   2.930  13.952
74169W        W46583  44.767  17.629   4.193
74170W        W46584  42.868   6.766   2.776
74171W        W46585   7.811  25.202  13.424
74172W        W46586  11.229  13.680   1.849
74173W        W46587  27.639  15.243  11.984
74174W        W46588  42.507  44.371   0.933
74175W        W46589  26.602  17.199   2.361
74176W        W46590   3.820  21.547   3.292
74177W        W46591  34.031   4.295  10.442
74178W        W46592  17.192  30.437  11.894
74179W        W46593  37.341  29.149  10.479
74180W        W46594   6.678  18.129   1.285
74181W        W46595  34.388  22.032  10.616
74182W        W46596  23.572  28.994  10.933
74183W        W46597   3.839  31.590   0.857
74184W        W46598  30.656   5.775   4.323
74185W        W46599   9.698  12.682   3.735
74186W        W46600  11.244  29.642   0.451
74187W        W46601  23.020  15.260   4.253
74188W        W46602  34.950   5.199  11.992
74189W        W46603  16.570  43.461  12.839
74190W        W46604   1.308  12.247  14.781
74191W        W46605   6.414  13.650   4.316
74192W        W46606  23.166  12.620   3.822
74193W        W46607  19.249  31.601   1.235
74194W        W46608  10.633  37.060  10.480
74195W        W46609  41.910  22.180  12.506
74196W        W46610  35.376  28.536   1.804
74197W        W46611   8.368  17.721  10.572
74198W        W46612  22.548  20.074  13.902
74199W        W46613  29.953  31.977  12.396
74200W        W46614   0.259  31.110  12.548
74201W        W46615  19.605  16.732  12.052
74202W        W46616  37.533   3.264   4.835
74203W        W46617  43.270  39.429  14.804
74204W        W46618  20.760  19.573   0.374
74205W        W46619   3.772  40.492   4.712
74206W        W46620  30.975  26.691   1.719
74207W        W46621   1.313  41.878   3.640
74208W        W46622   6.758   8.785  14.813
74209W        W46623   2.825  35.995   3.293
74210W        W46624  17.242  18.674   1.889
74211W        W46625   3.343  24.641  13.516
74212W        W46626   2.375  24.159  12.898
74213W        W46627  23.054  28.501  12.466
74214W        W46628  23.712  36.554   0.918
74215W        W46629  43.842  11.327   3.858
74216W        W46630  24.973  24.151  11.105
74217W        W46631   2.254  16.259  13.931
74218W        W46632  39.353  22.023  13.055
74219W        W46633  31.994  28.135   4.218
74220W        W46634  10.350  39.471  10.140
74221W        W46635  19.707  31.956  13.469
74222W        W46636   3.853  35.865  13.863
74223W        W46637  43.319  37.088  13.403
74224W        W46638  32.062  16.197  13.546
74225W        W46639  28.507  20.074   1.283
74226W        W46640   5.364  11.669   0.819
74227W        W46641   7.714  21.128  13.800
74228W        W46642   6.255  44.422   2.746
74229W        W46643  33.104  24.627   1.736
74230W        W46644  41.003   6.722   4.185
74231W        W46645  38.446   5.741  14.903
74232W        W46646  38.848   1.899  11.376
74233W        W46647  31.921  33.098   4.790
74234W        W46648   3.413  35.039   2.233
74235W        W46649  17.090  11.658   1.696
74236W        W46650   4.261  15.808   4.644
74237W        W46651  30.478   8.828   3.248
74238W        W46652  20.139  38.387  10.638
74239W        W46653  11.734  37.367  10.623
74240W        W46654   5.269   9.748  11.085
74241W        W46655  19.581  25.074   1.299
74242W        W46656  42.472  22.561   4.817
74243W        W46657  12.851  42.980   3.740
74244W        W46658  18.249   4.733  12.922
74245W        W46659  32.124  36.997   2.226
74246W        W46660   9.203  33.902  14.788
74247W        W46661  33.951  23.625  14.338
74248W        W46662   2.262  41.345  11.086
74249W        W46663  43.464  42.381   4.797
74250W        W46664  26.693   8.701   0.393
74251W        W46665   7.833  44.828  13.925
74252W        W46666  26.010  25.636   4.209
74253W        W46667  40.483  16.579   2.889
74254W        W46668   7.829  20.196   3.731
74255W        W46669   1.935   2.741   4.732
74256W        W46670  31.081  25.049   1.717
74257W        W46671   6.690  17.734   4.779
74258W        W46672  19.196  10.224  14.435
74259W        W46673  29.152   4.348   0.349
74260W        W46674  27.455   3.243   2.385
74261W        W46675  31.001  20.672  12.578
74262W        W46676  21.718  39.329   3.661
74263W        W46677  41.481  31.511   4.614
74264W        W46678  32.531  11.806  13.917
74265W        W46679   7.302  39.433   4.301
74266W        W46680  29.441  34.372   2.376
74267W        W46681  35.481  27.167  11.116
74268W        W46682  22.145  28.461   3.281
74269W        W46683   4.889  13.710  14.942
74270W        W46684   7.410  29.441  14.914
74271W        W46685  11.360  34.037   0.950
74272W        W46686  33.429   8.732   4.286
74273W        W46687  42.942  14.255   4.150
74274W        W46688  35.092  12.292   1.250
74275W        W46689   8.764  42.872  11.976
74276W        W46690  42.994  34.537  13.343
74277W        W46691  38.354  12.169   0.456
74278W        W46692  17.778  39.862  12.878
74279W        W46693  21.091  42.332  13.942
74280W        W46694  21.737  21.175  13.849
74281W        W46695  12.195  35.922  13.480
74282W        W46696  41.413  28.134   0.294
74283W        W46697  24.555   1.248  10.487
74284W        W46698  35.021   4.248   1.750
74285W        W46699  34.865   8.883  13.496
74286W        W46700  16.617  37.375   1.765
74287W        W46701   0.986  26.586   1.800
74288W        W46702  11.844  35.052   1.751
74289W        W46703   7.676  13.260  10.584
74290W        W46704  33.940  20.524   1.883
74291W        W46705   2.791  41.937  13.487
74292W        W46706  24.647  37.412   0.435
74293W        W46707   2.860  10.256  10.483
74294W        W46708  28.139  20.204   3.167
74295W        W46709  42.813  32.965  13.402
74296W        W46710   1.474  13.115   1.448
74297W        W46711   2.326  32.438  11.929
74298W        W46712  19.139  30.078  12.836
74299W        W46713  16.246   6.680  10.039
74300W        W46714   1.882  36.894  10.573
74301W        W46715  30.114  37.882   0.468
74302W        W46716  42.826  12.269  14.484
74303W        W46717   5.856  35.867  10.926
74304W        W46718  21.213  10.191   0.385
74305W        W46719  13.650  12.673   0.280
74306W        W46720  30.138  21.677  10.944
74307W        W46721  36.380  44.767   2.322
74308W        W46722  41.468   7.728  13.366
74309W        W46723  12.694  32.888   4.325
74310W        W46724  26.520   0.392   5.122
74311W        W46725  18.243  39.970  10.922
74312W        W46726  13.124  31.115  13.951
74313W        W46727  25.708  43.374  13.882
74314W        W46728  38.460   6.256  14.792
74315W        W46729  44.757   1.906  13.930
74316W        W46730   1.425  21.748  12.364
74317W        W46731  25.566   7.904   3.195
74318W        W46732  13.693  23.681  11.499
74319W        W46733   1.751  22.744  14.951
74320W        W46734  30.437  23.060  10.936
74321W        W46735  22.629  34.020   3.662
74322W        W46736  18.103  41.295   1.770
74323W        W46737  20.546  21.137  14.307
74324W        W46738  14.223  35.920   1.385
74325W        W46739  13.756  25.509  12.355
74326W        W46740  40.920   9.808  13.320
74327W        W46741  41.478  18.099   2.395
74328W        W46742   5.252  22.141   1.281
74329W        W46743  10.706  34.545  12.394
74330W        W46744  30.049  44.425   0.797
74331W        W46745  43.922  27.580   0.288
74332W        W46746   4.426  28.675   0.742
74333W        W46747   1.392  14.094  12.929
74334W        W46748  44.875   5.840   4.349
74335W        W46749  37.548  31.952   2.379
74336W        W46750  17.597  43.416  10.119
74337W        W46751   9.366   3.399  12.844
74338W        W46752  29.975  25.085  13.462
74339W        W46753  37.470  21.733   1.255
74340W        W46754  34.028  16.766   3.163
74341W        W46755  19.284   9.387   0.890
74342W        W46756  18.562   4.801   0.432
74343W        W46757  12.627  18.240   3.656
74344W        W46758   7.331   0.947  11.514
74345W        W46759  40.351  35.434   3.646
74346W        W46760  22.032  44.323  12.088
74347W        W46761  21.638  35.557  13.855
74348W        W46762  16.727  15.817  10.993
74349W        W46763  42.939   2.334  10.949
74350W        W46764  33.435   0.889   4.664
74351W        W46765  15.714  25.547  14.495
74352W        W46766  21.214  21.226   3.192
74353W        W46767  40.952   5.393   4.124
74354W        W46768  40.413  15.696  11.943
74355W        W46769  30.155  10.724   0.934
74356W        W46770   0.796  40.014  13.548
74357W        W46771  43.404   8.318  12.008
74358W        W46772  27.552  29.641   0.327
74359W        W46773  21.676   4.823  13.411
74360W        W46774  14.208   0.913   4.131
74361W        W46775  35.927  22.584  14.442
74362W        W46776  14.623  30.531   0.447
74363W        W46777  10.338  14.282   0.842
74364W        W46778  12.291  26.189   0.385
74365W        W46779   2.840  40.977  13.525
74366W        W46780  12.851   5.780   2.354
74367W        W46781   1.968  43.007  11.465
74368W        W46782   4.931  40.819  12.500
74369W        W46783  15.261  19.067  12.984
74370W        W46784  15.647  28.531  14.289
74371W        W46785  18.563  10.753  14.476
74372W        W46786   7.338  43.923   2.780
74373W        W46787   1.318   8.772   1.898
74374W        W46788  36.877  39.825   3.861
74375W        W46789  34.898  15.281   3.869
74376W        W46790   9.684  25.483  11.944
74377W        W46791  24.509  16.303  11.586
74378W        W46792  23.136  37.366  10.892
74379W        W46793  25.501  20.038   1.276
74380W        W46794  28.605  21.155  10.967
74381W        W46795  27.148  18.090   0.839
74382W        W46796  29.630  38.503  12.348
74383W        W46797  29.551  29.964  10.586
74384W        W46798   9.248  44.898  10.625
74385W        W46799   2.869  20.108   3.768
74386W        W46800  23.587  43.851  14.781
74387W        W46801  31.617  24.039   0.413
74388W        W46802  23.031  34.880   2.310
74389W        W46803  20.639  22.217  13.811
74390W        W46804  12.645  10.846  14.779
74391W        W46805  38.993  11.807   1.313
74392W        W46806  35.486  39.935  11.532
74393W        W46807  31.632  17.240   3.815
74394W        W46808  44.871  29.970  13.385
74395W        W46809  20.623  43.416   2.260
74396W        W46810  17.560  23.548   3.716
74397W        W46811  39.994  41.432   3.691
74398W        W46812  20.107  33.026  10.450
74399W        W46813  10.150  35.014  12.083
74400W        W46814  11.827  16.618  12.947
74401W        W46815  37.861  30.443  13.338
74402W        W46816  39.033  31.011   4.814
74403W        W46817  37.949  31.413   0.781
74404W        W46818  13.824  16.143  14.796
74405W        W46819  36.350  33.587  14.781
74406W        W46820  13.781  24.709  14.357
74407W        W46821   2.883  31.428  12.022
74408W        W46822   5.391  33.124  13.310
74409W        W46823   0.269  21.249   9.988
74410W        W46824  31.921   6.386  13.545
74411W        W46825  38.875   4.804  13.988
74412W        W46826  31.524   7.736   1.252
74413W        W46827   9.274  41.400   0.367
74414W        W46828  37.433  33.082  14.032
74415W        W46829  33.539  42.838  13.962
74416W        W46830   8.759  27.506  11.881
74417W        W46831  10.374  22.631  14.342
74418W        W46832  17.666  37.358  12.557
74419W        W46833  12.209  22.563  14.361
74420W        W46834  27.020   3.806  14.887
74421W        W46835  17.663  30.057  12.366
74422W        W46836  38.007  36.499   3.644
74423W        W46837  19.134  27.528   4.152
74424W        W46838   3.448   8.870   4.283
74425W        W46839  18.550  12.610  11.026
74426W        W46840   7.192   8.174  11.121
74427W        W46841  14.606  23.730   4.830
74428W        W46842   6.714  16.711  14.470
74429W        W46843   3.287  42.787   4.247
74430W        W46844  29.131  24.036  11.509
74431W        W46845  42.820   0.797  10.627
74432W        W46846   5.222  32.435   4.165
74433W        W46847  26.035  35.887   4.837
74434W        W46848  15.286   3.727   2.717
74435W        W46849   4.276  24.976  11.435
74436W        W46850   1.881  12.157  13.546
74437W        W46851  15.791  20.721  13.382
74438W        W46852  39.490  12.206  11.609
74439W        W46853   2.748  17.613  12.412
74440W        W46854  32.539  35.590   4.311
74441W        W46855  11.260   0.281  10.406
74442W        W46856   9.654  23.679  12.920
74443W        W46857   9.745  13.756   0.740
74444W        W46858  19.205  11.172  11.020
74445W        W46859  12.184  20.142   1.380
74446W        W46860   7.235  37.868   4.266
74447W        W46861  20.648   1.847  14.492
74448W        W46862   6.693  22.217  14.924
74449W        W46863  39.466  34.564   2.872
74450W        W46864  11.862   6.707   4.811
74451W        W46865  31.963   5.365   2.335
74452W        W46866   6.688  19.663   3.360
74453W        W46867  36.391  42.410  12.543
74454W        W46868  23.664  11.648   3.332
74455W        W46869  34.068  15.220   1.381
74456W        W46870  12.301  10.365  11.465
74457W        W46871  20.271  40.354   1.218
74458W        W46872  31.572   3.731   1.920
74459W        W46873  13.109  20.546   4.254
74460W        W46874   9.864  40.369   2.339
74461W        W46875  33.393  40.052   2.228
74462W        W46876  27.654  43.402  12.853
74463W        W46877   2.920  37.433  14.402
74464W        W46878  43.309  23.075   1.439
74465W        W46879  31.442  43.497   3.372
74466W        W46880  40.542  11.760  13.323
74467W        W46881  43.505  28.645   2.839
74468W        W46882  25.039   9.300   3.255
74469W        W46883  42.968   1.963  11.094
74470W        W46884  41.437  11.660   0.352
74471W        W46885   0.314  37.466   9.944
74472W        W46886  23.132  32.942   0.961
74473W        W46887  12.768  41.398   3.242
74474W        W46888  16.567  37.875  14.508
74475W        W46889   6.234  43.431  12.055
74476W        W46890  33.624  29.950  11.379
74477W        W46891  10.270  20.694   3.222
74478W        W46892  14.256  15.271   2.691
74479W        W46893  36.422  27.589  12.429
74480W        W46894  24.228  28.119  14.487
74481W        W46895   1.963  30.993  13.957
74482W        W46896  42.929  25.965   2.394
74483W        W46897  20.663  31.045   0.448
74484W        W46898  32.556  18.254   3.644
74485W        W46899  28.126  17.789   2.379
74486W        W46900  18.296  10.260   2.202
74487W        W46901  19.073  35.092   4.260
74488W        W46902  29.089  29.570  14.007
74489W        W46903  23.241   6.260   3.351
74490W        W46904  37.847   5.264   0.320
74491W        W46905   6.414  31.153  13.907
74492W        W46906   8.183  30.606  14.889
74493W        W46907  34.970  12.214  12.556
74494W        W46908  30.632  18.168   0.371
74495W        W46909   2.442  29.438   1.386
74496W        W46910  35.436   7.894   0.948
74497W        W46911  20.089   6.797  12.870
74498W        W46912  28.511  38.996   3.866
74499W        W46913  15.183  22.657   2.902
74500W        W46914  14.171  35.554   4.738
74501W        W46915  32.536  16.676   1.281
74502W        W46916  31.409  25.164   3.163
74503W        W46917  25.588  15.256  11.447
74504W        W46918   6.193  19.127   3.631
74505W        W46919  17.241  37.395  12.398
74506W        W46920   7.329  26.090   3.239
74507W        W46921  20.144  20.611   4.208
74508W        W46922  42.385   9.701  12.461
74509W        W46923  28.601  20.156  11.545
74510W        W46924  13.147   5.902  12.002
74511W        W46925  22.717   9.368  11.964
74512W        W46926  42.397  12.347   4.647
74513W        W46927   3.892   7.884  11.966
74514W        W46928   6.414  13.173   4.700
74515W        W46929  39.544  13.790  11.546
74516W        W46930  32.965  11.819   1.244
74517W        W46931  13.729  39.921   0.835
74518W        W46932  17.100   6.362   1.295
74519W        W46933  36.998  36.024  11.469
74520W        W46934  21.083   0.771   5.158
74521W        W46935   5.776  36.573   3.351
74522W        W46936   4.766  23.607   3.824
74523W        W46937   7.334  33.046   1.261
74524W        W46938  24.146  21.674   2.860
74525W        W46939   1.385  26.951   3.188
74526W        W46940  44.436  25.185   0.780
74527W        W46941  16.748   3.252   1.863
74528W        W46942  35.072  16.671  13.447
74529W        W46943   5.775  16.803  14.960
74530W        W46944  25.634  32.051  12.857
74531W        W46945   2.403  38.366  11.472
74532W        W46946  42.380   5.722   2.363
74533W        W46947  37.368  28.535   1.875
74534W        W46948  33.603  11.765  13.315
74535W        W46949  15.751  31.134  11.404
74536W        W46950   0.392  16.172  12.564
74537W        W46951  31.515  19.565  12.511
74538W        W46952  17.748  38.023   2.299
74539W        W46953  16.594  13.134  10.889
74540W        W46954  20.090  19.663  14.881
74541W        W46955  42.983   2.792   4.616
74542W        W46956   4.277   4.290  13.353
74543W        W46957  33.484  35.566  11.520
74544W        W46958  25.627   0.471   1.237
74545W        W46959   6.686   3.282  11.005
74546W        W46960  19.691  23.595   1.247
74547W        W46961  38.548  39.032  14.904
74548W        W46962  29.173  22.154  12.439
74549W        W46963  34.468   7.188  14.314
74550W        W46964  43.439   1.482   0.759
74551W        W46965  16.697  29.147  14.844
74552W        W46966  35.531  16.641   3.195
74553W        W46967  38.358  27.143   4.599
74554W        W46968  44.809  21.125  12.913
74555W        W46969  32.051  44.789   3.772
74556W        W46970  28.130  26.666   2.392
74557W        W46971  31.153  44.388  12.083
74558W        W46972  39.935  14.730   4.270
74559W        W46973  21.173  32.123   0.430
74560W        W46974  30.552  43.397   1.777
74561W        W46975  12.705  34.500  13.812
74562W        W46976  29.653  21.161  12.424
74563W        W46977   8.799   7.909  11.949
74564W        W46978  36.506  10.180  14.871
74565W        W46979  18.130  12.346   4.736
74566W        W46980  41.415  11.166  10.957
74567W        W46981  25.661  16.763   0.800
74568W        W46982  33.122  26.573  13.404
74569W        W46983  12.226   9.776  11.097
74570W        W46984  11.763  15.086  11.413
74571W        W46985  36.355  11.687  14.887
74572W        W46986  44.350   6.364   0.365
74573W        W46987  28.625  23.674  13.867
74574W        W46988   9.290  36.374  13.513
74575W        W46989  12.742  33.899  12.573
74576W        W46990  41.813  30.558  14.810
74577W        W46991   1.844   5.814   0.309
74578W        W46992  19.176  14.813   4.828
74579W        W46993   0.420  15.271   0.859
74580W        W46994  16.126   9.325  12.066
74581W        W46995   7.674  37.375   2.829
74582W        W46996  21.184  22.559   1.694
74583W        W46997  29.635  11.712  14.350
74584W        W46998   9.171  21.117   1.258
74585W        W46999  31.060   2.320   2.719
74586W        W47000  23.703  15.165   4.226
74587W        W47001  13.649  23.153   3.174
74588W        W47002  43.976   9.158   1.832
74589W        W47003  36.451   6.324   1.834
74590W        W47004  36.381   9.264  14.894
74591W        W47005  10.213   7.241   3.362
74592W        W47006  29.562  40.974   2.333
74593W        W47007  43.292  40.900   2.411
74594W        W47008  42.483  10.849  11.924
74595W        W47009  42.481  22.125  13.487
74596W        W47010   3.837  31.465   3.219
74597W        W47011   8.726  21.198   0.764
74598W        W47012  26.618  16.746   1.874
74599W        W47013  28.070  42.865  10.467
74600W        W47014  20.638  10.742   2.327
74601W        W47015  29.067  43.413  13.013
74602W        W47016  11.183  30.589   1.229
74603W        W47017  28.958  15.607   4.288
74604W        W47018   1.913  26.100   3.361
74605W        W47019  26.960   7.831   4.617
74606W        W47020  18.182  24.182  10.413
74607W        W47021   3.273  31.912  11.564
74608W        W47022   0.841  17.105  10.982
74609W        W47023  18.068  30.474  13.439
74610W        W47024  14.244  43.796  12.476
74611W        W47025   5.788   7.363   4.246
74612W        W47026   2.742  33.517  11.031
74613W        W47027   1.334  17.134  13.420
74614W        W47028  17.597  22.556  12.033
74615W        W47029  43.406   8.370  14.009
74616W        W47030  38.494  18.724   2.349
74617W        W47031   3.426  43.384  13.311
74618W        W47032  35.889  17.755  10.625
74619W        W47033   3.839  37.475   4.774
74620W        W47034   7.280   7.758  10.887
74621W        W47035  25.053   2.383   3.336
74622W        W47036  25.545  23.641   1.907
74623W        W47037  43.978  38.061  10.418
74624W        W47038  32.485   3.271   1.777
74625W        W47039  43.940   2.470  11.908
74626W        W47040  17.603   4.820  10.893
74627W        W47041   8.241  21.608  12.984
74628W        W47042   3.869  14.299  13.494
74629W        W47043  13.285  35.092   2.227
74630W        W47044  20.125  27.631  14.819
74631W        W47045   4.305   9.358  13.503
74632W        W47046   7.346  21.691   0.855
74633W        W47047  12.137  44.359  10.124
74634W        W47048  26.653  38.404   2.743
74635W        W47049   6.331  30.431   4.797
74636W        W47050  42.430   8.187   1.446
74637W        W47051   0.798  14.177   2.695
74638W        W47052  20.599   3.727   2.732
74639W        W47053  31.969   6.293   2.742
74640W        W47054  29.617  33.606   4.272
74641W        W47055   8.336   0.364   4.230
74642W        W47056  14.340  30.603   4.752
74643W        W47057  36.064  38.888   4.803
74644W        W47058  12.854  17.175  12.348
74645W        W47059  38.380  11.775  14.890
74646W        W47060  13.730   0.983   0.390
74647W        W47061   8.217  30.618  11.946
74648W        W47062  13.225  18.600  14.018
74649W        W47063  43.994  11.734   2.874
74650W        W47064  24.055  40.304   1.241
74651W        W47065  13.240   8.724  11.376
74652W        W47066  27.189  29.053   0.336
74653W        W47067  42.358  12.700  12.939
74654W        W47068  32.613  43.463   3.751
74655W        W47069  42.436  22.131   4.790
74656W        W47070  36.565  22.178   1.236
74657W        W47071  31.950  18.572   3.202
74658W        W47072  37.011  28.481   1.758
74659W        W47073  10.842  36.985   2.719
74660W        W47074   8.843  43.854   4.713
74661W        W47075  32.109  10.663   3.266
74662W        W47076  28.995   8.231  11.906
74663W        W47077  39.482  25.199   1.410
74664W        W47078  32.944  21.529  10.896
74665W        W47079   8.356  41.458   3.301
74666W        W47080  38.896  14.624  14.877
74667W        W47081   5.329  29.466   0.840
74668W        W47082  37.078   0.470  13.817
74669W        W47083  33.987  10.657   0.926
74670W        W47084   9.365   0.293  10.600
74671W        W47085  40.945  19.698   0.399
74672W        W47086   2.837  24.547   3.668
74673W        W47087  24.639  17.664   0.785
74674W        W47088  31.566   5.310  12.847
74675W        W47089  31.605  43.995   3.203
74676W        W47090  32.572  39.443  12.427
74677W        W47091  37.032   0.355   3.747
74678W        W47092  40.925  29.543   4.713
74679W        W47093  28.486  11.264  11.449
74680W        W47094  34.403  16.747  14.882
74681W        W47095   3.306  10.349   4.730
74682W        W47096  33.903  33.594   3.661
74683W        W47097   8.660  32.894   3.769
74684W        W47098  36.495   2.297  12.534
74685W        W47099  12.700  37.871   3.261
74686W        W47100  25.066  44.985  10.989
74687W        W47101  38.472  13.792  14.826
74688W        W47102  26.552  39.968   4.782
74689W        W47103  40.408  17.743  13.424
74690W        W47104  11.807  35.030  14.438
74691W        W47105  14.603  38.383  13.492
74692W        W47106  33.417  28.156   1.261
74693W        W47107   0.853  24.015  10.627
74694W        W47108  14.609  38.862  14.766
74695W        W47109  30.939  36.361  13.965
74696W        W47110  11.851  35.991   3.380
74697W        W47111  30.505  39.374  12.091
74698W        W47112  14.313  13.255  12.834
74699W        W47113  38.016  12.621   0.958
74700W        W47114   8.740   4.766   2.272
74701W        W47115  23.204  12.631  11.940
74702W        W47116  11.324   2.236  13.466
74703W        W47117  24.500  43.833  12.900
74704W        W47118   4.852  22.245   2.389
74705W        W47119  20.103  15.750  12.545
74706W        W47120  16.253  12.267  11.011
74707W        W47121  24.609  29.104   3.189
74708W        W47122   5.295  17.756  12.405
74709W        W47123   2.345  15.306  14.386
74710W        W47124  28.606  39.529  13.905
74711W        W47125  29.581  29.120  14.944
74712W        W47126  41.037   4.260  14.002
74713W        W47127   6.351  27.171   2.894
74714W        W47128  34.036   4.766   3.762
74715W        W47129  17.740   3.311  11.471
74716W        W47130  14.665  35.429   0.780
74717W        W47131   8.774  27.656   2.260
74718W        W47132  16.771  40.471  14.766
74719W        W47133   5.358  10.725   3.688
74720W        W47134  14.159  38.048   5.234
74721W        W47135  13.608  32.906   0.445
74722W        W47136  12.145  42.800   1.236
74723W        W47137  22.107   4.777  10.471
74724W        W47138  41.524  37.979   4.340
74725W        W47139  20.667  40.823  13.822
74726W        W47140  39.329   0.834   0.360
74727W        W47141  26.173  21.110   2.688
74728W        W47142   7.227  12.231   2.884
74729W        W47143  20.149  32.447  13.041
74730W        W47144  31.484  35.561  11.083
74731W        W47145  17.706  44.803  11.882
74732W        W47146  10.151   1.323  12.468
74733W        W47147  17.738  35.987   3.194
74734W        W47148  40.400   1.776   0.804
74735W        W47149  16.254  12.229  13.801
74736W        W47150  27.121  32.424   0.792
74737W        W47151   9.674  13.757   0.420
74738W        W47152  21.210   7.251   1.431
74739W        W47153  39.853  28.442  13.496
74740W        W47154   9.683  36.013  10.488
74741W        W47155  17.242   1.830   2.705
74742W        W47156   5.864  44.837   3.647
74743W        W47157  33.024  21.019  13.811
74744W        W47158   7.189  30.027  13.341
74745W        W47159  22.074  21.523  13.530
74746W        W47160  12.201  23.600   0.792
74747W        W47161  16.579  42.825   1.297
74748W        W47162  36.583   2.445  13.339
74749W        W47163  17.193  26.200  13.872
74750W        W47164  13.352  33.085   2.844
74751W        W47165   8.694  18.788   2.883
74752W        W47166  25.012   5.751  13.867
74753W        W47167  30.133  14.591   0.297
74754W        W47168  24.558   1.795  14.981
74755W        W47169  14.715  15.231   3.725
74756W        W47170  43.492   1.339   4.777
74757W        W47171  42.966  22.179   0.307
74758W        W47172  12.264  25.158  11.959
74759W        W47173  32.037   7.323  11.863
74760W        W47174  13.700  11.732  11.989
74761W        W47175  33.474   7.187   0.791
74762W        W47176  16.296  22.675  12.028
74763W        W47177  11.752  28.544   1.792
74764W        W47178  32.012  30.051   2.812
74765W        W47179  20.731  41.949   4.209
74766W        W47180   6.373  13.141  13.511
74767W        W47181  10.633  29.008  14.331
74768W        W47182  20.123  20.589  14.838
74769W        W47183   5.878   6.873   3.860
74770W        W47184  25.184  19.286  10.586
74771W        W47185  42.833  35.089  11.509
74772W        W47186  26.174  40.445  10.975
74773W        W47187  35.367   3.757  13.815
74774W        W47188  11.828   9.356  12.025
74775W        W47189  34.120   2.457  11.395
74776W        W47190  11.223  18.212  12.946
74777W        W47191  40.896  35.101   4.231
74778W        W47192  40.535  19.608  11.547
74779W        W47193  33.041  20.644   4.330
74780W        W47194   3.401   8.760  14.999
74781W        W47195   8.668  38.048  14.969
74782W        W47196  29.134   8.315   2.395
74783W        W47197   2.887  13.626   5.755
74784W        W47198  34.588  12.160   0.334
74785W        W47199  32.587  39.942   3.754
74786W        W47200  43.773  27.086   1.763
74787W        W47201  31.115  24.213   1.442
74788W        W47202  35.429  37.439   4.294
74789W        W47203  26.620  30.429   0.435
74790W        W47204   0.813  41.434  12.001
74791W        W47205  31.465  23.054   2.734
74792W        W47206  35.090  22.650  11.961
74793W        W47207  30.586  30.972   2.833
74794W        W47208   4.208   6.869   1.913
74795W        W47209  13.616  12.652  13.481
74796W        W47210  41.294   6.796   0.757
74797W        W47211  12.801  19.209  11.605
74798W        W47212  13.225  34.958   0.773
74799W        W47213  25.084  29.136  13.961
74800W        W47214   8.333  35.531   0.898
74801W        W47215   9.878  37.424  10.622
74802W        W47216  13.634  41.788   2.757
74803W        W47217  25.055  20.585   1.351
74804W        W47218   1.735   0.377   3.871
74805W        W47219  34.470  19.116  10.889
74806W        W47220   7.380  18.135   1.733
74807W        W47221  28.592  41.343  13.037
74808W        W47222  14.110  35.065  11.118
74809W        W47223   6.835  18.620  14.816
74810W        W47224   1.243  34.556  13.872
74811W        W47225  26.497   8.682   2.295
74812W        W47226  23.211  28.139   4.342
74813W        W47227  32.134  21.072   1.866
74814W        W47228  44.422  28.106   0.956
74815W        W47229  22.013  31.083   1.730
74816W        W47230  43.970   4.843  11.601
74817W        W47231  36.582  38.867  12.947
74818W        W47232  40.306  35.599  12.537
74819W        W47233  13.824  44.906  12.920
74820W        W47234  23.239  25.041  13.980
74821W        W47235   8.806  28.134  11.403
74822W        W47236  43.918  11.170  14.814
74823W        W47237  28.967  33.614   3.316
74824W        W47238   2.720  22.065  12.573
74825W        W47239  18.179   8.311   2.412
74826W        W47240  33.898  35.097  12.461
74827W        W47241  35.060  12.760   5.228
74828W        W47242  10.735   7.697  11.098
74829W        W47243  23.595  11.783  11.493
74830W        W47244  33.535   3.400  13.953
74831W        W47245  32.545  35.930   2.261
74832W        W47246  14.679  43.309  10.494
74833W        W47247  11.196  30.988   3.337
74834W        W47248   3.926  41.904   5.269
74835W        W47249  30.516  43.398  14.884
74836W        W47250  18.060  41.325  13.943
74837W        W47251   0.492  19.685  12.569
74838W        W47252  20.554  25.170   3.308
74839W        W47253  37.974   3.954   3.157
74840W        W47254   1.960  27.121  11.907
74841W        W47255  26.078  25.191  12.452
74842W        W47256   9.759  19.128   0.327
74843W        W47257  38.822   2.722   2.205
74844W        W47258  35.970  13.204   4.283
74845W        W47259  17.198  23.530  11.103
74846W        W47260   0.800  38.475  11.514
74847W        W47261   2.957  43.880  11.982
74848W        W47262  11.256  28.664  11.941
74849W        W47263   0.349  11.715  14.999
74850W        W47264  27.452   7.806  14.388
74851W        W47265   2.452  30.505  11.404
74852W        W47266   5.338  25.139  14.500
74853W        W47267  21.251  41.794   2.877
74854W        W47268   9.187  22.571  10.130
74855W        W47269  11.302  42.981   0.462
74856W        W47270  26.474  40.956   1.912
74857W        W47271  22.174  21.190  13.809
74858W        W47272  31.497  20.572   3.830
74859W        W47273   9.765   6.413   3.813
74860W        W47274  17.207  36.464   0.844
74861W        W47275   1.252  13.739   3.166
74862W        W47276  38.859  30.983  11.053
74863W        W47277   7.233  17.276  14.395
74864W        W47278  21.054  32.418   2.249
74865W        W47279  33.443  34.542  12.393
74866W        W47280   0.849  32.123  10.946
74867W        W47281  33.033  14.681   3.694
74868W        W47282  19.169   3.416  12.462
74869W        W47283  31.000  18.619  12.568
74870W        W47284  37.450  31.052  14.902
74871W        W47285   6.808  15.124   4.673
74872W        W47286  35.584  18.189   1.830
74873W        W47287  16.642  15.220  13.883
74874W        W47288  24.549   3.410   4.153
74875W        W47289  37.346   5.851  14.907
74876W        W47290  10.819   0.352   3.739
74877W        W47291  40.985   8.687   3.343
74878W        W47292  22.727  21.730  12.522
74879W        W47293  31.072  23.665  13.954
74880W        W47294  43.475  19.760   3.687
74881W        W47295  40.818  42.909  13.947
74882W        W47296  39.033   0.957  11.497
74883W        W47297  29.434   2.893  12.030
74884W        W47298  10.384  23.144   1.273
74885W        W47299  33.499  35.004  11.100
74886W        W47300  13.814   8.264  13.987
74887W        W47301  34.512   5.714  12.551
74888W        W47302  25.593   6.877  14.923
74889W        W47303  37.436  33.918   5.250
74890W        W47304  16.104  38.467   3.283
74891W        W47305  22.248  31.020   0.451
74892W        W47306  31.096   0.279   2.767
74893W        W47307  24.683  31.964   1.846
74894W        W47308  37.421  25.594  14.435
74895W        W47309  42.964  26.133   1.429
74896W        W47310  40.486  33.972   2.180
74897W        W47311   2.948  25.545  10.497
74898W        W47312  15.726   6.192  10.137
74899W        W47313   4.841  39.835   1.715
74900W        W47314   3.810  25.711   2.329
74901W        W47315  30.132  42.449   0.771
74902W        W47316  25.112  14.592   3.713
74903W        W47317  18.189  19.745  14.871
74904W        W47318   5.863  43.849  14.778
74905W        W47319  20.619  43.508  13.384
74906W        W47320  26.580   8.213   2.828
74907W        W47321  40.974  33.011  14.495
74908W        W47322  11.281   2.965  14.333
74909W        W47323  42.453  36.566   2.771
74910W        W47324  29.089   0.273  14.346
74911W        W47325   6.252  18.092   5.131
74912W        W47326   8.299  13.347   3.759
74913W        W47327   2.291  40.008   2.293
74914W        W47328  10.189  29.623   0.745
74915W        W47329  42.332   7.281  14.890
74916W        W47330  21.681  16.613   4.169
74917W        W47331   7.798  31.600  11.420
74918W        W47332  11.794  15.098   4.621
74919W        W47333   0.325  36.019  14.373
74920W        W47334  33.562   6.289  11.378
74921W        W47335  23.190  17.612   3.304
74922W        W47336  21.256  24.097   0.354
74923W        W47337  30.115  11.135   3.654
74924W        W47338  44.380  44.363  13.919
74925W        W47339  33.888  25.989  10.935
74926W        W47340  41.936  19.765   9.972
74927W        W47341  37.581   6.883  12.506
74928W        W47342  38.897  43.275   2.391
74929W        W47343  16.687  19.214   0.957
74930W        W47344  29.639  42.791  12.502
74931W        W47345  26.032  10.866  13.996
74932W        W47346   9.241  18.739  11.590
74933W        W47347   7.694  37.005   0.475
74934W        W47348  25.192   4.928   1.420
74935W        W47349  30.570  27.184  10.446
74936W        W47350  41.917  31.154  13.341
74937W        W47351  12.700   7.404   1.431
74938W        W47352  41.306   2.401  14.875
74939W        W47353  25.085   1.366  10.154
74940W        W47354  32.913  30.097  14.783
74941W        W47355  38.389  44.261   1.447
74942W        W47356  31.079  12.750   0.439
74943W        W47357  28.616  14.696  13.801
74944W        W47358  33.969   9.231  14.997
74945W        W47359  38.344   5.814   3.235
74946W        W47360  25.164  37.932  10.434
74947W        W47361  39.889  37.457   4.709
74948W        W47362   1.754  11.732  11.524
74949W        W47363   1.940  21.200  13.039
74950W        W47364  17.654  14.306  12.052
74951W        W47365   8.340   6.890  12.921
74952W        W47366  24.187  21.261  13.903
74953W        W47367  32.590  36.016   4.213
74954W        W47368  26.476  20.057   1.831
74955W        W47369  10.712  31.500   3.283
74956W        W47370  31.461  26.140  10.516
74957W        W47371  41.376   5.430   4.175
74958W        W47372  43.777  29.135   1.282
74959W        W47373  20.766  30.914   2.736
74960W        W47374  37.001  32.907  11.870
74961W        W47375  44.890   6.307  13.502
74962W        W47376   7.828  17.307  14.803
74963W        W47377  38.032  26.990   1.781
74964W        W47378   4.441  12.675  13.458
74965W        W47379   8.778  10.797  13.532
74966W        W47380  30.046  15.192  13.477
74967W        W47381  36.058  42.371   1.211
74968W        W47382  31.925   5.431  13.485
74969W        W47383  44.476   5.284   0.729
74970W        W47384  13.289  32.401   1.753
74971W        W47385  36.512  25.067   9.992
74972W        W47386  42.939   5.818  13.477
74973W        W47387  35.857  22.083  11.996
74974W        W47388  30.057   8.302  12.442
74975W        W47389  20.125   3.831  14.890
74976W        W47390  37.380  39.035   3.749
74977W        W47391  18.195  36.443   4.323
74978W        W47392  12.217   8.757   0.318
74979W        W47393  24.593  39.358   1.436
74980W        W47394  10.147  15.279   0.890
74981W        W47395   9.716   2.302  14.931
74982W        W47396  16.789  36.873   3.700
74983W        W47397  18.138   8.186  12.486
74984W        W47398  36.025  38.474  12.093
74985W        W47399  17.758  22.166   3.771
74986W        W47400   6.728  44.272  11.393
74987W        W47401  44.907  38.920  10.892
74988W        W47402   4.323  28.162  13.434
74989W        W47403  14.300   1.772  11.393
74990W        W47404  19.766   1.925  10.408
74991W        W47405  31.014  36.097  12.977
74992W        W47406  19.132   6.245   4.820
74993W        W47407  11.868  15.792   1.421
74994W        W47408   4.301  17.245   3.721
74995W        W47409  30.542   2.897   4.730
74996W        W47410  35.539   4.264  11.425
74997W        W47411  19.078  40.965  11.500
74998W        W47412   9.221  15.821   4.196
74999W        W47413  12.125  34.456  14.990
75000W        W47414   4.926  23.060  11.451
75001W        W47415  10.147  36.506   0.406
75002W        W47416  42.891  38.939  14.959
75003W        W47417  25.575   9.228  14.882
75004W        W47418   6.826  25.999   2.415
75005W        W47419  13.805  14.173  14.372
75006W        W47420  16.148  37.411  14.798
75007W        W47421  24.163   4.734   4.295
75008W        W47422   7.854  13.658   1.342
75009W        W47423  26.101   7.673   3.260
75010W        W47424  42.965  21.715   1.804
75011W        W47425  23.232  27.076  13.540
75012W        W47426  31.967  11.245  12.458
75013W        W47427  16.718  20.172   4.711
75014W        W47428  26.616  16.686  14.977
75015W        W47429  40.986   7.392  12.999
75016W        W47430  28.602   8.270  14.335
75017W        W47431  31.925  30.137  11.588
75018W        W47432   3.290  20.249  12.512
75019W        W47433  19.212   5.877   1.325
75020W        W47434  33.107  17.177  14.293
75021W        W47435  42.287  39.915   2.327
75022W        W47436  33.495  31.917   0.265
75023W        W47437   1.291   3.783  13.856
75024W        W47438  37.948  41.531   1.308
75025W        W47439  28.514   5.225   3.780
75026W        W47440  12.270  16.660  10.894
75027W        W47441  41.894  13.170   0.463
75028W        W47442  12.224  24.019   3.656
75029W        W47443  28.639  10.363   1.246
75030W        W47444  42.805  13.792   4.334
75031W        W47445  22.740   6.291  13.896
75032W        W47446  23.103  24.631   3.370
75033W        W47447  39.499  10.717   2.667
75034W        W47448  16.151   4.733   2.380
75035W        W47449  31.151  40.947   4.237
75036W        W47450  10.780  27.580  11.028
75037W        W47451  23.733   0.492   1.810
75038W        W47452  24.173  19.541   4.152
75039W        W47453   2.836  40.309   3.328
75040W        W47454  15.269   4.794  10.970
75041W        W47455  38.355   1.929  12.918
75042W        W47456   0.922  16.644  11.930
75043W        W47457  16.675  12.767  13.050
75044W        W47458  33.892  25.468  12.845
75045W        W47459  40.881  34.532   4.755
75046W        W47460  16.715  13.264  13.498
75047W        W47461  40.903  10.792  10.451
75048W        W47462  30.059   0.404   1.897
75049W        W47463  32.409  31.153  11.044
75050W        W47464  12.157  38.540  12.916
75051W        W47465  23.069  37.508  13.925
75052W        W47466  23.660  32.628  11.588
75053W        W47467  33.930  25.190  13.799
75054W        W47468  38.849  29.428  13.863
75055W        W47469   0.983  38.838   4.601
75056W        W47470  17.190  21.176  13.906
75057W        W47471  15.256  40.967   3.855
75058W        W47472  35.397  26.592   4.355
75059W        W47473  28.627  36.909   3.299
75060W        W47474  18.663   6.708   1.697
75061W        W47475  34.998  25.986   0.405
75062W        W47476  36.894  25.706  13.867
75063W        W47477  37.983  10.680  10.586
75064W        W47478  31.047   9.216   4.340
75065W        W47479  43.483  30.918  13.497
75066W        W47480  39.994  11.838  13.392
75067W        W47481  35.942  41.362   3.732
75068W        W47482   7.269  20.637  14.973
75069W        W47483   4.752  41.445   2.188
75070W        W47484  28.651  15.669   0.476
75071W        W47485  24.722  43.963  11.496
75072W        W47486   6.859  19.085   3.781
75073W        W47487  10.841  37.469   0.263
75074W        W47488   4.211  32.430  14.953
75075W        W47489  29.545  32.997  10.584
75076W        W47490  35.074  12.636  10.023
75077W        W47491  20.584  24.708  12.519
75078W        W47492   0.941  18.678  10.426
75079W        W47493  11.357   7.264   3.763
75080W        W47494  14.156  23.648   1.281
75081W        W47495  32.081  33.609   3.648
75082W        W47496  44.319  28.933   1.847
75083W        W47497  20.184  11.823  12.087
75084W        W47498  30.001  28.532   1.753
75085W        W47499  36.485   3.271   2.226
75086W        W47500   2.962  25.065   2.840
75087W        W47501  24.625  38.406   3.205
75088W        W47502  38.894  32.142  13.895
75089W        W47503  24.724  44.933   2.820
75090W        W47504  28.553  39.063   0.426
75091W        W47505  35.441  29.099   1.715
75092W        W47506   2.327   4.225  11.057
75093W        W47507  26.501  33.423   5.249
75094W        W47508  11.627  11.201   1.935
75095W        W47509  16.206  12.290  13.405
75096W        W47510  43.879  28.036   1.767
75097W        W47511   1.347  18.567   2.187
75098W        W47512   2.918  28.578   1.888
75099W        W47513  34.900  10.296  12.874
75100W        W47514  44.381  32.897  11.495
75101W        W47515  30.154  14.199  11.930
75102W        W47516  27.947   7.387   0.305
75103W        W47517  40.961  31.898  12.064
75104W        W47518  13.287  44.795   0.280
75105W        W47519  22.561  41.533  10.048
75106W        W47520  22.166  25.483   0.341
75107W        W47521  35.091  24.091   9.611
75108W        W47522  33.881  25.199  14.325
75109W        W47523   8.376  33.994   0.274
75110W        W47524  12.174  35.107   2.243
75111W        W47525  20.742   4.914  12.970
75112W        W47526   9.303  36.448   0.834
75113W        W47527  12.738  27.555  10.549
75114W        W47528   4.918  10.857   4.735
75115W        W47529  32.509  28.553   1.704
75116W        W47530   6.198   4.776  10.960
75117W        W47531   9.340  14.322   0.834
75118W        W47532   1.425  23.990  11.872
75119W        W47533  34.934   5.400   2.794
75120W        W47534  10.236  26.049  11.468
75121W        W47535  12.124  35.358  10.498
75122W        W47536  23.200  44.395  11.530
75123W        W47537  43.417   6.184  14.016
75124W        W47538  39.964  36.865   2.685
75125W        W47539  16.292   5.712   1.710
75126W        W47540  36.473  42.395   3.832
75127W        W47541  27.456  39.520  11.884
75128W        W47542  36.553   5.791   0.832
75129W        W47543  40.463  16.695  12.012
75130W        W47544  19.709  20.690  13.311
75131W        W47545  14.115   6.185   2.246
75132W        W47546   9.219  39.980  14.369
75133W        W47547  26.565  28.971  11.869
75134W        W47548  31.046   0.817   3.277
75135W        W47549   7.303  40.028  12.084
75136W        W47550   1.282  44.894  10.935
75137W        W47551  14.703  17.736  13.469
75138W        W47552   6.184  43.340   0.336
75139W        W47553  38.943  39.343  10.977
75140W        W47554  31.441  32.574   2.321
75141W        W47555  22.523  16.668  11.123
75142W        W47556   6.398   9.356   2.874
75143W        W47557  34.007  24.148  10.903
75144W        W47558  37.951   9.884   3.636
75145W        W47559  13.757  44.294   4.646
75146W        W47560  39.829  30.030  13.836
75147W        W47561  43.390   9.221  12.480
75148W        W47562   6.689  10.314   3.236
75149W        W47563  29.937   7.838  11.607
75150W        W47564   1.945  43.834   2.897
75151W        W47565  24.014  39.337   1.892
75152W        W47566  19.701   3.807   4.605
75153W        W47567   0.831   5.756   3.740
75154W        W47568  35.542   4.833  11.093
75155W        W47569   7.378  21.247  12.004
75156W        W47570  20.084  24.675   2.816
75157W        W47571  31.933  24.627  13.347
75158W        W47572   1.796  37.864  12.426
75159W        W47573  37.918   1.296  12.904
75160W        W47574  37.398  37.074  10.547
75161W        W47575   6.748  40.848  13.423
75162W        W47576  39.427  15.225  12.554
75163W        W47577  26.006  39.508   3.313
75164W        W47578  26.063  40.948  13.044
75165W        W47579   5.693  42.922  10.429
75166W        W47580   5.914  14.797   2.697
75167W        W47581  26.151   1.974  12.382
75168W        W47582  42.509   7.673   3.306
75169W        W47583  19.561  31.539  13.057
75170W        W47584   4.341  31.063   0.250
75171W        W47585  21.208   1.415  11.611
75172W        W47586   7.320   7.203   1.895
75173W        W47587  39.436  44.823  14.871
75174W        W47588   4.268   9.825  10.493
75175W        W47589  41.014  31.045  13.543
75176W        W47590  42.392  29.513   1.798
75177W        W47591  39.541  28.091   4.354
75178W        W47592  29.492  39.004  10.125
75179W        W47593  28.021  34.991  14.819
75180W        W47594  20.745  42.783   0.783
75181W        W47595   1.390  23.086  14.289
75182W        W47596  40.882  27.657  10.502
75183W        W47597  28.504   6.300   0.254
75184W        W47598  15.284  16.588  11.402
75185W        W47599  29.149  10.744  12.932
75186W        W47600  11.650  18.068  10.888
75187W        W47601  15.805  11.296  11.881
75188W        W47602   6.865   0.825  14.326
75189W        W47603   0.251  40.968   1.389
75190W        W47604   3.308  15.149   3.793
75191W        W47605  24.065  16.188  12.026
75192W        W47606   7.238   7.187  14.872
75193W        W47607  18.613   2.801   2.735
75194W        W47608   1.279   3.404   1.419
75195W        W47609  35.926   0.291  12.579
75196W        W47610  25.642  10.645  12.982
75197W        W47611  28.073  40.039  11.482
75198W        W47612   1.389   2.457  10.424
75199W        W47613  17.141  12.783   0.841
75200W        W47614  25.209  41.007  12.971
75201W        W47615   6.786  31.647  13.058
75202W        W47616  31.571  27.621   2.816
75203W        W47617   7.746  42.782   5.167
75204W        W47618  33.928  34.117  12.549
75205W        W47619  39.507  34.965   3.248
75206W        W47620   1.849  17.568  10.412
75207W        W47621  15.326  15.127   4.834
75208W        W47622  36.876   3.888  14.938
75209W        W47623  19.079  36.851  14.348
75210W        W47624  24.215  32.485   0.436
75211W        W47625  12.180  40.370  12.912
75212W        W47626  22.114   6.422   2.237
75213W        W47627  42.007  32.416   3.848
75214W        W47628  43.007  20.030  12.356
75215W        W47629  42.383  27.679  12.346
75216W        W47630  17.189  43.839   0.863
75217W        W47631  11.830  40.802  12.525
75218W        W47632  23.042   2.396   0.348
75219W        W47633  33.555   1.797   1.397
75220W        W47634  16.092   0.950  11.922
75221W        W47635   5.753  43.513  12.058
75222W        W47636   7.887   2.745   3.201
75223W        W47637  17.113   4.288   0.280
75224W        W47638  10.864  29.956   4.813
75225W        W47639   0.963  34.061  14.372
75226W        W47640  18.104  36.056  10.570
75227W        W47641  42.841  13.314  12.434
75228W        W47642  41.029   7.889  14.905
75229W        W47643   2.379  23.111   4.168
75230W        W47644  27.015  18.170  14.436
75231W        W47645   4.358  32.022  13.831
75232W        W47646  40.926   5.208   1.760
75233W        W47647  40.919   3.278   0.458
75234W        W47648  29.587  43.346   1.846
75235W        W47649  15.734  16.164  13.014
75236W        W47650  36.573  13.304   0.869
75237W        W47651  10.672  38.517  10.969
75238W        W47652   9.842  37.846   1.821
75239W        W47653  21.758  13.181  14.990
75240W        W47654  19.643   0.781  11.968
75241W        W47655  28.959  20.222  11.453
75242W        W47656  39.019  26.056  10.935
75243W        W47657  15.745  26.963  12.038
75244W        W47658  15.809  10.855  13.463
75245W        W47659  27.478  14.320   2.702
75246W        W47660  36.496  24.012  12.867
75247W        W47661  37.342  39.940  14.296
75248W        W47662  20.088  42.824  13.400
75249W        W47663  37.458  39.878  11.548
75250W        W47664  11.351   8.864   0.468
75251W        W47665  24.508  11.729   1.701
75252W        W47666  35.485  27.971   3.821
75253W        W47667   7.292   8.810  13.851
75254W        W47668  38.906  14.133  14.825
75255W        W47669  18.616  29.544   5.260
75256W        W47670  35.419  19.754  11.389
75257W        W47671  35.027  39.463  10.609
75258W        W47672  25.193  16.163  13.480
75259W        W47673  29.922  27.942   3.202
75260W        W47674  32.986  26.954   3.808
75261W        W47675   8.394  16.100  14.812
75262W        W47676  43.277  29.161  12.832
75263W        W47677   6.340  24.650  14.423
75264W        W47678   0.378  17.127  13.456
75265W        W47679  17.618  28.629   2.779
75266W        W47680   6.230  30.464   2.666
75267W        W47681  10.181   9.323  10.974
75268W        W47682  35.870  33.032  13.371
75269W        W47683  12.724   2.832   3.822
75270W        W47684  25.513  40.813  10.894
75271W        W47685  36.885  18.566  11.855
75272W        W47686   8.692   2.879  11.452
75273W        W47687  44.486  24.033   3.259
75274W        W47688  32.485  15.713   2.726
75275W        W47689   1.739  22.523  11.902
75276W        W47690  39.977  44.919  11.081
75277W        W47691  19.285  42.814   0.853
75278W        W47692  23.579  40.545   0.426
75279W        W47693  42.921  18.073   3.780
75280W        W47694  43.884   8.176   3.644
75281W        W47695   6.803  29.988  11.500
75282W        W47696  18.055  40.981   4.200
75283W        W47697  13.214  26.471   1.872
75284W        W47698   7.243  30.999   3.253
75285W        W47699  42.281  25.592  10.456
75286W        W47700   3.240   3.709  10.520
75287W        W47701  16.584  19.040  13.939
75288W        W47702  40.407  34.967  11.034
75289W        W47703  32.012   7.835   4.186
75290W        W47704   9.699   2.841   3.319
75291W        W47705  17.122  30.594  13.396
75292W        W47706   1.363  41.883   1.777
75293W        W47707   4.205   1.269   3.345
75294W        W47708  12.272  32.600   4.273
75295W        W47709  34.979  24.540   1.335
75296W        W47710  40.030  11.745  13.020
75297W        W47711  27.021  42.913  13.800
75298W        W47712  22.065  22.242  11.091
75299W        W47713  14.801   0.984   0.301
75300W        W47714  12.243  24.984   1.809
75301W        W47715  19.628  29.927   1.433
75302W        W47716  21.161  12.716  12.519
75303W        W47717  13.673   9.863   0.454
75304W        W47718  33.024   3.917   3.164
75305W        W47719  32.066  39.882   2.361
75306W        W47720  19.069  18.066   2.778
75307W        W47721  44.831  29.960   1.765
75308W        W47722  43.793   4.709   3.725
75309W        W47723  43.458   9.863   3.788
75310W        W47724  30.009  26.518   1.871
75311W        W47725   5.331  25.477   3.299
75312W        W47726  31.516  41.440  14.506
75313W        W47727   3.858   4.941  12.507
75314W        W47728  28.645   4.748   0.301
75315W        W47729   8.809   5.395  14.018
75316W        W47730  12.316  41.015  12.398
75317W        W47731  11.707   4.859   0.406
75318W        W47732  42.440   2.304  11.005
75319W        W47733  13.251   3.293  14.970
75320W        W47734  11.283  26.139   1.790
75321W        W47735  37.009  32.993   2.181
75322W        W47736   8.185  20.230  13.047
75323W        W47737  13.150  18.716  14.318
75324W        W47738  41.381  43.909   2.382
75325W        W47739  30.518  12.824   0.730
75326W        W47740  36.532  13.752   4.242
75327W        W47741  36.405  32.570   1.281
75328W        W47742  27.588   2.264  14.015
75329W        W47743  27.555  20.273  12.510
75330W        W47744  37.361  36.576   1.911
75331W        W47745   3.284  16.676   3.230
75332W        W47746  43.833  35.430   2.202
75333W        W47747   5.880  33.075   1.872
75334W        W47748  13.295   1.832  11.120
75335W        W47749  14.700  12.209  14.023
75336W        W47750  30.414  36.915   2.873
75337W        W47751   2.278  32.890  11.516
75338W        W47752   4.394  23.628   1.733
75339W        W47753  20.214  26.179  13.434
75340W        W47754   2.867  36.401  13.333
75341W        W47755   7.804  42.473   4.793
75342W        W47756  26.610  38.979  12.936
75343W        W47757  32.535   8.876   3.208
75344W        W47758  13.740  10.330   1.444
75345W        W47759  26.538   4.248  12.427
75346W        W47760   4.699  23.057   4.745
75347W        W47761  10.779  11.709   2.695
75348W        W47762  29.110   1.951   4.355
75349W        W47763  12.283  30.627  11.009
75350W        W47764  34.476   9.204   4.600
75351W        W47765  30.634  14.833   0.920
75352W        W47766  14.715  42.488   2.831
75353W        W47767  15.306  13.206  10.643
75354W        W47768  21.047  34.394   4.124
75355W        W47769  27.567  23.228  13.843
75356W        W47770   2.289  31.108   4.768
75357W        W47771  17.081  26.038   3.797
75358W        W47772   9.761   0.754  13.380
75359W        W47773  34.411  24.548   4.747
75360W        W47774  36.006  21.739   5.743
75361W        W47775  20.587  29.590   3.339
75362W        W47776  43.889  11.829  13.525
75363W        W47777  17.568  18.158   1.332
75364W        W47778  10.791   8.831  14.881
75365W        W47779  20.194  24.504   0.296
75366W        W47780   1.778  24.504   3.263
75367W        W47781  28.441   1.367  14.446
75368W        W47782  37.067  35.014   0.759
75369W        W47783   4.334  44.775   3.660
75370W        W47784   3.252  39.902   4.338
75371W        W47785  30.080  13.132  13.906
75372W        W47786  10.217  17.564   1.413
75373W        W47787  24.153  28.605  11.965
75374W        W47788   0.398  44.957   4.787
75375W        W47789  40.402  40.964   0.304
75376W        W47790   9.671  13.176   2.817
75377W        W47791  23.514  43.330  13.530
75378W        W47792  34.021  31.946  13.863
75379W        W47793  15.284  21.143  11.553
75380W        W47794  15.697   8.204  11.947
75381W        W47795  19.199  39.419  12.508
75382W        W47796  30.565  42.892  12.558
75383W        W47797  43.013   3.767  11.006
75384W        W47798   8.283   9.697  10.485
75385W        W47799  14.601   9.718  13.049
75386W        W47800  22.670  33.543  12.008
75387W        W47801  30.009  27.518  10.635
75388W        W47802  28.499  22.591   0.933
75389W        W47803  44.825  28.074   4.803
75390W        W47804  15.142   5.380  13.983
75391W        W47805  24.552  40.860  10.610
75392W        W47806   3.791  43.952   2.225
75393W        W47807  12.237  40.957  14.284
75394W        W47808  41.017  40.837   0.379
75395W        W47809  16.804  25.523   2.688
75396W        W47810  20.203   9.863  12.552
75397W        W47811  38.404  38.019  14.487
75398W        W47812  17.281  27.682  14.397
75399W        W47813  31.642   6.825   4.731
75400W        W47814  12.287  17.109  10.085
75401W        W47815  20.112  17.163  12.422
75402W        W47816   9.663  31.930   3.730
75403W        W47817  39.491   1.743   4.730
75404W        W47818  13.802  25.494  11.431
75405W        W47819   4.920  15.083   4.742
75406W        W47820  11.661  31.995   1.245
75407W        W47821  39.868  12.753   1.271
75408W        W47822  22.700   9.654  12.882
75409W        W47823  28.137  11.152   2.339
75410W        W47824  34.546  19.063  12.438
75411W        W47825  39.924  33.909  13.998
75412W        W47826  19.164  43.953   0.464
75413W        W47827   5.243  13.229  12.094
75414W        W47828  36.006   0.988  12.837
75415W        W47829  18.706   8.863   2.294
75416W        W47830  35.391   2.840  13.063
75417W        W47831  44.904  39.016  10.129
75418W        W47832  31.912  33.392  13.324
75419W        W47833  13.835   9.307   1.321
75420W        W47834  30.581  39.861   3.674
75421W        W47835  38.038  31.576   4.284
75422W        W47836  33.494  13.213   2.812
75423W        W47837   0.798  44.983  11.388
75424W        W47838  18.641   2.815  12.509
75425W        W47839  42.824  18.719  14.908
75426W        W47840  29.501  40.805  12.341
75427W        W47841  21.707  36.503  14.437
75428W        W47842  26.090  26.009  11.058
75429W        W47843   3.227  39.937   9.669
75430W        W47844   0.452  35.000  14.845
75431W        W47845  40.968   7.747  11.887
75432W        W47846  31.151   0.402  14.336
75433W        W47847  17.281  37.024  14.848
75434W        W47848  24.546  12.780   3.867
75435W        W47849   2.314  12.817  10.923
75436W        W47850  21.726   7.698   3.276
75437W        W47851   2.346  15.641   0.440
75438W        W47852  32.131  40.852  10.950
75439W        W47853   2.438  30.506  13.829
75440W        W47854  30.478  12.735  12.425
75441W        W47855  40.380  33.010   2.664
75442W        W47856  38.422  24.679  12.566
75443W        W47857  16.229  27.113   0.856
75444W        W47858  17.696  25.183   2.824
75445W        W47859  32.943  15.649   0.346
75446W        W47860  14.792   6.196  11.105
75447W        W47861   3.819  31.647   0.353
75448W        W47862  11.363  25.203   2.824
75449W        W47863   5.425  37.031   2.852
75450W        W47864  23.116  38.563  11.093
75451W        W47865   9.803   4.254   1.254
75452W        W47866  11.699  17.274   3.296
75453W        W47867  34.925  44.791   2.415
75454W        W47868  15.582   9.226   4.803
75455W        W47869  37.912   7.383  13.799
75456W        W47870  12.790  30.025  10.633
75457W        W47871  22.079  24.559   4.602
75458W        W47872  38.905  18.219  13.908
75459W        W47873  25.969   3.409   2.359
75460W        W47874   3.797   4.378  14.775
75461W        W47875  43.814  36.042   2.774
75462W        W47876  22.502  14.781  14.027
75463W        W47877  37.404   1.847   1.412
75464W        W47878  41.519   8.797   0.273
75465W        W47879  20.691   5.411  14.796
75466W        W47880  11.367  21.025  11.940
75467W        W47881  25.635  33.991   1.230
75468W        W47882  20.673  37.564  13.459
75469W        W47883  35.932  10.143   4.629
75470W        W47884  18.552  27.061  12.877
75471W        W47885  11.649  44.783  12.945
75472W        W47886   6.355  14.206  12.390
75473W        W47887  42.891  27.471  11.893
75474W        W47888  33.450   9.343   2.697
75475W        W47889  25.122   2.918   4.124
75476W        W47890  41.443  16.167  12.485
75477W        W47891  17.746  39.835  12.353
75478W        W47892   3.285  42.500   3.252
75479W        W47893  15.218   0.317  14.020
75480W        W47894  37.055   2.916   2.891
75481W        W47895  28.058  15.769  14.352
75482W        W47896  16.266  17.797   9.536
75483W        W47897  14.830  28.522   0.781
75484W        W47898  12.791  28.548   4.652
75485W        W47899  12.632  42.948   2.303
75486W        W47900   7.669  25.134   3.828
75487W        W47901  30.440  15.145  14.343
75488W        W47902  19.241   3.956  10.431
75489W        W47903  42.338   8.285   3.207
75490W        W47904  37.497  27.509  14.953
75491W        W47905  23.087  20.253  10.585
75492W        W47906   8.894  28.150  14.855
75493W        W47907  33.604  13.207  12.420
75494W        W47908  19.767  37.886   1.257
75495W        W47909  23.122  10.193  10.533
75496W        W47910   6.871  23.683   0.951
75497W        W47911   3.857  17.281  10.491
75498W        W47912  19.558  15.193   3.242
75499W        W47913  11.264  23.515  14.454
75500W        W47914  43.448   1.959   4.649
75501W        W47915  41.909  20.113  11.602
75502W        W47916  33.073  42.020   3.700
75503W        W47917  39.405  31.090   3.845
75504W        W47918   2.328  39.858  12.928
75505W        W47919  16.598  18.202  10.922
75506W        W47920   6.321  12.282  12.935
75507W        W47921  23.200  30.591  12.436
75508W        W47922  19.671  24.982   1.771
75509W        W47923  26.543   5.418   4.755
75510W        W47924   1.471  13.256   2.273
75511W        W47925  39.371  19.125  10.547
75512W        W47926   5.731  24.507   4.709
75513W        W47927  26.111  16.722   2.250
75514W        W47928  40.891  18.708   3.645
75515W        W47929  20.709  38.383   3.294
75516W        W47930  20.681  35.039   0.860
75517W        W47931   9.842   2.334  12.563
75518W        W47932   4.376  27.132   3.679
75519W        W47933  42.464  35.419   3.708
75520W        W47934   6.413  22.198   4.761
75521W        W47935  36.496  41.874  13.793
75522W        W47936   5.370  32.965   2.258
75523W        W47937  38.979   8.179  13.973
75524W        W47938  33.525  14.710   0.377
75525W        W47939  16.140  20.074   2.719
75526W        W47940  26.528  13.756  14.403
75527W        W47941  37.349   1.800   4.342
75528W        W47942  27.532  19.673   3.156
75529W        W47943   9.197  19.709  13.531
75530W        W47944  16.076  35.103  14.335
75531W        W47945  38.399  24.532   3.275
75532W        W47946  40.882  13.757  14.393
75533W        W47947  27.103  18.209  14.864
75534W        W47948   7.712  30.930   3.667
75535W        W47949   9.850  39.345   3.168
75536W        W47950  39.985   3.336  13.934
75537W        W47951  30.414  28.147  11.121
75538W        W47952  25.173  28.165   0.872
75539W        W47953  37.865  32.601   4.297
75540W        W47954  32.597   7.750  11.546
75541W        W47955  10.177   8.348   3.225
75542W        W47956  35.023  36.432   3.159
75543W        W47957  11.760  24.127   3.698
75544W        W47958  17.692  35.093  13.881
75545W        W47959  44.849  12.235   2.201
75546W        W47960  30.420  38.919  11.883
75547W        W47961   3.751  34.462   3.163
75548W        W47962   1.299  11.186  11.916
75549W        W47963  19.715  28.951  10.899
75550W        W47964   8.671   2.921   1.445
75551W        W47965  44.469  42.324   3.200
75552W        W47966  37.402   8.340   4.304
75553W        W47967  14.169  35.053  11.378
75554W        W47968   7.838  29.576   2.362
75555W        W47969  13.282   2.729   2.857
75556W        W47970  18.211  27.954   1.906
75557W        W47971  38.007  37.402   3.831
75558W        W47972   7.235  16.162  13.053
75559W        W47973  34.921  32.436  14.849
75560W        W47974  11.303   1.904   3.696
75561W        W47975  30.595  43.513   0.371
75562W        W47976  17.717  15.249   1.772
75563W        W47977  20.095  25.573  14.353
75564W        W47978   9.828  38.526   0.407
75565W        W47979  20.045  14.316  13.398
75566W        W47980  31.613  35.416   2.875
75567W        W47981  44.784  29.017   1.765
75568W        W47982   4.868  13.295   2.207
75569W        W47983  21.185  22.680   4.644
75570W        W47984  13.110   7.218   1.699
75571W        W47985   8.862  24.574   3.689
75572W        W47986  33.468   2.828   0.872
75573W        W47987  20.217  40.896  13.358
75574W        W47988   2.736  38.900  11.892
75575W        W47989  37.066  14.776  12.383
75576W        W47990  12.721   9.703   1.795
75577W        W47991  40.522  32.622   3.864
75578W        W47992  15.294  44.933   2.771
75579W        W47993  36.520   7.191   1.439
75580W        W47994  34.443  30.065   2.214
75581W        W47995  25.676  24.062  13.906
75582W        W47996  34.404  14.261   0.299
75583W        W47997  42.993   5.814   0.352
75584W        W47998   4.320   6.706   2.793
75585W        W47999  38.886  35.588  11.992
75586W        W48000  27.463  18.126   0.349
75587W        W48001   0.799  30.081   4.144
75588W        W48002  24.634  37.955  14.937
75589W        W48003  23.710  17.709  11.577
75590W        W48004  22.712  12.766  10.048
75591W        W48005  33.457  29.022   2.213
75592W        W48006  25.118  35.525  13.533
75593W        W48007  10.860  11.204  14.513
75594W        W48008  30.593  38.339   0.368
75595W        W48009   6.197  23.705   4.814
75596W        W48010   0.475  24.984  13.316
75597W        W48011  42.803  16.306  12.416
75598W        W48012  19.068  25.065   1.314
75599W        W48013  26.586  41.958  11.520
75600W        W48014  10.187  21.665   0.276
75601W        W48015  11.737   4.823   1.376
75602W        W48016  25.690  43.487  10.892
75603W        W48017  41.857  18.289  13.877
75604W        W48018  18.742  21.052  10.135
75605W        W48019   4.296  15.643  12.423
75606W        W48020  17.739   2.414  12.836
75607W        W48021  17.620  10.737  10.990
75608W        W48022  27.074  20.037  14.896
75609W        W48023  27.076  22.516   2.344
75610W        W48024  11.653  23.703  13.022
75611W        W48025  13.800  38.452   4.804
75612W        W48026  35.908   4.750  13.395
75613W        W48027   0.909  24.999   0.333
75614W        W48028  19.088  30.514  14.492
75615W        W48029  43.472  39.809   2.412
75616W        W48030   5.909  32.031  14.968
75617W        W48031  22.180   6.359   3.713
75618W        W48032  41.811  16.665  10.976
75619W        W48033  15.223  10.765  13.458
75620W        W48034  16.745  15.119   0.258
75621W        W48035  27.112  10.721  11.035
75622W        W48036  18.638  11.325  13.905
75623W        W48037  24.672  25.976   1.239
75624W        W48038  22.579   5.355  14.359
75625W        W48039  20.059   0.971  12.872
75626W        W48040  17.249   6.831   1.799
75627W        W48041  31.953  18.184   1.327
75628W        W48042   3.344   9.325  14.498
75629W        W48043  15.812   2.356  10.999
75630W        W48044   0.906  11.826   2.190
75631W        W48045  42.501  25.154   2.784
75632W        W48046  30.987  41.445   1.385
75633W        W48047  27.681  28.965  12.918
75634W        W48048  12.827  17.095   4.716
75635W        W48049   0.932  32.570  12.522
75636W        W48050  14.277   5.349   4.711
75637W        W48051   8.691  30.021   4.305
75638W        W48052  30.568  42.996   2.808
75639W        W48053   2.364  25.118   4.837
75640W        W48054  21.669   4.382   1.714
75641W        W48055  27.983  41.458  12.019
75642W        W48056  37.515   0.353   2.410
75643W        W48057  33.523   7.337  13.314
75644W        W48058  24.045  17.220   0.892
75645W        W48059  20.663  18.204  14.503
75646W        W48060  36.543  36.435  12.495
75647W        W48061  43.997  14.128   3.851
75648W        W48062  20.084   7.754   4.194
75649W        W48063  26.528  12.253   0.859
75650W        W48064  29.472  31.621   3.257
75651W        W48065   2.285  40.857   5.719
75652W        W48066  39.468  31.916  13.510
75653W        W48067  23.725  10.784   3.860
75654W        W48068  16.697   0.318   4.787
75655W        W48069  38.876  36.582   0.315
75656W        W48070  28.666  34.499   4.223
75657W        W48071   0.389  17.219   3.330
75658W        W48072  19.697  19.040  13.407
75659W        W48073   8.760  35.392  14.852
75660W        W48074   3.799   7.775  14.883
75661W        W48075  40.387  42.516  12.463
75662W        W48076  40.330  42.358  14.779
75663W        W48077  23.128  12.835   1.729
75664W        W48078   4.824  40.332  14.370
75665W        W48079  43.008   2.316  12.486
75666W        W48080  36.565  35.046  14.501
75667W        W48081  42.415  36.895   1.810
75668W        W48082  34.886  20.139  14.963
75669W        W48083  23.062   3.416  11.505
75670W        W48084  40.487  36.890   0.370
75671W        W48085  36.376  18.187   2.249
75672W        W48086   6.810  31.599  12.064
75673W        W48087  28.507  17.084   0.735
75674W        W48088  43.921   7.227   0.443
75675W        W48089  30.007  31.428  14.407
75676W        W48090  33.457  43.803  12.346
75677W        W48091  24.035  23.151   0.891
75678W        W48092   3.306  32.071   1.846
75679W        W48093  27.128  13.785  14.922
75680W        W48094  32.460  24.043   4.270
75681W        W48095  23.134  40.536  13.462
75682W        W48096  40.334  26.544  13.908
75683W        W48097  16.695  10.720  11.070
75684W        W48098  18.237   3.441  10.510
75685W        W48099  14.780  19.052   0.390
75686W        W48100  25.977  14.693   2.314
75687W        W48101  12.789  21.039   4.313
75688W        W48102  31.482   1.439   0.937
75689W        W48103  35.374  43.361   3.646
75690W        W48104  12.627  28.978  14.314
75691W        W48105  20.719  26.952   4.838
75692W        W48106  42.023  24.993  12.046
75693W        W48107   6.229  40.852  11.380
75694W        W48108  23.706  26.972  14.304
75695W        W48109  11.338   1.946  10.549
75696W        W48110  16.082  10.163   2.189
75697W        W48111  21.618  28.502   0.948
75698W        W48112  26.519   5.354   3.165
75699W        W48113  22.199  11.256  10.476
75700W        W48114   9.810   7.302   0.858
75701W        W48115  27.517  26.524   2.684
75702W        W48116  12.196  33.509   0.856
75703W        W48117  13.346  41.375  10.976
75704W        W48118  31.961   4.811   0.920
75705W        W48119  30.574  33.519  12.044
75706W        W48120   3.326   5.933   0.878
75707W        W48121  41.508  19.217  10.492
75708W        W48122  24.686  14.615  10.520
75709W        W48123  25.973  23.627   0.319
75710W        W48124  15.260  27.576  14.795
75711W        W48125  14.340  19.222   9.945
75712W        W48126  23.032  42.486  10.426
75713W        W48127   8.199  33.404   3.650
75714W        W48128  11.662  11.627  12.368
75715W        W48129  38.395  43.372  11.610
75716W        W48130  14.634  32.626   4.269
75717W        W48131  21.217  34.450   2.764
75718W        W48132   9.830  15.659   1.774
75719W        W48133  34.396   5.365  14.404
75720W        W48134  28.998   3.723  14.312
75721W        W48135  17.737  10.281  14.313
75722W        W48136  20.768  30.628  14.404
75723W        W48137  13.237  37.946   1.830
75724W        W48138  24.500  43.495   4.244
75725W        W48139  15.282  15.244   1.875
75726W        W48140  41.323  11.220   4.711
75727W        W48141   9.328  31.917  10.126
75728W        W48142  17.077  10.335   3.697
75729W        W48143  18.553  31.444   3.652
75730W        W48144   4.430  10.178  12.836
75731W        W48145   6.199  14.716  11.532
75732W        W48146  15.309  10.251  14.277
75733W        W48147  17.774  14.826   1.394
75734W        W48148  35.954   6.363   0.294
75735W        W48149  41.847  30.415  13.455
75736W        W48150  29.092  31.534   0.960
75737W        W48151   8.864  36.877   4.633
75738W        W48152  39.024  39.816   0.757
75739W        W48153  30.027  21.035   2.750
75740W        W48154   7.414  32.969  10.623
75741W        W48155  33.486  12.622  10.470
75742W        W48156  32.394  27.984   1.237
75743W        W48157   8.294  36.883   2.696
75744W        W48158  33.064   6.723  13.532
75745W        W48159  32.897  38.897   0.955
75746W        W48160  18.551  13.816   3.787
75747W        W48161   1.925  19.188  11.567
75748W        W48162  40.945  38.960   4.130
75749W        W48163  14.323   6.209  14.970
75750W        W48164  11.632  17.231   1.221
75751W        W48165  42.890  34.026  14.917
75752W        W48166  44.984   4.376  12.062
75753W        W48167  24.985  13.787  12.546
75754W        W48168  18.137   8.660  11.475
75755W        W48169   4.442  32.038   1.810
75756W        W48170   9.281  30.122   3.663
75757W        W48171  38.822   6.426   4.255
75758W        W48172  10.236  10.871   0.935
75759W        W48173  22.227  37.902  11.485
75760W        W48174   2.344  13.614  14.887
75761W        W48175   3.709  33.119  12.873
75762W        W48176  34.863  35.002   2.762
75763W        W48177  11.257   8.655   4.644
75764W        W48178  38.002  40.836   4.603
75765W        W48179  37.442  11.860   1.750
75766W        W48180  31.133  13.266   4.129
75767W        W48181  21.704  18.764  13.546
75768W        W48182  44.759  27.094  13.809
75769W        W48183   0.867  43.996   2.803
75770W        W48184  17.647  33.933  11.090
75771W        W48185  37.940  24.120   4.123
75772W        W48186  35.856  43.951   0.812
75773W        W48187  42.829  28.038  13.990
75774W        W48188  36.973   9.787   1.749
75775W        W48189  32.577  22.110  10.629
75776W        W48190  33.458  16.778   1.406
75777W        W48191  23.617  14.801   0.307
75778W        W48192  22.680  26.504   0.726
75779W        W48193  21.722  21.085   4.783
75780W        W48194  39.477  17.671   3.752
75781W        W48195  22.246  21.660  14.809
75782W        W48196  14.703  29.932   1.918
75783W        W48197  35.955  15.128  11.382
75784W        W48198  36.035  28.636  11.462
75785W        W48199  21.036  19.653  13.923
75786W        W48200  11.245  26.078  11.032
75787W        W48201   3.348  30.072   3.806
75788W        W48202   6.385  10.718  10.605
75789W        W48203  37.068  14.735  14.977
75790W        W48204  14.135  30.012  14.311
75791W        W48205  14.180  30.000  12.463
75792W        W48206   9.324  41.974  14.351
75793W        W48207  24.580  44.776  13.825
75794W        W48208   0.249  12.826  13.922
75795W        W48209  12.799  10.345  12.871
75796W        W48210  34.427  43.820  13.497
75797W        W48211  26.610   4.372   4.735
75798W        W48212  15.171  20.582   1.390
75799W        W48213   1.251  19.636   4.676
75800W        W48214  18.101  35.010   3.323
75801W        W48215  17.265  22.597  12.577
75802W        W48216   6.787   6.231   0.781
75803W        W48217  32.498  24.657   2.391
75804W        W48218  20.753   6.778  13.510
75805W        W48219  20.544  37.490   0.912
75806W        W48220  26.994  32.554  13.012
75807W        W48221  36.388   6.277   0.289
75808W        W48222  15.601  19.780   2.757
75809W        W48223  16.220   6.362   4.329
75810W        W48224   0.259  31.611  14.816
75811W        W48225  42.949  12.629   3.839
75812W        W48226   4.342  14.332   2.758
75813W        W48227  14.646  25.019  13.439
75814W        W48228  21.213   0.407   3.856
75815W        W48229  42.471  36.982  10.476
75816W        W48230  24.545  18.568  10.634
75817W        W48231  12.355  21.597   0.460
75818W        W48232  16.686  41.789   2.300
75819W        W48233  10.139   9.186   4.114
75820W        W48234  37.340  37.392  10.475
75821W        W48235   9.338  44.399   0.383
75822W        W48236  19.773  30.587   2.812
75823W        W48237  13.144   5.390   4.211
75824W        W48238  14.105  43.997   0.283
75825W        W48239  15.592  11.809  12.048
75826W        W48240   1.407  26.651  13.329
75827W        W48241  21.603  17.140   3.771
75828W        W48242  44.865  26.207   1.311
75829W        W48243  19.748  20.187  11.088
75830W        W48244  25.965  29.459   4.130
75831W        W48245  22.682  34.409   0.260
75832W        W48246  37.973  44.870   3.206
75833W        W48247  25.144   0.762  10.998
75834W        W48248  36.518  32.984  13.867
75835W        W48249  10.795  40.014   1.789
75836W        W48250  22.233  37.929   3.326
75837W        W48251  30.625  40.004  10.048
75838W        W48252  20.190  22.007   1.838
75839W        W48253   9.263  19.188  10.638
75840W        W48254  14.707  21.250  11.973
75841W        W48255  18.140  17.604   0.955
75842W        W48256  20.151  20.068   3.870
75843W        W48257  19.085  43.478   1.817
75844W        W48258   7.201  38.418   0.433
75845W        W48259  28.593   4.867  14.513
75846W        W48260   7.735  21.695   1.406
75847W        W48261  19.280  40.911  11.063
75848W        W48262  36.987  13.303   0.284
75849W        W48263  24.514   7.290  14.810
75850W        W48264  39.886  15.661   4.303
75851W        W48265   3.440  11.806  10.596
75852W        W48266   4.336  39.419  12.993
75853W        W48267   4.348  17.267  13.969
75854W        W48268  38.832   6.809   1.295
75855W        W48269   3.363  37.061  14.834
75856W        W48270   8.860   9.821   3.248
75857W        W48271  24.986  13.252   3.193
75858W        W48272   6.731   8.275  11.011
75859W        W48273  38.451  36.067  13.910
75860W        W48274  42.833  37.050   1.291
75861W        W48275  37.068   7.190  14.855
75862W        W48276  35.396  20.179   1.705
75863W        W48277  43.393   9.283  11.020
75864W        W48278  44.285  30.449   4.340
75865W        W48279   3.454  16.777  13.048
75866W        W48280  17.248  31.129  12.947
75867W        W48281   2.430   1.966  13.344
75868W        W48282  24.166  17.242   1.749
75869W        W48283  30.933   9.856  13.507
75870W        W48284  19.610  20.198  12.029
75871W        W48285  20.574  16.256  13.455
75872W        W48286  25.541   6.806   4.801
75873W        W48287   5.371   7.804   2.804
75874W        W48288  16.077  13.828  10.964
75875W        W48289   6.922  14.311  13.020
75876W        W48290   3.939  15.667  10.942
75877W        W48291  30.557  29.987   1.437
75878W        W48292   5.257   9.268  14.980
75879W        W48293  42.403  44.908  11.476
75880W        W48294  40.467  16.260  11.516
75881W        W48295  38.984   6.300   0.432
75882W        W48296  38.059  18.617   4.243
75883W        W48297   3.728   4.823  11.003
75884W        W48298  19.167  42.333  13.827
75885W        W48299  17.611   3.734  12.978
75886W        W48300  37.370  24.209  11.388
75887W        W48301  10.788  41.316   4.639
75888W        W48302   3.877  22.208  13.546
75889W        W48303  11.817  12.123   0.901
75890W        W48304  30.087  38.986   3.632
75891W        W48305  12.294  12.336  11.526
75892W        W48306   1.325   3.836   4.769
75893W        W48307  38.471   9.825   4.208
75894W        W48308  15.680  30.132   3.352
75895W        W48309  33.955   3.902  11.065
75896W        W48310  26.679  11.760  13.417
75897W        W48311  32.065  23.234   3.273
75898W        W48312  42.399  20.697  14.421
75899W        W48313  26.550  27.076   2.760
75900W        W48314   2.426  30.916  12.936
75901W        W48315   5.200  20.668   3.386
75902W        W48316   0.322  44.370  12.007
75903W        W48317   8.223  35.871   0.739
75904W        W48318  40.479  32.007   1.381
75905W        W48319   2.747  38.344  12.095
75906W        W48320  15.779  14.234   2.699
75907W        W48321  44.955  35.361  14.908
75908W        W48322  43.279  21.649   2.890
75909W        W48323  16.641  25.554  10.931
75910W        W48324   0.364  14.642   1.429
75911W        W48325  28.492   7.215   3.859
75912W        W48326  43.988  32.100   3.355
75913W        W48327   7.178   1.420  11.973
75914W        W48328  26.568  30.011  13.815
75915W        W48329  37.846  25.635   3.232
75916W        W48330  13.311  10.824  14.817
75917W        W48331  37.519   6.739  13.491
75918W        W48332  19.592  42.997  13.904
75919W        W48333   4.838  19.652  11.858
75920W        W48334   3.388  10.283   2.777
75921W        W48335  15.632  24.568  12.989
75922W        W48336  31.094   4.353  12.998
75923W        W48337  40.891  30.517  12.527
75924W        W48338  27.447  13.836  13.796
75925W        W48339  23.728   1.277  12.062
75926W        W48340  10.140  40.458  14.296
75927W        W48341  32.142  13.659   4.599
75928W        W48342  30.487  39.326  12.356
75929W        W48343  22.742  30.414  12.954
75930W        W48344  12.623   6.855  12.451
75931W        W48345  43.383  31.435  13.450
75932W        W48346  30.547  12.649  14.010
75933W        W48347   4.848  40.360   4.310
75934W        W48348   0.464  33.505  12.897
75935W        W48349  29.610  29.124   1.380
75936W        W48350  39.863   3.721   4.317
75937W        W48351  36.970  43.465  10.515
75938W        W48352  23.124   6.378   1.782
75939W        W48353  43.911  33.904   2.677
75940W        W48354  33.384  25.174  12.026
75941W        W48355  14.209  44.789  12.024
75942W        W48356  11.728  26.180  11.526
75943W        W48357  40.914  10.774  12.976
75944W        W48358  35.511  40.337  14.011
75945W        W48359   3.851   5.276   2.790
75946W        W48360  29.060   5.790   0.450
75947W        W48361  38.848  29.597   3.319
75948W        W48362   5.933  34.888   0.832
75949W        W48363  20.666  35.557   3.635
75950W        W48364  40.412  19.141   0.244
75951W        W48365   0.308  41.323   2.227
75952W        W48366  21.699  24.705   3.197
75953W        W48367  11.801  14.739   1.365
75954W        W48368  20.544  12.845  10.603
75955W        W48369  38.556  18.239   4.700
75956W        W48370  20.261   6.367   3.830
75957W        W48371  16.208  20.199   9.614
75958W        W48372  20.256  24.705   1.844
75959W        W48373  29.487  21.063  10.041
75960W        W48374  23.589  18.746   5.282
75961W        W48375  18.562  21.115   5.312
75962W        W48376  21.017   0.380  12.830
75963W        W48377   5.220  38.066   3.634
75964W        W48378  38.435  19.758  10.412
75965W        W48379  27.032   7.788  13.345
75966W        W48380  13.243  43.957   1.293
75967W        W48381  26.567  28.463   3.250
75968W        W48382  14.737  24.981  14.767
75969W        W48383   9.671  31.460   1.363
75970W        W48384  27.009  30.518  11.023
75971W        W48385  41.028  40.517   2.893
75972W        W48386  43.366  28.514   0.820
75973W        W48387   3.860  19.757  13.397
75974W        W48388  28.581  41.843  12.404
75975W        W48389  12.739  23.092  11.602
75976W        W48390  43.943  17.571   0.872
75977W        W48391  26.493  19.175  11.106
75978W        W48392   5.899  27.197  12.431
75979W        W48393  16.200  11.867   4.768
75980W        W48394  16.167  26.024  12.490
75981W        W48395  13.799  11.276   0.433
75982W        W48396  31.539  41.391   1.434
75983W        W48397   0.444  35.077  11.999
75984W        W48398  43.275  19.189   1.295
75985W        W48399   8.887  26.961   1.799
75986W        W48400   5.902  15.709   0.878
75987W        W48401  33.023  22.170  12.365
75988W        W48402  25.035  36.368   4.807
75989W        W48403  27.094  18.292   5.221
75990W        W48404   3.224  39.479   5.214
75991W        W48405  18.176  35.974  11.391
75992W        W48406  29.953  31.627   1.334
75993W        W48407  12.816   6.695  13.846
75994W        W48408  27.526  43.318  14.433
75995W        W48409  39.526  30.602   1.764
75996W        W48410  17.621  41.465  10.568
75997W        W48411  39.901   8.728  12.387
75998W        W48412  23.086  44.327   0.307
75999W        W48413   1.738  39.413   0.764
76000W        W48414  32.005  43.803  14.474
76001W        W48415  15.697  35.499   1.406
76002W        W48416  42.965  23.115   0.730
76003W        W48417   6.908  12.704   2.744
76004W        W48418  17.632  29.615  12.073
76005W        W48419  18.201  24.060  12.985
76006W        W48420  11.320   7.226  14.280
76007W        W48421  37.539  15.657   2.191
76008W        W48422  32.449  10.229   3.650
76009W        W48423   9.375  32.970   4.281
76010W        W48424  41.981   8.381  11.058
76011W        W48425  18.695  14.162  10.990
76012W        W48426  35.441  21.197  13.018
76013W        W48427   9.295  27.657   3.256
76014W        W48428  32.047  34.899  13.313
76015W        W48429  15.253  11.187  14.373
76016W        W48430  44.437  37.049  13.334
76017W        W48431  43.818   5.365   3.779
76018W        W48432   2.261  43.799   3.187
76019W        W48433  17.567  42.286   1.792
76020W        W48434  31.460   0.943   3.302
76021W        W48435  37.492  38.044  12.386
76022W        W48436  39.977  13.635   3.637
76023W        W48437   4.339  22.146   4.187
76024W        W48438  33.938  14.289  13.063
76025W        W48439   8.238  28.035   4.627
76026W        W48440  27.150   3.860  12.382
76027W        W48441   9.650   6.321  14.401
76028W        W48442  37.907  35.602  11.879
76029W        W48443  33.995  13.316  14.417
76030W        W48444  17.073  44.304  13.924
76031W        W48445   8.804  37.514   2.814
76032W        W48446  24.072  19.279  10.029
76033W        W48447  32.052  37.460  14.882
76034W        W48448   2.340  11.679  12.927
76035W        W48449  43.788  41.996  11.466
76036W        W48450  11.741   9.349  12.871
76037W        W48451  26.549  22.219   9.953
76038W        W48452  25.614  30.616  13.805
76039W        W48453   5.841  15.128   9.999
76040W        W48454  40.366  25.000  11.948
76041W        W48455  30.555  18.233  11.033
76042W        W48456   4.905   4.829  13.050
76043W        W48457  16.225  24.223  13.016
76044W        W48458   0.275  12.266  14.288
76045W        W48459  44.452  42.373   1.906
76046W        W48460  18.687   9.788   2.809
76047W        W48461  17.142  30.945   4.813
76048W        W48462  20.042  29.990   1.427
76049W        W48463  36.014  22.697   2.383
76050W        W48464  18.634   3.282   0.371
76051W        W48465  11.738  28.557  12.901
76052W        W48466   7.770   7.719  11.994
76053W        W48467   7.363  21.179   1.323
76054W        W48468  40.049   2.862   1.394
76055W        W48469  20.096  17.082  14.284
76056W        W48470  36.027  41.448   1.847
76057W        W48471   5.824  39.524   4.193
76058W        W48472  36.866  36.398   9.937
76059W        W48473  19.157  23.050  13.953
76060W        W48474  13.623  23.685  10.940
76061W        W48475  35.583  27.570  10.445
76062W        W48476  18.775   3.739   3.209
76063W        W48477  38.570  10.297  13.833
76064W        W48478  15.800  38.525   9.988
76065W        W48479   7.255  26.590   3.308
76066W        W48480   0.410  31.608  10.632
76067W        W48481   9.305  19.277   3.751
76068W        W48482   4.337  11.855   1.869
76069W        W48483  32.403  15.176  12.508
76070W        W48484  24.062  14.772  13.474
76071W        W48485  43.298  22.660  12.953
76072W        W48486  15.734   6.201   0.751
76073W        W48487  34.878  39.977   1.248
76074W        W48488  26.658  15.611  11.916
76075W        W48489  17.172  28.152   5.266
76076W        W48490  15.712  24.113  10.539
76077W        W48491  33.930   4.771   5.267
76078W        W48492  13.269   6.257  13.901
76079W        W48493  44.392   0.453   3.309
76080W        W48494  28.103  28.674  10.901
76081W        W48495  38.327  21.563  10.560
76082W        W48496  41.925  26.699  12.851
76083W        W48497   8.679  24.212   0.920
76084W        W48498  38.980  19.216  10.416
76085W        W48499  17.198  27.941  12.551
76086W        W48500  19.278  17.206  13.347
76087W        W48501  26.959  14.298  12.476
76088W        W48502  32.090  31.010  14.397
76089W        W48503  30.081  23.212  13.364
76090W        W48504  29.432  12.182  12.368
76091W        W48505  28.466   3.228   0.426
76092W        W48506  21.113   3.925  11.082
76093W        W48507  34.412  44.465   1.932
76094W        W48508  39.984  34.059   1.302
76095W        W48509  31.460   3.856  14.430
76096W        W48510  11.174   9.319   1.221
76097W        W48511  31.147  35.886   4.833
76098W        W48512  38.327   7.297   3.367
76099W        W48513  11.860  16.736  10.414
76100W        W48514   8.367  38.902  14.868
76101W        W48515  17.287  43.785  11.552
76102W        W48516   1.294  27.046  12.826
76103W        W48517  44.417  12.272  11.992
76104W        W48518  42.821   6.288  12.997
76105W        W48519  31.919  12.668   2.385
76106W        W48520  32.958  21.191  12.864
76107W        W48521  16.277  44.436   2.254
76108W        W48522  37.432   2.783   0.450
76109W        W48523   9.800  14.153   0.766
76110W        W48524  13.329  23.702  14.962
76111W        W48525  22.554  44.971   3.199
76112W        W48526   6.803   0.927  10.424
76113W        W48527  26.982  39.033   3.195
76114W        W48528  14.725   4.722  14.873
76115W        W48529  27.986  16.627  12.500
76116W        W48530   9.275  43.378  12.864
76117W        W48531  13.824   2.329   1.409
76118W        W48532  16.789  34.959   2.261
76119W        W48533   6.847  41.504   3.710
76120W        W48534  12.632  21.230  11.057
76121W        W48535  38.365  21.148   9.944
76122W        W48536  29.956  38.875   4.142
76123W        W48537  37.014  20.091  11.568
76124W        W48538  36.458   3.745   0.442
76125W        W48539  27.941  22.587  14.366
76126W        W48540  35.550  39.407  10.908
76127W        W48541  29.507  11.220   3.175
76128W        W48542   0.342   5.797   3.707
76129W        W48543  25.642  16.293   3.256
76130W        W48544  28.468  41.502   2.345
76131W        W48545  34.555  25.064  11.021
76132W        W48546  29.524  28.129   2.355
76133W        W48547  25.072  41.796  13.853
76134W        W48548  25.629   8.400   2.291
76135W        W48549  34.096  34.608   4.711
76136W        W48550  34.540  20.592  11.082
76137W        W48551   7.820   1.462   2.748
76138W        W48552  36.543   7.799  14.021
76139W        W48553  28.589   2.262  14.438
76140W        W48554  36.485  28.943   0.808
76141W        W48555  13.806  24.677   3.203
76142W        W48556  28.956  29.036  10.631
76143W        W48557   4.319  29.636   3.162
76144W        W48558   2.375  10.804  10.620
76145W        W48559  35.011  26.017   4.334
76146W        W48560  34.386  24.175  11.982
76147W        W48561  13.829  43.830  12.473
76148W        W48562  28.068  16.772  12.872
76149W        W48563  11.186  12.197   2.719
76150W        W48564  29.001  37.510   2.675
76151W        W48565  43.830  38.472   4.758
76152W        W48566  20.084  18.131  10.419
76153W        W48567  22.663  34.548  11.577
76154W        W48568  27.965  12.314  11.123
76155W        W48569  13.310  23.235   0.879
76156W        W48570  37.927  33.011   2.824
76157W        W48571  42.025   5.409   2.416
76158W        W48572  27.005   0.855  13.386
76159W        W48573  32.943   7.801   1.801
76160W        W48574  27.962  17.710   2.813
76161W        W48575   0.423   4.843   4.757
76162W        W48576  35.518  42.945   1.865
76163W        W48577  32.550  40.050  13.470
76164W        W48578  16.256  13.149  11.890
76165W        W48579  21.102  13.185   3.805
76166W        W48580   4.284  23.671  12.856
76167W        W48581  24.202   9.206   0.349
76168W        W48582  35.435   3.448  14.031
76169W        W48583  11.180  38.916  12.503
76170W        W48584   7.872  15.748  14.293
76171W        W48585  36.517  32.403  11.975
76172W        W48586  40.852  35.976  10.621
76173W        W48587  27.486  28.658   3.369
76174W        W48588   3.461  21.150  10.534
76175W        W48589  13.118  40.998   4.746
76176W        W48590  30.500  38.952   4.751
76177W        W48591   1.473  21.156   2.680
76178W        W48592  37.925  33.547   3.350
76179W        W48593  16.282  32.955   0.340
76180W        W48594   7.342  24.163  10.450
76181W        W48595  44.780  22.572  13.827
76182W        W48596  22.151   3.921  11.926
76183W        W48597  29.929  32.595   1.351
76184W        W48598  20.111  37.934  14.968
76185W        W48599  11.721  12.354   3.824
76186W        W48600  36.999   0.380   3.192
76187W        W48601  14.115   8.746   1.704
76188W        W48602  21.569   8.731   4.756
76189W        W48603   3.435  18.272  12.363
76190W        W48604  43.926   3.231   2.673
76191W        W48605  33.891   8.864  13.357
76192W        W48606  20.543  21.109  11.393
76193W        W48607   1.883  29.082   2.271
76194W        W48608  14.209   4.212   1.724
76195W        W48609  38.404  14.326  13.941
76196W        W48610   5.286  14.128   2.374
76197W        W48611  24.627  24.529   3.788
76198W        W48612  30.153  41.809  10.974
76199W        W48613  43.513  15.244  14.006
76200W        W48614  36.557  35.575   4.191
76201W        W48615  11.353  11.325   2.825
76202W        W48616  23.090  30.592  14.793
76203W        W48617  31.118  27.456  11.917
76204W        W48618   7.356  39.819   2.842
76205W        W48619   0.943  19.162   1.447
76206W        W48620  18.594  27.649  14.464
76207W        W48621  18.596  29.583  12.568
76208W        W48622   3.722  20.667  10.422
76209W        W48623  23.079  34.401   2.252
76210W        W48624   0.880   1.318  11.967
76211W        W48625  40.019  30.625  13.004
76212W        W48626  44.769  29.565  10.547
76213W        W48627   9.255  31.459   4.218
76214W        W48628  31.569  39.821  13.820
76215W        W48629   0.966  39.332  11.087
76216W        W48630  31.527   8.233   3.381
76217W        W48631  23.531  23.587  13.810
76218W        W48632  34.926  12.738   4.616
76219W        W48633  37.838  19.552   2.368
76220W        W48634  37.521  30.908  10.963
76221W        W48635  29.586  28.631  12.015
76222W        W48636  11.692  39.917  12.091
76223W        W48637  11.713  28.666   3.284
76224W        W48638  43.933  28.634   1.227
76225W        W48639  21.697  40.992   2.678
76226W        W48640   4.421  43.305  14.307
76227W        W48641   8.304  11.338   2.265
76228W        W48642   5.703  40.406   2.774
76229W        W48643  37.883  37.031   2.225
76230W        W48644  25.562  23.648  13.448
76231W        W48645  16.146  14.756   1.794
76232W        W48646  25.709  12.638   0.880
76233W        W48647  31.606  27.533  11.577
76234W        W48648  42.919  39.559   4.216
76235W        W48649  30.990  43.928   1.381
76236W        W48650   5.270  16.169  13.484
76237W        W48651  28.159  28.115   0.365
76238W        W48652  23.047   1.769   3.756
76239W        W48653  29.433  25.494   4.179
76240W        W48654  42.286  33.469  13.010
76241W        W48655  23.732  18.581   2.273
76242W        W48656  15.798  14.629   0.276
76243W        W48657  20.196   1.741   1.354
76244W        W48658  40.428   5.412  11.962
76245W        W48659   6.868   7.831   3.725
76246W        W48660  35.432   2.253   2.764
76247W        W48661   5.285  19.710   3.321
76248W        W48662   8.732  12.821  13.910
76249W        W48663  12.222  31.418   1.379
76250W        W48664  27.672  34.439   4.673
76251W        W48665  23.056  39.316  13.533
76252W        W48666  24.201   3.862   4.709
76253W        W48667  36.439  43.355  14.415
76254W        W48668  42.379   3.217  11.038
76255W        W48669  25.481   1.248  14.013
76256W        W48670   6.293  21.108  12.523
76257W        W48671  11.320  43.494  11.973
76258W        W48672  38.839  15.680   3.195
76259W        W48673  31.103   5.425   0.299
76260W        W48674  17.740  42.322  14.399
76261W        W48675  33.066  10.750  11.982
76262W        W48676   8.709   6.371   3.345
76263W        W48677  31.083  19.096   4.725
76264W        W48678  15.262  36.853  14.848
76265W        W48679  22.251  33.416   2.344
76266W        W48680  18.773  40.515   1.370
76267W        W48681   3.718  37.008  13.945
76268W        W48682  22.046  29.148   4.746
76269W        W48683  21.566  16.091  12.380
76270W        W48684  15.234  13.310  13.864
76271W        W48685  41.922  42.800  13.856
76272W        W48686  41.371  40.021  14.477
76273W        W48687  11.271   0.793  14.334
76274W        W48688  20.030  15.203   3.812
76275W        W48689  23.628  31.491  12.074
76276W        W48690  42.426  15.160   3.347
76277W        W48691   6.881   9.368  12.888
76278W        W48692  23.677  15.144  10.471
76279W        W48693   8.171  27.652   0.899
76280W        W48694  35.860  35.586   4.746
76281W        W48695  20.079  29.521  12.549
76282W        W48696   9.337  10.369   4.341
76283W        W48697  16.097  35.420   3.699
76284W        W48698   9.788  14.770  12.007
76285W        W48699   0.825  32.403   0.320
76286W        W48700  17.207   2.300   4.234
76287W        W48701  19.079   2.448  14.433
76288W        W48702   8.750   3.284   2.239
76289W        W48703   4.927  21.637   3.814
76290W        W48704  34.949   1.441  12.940
76291W        W48705  36.364  14.159   5.154
76292W        W48706  40.868  14.108   4.254
76293W        W48707  34.447  43.397   4.696
76294W        W48708  44.268  24.132  13.864
76295W        W48709  36.400  29.116   1.326
76296W        W48710  19.744  16.661  13.386
76297W        W48711  39.406  20.567   0.942
76298W        W48712   6.693   5.199   0.255
76299W        W48713  22.038  43.767   4.702
76300W        W48714  37.461  43.986  14.945
76301W        W48715  12.837  12.617   0.410
76302W        W48716  42.465  34.564   3.866
76303W        W48717  34.504  37.364   1.370
76304W        W48718  32.040  37.899   2.708
76305W        W48719  27.034  38.564  11.063
76306W        W48720  30.095  12.738  12.428
76307W        W48721  14.817  36.044  13.452
76308W        W48722  37.504  34.488   9.992
76309W        W48723   0.934  40.360   4.778
76310W        W48724  21.646   5.256  14.338
76311W        W48725  22.219  41.347   4.175
76312W        W48726  17.107  42.906   3.186
76313W        W48727  31.473  16.790  10.517
76314W        W48728  25.205   8.892   2.828
76315W        W48729   7.249  24.587  14.009
76316W        W48730   6.855   4.803   0.885
76317W        W48731   3.821  13.833   1.343
76318W        W48732  38.514  12.698   4.122
76319W        W48733  31.039  29.482   9.963
76320W        W48734  41.422  30.555  12.460
76321W        W48735  13.650  43.942   1.860
76322W        W48736   3.340  33.419   3.348
76323W        W48737  11.758  44.007  13.538
76324W        W48738   3.460  43.872  10.637
76325W        W48739   1.250  41.484  13.380
76326W        W48740  32.599  37.452  10.039
76327W        W48741  30.160  32.575   4.619
76328W        W48742   4.411  41.383   0.466
76329W        W48743  11.162  26.963  12.000
76330W        W48744   2.423  44.449  13.378
76331W        W48745  37.535   7.191  11.059
76332W        W48746   0.448   9.690  12.413
76333W        W48747   7.385   2.386  12.008
76334W        W48748  19.772   4.245   4.673
76335W        W48749   1.379  32.958   2.679
76336W        W48750  33.382  28.552  12.057
76337W        W48751   4.274  40.497   3.235
76338W        W48752  30.497  27.572   1.298
76339W        W48753   3.372  23.189   0.848
76340W        W48754  37.424  17.750  13.435
76341W        W48755  44.780  38.569  12.480
76342W        W48756  29.444  36.923   1.809
76343W        W48757  22.599  25.030  12.477
76344W        W48758  43.388  41.324   0.853
76345W        W48759   8.812  16.714   3.334
76346W        W48760  23.630  23.189   1.336
76347W        W48761  26.591   8.687   2.831
76348W        W48762  21.643  25.506  12.541
76349W        W48763  13.342  24.022  10.416
76350W        W48764  25.654  44.842  13.488
76351W        W48765  27.544  23.710   3.801
76352W        W48766  39.365  33.505   1.363
76353W        W48767  27.513  18.141  14.297
76354W        W48768  27.553   9.651   0.466
76355W        W48769   0.276  35.463  12.383
76356W        W48770  25.682   7.686  11.008
76357W        W48771   6.755  44.283  11.961
76358W        W48772  21.561  37.365  13.036
76359W        W48773  42.377  21.205   3.654
76360W        W48774  14.244  12.849  13.954
76361W        W48775  41.016  11.779   0.350
76362W        W48776  10.788   9.251  10.931
76363W        W48777  12.245  12.712   3.194
76364W        W48778  39.402   6.817  10.908
76365W        W48779  14.672  17.201   1.899
76366W        W48780   6.217  11.270   1.786
76367W        W48781   7.291   5.350   3.269
76368W        W48782  14.137  40.483  12.425
76369W        W48783  15.296  24.098  13.997
76370W        W48784  44.842  15.823   0.413
76371W        W48785  15.778  24.593   1.323
76372W        W48786  33.097   9.237   2.307
76373W        W48787   8.228  38.354   0.816
76374W        W48788  11.678  38.560   4.822
76375W        W48789  23.709  32.105  10.961
76376W        W48790  21.682   8.678   3.231
76377W        W48791   6.771  39.532  14.971
76378W        W48792  43.498  24.132  12.489
76379W        W48793   8.359  10.673  12.563
76380W        W48794  27.058  44.367  14.314
76381W        W48795  29.110  44.372  13.961
76382W        W48796  43.471  19.042   4.186
76383W        W48797  10.755   3.445   2.206
76384W        W48798  31.409  26.173   1.316
76385W        W48799  34.897  37.458   4.276
76386W        W48800  34.374   5.353   1.354
76387W        W48801  13.112  24.561   2.220
76388W        W48802  32.915   3.461  13.448
76389W        W48803  10.279  17.768  14.431
76390W        W48804  19.751  37.858  13.430
76391W        W48805   5.848   5.300   1.924
76392W        W48806  14.292   2.862   0.325
76393W        W48807  16.224  35.971   1.220
76394W        W48808  20.691  20.164  10.921
76395W        W48809  20.190  41.894  13.859
76396W        W48810   4.864  28.046  14.451
76397W        W48811  37.363  33.547  11.478
76398W        W48812   7.323  24.555   1.821
76399W        W48813  10.268  24.566  12.557
76400W        W48814  10.656  21.702   2.687
76401W        W48815  38.556  22.561   4.188
76402W        W48816   2.954  19.164  13.536
76403W        W48817  41.040  12.173  11.042
76404W        W48818  25.646  31.047   2.366
76405W        W48819  39.909   5.353   2.276
76406W        W48820  11.263  31.584  14.783
76407W        W48821  24.088   4.708   0.257
76408W        W48822  11.319   7.896  14.358
76409W        W48823  25.468  35.572   4.318
76410W        W48824  38.019   4.930   4.613
76411W        W48825  40.927  44.483  14.453
76412W        W48826  15.606  17.162   0.279
76413W        W48827  17.138  37.478   1.383
76414W        W48828  29.168  31.152   4.634
76415W        W48829  42.487  37.573  12.969
76416W        W48830  20.184  29.583   2.682
76417W        W48831  13.228  15.103  10.543
76418W        W48832   2.386  23.573   9.921
76419W        W48833   4.795   0.250   1.215
76420W        W48834  26.635  35.383  10.429
76421W        W48835  31.976  30.659  13.907
76422W        W48836  42.482   8.319   1.772
76423W        W48837  38.567   2.742  11.399
76424W        W48838  28.000  29.153   3.300
76425W        W48839  11.783  13.170   3.320
76426W        W48840  12.152  33.558   2.885
76427W        W48841  21.711  13.676   4.785
76428W        W48842  44.313  14.287   2.814
76429W        W48843   9.690  42.833   0.739
76430W        W48844  42.800  13.824   1.231
76431W        W48845  42.943  28.054  10.915
76432W        W48846  18.182  16.778   3.331
76433W        W48847   8.294  38.840   3.337
76434W        W48848  35.574  38.509  10.892
76435W        W48849  13.800   6.229  11.963
76436W        W48850  36.558  19.045   0.312
76437W        W48851  24.085  44.963   5.136
76438W        W48852   7.343  35.937  11.401
76439W        W48853  27.949   1.339  10.961
76440W        W48854  10.257  13.734  12.853
76441W        W48855  41.443  40.426  13.898
76442W        W48856  28.949  39.962   1.770
76443W        W48857   6.693  30.022   3.162
76444W        W48858  44.306  22.656  10.541
76445W        W48859  17.246  40.415   2.669
76446W        W48860  33.942  22.044   0.880
76447W        W48861  25.120  27.480  14.900
76448W        W48862  43.860  39.549   2.693
76449W        W48863  15.748  13.603   1.728
76450W        W48864  34.890  30.934   4.250
76451W        W48865  43.381  41.415   4.619
76452W        W48866  14.773  17.620  10.621
76453W        W48867   6.421  32.580  14.992
76454W        W48868   6.417  25.097   4.722
76455W        W48869  14.611  14.261  11.016
76456W        W48870  38.863   6.418  11.921
76457W        W48871  44.342  12.613   1.210
76458W        W48872  36.372  14.280   3.236
76459W        W48873  25.693  39.861   3.355
76460W        W48874  12.254   2.435   4.280
76461W        W48875   3.410  32.613  10.541
76462W        W48876  24.149  39.503   0.870
76463W        W48877   3.883  28.105   0.777
76464W        W48878  37.894  38.455   4.180
76465W        W48879  10.650   8.813  10.527
76466W        W48880  16.306  15.611  12.857
76467W        W48881  22.210  29.966   4.173
76468W        W48882  16.219  27.537  13.024
76469W        W48883   6.324   1.844   9.945
76470W        W48884  15.800  37.981   3.695
76471W        W48885  28.961  38.404   2.664
76472W        W48886  39.415  25.606  10.462
76473W        W48887  21.587  25.679   3.755
76474W        W48888  19.555   3.276   3.289
76475W        W48889  43.974  27.637   4.131
76476W        W48890  22.548  26.519  11.607
76477W        W48891  38.568   1.464  14.995
76478W        W48892  34.435   3.337   0.424
76479W        W48893  25.470  18.621   5.225
76480W        W48894  10.362  16.161   0.387
76481W        W48895   4.311   2.363  10.539
76482W        W48896   3.834  25.677  11.874
76483W        W48897  21.128   0.903  14.503
76484W        W48898  18.078  27.498  14.878
76485W        W48899  40.466  10.348  14.910
76486W        W48900  19.219   6.287  14.431
76487W        W48901   2.453   6.812  11.459
76488W        W48902  20.684   8.724   1.337
76489W        W48903  41.034   3.767   1.446
76490W        W48904   9.266  22.015   3.823
76491W        W48905  22.740  35.931  14.967
76492W        W48906  34.087  35.358  11.978
76493W        W48907   1.469   6.678   1.410
76494W        W48908   8.700  16.141  14.021
76495W        W48909  13.181  26.492   0.471
76496W        W48910  29.649   6.253  11.969
76497W        W48911   8.380   6.765   3.812
76498W        W48912  29.557  29.505  12.485
76499W        W48913  23.666  24.226  12.374
76500W        W48914  28.026  20.603  10.638
76501W        W48915  14.238  23.135   3.308
76502W        W48916  13.177  28.640   0.840
76503W        W48917   6.222  17.259  12.016
76504W        W48918   1.443   3.326   2.345
76505W        W48919  12.677  14.331  11.078
76506W        W48920  32.109  44.945   4.710
76507W        W48921  18.704   9.304   4.249
76508W        W48922  39.848  27.085   4.597
76509W        W48923  24.993  22.556   4.181
76510W        W48924  42.382  23.715  12.031
76511W        W48925  13.658   6.697   2.849
76512W        W48926   8.311  12.721   2.243
76513W        W48927   6.914  27.063  10.519
76514W        W48928  28.139   8.655  11.104
76515W        W48929  15.723  40.327  13.879
76516W        W48930  42.379   1.399   1.434
76517W        W48931  12.783  19.661   3.700
76518W        W48932  18.266  43.977   3.666
76519W        W48933  32.449  20.624  13.387
76520W        W48934  37.581  35.449  14.288
76521W        W48935  17.113  38.435  14.882
76522W        W48936   7.861  12.721  14.340
76523W        W48937  13.619   0.450  14.464
76524W        W48938  26.658  41.990  13.354
76525W        W48939  19.613  30.938  13.903
76526W        W48940  35.523   1.832   0.354
76527W        W48941   2.347  12.342   2.229
76528W        W48942  20.104   0.262   5.568
76529W        W48943  14.153  10.303   3.329
76530W        W48944  39.888  39.462  11.441
76531W        W48945  39.480  35.420  11.588
76532W        W48946  26.975  35.594  13.893
76533W        W48947  24.484  17.559  11.972
76534W        W48948  20.198  44.809   1.298
76535W        W48949  25.139  20.702   3.242
76536W        W48950   2.240  33.948  10.626
76537W        W48951   4.849   7.352  13.022
76538W        W48952  16.086   0.801  14.795
76539W        W48953  24.104   5.337   0.938
76540W        W48954  18.673   5.695  10.640
76541W        W48955  28.672  36.092  11.415
76542W        W48956  21.564   1.290   1.394
76543W        W48957  16.758  10.363   0.817
76544W        W48958  11.800  28.185   4.689
76545W        W48959  22.029  19.050   2.889
76546W        W48960  10.707   4.275  10.438
76547W        W48961   1.893  25.128  11.563
76548W        W48962  15.268  10.210   2.755
76549W        W48963  33.545  39.409   1.329
76550W        W48964  32.565   5.431   3.274
76551W        W48965  21.148  21.567   3.229
76552W        W48966  30.034   3.284   4.689
76553W        W48967  25.630   8.891  13.472
76554W        W48968   4.380   1.248   4.323
76555W        W48969  34.905   9.303  14.348
76556W        W48970   9.175  42.968  13.424
76557W        W48971   2.752  15.127   0.793
76558W        W48972  14.657  15.325   4.772
76559W        W48973  12.230  26.972   2.681
76560W        W48974  12.633  42.939   1.718
76561W        W48975  11.345   2.966  13.372
76562W        W48976  34.885  14.638  10.452
76563W        W48977  31.459  25.698   0.930
76564W        W48978  42.813  15.328  14.461
76565W        W48979  15.087  29.000  13.954
76566W        W48980  13.671  42.983  13.052
76567W        W48981   3.881  28.082  10.500
76568W        W48982  18.712  34.371   1.721
76569W        W48983  37.011  28.655   2.851
76570W        W48984  18.191  43.450  11.961
76571W        W48985   3.341   4.752  12.513
76572W        W48986  28.023   5.898   3.194
76573W        W48987  31.058  41.534  13.955
76574W        W48988   3.259  15.262  13.492
76575W        W48989  24.497  15.182  12.939
76576W        W48990  44.843  27.045   1.245
76577W        W48991  22.180   4.783  12.540
76578W        W48992  32.910  43.804   3.711
76579W        W48993  26.084  26.163   1.811
76580W        W48994  33.972  22.018  13.485
76581W        W48995  25.220   5.807   4.300
76582W        W48996  29.464  36.078  10.950
76583W        W48997  22.734  23.735  11.003
76584W        W48998  26.627  40.040   1.791
76585W        W48999  20.606  39.332  11.492
76586W        W49000  15.151  11.803  14.950
76587W        W49001  20.551  37.980  12.869
76588W        W49002  37.518  44.905  10.530
76589W        W49003  28.049  16.803  14.853
76590W        W49004  40.436   8.260  13.389
76591W        W49005   7.171  10.223   3.285
76592W        W49006  14.816  14.791   3.369
76593W        W49007  34.934   4.897   1.293
76594W        W49008  25.027  25.627   0.885
76595W        W49009  43.307  18.685  14.903
76596W        W49010  18.143  44.981   5.106
76597W        W49011  10.672   8.683   0.315
76598W        W49012  12.124   2.251  11.927
76599W        W49013  13.642  24.105   2.724
76600W        W49014  27.680  39.492   1.279
76601W        W49015   3.723  23.140   3.249
76602W        W49016  39.946  22.057  14.479
76603W        W49017  10.343  28.172  11.025
76604W        W49018   5.209  12.752   1.918
76605W        W49019  39.877  11.288   2.306
76606W        W49020  28.554  37.504   4.348
76607W        W49021   0.433   0.370   2.672
76608W        W49022  42.961  28.675  12.900
76609W        W49023  39.359  12.719   2.772
76610W        W49024  37.896  37.542  10.519
76611W        W49025  40.405   9.251   3.655
76612W        W49026  37.390  42.843  10.644
76613W        W49027  23.029  10.240  13.455
76614W        W49028  16.710  10.331  10.953
76615W        W49029  27.450  28.509  13.847
76616W        W49030  22.744  25.509   4.266
76617W        W49031  10.701  40.316   0.368
76618W        W49032  29.651  14.241  11.943
76619W        W49033  39.558  16.189   2.209
76620W        W49034   2.355  10.311   4.751
76621W        W49035  36.476  16.211   4.641
76622W        W49036  24.032  25.711   4.188
76623W        W49037  42.985   6.718   3.263
76624W        W49038   0.390  20.112   2.879
76625W        W49039   4.205  42.525   5.280
76626W        W49040  33.456  14.187   4.297
76627W        W49041  20.579  19.176  13.430
76628W        W49042  28.033  26.647  13.528
76629W        W49043  19.633  28.161  11.413
76630W        W49044  17.180  39.868  12.013
76631W        W49045  12.119   1.371  12.018
76632W        W49046  14.114  20.241   9.989
76633W        W49047  39.348   1.441  10.957
76634W        W49048  39.946  18.128   1.265
76635W        W49049  35.923  22.111   0.862
76636W        W49050  22.563  26.021   2.700
76637W        W49051  44.423  13.209  10.988
76638W        W49052   7.290  35.467  13.910
76639W        W49053  37.417  18.070  13.496
76640W        W49054  10.749   2.422  11.041
76641W        W49055  44.861   5.827   1.445
76642W        W49056  29.050  10.153  11.435
76643W        W49057  41.527  39.371  14.297
76644W        W49058   8.711   4.369   4.737
76645W        W49059  32.032   6.394   4.729
76646W        W49060  14.110  42.022   2.752
76647W        W49061  10.217  17.611  12.488
76648W        W49062  16.641  26.479  11.864
76649W        W49063  38.928  24.062   2.847
76650W        W49064  32.929  41.521  12.353
76651W        W49065  15.700  17.072   3.261
76652W        W49066  30.476  44.841   4.247
76653W        W49067  31.143  16.252  12.877
76654W        W49068  37.838  11.323   4.695
76655W        W49069  17.131  28.178   3.362
76656W        W49070  44.979  13.751   3.257
76657W        W49071  10.865  36.957  12.479
76658W        W49072  29.555  41.787   4.756
76659W        W49073  37.834  40.851   2.361
76660W        W49074  37.527  11.769   5.228
76661W        W49075   4.307  26.087  10.046
76662W        W49076  35.882   3.364  14.953
76663W        W49077  13.343  36.848  13.915
76664W        W49078  28.455  34.888   3.851
76665W        W49079  16.672  24.028  11.409
76666W        W49080  30.145  41.980   3.699
76667W        W49081  23.691   4.920   4.781
76668W        W49082  20.234  35.381   2.733
76669W        W49083  38.539  24.619   2.401
76670W        W49084  33.463   4.333  13.808
76671W        W49085  31.517  34.941  14.829
76672W        W49086  19.080  30.039  11.412
76673W        W49087   9.149  21.160  13.334
76674W        W49088   8.710  14.173  14.423
76675W        W49089  35.919  24.578   1.284
76676W        W49090  31.975  35.079  12.407
76677W        W49091  16.257  12.129   0.460
76678W        W49092   4.821  13.832   0.813
76679W        W49093  10.224  13.737   1.341
76680W        W49094   3.862  34.895  11.090
76681W        W49095  25.685  14.715  12.377
76682W        W49096  11.629  44.872  14.476
76683W        W49097  15.762  30.651  13.527
76684W        W49098  34.425  36.456   4.227
76685W        W49099  11.774  40.924   3.277
76686W        W49100   0.488  31.914  12.871
76687W        W49101  43.275   3.854   1.791
76688W        W49102  36.865  20.689  12.956
76689W        W49103   7.177  36.402  10.455
76690W        W49104  41.841  27.623   3.219
76691W        W49105   6.814  29.546   4.837
76692W        W49106   1.276  18.617   3.195
76693W        W49107  16.168   8.253   9.524
76694W        W49108  35.996  16.730   2.367
76695W        W49109  41.908   8.669  12.344
76696W        W49110  43.846  41.806   2.817
76697W        W49111  44.883  34.100   3.677
76698W        W49112  23.715  42.490  14.938
76699W        W49113  41.458   8.384   4.330
76700W        W49114  44.492  40.398   1.725
76701W        W49115   1.457   7.812   2.202
76702W        W49116  29.583   6.904  10.573
76703W        W49117  18.778  34.433  10.892
76704W        W49118  39.516  43.837  12.938
76705W        W49119  37.489   5.210  12.848
76706W        W49120  21.634  28.087   2.733
76707W        W49121  13.128  38.363  13.820
76708W        W49122  36.534  38.569  12.048
76709W        W49123   2.275  16.241  12.062
76710W        W49124  17.258   4.440  12.909
76711W        W49125   6.803  22.628  12.560
76712W        W49126   2.797  30.629  11.112
76713W        W49127  26.674  24.579  13.952
76714W        W49128  13.138  21.067  14.915
76715W        W49129  25.130  27.152   0.474
76716W        W49130  31.905  44.868  12.895
76717W        W49131   3.314  39.484   4.616
76718W        W49132  33.938  21.638   4.599
76719W        W49133  35.075  16.123   1.266
76720W        W49134   6.691  17.631   2.263
76721W        W49135  39.973  33.620   2.848
76722W        W49136  42.810  18.785   1.234
76723W        W49137   1.360   8.314  10.483
76724W        W49138   0.404   7.802  10.915
76725W        W49139  37.381  42.944   2.232
76726W        W49140  28.612   3.398  12.011
76727W        W49141   3.785   5.730  12.549
76728W        W49142  17.623  26.681  14.324
76729W        W49143  38.372   6.725  14.460
76730W        W49144   3.391  11.337  14.359
76731W        W49145  39.559  27.530  14.003
76732W        W49146  23.139  35.069   0.848
76733W        W49147  40.922  33.890  13.429
76734W        W49148  31.581  42.379  14.777
76735W        W49149   2.856  31.421   1.438
76736W        W49150  25.128  29.079  14.977
76737W        W49151  32.041   9.338   2.708
76738W        W49152   0.355  26.141  14.760
76739W        W49153  17.208   5.702  12.417
76740W        W49154  34.592  22.606   0.348
76741W        W49155  14.816  35.019  14.894
76742W        W49156   4.221  44.375   3.669
76743W        W49157   4.891   7.865  14.934
76744W        W49158  30.568  39.881   0.451
76745W        W49159  40.915   2.385   3.691
76746W        W49160  10.794  44.864   4.118
76747W        W49161  43.374   0.324  12.486
76748W        W49162  12.172  25.619  14.428
76749W        W49163  41.812  35.880  13.932
76750W        W49164  42.308  33.566  12.550
76751W        W49165  11.262  32.070  10.906
76752W        W49166   3.408  19.046   0.922
76753W        W49167  18.227  43.805   0.316
76754W        W49168  19.120   4.765   1.426
76755W        W49169  40.360   6.746   0.965
76756W        W49170   4.734  23.168  14.838
76757W        W49171   6.332   0.962  12.466
76758W        W49172  33.595  15.690  10.466
76759W        W49173  10.789  30.970   2.763
76760W        W49174  21.516   8.259  13.346
76761W        W49175  31.085  32.573  14.951
76762W        W49176  37.897  21.538  11.946
76763W        W49177  30.043  37.882  12.481
76764W        W49178  39.480  17.741  14.279
76765W        W49179  18.146  37.897   3.248
76766W        W49180  30.417  24.571  11.113
76767W        W49181  36.488  24.216  11.878
76768W        W49182  34.604  43.496   2.337
76769W        W49183  23.636  34.015   0.396
76770W        W49184  40.329  27.987  11.941
76771W        W49185  28.062  33.991  10.471
76772W        W49186   7.792  33.600   5.110
76773W        W49187  31.579  26.196   2.756
76774W        W49188  19.772   6.416   3.871
76775W        W49189  33.541  19.757   2.391
76776W        W49190  38.053   4.925  14.953
76777W        W49191  11.725  32.091  10.621
76778W        W49192  15.679  28.953   2.215
76779W        W49193  44.845  39.945   2.774
76780W        W49194  30.545  29.635   0.732
76781W        W49195   3.367  33.014  13.453
76782W        W49196  12.121  24.615   2.834
76783W        W49197  44.954  16.182  14.364
76784W        W49198  32.540   9.156  14.378
76785W        W49199  44.770  31.570   0.920
76786W        W49200  32.973  32.070   4.819
76787W        W49201   4.390   7.707   3.665
76788W        W49202   2.805  44.389   0.328
76789W        W49203  40.950  44.437  11.573
76790W        W49204   3.839  15.670  14.505
76791W        W49205  22.718  26.008  14.480
76792W        W49206  34.894  14.195   3.822
76793W        W49207  37.850  15.313  10.933
76794W        W49208  22.538  32.974   4.157
76795W        W49209  31.910  22.081  11.036
76796W        W49210   8.179  36.942   1.427
76797W        W49211  38.880  23.238   2.844
76798W        W49212  37.370  10.681   4.260
76799W        W49213  26.478  25.560   4.694
76800W        W49214  40.875  16.074  13.407
76801W        W49215  28.002   4.804   4.123
76802W        W49216  35.078  38.515  12.571
76803W        W49217  28.072  38.369   3.820
76804W        W49218   8.289  43.912  14.449
76805W        W49219  19.690   9.176  13.483
76806W        W49220  33.468  30.097   0.385
76807W        W49221  24.662  36.577  13.894
76808W        W49222   0.322   8.830   2.736
76809W        W49223  34.464  44.389   2.201
76810W        W49224  24.025  31.070  13.945
76811W        W49225  23.188   0.798   4.716
76812W        W49226  13.160   5.759   4.195
76813W        W49227  13.632   0.924   2.191
76814W        W49228  10.313  13.773  14.467
76815W        W49229  13.162  40.417   1.410
76816W        W49230  43.316  40.013   0.315
76817W        W49231   5.689  43.504  11.563
76818W        W49232  23.079   9.759  11.030
76819W        W49233  17.074  31.632   2.350
76820W        W49234   4.787  37.978   0.300
76821W        W49235   8.859   3.386  10.628
76822W        W49236   2.790  21.187  14.930
76823W        W49237  37.356  36.472  13.896
76824W        W49238   0.749  37.006  14.783
76825W        W49239  29.136  35.371  14.291
76826W        W49240  11.289  36.942  12.921
76827W        W49241  29.995  30.007   0.315
76828W        W49242  37.570  30.146  11.110
76829W        W49243  33.558   7.387  12.918
76830W        W49244   8.387   0.942  11.862
76831W        W49245   1.878   0.458   1.798
76832W        W49246   9.865  29.454   2.218
76833W        W49247   9.353   8.298  13.946
76834W        W49248  11.777  44.308   5.281
76835W        W49249  42.031  29.989  13.449
76836W        W49250  27.454   9.810   4.326
76837W        W49251  16.585  40.314  13.022
76838W        W49252  34.899  13.167   4.631
76839W        W49253  40.369   1.316  14.906
76840W        W49254  22.502  34.958  11.967
76841W        W49255  25.552  18.115   3.828
76842W        W49256  33.568  37.026  13.323
76843W        W49257  23.151   3.747  13.974
76844W        W49258  38.859  37.551   2.892
76845W        W49259  32.025  13.257  12.468
76846W        W49260  10.146  10.205  11.001
76847W        W49261  44.392   6.418  13.812
76848W        W49262  30.437   3.911  10.605
76849W        W49263  13.706  43.794   4.701
76850W        W49264  34.561  33.392   3.703
76851W        W49265  38.068  39.384   4.660
76852W        W49266   9.816  27.557   3.197
76853W        W49267  16.275   0.401  14.851
76854W        W49268  27.976   2.257  10.975
76855W        W49269   7.173  31.585  12.405
76856W        W49270  17.218  29.006   9.961
76857W        W49271  19.667   8.834   3.370
76858W        W49272   8.373  41.815   0.845
76859W        W49273  20.579  27.949   3.154
76860W        W49274  13.302  17.131   1.716
76861W        W49275   1.301   9.209  11.379
76862W        W49276   3.878  25.566   9.591
76863W        W49277  43.480  13.807   1.412
76864W        W49278  27.134  21.042  13.907
76865W        W49279  34.873  19.570   5.109
76866W        W49280  31.944  17.280  10.627
76867W        W49281  26.984  34.391   2.705
76868W        W49282  21.070  26.161  13.976
76869W        W49283  26.480  32.905  10.531
76870W        W49284  23.533  37.994  14.495
76871W        W49285   9.206  43.357   4.759
76872W        W49286  39.407  29.563  13.005
76873W        W49287  16.680   9.707  13.971
76874W        W49288  17.558  32.935   0.341
76875W        W49289   1.269  22.066   4.792
76876W        W49290  23.608  43.375   1.231
76877W        W49291  23.175  22.163  13.516
76878W        W49292  14.187  33.610   2.773
76879W        W49293   5.729   9.752   1.723
76880W        W49294  24.504  28.520   4.689
76881W        W49295  29.488   0.755  11.920
76882W        W49296  21.516   7.715  14.507
76883W        W49297  35.452   3.286  12.936
76884W        W49298  20.135  41.392  11.524
76885W        W49299  10.239  24.054  14.903
76886W        W49300  14.258   4.278   0.421
76887W        W49301  16.161  14.236  13.536
76888W        W49302   0.911  16.082  11.568
76889W        W49303  39.337  10.186  13.360
76890W        W49304  25.699  35.869   3.299
76891W        W49305  24.985  39.809   2.325
76892W        W49306  28.184  37.380   0.943
76893W        W49307  26.176  34.568   0.818
76894W        W49308  12.683  21.512   3.273
76895W        W49309   1.929  28.624   1.841
76896W        W49310  25.120  29.426   3.213
76897W        W49311  21.102   0.767   4.700
76898W        W49312  19.239  27.534   3.746
76899W        W49313  17.246  17.687  12.354
76900W        W49314  33.446  17.146  11.102
76901W        W49315  22.656  19.589  14.012
76902W        W49316  36.471   8.190  13.958
76903W        W49317  16.266  32.498   3.768
76904W        W49318  28.132   9.889   2.274
76905W        W49319   6.283  43.339  13.893
76906W        W49320  25.195  44.914  11.610
76907W        W49321  14.679  14.181  14.007
76908W        W49322   4.407  44.383  14.940
76909W        W49323   9.771  18.739   2.247
76910W        W49324  13.613  16.123   1.907
76911W        W49325  33.999   8.262   0.844
76912W        W49326   8.218   4.355  13.903
76913W        W49327  12.698   1.949   2.199
76914W        W49328  40.374  40.021   1.793
76915W        W49329  32.525  19.192  10.426
76916W        W49330  43.015   1.826   3.662
76917W        W49331  10.201   5.742  13.876
76918W        W49332  30.123  34.984  11.908
76919W        W49333  15.627  13.250  12.829
76920W        W49334  35.047  17.758   1.412
76921W        W49335   5.717  29.996  14.960
76922W        W49336  24.040  33.409  14.426
76923W        W49337   2.387  41.426   3.636
76924W        W49338  18.580  27.014  14.309
76925W        W49339   7.782   3.311   1.393
76926W        W49340   4.289  33.044   4.311
76927W        W49341  12.133  23.033   1.232
76928W        W49342  32.632  23.548  13.308
76929W        W49343   3.810  14.271   1.255
76930W        W49344  36.573  35.529   4.603
76931W        W49345  43.351  33.437  12.866
76932W        W49346   6.744  28.617   0.954
76933W        W49347  38.892   3.253  10.081
76934W        W49348  31.561  27.944  13.868
76935W        W49349  13.719   7.398  12.855
76936W        W49350  15.150  40.975   4.323
76937W        W49351   1.389  13.659   1.902
76938W        W49352  40.984  30.926   2.216
76939W        W49353  41.342   8.802  12.007
76940W        W49354  21.198  24.191   2.754
76941W        W49355  21.111  31.983  14.017
76942W        W49356   0.905  14.129  14.382
76943W        W49357  20.158  31.141  10.930
76944W        W49358  17.790   4.809  13.926
76945W        W49359  16.200  33.952  13.049
76946W        W49360  24.216  27.552   0.743
76947W        W49361  26.176  43.515  12.858
76948W        W49362   2.388  35.388  12.570
76949W        W49363  33.551   9.723   4.151
76950W        W49364  13.830  16.669  14.434
76951W        W49365  26.568  18.668  10.917
76952W        W49366  32.504   6.306  12.375
76953W        W49367  18.561  22.601  11.982
76954W        W49368  38.893  32.393   2.298
76955W        W49369  18.058  30.542  12.988
76956W        W49370  42.362   5.225   1.928
76957W        W49371  15.183  11.714   4.810
76958W        W49372  10.297  16.706  12.953
76959W        W49373  28.657  13.742  13.409
76960W        W49374   7.189  36.878   4.760
76961W        W49375  23.494  31.453  10.512
76962W        W49376   6.741  35.965  14.885
76963W        W49377  29.163   9.697   3.840
76964W        W49378  25.049  43.509   4.282
76965W        W49379  14.191  10.691  13.052
76966W        W49380   3.251  19.691   1.775
76967W        W49381  11.190  43.279  11.552
76968W        W49382  12.669  25.648  13.462
76969W        W49383  16.609  35.101  14.027
76970W        W49384   3.853  19.097   0.933
76971W        W49385   1.815  29.950   1.887
76972W        W49386   6.884  12.333  10.644
76973W        W49387  14.765  17.562   3.290
76974W        W49388  38.862  22.046   4.171
76975W        W49389  19.756   6.217  14.975
76976W        W49390   9.249  21.717   4.701
76977W        W49391  41.809  20.744   1.281
76978W        W49392  17.302  22.713   2.877
76979W        W49393  20.526  34.595   0.910
76980W        W49394  12.225  33.406   1.756
76981W        W49395  28.937  10.181  14.436
76982W        W49396   9.307  18.169  10.975
76983W        W49397   9.189  12.144   2.721
76984W        W49398  37.004  23.598  13.938
76985W        W49399   2.370  23.642   3.695
76986W        W49400  21.686   0.265   0.925
76987W        W49401  30.500   9.726  10.926
76988W        W49402  36.046  25.516   4.754
76989W        W49403  10.727   8.315  13.840
76990W        W49404  13.288  44.807  11.955
76991W        W49405   5.707  26.520   0.912
76992W        W49406   0.795  30.539  14.355
76993W        W49407  30.138  26.577  12.362
76994W        W49408  25.014  43.004  14.897
76995W        W49409  10.860   3.255  12.391
76996W        W49410  10.752  42.441   0.304
76997W        W49411  12.173  26.579   3.743
76998W        W49412  31.423   9.179   0.423
76999W        W49413  19.248  42.333  10.091
77000W        W49414  44.967  26.174   2.339
77001W        W49415  35.003  35.414   4.798
77002W        W49416  28.665  21.071   3.268
77003W        W49417  30.503   3.356   2.242
77004W        W49418  23.579  15.217   2.777
77005W        W49419  27.062  32.122   2.289
77006W        W49420  19.251  13.681   1.894
77007W        W49421   7.200  39.974   1.826
77008W        W49422  29.509  24.001  10.578
77009W        W49423   2.819  13.796  10.986
77010W        W49424  25.525  38.931  13.389
77011W        W49425  21.558  41.924   4.735
77012W        W49426   7.887  15.292  13.011
77013W        W49427   5.329  41.450   0.963
77014W        W49428  37.439  37.010  11.978
77015W        W49429  44.274  25.024  14.886
77016W        W49430   8.859   3.290   1.832
77017W        W49431  36.903  35.393   5.758
77018W        W49432  41.934   3.379  11.948
77019W        W49433  37.977   7.746  10.408
77020W        W49434  41.919  37.480   5.228
77021W        W49435  10.859  20.691  11.488
77022W        W49436  29.160   0.353   4.271
77023W        W49437  19.571  35.056   3.744
77024W        W49438  21.656  42.916  14.906
77025W        W49439  23.125  23.580  14.931
77026W        W49440  35.103   2.734  11.459
77027W        W49441  40.306  11.206   0.293
77028W        W49442   7.242  30.021   4.758
77029W        W49443   5.762  31.542   2.236
77030W        W49444  33.447  20.239   2.730
77031W        W49445   2.404  29.572   0.963
77032W        W49446   6.265  35.852   3.228
77033W        W49447  27.445   7.304  11.398
77034W        W49448   8.665  40.049  11.564
77035W        W49449   0.883  20.575   2.327
77036W        W49450  39.991   1.254   3.321
77037W        W49451  35.448  32.012   0.912
77038W        W49452   2.845  38.989  13.329
77039W        W49453   5.362  31.610   4.828
77040W        W49454  28.451  24.014   0.288
77041W        W49455  12.141  16.269   2.677
77042W        W49456  43.486  43.449   3.215
77043W        W49457   4.393  29.500  10.490
77044W        W49458  35.580  24.997  12.354
77045W        W49459   0.944  32.004   2.250
77046W        W49460  10.861   1.969  12.382
77047W        W49461   5.241   9.767   3.265
77048W        W49462  38.480   2.363   1.697
77049W        W49463  44.282  30.476   3.314
77050W        W49464  24.655   2.266   0.802
77051W        W49465  31.648  10.241   0.767
77052W        W49466   6.753   6.223  11.566
77053W        W49467   7.204  35.379   0.908
77054W        W49468  20.713  17.582  14.934
77055W        W49469   4.266  20.623  13.422
77056W        W49470  11.156   1.968  11.887
77057W        W49471  14.597   6.237   0.855
77058W        W49472  37.357   0.489   2.704
77059W        W49473   2.418   3.719  13.946
77060W        W49474  17.764   4.916   1.850
77061W        W49475  23.523   1.884  11.398
77062W        W49476  15.675  28.496   2.672
77063W        W49477  36.883   8.767  11.079
77064W        W49478  33.010  36.868  14.344
77065W        W49479  28.666   5.432  13.813
77066W        W49480  21.608  21.714   2.347
77067W        W49481  25.663   2.782  12.421
77068W        W49482  43.785  24.172  11.603
77069W        W49483  12.185  22.557   2.390
77070W        W49484  42.901  34.899  13.910
77071W        W49485  19.172   5.283   2.376
77072W        W49486  17.561  44.945  12.420
77073W        W49487   7.363   7.272  11.895
77074W        W49488  44.773  29.606  14.952
77075W        W49489  28.076  35.402   4.191
77076W        W49490   7.768  17.798  12.538
77077W        W49491  35.991  19.059   4.644
77078W        W49492  32.430  44.493  11.477
77079W        W49493   3.421  25.487   4.213
77080W        W49494  31.983  18.581  10.954
77081W        W49495  29.123   8.855  13.455
77082W        W49496  29.493  38.424   1.713
77083W        W49497  16.187   4.368  13.966
77084W        W49498   2.342  19.694  14.973
77085W        W49499  30.542  10.380   5.215
77086W        W49500  20.580  18.554   0.437
77087W        W49501  39.954  30.989  12.436
77088W        W49502   6.919  11.247  11.114
77089W        W49503  19.196  27.542  12.866
77090W        W49504  18.252  22.737  14.771
77091W        W49505  20.092  16.166  13.454
77092W        W49506  27.554  12.171   1.738
77093W        W49507  13.212  10.144   3.302
77094W        W49508  19.594   5.326  14.447
77095W        W49509  21.030  16.197   2.855
77096W        W49510  44.301  10.148  14.937
77097W        W49511  19.254  20.073   1.836
77098W        W49512  34.927   6.747   3.219
77099W        W49513  33.968  36.442  12.447
77100W        W49514   3.890  30.419  13.535
77101W        W49515  39.413   6.188   1.726
77102W        W49516  28.572  31.045  11.030
77103W        W49517  38.076  34.894  10.610
77104W        W49518  32.016  44.351  11.884
77105W        W49519  16.311  13.604   2.322
77106W        W49520   7.698  25.010  14.813
77107W        W49521   7.296  20.160  13.519
77108W        W49522   1.925  41.834   4.817
77109W        W49523  37.395  11.768  11.537
77110W        W49524  31.082   1.777   1.279
77111W        W49525  17.231  13.737   1.782
77112W        W49526  34.118  16.144  11.547
77113W        W49527  23.508  23.551   2.385
77114W        W49528  40.510   0.324   4.705
77115W        W49529  14.161  33.108   1.213
77116W        W49530  40.910  13.227  11.109
77117W        W49531  32.584  43.477   3.197
77118W        W49532  27.528  13.674  11.908
77119W        W49533  23.583  43.469   1.855
77120W        W49534  37.881   7.264  14.399
77121W        W49535  40.544  15.578   4.687
77122W        W49536   8.709  40.989   4.763
77123W        W49537  19.144  13.676   3.235
77124W        W49538  11.772  44.979   1.750
77125W        W49539  16.189  24.479  10.534
77126W        W49540  41.386  10.235   2.274
77127W        W49541  32.636  11.842  14.791
77128W        W49542  19.211  19.564  14.849
77129W        W49543   2.344   2.267   0.920
77130W        W49544  37.568  42.817  11.995
77131W        W49545  36.400  14.121  14.292
77132W        W49546   8.224  18.131   4.817
77133W        W49547  24.545   6.692   4.829
77134W        W49548  16.261   0.983  12.986
77135W        W49549  41.292  28.559  12.005
77136W        W49550  39.843   0.758  14.769
77137W        W49551   3.367  22.691  13.318
77138W        W49552  21.569  28.566  12.088
77139W        W49553   9.833  40.862  13.978
77140W        W49554  41.493  21.568  11.423
77141W        W49555   9.813  26.567   2.720
77142W        W49556  36.994  27.949   1.836
77143W        W49557  19.630  18.080  12.938
77144W        W49558  21.607  25.504   1.712
77145W        W49559  11.348  16.128   2.826
77146W        W49560  42.494  40.476  13.361
77147W        W49561   7.404  38.883  14.434
77148W        W49562  17.163  15.753   2.319
77149W        W49563  33.956  42.845   0.805
77150W        W49564   1.818  17.704   4.651
77151W        W49565  32.439  17.272   2.315
77152W        W49566  38.411  21.697   0.286
77153W        W49567  37.504  15.731  11.088
77154W        W49568   6.314  15.230  13.989
77155W        W49569  38.522  39.522  14.411
77156W        W49570  13.799  15.219   0.730
77157W        W49571  23.198   5.790  11.080
77158W        W49572  11.274  17.739  11.952
77159W        W49573  40.838   1.830  12.346
77160W        W49574   5.884  40.908  10.504
77161W        W49575  15.654  38.547  13.490
77162W        W49576   0.810   5.698  13.062
77163W        W49577  23.637  35.912  11.858
77164W        W49578   0.363   1.272   2.267
77165W        W49579  13.789  44.389  11.465
77166W        W49580   2.910  12.731   0.798
77167W        W49581  26.629  10.784  13.986
77168W        W49582  26.502  32.488   3.183
77169W        W49583  31.414  37.361   3.672
77170W        W49584   3.907  26.066   9.962
77171W        W49585  17.265   1.454  13.372
77172W        W49586  44.294  37.493   0.752
77173W        W49587  38.822  37.083  11.890
77174W        W49588  36.495  43.306  11.594
77175W        W49589   6.343  13.244  14.346
77176W        W49590   4.272  30.461   3.773
77177W        W49591  22.706  23.549  13.039
77178W        W49592   0.344  21.711   3.679
77179W        W49593  38.840  41.923  14.929
77180W        W49594  32.522  16.721   2.897
77181W        W49595  23.518  27.543   2.718
77182W        W49596  41.382   3.951  10.628
77183W        W49597  10.727  10.175  11.497
77184W        W49598  31.437  41.797   2.825
77185W        W49599  38.015  42.812  12.498
77186W        W49600   1.255   5.222   1.896
77187W        W49601  41.480  40.333   4.652
77188W        W49602  25.580   2.902  11.470
77189W        W49603  17.108  25.966   9.923
77190W        W49604  19.605  20.553  14.492
77191W        W49605   3.735  10.762   3.649
77192W        W49606  14.817  17.753   2.372
77193W        W49607   9.394   3.709   4.343
77194W        W49608  14.274  17.624   3.297
77195W        W49609  17.633  13.600   0.933
77196W        W49610  25.523   1.893   5.632
77197W        W49611  21.106  27.023   4.120
77198W        W49612  20.131   1.844  12.502
77199W        W49613  29.481  12.783  11.036
77200W        W49614  15.673   2.262  10.568
77201W        W49615  37.953   0.793   0.289
77202W        W49616  39.924  36.896   3.726
77203W        W49617  15.679   5.717   0.895
77204W        W49618  41.389  32.965   1.878
77205W        W49619  34.033  37.546   1.382
77206W        W49620  29.157   5.749   1.793
77207W        W49621  36.899  22.069   4.201
77208W        W49622  37.955  16.803  10.558
77209W        W49623  17.185  25.029  14.316
77210W        W49624  23.211   8.697  11.943
77211W        W49625   4.937   1.906  13.908
77212W        W49626  18.551  27.190   2.699
77213W        W49627  39.005  32.417   3.150
77214W        W49628  22.537  43.475  13.411
77215W        W49629  27.639  35.455   0.744
77216W        W49630  12.354  26.052  12.483
77217W        W49631  43.492  35.445  12.921
77218W        W49632  26.530  13.728  14.008
77219W        W49633   4.803   0.445   4.740
77220W        W49634  16.768  31.536   4.292
77221W        W49635  27.669  33.053   2.806
77222W        W49636  33.423   2.407   5.187
77223W        W49637   8.882   5.216   2.310
77224W        W49638  24.539  18.191   5.632
77225W        W49639  31.967   2.306  11.536
77226W        W49640  43.292   7.871   1.784
77227W        W49641  33.472   1.250   0.305
77228W        W49642   1.891  36.393   4.263
77229W        W49643  37.373  43.949  10.996
77230W        W49644  36.580  30.425  10.576
77231W        W49645  27.993  42.281   2.689
77232W        W49646  17.606  24.601  12.570
77233W        W49647  43.016  14.621   0.312
77234W        W49648  40.919   5.384  12.567
77235W        W49649  32.898   1.750  13.307
77236W        W49650  31.154  30.973   4.797
77237W        W49651   9.335  27.949  11.899
77238W        W49652   1.903  14.201  11.000
77239W        W49653  36.068  37.578  10.517
77240W        W49654   4.351   0.769   1.333
77241W        W49655  11.829  39.040  11.406
77242W        W49656  25.482  42.503  10.954
77243W        W49657   0.777  25.121  14.765
77244W        W49658  32.936  15.083  13.053
77245W        W49659  29.027   4.264  11.035
77246W        W49660  28.574  23.506   2.240
77247W        W49661   0.417  26.590   3.713
77248W        W49662  12.799  37.558  11.120
77249W        W49663  16.628   7.715   0.308
77250W        W49664  29.968  39.969  10.991
77251W        W49665  10.863  37.979  11.010
77252W        W49666  28.518  43.916   2.322
77253W        W49667  32.517  25.212   3.260
77254W        W49668  10.661  18.111   4.649
77255W        W49669  13.218  29.484  14.813
77256W        W49670  17.748  14.736  14.302
77257W        W49671  15.088  23.174  14.879
77258W        W49672  43.502  31.418  14.841
77259W        W49673  26.064   3.417  12.964
77260W        W49674  16.163  38.068   0.415
77261W        W49675  41.461  19.138   0.283
77262W        W49676   7.326  33.465   1.766
77263W        W49677  35.474   3.749  12.485
77264W        W49678  35.092  11.831   4.791
77265W        W49679  28.011  18.107  10.423
77266W        W49680  20.631   0.470  13.897
77267W        W49681  12.685  22.242   2.829
77268W        W49682  21.690  10.753  14.421
77269W        W49683   3.295  36.532  13.999
77270W        W49684  19.054  44.406   2.315
77271W        W49685  34.950   8.241   4.352
77272W        W49686   0.889   9.853  14.399
77273W        W49687  18.548   8.657  14.276
77274W        W49688  20.603  10.265  13.007
77275W        W49689  35.871  23.214  12.564
77276W        W49690   1.468  34.036   0.804
77277W        W49691  14.224  19.181   2.293
77278W        W49692  26.095  41.904  13.914
77279W        W49693  41.888  33.070  10.930
77280W        W49694  18.569  37.550  13.990
77281W        W49695  25.705   7.845  14.472
77282W        W49696  24.982   4.377  14.393
77283W        W49697  25.617  43.989  14.836
77284W        W49698  38.350   3.440   3.665
77285W        W49699   5.288   8.802   2.769
77286W        W49700  20.667  24.497   4.833
77287W        W49701  28.611   1.382  12.886
77288W        W49702  28.147  26.503  11.858
77289W        W49703  39.943  12.131  14.359
77290W        W49704  35.549  21.146  11.574
77291W        W49705  27.129  27.051  10.957
77292W        W49706  20.748   7.870   3.744
77293W        W49707  43.365  43.893   0.958
77294W        W49708   1.899  25.137   0.926
77295W        W49709  34.459  15.134  14.985
77296W        W49710  31.487  29.987   1.447
77297W        W49711  18.637   8.888   0.958
77298W        W49712  14.302  30.573   3.279
77299W        W49713  15.133  20.672  13.529
77300W        W49714  23.989  25.689  12.379
77301W        W49715  10.841  29.494  11.436
77302W        W49716  41.004  15.185  12.907
77303W        W49717  33.966  13.115  11.388
77304W        W49718  13.797   1.939   0.379
77305W        W49719  44.284  35.019  14.856
77306W        W49720   4.287  10.788   2.371
77307W        W49721   7.873   2.452  11.551
77308W        W49722  16.107  15.168   3.302
77309W        W49723  20.188   0.308   1.815
77310W        W49724  37.979  42.502  13.349
77311W        W49725  14.232  35.023   5.246
77312W        W49726  36.852  20.665  14.857
77313W        W49727   9.186  22.117   0.728
77314W        W49728  32.420  19.252  12.516
77315W        W49729  39.397   0.326   1.225
77316W        W49730  33.978  27.553   0.764
77317W        W49731  19.763  25.970  10.501
77318W        W49732  20.659  38.893   2.723
77319W        W49733  31.491  31.924   0.475
77320W        W49734  17.728  16.806   1.910
77321W        W49735   7.178   6.845   1.362
77322W        W49736  16.172  41.987   0.795
77323W        W49737  19.196  16.132   2.247
77324W        W49738  43.395   7.303  12.991
77325W        W49739  13.653  11.184   4.647
77326W        W49740  28.488  32.016   3.222
77327W        W49741  41.529  21.754   2.269
77328W        W49742   1.304  20.254  10.513
77329W        W49743  32.103  25.974   9.925
77330W        W49744  22.703   6.299   4.695
77331W        W49745  22.517  27.517   0.919
77332W        W49746  42.339  21.068  14.014
77333W        W49747  42.354  40.861  10.988
77334W        W49748   9.747   0.930   4.750
77335W        W49749  14.286  37.048   1.412
77336W        W49750   9.732  20.551   0.479
77337W        W49751   9.249  40.437   0.865
77338W        W49752  32.970  21.123  10.124
77339W        W49753  28.619  29.505  11.417
77340W        W49754  36.062  24.600  10.991
77341W        W49755  31.594  42.323   0.277
77342W        W49756  33.622  19.094  10.043
77343W        W49757  43.365  42.901  13.967
77344W        W49758   3.817  40.943  10.970
77345W        W49759   2.347  38.936  10.430
77346W        W49760   9.164   6.792  13.956
77347W        W49761   1.880  25.594  11.877
77348W        W49762  43.838  17.162   2.387
77349W        W49763  34.565  27.197  11.887
77350W        W49764  20.676  30.118  13.991
77351W        W49765  15.598  44.375   3.649
77352W        W49766  20.767  36.985  10.981
77353W        W49767  38.437  38.985  10.525
77354W        W49768  43.337  43.858  10.900
77355W        W49769  43.366  18.602   3.629
77356W        W49770  36.014  28.002  13.347
77357W        W49771  43.836  15.771   1.816
77358W        W49772  19.099  11.273  11.518
77359W        W49773  42.907   2.823  14.785
77360W        W49774  24.515  43.479   2.699
77361W        W49775  16.785  19.694   3.225
77362W        W49776  38.413  14.811   1.371
77363W        W49777  42.960  10.141   3.297
77364W        W49778  12.223  37.478   3.351
77365W        W49779  12.207  36.563  10.596
77366W        W49780  14.294  32.921   3.867
77367W        W49781   4.338  24.699  14.992
77368W        W49782  38.343  38.976   4.667
77369W        W49783  31.982  25.557   3.362
77370W        W49784  38.356  13.122  14.938
77371W        W49785   1.481   7.350   3.856
77372W        W49786  16.264  41.839  13.017
77373W        W49787  30.979  34.920  11.072
77374W        W49788  29.090  24.610   0.429
77375W        W49789  20.529  34.006   2.677
77376W        W49790  36.357  33.091   1.331
77377W        W49791  27.498  41.340  10.963
77378W        W49792  29.141  25.625  12.460
77379W        W49793  14.819  41.386  12.580
77380W        W49794   2.231  36.892   1.927
77381W        W49795  36.560  25.630   4.655
77382W        W49796  12.805  42.284   2.346
77383W        W49797   5.765  14.131  11.467
77384W        W49798  18.288  17.244   0.881
77385W        W49799  24.085   8.400   1.912
77386W        W49800  43.973  28.453  11.574
77387W        W49801  18.292  33.917  13.922
77388W        W49802  40.807   5.691  12.998
77389W        W49803  29.142   3.345  13.508
77390W        W49804  41.037  28.002   4.703
77391W        W49805  15.728  43.272  11.951
77392W        W49806  35.532  34.880  11.879
77393W        W49807  20.187  12.320  13.059
77394W        W49808   4.374   4.329   1.332
77395W        W49809   2.816  37.452   2.265
77396W        W49810  12.840  38.998   3.691
77397W        W49811  25.053  21.641  10.946
77398W        W49812  44.398  36.999   0.248
77399W        W49813   6.859  12.781   4.792
77400W        W49814  44.990  22.543   4.275
77401W        W49815  36.519  17.131  12.865
77402W        W49816   2.299  11.153   0.887
77403W        W49817  11.143  38.438  14.339
77404W        W49818   7.748  22.250  14.795
77405W        W49819  44.964  30.587   4.773
77406W        W49820  36.495   0.436  11.060
77407W        W49821   8.891  43.767  13.420
77408W        W49822   6.356   4.812  12.900
77409W        W49823  33.042  22.533   1.299
77410W        W49824  31.598  30.112  12.075
77411W        W49825  29.595  31.623  11.494
77412W        W49826  36.005  11.357   3.154
77413W        W49827  26.536  34.961  14.906
77414W        W49828  24.665  36.486  11.606
77415W        W49829  32.469  41.350  10.411
77416W        W49830   6.346   8.200  11.387
77417W        W49831  41.364  30.458  14.852
77418W        W49832   7.304  40.359  12.940
77419W        W49833  12.845  34.483  10.596
77420W        W49834  14.650  33.979  13.812
77421W        W49835  26.669  43.290   0.445
77422W        W49836  18.611  28.473  10.510
77423W        W49837  42.848   8.834  13.329
77424W        W49838  25.709  26.196   0.264
77425W        W49839  35.477  35.083   4.263
77426W        W49840   6.237  30.162   2.865
77427W        W49841   7.264  29.127  11.923
77428W        W49842  39.011  32.625  10.917
77429W        W49843  25.067   1.732   3.322
77430W        W49844   7.307  13.313  12.516
77431W        W49845  40.441  28.671   2.890
77432W        W49846  31.633  32.401  14.858
77433W        W49847  28.455  42.877  10.437
77434W        W49848  27.057   3.413  11.470
77435W        W49849  10.696  13.655   1.342
77436W        W49850  10.255  23.175  12.888
77437W        W49851  15.098  24.998  11.547
77438W        W49852  24.067  17.681   2.838
77439W        W49853  17.263  13.721   0.441
77440W        W49854  27.574  34.394  10.430
77441W        W49855  28.957  38.332  13.442
77442W        W49856  28.606  12.126  10.459
77443W        W49857  20.156   1.354  13.395
77444W        W49858  42.827  26.098  14.796
77445W        W49859  18.662  31.014   3.770
77446W        W49860  22.193   4.922   3.870
77447W        W49861  20.113  20.271   0.474
77448W        W49862  40.827  13.797  12.426
77449W        W49863  26.631  39.017   4.603
77450W        W49864   4.731  20.590   1.410
77451W        W49865  19.574   9.265  14.453
77452W        W49866  33.108  25.081   1.390
77453W        W49867  17.219  21.052  10.470
77454W        W49868   7.417  42.793   3.359
77455W        W49869  24.599  17.198  13.441
77456W        W49870  25.988  21.550  10.571
77457W        W49871   1.354  40.923  11.494
77458W        W49872  18.767  29.565  14.998
77459W        W49873  14.334  15.183   1.417
77460W        W49874  42.790  19.652   4.742
77461W        W49875  33.583  15.204   2.883
77462W        W49876   4.386  14.333   2.257
77463W        W49877  17.730  33.582  11.043
77464W        W49878  13.761   5.220  13.320
77465W        W49879  11.760   1.804  13.050
77466W        W49880  27.191  44.440   2.846
77467W        W49881  29.940  12.177   2.888
77468W        W49882   4.812   5.423  14.947
77469W        W49883  32.507   5.280   0.938
77470W        W49884  21.171  24.091   2.337
77471W        W49885  38.355   9.669  12.366
77472W        W49886   7.250  20.651  13.035
77473W        W49887   6.295  42.511   0.397
77474W        W49888   6.248  11.671  11.602
77475W        W49889   3.314  27.541   1.327
77476W        W49890  13.225   9.338  12.383
77477W        W49891  38.336  35.978   3.213
77478W        W49892   9.791  15.787   2.253
77479W        W49893  35.391  22.041   2.231
77480W        W49894  23.513  19.671  14.774
77481W        W49895  36.504  36.987  12.091
77482W        W49896  25.642  17.644   2.671
77483W        W49897  18.679  44.786   3.685
77484W        W49898   7.847  10.293   3.709
77485W        W49899  39.424  36.004  11.855
77486W        W49900  40.875   3.882  14.341
77487W        W49901  25.024  24.651   1.211
77488W        W49902  35.377  10.729   0.868
77489W        W49903   1.842  11.766  11.857
77490W        W49904  14.282  41.445   0.833
77491W        W49905  13.349  33.432   2.823
77492W        W49906  33.077   8.769  13.507
77493W        W49907  36.917  20.243  13.392
77494W        W49908  33.964  27.989   0.878
77495W        W49909  11.271  17.266  12.025
77496W        W49910  12.161   2.965  12.397
77497W        W49911  31.533  26.046  12.062
77498W        W49912   6.808  28.064   0.338
77499W        W49913  29.148  11.138   1.419
77500W        W49914  19.606  41.019   0.934
77501W        W49915  34.589  17.670  10.917
77502W        W49916   0.430  25.082   2.241
77503W        W49917  16.307  11.857  13.531
77504W        W49918  36.079  28.093   0.447
77505W        W49919  25.052   9.797  10.486
77506W        W49920   9.306   1.779  12.541
77507W        W49921  28.066  15.745   1.864
77508W        W49922  31.124   0.825  10.043
77509W        W49923   9.801  18.570  11.555
77510W        W49924   6.843   5.438  12.537
77511W        W49925  34.964   0.369   2.251
77512W        W49926  22.594  10.186   5.321
77513W        W49927  42.797  42.804  13.431
77514W        W49928  32.899   8.846  11.004
77515W        W49929  10.848  40.914  14.425
77516W        W49930  39.859   4.324  10.902
77517W        W49931   6.917   9.787  12.370
77518W        W49932  41.849   3.254   0.351
77519W        W49933   0.857  11.817  11.384
77520W        W49934  31.033  12.193   1.358
77521W        W49935   8.828   1.299   0.338
77522W        W49936  25.059  38.541  13.353
77523W        W49937  23.564  37.429  11.500
77524W        W49938  17.082  26.617   2.763
77525W        W49939  37.569  13.220  14.320
77526W        W49940  40.460  19.245  13.399
77527W        W49941  22.691  21.680   0.803
77528W        W49942  39.513  28.465  10.530
77529W        W49943  23.148  44.297  13.801
77530W        W49944  15.759  22.233  14.400
77531W        W49945  38.474  19.142   2.728
77532W        W49946  16.722  20.066   2.388
77533W        W49947  29.438  26.577   4.620
77534W        W49948  29.450   9.310   0.356
77535W        W49949   8.851  30.128  14.420
77536W        W49950  13.633   8.737  11.100
77537W        W49951  12.288  29.080  14.775
77538W        W49952  31.948  17.615  13.352
77539W        W49953  35.052  24.499  13.794
77540W        W49954  35.987  24.175   2.700
77541W        W49955  27.574  41.942  11.409
77542W        W49956  21.156  29.020  14.479
77543W        W49957  19.732  44.260  13.343
77544W        W49958  44.847  40.882   2.883
77545W        W49959  40.891  19.598   3.349
77546W        W49960   9.272   1.346  11.007
77547W        W49961   3.373  20.668  14.004
77548W        W49962  44.009  26.505   1.229
77549W        W49963   0.817  13.348  11.592
77550W        W49964  25.090  17.640  11.476
77551W        W49965  44.887  41.877   0.942
77552W        W49966  44.939   5.782  11.927
77553W        W49967  26.972  43.436  14.793
77554W        W49968  23.125   4.269   2.785
77555W        W49969   1.830  27.112  14.903
77556W        W49970  35.474  12.806   4.721
77557W        W49971  19.112  14.214  11.060
77558W        W49972  10.162  27.169  12.878
77559W        W49973   3.829  27.154   9.507
77560W        W49974  10.878  23.047   1.241
77561W        W49975   7.360  30.547  11.581
77562W        W49976   5.284  36.857  11.535
77563W        W49977  28.674   3.403  14.879
77564W        W49978   8.328  37.924   0.751
77565W        W49979  34.540  29.127  13.793
77566W        W49980  21.176  30.010  14.402
77567W        W49981  11.678  26.545  11.098
77568W        W49982  37.383  10.152   3.322
77569W        W49983   6.184  38.365   4.767
77570W        W49984  39.492  24.066   2.849
77571W        W49985  43.875   9.730   3.837
77572W        W49986  25.646  36.475  11.999
77573W        W49987  18.763  27.952   5.169
77574W        W49988  36.479  23.516   5.274
77575W        W49989  32.057   1.782  14.906
77576W        W49990  29.023  40.918  11.479
77577W        W49991  17.281  28.157  12.965
77578W        W49992  12.684  31.500   4.823
77579W        W49993   4.766  24.652  14.280
77580W        W49994  20.133  21.650  11.918
77581W        W49995   8.323  25.553  12.454
77582W        W49996   0.397  32.020   0.417
77583W        W49997  11.265  35.972   4.835
77584W        W49998  17.089  28.501  11.963
77585W        W49999  37.053  40.901  11.114
77586W        W50000   2.814  17.201  11.050
77587W        W50001   6.708  32.138   1.397
77588W        W50002  12.319   1.313  13.958
77589W        W50003   1.875  21.094  13.984
77590W        W50004  27.679  17.190   1.346
77591W        W50005   4.768   7.681  14.310
77592W        W50006  26.470  31.513   3.768
77593W        W50007   3.331  12.339  13.507
77594W        W50008  16.582  35.062   4.176
77595W        W50009  16.099  36.476   2.304
77596W        W50010  11.368  23.211  12.953
77597W        W50011   5.771  33.042  11.456
77598W        W50012  36.494  36.394   2.760
77599W        W50013   0.459  17.646  14.939
77600W        W50014  37.410  17.125   4.769
77601W        W50015   3.353   5.259   1.439
77602W        W50016  35.038  29.104  10.433
77603W        W50017   4.741  39.874  10.916
77604W        W50018  27.658  26.459  14.913
77605W        W50019  44.008  35.877   0.850
77606W        W50020  17.254  33.070   2.820
77607W        W50021  36.437   3.256   0.951
77608W        W50022   6.921  31.129  12.979
77609W        W50023  27.949  12.834  14.794
77610W        W50024   9.735  13.782   1.735
77611W        W50025  28.135  28.585   1.248
77612W        W50026  37.830  19.726   4.268
77613W        W50027  28.585  19.247  10.469
77614W        W50028  33.063  12.693  13.830
77615W        W50029  39.393  13.143  12.362
77616W        W50030   4.852  18.615   0.389
77617W        W50031  19.277   5.302  11.895
77618W        W50032  12.644  33.920  14.405
77619W        W50033   4.879  36.432   3.312
77620W        W50034  23.493  34.517  11.592
77621W        W50035  37.487  27.047   3.153
77622W        W50036  31.977  16.190  10.898
77623W        W50037  40.896  33.458  10.623
77624W        W50038   3.244  20.699   4.150
77625W        W50039  31.511  16.665   4.756
77626W        W50040   2.819  44.367  12.913
77627W        W50041  34.568  24.578  10.536
77628W        W50042  38.031  15.262  14.340
77629W        W50043  38.934  16.100  13.822
77630W        W50044  36.404   6.856  10.549
77631W        W50045  35.021   5.698   1.881
77632W        W50046  22.121  36.054  11.937
77633W        W50047   5.893  40.511   1.365
77634W        W50048  11.352  24.674  13.504
77635W        W50049  12.802  38.919  14.275
77636W        W50050  10.245  24.579  13.350
77637W        W50051   5.749  20.626  10.897
77638W        W50052  12.697  26.577  10.512
77639W        W50053   7.762  17.139  14.013
77640W        W50054  28.090   5.852  13.388
77641W        W50055   1.928  17.234  13.912
77642W        W50056  11.833  32.893  14.400
77643W        W50057   1.405  38.015  13.495
77644W        W50058   6.903  38.453   4.146
77645W        W50059   8.245   4.401   4.752
77646W        W50060   4.906  38.998  12.471
77647W        W50061  41.417   2.742  14.951
77648W        W50062  34.113  23.583  10.926
77649W        W50063   1.454  10.252   4.762
77650W        W50064  43.467  34.071   4.347
77651W        W50065  18.063  35.858   1.284
77652W        W50066  26.677   8.229   1.323
77653W        W50067  27.610  19.639  13.903
77654W        W50068  17.616  10.176  10.048
77655W        W50069  18.692   4.390  12.964
77656W        W50070  39.058   6.798  12.878
77657W        W50071  21.623  39.508  14.940
77658W        W50072  37.076  21.666   2.694
77659W        W50073  37.346  44.376  11.076
77660W        W50074  29.035  27.458  10.927
77661W        W50075  27.481   3.269  10.964
77662W        W50076   8.238  19.224   2.704
77663W        W50077  18.242  28.154   2.877
77664W        W50078  20.541  31.126  14.769
77665W        W50079  23.164   0.292  14.781
77666W        W50080  14.309  17.579   1.801
77667W        W50081   7.879  16.752  14.333
77668W        W50082  39.871  35.472  12.382
77669W        W50083  41.299  43.507  13.909
77670W        W50084  17.699  36.445  12.378
77671W        W50085  18.258  16.608  12.096
77672W        W50086  15.696  23.615  14.455
77673W        W50087   5.736  22.108  14.933
77674W        W50088  16.725  26.618   0.890
77675W        W50089  22.563  36.063   0.909
77676W        W50090  29.648   1.918   5.148
77677W        W50091  19.093  29.668   0.916
77678W        W50092   4.800  31.114   1.316
77679W        W50093  43.270  33.595  10.956
77680W        W50094  29.968   5.386  14.393
77681W        W50095  34.503  30.051   2.716
77682W        W50096  30.587  18.646  13.050
77683W        W50097  24.625  28.462   2.315
77684W        W50098  12.163  26.126   2.367
77685W        W50099  24.642  13.245  11.861
77686W        W50100  26.664  30.992   4.838
77687W        W50101  43.411  14.141   1.805
77688W        W50102   2.388  25.195   1.775
77689W        W50103  35.545   9.197   1.827
77690W        W50104  21.024  21.563  11.532
77691W        W50105  27.956  41.345  13.991
77692W        W50106   8.727  24.544   4.165
77693W        W50107  25.540  37.865  11.085
77694W        W50108  35.854  17.574   4.168
77695W        W50109  26.151  15.624  12.544
77696W        W50110  44.848  10.226  13.924
77697W        W50111  19.173   9.754   2.732
77698W        W50112  20.064   0.872  10.586
77699W        W50113  39.057  14.771  11.572
77700W        W50114   0.847  11.295   3.764
77701W        W50115  17.634  43.826  13.923
77702W        W50116  18.180  29.644   4.220
77703W        W50117  37.905  10.673   4.702
77704W        W50118   2.900  39.828   3.800
77705W        W50119  33.917   0.912   4.611
77706W        W50120  39.053   1.884   1.906
77707W        W50121  14.311  27.598   1.319
77708W        W50122  40.923  22.997  11.573
77709W        W50123  12.132  26.502   0.403
77710W        W50124  33.876  14.184   3.157
77711W        W50125  15.129  39.986  12.424
77712W        W50126   9.155  25.504  11.898
77713W        W50127   4.820  22.064  13.900
77714W        W50128  37.977  33.408   2.192
77715W        W50129   3.803  13.744  13.790
77716W        W50130   4.717  42.505   1.755
77717W        W50131  22.123  31.433  13.018
77718W        W50132  38.872  11.706   2.283
77719W        W50133  17.138  29.604   3.183
77720W        W50134  32.500  39.941   2.899
77721W        W50135  43.391   8.744  13.527
77722W        W50136  29.574  14.142   1.707
77723W        W50137  26.619  42.948  11.001
77724W        W50138  38.529  15.226  14.809
77725W        W50139   9.256  41.863  11.566
77726W        W50140  26.042  18.739   0.254
77727W        W50141   8.668  23.517   1.897
77728W        W50142   9.312  22.580   0.895
77729W        W50143  28.502  41.017   3.843
77730W        W50144   1.406  27.483   3.236
77731W        W50145   7.880  12.263   3.284
77732W        W50146  15.699  18.078   2.900
77733W        W50147  28.500  40.865  13.501
77734W        W50148  16.180   1.262  11.427
77735W        W50149  23.665   2.726   3.706
77736W        W50150  21.107   8.836   2.405
77737W        W50151  17.743  28.616   4.224
77738W        W50152  18.750  25.597   0.272
77739W        W50153  26.969  28.637  14.431
77740W        W50154  13.252   0.269   4.741
77741W        W50155  44.400  35.999   4.802
77742W        W50156   6.261  37.966   0.902
77743W        W50157  13.215  44.972   0.821
77744W        W50158  42.944  22.624   2.331
77745W        W50159  31.135  23.609  14.924
77746W        W50160  29.061   2.319   3.363
77747W        W50161  18.615  32.392  10.511
77748W        W50162  17.188  13.193   4.241
77749W        W50163   5.801   8.817  12.513
77750W        W50164  39.513   1.832   0.840
77751W        W50165   4.283  18.114   0.285
77752W        W50166  12.669  31.467  12.862
77753W        W50167  29.576  36.017   5.207
77754W        W50168  38.869   4.870   0.805
77755W        W50169  23.173  39.004   4.249
77756W        W50170  17.079  17.280   3.774
77757W        W50171   6.765   7.827  10.980
77758W        W50172  44.825  27.961   2.268
77759W        W50173  32.398  19.204   1.382
77760W        W50174   0.485  39.408   4.612
77761W        W50175   5.819  22.719   3.772
77762W        W50176   8.731  44.827  13.064
77763W        W50177   7.705  22.680  10.902
77764W        W50178  20.624  20.062   2.358
77765W        W50179  15.577  35.916  14.012
77766W        W50180  20.715   1.243  12.018
77767W        W50181  30.095   7.385  10.513
77768W        W50182  13.338  32.915  12.461
77769W        W50183  29.158   2.946  12.040
77770W        W50184  22.040   0.371   4.264
77771W        W50185  30.538  11.282  11.009
77772W        W50186  30.128  35.024   0.861
77773W        W50187  29.429   6.899  14.356
77774W        W50188  23.065  32.401  14.441
77775W        W50189   4.349  19.721   0.281
77776W        W50190  18.262  10.790  14.414
77777W        W50191  30.088  21.735   0.419
77778W        W50192  33.553  12.238   4.150
77779W        W50193  14.215  12.217   3.252
77780W        W50194  15.795   1.243   1.903
77781W        W50195  13.817  15.777  13.373
77782W        W50196   5.822  34.413  11.502
77783W        W50197   8.695  30.456  14.940
77784W        W50198  29.624  22.654  11.476
77785W        W50199   7.219  10.363  13.502
77786W        W50200   7.366  28.040   4.650
77787W        W50201  37.019  16.301   2.236
77788W        W50202  39.538  31.906   2.801
77789W        W50203  38.976  40.453   2.301
77790W        W50204  20.183  36.441  14.845
77791W        W50205  14.695  10.800  11.604
77792W        W50206  27.112  35.046  10.557
77793W        W50207   9.313  44.933  13.332
77794W        W50208  38.036   2.763   4.262
77795W        W50209  29.495  37.507   2.286
77796W        W50210  27.596  22.586  13.007
77797W        W50211   7.259  37.016  10.896
77798W        W50212  14.229  10.214   1.892
77799W        W50213  20.168   4.738  10.447
77800W        W50214  39.534   1.240  11.902
77801W        W50215   3.344  43.337   3.791
77802W        W50216  31.898  14.702   0.898
77803W        W50217  37.966   4.375   0.765
77804W        W50218  20.578   7.892  10.989
77805W        W50219   2.265  14.654   2.830
77806W        W50220  43.274  10.187   1.430
77807W        W50221  42.460   8.243  10.561
77808W        W50222   5.245   7.690   0.373
77809W        W50223  21.240  30.952   1.886
77810W        W50224  23.242  18.179   4.755
77811W        W50225  35.422  36.438   1.448
77812W        W50226   4.705   2.782   4.612
77813W        W50227  36.885   1.793  11.601
77814W        W50228  23.712  19.158   4.202
77815W        W50229  21.746   6.254  11.419
77816W        W50230   0.920  25.115  14.344
77817W        W50231   3.941  28.096  12.963
77818W        W50232  10.356  34.410   4.230
77819W        W50233   8.873  38.493   1.233
77820W        W50234  30.913  19.644  14.831
77821W        W50235  13.110  36.515   3.706
77822W        W50236  15.310  12.343   0.287
77823W        W50237  31.112  40.818  11.053
77824W        W50238  34.081  39.923   2.868
77825W        W50239   3.894  30.646   4.830
77826W        W50240   0.802   2.393  10.534
77827W        W50241  44.940   6.292  13.006
77828W        W50242   1.967   1.790   4.213
77829W        W50243  42.794  24.175   3.329
77830W        W50244  12.274  35.941  12.370
77831W        W50245  11.260   3.858  14.889
77832W        W50246   7.255  27.973  10.415
77833W        W50247  24.163   8.720  10.956
77834W        W50248  37.914  36.033   4.678
77835W        W50249  44.978  43.993  12.035
77836W        W50250  35.499  32.438   1.429
77837W        W50251  11.764  30.462   2.783
77838W        W50252  34.023  41.860  14.838
77839W        W50253  11.753  22.581  13.521
77840W        W50254  39.997   9.228   1.412
77841W        W50255  32.071  11.754   4.750
77842W        W50256   0.485  26.463  11.559
77843W        W50257  33.079   9.338   2.684
77844W        W50258   9.674  35.891   1.864
77845W        W50259  27.053  14.179   1.443
77846W        W50260   6.744  34.009   4.135
77847W        W50261  10.859  18.693  11.531
77848W        W50262   7.670  23.989  11.372
77849W        W50263   2.469  39.931   1.815
77850W        W50264  39.012  25.673  13.920
77851W        W50265  14.315  22.505  10.894
77852W        W50266   6.187  13.644  11.041
77853W        W50267   8.737   2.814  13.956
77854W        W50268  10.316  11.850  12.096
77855W        W50269  13.693   8.748   2.258
77856W        W50270  41.468  28.610   0.865
77857W        W50271  25.605   3.345   1.388
77858W        W50272  42.313   3.436   0.929
77859W        W50273  30.602  36.920  13.894
77860W        W50274   3.728  14.719  13.906
77861W        W50275   1.865   5.419  11.054
77862W        W50276  22.699   2.234   1.419
77863W        W50277  19.761  15.196   4.122
77864W        W50278  17.152  36.981   3.811
77865W        W50279  11.662  20.129   3.755
77866W        W50280  44.918  40.909  10.639
77867W        W50281  26.101  15.597  14.838
77868W        W50282  12.720  11.136   3.678
77869W        W50283  29.628  10.651  11.478
77870W        W50284  14.803  17.173  13.378
77871W        W50285  43.407  13.643  11.504
77872W        W50286   0.318  41.936  12.878
77873W        W50287  37.890  10.167   3.784
77874W        W50288   1.238  39.449  13.514
77875W        W50289  26.667  44.978   5.305
77876W        W50290  25.963  28.081   2.720
77877W        W50291  39.875  35.981  14.462
77878W        W50292  21.119  35.478  13.832
77879W        W50293  23.693  35.053  10.502
77880W        W50294   5.804  38.036  13.322
77881W        W50295  17.205  26.134   1.317
77882W        W50296   5.361   3.291   2.283
77883W        W50297  29.437   1.372   2.336
77884W        W50298  15.689  34.546  14.807
77885W        W50299  41.942   5.340   3.634
77886W        W50300  33.405   9.352  10.494
77887W        W50301  36.004   4.719   2.222
77888W        W50302  30.627  16.278   0.435
77889W        W50303   2.429  17.282  14.474
77890W        W50304  21.086  28.101  11.905
77891W        W50305  13.689  26.185   1.268
77892W        W50306   6.266  26.014  11.392
77893W        W50307  32.548  27.507  13.442
77894W        W50308  40.496  29.496   3.777
77895W        W50309  17.127  39.533   2.189
77896W        W50310  43.881  28.093   0.360
77897W        W50311  20.187   7.232  12.403
77898W        W50312  36.354  17.718   2.360
77899W        W50313  17.091  17.147   0.912
77900W        W50314  40.314  34.881  10.008
77901W        W50315  25.573  19.550   3.313
77902W        W50316  26.498  30.471   1.785
77903W        W50317  31.629  35.501  11.428
77904W        W50318  32.604   1.306   4.331
77905W        W50319  21.514  26.594  11.457
77906W        W50320  18.709   5.774  13.432
77907W        W50321   5.416  31.504  13.389
77908W        W50322  27.552  12.700  14.858
77909W        W50323  14.142   7.285  10.460
77910W        W50324  31.139  38.953  11.467
77911W        W50325  19.588  23.633  12.412
77912W        W50326  15.818  14.146  13.434
77913W        W50327  42.929   9.362   2.405
77914W        W50328  34.488  13.715  13.349
77915W        W50329  20.150  44.914   4.199
77916W        W50330  29.142  42.909  14.008
77917W        W50331  20.167  15.644  12.982
77918W        W50332  30.643  12.302   0.960
77919W        W50333  21.131  37.024  12.380
77920W        W50334  33.517  23.235  13.497
77921W        W50335   3.248  38.524   2.886
77922W        W50336  37.873   0.863  13.834
77923W        W50337  41.876   1.838   2.242
77924W        W50338  24.073  30.530   5.270
77925W        W50339  17.281  41.895  11.858
77926W        W50340  10.227   2.294   0.897
77927W        W50341  37.444  41.502   1.806
77928W        W50342   5.208  43.394  11.039
77929W        W50343  24.115   2.230  12.850
77930W        W50344  38.465  30.591   0.842
77931W        W50345  31.032  39.031   0.480
77932W        W50346  19.675   8.820   0.864
77933W        W50347  42.806   3.272  12.993
77934W        W50348  27.472  21.072  11.514
77935W        W50349  22.242   5.319   3.867
77936W        W50350  11.718   0.849  12.514
77937W        W50351  39.863  20.719   2.891
77938W        W50352  34.006  11.647   4.839
77939W        W50353   8.891   1.955  11.539
77940W        W50354  19.608  13.717  13.827
77941W        W50355  33.567  39.397  14.322
77942W        W50356  12.191  26.688  12.941
77943W        W50357   1.805  14.762  14.849
77944W        W50358   3.847  26.008  11.421
77945W        W50359  33.922  27.691  13.368
77946W        W50360  13.209  18.706  12.896
77947W        W50361  29.168  40.006  14.926
77948W        W50362  23.174  10.678   1.862
77949W        W50363  39.502  43.895  13.493
77950W        W50364  23.568  35.884  12.968
77951W        W50365  42.942  38.330   1.926
77952W        W50366  20.730  37.987   1.748
77953W        W50367  17.213  23.039  13.912
77954W        W50368  38.510  23.131  12.421
77955W        W50369  22.207  42.377   2.395
77956W        W50370  30.534  43.283   3.276
77957W        W50371  25.969  30.559  12.930
77958W        W50372  13.307   2.938   2.279
77959W        W50373  18.591  33.979  13.828
77960W        W50374   4.441  25.178  13.377
77961W        W50375  41.917  29.123  13.364
77962W        W50376   8.203   0.409  10.541
77963W        W50377  29.148   4.787   3.859
77964W        W50378   4.756   0.269  14.824
77965W        W50379  14.201  12.263  12.094
77966W        W50380   4.896  42.861   3.800
77967W        W50381  19.695   3.896  14.808
77968W        W50382  43.975  16.261  13.511
77969W        W50383  18.119  10.241  11.983
77970W        W50384  31.986  29.598   5.210
77971W        W50385   0.747   9.198   3.673
77972W        W50386   0.381  27.191  11.412
77973W        W50387  42.951   9.696  11.927
77974W        W50388  39.053  31.128  11.476
77975W        W50389  19.071  10.741   0.840
77976W        W50390  43.456  26.064  10.409
77977W        W50391   9.863   0.818  14.294
77978W        W50392  37.453  20.029   5.243
77979W        W50393  17.732  43.461   2.676
77980W        W50394  40.931   6.766   0.338
77981W        W50395   1.326  40.487   3.266
77982W        W50396  39.866  24.991   4.294
77983W        W50397   9.674  37.417  12.501
77984W        W50398  18.744  35.456  14.281
77985W        W50399  33.511  40.859   4.717
77986W        W50400   5.274  34.077  12.873
77987W        W50401  16.237   8.663   0.874
77988W        W50402   4.433  40.445  11.888
77989W        W50403  29.008  18.548   2.767
77990W        W50404  28.956  17.137  14.383
77991W        W50405   0.270  40.020   4.822
77992W        W50406  41.367  21.206   3.775
77993W        W50407  21.716  15.259   0.301
77994W        W50408  30.560   2.291   4.622
77995W        W50409  21.659  23.029  13.053
77996W        W50410  40.496  16.632  10.991
77997W        W50411  14.178  14.213  11.937
77998W        W50412   3.371  19.208   1.853
77999W        W50413   7.340   8.333  13.878
78000W        W50414  43.902  41.437  13.354
78001W        W50415  24.663   8.369   0.387
78002W        W50416  38.363   5.790  11.929
78003W        W50417   3.720   0.884   3.755
78004W        W50418  41.511  31.417  13.044
78005W        W50419  20.234  38.393   1.441
78006W        W50420   9.881  33.050  10.517
78007W        W50421  32.581  38.542   1.291
78008W        W50422  24.034  13.785   4.305
78009W        W50423  12.773  12.162  14.925
78010W        W50424  17.230  12.622   1.757
78011W        W50425  28.120  41.796  11.566
78012W        W50426  40.808  22.124  13.466
78013W        W50427   1.789  22.634   1.725
78014W        W50428  13.664  32.943  11.122
78015W        W50429  15.749  39.847   4.255
78016W        W50430  34.584  20.203   0.818
78017W        W50431  20.636  26.150  10.970
78018W        W50432   4.433  43.487   0.446
78019W        W50433  28.088   1.742   1.429
78020W        W50434   5.687  23.550   3.259
78021W        W50435   7.832  32.441   3.214
78022W        W50436  41.421  12.624   1.830
78023W        W50437  26.588   7.192   1.700
78024W        W50438   3.882  30.609   0.386
78025W        W50439  29.173  28.033  11.424
78026W        W50440  43.479  27.447   4.752
78027W        W50441   7.337  22.153  13.807
78028W        W50442  31.998  29.998   4.293
78029W        W50443  36.077  43.949   4.155
78030W        W50444  24.045  19.059  11.597
78031W        W50445  31.149   8.691   4.684
78032W        W50446  27.459   5.748   2.733
78033W        W50447  28.537   0.413  13.798
78034W        W50448  14.184  20.145  14.915
78035W        W50449  32.497  10.260   2.703
78036W        W50450   8.883  24.076   3.300
78037W        W50451  43.881  31.083  10.901
78038W        W50452  41.954  24.624   1.835
78039W        W50453  25.002  15.088  12.371
78040W        W50454   3.259  29.149   0.391
78041W        W50455  26.624  22.035   0.389
78042W        W50456   4.424  22.014  13.310
78043W        W50457  32.970  27.062  10.598
78044W        W50458   6.805  17.776   1.319
78045W        W50459  14.185   8.850   0.859
78046W        W50460  37.418  13.234   3.832
78047W        W50461   8.207   6.254   2.847
78048W        W50462  21.234  34.998  10.951
78049W        W50463   5.715  28.505   1.292
78050W        W50464  18.257   5.841   1.348
78051W        W50465   8.753  27.144  12.470
78052W        W50466  11.823  16.229   0.885
78053W        W50467  22.540  10.210  12.076
78054W        W50468  22.015   6.253   1.695
78055W        W50469   5.715  41.869   2.347
78056W        W50470  22.187   8.754   4.303
78057W        W50471   7.376   1.841  11.526
78058W        W50472  21.736  27.559   2.795
78059W        W50473  37.945   1.970  12.366
78060W        W50474  32.007  33.544   4.837
78061W        W50475  36.087  16.689   0.813
78062W        W50476  40.329  24.706   4.141
78063W        W50477   2.857  11.632  14.762
78064W        W50478  32.594  20.766   0.943
78065W        W50479  41.352  26.979   2.688
78066W        W50480  19.696   4.259   2.218
78067W        W50481  25.999  14.623   1.255
78068W        W50482  42.904  15.648   0.462
78069W        W50483  43.415   6.236  12.845
78070W        W50484  28.985  18.228  11.476
78071W        W50485  23.232  23.996  13.537
78072W        W50486  19.743  25.978   1.841
78073W        W50487  19.720  36.518  11.925
78074W        W50488  24.671   9.220   2.847
78075W        W50489  30.962  11.365   3.194
78076W        W50490  21.244  30.478   0.387
78077W        W50491  27.112  35.472  11.869
78078W        W50492  27.471   0.379   0.425
78079W        W50493  28.948   8.385  14.986
78080W        W50494  34.874  15.796  10.052
78081W        W50495  26.023  22.684   2.333
78082W        W50496   3.235   0.426  10.543
78083W        W50497  18.254  21.141  11.400
78084W        W50498  31.144  23.033  11.542
78085W        W50499   3.763  32.078  11.417
78086W        W50500  14.819  39.413   0.275
78087W        W50501  22.581  29.650   2.229
78088W        W50502  23.564  13.325  14.816
78089W        W50503  10.369  20.071   2.372
78090W        W50504  33.398  40.997   1.813
78091W        W50505  39.971  31.119  12.035
78092W        W50506  30.074  12.313   4.703
78093W        W50507   7.759  27.166   3.835
78094W        W50508   7.860  12.143   2.860
78095W        W50509   8.844  12.308   1.350
78096W        W50510  44.347  37.937   0.395
78097W        W50511  39.838   5.691  12.571
78098W        W50512  17.777  17.683   2.217
78099W        W50513  12.148  11.179   0.800
78100W        W50514  37.532   8.255  12.996
78101W        W50515  36.985  25.709  11.878
78102W        W50516  22.098  35.993  11.530
78103W        W50517  43.359  35.072  11.909
78104W        W50518   4.859  32.599   1.394
78105W        W50519  19.161  38.029   4.817
78106W        W50520   9.652  34.425  13.940
78107W        W50521  27.000  43.956   9.549
78108W        W50522  36.001   9.156   0.797
78109W        W50523   1.309  25.652  14.816
78110W        W50524  31.438  17.110   1.823
78111W        W50525  24.021  31.116  14.812
78112W        W50526  38.062  40.805   2.664
78113W        W50527  40.542  43.449   1.798
78114W        W50528  21.588  43.392  10.888
78115W        W50529  38.940  37.919   2.743
78116W        W50530   7.783  31.905   1.423
78117W        W50531   3.819  14.809   0.428
78118W        W50532  17.290  32.005   5.234
78119W        W50533  44.814   3.223   4.140
78120W        W50534   4.766  11.711  14.512
78121W        W50535  22.745  42.477   1.412
78122W        W50536  11.759  26.145  14.435
78123W        W50537   3.225   4.342   4.150
78124W        W50538  34.533  30.470   0.350
78125W        W50539  18.225  36.545  11.920
78126W        W50540   3.939   1.304   3.278
78127W        W50541   8.281  26.694  12.831
78128W        W50542  22.735  17.642   1.774
78129W        W50543  35.546   1.457   2.247
78130W        W50544  33.003  24.195  14.957
78131W        W50545  37.866  26.200  12.468
78132W        W50546  10.287  18.746  11.448
78133W        W50547   6.408   4.225   0.397
78134W        W50548   6.229   6.832  12.577
78135W        W50549  31.595  32.581   0.441
78136W        W50550   4.829  37.408  10.506
78137W        W50551  19.096  43.795  12.372
78138W        W50552  21.591   5.833  14.909
78139W        W50553  20.035  43.378   2.903
78140W        W50554  34.901  31.917  13.356
78141W        W50555  28.578  10.686  11.939
78142W        W50556  37.391  16.795   0.473
78143W        W50557  44.809  32.988  14.992
78144W        W50558   8.729  22.678  13.547
78145W        W50559  39.848  27.951  14.450
78146W        W50560  44.335   7.866  12.980
78147W        W50561   1.454  30.459   3.353
78148W        W50562  30.418  42.015   4.325
78149W        W50563  10.750  13.616   0.881
78150W        W50564  42.791   6.410  11.967
78151W        W50565  37.951  18.154  12.416
78152W        W50566  18.107   7.810  14.894
78153W        W50567  42.304  36.386   2.193
78154W        W50568  19.754  24.192  11.985
78155W        W50569  31.096  31.628  10.904
78156W        W50570  11.303  15.219   4.188
78157W        W50571  44.321  16.164   4.268
78158W        W50572   7.816  20.693   1.706
78159W        W50573  42.961  26.588  13.422
78160W        W50574   5.924  10.856  11.522
78161W        W50575  38.520  14.243  11.075
78162W        W50576  16.630  10.632  13.429
78163W        W50577  27.488  35.922   4.355
78164W        W50578  27.680  31.956  11.946
78165W        W50579  43.467  23.220  12.983
78166W        W50580  38.394  42.425  12.557
78167W        W50581  40.938  15.808   4.190
78168W        W50582  38.345  17.630  12.373
78169W        W50583  38.966  37.358  11.589
78170W        W50584  10.670  32.428   4.830
78171W        W50585  12.825  34.911   0.943
78172W        W50586  37.904  22.719  14.804
78173W        W50587  42.394  36.075  11.385
78174W        W50588  16.229  19.280   4.156
78175W        W50589  12.821  23.237   1.231
78176W        W50590   7.279   9.345  11.082
78177W        W50591  10.356  38.435   3.254
78178W        W50592  10.635  26.198   4.818
78179W        W50593  43.885  38.031   1.702
78180W        W50594  32.417  14.755  14.030
78181W        W50595  34.564   3.231  12.353
78182W        W50596  35.969  34.394   2.192
78183W        W50597  11.136   3.809   1.426
78184W        W50598  40.505  19.597   2.837
78185W        W50599   9.351  11.793  12.906
78186W        W50600   7.688  10.318  12.354
78187W        W50601  22.502   5.913   3.212
78188W        W50602  28.537  27.659  10.981
78189W        W50603  18.568  17.212  10.926
78190W        W50604  34.523   6.815  10.411
78191W        W50605   6.257  40.388  11.504
78192W        W50606  15.107   6.236   0.804
78193W        W50607  13.777  32.895   4.632
78194W        W50608   6.352  12.308  10.938
78195W        W50609  26.555  23.085   2.814
78196W        W50610  25.534  18.786   4.139
78197W        W50611   5.316  20.696   0.939
78198W        W50612  11.234  14.168   0.885
78199W        W50613   1.413  31.988   0.418
78200W        W50614  35.506   8.780  12.052
78201W        W50615   0.782   1.472   0.936
78202W        W50616  21.559  16.786   0.469
78203W        W50617  27.093  31.604   2.739
78204W        W50618  32.568  25.204   4.747
78205W        W50619  41.996  35.501   2.670
78206W        W50620   1.966   9.362   4.325
78207W        W50621  18.694  14.186  14.279
78208W        W50622  12.355  37.956   0.342
78209W        W50623  21.023   4.919  14.433
78210W        W50624  39.323  14.112  11.090
78211W        W50625   6.680   7.872  14.797
78212W        W50626  14.157  19.254  12.859
78213W        W50627  24.090  15.610  13.025
78214W        W50628  16.244  36.575   3.791
78215W        W50629  13.310   0.301   3.825
78216W        W50630  24.598  11.224  11.948
78217W        W50631  16.571   0.322   0.727
78218W        W50632  16.131   8.192   0.377
78219W        W50633  30.000   4.857  12.887
78220W        W50634  11.224  15.326  13.805
78221W        W50635  25.533  21.699   4.190
78222W        W50636   5.852  15.111   0.848
78223W        W50637   4.831  41.787   5.129
78224W        W50638  30.489  44.303   1.810
78225W        W50639  10.843  38.026   4.655
78226W        W50640  32.954  35.477   2.203
78227W        W50641  19.627  42.495   4.290
78228W        W50642   4.774  32.009   0.827
78229W        W50643  25.674  33.086  13.382
78230W        W50644  21.242  17.256   0.461
78231W        W50645  36.844  36.396   1.760
78232W        W50646   5.376  29.092   1.789
78233W        W50647  34.881   7.847   0.318
78234W        W50648  14.751   3.874  10.414
78235W        W50649   9.689  10.321  14.945
78236W        W50650  38.380   2.256   4.785
78237W        W50651   2.815  31.147  14.764
78238W        W50652  28.102  41.811   4.755
78239W        W50653  11.230   2.281  11.403
78240W        W50654  41.025  22.045  14.951
78241W        W50655   3.273  33.484  13.864
78242W        W50656   2.763   0.293   2.392
78243W        W50657  21.742  21.593   2.890
78244W        W50658  43.508  42.990   0.730
78245W        W50659  43.446  23.035   0.462
78246W        W50660  19.068  19.544   3.303
78247W        W50661  35.085  29.616  13.832
78248W        W50662   6.879  24.719  10.464
78249W        W50663   9.236  38.570   2.742
78250W        W50664  11.821   2.261   3.156
78251W        W50665  16.661   7.829  12.862
78252W        W50666  33.461  19.724   4.347
78253W        W50667   6.771  23.996  13.393
78254W        W50668  41.025  40.390  14.804
78255W        W50669  35.360  38.412   0.343
78256W        W50670   0.792  23.695  10.598
78257W        W50671  26.589  38.506   4.608
78258W        W50672  40.985  24.033   2.842
78259W        W50673  34.422  14.774  13.933
78260W        W50674  35.573  12.169   2.809
78261W        W50675  16.640  31.054   4.317
78262W        W50676  34.889  35.935  12.468
78263W        W50677  33.510  36.507  11.454
78264W        W50678  10.144  38.419   5.106
78265W        W50679  43.378  42.401   3.658
78266W        W50680   6.781  42.930  13.995
78267W        W50681  19.251  29.025  11.916
78268W        W50682  41.986  34.523  12.531
78269W        W50683  20.142  17.187   3.829
78270W        W50684   7.274  43.369   4.634
78271W        W50685  12.311  37.469  11.034
78272W        W50686  37.864  22.666  13.833
78273W        W50687  22.565   8.798  11.586
78274W        W50688   6.187  34.463  10.018
78275W        W50689  42.372  29.643   4.182
78276W        W50690   9.260  29.445  12.958
78277W        W50691  12.781  16.768   2.256
78278W        W50692  27.970  28.167   4.654
78279W        W50693  25.157   3.344  10.589
78280W        W50694   3.709  14.304  11.974
78281W        W50695  21.562  37.917   3.692
78282W        W50696  31.548  33.617  10.905
78283W        W50697  29.148   5.248  12.024
78284W        W50698  33.876  20.165   0.482
78285W        W50699  37.029  29.654   0.805
78286W        W50700   3.851  14.746   1.378
78287W        W50701  42.506  11.710  12.468
78288W        W50702  41.475  15.645   0.484
78289W        W50703  29.127  10.746  13.480
78290W        W50704   4.826  16.122   4.338
78291W        W50705  39.388  41.394  13.812
78292W        W50706  19.215   8.305   0.786
78293W        W50707  20.564   2.423   0.775
78294W        W50708  39.478  43.390   1.906
78295W        W50709  23.628  42.875  14.487
78296W        W50710  37.395   4.387   3.656
78297W        W50711  14.769  25.559  13.902
78298W        W50712  11.276  31.452   0.360
78299W        W50713  13.664   0.751   2.771
78300W        W50714  40.848  18.732  14.482
78301W        W50715  14.277  23.204   3.732
78302W        W50716  27.454  13.333   3.274
78303W        W50717  38.398  24.628  13.013
78304W        W50718  33.975  39.327   2.255
78305W        W50719  34.106   9.656  14.888
78306W        W50720  15.321   8.834   4.631
78307W        W50721   9.671  39.044  13.453
78308W        W50722  37.007  27.641   0.438
78309W        W50723  38.563  13.220   2.777
78310W        W50724  26.038  18.733   2.685
78311W        W50725  36.386  40.924   4.688
78312W        W50726  22.597  17.226  11.953
78313W        W50727   2.252   5.280   1.288
78314W        W50728  35.097   6.320   3.746
78315W        W50729  21.744  19.121  14.783
78316W        W50730   3.866  28.442  14.765
78317W        W50731  11.676  21.181   5.219
78318W        W50732  43.469  41.791   1.697
78319W        W50733  19.196  40.981   1.329
78320W        W50734   0.458   2.307  14.446
78321W        W50735   4.838  17.215  12.899
78322W        W50736  34.946  23.550   0.874
78323W        W50737  29.108   4.851   4.788
78324W        W50738  25.050  44.886   2.348
78325W        W50739  41.361   3.447   3.849
78326W        W50740   7.864  13.811  13.858
78327W        W50741  36.476  28.542   3.313
78328W        W50742   3.453  31.505   1.386
78329W        W50743  33.551  35.068  12.091
78330W        W50744   8.386  16.208   0.744
78331W        W50745  44.469  30.912   2.848
78332W        W50746  41.347  30.414  12.870
78333W        W50747  31.897  16.097   0.868
78334W        W50748  25.175  25.117   4.270
78335W        W50749  44.505  28.654  12.903
78336W        W50750  42.998  25.511  11.069
78337W        W50751  42.777  25.667  13.512
78338W        W50752   9.873  37.531   1.448
78339W        W50753   6.852  36.564  12.425
78340W        W50754   5.773  33.501  14.822
78341W        W50755  26.648  44.938   3.858
78342W        W50756  25.025  28.569   0.243
78343W        W50757  28.932   6.400  11.545
78344W        W50758   5.362   0.358  10.970
78345W        W50759  16.124  11.745   0.455
78346W        W50760   7.333  24.668  11.489
78347W        W50761  37.947  29.535   1.439
78348W        W50762   0.959   0.903   1.272
78349W        W50763  22.743  15.660  14.306
78350W        W50764  32.074  25.507   0.785
78351W        W50765  32.490   2.285  13.413
78352W        W50766   2.762  27.017   2.349
78353W        W50767   3.712  18.204  11.970
78354W        W50768   4.908  38.074  11.514
78355W        W50769  36.428  33.589   1.350
78356W        W50770  18.698  21.034  12.852
78357W        W50771  17.726  27.043   1.846
78358W        W50772  42.345  13.144  10.607
78359W        W50773  10.777  17.143  14.336
78360W        W50774  18.734  15.726  11.973
78361W        W50775  10.785  39.361  12.477
78362W        W50776  42.823  36.005  10.480
78363W        W50777  26.191  31.145  11.592
78364W        W50778  30.917  44.954   1.726
78365W        W50779  26.167   0.886   5.127
78366W        W50780  35.395  34.596   4.717
78367W        W50781   1.894   3.334   1.802
78368W        W50782   6.348   3.330  11.901
78369W        W50783  30.622   5.933  14.304
78370W        W50784  35.603  22.592   1.397
78371W        W50785   6.843  20.527  13.524
78372W        W50786  22.217   3.443   0.269
78373W        W50787  36.925  29.547  14.962
78374W        W50788   4.823   3.899  10.453
78375W        W50789  41.482  12.280   4.629
78376W        W50790  22.189  44.427  14.009
78377W        W50791  41.021  29.661   0.478
78378W        W50792   4.833   7.184   1.348
78379W        W50793   4.243  34.369  10.406
78380W        W50794   3.435  18.163  11.461
78381W        W50795  42.030  29.601   3.712
78382W        W50796  16.567   5.436   1.413
78383W        W50797  13.615   4.714  12.437
78384W        W50798  16.677  30.028   1.332
78385W        W50799  42.829   7.880   3.843
78386W        W50800  27.172  18.142   3.644
78387W        W50801   2.778  30.529  11.569
78388W        W50802  39.459  29.018   3.288
78389W        W50803  34.940   1.837   3.376
78390W        W50804  18.235  29.493   1.918
78391W        W50805  19.096  22.731  11.416
78392W        W50806  23.073  44.919   9.598
78393W        W50807  14.696   2.741   2.671
78394W        W50808  10.231  44.789   2.184
78395W        W50809  17.584  39.555   1.713
78396W        W50810  38.923  33.591   1.400
78397W        W50811  11.293  19.184   0.850
78398W        W50812   5.754   7.727   2.700
78399W        W50813  44.425  33.051   9.956
78400W        W50814  23.000  43.903   1.407
78401W        W50815   7.879  19.653  11.496
78402W        W50816  20.213  10.202  11.103
78403W        W50817  37.086  29.934   1.768
78404W        W50818  32.425  12.691   4.162
78405W        W50819   7.270   8.365   1.386
78406W        W50820   7.838   3.271  13.824
78407W        W50821  31.117  25.704   0.774
78408W        W50822  21.593  22.709  14.336
78409W        W50823  26.099  33.569  13.885
78410W        W50824  12.661  32.991  13.797
78411W        W50825   7.198  41.911   4.718
78412W        W50826  15.658  11.363  14.290
78413W        W50827  24.701  32.024   2.384
78414W        W50828   5.419   7.350   3.366
78415W        W50829  29.537  22.141  13.943
78416W        W50830  10.825  44.441  11.579
78417W        W50831  20.083  17.213  11.871
78418W        W50832  34.059  25.584   3.779
78419W        W50833   4.739  40.314   1.440
78420W        W50834  38.341  30.055   4.183
78421W        W50835  28.039  32.547   3.651
78422W        W50836   7.286  43.927   4.819
78423W        W50837   8.832   4.303  14.835
78424W        W50838  43.379   7.206  10.130
78425W        W50839  16.793  28.679  12.937
78426W        W50840  15.197  25.111  12.905
78427W        W50841  39.360  17.228   2.326
78428W        W50842  19.727  17.188  10.582
78429W        W50843  10.244   1.936   2.707
78430W        W50844  21.606  24.560  10.948
78431W        W50845  27.998  34.022   3.243
78432W        W50846  36.507  30.974   4.649
78433W        W50847  14.603  16.678  13.934
78434W        W50848  24.176  11.798   3.222
78435W        W50849  31.999  38.959   3.683
78436W        W50850  40.800  41.966   1.728
78437W        W50851   8.190   1.368   4.308
78438W        W50852   0.908   7.904   1.380
78439W        W50853  14.154  24.710   0.474
78440W        W50854  24.098   8.195  13.468
78441W        W50855  44.806   6.187   2.217
78442W        W50856  23.994   3.416  11.900
78443W        W50857  21.212  30.130  13.992
78444W        W50858  30.655  38.560  11.871
78445W        W50859  29.445  41.971   3.743
78446W        W50860  43.397  16.175   0.370
78447W        W50861   9.675  42.452  13.010
78448W        W50862  13.172  31.950   3.270
78449W        W50863  18.735  20.588  12.869
78450W        W50864  25.672  25.713  13.051
78451W        W50865  24.642  31.058  11.096
78452W        W50866   5.909  20.118   3.351
78453W        W50867  21.112  10.230   4.630
78454W        W50868   3.451  12.348   4.128
78455W        W50869   5.414  19.549   1.782
78456W        W50870  38.968  15.204  14.957
78457W        W50871   7.304  36.396   2.364
78458W        W50872  29.038   0.814  14.482
78459W        W50873  13.782  26.081  11.075
78460W        W50874  19.668   2.253  14.389
78461W        W50875  39.974  44.004  12.453
78462W        W50876  42.905  18.584   0.454
78463W        W50877  15.801   2.408  12.843
78464W        W50878   3.846  30.503   1.754
78465W        W50879   9.664  28.113   2.896
78466W        W50880   8.670   5.223   1.363
78467W        W50881  43.847  41.833  14.438
78468W        W50882  22.745  24.563  14.008
78469W        W50883   7.247  35.109   1.889
78470W        W50884  35.494  35.514   1.369
78471W        W50885  28.978  30.599   4.801
78472W        W50886  30.518  40.334   5.305
78473W        W50887  39.334   6.719  10.427
78474W        W50888  32.115   6.239  13.957
78475W        W50889  31.526  19.637  13.484
78476W        W50890  32.596   3.449  13.316
78477W        W50891  41.390  31.121   3.262
78478W        W50892  40.848   7.758  12.572
78479W        W50893  12.293   3.402   3.663
78480W        W50894  26.603  33.437   4.757
78481W        W50895  34.542  11.220   2.847
78482W        W50896   0.904  40.478  11.576
78483W        W50897  34.371  25.540   3.670
78484W        W50898  34.508  13.297  12.832
78485W        W50899  19.131  13.685   1.433
78486W        W50900  26.583   0.809   4.348
78487W        W50901  41.001  33.401   1.389
78488W        W50902  40.347  13.146  11.489
78489W        W50903  23.138  29.435  10.491
78490W        W50904  34.943  29.112   2.384
78491W        W50905  19.182  39.509   4.144
78492W        W50906   0.829  24.592   3.347
78493W        W50907  33.406  12.755   5.167
78494W        W50908  18.053  25.538  12.063
78495W        W50909   2.376  32.451  10.982
78496W        W50910  21.150  37.921   0.912
78497W        W50911  32.395   4.369  11.105
78498W        W50912  30.045  44.862  12.528
78499W        W50913  26.670  29.946  12.089
78500W        W50914  22.742  21.634  13.311
78501W        W50915  37.030  44.986  12.951
78502W        W50916  34.091  33.470  14.974
78503W        W50917  21.703  32.397  13.536
78504W        W50918  22.602  32.076   4.799
78505W        W50919  36.582  11.196   3.762
78506W        W50920  18.632  11.689  12.557
78507W        W50921  18.549  24.109  12.566
78508W        W50922  39.530  39.966  13.486
78509W        W50923  41.913  38.946   3.748
78510W        W50924  31.626  18.186   1.870
78511W        W50925  44.883  34.464   3.774
78512W        W50926  27.100  18.098  11.121
78513W        W50927  26.460  15.719  11.407
78514W        W50928  32.468  29.059   0.348
78515W        W50929   4.820  37.891  10.983
78516W        W50930  12.730  22.185   4.347
78517W        W50931   6.744  32.950   3.805
78518W        W50932   2.806  17.140   1.437
78519W        W50933  22.999  44.297   2.716
78520W        W50934  25.475  34.386  14.330
78521W        W50935  23.052  34.086  11.030
78522W        W50936  10.168  25.087   2.857
78523W        W50937  11.865  23.611  12.564
78524W        W50938  33.131   9.260  10.991
78525W        W50939  41.009  33.605   1.910
78526W        W50940  14.615  21.026   9.935
78527W        W50941  21.580  27.498  14.917
78528W        W50942  37.362  36.034   4.247
78529W        W50943  25.168  28.613  13.324
78530W        W50944  39.549  13.115  11.128
78531W        W50945  32.063   6.297   3.662
78532W        W50946  30.427  16.596  11.545
78533W        W50947  13.619  30.920  14.284
78534W        W50948  28.442   5.267   0.791
78535W        W50949   9.750  30.591  14.018
78536W        W50950  29.951  20.135   2.775
78537W        W50951  41.358  26.662  13.467
78538W        W50952  14.148   8.758   4.764
78539W        W50953   9.351  13.738  11.584
78540W        W50954  17.115  31.102   0.738
78541W        W50955  26.679   4.880   0.814
78542W        W50956  11.304  21.140   5.211
78543W        W50957  36.365  37.528   0.727
78544W        W50958  26.511  30.544   4.669
78545W        W50959   5.330  32.011  11.465
78546W        W50960  13.697  18.215  11.386
78547W        W50961  19.238   7.178   1.306
78548W        W50962  17.598  39.404   1.254
78549W        W50963   0.791  27.171  11.858
78550W        W50964  30.644  15.818   2.730
78551W        W50965  36.580  42.917  13.315
78552W        W50966  36.505  34.395   5.276
78553W        W50967  23.711  30.637  14.990
78554W        W50968   9.326  18.558   2.810
78555W        W50969   3.869   2.755  13.899
78556W        W50970  31.907  25.491   2.664
78557W        W50971  23.725  24.081   0.767
78558W        W50972  39.038   3.364   1.826
78559W        W50973  22.542  39.006   2.275
78560W        W50974  42.964   8.367   4.815
78561W        W50975  41.942   5.369  11.510
78562W        W50976   7.206  42.884  13.999
78563W        W50977  33.049  41.987  10.526
78564W        W50978  29.503  19.632   0.842
78565W        W50979  24.981   2.861   3.847
78566W        W50980  38.330  41.403   4.273
78567W        W50981  41.504   9.753   0.249
78568W        W50982  10.323  16.765  11.471
78569W        W50983   8.817   7.891  12.564
78570W        W50984  16.803  20.763  13.374
78571W        W50985  29.487  42.380  10.598
78572W        W50986  21.579  16.623  12.368
78573W        W50987  43.958  37.080   4.719
78574W        W50988  35.896   6.789   4.161
78575W        W50989  18.561  28.639   1.895
78576W        W50990  38.334  22.123   1.223
78577W        W50991  18.082  36.410   3.371
78578W        W50992   9.200   1.324   2.232
78579W        W50993  13.690  26.014   4.684
78580W        W50994  42.471  13.239  12.376
78581W        W50995  32.928  12.796  12.847
78582W        W50996  25.474  30.162   4.608
78583W        W50997  29.631  22.706  14.277
78584W        W50998  23.576  26.976  11.593
78585W        W50999  18.246  13.105  14.493
78586W        W51000  42.423  35.078   0.417
78587W        W51001  21.629  15.186  10.978
78588W        W51002  10.268  29.603  14.386
78589W        W51003  43.309  38.039   2.268
78590W        W51004  38.564  16.281  13.937
78591W        W51005  32.400  26.516  14.880
78592W        W51006  30.945  14.271   2.822
78593W        W51007   1.412  36.580  14.317
78594W        W51008  28.157  35.516   1.427
78595W        W51009  42.973  19.221   1.310
78596W        W51010  27.108  38.972  12.000
78597W        W51011  15.257  44.968   2.289
78598W        W51012  21.138  40.347   2.254
78599W        W51013  43.422  25.130   5.180
78600W        W51014   0.269  26.584   1.348
78601W        W51015   3.424  40.315   9.675
78602W        W51016   8.702  38.433   2.865
78603W        W51017  35.391  28.518  11.593
78604W        W51018  32.067  31.422   0.950
78605W        W51019  32.494  16.087  10.616
78606W        W51020  11.215   9.845  12.023
78607W        W51021  16.215  16.770   2.725
78608W        W51022  10.851   3.307   1.891
78609W        W51023  22.090  27.014  13.343
78610W        W51024   2.873   6.807  11.542
78611W        W51025  13.767  19.266  12.858
78612W        W51026  28.535   7.850   4.164
78613W        W51027   3.251  34.095  11.404
78614W        W51028   1.793  19.111  14.369
78615W        W51029  19.097  27.070   3.178
78616W        W51030   4.237   4.440  10.979
78617W        W51031  32.906  12.729   1.877
78618W        W51032  26.990  22.610  13.414
78619W        W51033   0.460   7.831   4.672
78620W        W51034  19.076   7.768  13.997
78621W        W51035  15.648  14.667   0.742
78622W        W51036  23.049  35.901   2.351
78623W        W51037  39.881  22.603   2.325
78624W        W51038  12.853  33.026   3.685
78625W        W51039  29.532   2.959  10.465
78626W        W51040  31.615  36.858   2.804
78627W        W51041  19.738  31.534  11.100
78628W        W51042  36.006  44.796  14.344
78629W        W51043  26.065  24.194   3.160
78630W        W51044   7.693  16.725   1.425
78631W        W51045  34.456   2.850  11.407
78632W        W51046   7.855  12.298   3.729
78633W        W51047  37.510   5.294  11.527
78634W        W51048  30.912  12.281  13.487
78635W        W51049  27.023  12.638  12.030
78636W        W51050   6.700  10.184  13.349
78637W        W51051  16.808   4.276   4.246
78638W        W51052  11.235   1.373   2.357
78639W        W51053  41.528  35.948  11.434
78640W        W51054  29.072  11.827   1.743
78641W        W51055  34.380  20.208   2.355
78642W        W51056   7.828  11.236  11.436
78643W        W51057  18.092  11.320   2.838
78644W        W51058   2.881   7.388   2.741
78645W        W51059  12.653   2.420  12.874
78646W        W51060   2.232   4.877   1.785
78647W        W51061  42.335  38.326   0.832
78648W        W51062  27.632  34.577  14.827
78649W        W51063   4.754  23.684   5.118
78650W        W51064  44.791   1.850  11.014
78651W        W51065  16.279  37.404   2.792
78652W        W51066  15.179  16.093  11.579
78653W        W51067   0.329  38.335   1.756
78654W        W51068   3.785  17.228   0.415
78655W        W51069  10.154   7.398  10.912
78656W        W51070  39.390  12.813  13.000
78657W        W51071  38.016  27.572   0.752
78658W        W51072  20.194  36.897   1.280
78659W        W51073  19.617   9.804   3.766
78660W        W51074  25.707  14.281   3.323
78661W        W51075   9.767   3.369  10.438
78662W        W51076  11.650  19.171  14.826
78663W        W51077  36.367  10.859  11.390
78664W        W51078   3.225  21.174   3.761
78665W        W51079  40.540   0.971   1.299
78666W        W51080   8.315  10.242  13.525
78667W        W51081  30.043  17.659   4.654
78668W        W51082   1.861  38.400   4.315
78669W        W51083  38.836   8.850  11.540
78670W        W51084  27.460   0.808   1.924
78671W        W51085  33.582  11.757  10.503
78672W        W51086  34.025   3.830  12.341
78673W        W51087  32.014  10.284   4.173
78674W        W51088  40.496   4.347   4.351
78675W        W51089  21.595  24.063   0.768
78676W        W51090  27.496  16.259   3.721
78677W        W51091  31.627  10.230   1.818
78678W        W51092  36.043  29.474  10.945
78679W        W51093  38.064  15.318   3.199
78680W        W51094  19.127  43.798   1.793
78681W        W51095  32.506  38.948   4.295
78682W        W51096  26.698  28.604  14.821
78683W        W51097   5.736  25.479  14.917
78684W        W51098  32.072  16.795  11.997
78685W        W51099  30.420  28.437  11.416
78686W        W51100   1.850  15.775   4.347
78687W        W51101  30.586   5.429  14.369
78688W        W51102  27.492  27.468  13.355
78689W        W51103   8.662  41.444  14.324
78690W        W51104   0.441  11.734  13.407
78691W        W51105  11.853  38.366  11.601
78692W        W51106  40.334  36.944   2.715
78693W        W51107  24.711  31.046  12.037
78694W        W51108  38.384  27.197   0.875
78695W        W51109  14.175  30.015   0.306
78696W        W51110  20.595  30.956  12.362
78697W        W51111  25.985   2.238  14.417
78698W        W51112   1.824  11.155   4.201
78699W        W51113  10.799  27.625   2.267
78700W        W51114  29.647  41.367  10.077
78701W        W51115   7.268  27.158  12.514
78702W        W51116  37.482  14.129  13.797
78703W        W51117  43.296  39.550   3.849
78704W        W51118  36.075   6.770   1.756
78705W        W51119  14.289  15.228   2.181
78706W        W51120  24.104  17.182   0.415
78707W        W51121   4.284  36.097  12.826
78708W        W51122  39.986  38.551   0.316
78709W        W51123  26.004   1.845  13.961
78710W        W51124  37.532  30.973   1.237
78711W        W51125  18.742  41.353  10.465
78712W        W51126  39.395  36.864  11.100
78713W        W51127  39.416  35.363   4.137
78714W        W51128  31.404  44.334  12.493
78715W        W51129  24.080  38.992   1.343
78716W        W51130   1.820  13.156  10.500
78717W        W51131   9.847  19.154  12.535
78718W        W51132  39.395   6.362  10.932
78719W        W51133  24.489  40.490  14.934
78720W        W51134  38.377  24.093  14.353
78721W        W51135  35.557  18.252   2.330
78722W        W51136  37.014  24.148   4.599
78723W        W51137  20.651  26.164  14.311
78724W        W51138  38.822  41.310  10.054
78725W        W51139   9.693  34.592   1.268
78726W        W51140  24.596  23.497  10.542
78727W        W51141  16.672  41.956  13.391
78728W        W51142   4.427  44.812  13.844
78729W        W51143  26.136  31.518  10.592
78730W        W51144  10.849  43.386   2.742
78731W        W51145  19.618  28.147   2.855
78732W        W51146  11.346  38.884   3.714
78733W        W51147  43.840  33.067  10.616
78734W        W51148  42.914   0.370  12.963
78735W        W51149  20.524  33.107  13.947
78736W        W51150  37.367  15.327  12.827
78737W        W51151  36.385  24.534  14.384
78738W        W51152  34.869   1.788   4.645
78739W        W51153  44.415  28.526  11.499
78740W        W51154   5.788  26.568   4.195
78741W        W51155  33.384  22.544  12.948
78742W        W51156  33.132  40.024  11.439
78743W        W51157   0.353   1.351   0.936
78744W        W51158  34.044  34.606   2.811
78745W        W51159  11.319  38.402   4.188
78746W        W51160  21.554   9.290   0.256
78747W        W51161  25.646  10.634  13.454
78748W        W51162  37.861  33.005  10.117
78749W        W51163   0.332  42.918   4.312
78750W        W51164  18.200  40.915  14.365
78751W        W51165   2.779  38.382   0.958
78752W        W51166  34.945  20.646   0.443
78753W        W51167  21.116  36.583  10.543
78754W        W51168  39.041  21.029   0.412
78755W        W51169  25.630  32.917   1.282
78756W        W51170  35.600  29.559   2.830
78757W        W51171  23.236  12.322   3.732
78758W        W51172   2.785  15.659  11.117
78759W        W51173  10.772  44.302   1.908
78760W        W51174  38.501  10.771   4.226
78761W        W51175  39.523  29.462  14.012
78762W        W51176  41.343  42.498   2.241
78763W        W51177  18.186  24.976   2.396
78764W        W51178  19.757  23.021   4.783
78765W        W51179  12.252   4.306   0.334
78766W        W51180  27.604  35.405  13.982
78767W        W51181  36.871  29.093  13.348
78768W        W51182   1.752  38.007   4.276
78769W        W51183   5.289  18.274   1.227
78770W        W51184  26.524   8.844  13.544
78771W        W51185  32.105  26.086  13.835
78772W        W51186  17.244   0.939   0.748
78773W        W51187  43.269  12.186  14.965
78774W        W51188  30.525  41.919  12.877
78775W        W51189  30.989   6.238  14.994
78776W        W51190  40.805  41.960  13.793
78777W        W51191   9.705  42.830  13.882
78778W        W51192  16.797  43.822   1.212
78779W        W51193  21.581   3.362  10.478
78780W        W51194  33.897  24.580   4.715
78781W        W51195  44.005  19.707  13.921
78782W        W51196   4.313  11.225   2.377
78783W        W51197   8.354  40.837   2.859
78784W        W51198  12.758   0.444   3.656
78785W        W51199   1.930  39.343   1.385
78786W        W51200  18.762   8.274  13.902
78787W        W51201   8.740  29.528   0.943
78788W        W51202  11.853  42.891  10.438
78789W        W51203  44.940  11.753   1.303
78790W        W51204  12.832   8.274   2.234
78791W        W51205  24.009  11.280  14.340
78792W        W51206  37.578  36.973   0.737
78793W        W51207  20.768  30.589  11.060
78794W        W51208  22.539  15.228   1.855
78795W        W51209   0.928  22.676  14.366
78796W        W51210  26.099  12.334   0.743
78797W        W51211   6.229  27.039   3.311
78798W        W51212  29.026  42.354  10.410
78799W        W51213   6.220  12.288   0.931
78800W        W51214  17.073  30.502   0.408
78801W        W51215  34.005   9.346   4.650
78802W        W51216  29.127  12.658  13.336
78803W        W51217   3.341  12.614   1.268
78804W        W51218  12.237  20.221   0.752
78805W        W51219  18.645  41.924  14.800
78806W        W51220  39.975  17.710  13.927
78807W        W51221  35.383  33.446  14.514
78808W        W51222  13.807  25.138  12.047
78809W        W51223  19.744  24.017   3.700
78810W        W51224  22.012  18.119  12.978
78811W        W51225  37.448  15.678  13.318
78812W        W51226   4.820  32.922   3.660
78813W        W51227  26.122  29.532  13.955
78814W        W51228  36.077  36.578  11.405
78815W        W51229   7.734   9.715   2.301
78816W        W51230  26.060   6.265  12.455
78817W        W51231  23.578  19.055  14.306
78818W        W51232  26.609  33.611   4.330
78819W        W51233  26.689  27.531  13.847
78820W        W51234   7.882   9.735  12.433
78821W        W51235  30.033  10.737  10.410
78822W        W51236   9.666  35.415  10.439
78823W        W51237   0.257  42.374   3.170
78824W        W51238  14.210  43.766  13.830
78825W        W51239   4.704  17.725   2.792
78826W        W51240  40.000  16.633   2.833
78827W        W51241  35.910  41.969   2.178
78828W        W51242  25.651   2.930   3.380
78829W        W51243   8.331   2.800   4.782
78830W        W51244  17.264   0.485   2.330
78831W        W51245  13.138  27.519   0.456
78832W        W51246   7.356  44.471   1.729
78833W        W51247  24.095  24.124   3.353
78834W        W51248  13.347   7.409   0.887
78835W        W51249   8.661  28.460  11.448
78836W        W51250  13.342  44.412   1.297
78837W        W51251  16.759  26.010  12.457
78838W        W51252  11.234  21.196   1.728
78839W        W51253  16.259  44.424  10.893
78840W        W51254  31.098  33.456   0.359
78841W        W51255  41.529  14.670  13.934
78842W        W51256  20.763  18.790  12.035
78843W        W51257  31.989   8.296   0.827
78844W        W51258   9.225   4.340   4.774
78845W        W51259   4.328  38.402   2.337
78846W        W51260  37.508  38.882   0.881
78847W        W51261  17.099   6.922   2.415
78848W        W51262  35.875  29.984  12.443
78849W        W51263  28.094  16.709  13.948
78850W        W51264  10.155   6.853  13.951
78851W        W51265  41.990  43.765   2.395
78852W        W51266  37.832  41.425  10.523
78853W        W51267  32.992  13.133  12.948
78854W        W51268  38.836  27.087   3.352
78855W        W51269  37.959  11.679   2.379
78856W        W51270  17.113  35.870   2.415
78857W        W51271  10.332   4.267  10.624
78858W        W51272  26.471  23.104   4.629
78859W        W51273  16.140  13.330  13.893
78860W        W51274  30.085  29.027   2.680
78861W        W51275  36.849  33.517   0.780
78862W        W51276  13.636  10.646   4.721
78863W        W51277  42.884  35.032  12.025
78864W        W51278  44.413   0.806   2.770
78865W        W51279   2.860   3.396   4.735
78866W        W51280  43.435  19.603   2.885
78867W        W51281  11.158  19.168   0.345
78868W        W51282  33.905  38.341   1.367
78869W        W51283  31.435  28.558   2.249
78870W        W51284  23.684  31.422   4.798
78871W        W51285  32.090  23.001   1.851
78872W        W51286   6.742  35.548   0.796
78873W        W51287  22.668   0.754   1.433
78874W        W51288  38.004  37.361   3.165
78875W        W51289   4.425  27.613  12.833
78876W        W51290  25.560  27.554   3.283
78877W        W51291  34.494  31.605  11.931
78878W        W51292  39.437  12.745  11.035
78879W        W51293  32.076  43.811  11.537
78880W        W51294  32.435  25.187   0.905
78881W        W51295  11.296  22.586  10.624
78882W        W51296  34.594   2.900  10.564
78883W        W51297  22.637   6.807   1.712
78884W        W51298  34.388  13.681   0.758
78885W        W51299  29.959  38.431  13.480
78886W        W51300   0.290   6.216   0.409
78887W        W51301  36.863  26.673  13.367
78888W        W51302   2.749  41.891  13.918
78889W        W51303  31.591   1.845   1.291
78890W        W51304  10.378  22.130  13.838
78891W        W51305  19.228  21.065  12.516
78892W        W51306  21.230  14.257   3.273
78893W        W51307   9.776  21.646   4.350
78894W        W51308  14.783  32.058   9.996
78895W        W51309   2.863  28.576  14.800
78896W        W51310  35.892  36.528   4.155
78897W        W51311  13.242  29.117  10.582
78898W        W51312  39.379  37.910   4.708
78899W        W51313  19.277   4.226   2.887
78900W        W51314   9.391  29.634   1.399
78901W        W51315  34.487  10.766  11.591
78902W        W51316   3.322  19.094   1.247
78903W        W51317  27.996  13.117   2.375
78904W        W51318  28.952  38.838   2.416
78905W        W51319  31.532  20.149   4.802
78906W        W51320   9.715  32.965   0.820
78907W        W51321  27.005  42.014  13.893
78908W        W51322  37.079  34.607   0.885
78909W        W51323  27.642   6.217  11.974
78910W        W51324   8.710  41.903   5.158
78911W        W51325  13.199  20.582   3.213
78912W        W51326  13.231   7.792  12.095
78913W        W51327  34.896  23.599  14.489
78914W        W51328  25.551  32.454  12.028
78915W        W51329  25.495  19.699  12.506
78916W        W51330   3.301  36.395   3.774
78917W        W51331  34.506  26.598  12.940
78918W        W51332  36.551  27.488  10.558
78919W        W51333  41.835  28.158  11.076
78920W        W51334  31.970   6.364   4.140
78921W        W51335   0.915  11.350  13.962
78922W        W51336  42.966  20.178  13.031
78923W        W51337   2.451  23.662   4.735
78924W        W51338  44.326  42.515   4.819
78925W        W51339  43.782  35.516   3.839
78926W        W51340  38.414  16.099  13.002
78927W        W51341  13.108  39.493   1.432
78928W        W51342  44.871  32.402  12.858
78929W        W51343  10.357  41.949   3.323
78930W        W51344  26.466  42.357   3.726
78931W        W51345   2.741   7.717   3.172
78932W        W51346   9.677  20.634  14.380
78933W        W51347  31.147  44.333   1.734
78934W        W51348  30.907  11.166  11.024
78935W        W51349  36.423  14.675  12.466
78936W        W51350  24.571  27.678  14.908
78937W        W51351  21.217  12.835   0.864
78938W        W51352  23.059  19.088  12.532
78939W        W51353   7.407  20.570   4.658
78940W        W51354  36.021  27.997  12.080
78941W        W51355  10.759  17.708   1.905
78942W        W51356  37.563  11.187   0.411
78943W        W51357  18.560  42.819  14.030
78944W        W51358   2.813   7.673  14.938
78945W        W51359  20.208  42.856   1.441
78946W        W51360  27.956   2.251   2.247
78947W        W51361   8.881  10.849   4.770
78948W        W51362  23.499  34.879  12.013
78949W        W51363  26.630  36.071   0.866
78950W        W51364  32.400  42.425  10.937
78951W        W51365  24.115  12.275   3.857
78952W        W51366   5.758  12.818   3.346
78953W        W51367  36.443   8.269  14.418
78954W        W51368  21.699  44.972   4.740
78955W        W51369   9.173  20.210  14.000
78956W        W51370  25.638  32.467  10.453
78957W        W51371  22.721  20.534   4.683
78958W        W51372  29.455  34.936   4.173
78959W        W51373  30.069  13.319   1.715
78960W        W51374   8.305  31.112  14.495
78961W        W51375  43.500   0.354  14.908
78962W        W51376  31.983  24.715   2.722
78963W        W51377   4.324  13.686  11.934
78964W        W51378   8.217   7.246   0.860
78965W        W51379  24.109  11.814   2.271
78966W        W51380  42.940   0.874  12.888
78967W        W51381  29.460  15.656   0.424
78968W        W51382  30.431  30.079   1.871
78969W        W51383  14.630  32.523   0.888
78970W        W51384  31.008  43.868  12.857
78971W        W51385   9.299  12.721   0.950
78972W        W51386  38.863   6.818   0.478
78973W        W51387   6.344  28.588   4.196
78974W        W51388  24.684  29.642   1.816
78975W        W51389   9.836  11.212  12.495
78976W        W51390  39.399  20.599  13.029
78977W        W51391  33.123  21.631   2.724
78978W        W51392  26.458  17.735   4.187
78979W        W51393  24.711  31.633   1.862
78980W        W51394   7.674  16.243   3.202
78981W        W51395  19.678  26.051  11.487
78982W        W51396   8.732  33.890   4.260
78983W        W51397  24.709   4.449   1.369
78984W        W51398  33.552  14.787  11.569
78985W        W51399  29.967  28.663   0.739
78986W        W51400   8.812  12.182  12.412
78987W        W51401  14.285  11.307  14.808
78988W        W51402   6.876  16.584   1.898
78989W        W51403   9.173  17.684   3.210
78990W        W51404  22.588   9.321   4.117
78991W        W51405   1.451  10.678  13.893
78992W        W51406  10.371  20.769  10.079
78993W        W51407   3.241  18.153   0.930
78994W        W51408  36.063  12.248  10.513
78995W        W51409  19.211  21.602   4.282
78996W        W51410  36.519  18.621  11.954
78997W        W51411  24.558  31.994  14.484
78998W        W51412  33.401  42.910  11.986
78999W        W51413  37.522  23.050   1.861
79000W        W51414  34.055  43.480  12.473
79001W        W51415  30.105  30.632   1.268
79002W        W51416  27.098  30.084  13.524
79003W        W51417  41.806  40.518  10.084
79004W        W51418  38.899  10.359   2.663
79005W        W51419   7.692  20.564  11.382
79006W        W51420  14.226  28.505  10.955
79007W        W51421  13.284  40.968  11.901
79008W        W51422   8.802  17.152   5.311
79009W        W51423  10.299  38.004   2.767
79010W        W51424  24.489  17.067   0.254
79011W        W51425  35.382   8.169   2.873
79012W        W51426  28.062  28.533  13.845
79013W        W51427   2.944  28.179   2.371
79014W        W51428  14.733  10.245   0.872
79015W        W51429  38.927  42.295   0.905
79016W        W51430   4.301  44.403   3.169
79017W        W51431  18.160  23.118   1.892
79018W        W51432   3.890  40.023  12.854
79019W        W51433  10.652  41.329   2.880
79020W        W51434  41.451   6.812   1.211
79021W        W51435  35.553  44.986   3.327
79022W        W51436  37.417  32.553   5.293
79023W        W51437  20.234  39.895   1.339
79024W        W51438  38.877  13.622  12.938
79025W        W51439  40.431  24.542  14.370
79026W        W51440   4.233  23.226   3.240
79027W        W51441  43.273  44.857   0.821
79028W        W51442  37.984  35.936  12.073
79029W        W51443  32.061   9.688   1.777
79030W        W51444   8.205   3.345   2.730
79031W        W51445  40.358  28.990   0.776
79032W        W51446  23.514   7.780  14.466
79033W        W51447  40.808  30.469  14.448
79034W        W51448  23.592  42.890   4.150
79035W        W51449   5.788   4.783  14.292
79036W        W51450  34.415  10.648  13.046
79037W        W51451  25.667   1.310  12.018
79038W        W51452  30.935   2.234   3.654
79039W        W51453  36.400  22.107  13.032
79040W        W51454   2.292  42.779  14.781
79041W        W51455  11.192  44.977  10.462
79042W        W51456  39.863  21.255   1.867
79043W        W51457  42.424  17.223  12.018
79044W        W51458  26.016  22.627  13.023
79045W        W51459  14.770   1.316   1.389
79046W        W51460  42.335  25.196  11.976
79047W        W51461  39.435  41.329   4.820
79048W        W51462  22.022  15.809  13.915
79049W        W51463  10.671  44.929  13.034
79050W        W51464  41.394   4.700   1.796
79051W        W51465  23.695   2.425  10.439
79052W        W51466  20.692  27.574   1.762
79053W        W51467  23.598   8.761  11.951
79054W        W51468   8.676  44.958   1.870
79055W        W51469  44.382  42.010  10.114
79056W        W51470   9.879  22.115  13.877
79057W        W51471  19.731  30.993   1.413
79058W        W51472  27.574  28.513   4.201
79059W        W51473  11.807   5.347  10.989
79060W        W51474   9.325  18.066   4.332
79061W        W51475  21.631  13.225   0.879
79062W        W51476   4.836  39.557  10.938
79063W        W51477  26.013   4.822   2.291
79064W        W51478   6.860  35.101   1.396
79065W        W51479  35.863  22.720  14.898
79066W        W51480  23.553  24.689   1.418
79067W        W51481  32.037  20.262  10.579
79068W        W51482  39.923  39.039  10.493
79069W        W51483  39.442   3.864  12.991
79070W        W51484  19.696  39.985   1.847
79071W        W51485  37.048  11.129  14.922
79072W        W51486  12.674  26.098  10.970
79073W        W51487  28.175   6.347   3.654
79074W        W51488  40.456   4.226  12.024
79075W        W51489  28.994   7.860  12.424
79076W        W51490  14.815   5.843   9.929
79077W        W51491  24.657   7.865  12.931
79078W        W51492  36.876  22.732   2.247
79079W        W51493  22.680  26.019   1.313
79080W        W51494  32.990   6.761   0.768
79081W        W51495  31.503  34.586   2.808
79082W        W51496  34.573  11.289  11.429
79083W        W51497  11.643  39.379   3.655
79084W        W51498  21.550   4.246  14.506
79085W        W51499   9.830  25.010  12.493
79086W        W51500   5.782  21.698   2.249
79087W        W51501  44.422  35.493  14.497
79088W        W51502  40.816  27.509  11.599
79089W        W51503   0.491  43.853  14.781
79090W        W51504   6.793  18.769   2.408
79091W        W51505   3.934  29.586   1.876
79092W        W51506  37.971  42.521   2.831
79093W        W51507  19.041  44.837  14.769
79094W        W51508  22.214  40.454  12.012
79095W        W51509  26.102  33.002  14.374
79096W        W51510  10.271   8.268   0.284
79097W        W51511  31.480   2.832   1.368
79098W        W51512   0.847  16.640  12.424
79099W        W51513  23.236   3.795  12.368
79100W        W51514  12.265  16.580  13.846
79101W        W51515  37.926   3.308   1.415
79102W        W51516  32.087   8.683   2.671
79103W        W51517  43.458  27.125  10.572
79104W        W51518   5.272   2.444  11.063
79105W        W51519  41.786   6.769   1.410
79106W        W51520  28.985  22.221  11.596
79107W        W51521  24.170  33.023  13.940
79108W        W51522  32.404   7.327  12.364
79109W        W51523  32.026   7.846  10.404
79110W        W51524  36.056   5.371   0.828
79111W        W51525  33.490  15.250  11.584
79112W        W51526   9.318  25.152   5.278
79113W        W51527  25.105  40.469   3.159
79114W        W51528  32.532  19.099   0.450
79115W        W51529   9.668   0.885   0.313
79116W        W51530  28.528   0.266   1.709
79117W        W51531  26.963  30.032  12.375
79118W        W51532   1.249  37.993   2.257
79119W        W51533   6.853  30.609  12.381
79120W        W51534   7.879   3.945  11.933
79121W        W51535  39.018  10.365  13.863
79122W        W51536  18.263  37.033   3.362
79123W        W51537  18.268  34.086  14.935
79124W        W51538  28.600  17.293  12.343
79125W        W51539  14.153  21.258   1.273
79126W        W51540  38.030   4.864   4.187
79127W        W51541  10.762  28.090  14.465
79128W        W51542  30.437  12.254   1.860
79129W        W51543  38.983   7.698   0.333
79130W        W51544  34.483   1.448  10.914
79131W        W51545  16.748  20.103  10.145
79132W        W51546  35.583  30.453   0.463
79133W        W51547  39.014   6.838   3.160
79134W        W51548  27.446  34.916  13.973
79135W        W51549  44.951  11.255   0.302
79136W        W51550   7.235  40.806   4.199
79137W        W51551  17.738  40.495   0.477
79138W        W51552  40.857  39.942  10.491
79139W        W51553   8.239  34.090  11.991
79140W        W51554  10.760   9.172   1.234
79141W        W51555  22.532  27.001   0.954
79142W        W51556  43.426  44.265   2.352
79143W        W51557   3.745   4.795   2.357
79144W        W51558  29.450   9.274   1.850
79145W        W51559  30.431  30.931   0.808
79146W        W51560  29.130  40.481  13.931
79147W        W51561  16.124   2.877   0.791
79148W        W51562  12.699  30.991   0.384
79149W        W51563  32.894  26.126   3.224
79150W        W51564  30.054  44.851   2.223
79151W        W51565  33.936  21.704  12.473
79152W        W51566  14.772   8.282   0.865
79153W        W51567  35.022  33.006   4.770
79154W        W51568   1.438   0.838   4.715
79155W        W51569  13.235  43.376  11.933
79156W        W51570  27.631  30.576  11.377
79157W        W51571  13.268  19.130   1.267
79158W        W51572  21.248  32.917  14.498
79159W        W51573  23.216  28.464   2.193
79160W        W51574   2.915  27.957  13.946
79161W        W51575  26.961  43.446  11.903
79162W        W51576  41.020  26.462  10.578
79163W        W51577   1.963  13.820   0.962
79164W        W51578   5.801  14.770   3.316
79165W        W51579  26.565  12.716  12.408
79166W        W51580  31.914  23.182   4.720
79167W        W51581  20.673  43.320   3.792
79168W        W51582  35.569  11.663  14.827
79169W        W51583  23.565  37.524   4.752
79170W        W51584  28.565  26.954  13.419
79171W        W51585  25.041  38.486  12.361
79172W        W51586   6.849  41.935  13.035
79173W        W51587  33.459   0.850   2.237
79174W        W51588  23.038  26.191  14.491
79175W        W51589   0.255  17.305   4.128
79176W        W51590   5.812  30.134   0.910
79177W        W51591  38.912  41.827  13.329
79178W        W51592  33.608  39.059   1.282
79179W        W51593  17.254  26.635  11.118
79180W        W51594  36.378  11.228   0.411
79181W        W51595   2.769  36.902  14.355
79182W        W51596  28.573  25.109   0.314
79183W        W51597  31.502  32.977  10.454
79184W        W51598  21.567   9.297  14.891
79185W        W51599  42.809  35.961   3.266
79186W        W51600   7.283  13.203   3.774
79187W        W51601  37.911  17.597  11.998
79188W        W51602  26.198   5.316  13.030
79189W        W51603  27.072  25.059  14.851
79190W        W51604  37.375  17.219  12.030
79191W        W51605  12.117  35.994   1.310
79192W        W51606  10.251  30.473  10.899
79193W        W51607  30.653  22.178  14.981
79194W        W51608  35.455  16.192   0.909
79195W        W51609  12.300  23.627   2.369
79196W        W51610  12.211   4.265   4.632
79197W        W51611  14.767   0.272   0.858
79198W        W51612  11.797  20.546   0.435
79199W        W51613  43.466  43.471   1.721
79200W        W51614  31.444  33.128  12.463
79201W        W51615  16.261  10.205  12.941
79202W        W51616  42.309  30.106  12.498
79203W        W51617  10.226  13.176   2.884
79204W        W51618  20.141  40.944  14.415
79205W        W51619   2.931  43.830  14.915
79206W        W51620  20.666  25.550  13.518
79207W        W51621  29.507   3.387   1.923
79208W        W51622   6.232  42.975  10.137
79209W        W51623   9.384   5.788  11.058
79210W        W51624  28.020  21.059  10.147
79211W        W51625  41.388  41.306   4.818
79212W        W51626  14.810  22.682   4.222
79213W        W51627  40.961  16.212   1.696
79214W        W51628  22.698   3.425   5.086
79215W        W51629   8.814   3.369  11.548
79216W        W51630  22.024  23.556   2.265
79217W        W51631  20.142  10.731  11.977
79218W        W51632   3.421  22.186  11.554
79219W        W51633  14.772   4.788  12.419
79220W        W51634  44.796  12.267   4.233
79221W        W51635   2.305  36.440  14.406
79222W        W51636   4.856  12.837  12.362
79223W        W51637  34.392  17.640   3.318
79224W        W51638  15.730  17.584   0.265
79225W        W51639  40.016  19.200   2.281
79226W        W51640  43.280  41.024  12.025
79227W        W51641  20.086  20.617   3.725
79228W        W51642   4.899   8.852   2.716
79229W        W51643   2.316  39.035   3.838
79230W        W51644   2.397   2.837   4.812
79231W        W51645   7.732   7.717  11.610
79232W        W51646  33.605  31.630  11.451
79233W        W51647  25.504  11.303   0.838
79234W        W51648  16.627  40.935   1.227
79235W        W51649  39.368   7.891   4.171
79236W        W51650  34.387   7.668   4.290
79237W        W51651  14.770  27.460   3.760
79238W        W51652  33.407  28.493  14.015
79239W        W51653  13.756  14.108  13.462
79240W        W51654  15.131   3.220   4.123
79241W        W51655   0.877   4.347  14.347
79242W        W51656  20.165  13.645  12.972
79243W        W51657  44.931   9.185   1.733
79244W        W51658  23.000  31.911  11.995
79245W        W51659   7.815  37.576  11.072
79246W        W51660   9.192  14.804  11.495
79247W        W51661  24.016   9.751   4.207
79248W        W51662  19.218  38.844   1.447
79249W        W51663  32.898  23.986   3.863
79250W        W51664   4.837  39.844   4.818
79251W        W51665  19.202  16.150   3.310
79252W        W51666  31.936  42.437   1.868
79253W        W51667  34.059  21.155  11.439
79254W        W51668  25.585  38.522   1.760
79255W        W51669  42.523  18.750  11.879
79256W        W51670   2.850  43.366   5.285
79257W        W51671  26.991  41.400   3.745
79258W        W51672   7.777   7.282  14.769
79259W        W51673  34.378   1.281  10.506
79260W        W51674  25.502  15.641  12.562
79261W        W51675  29.001   3.362   4.237
79262W        W51676  21.118  23.650   3.792
79263W        W51677  20.240  29.011  12.457
79264W        W51678  11.346  18.648   3.701
79265W        W51679  30.086  31.567  12.546
79266W        W51680  17.259  11.629  12.891
79267W        W51681  16.175  37.886  13.878
79268W        W51682   8.302  20.674  13.044
79269W        W51683  15.292  20.757   9.614
79270W        W51684  38.052  20.602   2.830
79271W        W51685  24.045  42.287  12.826
79272W        W51686  41.987   1.733  10.994
79273W        W51687  28.509  26.684  13.502
79274W        W51688  19.591  15.677  13.058
79275W        W51689  13.216  22.205   0.950
79276W        W51690   3.219  42.979   2.781
79277W        W51691  17.678  12.842   3.688
79278W        W51692  19.081  19.118   0.968
79279W        W51693  40.466  23.527   2.786
79280W        W51694   9.169  33.975   0.438
79281W        W51695  41.390  29.147   3.292
79282W        W51696  37.086  42.834  11.471
79283W        W51697  37.873  44.884  12.419
79284W        W51698  35.899  39.354   1.739
79285W        W51699  24.543  37.048   3.352
79286W        W51700   9.738  28.516   1.898
79287W        W51701  39.504  28.608  13.981
79288W        W51702  39.381  13.337  10.641
79289W        W51703  39.406  42.000  10.945
79290W        W51704  33.945  25.636  12.478
79291W        W51705  39.871  26.640  13.865
79292W        W51706  34.437  28.118  11.903
79293W        W51707  42.860  33.458   4.153
79294W        W51708   0.332  26.158  10.892
79295W        W51709  24.510  26.473  13.424
79296W        W51710  42.851  12.668  12.020
79297W        W51711  34.614  41.334  14.331
79298W        W51712  32.466  18.132  12.484
79299W        W51713  39.993  23.171   4.826
79300W        W51714   6.690   5.740  12.019
79301W        W51715  18.120  20.100  11.417
79302W        W51716  10.643  26.031   2.399
79303W        W51717  38.417  25.669   3.706
79304W        W51718  18.752  24.993  12.857
79305W        W51719   6.182  28.181  10.434
79306W        W51720   4.908  11.350   4.277
79307W        W51721  16.723  10.288  11.903
79308W        W51722   2.337  13.115   4.324
79309W        W51723  14.314   9.390   5.204
79310W        W51724  31.947  24.722  10.457
79311W        W51725  33.975  12.235  11.422
79312W        W51726   0.915  36.897  13.001
79313W        W51727  39.516  37.079   1.313
79314W        W51728  24.170  18.086   3.331
79315W        W51729  10.277  32.074  12.924
79316W        W51730  22.086  16.187   5.179
79317W        W51731  24.206   5.394   2.709
79318W        W51732  22.621  22.184   3.671
79319W        W51733   6.413  34.604   3.730
79320W        W51734  44.771  42.942  12.364
79321W        W51735  26.547  30.548   2.676
79322W        W51736  25.143  35.885  10.933
79323W        W51737  39.408  29.990   0.365
79324W        W51738  25.667   9.728   1.840
79325W        W51739  36.542  36.955   3.158
79326W        W51740  40.877  41.936   3.356
79327W        W51741  36.867   0.751   2.254
79328W        W51742  41.534   2.810   2.805
79329W        W51743  36.551  33.009  10.986
79330W        W51744  18.246  22.645   0.802
79331W        W51745  27.042   1.811   4.260
79332W        W51746  19.589  41.899  14.414
79333W        W51747  21.032   0.743  12.044
79334W        W51748  12.636  41.877  14.812
79335W        W51749  26.044  16.117   3.754
79336W        W51750  36.916  17.698  11.438
79337W        W51751  31.557  21.680  13.491
79338W        W51752  31.947  18.575   1.276
79339W        W51753  20.599  35.532   4.671
79340W        W51754  28.497  29.101   1.220
79341W        W51755  12.251   1.972   2.404
79342W        W51756  23.078  28.134  13.327
79343W        W51757   1.270  31.996   3.156
79344W        W51758  35.075  19.140   4.774
79345W        W51759  35.867  34.905  12.471
79346W        W51760  20.243  27.518   1.705
79347W        W51761  15.634   9.657   1.763
79348W        W51762  23.030   7.811  11.943
79349W        W51763  44.423   9.835   9.953
79350W        W51764  43.888  33.564  12.442
79351W        W51765  34.077   9.726  11.462
79352W        W51766  44.475   2.794   0.482
79353W        W51767  38.956  32.614   1.370
79354W        W51768  17.257  36.892  10.501
79355W        W51769  14.814   1.462   0.433
79356W        W51770  31.904   4.286   1.920
79357W        W51771  15.660   8.227   9.477
79358W        W51772  20.159  23.101  14.816
79359W        W51773  17.695  23.237  13.373
79360W        W51774  39.425  24.063   0.927
79361W        W51775  38.910  25.604   1.267
79362W        W51776  34.387  34.877   0.787
79363W        W51777  39.378  33.625  14.931
79364W        W51778  11.149  38.524   0.820
79365W        W51779   5.246  36.009  12.043
79366W        W51780  30.577   8.857   2.669
79367W        W51781  41.511  24.205  13.382
79368W        W51782  33.504  42.483  14.018
79369W        W51783  15.630  16.190  14.970
79370W        W51784  38.074   9.387  13.484
79371W        W51785  35.062  24.135   4.227
79372W        W51786   1.951  36.023  12.845
79373W        W51787  29.056  25.216  14.789
79374W        W51788  22.552   0.963  11.518
79375W        W51789  23.663   4.296   0.741
79376W        W51790   8.729   2.809  14.981
79377W        W51791  31.618  28.054  11.993
79378W        W51792  24.496   0.840   2.742
79379W        W51793  44.264  39.465  11.544
79380W        W51794  12.833  44.376   0.956
79381W        W51795  39.444  35.432   0.469
79382W        W51796  10.845  16.210  13.317
79383W        W51797  43.382  16.792   1.279
79384W        W51798  13.788  34.411  13.324
79385W        W51799  35.598  43.916  12.824
79386W        W51800  15.655  17.259  13.809
79387W        W51801  19.230   9.382  14.965
79388W        W51802  11.854   4.318   1.375
79389W        W51803  35.467  28.961  13.861
79390W        W51804  41.887  44.305   3.274
79391W        W51805  19.627  11.830   3.320
79392W        W51806   3.874  14.175   2.216
79393W        W51807  30.476   0.437  12.443
79394W        W51808  30.998  16.289   3.663
79395W        W51809  10.670   7.281  12.870
79396W        W51810   1.309   0.326  14.900
79397W        W51811  18.580  31.447   0.483
79398W        W51812   0.975  42.455   4.620
79399W        W51813  22.065  16.593  14.511
79400W        W51814  25.698  37.931  13.050
79401W        W51815  18.054  38.979   0.938
79402W        W51816   9.864  12.660  13.327
79403W        W51817   5.701  38.429  12.377
79404W        W51818  15.792  12.696  11.085
79405W        W51819   5.763  27.610   2.219
79406W        W51820  29.168  28.446   4.266
79407W        W51821  23.036  26.471   2.725
79408W        W51822  22.539   2.786   4.172
79409W        W51823  21.051   8.697   4.138
79410W        W51824   4.822   3.454   1.268
79411W        W51825  18.162  11.627   4.137
79412W        W51826  10.377  43.374  14.890
79413W        W51827   8.184  25.016   3.271
79414W        W51828  28.081  29.554   0.250
79415W        W51829  18.695  12.358   3.330
79416W        W51830  41.293   6.309  10.585
79417W        W51831   1.278   8.755   3.854
79418W        W51832  38.346  14.821   0.952
79419W        W51833   7.360  23.641   0.834
79420W        W51834   2.441  42.006  14.864
79421W        W51835  21.204  28.462  11.044
79422W        W51836  11.359   5.793   1.764
79423W        W51837   6.759   4.430  14.005
79424W        W51838  42.910  43.864   3.271
79425W        W51839  30.654   8.678   0.951
79426W        W51840  18.575  44.294   3.647
79427W        W51841  44.796  19.552   0.767
79428W        W51842   0.377  37.474   0.420
79429W        W51843  20.634  33.443  11.898
79430W        W51844  37.894   8.731  12.564
79431W        W51845  34.500  43.285  13.489
79432W        W51846  36.849   2.401   3.659
79433W        W51847  17.677  16.315  10.486
79434W        W51848  28.987  26.522   3.171
79435W        W51849  21.579   4.700   2.863
79436W        W51850  28.641  26.973   4.259
79437W        W51851  30.047   5.725  10.477
79438W        W51852  16.709  13.201   1.809
79439W        W51853  26.132  29.562   1.910
79440W        W51854  26.570  21.064   4.126
79441W        W51855  42.326  17.177  14.381
79442W        W51856  11.238   2.813   2.665
79443W        W51857   5.689  40.331  12.879
79444W        W51858  15.778  22.507   5.209
79445W        W51859  42.963   8.315   2.397
79446W        W51860  17.064  16.198   1.282
79447W        W51861  36.351  25.136  11.925
79448W        W51862  36.351  20.552  10.432
79449W        W51863  44.937  31.938   2.323
79450W        W51864   1.914  26.700  11.933
79451W        W51865  39.902  38.959  12.916
79452W        W51866  21.119  18.624   0.468
79453W        W51867  25.066  43.794   1.903
79454W        W51868  14.305   3.409   5.250
79455W        W51869  38.946  44.782  14.992
79456W        W51870  20.584  41.428  12.464
79457W        W51871  32.603  20.706  10.530
79458W        W51872   7.703   6.882  12.497
79459W        W51873   4.319  34.918   0.800
79460W        W51874  27.043  23.194  14.434
79461W        W51875  30.073  33.405   0.396
79462W        W51876  42.926  29.991  13.999
79463W        W51877  20.204  32.935   4.341
79464W        W51878   3.833  38.439   0.407
79465W        W51879  42.876  19.770  11.447
79466W        W51880  11.313  22.725  11.562
79467W        W51881  35.998  27.084   4.181
79468W        W51882  37.056  40.877   1.747
79469W        W51883  36.411   6.923  13.896
79470W        W51884  42.328  17.636  11.973
79471W        W51885  41.909  42.449   4.672
79472W        W51886  44.970  14.220   4.794
79473W        W51887  17.238  23.086  10.598
79474W        W51888  42.442  14.259  11.030
79475W        W51889  27.940   5.697  14.386
79476W        W51890   0.494  42.311   2.314
79477W        W51891  40.849  43.857  12.953
79478W        W51892  41.026  23.640   3.284
79479W        W51893   7.725  26.114   2.757
79480W        W51894  38.049   9.713  10.455
79481W        W51895  38.554   7.352   1.911
79482W        W51896  40.397  15.225   0.327
79483W        W51897  12.237   3.848   0.823
79484W        W51898   1.384   2.909  13.960
79485W        W51899  20.657  28.984   2.864
79486W        W51900  26.025   1.767   1.837
79487W        W51901  28.027  24.713  10.952
79488W        W51902  18.121  11.261  13.952
79489W        W51903  23.042   3.358  13.336
79490W        W51904  10.840   4.316  12.430
79491W        W51905  32.084  39.559  11.573
79492W        W51906  37.459  19.547  10.984
79493W        W51907  44.351  23.015  13.349
79494W        W51908  32.580  39.808   1.266
79495W        W51909   4.847   0.312   4.125
79496W        W51910  15.817  24.720   3.222
79497W        W51911  39.399   7.197   1.828
79498W        W51912  28.547   9.154  10.568
79499W        W51913  14.678  43.796  10.539
79500W        W51914  35.029  22.549  13.904
79501W        W51915  37.399  20.126  11.109
79502W        W51916   6.769   1.256   4.182
79503W        W51917  14.618  14.637   3.630
79504W        W51918  19.224  30.596  12.568
79505W        W51919  31.094  15.248  14.451
79506W        W51920  42.956  18.665  13.491
79507W        W51921  39.468  19.136   4.764
79508W        W51922   2.812   3.715  14.879
79509W        W51923  36.953  42.933   4.643
79510W        W51924  32.122  14.232   4.328
79511W        W51925   2.280  15.097   1.356
79512W        W51926  11.244  14.241   4.832
79513W        W51927  31.932  20.694  12.342
79514W        W51928  23.080  34.061  12.473
79515W        W51929  38.425  43.271   2.797
79516W        W51930  39.402  44.865   4.639
79517W        W51931  42.281  11.268  13.837
79518W        W51932  19.285  31.933  12.833
79519W        W51933  26.597  30.537   0.827
79520W        W51934  12.847   9.284  11.445
79521W        W51935  34.456  38.983   1.316
79522W        W51936  41.798  14.132  10.641
79523W        W51937  19.585  35.858   3.375
79524W        W51938  34.460   6.840   3.377
79525W        W51939  42.816  31.608  10.601
79526W        W51940  12.173  20.101   2.378
79527W        W51941   4.741  42.521   4.331
79528W        W51942   6.872  13.713   2.879
79529W        W51943  35.479  23.061   2.731
79530W        W51944  37.046   2.792  11.564
79531W        W51945  24.559   2.861   1.221
79532W        W51946  26.103  38.915  14.514
79533W        W51947  16.642  44.465   5.640
79534W        W51948  12.126  27.029  14.465
79535W        W51949  34.503   2.444   0.965
79536W        W51950  34.892  30.640  12.351
79537W        W51951  28.091  36.090  10.461
79538W        W51952  13.639  29.968   0.339
79539W        W51953  19.272   2.800   3.748
79540W        W51954  44.780  15.092  14.897
79541W        W51955  18.108  21.255   4.274
79542W        W51956  15.769  44.784   4.317
79543W        W51957  27.984  29.035  13.436
79544W        W51958  28.556  39.956   4.344
79545W        W51959  41.957  44.778   4.755
79546W        W51960  16.572  36.432  11.395
79547W        W51961   9.181  39.465   3.178
79548W        W51962   0.476  37.911   2.705
79549W        W51963  23.988  11.210   0.900
79550W        W51964   1.463  10.320  14.893
79551W        W51965  36.527  32.008   2.356
79552W        W51966  15.661   3.412  12.567
79553W        W51967  43.278  29.490   0.254
79554W        W51968  42.020  10.786  10.548
79555W        W51969  41.867   1.838  14.993
79556W        W51970  17.798  33.066  11.996
79557W        W51971  23.722  29.639  11.553
79558W        W51972  22.736  30.451  11.379
79559W        W51973  16.109  14.227   4.222
79560W        W51974  27.138  29.064   4.261
79561W        W51975  14.797   4.919   1.819
79562W        W51976  43.442  22.146  11.053
79563W        W51977  42.026  42.852  11.372
79564W        W51978  12.253  23.135   2.764
79565W        W51979  43.421   6.781   0.259
79566W        W51980  10.766  43.431   0.795
79567W        W51981  17.142   8.758  10.892
79568W        W51982  21.690  10.671   1.913
79569W        W51983  43.796   2.799  11.468
79570W        W51984   9.319   0.300   3.254
79571W        W51985  37.444  32.101   5.317
79572W        W51986  36.961   6.797  10.598
79573W        W51987  36.550  21.147   3.331
79574W        W51988  41.504  21.107  11.564
79575W        W51989   3.281  30.108   3.314
79576W        W51990  20.151  34.431  13.338
79577W        W51991   5.248   5.285  10.506
79578W        W51992   4.773   0.979   2.791
79579W        W51993  28.112  24.624  14.498
79580W        W51994  18.164  30.957   0.857
79581W        W51995  35.428  32.067   1.399
79582W        W51996  29.432   4.811   0.347
79583W        W51997  36.444   6.398  12.054
79584W        W51998  38.354  41.464   0.405
79585W        W51999  16.659  20.221  14.844
79586W        W52000  23.658  44.354  10.011
79587W        W52001  23.550  44.441  11.543
79588W        W52002  17.788   8.406   0.914
79589W        W52003  31.641  10.654   3.261
79590W        W52004   8.223  24.674   0.351
79591W        W52005  21.133   3.806  12.078
79592W        W52006   1.823  20.112  13.036
79593W        W52007  25.546   6.722  12.429
79594W        W52008  36.379   9.218   0.244
79595W        W52009  15.644  25.165  12.422
79596W        W52010  36.407  20.042   3.850
79597W        W52011  42.968  27.633   1.309
79598W        W52012   3.811  35.436  12.565
79599W        W52013  24.550  33.490  11.497
79600W        W52014  16.236  33.419  13.450
79601W        W52015  17.619   3.927  14.312
79602W        W52016   0.839  35.939  14.314
79603W        W52017   8.215  25.488   0.402
79604W        W52018   7.902   7.338   2.356
79605W        W52019  33.503  14.727   4.218
79606W        W52020   7.208  42.865  13.333
79607W        W52021   4.431  13.670   3.646
79608W        W52022  39.539  32.469   3.785
79609W        W52023  12.302   9.204  11.026
79610W        W52024   5.245  12.119   3.867
79611W        W52025  42.507  37.489  12.574
79612W        W52026   0.842  30.513   4.247
79613W        W52027  38.035   3.408   4.289
79614W        W52028  33.903   1.762  11.603
79615W        W52029  29.009  38.561  14.415
79616W        W52030   0.412  37.920  10.933
79617W        W52031  23.121  12.614  13.935
79618W        W52032  44.395  33.620  14.788
79619W        W52033  18.747   7.405  11.517
79620W        W52034  14.603  24.136   3.828
79621W        W52035  30.080  25.995   3.342
79622W        W52036  40.509   7.761   1.838
79623W        W52037  13.723  15.316   3.324
79624W        W52038  15.644  17.611  14.840
79625W        W52039  11.866  44.985  10.020
79626W        W52040  38.461  39.920   4.253
79627W        W52041  24.169  27.069  11.417
79628W        W52042  22.540  22.516   4.167
79629W        W52043  24.149  12.751   0.729
79630W        W52044  19.218  44.789   5.711
79631W        W52045  11.158   6.191   3.712
79632W        W52046   4.251  24.695   0.297
79633W        W52047  20.526  20.250  14.841
79634W        W52048  10.864  32.073  12.494
79635W        W52049  21.045  30.980   4.250
79636W        W52050  17.090  37.076  14.375
79637W        W52051  28.164  42.446   1.912
79638W        W52052  19.616  28.970  11.542
79639W        W52053   7.233  35.103   4.220
79640W        W52054   0.844  10.643  11.962
79641W        W52055  36.566  35.395  13.842
79642W        W52056  24.723  34.584  12.876
79643W        W52057  11.790  26.008  13.485
79644W        W52058  29.153  15.577  14.932
79645W        W52059  16.247  43.016  11.122
79646W        W52060   8.247  19.679  14.980
79647W        W52061  39.529  16.709  12.388
79648W        W52062   2.282  22.164   0.302
79649W        W52063  41.967  44.795  13.991
79650W        W52064  40.444  29.546  10.425
79651W        W52065  36.375   5.438   3.166
79652W        W52066  14.252  17.252   3.720
79653W        W52067  12.788  43.773   4.335
79654W        W52068  28.054  28.522   2.356
79655W        W52069  25.570  42.964  12.984
79656W        W52070  13.211  32.026  11.536
79657W        W52071  40.385  28.502  12.001
79658W        W52072   1.290  44.822   4.754
79659W        W52073   7.359  27.501   2.845
79660W        W52074  25.204  32.569   2.711
79661W        W52075  17.152   0.959  14.861
79662W        W52076  15.218  38.048   4.694
79663W        W52077  15.191  38.032  13.442
79664W        W52078  25.120  13.722  12.084
79665W        W52079  25.023  21.617   4.302
79666W        W52080  28.574  14.291  11.460
79667W        W52081  19.769  10.355  10.421
79668W        W52082  39.315  29.522   4.334
79669W        W52083  14.787  29.448   1.341
79670W        W52084  28.028  19.175   0.429
79671W        W52085  37.412   5.760  13.024
79672W        W52086   6.869  11.771  12.397
79673W        W52087  36.501   1.750  14.466
79674W        W52088  30.475   4.941   2.395
79675W        W52089   9.159  44.897  11.002
79676W        W52090  41.367  20.606  10.984
79677W        W52091   4.347  20.060  13.055
79678W        W52092  33.069  41.486  12.066
79679W        W52093  15.817  16.192   2.229
79680W        W52094   2.841  26.491   3.784
79681W        W52095  37.349  20.735   4.227
79682W        W52096  29.569  13.155  12.838
79683W        W52097  18.662  29.962   0.333
79684W        W52098  16.779  21.102   2.852
79685W        W52099   8.875  35.587   1.779
79686W        W52100  22.134  12.649  11.127
79687W        W52101  35.872  28.964   0.367
79688W        W52102   1.834  10.265   4.721
79689W        W52103  29.452  38.964   2.894
79690W        W52104  44.941   9.354  11.864
79691W        W52105  33.471   0.912  10.412
79692W        W52106  28.032  13.295   0.729
79693W        W52107  16.583  20.752   2.668
79694W        W52108   8.726   1.898   2.726
79695W        W52109  15.718  40.003   0.429
79696W        W52110  34.459  44.391   4.322
79697W        W52111  18.192  32.098   0.356
79698W        W52112  28.528  14.244  13.510
79699W        W52113   3.401   5.871  10.515
79700W        W52114   5.284  29.636   3.304
79701W        W52115   6.247   9.824   0.337
79702W        W52116  38.511  18.721  14.378
79703W        W52117  29.073  10.827   3.239
79704W        W52118  11.346  12.144  14.029
79705W        W52119  23.580  27.691  14.843
79706W        W52120  31.496  23.510  12.919
79707W        W52121  29.433  22.194  12.477
79708W        W52122   3.730  23.226   0.825
79709W        W52123  14.148  25.678  12.538
79710W        W52124   8.307   0.793   1.901
79711W        W52125  30.929   5.765   3.159
79712W        W52126  42.350  19.052  13.945
79713W        W52127  16.127  43.435  12.065
79714W        W52128   1.803  42.327   3.683
79715W        W52129  18.678   1.301   2.282
79716W        W52130  24.169  27.962   2.183
79717W        W52131  31.127   8.262   1.370
79718W        W52132  37.375  20.693   0.398
79719W        W52133  43.924  24.049   3.861
79720W        W52134   7.346   7.821   3.379
79721W        W52135  25.079   3.726  10.909
79722W        W52136  25.678  13.715   0.326
79723W        W52137  41.952   4.317   3.795
79724W        W52138   8.761   9.212   2.709
79725W        W52139   6.358  40.948  13.310
79726W        W52140  42.018  25.709  10.553
79727W        W52141  43.015  32.443   2.847
79728W        W52142  25.031  18.762   2.746
79729W        W52143  18.619  40.473  12.467
79730W        W52144  44.874  32.926   0.849
79731W        W52145   0.404  19.152   2.226
79732W        W52146   2.365  40.370   0.288
79733W        W52147   7.814  13.833  12.408
79734W        W52148  44.868  18.768  13.321
79735W        W52149  39.455  20.056   1.742
79736W        W52150  37.039  25.021  12.835
79737W        W52151   0.302  11.209   0.316
79738W        W52152  29.653  28.503  13.825
79739W        W52153  31.947  13.759  12.046
79740W        W52154  14.757   4.214   3.688
79741W        W52155  15.784  23.725  13.382
79742W        W52156  14.771  34.433   1.735
79743W        W52157   2.755  10.354   3.781
79744W        W52158  30.020  24.722   3.850
79745W        W52159  11.199  10.786   0.271
79746W        W52160  13.247  38.457  12.989
79747W        W52161  28.044   7.762  13.931
79748W        W52162   4.205   3.831  10.638
79749W        W52163  27.679  16.238   4.261
79750W        W52164  24.027  20.168  14.318
79751W        W52165  24.606  10.288   0.832
79752W        W52166  25.110  13.786   1.932
79753W        W52167   2.857  27.638   3.218
79754W        W52168   9.791  41.817  13.987
79755W        W52169  44.264  30.928  13.534
79756W        W52170  22.011   4.827  14.775
79757W        W52171  35.868  11.226  12.990
79758W        W52172  36.516  26.093  10.926
79759W        W52173   3.385  10.324   0.920
79760W        W52174   2.947  28.112   0.440
79761W        W52175  27.177   7.304  13.454
79762W        W52176   2.349  26.957   5.222
79763W        W52177  23.569  14.755  13.489
79764W        W52178   9.292   8.851   1.915
79765W        W52179  30.550  31.572   3.723
79766W        W52180   1.427  30.593  10.504
79767W        W52181  21.159  37.444   1.237
79768W        W52182  20.179   7.846  14.859
79769W        W52183   1.780  22.246  13.941
79770W        W52184  35.417  17.129   3.148
79771W        W52185  14.303  43.511  13.872
79772W        W52186  24.552  29.510  12.015
79773W        W52187  30.512   0.833   4.284
79774W        W52188  42.477   5.733  11.089
79775W        W52189  30.458  44.450  13.821
79776W        W52190  25.218  13.281  14.014
79777W        W52191   3.256  24.113  11.520
79778W        W52192  13.312  33.534   1.882
79779W        W52193  30.992   9.658   3.232
79780W        W52194  30.623  17.178   0.768
79781W        W52195  27.618  44.503   4.625
79782W        W52196  24.627  20.116   2.838
79783W        W52197  41.982  13.702   4.652
79784W        W52198  17.735   4.834   2.302
79785W        W52199  35.080  15.305   4.326
79786W        W52200   1.759  27.053   3.243
79787W        W52201  32.088  33.489  13.882
79788W        W52202  30.026  33.443   1.450
79789W        W52203  34.085  40.005   1.400
79790W        W52204  14.276  24.533  10.594
79791W        W52205  42.282  15.214   0.400
79792W        W52206  31.005   9.821  13.954
79793W        W52207   4.822  34.016  13.997
79794W        W52208  42.520  21.168   9.964
79795W        W52209  40.430  12.171  13.473
79796W        W52210  42.910  38.357  13.909
79797W        W52211   0.878  21.590  12.982
79798W        W52212   9.806  21.539  13.534
79799W        W52213   1.307  38.467  10.941
79800W        W52214   6.408  36.039   4.308
79801W        W52215   1.470  28.546  12.563
79802W        W52216  36.027  16.131   2.777
79803W        W52217  30.594  21.223   4.157
79804W        W52218  24.067   5.919   1.300
79805W        W52219  18.763  12.718   2.698
79806W        W52220  17.626  26.466   2.863
79807W        W52221   1.361  30.964   4.779
79808W        W52222  26.101  38.426   3.672
79809W        W52223   4.385  10.852   3.202
79810W        W52224  23.986  24.658   1.754
79811W        W52225  33.059  30.474   2.263
79812W        W52226  15.257   2.431  12.071
79813W        W52227  17.739  36.524   4.305
79814W        W52228  30.510  37.555   1.791
79815W        W52229  23.707   3.718   1.885
79816W        W52230   3.248  22.697   3.376
79817W        W52231  33.932  12.238  11.906
79818W        W52232  39.013  22.135  13.523
79819W        W52233  35.036  26.573   4.224
79820W        W52234  11.712  15.226   3.357
79821W        W52235  31.901  14.101  12.895
79822W        W52236  35.991   5.427   1.756
79823W        W52237  20.574  22.240  14.987
79824W        W52238   3.864  43.355  12.534
79825W        W52239   4.871   6.895  14.761
79826W        W52240  36.960  42.468  13.327
79827W        W52241  16.263  15.096  12.577
79828W        W52242  10.794   1.906   2.839
79829W        W52243  16.720   2.429   3.272
79830W        W52244  42.523   4.743   0.787
79831W        W52245  17.138   8.688   1.379
79832W        W52246  13.183  44.823  14.422
79833W        W52247  31.993  22.135   0.472
79834W        W52248  32.601  22.244  11.604
79835W        W52249  22.615   1.376  14.387
79836W        W52250  43.278  30.546   2.360
79837W        W52251   7.726  20.246   4.235
79838W        W52252  19.128  18.545   3.373
79839W        W52253   7.748   7.738  13.378
79840W        W52254  28.939  43.395  11.543
79841W        W52255  15.153  27.547   0.311
79842W        W52256  26.055  32.134  13.386
79843W        W52257  38.992  44.960   0.341
79844W        W52258  32.489  12.675   3.284
79845W        W52259  40.816  39.326   0.478
79846W        W52260  21.536  20.673   0.280
79847W        W52261   7.787  32.054   4.278
79848W        W52262  31.490  37.872  12.468
79849W        W52263  20.226  41.987   4.140
79850W        W52264  20.041  23.218   3.803
79851W        W52265  40.322  35.897  13.939
79852W        W52266  13.759  31.076   4.717
79853W        W52267   2.278  12.765  14.999
79854W        W52268  43.412  43.497  12.983
79855W        W52269   2.254  18.733   4.353
79856W        W52270   4.378  10.266   0.390
79857W        W52271  17.090  37.458  10.989
79858W        W52272  13.305  25.540   4.618
79859W        W52273   9.824  25.582   2.201
79860W        W52274  44.880   4.344   0.750
79861W        W52275  29.052  27.038  11.421
79862W        W52276  11.337  14.316  13.343
79863W        W52277   6.373  38.488   2.757
79864W        W52278  29.072  41.908  13.322
79865W        W52279  10.752  40.433   3.653
79866W        W52280  41.303  25.093  11.588
79867W        W52281  10.864  38.473  11.979
79868W        W52282  18.235  44.866  14.880
79869W        W52283  15.241   3.394  11.062
79870W        W52284  34.901  17.263   5.306
79871W        W52285  42.943  42.776  14.820
79872W        W52286  23.101   2.737  12.370
79873W        W52287  14.122  33.538  12.496
79874W        W52288  35.966  12.357  12.001
79875W        W52289  24.042  20.596  11.037
79876W        W52290  31.094  24.479  14.898
79877W        W52291  38.004  17.269   4.198
79878W        W52292  13.333   3.871  11.472
79879W        W52293  20.633  15.324  14.480
79880W        W52294   1.314  17.121  11.461
79881W        W52295   4.326  13.113  11.482
79882W        W52296  16.788   4.926  14.370
79883W        W52297  33.491  26.175  11.118
79884W        W52298  26.550  35.015   3.712
79885W        W52299  14.334  43.426   2.276
79886W        W52300  15.657  33.068  10.118
79887W        W52301  27.655   3.412  12.371
79888W        W52302  40.961  31.605   0.797
79889W        W52303  14.747  39.907  10.637
79890W        W52304   6.762  17.600   3.865
79891W        W52305  16.264   0.358   2.669
79892W        W52306  37.993  39.543   3.802
79893W        W52307  35.917  30.591   0.818
79894W        W52308  21.709  12.820  13.849
79895W        W52309   3.245  25.107   1.249
79896W        W52310  15.636  18.207  12.869
79897W        W52311  33.113  24.108  11.996
79898W        W52312  31.544   6.308  11.091
79899W        W52313  29.575   7.352   1.298
79900W        W52314  40.845  44.259   2.375
79901W        W52315   6.240  27.530  11.855
79902W        W52316  29.131  42.792   0.294
79903W        W52317  33.934   8.726  13.897
79904W        W52318  17.280  16.103   4.280
79905W        W52319   9.708  38.954   2.704
79906W        W52320  13.660  36.586  14.340
79907W        W52321  14.199  24.161  12.911
79908W        W52322  28.004  27.042  13.848
79909W        W52323  23.702  21.712   0.750
79910W        W52324  26.020  20.608  12.347
79911W        W52325  26.499   8.171   3.305
79912W        W52326   3.275  36.552  14.343
79913W        W52327  43.467  17.124   2.244
79914W        W52328  32.407  10.665   0.871
79915W        W52329  32.545  16.137  12.410
79916W        W52330   0.429  10.741   1.409
79917W        W52331  28.489  12.232  11.938
79918W        W52332  30.959  10.360   3.260
79919W        W52333  31.979  29.529   0.458
79920W        W52334  12.666  35.417  12.531
79921W        W52335  41.800  21.202   3.646
79922W        W52336   3.365  22.574   2.377
79923W        W52337   4.405   8.900  12.409
79924W        W52338   5.865  16.627  10.418
79925W        W52339  36.370  29.023   0.338
79926W        W52340  31.054  17.762  13.993
79927W        W52341  16.704   0.914  11.372
79928W        W52342  27.515  23.684  11.394
79929W        W52343  12.837  15.299   1.443
79930W        W52344  44.344  42.365   0.775
79931W        W52345  20.553  35.516  10.644
79932W        W52346  25.696   7.874   4.606
79933W        W52347   5.353   0.960  11.918
79934W        W52348   9.299  26.080   1.420
79935W        W52349   7.783  12.830   4.772
79936W        W52350  18.119  36.041  12.341
79937W        W52351  29.107  26.485  14.302
79938W        W52352  13.662  39.953  14.031
79939W        W52353  30.477  26.640  14.842
79940W        W52354  42.333  36.968   0.783
79941W        W52355  36.556   2.914  11.986
79942W        W52356  27.561   1.801   3.763
79943W        W52357  33.070  38.000   0.386
79944W        W52358  25.007   6.190  13.914
79945W        W52359  32.404  28.111   4.814
79946W        W52360   2.794  15.100   3.658
79947W        W52361  35.048   5.277  11.389
79948W        W52362  32.558   8.655   5.245
79949W        W52363  20.678  23.177   2.415
79950W        W52364  42.411  21.523   0.806
79951W        W52365  39.059  37.518   1.312
79952W        W52366  34.074   3.817   3.243
79953W        W52367   6.295  21.537  12.377
79954W        W52368   1.936  14.762  14.340
79955W        W52369  10.678  21.550   3.181
79956W        W52370  16.104   7.671  11.889
79957W        W52371  10.758  40.986  11.060
79958W        W52372  42.419  13.180   1.257
79959W        W52373  17.305   5.365  14.804
79960W        W52374  22.591   8.784   0.408
79961W        W52375  24.043  10.678   3.154
79962W        W52376   2.909  35.480   2.292
79963W        W52377   0.890   3.245  14.314
79964W        W52378  23.612  39.488  14.824
79965W        W52379  37.439  22.013   3.306
79966W        W52380   0.887  37.049   2.351
79967W        W52381   8.185  11.817  14.291
79968W        W52382  18.662  20.731  12.424
79969W        W52383  28.631   5.309   4.632
79970W        W52384  40.318   9.719   2.237
79971W        W52385   6.915   5.304   1.407
79972W        W52386  35.448   7.340  14.941
79973W        W52387  33.586  27.045   1.924
79974W        W52388  31.482  41.341  12.069
79975W        W52389  38.843  33.614  14.951
79976W        W52390  21.227   2.933   2.682
79977W        W52391  11.232   7.683  10.972
79978W        W52392  18.132  39.452  11.543
79979W        W52393  27.499  38.368  10.536
79980W        W52394  15.756  23.078   0.852
79981W        W52395  23.676   4.774   2.186
79982W        W52396  15.642  21.607  10.567
79983W        W52397  41.307  10.776   3.368
79984W        W52398  13.251  33.548   0.843
79985W        W52399  36.439  40.471  10.547
79986W        W52400  23.693  44.424   5.628
79987W        W52401  15.186  16.725   4.157
79988W        W52402  40.430  19.686  11.092
79989W        W52403  12.809  27.946   1.927
79990W        W52404  12.830  12.684  10.615
79991W        W52405  32.630  35.568  11.373
79992W        W52406  20.165  19.175  10.952
79993W        W52407  16.162  23.522   3.829
79994W        W52408   8.344  13.291   4.795
79995W        W52409  16.233  10.654  14.301
79996W        W52410  29.979  28.184  11.029
79997W        W52411  22.161  36.532  11.436
79998W        W52412  28.070  34.052  12.512
79999W        W52413   6.729  26.087  11.488
80000W        W52414  38.536  13.291   1.865
80001W        W52415  39.465  19.232  14.501
80002W        W52416   2.227  33.429  14.416
80003W        W52417  27.986  18.694  14.972
80004W        W52418   5.280  26.121   1.242
80005W        W52419  22.153  44.262   4.791
80006W        W52420  34.883  35.478   3.319
80007W        W52421  21.693  18.587  10.465
80008W        W52422  41.848   3.270   4.614
80009W        W52423  28.088  37.947   4.769
80010W        W52424  35.031   7.886   2.675
80011W        W52425  28.550  19.553   1.709
80012W        W52426  15.284  22.563  12.071
80013W        W52427  35.876  26.018   2.782
80014W        W52428   3.899   2.452   4.638
80015W        W52429  42.914   4.837  11.908
80016W        W52430  33.384  36.961  14.424
80017W        W52431   3.318   5.879  13.000
80018W        W52432   5.772  38.409   1.320
80019W        W52433   8.202  33.600  12.056
80020W        W52434   4.320   0.913   2.355
80021W        W52435  29.486   4.337  13.459
80022W        W52436   3.882   6.896   1.398
80023W        W52437   0.830  39.943   4.608
80024W        W52438   8.668  11.843   1.788
80025W        W52439   7.356  26.615  11.452
80026W        W52440  27.965   6.219   0.326
80027W        W52441   2.745  42.873   0.446
80028W        W52442  10.761  39.347  13.864
80029W        W52443  41.016   2.462   4.147
80030W        W52444   2.441  34.449  14.436
80031W        W52445   0.482  17.170  14.761
80032W        W52446  25.004  23.070  10.582
80033W        W52447  34.477  39.855  11.974
80034W        W52448   8.833  19.628   2.413
80035W        W52449  19.085  40.403  10.431
80036W        W52450  17.159  36.449   0.341
80037W        W52451   8.833  23.135  14.868
80038W        W52452  32.502  42.310  11.581
80039W        W52453  31.986  44.902   1.312
80040W        W52454  43.793  15.706  11.473
80041W        W52455  43.302  19.136  10.946
80042W        W52456  44.984  22.504  11.467
80043W        W52457  18.185   2.919  10.587
80044W        W52458  18.569   3.407  12.996
80045W        W52459  33.010  34.496   2.368
80046W        W52460  10.369   8.799  11.456
80047W        W52461   8.888  43.822  11.954
80048W        W52462  12.154  30.526  12.569
80049W        W52463  35.901  39.459   2.776
80050W        W52464  15.237  41.819  11.999
80051W        W52465  43.500  21.141  12.969
80052W        W52466  15.786  31.528  13.857
80053W        W52467  28.443  29.012   3.228
80054W        W52468  19.734   5.337  10.977
80055W        W52469  41.340  38.548   1.437
80056W        W52470  39.404  35.415  12.880
80057W        W52471  33.427   2.814   4.302
80058W        W52472   3.232  17.645   1.812
80059W        W52473  40.881  27.187   3.279
80060W        W52474  24.498  13.832  13.420
80061W        W52475  27.674  21.130  14.480
80062W        W52476   4.878  27.016  12.560
80063W        W52477   5.237   8.223  11.558
80064W        W52478  26.615  24.525   2.684
80065W        W52479  17.707  34.936  11.503
80066W        W52480  44.344   1.433   0.320
80067W        W52481   8.316  10.770  11.967
80068W        W52482  30.061   4.901  11.430
80069W        W52483  31.053  23.520  12.536
80070W        W52484  44.839  25.494   0.774
80071W        W52485   1.480   4.412  14.309
80072W        W52486  40.310  29.024   0.447
80073W        W52487  14.649   3.320   4.268
80074W        W52488  39.830  11.354  12.089
80075W        W52489  22.690  22.124  14.309
80076W        W52490   1.742  39.483  14.408
80077W        W52491  36.912  35.031   4.741
80078W        W52492  12.688  43.460  14.792
80079W        W52493  19.726  30.997  12.843
80080W        W52494   2.427  29.962  11.124
80081W        W52495  16.599  43.300   3.847
80082W        W52496  44.399  41.477   1.794
80083W        W52497  22.631  44.430   1.391
80084W        W52498   0.948  17.084  10.602
80085W        W52499   1.269  15.269   1.424
80086W        W52500  37.993   8.315   3.188
80087W        W52501  11.831  42.380  14.455
80088W        W52502  26.684  38.927   1.411
80089W        W52503  30.097  19.152   2.887
80090W        W52504  29.006  26.665   2.673
80091W        W52505  30.567  36.525  13.935
80092W        W52506  37.844   1.872  11.004
80093W        W52507  29.561  36.063  12.381
80094W        W52508  18.669  26.701   5.261
80095W        W52509  15.790  18.691   2.247
80096W        W52510   1.397  21.195  10.491
80097W        W52511  24.115   4.239  13.870
80098W        W52512  25.682  43.283  12.930
80099W        W52513  20.751  19.177  14.764
80100W        W52514  38.411  40.936   2.859
80101W        W52515  15.315  30.958   0.275
80102W        W52516  16.637  30.478   1.372
80103W        W52517  23.148  16.164   2.311
80104W        W52518   8.165  15.761  10.628
80105W        W52519  24.122   7.745  14.807
80106W        W52520  16.072  30.573  13.841
80107W        W52521  20.672  44.009  12.877
80108W        W52522  20.217  16.301  11.573
80109W        W52523  30.928   4.808   3.729
80110W        W52524   2.907  21.666  11.891
80111W        W52525  33.556   8.845   0.290
80112W        W52526  25.580   5.855   0.857
80113W        W52527   3.792  33.590   2.206
80114W        W52528  29.528  30.926  13.849
80115W        W52529   1.346  25.988   4.775
80116W        W52530  21.048  23.061   3.805
80117W        W52531  22.188  27.543  11.054
80118W        W52532   0.944   3.858  12.463
80119W        W52533  33.448  25.082   2.900
80120W        W52534  38.443  44.334  12.542
80121W        W52535  22.251  10.643  13.951
80122W        W52536   3.779   3.882  12.540
80123W        W52537  27.513  12.259   4.798
80124W        W52538  41.793  37.425   3.643
80125W        W52539  12.765  36.906   1.794
80126W        W52540   3.259   0.380   0.840
80127W        W52541  39.544  13.669  12.843
80128W        W52542  15.607   5.717  12.449
80129W        W52543  35.588  38.537   4.703
80130W        W52544  10.373  33.048   2.223
80131W        W52545  10.138  44.860  12.572
80132W        W52546  39.031  35.888   2.400
80133W        W52547  37.046  40.342   1.313
80134W        W52548   5.723  12.196   3.370
80135W        W52549  44.953   8.813  13.834
80136W        W52550  37.497  29.079   0.401
80137W        W52551   6.194  27.684   3.658
80138W        W52552  32.929  23.987   4.676
80139W        W52553  24.698  20.258  12.498
80140W        W52554   4.346  18.681   4.148
80141W        W52555  35.038  30.631   2.369
80142W        W52556  32.494  38.460  10.937
80143W        W52557  38.924  40.864   0.818
80144W        W52558  10.372   2.793   0.801
80145W        W52559   5.754   3.459  12.890
80146W        W52560  14.305  23.504   4.137
80147W        W52561  43.336  14.251  14.002
80148W        W52562  33.893  25.172   2.293
80149W        W52563  34.895   6.362   0.247
80150W        W52564  17.580  44.954  14.859
80151W        W52565  38.431   6.336   4.289
80152W        W52566  12.817  20.598   0.828
80153W        W52567   6.869  22.236  12.906
80154W        W52568  43.958  44.971   1.249
80155W        W52569  43.389  31.548   3.274
80156W        W52570  35.035  31.549  12.056
80157W        W52571  20.044  42.333   4.725
80158W        W52572  43.274  24.984   3.206
80159W        W52573  43.346   8.228   2.306
80160W        W52574  28.552  42.328  11.997
80161W        W52575  26.491  40.342  10.483
80162W        W52576   8.695  26.613   3.836
80163W        W52577   5.238  27.942   9.974
80164W        W52578  38.931  31.435   0.435
80165W        W52579  14.231  32.545   5.256
80166W        W52580   2.378  22.550  11.583
80167W        W52581  20.184   8.682  12.478
80168W        W52582  19.699   9.868   4.624
80169W        W52583  42.525  34.529  12.966
80170W        W52584  18.131  39.459  13.907
80171W        W52585   8.304  33.406  10.936
80172W        W52586  43.342  12.850   4.269
80173W        W52587  28.007  19.620  12.345
80174W        W52588  18.099   3.798  14.331
80175W        W52589   4.858  42.844   0.730
80176W        W52590  38.367   4.773   4.319
80177W        W52591   4.779  16.239  12.392
80178W        W52592  36.412  35.003   3.205
80179W        W52593   0.988  23.629  13.982
80180W        W52594   1.976  12.243   4.602
80181W        W52595  43.789  11.709  14.309
80182W        W52596  15.603  36.517   3.675
80183W        W52597   4.308  10.873  14.440
80184W        W52598  15.703  12.654   9.939
80185W        W52599  23.687  23.035  11.517
80186W        W52600   9.669  27.643  12.415
80187W        W52601  38.559   9.340   0.912
80188W        W52602  22.237   0.753   0.779
80189W        W52603  43.869   5.336  13.825
80190W        W52604  33.456  42.936   0.958
80191W        W52605   7.896   3.423  13.394
80192W        W52606  42.835  12.807  13.045
80193W        W52607  22.523   7.277  12.869
80194W        W52608  11.245   5.273  13.430
80195W        W52609   5.273  37.008  12.428
80196W        W52610  13.106  26.005   4.239
80197W        W52611   1.822  15.774   1.429
80198W        W52612   6.356  12.815   3.779
80199W        W52613  19.269  23.602  14.839
80200W        W52614  40.432  18.724  13.511
80201W        W52615  32.924  29.603  11.428
80202W        W52616  27.967  11.216  13.900
80203W        W52617  38.985   7.789   1.249
80204W        W52618  11.369  10.796   1.705
80205W        W52619  30.093  38.436  13.952
80206W        W52620  10.338  14.216   0.327
80207W        W52621  32.014   9.246  10.548
80208W        W52622  18.112   1.974  10.515
80209W        W52623   9.753  16.704   3.837
80210W        W52624  36.566  10.338  13.886
80211W        W52625  39.469  32.615  13.916
80212W        W52626  38.351  43.348  14.906
80213W        W52627  19.266  17.692   2.781
80214W        W52628  27.530  17.604   4.145
80215W        W52629   2.367  30.633  14.476
80216W        W52630  25.978  34.020   0.331
80217W        W52631  22.085  32.886   4.147
80218W        W52632  35.870   2.915  13.871
80219W        W52633  25.500  11.676   2.365
80220W        W52634  29.924  38.525   0.339
80221W        W52635   5.725   6.733   0.761
80222W        W52636  38.343  21.217  13.997
80223W        W52637  24.017  11.312  13.387
80224W        W52638   1.341  27.540  10.637
80225W        W52639  31.914   8.668   0.254
80226W        W52640  36.071  37.916  14.812
80227W        W52641  37.006  12.212   4.138
80228W        W52642  35.944  13.631   4.705
80229W        W52643   6.329  36.085  11.376
80230W        W52644  37.968  11.853   0.479
80231W        W52645  22.520   5.932   3.823
80232W        W52646   7.812  28.047  13.936
80233W        W52647   8.672  40.491   3.250
80234W        W52648   5.329  41.949   3.362
80235W        W52649  23.719  32.546  10.424
80236W        W52650  23.692  10.224  13.853
80237W        W52651  36.912  31.108  11.939
80238W        W52652  26.118  10.172  13.796
80239W        W52653   2.436  10.227  11.114
80240W        W52654  18.788  30.105  12.352
80241W        W52655   0.837   1.427   1.408
80242W        W52656   1.964   2.750   0.777
80243W        W52657  11.710   8.277   1.426
80244W        W52658   3.338  20.100  14.293
80245W        W52659  26.100  22.110   0.315
80246W        W52660  27.001   7.256   0.811
80247W        W52661   5.894   1.385   4.208
80248W        W52662  43.961   1.822   4.645
80249W        W52663  34.610  17.643  12.999
80250W        W52664  14.698  42.990   5.160
80251W        W52665  39.024  11.747  10.625
80252W        W52666  42.303  11.706   2.237
80253W        W52667   2.730  27.673  14.946
80254W        W52668  40.400  43.434  10.465
80255W        W52669  16.209   4.788   9.974
80256W        W52670  38.519  31.906  13.796
80257W        W52671   4.830  28.518   3.260
80258W        W52672  16.313   8.683   2.186
80259W        W52673  31.491  24.544   0.368
80260W        W52674   6.418  28.168  14.936
80261W        W52675  10.804  12.756  11.554
80262W        W52676  15.709  16.210  10.498
80263W        W52677  25.569  43.860  11.501
80264W        W52678   2.418   9.321   4.707
80265W        W52679  22.226  20.037   4.642
80266W        W52680  23.032  33.065  13.010
80267W        W52681  23.062  18.569  12.845
80268W        W52682  17.213  14.719   1.307
80269W        W52683  14.251  35.513  10.942
80270W        W52684  19.209  35.865  13.313
80271W        W52685  15.327  31.023  12.381
80272W        W52686  33.614  39.024   0.884
80273W        W52687  17.243  26.506   5.217
80274W        W52688  20.210  28.589  10.597
80275W        W52689  26.629   1.860  14.371
80276W        W52690  33.075  38.428   4.691
80277W        W52691  11.847  26.114   1.299
80278W        W52692  34.919  10.183   0.768
80279W        W52693  32.109   7.252  14.028
80280W        W52694   5.771  22.245  12.465
80281W        W52695   4.731  26.125   4.176
80282W        W52696  24.199  44.884   4.247
80283W        W52697   1.901  20.193  11.089
80284W        W52698  26.460  30.107   2.320
80285W        W52699   8.262  38.381  12.891
80286W        W52700  17.108  34.897  11.595
80287W        W52701   0.432  19.105   1.399
80288W        W52702  13.708  29.944   1.729
80289W        W52703   3.787  43.949  14.790
80290W        W52704  23.690  28.675   2.188
80291W        W52705   3.350  39.398  11.038
80292W        W52706  28.955  17.211  10.953
80293W        W52707  40.947   0.808  10.411
80294W        W52708  13.349  26.559   4.655
80295W        W52709  36.084  42.517  14.381
80296W        W52710  19.577  32.450   1.767
80297W        W52711  39.010  14.261   0.881
80298W        W52712  34.376   4.859  13.527
80299W        W52713  11.291  40.426  12.356
80300W        W52714   5.861  23.183  14.510
80301W        W52715  33.588  32.511  12.385
80302W        W52716  18.103  40.395  12.940
80303W        W52717  40.912  42.337   2.691
80304W        W52718  34.007  36.857   2.379
80305W        W52719  17.304  14.293   4.701
80306W        W52720   3.777  20.678  13.545
80307W        W52721  21.662   4.820  10.894
80308W        W52722   2.956   3.407  13.432
80309W        W52723  31.950   2.885   4.212
80310W        W52724  32.959  25.558  13.829
80311W        W52725   0.911  34.918   5.200
80312W        W52726  39.399  16.289   0.350
80313W        W52727  33.380   7.320  10.542
80314W        W52728  27.521  15.135   4.683
80315W        W52729  24.100  14.658  11.073
80316W        W52730  16.288   9.745   3.757
80317W        W52731  22.029  21.729   3.364
80318W        W52732  24.496  38.860  13.500
80319W        W52733  31.438  23.032  14.410
80320W        W52734  32.081  13.122   0.347
80321W        W52735  28.122   3.263  13.038
80322W        W52736  35.914   4.432  14.383
80323W        W52737  31.535   4.294  11.962
80324W        W52738  16.588  29.423   0.836
80325W        W52739  12.702  40.028  11.995
80326W        W52740  34.077  16.720  11.991
80327W        W52741  29.941  15.327   4.792
80328W        W52742  10.782  35.019  11.908
80329W        W52743  36.027   6.868  12.038
80330W        W52744  30.928  41.822  10.638
80331W        W52745  27.655   7.732  13.372
80332W        W52746   7.414   7.772  11.459
80333W        W52747  35.540  33.589   1.338
80334W        W52748  35.086   2.751  13.365
80335W        W52749  22.741   1.306  13.501
80336W        W52750   1.753  15.810  12.087
80337W        W52751   2.795  24.704  12.540
80338W        W52752  30.440  31.972  13.803
80339W        W52753  10.164  17.667  14.778
80340W        W52754   6.839  36.971  14.781
80341W        W52755  35.965  20.246  14.320
80342W        W52756   9.806  17.244  12.067
80343W        W52757  22.612   3.911   4.329
80344W        W52758  41.039  35.963   0.740
80345W        W52759   4.241  35.603   2.238
80346W        W52760   9.233  36.483   3.193
80347W        W52761  28.040  26.196   2.265
80348W        W52762  37.567   2.834  14.420
80349W        W52763   4.874  34.489   5.211
80350W        W52764  28.017  30.044   3.635
80351W        W52765   5.364  14.770  11.959
80352W        W52766  33.014  32.948  10.446
80353W        W52767  24.620   4.335  11.860
80354W        W52768   2.936  29.513  10.992
80355W        W52769  15.704  10.248  10.475
80356W        W52770   3.379  11.176  12.357
80357W        W52771  30.548  18.132  13.427
80358W        W52772  22.681  30.912  13.872
80359W        W52773   0.935  22.197  11.539
80360W        W52774  41.835  30.591   0.873
80361W        W52775  35.911  40.441   2.178
80362W        W52776  25.977   2.859  13.352
80363W        W52777  44.842  24.650   1.408
80364W        W52778  26.609  37.871  11.483
80365W        W52779   1.757  40.473   2.703
80366W        W52780  39.479  38.425  14.916
80367W        W52781  28.106  35.885  14.375
80368W        W52782   0.795   0.332   4.210
80369W        W52783  42.825   5.239   4.270
80370W        W52784   9.762  15.231  11.532
80371W        W52785  38.043  22.111   2.691
80372W        W52786  21.594  11.330   0.886
80373W        W52787  31.940  12.636  13.016
80374W        W52788  26.699  29.496  14.808
80375W        W52789  30.984   7.759   2.370
80376W        W52790  18.086  30.020  12.455
80377W        W52791  36.381  20.612   0.847
80378W        W52792  14.635  37.044  12.881
80379W        W52793  28.578  25.698   0.744
80380W        W52794  18.580  25.629   3.290
80381W        W52795   4.743  14.199   2.405
80382W        W52796  32.916  19.604   3.814
80383W        W52797  16.291  40.339  11.609
80384W        W52798  20.145  35.550   4.245
80385W        W52799  21.046   0.805   0.784
80386W        W52800  39.965   3.810   0.417
80387W        W52801  35.548  17.114  13.831
80388W        W52802   1.882  10.673   0.730
80389W        W52803  24.083   3.884   2.849
80390W        W52804  43.853  23.078  11.503
80391W        W52805  28.513   4.798  12.911
80392W        W52806  12.643  12.262   4.611
80393W        W52807  32.504  22.629   3.385
80394W        W52808  36.557  28.489   0.269
80395W        W52809  17.124  34.075   4.286
80396W        W52810  25.099   3.865  11.489
80397W        W52811  11.728  40.319  14.362
80398W        W52812  41.429  42.519  12.038
80399W        W52813  29.529  20.565   0.342
80400W        W52814   3.785  10.869  12.535
80401W        W52815  33.986   1.458  13.418
80402W        W52816   3.320  32.077   4.206
80403W        W52817   6.704  38.360   1.353
80404W        W52818  35.888  44.457  13.993
80405W        W52819  35.578  33.437   2.233
80406W        W52820  35.390  38.978  11.000
80407W        W52821  12.184  14.263  14.425
80408W        W52822  34.067  40.426   2.749
80409W        W52823  27.511   6.899   4.329
80410W        W52824  23.519  26.469  10.054
80411W        W52825  16.090  40.307   4.342
80412W        W52826  15.688  12.610  12.457
80413W        W52827   8.318  18.697  11.004
80414W        W52828   6.204  25.178  14.796
80415W        W52829  43.468  16.169   3.251
80416W        W52830  34.005   7.186  12.873
80417W        W52831  26.542  33.088   1.919
80418W        W52832  12.341  18.572  11.555
80419W        W52833  39.548  33.435  11.006
80420W        W52834  32.969  33.591  14.003
80421W        W52835   0.868   1.935   2.852
80422W        W52836  24.041  33.477  14.940
80423W        W52837   6.752   4.450   2.900
80424W        W52838   6.793  39.053  10.028
80425W        W52839  22.737   4.834  10.966
80426W        W52840  24.097   4.802   4.795
80427W        W52841   0.416  21.076   4.327
80428W        W52842  13.812  17.595  11.541
80429W        W52843   6.831  36.360  14.898
80430W        W52844  28.085  11.143   1.363
80431W        W52845  32.608   1.910  14.278
80432W        W52846  16.592   8.359  13.427
80433W        W52847   6.395  17.686   3.220
80434W        W52848   9.714  41.455   2.719
80435W        W52849  19.674  35.373   1.223
80436W        W52850  40.433  34.048   3.720
80437W        W52851  36.500  36.509   1.776
80438W        W52852  39.560  13.265   4.325
80439W        W52853  16.794  13.653   2.295
80440W        W52854   6.281  27.469  11.480
80441W        W52855   6.917  43.442   3.836
80442W        W52856  11.825   6.778  13.941
80443W        W52857  26.001  20.150  11.980
80444W        W52858  14.787  11.754  14.348
80445W        W52859  28.672   6.747  11.495
80446W        W52860  27.079  44.940   3.209
80447W        W52861  19.132   8.689  14.300
80448W        W52862  14.749  15.743  10.558
80449W        W52863  36.020  22.506  12.898
80450W        W52864  33.031  19.555   0.951
80451W        W52865  18.671  17.598   3.321
80452W        W52866   8.804  17.203   2.220
80453W        W52867   2.938  12.242  14.939
80454W        W52868  26.542  36.409  13.003
80455W        W52869  40.955   9.286   1.337
80456W        W52870  29.037  29.918   2.214
80457W        W52871  21.667  23.605   2.667
80458W        W52872  42.894  24.227   3.689
80459W        W52873   2.789   0.874  11.950
80460W        W52874   9.703   5.779   0.274
80461W        W52875   0.834  38.073  10.465
80462W        W52876  41.361  28.068  13.427
80463W        W52877  20.093  14.814  14.462
80464W        W52878  38.836  16.599   3.158
80465W        W52879  27.171  14.829  13.393
80466W        W52880  22.743  42.449   0.352
80467W        W52881  32.903   5.203   1.925
80468W        W52882   9.890  31.906  11.857
80469W        W52883  11.725   9.229   4.772
80470W        W52884  12.684  19.267  12.440
80471W        W52885   0.350   2.442  11.111
80472W        W52886  10.366  18.604   0.312
80473W        W52887  22.089  32.911   1.742
80474W        W52888   7.729   5.200   4.137
80475W        W52889  39.378  38.991  13.354
80476W        W52890  37.049  41.017  14.304
80477W        W52891  37.914  17.217  13.810
80478W        W52892  40.426  31.086  12.560
80479W        W52893  37.918  42.930  10.955
80480W        W52894  19.058  26.091   4.786
80481W        W52895   2.822  33.385   1.426
80482W        W52896   1.321  40.488  10.553
80483W        W52897   0.945  32.996  13.007
80484W        W52898  43.991  31.000  10.539
80485W        W52899  16.602   1.384   3.796
80486W        W52900  31.069  26.653   4.238
80487W        W52901   6.813  37.346  13.541
80488W        W52902   3.830  18.620  13.007
80489W        W52903  33.004  14.286  13.466
80490W        W52904   2.437  21.089  12.403
80491W        W52905  37.061  15.175   0.926
80492W        W52906  42.452  40.510   4.712
80493W        W52907  27.103  21.747  11.099
80494W        W52908  25.680   5.344  14.002
80495W        W52909  27.958  20.687   1.262
80496W        W52910  15.645  10.168  13.911
80497W        W52911  23.699  35.466   2.280
80498W        W52912  14.172   3.225  13.001
80499W        W52913  38.988   4.896   5.244
80500W        W52914  38.837  12.685  12.087
80501W        W52915  19.236  40.347   1.285
80502W        W52916  42.524  16.809   0.384
80503W        W52917  27.571  29.532   2.838
80504W        W52918   2.746  10.383   4.200
80505W        W52919   5.202   8.751   1.384
80506W        W52920   4.744  19.534  10.040
80507W        W52921  25.594   9.382  12.078
80508W        W52922  36.918  43.775  14.422
80509W        W52923  43.863  29.498   1.792
80510W        W52924   8.839  39.025  14.438
80511W        W52925  35.072  15.741  13.503
80512W        W52926  24.615  10.819   1.732
80513W        W52927  26.056  13.300   2.381
80514W        W52928  20.158   9.781  11.883
80515W        W52929   6.898  40.429  10.459
80516W        W52930  30.124  17.588  13.040
80517W        W52931  25.665   3.215  13.509
80518W        W52932   8.399  32.576  12.092
80519W        W52933  20.272   6.732  10.560
80520W        W52934  40.819  28.084  10.596
80521W        W52935  28.511   5.889   4.137
80522W        W52936  25.540   2.721  14.954
80523W        W52937  44.437  21.602   0.460
80524W        W52938  34.574  35.943  10.941
80525W        W52939  31.013  28.456   3.203
80526W        W52940  33.050   4.864   1.340
80527W        W52941   7.239  33.023  13.472
80528W        W52942   3.892  38.443   4.677
80529W        W52943  41.974   7.414   2.699
80530W        W52944  32.895  35.463   1.884
80531W        W52945  24.989  17.229   0.950
80532W        W52946  33.424  34.480   0.337
80533W        W52947   9.717  42.814   2.413
80534W        W52948  29.431  16.245   4.225
80535W        W52949  37.835  21.069   3.656
80536W        W52950  17.733  38.978  14.951
80537W        W52951  43.890   1.749  12.829
80538W        W52952  12.243  42.975  12.529
80539W        W52953  38.420  18.606   0.249
80540W        W52954  15.788  14.113   0.242
80541W        W52955  20.766  40.379   2.747
80542W        W52956  38.548  42.502   0.937
80543W        W52957  21.520  42.828   4.718
80544W        W52958  38.377  39.402   3.834
80545W        W52959  16.735  35.518  14.021
80546W        W52960  40.991  40.336  13.868
80547W        W52961  29.975  20.254  14.492
80548W        W52962  24.116  32.126  10.557
80549W        W52963   2.424  11.180  10.495
80550W        W52964   8.776  32.000   5.215
80551W        W52965  26.576   3.915   1.753
80552W        W52966  13.274   2.316  10.447
80553W        W52967  32.965  11.134   2.264
80554W        W52968  27.089  41.373   1.320
80555W        W52969  20.164  39.958   0.458
80556W        W52970  10.633  24.224   0.257
80557W        W52971   3.382  30.974  11.931
80558W        W52972  43.998   9.826   0.777
80559W        W52973   0.888   5.849   4.122
80560W        W52974  19.755  22.538   5.316
80561W        W52975   3.951  32.946   0.822
80562W        W52976  21.061  19.620   4.727
80563W        W52977  15.671   6.213  12.036
80564W        W52978   9.664  33.599   0.470
80565W        W52979  43.848  39.446  10.476
80566W        W52980  30.445  30.454   2.288
80567W        W52981  36.935  20.704   2.309
80568W        W52982  10.862  12.728   2.814
80569W        W52983  25.473  26.699   0.266
80570W        W52984  10.727  27.618  11.520
80571W        W52985  33.070  27.183  11.868
80572W        W52986   0.843  18.652   1.238
80573W        W52987  38.880  31.051  13.455
80574W        W52988  19.039  25.505   0.464
80575W        W52989  37.852  16.301   2.393
80576W        W52990  22.237   2.959   2.858
80577W        W52991  22.110  22.159   1.292
80578W        W52992  13.345  16.111  11.067
80579W        W52993  39.001  38.878   0.737
80580W        W52994  19.194  15.146  11.103
80581W        W52995  21.715  19.234  12.359
80582W        W52996  20.189  20.260  13.055
80583W        W52997  25.990  35.531  12.882
80584W        W52998  21.223  26.133   2.669
80585W        W52999  18.581   3.386  14.380
80586W        W53000  24.667  14.217  13.465
80587W        W53001  18.105   1.282   0.923
80588W        W53002  29.532   3.863   4.165
80589W        W53003  24.593   1.335  13.311
80590W        W53004  32.458   9.838   1.239
80591W        W53005  34.453  38.433   0.734
80592W        W53006  29.513  42.956   4.734
80593W        W53007  39.935  11.770  11.600
80594W        W53008  11.159   6.245  10.600
80595W        W53009  42.958   5.414   0.768
80596W        W53010  14.236   5.917  10.935
80597W        W53011  40.848   8.762  12.418
80598W        W53012  28.940  10.785   2.349
80599W        W53013  33.886  16.139   0.355
80600W        W53014  19.761   6.859  11.892
80601W        W53015  33.433  33.598  14.421
80602W        W53016  43.007  33.435  11.553
80603W        W53017  39.968   8.405  12.527
80604W        W53018  10.736  28.660   2.374
80605W        W53019  38.998  42.472  14.950
80606W        W53020  43.493  36.377  11.490
80607W        W53021  17.782  28.457  12.356
80608W        W53022   3.255  25.635   3.231
80609W        W53023  38.344  25.079  12.825
80610W        W53024  29.095   0.407  12.054
80611W        W53025   9.662  44.372   1.424
80612W        W53026  19.158  19.726  11.533
80613W        W53027   1.909   6.253  12.019
80614W        W53028  43.905   1.467  13.430
80615W        W53029  16.216  28.609  13.950
80616W        W53030  36.399  25.574   0.889
80617W        W53031  37.388  29.562  14.849
80618W        W53032  41.418  19.281   3.685
80619W        W53033  28.078  14.124   5.299
80620W        W53034  27.515  22.172  14.372
80621W        W53035  34.975  21.047   1.398
80622W        W53036  17.785  26.182  12.449
80623W        W53037  35.385   5.194  14.995
80624W        W53038  29.447  35.946  13.923
80625W        W53039  17.222  40.970  13.873
80626W        W53040  33.617   4.757   3.199
80627W        W53041  32.937  10.271   0.296
80628W        W53042  15.742  31.625   3.864
80629W        W53043   1.376  39.323  14.490
80630W        W53044  35.063  38.393  10.928
80631W        W53045  11.148  44.916  12.399
80632W        W53046  41.451  35.592   3.196
80633W        W53047  21.514  32.073   5.270
80634W        W53048   4.810  33.014  12.079
80635W        W53049   9.376  13.831  13.326
80636W        W53050  23.016  34.060   0.869
80637W        W53051  33.418  43.863   2.349
80638W        W53052  21.625   2.921  14.024
80639W        W53053  34.393  35.066  11.492
80640W        W53054   1.801  27.495  13.894
80641W        W53055  34.008  35.955   1.709
80642W        W53056   6.901  32.460   4.676
80643W        W53057  18.667  40.810  11.897
80644W        W53058  17.271   0.287  12.936
80645W        W53059   5.749   6.212   4.343
80646W        W53060   3.328  37.565  14.309
80647W        W53061  20.050   4.798  12.451
80648W        W53062   1.947  35.020  11.913
80649W        W53063  44.755   3.249   0.378
80650W        W53064  26.105  38.537   1.325
80651W        W53065  31.500  13.320  13.001
80652W        W53066  40.380  42.521   3.653
80653W        W53067  38.345   9.353  10.445
80654W        W53068  34.385  10.787   3.175
80655W        W53069  26.955   9.652   4.344
80656W        W53070  26.458  34.033  12.032
80657W        W53071   1.938  18.657  13.012
80658W        W53072  26.125  42.794  12.878
80659W        W53073  18.259  19.780  11.429
80660W        W53074   8.659  18.245   0.376
80661W        W53075  11.357  19.632  14.826
80662W        W53076  26.014   6.300   0.253
80663W        W53077  29.055  37.437   3.680
80664W        W53078  25.183  21.150   3.787
80665W        W53079  30.031  44.989   0.331
80666W        W53080   3.854  28.594   4.813
80667W        W53081  28.594  23.127  12.868
80668W        W53082  18.207   7.278   4.661
80669W        W53083  23.140  11.330   3.720
80670W        W53084   1.856  29.573   3.239
80671W        W53085   8.788  37.433   4.803
80672W        W53086  12.619   0.744  14.468
80673W        W53087  31.556  38.920  13.339
80674W        W53088   0.442  39.423  12.360
80675W        W53089   4.807  37.384  13.479
80676W        W53090  31.526  38.040  13.397
80677W        W53091  38.550  17.073   4.832
80678W        W53092  30.977   6.853  14.835
80679W        W53093  31.001  18.246  14.492
80680W        W53094  12.220  42.901  13.922
80681W        W53095  39.031  36.584   5.210
80682W        W53096  26.055  26.489  11.036
80683W        W53097  20.536  30.449  12.848
80684W        W53098  10.244  27.182  13.944
80685W        W53099  39.523  39.383  11.409
80686W        W53100  24.212  19.729   0.250
80687W        W53101  14.184  19.609   2.403
80688W        W53102   9.877  12.762   1.877
80689W        W53103  27.463  44.388  14.944
80690W        W53104  10.195  17.575   4.601
80691W        W53105  23.590  25.966  10.999
80692W        W53106  40.972   1.740  13.415
80693W        W53107  43.943  43.779  10.422
80694W        W53108  40.870  39.320  14.328
80695W        W53109  18.730   5.834  11.392
80696W        W53110   4.939   1.884  13.310
80697W        W53111  20.717  39.391  14.491
80698W        W53112   4.890   5.335   3.329
80699W        W53113   1.287   1.869   0.253
80700W        W53114   5.834   7.700   4.229
80701W        W53115   8.161  33.504  13.040
80702W        W53116  18.286  31.149  14.427
80703W        W53117  29.573  11.631   1.364
80704W        W53118  39.360  19.646   5.303
80705W        W53119  41.960  33.902   1.912
80706W        W53120  17.186  11.366  14.931
80707W        W53121  12.741   3.796  13.409
80708W        W53122   0.363  40.983  13.056
80709W        W53123  38.449  12.219  12.955
80710W        W53124  25.485   8.729  10.934
80711W        W53125  18.656  32.548  13.029
80712W        W53126  34.487  27.448   3.306
80713W        W53127   4.368  30.448   1.235
80714W        W53128   9.304  27.588   0.337
80715W        W53129  27.487  34.909   3.150
80716W        W53130  25.659  12.361   3.322
80717W        W53131  20.596  23.984   4.653
80718W        W53132  37.849  29.558  11.947
80719W        W53133  42.416  21.159   3.386
80720W        W53134   7.340  36.463  11.000
80721W        W53135   4.732  38.000   4.786
80722W        W53136  10.720   8.712   1.435
80723W        W53137  30.091  16.710   3.173
80724W        W53138  39.908  35.103   0.742
80725W        W53139  31.443  35.986   0.260
80726W        W53140   2.452  38.373  13.815
80727W        W53141   9.168  15.300  14.351
80728W        W53142  34.402  33.895  13.425
80729W        W53143  35.901  38.981  14.372
80730W        W53144  20.151  36.026  11.994
80731W        W53145  43.379  23.602   4.272
80732W        W53146  36.384  29.946  11.112
80733W        W53147  21.697  25.020   1.372
80734W        W53148  43.436  27.591  13.862
80735W        W53149  11.185   6.385  11.498
80736W        W53150  29.456  26.165   0.838
80737W        W53151   2.285   9.815   3.263
80738W        W53152  29.071  28.988  14.787
80739W        W53153  44.976  20.533   0.951
80740W        W53154  36.391  30.641  13.046
80741W        W53155  32.443  16.793   0.927
80742W        W53156  34.903  29.976   0.342
80743W        W53157  16.717  23.217  12.928
80744W        W53158  10.725  13.114  14.436
80745W        W53159  15.599  31.526  13.368
80746W        W53160  40.856  38.853  12.349
80747W        W53161  15.606  33.044   2.839
80748W        W53162   3.413   2.297  12.424
80749W        W53163  12.824  38.561  10.633
80750W        W53164  27.477  29.160   1.697
80751W        W53165  43.767  42.448  13.464
80752W        W53166  43.976   2.903   1.806
80753W        W53167  18.649  43.006  12.552
80754W        W53168  22.531  32.631  14.763
80755W        W53169  12.276  33.593  10.564
80756W        W53170  23.659   3.856  12.376
80757W        W53171   6.279  13.707   4.762
80758W        W53172  23.506  29.466  11.906
80759W        W53173  40.957  26.021  11.520
80760W        W53174  33.497  32.530   4.713
80761W        W53175  26.537  28.680   2.795
80762W        W53176  24.183  25.105   4.348
80763W        W53177  16.784   7.212  14.515
80764W        W53178  25.126   9.731  12.517
80765W        W53179  12.786  11.206   0.475
80766W        W53180  10.241   6.420  12.045
80767W        W53181   9.806  11.238  11.449
80768W        W53182  10.270  33.008  13.952
80769W        W53183  39.393  44.834   2.774
80770W        W53184  24.135  40.957  10.944
80771W        W53185  36.351  32.590   2.692
80772W        W53186  42.850  13.194   4.795
80773W        W53187  24.600  43.392   9.436
80774W        W53188  15.109  36.053   4.720
80775W        W53189  34.967  44.400  10.468
80776W        W53190  40.470   3.357   0.333
80777W        W53191  10.774  23.689  13.454
80778W        W53192  38.427  32.522   1.287
80779W        W53193   8.361   3.799   0.359
80780W        W53194  36.852  13.304   0.922
80781W        W53195   7.786  10.366   1.810
80782W        W53196  41.970   1.371   4.656
80783W        W53197  21.135  12.288   2.209
80784W        W53198  14.606  20.238  11.920
80785W        W53199  19.760  33.459   3.847
80786W        W53200  20.153  35.871   1.360
80787W        W53201  35.394  34.501  12.033
80788W        W53202  39.511  15.653   1.907
80789W        W53203  12.665  29.121  11.044
80790W        W53204  38.486  27.976  12.488
80791W        W53205  13.258   4.812   2.773
80792W        W53206   0.863  25.092   2.710
80793W        W53207   6.921   9.829   3.843
80794W        W53208  17.755  40.850  10.617
80795W        W53209  43.441  38.540   1.282
80796W        W53210  43.936   4.699  13.325
80797W        W53211  44.907   0.407   4.129
80798W        W53212  10.869   0.875   3.266
80799W        W53213  29.090  23.019  11.459
80800W        W53214  28.568  19.577  13.313
80801W        W53215  34.092  23.721  13.387
80802W        W53216   7.766  21.056   4.615
80803W        W53217  25.614  25.978   2.756
80804W        W53218  19.169  35.447  14.282
80805W        W53219  24.657  19.049   2.312
80806W        W53220  36.367   2.923   3.689
80807W        W53221   1.945  37.037  11.612
80808W        W53222  41.488  21.021  12.399
80809W        W53223  26.188  39.890  12.519
80810W        W53224  11.782  38.420  10.952
80811W        W53225   1.793  16.111  12.374
80812W        W53226   5.218  39.824   0.897
80813W        W53227  22.708  21.154   2.676
80814W        W53228   0.781  12.351   4.206
80815W        W53229  44.963  43.891   0.471
80816W        W53230  31.411  29.149   0.836
80817W        W53231  28.123  20.634   3.843
80818W        W53232  30.518   7.797   2.269
80819W        W53233  32.601  20.087   1.263
80820W        W53234  15.629  13.210   2.719
80821W        W53235  23.492  16.315  10.466
80822W        W53236  16.653  18.560  11.088
80823W        W53237   2.878  16.133   3.319
80824W        W53238  21.571  11.821  10.550
80825W        W53239   7.674  23.177  14.412
80826W        W53240  16.705  42.327   2.240
80827W        W53241  14.772  19.142  10.890
80828W        W53242  10.343   5.793   2.216
80829W        W53243  11.143  31.135   1.325
80830W        W53244  23.533  17.630   0.392
80831W        W53245   5.351   9.785  13.831
80832W        W53246  39.053   9.226   1.814
80833W        W53247  15.255  21.609   2.418
80834W        W53248   1.482   6.210  11.049
80835W        W53249  44.829  13.258  10.512
80836W        W53250  42.904  22.996   2.402
80837W        W53251   1.800   9.219  10.514
80838W        W53252  40.347  29.930  14.311
80839W        W53253  22.661   1.269   2.784
80840W        W53254  30.545  15.304   1.843
80841W        W53255   0.879  30.431   1.872
80842W        W53256  11.340  42.819   4.797
80843W        W53257   5.241  15.210   3.818
80844W        W53258   0.333  38.377  11.960
80845W        W53259   7.235  17.596  11.509
80846W        W53260  39.051  33.104  12.037
80847W        W53261  19.660   1.803  12.496
80848W        W53262  33.479  27.159  12.070
80849W        W53263  28.491   0.744  12.860
80850W        W53264  39.513  43.875  11.425
80851W        W53265  13.703   5.262  12.538
80852W        W53266  38.501   4.267   4.197
80853W        W53267   5.857   4.828   3.685
80854W        W53268  24.498   9.817  14.774
80855W        W53269  16.613  26.121  10.645
80856W        W53270  42.453   1.914  11.952
80857W        W53271  20.093  26.116  14.423
80858W        W53272  20.092  35.872  12.976
80859W        W53273  21.122  20.743   2.814
80860W        W53274  43.831  40.899   0.832
80861W        W53275  19.774   1.946   2.665
80862W        W53276   7.408  43.848  14.847
80863W        W53277   3.949  26.596  10.458
80864W        W53278   6.806  22.248   4.166
80865W        W53279  38.982  36.578  10.626
80866W        W53280  41.874   2.793   0.420
80867W        W53281  17.557  37.445  13.871
80868W        W53282   1.479   9.324   1.839
80869W        W53283  38.384  26.664   1.929
80870W        W53284  36.985  42.463   4.639
80871W        W53285   4.314  30.084   4.729
80872W        W53286   2.373  23.608  11.533
80873W        W53287  34.901   6.389  10.995
80874W        W53288  11.294  28.085  12.999
80875W        W53289  13.296  31.007  14.372
80876W        W53290   9.259  41.977   3.219
80877W        W53291  31.999   6.312   3.168
80878W        W53292   0.819  24.519  14.000
80879W        W53293  22.148  29.528  12.460
80880W        W53294   8.349  35.945  12.867
80881W        W53295  38.349  15.107  13.965
80882W        W53296  38.400  29.939  13.968
80883W        W53297  21.076  17.720  14.424
80884W        W53298  18.770  20.738  10.421
80885W        W53299   5.747  13.777   0.331
80886W        W53300  30.076  25.012  12.520
80887W        W53301   4.728   6.186  11.914
80888W        W53302  23.989   9.220   4.325
80889W        W53303  13.605  24.154   1.792
80890W        W53304  15.160  31.501   2.852
80891W        W53305  40.406  10.822  10.633
80892W        W53306  24.161  26.682  13.309
80893W        W53307  30.634  32.887  13.358
80894W        W53308   2.926  20.711   0.349
80895W        W53309  41.341  43.381  10.934
80896W        W53310  39.887  35.434   2.668
80897W        W53311  41.846  14.211  11.371
80898W        W53312  20.262  39.331   4.120
80899W        W53313   0.922  39.930  11.447
80900W        W53314  12.139  28.484  10.513
80901W        W53315  10.360  43.460  12.915
80902W        W53316  20.224  36.510  13.366
80903W        W53317  36.507  39.881  12.010
80904W        W53318  17.237  33.901   2.373
80905W        W53319   2.748  36.349  11.474
80906W        W53320  25.646  11.289  10.912
80907W        W53321   8.702  16.100  13.410
80908W        W53322   2.867  12.624  11.052
80909W        W53323  18.093   6.851  10.512
80910W        W53324  42.476  20.219   0.892
80911W        W53325  41.486  29.985   0.283
80912W        W53326  44.272  31.562   2.332
80913W        W53327  44.369  23.083   1.895
80914W        W53328   9.865   1.900  10.969
80915W        W53329   0.338   9.164  13.467
80916W        W53330   6.192   0.853  13.323
80917W        W53331   9.264   6.354  11.093
80918W        W53332  19.283  35.425  13.993
80919W        W53333  34.887  21.144   9.587
80920W        W53334  36.502  10.673   0.330
80921W        W53335  26.080  23.042  13.887
80922W        W53336  12.696  12.736  11.612
80923W        W53337  42.456   4.380  11.443
80924W        W53338   0.262  24.495   4.699
80925W        W53339  16.114  32.095  11.583
80926W        W53340  33.033  33.045   1.320
80927W        W53341  13.829  14.657  13.929
80928W        W53342   6.757  19.142  11.478
80929W        W53343  33.521  14.209   4.698
80930W        W53344   7.175  30.481   3.227
80931W        W53345  31.502   6.335  13.006
80932W        W53346  43.856   4.738  12.386
80933W        W53347  18.774  29.050   4.193
80934W        W53348  19.244  43.995  11.093
80935W        W53349  35.898  21.730  14.789
80936W        W53350  17.288  34.488   1.298
80937W        W53351   5.430  22.090   4.277
80938W        W53352  43.813   2.739   2.897
80939W        W53353  31.491  11.239  13.892
80940W        W53354  29.576   3.833   1.351
80941W        W53355  42.467  19.547   1.763
80942W        W53356  41.975   8.189  13.501
80943W        W53357  14.249   9.824   4.789
80944W        W53358   1.893  42.321   9.924
80945W        W53359  39.838  40.959  14.318
80946W        W53360  18.225  23.718  13.888
80947W        W53361   8.840   6.816   2.897
80948W        W53362   6.798   7.750  12.543
80949W        W53363  29.131   2.894   4.620
80950W        W53364  22.108  30.150   3.219
80951W        W53365   2.317   6.281   2.719
80952W        W53366  26.966  27.956  13.427
80953W        W53367  31.537   7.860  11.426
80954W        W53368  18.119  42.506   2.882
80955W        W53369  39.528   9.799  10.958
80956W        W53370  11.737  24.072  14.916
80957W        W53371   2.230  29.034  11.419
80958W        W53372  11.636  37.980   1.349
80959W        W53373   4.259   5.355   1.240
80960W        W53374  31.091   4.418   0.419
80961W        W53375  29.160  28.490   3.837
80962W        W53376  17.696  24.485   2.341
80963W        W53377  31.613  21.535   0.876
80964W        W53378  34.051  21.642   0.802
80965W        W53379  18.238  10.863  10.575
80966W        W53380  17.642  36.004  12.034
80967W        W53381  35.536   8.227   2.265
80968W        W53382  16.249   0.803   3.161
80969W        W53383  37.571   0.842   0.390
80970W        W53384  43.866  32.445  10.406
80971W        W53385  38.402  35.390  11.460
80972W        W53386   8.833   2.404   4.704
80973W        W53387  29.034  10.646   2.828
80974W        W53388  33.095  35.513  10.894
80975W        W53389  31.451  41.321   4.276
80976W        W53390  10.233  38.502   4.210
80977W        W53391  26.969  22.248   2.789
80978W        W53392  44.955   4.397   2.223
80979W        W53393  42.380  26.159  13.837
80980W        W53394  32.889   2.862  11.897
80981W        W53395  29.013  26.634  12.035
80982W        W53396  35.100  10.728  12.491
80983W        W53397  38.565  26.534   1.388
80984W        W53398  12.313  41.916   2.683
80985W        W53399  27.092  17.177   0.852
80986W        W53400   7.257   6.239   1.345
80987W        W53401   3.441  31.029   3.285
80988W        W53402  26.678  26.160   0.259
80989W        W53403  36.056  30.046  11.413
80990W        W53404  24.975  36.564   1.240
80991W        W53405   3.825  44.853   0.962
80992W        W53406  31.077   9.742  12.999
80993W        W53407  26.002  23.593  10.488
80994W        W53408  24.985   4.379   1.698
80995W        W53409  28.524  11.737  12.058
80996W        W53410  12.163  12.652  14.962
80997W        W53411   0.771  26.672   0.445
80998W        W53412  39.989  39.013   1.334
80999W        W53413  31.592  38.843   0.441
81000W        W53414  27.066   6.850  11.534
81001W        W53415   0.798   9.307   4.614
81002W        W53416   8.178   5.750  13.454
81003W        W53417   8.302  22.628  11.520
81004W        W53418  38.566  27.161   4.168
81005W        W53419  39.547  27.131   4.791
81006W        W53420  30.949  39.947  12.549
81007W        W53421   3.395  10.264  12.573
81008W        W53422  42.814  37.044   4.207
81009W        W53423  38.423   2.832  14.898
81010W        W53424  41.982  30.503   2.903
81011W        W53425   1.845  28.116  11.519
81012W        W53426  27.139   8.204   3.681
81013W        W53427  32.903   8.839   1.411
81014W        W53428  39.853  42.994  12.391
81015W        W53429  29.623  44.982  14.397
81016W        W53430  11.186  16.145   3.648
81017W        W53431  10.810  11.686  12.414
81018W        W53432  32.465  14.329   1.260
81019W        W53433  14.118   8.208   1.370
81020W        W53434  28.573  25.969  14.993
81021W        W53435  26.598  30.042   1.416
81022W        W53436  23.576   9.795  11.042
81023W        W53437  11.669  17.068   4.126
81024W        W53438  11.815  21.658  12.372
81025W        W53439  19.154  39.882   1.270
81026W        W53440  29.135  28.637   4.785
81027W        W53441   9.784   0.824  12.838
81028W        W53442  22.197   4.260  14.880
81029W        W53443  19.673  10.802  11.892
81030W        W53444  36.913  28.078   1.351
81031W        W53445   8.742  20.165  11.587
81032W        W53446  12.731  25.578   3.146
81033W        W53447  15.593  36.957   0.793
81034W        W53448   7.222  42.923   3.671
81035W        W53449  39.025  20.088   0.400
81036W        W53450  22.680  28.156   4.183
81037W        W53451   4.914   2.401  12.451
81038W        W53452  23.569  33.388   0.894
81039W        W53453   9.816  14.153  11.477
81040W        W53454  14.654  42.320   1.903
81041W        W53455  35.358  39.974  14.319
81042W        W53456  12.676  39.811  14.336
81043W        W53457  43.899  10.871  14.759
81044W        W53458   9.264  21.022  11.455
81045W        W53459   7.857  29.531   0.439
81046W        W53460  44.948  25.680   1.405
81047W        W53461  13.700   1.461  14.874
81048W        W53462   1.747  31.613   0.439
81049W        W53463  39.896  28.065   3.813
81050W        W53464   9.866   3.812  11.034
81051W        W53465  12.640   7.209  13.004
81052W        W53466   2.233  28.045   2.800
81053W        W53467  22.218  26.173  13.420
81054W        W53468  14.638  32.966   3.808
81055W        W53469  27.174   2.902   0.297
81056W        W53470  12.223  11.252   4.325
81057W        W53471  40.488   0.360  10.983
81058W        W53472   9.338   4.736   0.295
81059W        W53473   1.346  10.730  11.593
81060W        W53474  35.515  21.748  13.513
81061W        W53475  39.043  17.291  10.542
81062W        W53476   1.752  39.442  14.834
81063W        W53477  18.725   4.311  11.038
81064W        W53478  22.667  28.490   3.267
81065W        W53479  17.581  19.717  12.383
81066W        W53480  30.986  29.494  12.465
81067W        W53481  32.412  21.038   2.311
81068W        W53482  37.406   3.289   0.936
81069W        W53483   3.889   6.768   4.266
81070W        W53484  10.157  22.616   4.117
81071W        W53485  43.312  26.686   0.365
81072W        W53486   6.729  35.993   4.337
81073W        W53487  14.274  16.699  14.938
81074W        W53488  18.604  24.147  11.884
81075W        W53489  33.016  41.448  11.039
81076W        W53490  44.427   9.344  14.389
81077W        W53491  17.743  25.213   4.226
81078W        W53492   6.831   2.822  13.064
81079W        W53493  11.221  29.485   0.840
81080W        W53494  37.069  36.405  12.854
81081W        W53495  29.159  16.299  14.794
81082W        W53496  13.722  10.660   3.769
81083W        W53497   8.810   7.328   9.992
81084W        W53498  29.105  29.564   4.613
81085W        W53499  10.766  26.123   2.791
81086W        W53500  39.820  21.536   3.244
81087W        W53501   7.352  14.633   1.344
81088W        W53502  34.936  14.821   1.246
81089W        W53503  32.017  21.194  10.510
81090W        W53504  20.071   0.808  11.127
81091W        W53505  32.598   3.902  13.437
81092W        W53506  19.048   9.318   2.184
81093W        W53507  12.160  19.585   0.350
81094W        W53508  44.885  37.375  10.914
81095W        W53509  13.710   5.823  12.890
81096W        W53510  25.641  26.507   1.811
81097W        W53511  40.920  25.031   4.338
81098W        W53512  24.221  33.916   2.336
81099W        W53513  16.761   2.363  14.451
81100W        W53514  44.853  26.096   4.154
81101W        W53515  27.132  37.872  14.277
81102W        W53516  32.897  27.968   1.927
81103W        W53517  36.430  23.151  13.440
81104W        W53518  14.600   0.890  12.897
81105W        W53519  33.511  23.515   1.719
81106W        W53520  23.666   0.917   3.226
81107W        W53521   6.186  27.561  10.028
81108W        W53522  28.180  29.494  14.420
81109W        W53523  15.229  28.590   2.247
81110W        W53524  22.225  37.919   1.715
81111W        W53525  42.799  10.733  12.389
81112W        W53526  12.154  32.130  13.038
81113W        W53527  31.549  26.522  11.497
81114W        W53528  22.730  31.594   4.245
81115W        W53529  16.106   1.775   1.308
81116W        W53530  27.568  33.481   2.682
81117W        W53531  12.261  41.909   4.284
81118W        W53532  25.494   1.464   0.770
81119W        W53533  18.739  28.096   4.720
81120W        W53534  19.735  19.657   4.312
81121W        W53535   7.726  28.557  11.528
81122W        W53536  13.628   8.352   9.603
81123W        W53537  28.159  38.072  11.948
81124W        W53538  33.010  15.789  14.882
81125W        W53539  21.587   6.904  11.583
81126W        W53540  29.540  11.696  11.924
81127W        W53541  26.048  25.019  13.476
81128W        W53542  18.160  15.804   0.831
81129W        W53543  34.875  30.102  12.394
81130W        W53544  33.917  44.371   4.685
81131W        W53545  34.086  39.897  12.456
81132W        W53546  28.583   0.923   4.672
81133W        W53547  40.514  44.260   4.710
81134W        W53548  13.261  18.184  10.976
81135W        W53549  43.776  10.324   2.734
81136W        W53550  17.279  12.157   3.633
81137W        W53551   7.261  24.139   0.868
81138W        W53552  35.367  18.163  10.928
81139W        W53553  35.499  15.086   2.250
81140W        W53554  14.760  33.478  10.437
81141W        W53555  35.067  24.700   2.191
81142W        W53556  44.402  24.725   4.121
81143W        W53557  44.351   1.975  10.115
81144W        W53558  43.386  41.482   4.259
81145W        W53559  16.135  17.664   1.410
81146W        W53560  39.420   6.292   1.386
81147W        W53561  26.138  35.590   4.243
81148W        W53562   1.338  15.197  11.461
81149W        W53563  10.830  17.588   0.920
81150W        W53564  33.067   0.435  14.875
81151W        W53565  30.933   9.305  14.942
81152W        W53566  14.196  13.632   2.838
81153W        W53567  43.367  23.687   1.350
81154W        W53568  20.139  34.441   0.444
81155W        W53569  34.914  36.884  14.415
81156W        W53570  30.997  38.897   1.328
81157W        W53571  26.970  32.056   3.819
81158W        W53572  44.279  42.289   0.295
81159W        W53573  19.579   6.377  11.074
81160W        W53574   1.766  14.310  11.402
81161W        W53575  39.396   2.239  10.933
81162W        W53576  23.658  16.134  12.940
81163W        W53577  12.196   0.884  10.510
81164W        W53578  28.532  34.012  11.590
81165W        W53579  22.693  37.447  11.374
81166W        W53580  18.055  25.471   2.287
81167W        W53581  35.861  28.957   2.391
81168W        W53582   4.251  43.807   3.831
81169W        W53583  13.744  13.635  12.515
81170W        W53584  31.550  39.060   4.761
81171W        W53585  17.251   9.814   3.681
81172W        W53586  39.320  14.130  12.479
81173W        W53587   6.385  21.224   3.786
81174W        W53588  27.083  10.289  11.550
81175W        W53589  29.652   6.757   0.801
81176W        W53590  37.541  15.759   4.353
81177W        W53591  31.935   2.324   3.155
81178W        W53592  41.962  35.435  14.345
81179W        W53593   1.265  14.165   3.736
81180W        W53594  25.185  41.425   4.287
81181W        W53595  38.445  43.964   3.712
81182W        W53596  23.152  34.919   1.729
81183W        W53597   1.929  11.725  13.927
81184W        W53598  23.614  16.316   5.589
81185W        W53599   2.234   2.268   1.838
81186W        W53600  19.678   5.375   4.227
81187W        W53601   4.284   0.967   0.315
81188W        W53602  43.775  21.751  11.572
81189W        W53603  42.493  14.095  11.907
81190W        W53604  16.204  15.813   0.315
81191W        W53605  21.064  27.088   0.474
81192W        W53606  17.073  42.321   3.675
81193W        W53607  11.677  18.724  13.547
81194W        W53608   6.327  32.594   0.409
81195W        W53609  34.895  39.456   4.280
81196W        W53610  26.564  15.329  11.020
81197W        W53611  29.012  30.022   0.935
81198W        W53612  38.571   6.328   0.871
81199W        W53613  16.212  17.295   3.761
81200W        W53614  19.132  35.013   1.352
81201W        W53615   9.338  39.843   3.764
81202W        W53616  42.452  11.174   1.804
81203W        W53617  35.439  43.774  12.055
81204W        W53618  41.453  25.200   5.169
81205W        W53619   6.878  29.126  11.883
81206W        W53620  44.800  33.080  13.379
81207W        W53621  23.011   4.394  11.044
81208W        W53622  26.089  12.170   3.787
81209W        W53623  14.111  44.482   5.257
81210W        W53624   0.323  41.829  11.871
81211W        W53625  44.505   1.950  10.449
81212W        W53626  26.531  31.600  12.078
81213W        W53627  12.616   8.775   2.413
81214W        W53628  21.189  10.324  13.963
81215W        W53629  39.372  25.002   2.807
81216W        W53630  39.896  33.948   4.335
81217W        W53631  28.182  11.259  11.501
81218W        W53632  22.084  25.600   2.894
81219W        W53633   6.333  38.857   4.660
81220W        W53634  35.012  22.091   2.893
81221W        W53635  42.978  39.970   4.212
81222W        W53636  28.972   3.284  11.017
81223W        W53637  25.584  23.125  12.439
81224W        W53638  34.583   0.492  14.852
81225W        W53639  44.413  31.981   0.460
81226W        W53640  11.743  29.645   1.410
81227W        W53641  23.987  39.315  11.099
81228W        W53642  26.986  14.279   0.281
81229W        W53643  34.016  19.132  14.856
81230W        W53644  18.295  29.668  14.029
81231W        W53645  42.432  35.390  14.905
81232W        W53646  10.643  37.026  13.019
81233W        W53647  28.114  39.967   1.418
81234W        W53648  35.871   1.824  10.588
81235W        W53649  19.142   7.683   3.855
81236W        W53650  29.026   4.827   1.333
81237W        W53651  29.078  32.394   2.667
81238W        W53652  26.613  12.620  14.776
81239W        W53653  14.330   8.194  14.344
81240W        W53654  40.403   7.665  13.946
81241W        W53655  30.039  28.640  13.347
81242W        W53656   8.316  42.430  10.569
81243W        W53657  33.115  24.020   2.813
81244W        W53658  38.901  44.282   9.958
81245W        W53659  30.020  44.486   4.717
81246W        W53660  23.178   4.306   3.653
81247W        W53661  44.845  23.543   3.814
81248W        W53662  35.917   3.832  14.973
81249W        W53663  27.984  19.158  14.946
81250W        W53664  33.394  22.626   1.326
81251W        W53665  24.137  42.466   1.274
81252W        W53666  22.251  36.937   1.757
81253W        W53667  18.284  38.991   1.263
81254W        W53668   7.257  17.232  11.112
81255W        W53669  33.449  38.985  14.894
81256W        W53670  30.944   2.746  12.478
81257W        W53671  19.607  29.943   2.198
81258W        W53672  13.833  28.454  13.823
81259W        W53673  28.954   7.892   2.220
81260W        W53674  13.833   5.295  11.474
81261W        W53675   0.913  40.522  10.964
81262W        W53676  32.016  36.462  11.121
81263W        W53677  23.232  16.617   3.660
81264W        W53678   9.326  29.460  11.016
81265W        W53679  30.003  40.880  12.865
81266W        W53680  16.198  11.128  14.765
81267W        W53681  25.477  35.898   4.268
81268W        W53682  22.703  13.790   4.234
81269W        W53683  18.707  11.203  12.991
81270W        W53684  17.163  40.998   1.300
81271W        W53685   7.375  37.039   2.342
81272W        W53686  17.080  34.454  12.985
81273W        W53687  37.535  34.533   0.914
81274W        W53688  40.369  27.665  10.957
81275W        W53689  22.681  20.256  14.894
81276W        W53690  22.689   4.286   2.757
81277W        W53691  14.231  25.470  14.808
81278W        W53692  27.591   9.339  14.801
81279W        W53693  42.289  24.179   1.778
81280W        W53694  44.888  30.468   3.216
81281W        W53695  15.663  10.259   3.339
81282W        W53696  29.438  17.665   0.754
81283W        W53697  23.148  28.028   0.273
81284W        W53698  21.192  43.011   4.649
81285W        W53699  17.750  37.966   3.292
81286W        W53700  27.181  34.474  12.521
81287W        W53701  32.512  19.625  11.438
81288W        W53702  17.656   0.451  12.491
81289W        W53703  25.089  16.653  14.907
81290W        W53704  33.475   0.467   1.267
81291W        W53705  43.932  38.331   1.392
81292W        W53706  11.693  24.550   2.371
81293W        W53707  35.085  31.100   1.243
81294W        W53708  40.325  27.629  14.779
81295W        W53709  26.672  31.086  13.528
81296W        W53710  41.884   6.247  10.127
81297W        W53711   6.400  33.111   1.934
81298W        W53712   7.335  24.085  12.954
81299W        W53713  11.858   6.382   4.207
81300W        W53714   6.687  25.055  11.984
81301W        W53715  10.694  11.670   4.267
81302W        W53716  39.042   4.206   3.697
81303W        W53717  41.901  35.085  11.107
81304W        W53718  15.618  30.078   3.799
81305W        W53719   5.278  27.662   0.737
81306W        W53720  20.046  34.383   1.271
81307W        W53721   4.788   0.362   2.758
81308W        W53722   5.427  42.336   3.292
81309W        W53723   9.676   1.335   0.330
81310W        W53724  31.606   5.871  13.419
81311W        W53725  17.188  28.160  14.333
81312W        W53726   3.228  22.559   0.405
81313W        W53727  26.602  29.154   2.694
81314W        W53728  18.659  17.680  14.336
81315W        W53729  31.001   9.360  10.514
81316W        W53730  12.227   1.838   3.370
81317W        W53731  31.577  18.124  11.022
81318W        W53732  39.391  28.493   3.172
81319W        W53733  11.736  14.725   4.725
81320W        W53734  11.814  13.740  12.905
81321W        W53735   7.912  11.179   1.287
81322W        W53736  41.449   4.358  13.981
81323W        W53737  39.350  16.622  10.527
81324W        W53738  22.648  17.740  11.445
81325W        W53739   0.483  37.899  13.396
81326W        W53740  42.033  37.012  12.374
81327W        W53741  16.748  24.052   2.879
81328W        W53742  35.061  21.625  11.399
81329W        W53743  24.524  27.172   2.764
81330W        W53744   7.181   5.233   4.685
81331W        W53745  29.148   0.761  12.946
81332W        W53746  18.578  37.860   3.271
81333W        W53747  18.091  37.040   1.846
81334W        W53748  16.165   7.192   9.546
81335W        W53749  14.101  10.230  10.971
81336W        W53750  30.063  34.109   1.424
81337W        W53751  44.924  26.096   4.616
81338W        W53752  27.033  33.064   4.692
81339W        W53753   5.270  37.933  11.991
81340W        W53754   9.768  12.669  11.575
81341W        W53755  40.378  24.213  13.457
81342W        W53756  17.621  41.989  10.462
81343W        W53757  14.257  37.495  13.393
81344W        W53758  23.006   4.734  13.444
81345W        W53759   6.782  38.988  14.941
81346W        W53760  31.424  36.899  14.509
81347W        W53761  23.661   1.366  14.461
81348W        W53762  17.133  39.895  14.917
81349W        W53763  26.017  29.947   2.180
81350W        W53764  43.455  30.481   1.792
81351W        W53765  19.672  38.887  11.973
81352W        W53766  34.422  25.072   3.710
81353W        W53767  27.610  34.985   1.808
81354W        W53768  10.378   3.237  14.506
81355W        W53769  39.558  22.089   3.853
81356W        W53770  15.776  10.844  13.926
81357W        W53771   3.356  32.526  14.296
81358W        W53772   6.774  12.274  10.916
81359W        W53773  27.677  40.926   0.365
81360W        W53774  41.419  39.010   2.722
81361W        W53775  40.473  35.101  12.009
81362W        W53776  38.444  13.698   1.813
81363W        W53777  40.467   4.766   2.298
81364W        W53778   2.959  43.316   4.219
81365W        W53779   1.758  14.275  14.768
81366W        W53780  36.969  19.113   0.328
81367W        W53781  40.470  13.129  10.456
81368W        W53782  26.527  12.352   0.444
81369W        W53783  18.674   4.927  13.013
81370W        W53784  40.941  37.463   0.815
81371W        W53785  27.169  10.825   0.291
81372W        W53786  44.366  25.591   3.724
81373W        W53787  26.464  22.746  11.492
81374W        W53788  39.482   0.317   3.312
81375W        W53789  36.045  15.756  11.064
81376W        W53790   2.789   0.474   4.250
81377W        W53791  37.399  35.463  13.539
81378W        W53792   1.800  36.043   0.832
81379W        W53793   6.685  41.043   2.299
81380W        W53794  10.331   2.360   1.407
81381W        W53795  10.341  30.488  13.866
81382W        W53796  35.406   2.275  14.891
81383W        W53797  30.056   4.821   3.268
81384W        W53798  21.689   3.318   4.160
81385W        W53799  42.824   1.880  12.831
81386W        W53800  40.827  21.113  14.023
81387W        W53801  43.372  36.897   4.672
81388W        W53802  15.310  32.964  13.881
81389W        W53803  19.618  19.149   1.403
81390W        W53804  28.079  39.390  11.014
81391W        W53805  19.775  43.765  10.930
81392W        W53806  33.990  12.639  10.889
81393W        W53807  43.937  32.529  14.310
81394W        W53808  30.570  34.577  12.566
81395W        W53809  42.817  13.300   1.359
81396W        W53810  41.981  29.513  11.082
81397W        W53811   8.864  12.833  13.053
81398W        W53812   2.732   5.709  11.069
81399W        W53813  22.726  14.695   1.756
81400W        W53814   0.899  19.045   2.371
81401W        W53815  10.363  25.495  11.124
81402W        W53816  32.485  18.208   1.876
81403W        W53817  35.879  33.930  12.840
81404W        W53818  24.565  32.976   2.797
81405W        W53819  40.019  16.255   3.359
81406W        W53820   2.356  10.865   4.122
81407W        W53821  15.775  40.421   2.852
81408W        W53822   1.927  37.524   2.258
81409W        W53823  37.389  15.675  14.910
81410W        W53824  41.846  27.511   4.291
81411W        W53825  44.801  26.485  11.493
81412W        W53826  36.990  16.708   3.695
81413W        W53827  41.789  30.077  11.053
81414W        W53828  36.444  24.206  14.329
81415W        W53829  42.925  29.024  14.849
81416W        W53830  39.819  30.974   3.203
81417W        W53831  22.056  29.610  11.892
81418W        W53832  22.014  23.094  11.911
81419W        W53833  31.450  36.518   1.285
81420W        W53834  13.333  38.038  14.356
81421W        W53835  35.398  23.699  10.524
81422W        W53836   4.396  18.693   4.817
81423W        W53837  20.210   5.247   4.148
81424W        W53838  41.472  38.390   4.621
81425W        W53839  19.125  17.235   1.894
81426W        W53840   7.717  42.958  13.364
81427W        W53841  41.514  44.821   3.799
81428W        W53842   3.385  24.605  12.499
81429W        W53843  22.172  12.783   2.335
81430W        W53844   8.370  15.743   0.281
81431W        W53845  39.425   4.328   1.775
81432W        W53846  35.080  38.889  12.002
81433W        W53847  32.583  43.019  14.330
81434W        W53848  43.283  42.365  11.882
81435W        W53849   8.806  12.225  13.532
81436W        W53850  26.200  35.511   3.735
81437W        W53851  41.522  16.642  13.542
81438W        W53852  20.638   7.868   3.157
81439W        W53853  43.450  24.533  11.065
81440W        W53854  11.625  17.670  11.457
81441W        W53855  17.651  31.043  10.627
81442W        W53856   7.405  14.309   4.262
81443W        W53857  39.316   4.208  11.578
81444W        W53858  16.581  31.461  11.442
81445W        W53859  21.222  43.469   3.324
81446W        W53860  41.312  19.207   3.249
81447W        W53861  39.399  33.548   0.322
81448W        W53862  40.331  39.516   2.786
81449W        W53863  14.774   7.824   5.277
81450W        W53864  18.053  31.923   2.886
81451W        W53865  13.257  30.512  13.860
81452W        W53866   1.755  23.574  11.608
81453W        W53867   6.396  41.476  12.903
81454W        W53868  37.022   4.395  14.928
81455W        W53869   7.244  24.179   4.639
81456W        W53870  30.632  38.536  10.503
81457W        W53871   2.422  18.118   5.246
81458W        W53872   2.917  15.692   4.152
81459W        W53873  20.731  13.132   3.825
81460W        W53874   1.949  21.173  10.619
81461W        W53875  32.071  22.565  13.951
81462W        W53876  44.313  26.594  12.366
81463W        W53877  24.552   9.811   3.360
81464W        W53878  12.315  43.421   1.402
81465W        W53879  23.224   6.426  11.003
81466W        W53880  40.865  14.782  12.840
81467W        W53881  34.118  27.111  13.863
81468W        W53882  19.045  33.904  13.542
81469W        W53883  25.652  27.113  11.003
81470W        W53884  28.023  10.712  12.484
81471W        W53885  11.260  32.960   4.606
81472W        W53886  31.934  27.020  12.385
81473W        W53887  13.165  36.044  14.326
81474W        W53888  20.739   5.257  10.574
81475W        W53889  10.173  34.403  12.984
81476W        W53890  22.063   4.705   1.436
81477W        W53891  35.100  38.507   4.826
81478W        W53892  12.246  40.934   3.790
81479W        W53893  16.670  33.584   1.289
81480W        W53894  32.535  39.528   3.821
81481W        W53895   2.278  39.824  14.372
81482W        W53896   5.864  19.245   0.429
81483W        W53897  20.756   9.872   4.252
81484W        W53898  11.248  38.072   3.734
81485W        W53899  23.038  12.355  13.522
81486W        W53900  22.521  25.611   2.226
81487W        W53901  38.063  20.621  12.946
81488W        W53902   9.759  16.584   4.147
81489W        W53903  23.211  17.276  14.318
81490W        W53904  17.146  22.182   9.963
81491W        W53905  28.572  37.046   4.800
81492W        W53906  43.437  43.005  12.455
81493W        W53907   1.957  14.138   1.314
81494W        W53908  26.608  13.167   1.238
81495W        W53909   4.258  29.646   4.304
81496W        W53910  22.582  42.349   4.765
81497W        W53911   6.722   1.327   3.241
81498W        W53912  21.753  18.669   4.335
81499W        W53913  20.638   0.751  10.497
81500W        W53914   1.320   8.249   2.864
81501W        W53915  31.109  10.182   2.204
81502W        W53916  22.183  36.536  12.556
81503W        W53917  27.984  14.204   1.829
81504W        W53918   5.703  31.418  12.500
81505W        W53919  28.120  31.011   4.217
81506W        W53920  27.179  29.972   2.728
81507W        W53921  18.578   2.437  13.985
81508W        W53922  16.121  32.007   1.378
81509W        W53923  28.505  35.511   2.288
81510W        W53924  12.668   9.260   0.403
81511W        W53925   8.202  43.945  12.491
81512W        W53926   8.213  27.148  11.465
81513W        W53927  14.144   4.252  11.005
81514W        W53928  39.422  27.119  11.021
81515W        W53929   7.863  12.701  11.408
81516W        W53930   4.772  42.447   5.232
81517W        W53931  30.077   3.362   0.883
81518W        W53932  36.081  35.097  10.581
81519W        W53933  13.171  40.537  11.487
81520W        W53934  14.629  36.477  12.888
81521W        W53935  22.569  17.625   2.349
81522W        W53936  15.183  34.085   3.635
81523W        W53937  26.187  40.886   1.340
81524W        W53938  31.000  36.410   2.693
81525W        W53939   7.869  26.529  11.874
81526W        W53940  36.076  39.843  14.918
81527W        W53941  33.109  11.807   3.282
81528W        W53942  10.696  41.297  10.538
81529W        W53943  30.468  12.645   3.828
81530W        W53944  22.999   9.804   2.810
81531W        W53945   8.841   2.840  11.045
81532W        W53946  12.827   4.392  12.045
81533W        W53947  30.141  25.191   1.747
81534W        W53948  23.227  42.314  12.579
81535W        W53949  23.601   8.398  13.413
81536W        W53950  17.639  12.173  12.980
81537W        W53951  42.438  22.747  11.482
81538W        W53952  28.941  16.127   0.450
81539W        W53953  44.459   8.741  11.966
81540W        W53954  28.156  23.239   0.251
81541W        W53955  28.510  24.989  14.435
81542W        W53956   3.443  15.757  12.885
81543W        W53957   4.317  35.946  10.967
81544W        W53958  39.321   3.366  12.419
81545W        W53959  25.042  11.639  13.955
81546W        W53960  14.214   3.919   4.767
81547W        W53961  41.813  37.420  10.930
81548W        W53962   2.459  35.965   5.113
81549W        W53963  19.110  36.398   4.299
81550W        W53964  36.523   6.854   1.830
81551W        W53965  18.611  38.858   1.268
81552W        W53966   8.889  18.279   4.829
81553W        W53967  21.718  13.164   1.222
81554W        W53968   8.807   9.651   4.718
81555W        W53969  13.664  26.560  14.805
81556W        W53970   2.391   1.320   3.831
81557W        W53971  24.083   6.258   4.270
81558W        W53972  15.674   4.308   1.361
81559W        W53973  30.583  43.272  12.365
81560W        W53974  31.483  38.880  13.825
81561W        W53975  43.391   1.436   3.162
81562W        W53976  11.187   4.699  14.437
81563W        W53977   7.765  28.013  14.908
81564W        W53978  41.893  35.526  11.396
81565W        W53979  32.029   8.675   4.701
81566W        W53980  11.258  40.335   1.741
81567W        W53981   1.822  26.176   1.431
81568W        W53982  19.218  28.996  12.362
81569W        W53983  35.573  27.096  13.901
81570W        W53984  41.861  19.542  14.317
81571W        W53985   2.815  10.675   2.778
81572W        W53986  34.085  21.593  14.778
81573W        W53987  36.535  10.150   5.222
81574W        W53988  44.345   4.814  11.415
81575W        W53989   9.868  41.968   1.797
81576W        W53990  18.607  34.108  11.095
81577W        W53991   6.840  28.982  11.427
81578W        W53992  36.497   0.744   2.326
81579W        W53993  18.245  14.162  11.031
81580W        W53994  21.531  20.178  11.547
81581W        W53995  34.438   1.454   1.733
81582W        W53996   7.225  17.593   1.448
81583W        W53997  41.514  23.223   0.359
81584W        W53998  44.983  42.845  14.465
81585W        W53999  25.992   0.483  13.317
81586W        W54000  33.588  12.799  13.341
81587W        W54001   6.818  33.053  11.060
81588W        W54002   2.927  32.545   2.885
81589W        W54003  18.652  18.630   4.163
81590W        W54004  16.143  32.443  14.278
81591W        W54005  25.004  42.814   3.298
81592W        W54006  38.496  23.630   4.770
81593W        W54007  36.917  41.294  14.449
81594W        W54008   6.872  12.659  11.989
81595W        W54009   3.780  16.602   0.296
81596W        W54010  39.056  38.860  10.474
81597W        W54011  11.272   7.781  11.572
81598W        W54012   7.346   5.817  12.536
81599W        W54013  24.162   1.440   5.237
81600W        W54014  14.102  29.630   1.254
81601W        W54015  39.322  31.953   5.149
81602W        W54016  41.949  41.497  14.380
81603W        W54017   7.746   2.308  10.494
81604W        W54018  41.885  14.240   0.810
81605W        W54019  40.470  19.104   1.696
81606W        W54020  37.379  33.982   3.790
81607W        W54021  40.467   5.871   1.776
81608W        W54022  31.489   3.351   2.254
81609W        W54023  32.491   6.760  10.930
81610W        W54024  19.057   3.346  13.902
81611W        W54025  14.644  14.175   2.361
81612W        W54026  42.323  25.681   4.146
81613W        W54027  22.595  25.092  11.470
81614W        W54028  22.547  29.928   3.832
81615W        W54029  27.505   2.403   1.412
81616W        W54030  26.107  28.934  12.083
81617W        W54031  14.611   8.171   5.662
81618W        W54032  16.599   3.861  12.573
81619W        W54033  29.134  35.902  11.426
81620W        W54034  28.999  39.911  12.086
81621W        W54035  32.115  28.569  11.047
81622W        W54036  25.161  36.841  13.925
81623W        W54037  16.728  28.120  10.610
81624W        W54038  42.010  44.813  10.906
81625W        W54039  16.106  43.860  11.114
81626W        W54040  20.102   9.378  11.586
81627W        W54041   3.341  42.516   0.785
81628W        W54042   6.225  19.608   2.809
81629W        W54043  34.593  40.536   2.276
81630W        W54044  27.598  27.048   4.113
81631W        W54045  40.882  12.656  12.452
81632W        W54046  43.355  39.386  12.438
81633W        W54047  30.956  38.925  13.531
81634W        W54048  37.994  32.914   9.528
81635W        W54049  10.827   6.384   3.861
81636W        W54050   6.367   4.307  11.864
81637W        W54051  40.523  43.943  10.547
81638W        W54052   7.787  31.085  10.935
81639W        W54053  34.012  10.155  10.502
81640W        W54054  21.228  15.305   0.862
81641W        W54055  44.957  44.988  10.933
81642W        W54056  22.012  33.532   3.178
81643W        W54057  28.563   5.216   1.916
81644W        W54058  16.649   7.822   4.608
81645W        W54059  20.557  38.332  13.539
81646W        W54060  30.579  44.499  12.577
81647W        W54061   7.728  29.524   3.231
81648W        W54062  10.812  44.420   0.418
81649W        W54063  42.788  20.680  14.894
81650W        W54064   5.202  12.225  14.376
81651W        W54065  31.052   1.827  12.547
81652W        W54066  43.915  36.365   4.834
81653W        W54067  43.780  35.994   1.819
81654W        W54068  15.119  12.247   0.818
81655W        W54069  28.165  37.374   3.700
81656W        W54070  31.932  15.139  13.443
81657W        W54071  16.094   6.711  12.952
81658W        W54072  11.746  37.988   1.826
81659W        W54073   7.410  24.635   2.762
81660W        W54074  14.822  28.146   2.902
81661W        W54075  26.108  23.669  12.577
81662W        W54076   5.753  40.458   1.863
81663W        W54077  26.637  27.487  12.572
81664W        W54078   2.754  20.257  13.034
81665W        W54079  21.568  39.349  14.345
81666W        W54080  10.826  29.079   1.284
81667W        W54081  18.216  35.985   0.762
81668W        W54082  24.637   4.315   2.305
81669W        W54083  20.564  36.863   1.735
81670W        W54084  16.585  16.137  14.301
81671W        W54085   7.705   0.301  12.450
81672W        W54086   8.218  25.980   3.312
81673W        W54087   7.273   5.378  13.381
81674W        W54088  17.742  25.106  10.903
81675W        W54089  15.616  16.767  10.927
81676W        W54090  44.315  16.159   1.899
81677W        W54091  25.605  22.021  12.448
81678W        W54092  34.577  22.622  13.044
81679W        W54093  27.114  40.038   3.352
81680W        W54094  22.583  21.164  13.856
81681W        W54095  25.988  42.939   2.399
81682W        W54096   5.705   1.967  13.895
81683W        W54097  43.770  37.976   1.313
81684W        W54098   8.879  14.273  12.885
81685W        W54099  34.527   6.388  11.979
81686W        W54100  18.601  30.577   5.230
81687W        W54101  14.758  19.699  10.106
81688W        W54102  14.130  31.433   0.371
81689W        W54103  25.688   0.765   0.913
81690W        W54104  42.509   1.974   1.371
81691W        W54105  31.527  35.575  13.477
81692W        W54106   8.237  10.320  11.406
81693W        W54107  10.823   1.352  12.096
81694W        W54108  32.030   4.764  12.546
81695W        W54109  40.819   4.444   2.703
81696W        W54110  10.153   6.182   1.867
81697W        W54111   8.263   3.316  13.504
81698W        W54112  10.694  15.700  10.611
81699W        W54113  32.092  12.617   2.784
81700W        W54114  14.670  42.980   1.302
81701W        W54115  30.514  26.640  13.532
81702W        W54116  29.940  31.539   1.823
81703W        W54117   1.358  19.100   1.391
81704W        W54118  42.318  17.631   0.373
81705W        W54119  26.520  24.058  14.489
81706W        W54120  27.141   3.314  13.005
81707W        W54121  44.860   0.333  14.329
81708W        W54122  13.644   6.311  11.004
81709W        W54123  24.117  12.770  11.578
81710W        W54124  14.768  28.028  14.503
81711W        W54125  24.554  28.677  12.840
81712W        W54126   8.718  40.028   1.390
81713W        W54127  38.058  35.580  10.078
81714W        W54128  42.311   3.330  12.028
81715W        W54129  19.778  12.707  13.532
81716W        W54130  24.579  35.568   4.243
81717W        W54131   0.948  32.090   4.755
81718W        W54132   4.368   0.436  10.564
81719W        W54133  13.686  13.763  12.015
81720W        W54134  10.703   1.256  12.491
81721W        W54135  37.843  13.228   1.449
81722W        W54136   4.738   4.750   3.728
81723W        W54137   3.234  39.435   3.865
81724W        W54138  31.517  37.859  14.513
81725W        W54139   5.738  16.243   2.403
81726W        W54140   4.338  36.926  12.430
81727W        W54141  44.817   9.779   0.825
81728W        W54142  18.786  39.014  11.085
81729W        W54143  14.161  23.499   3.630
81730W        W54144  41.432  31.929   4.734
81731W        W54145  31.462  43.013   3.314
81732W        W54146  17.271  21.518  10.938
81733W        W54147  23.056  16.215   3.148
81734W        W54148  21.114  23.072  13.494
81735W        W54149  30.095   2.248   0.324
81736W        W54150  26.675  23.007  12.874
81737W        W54151  23.100  42.298  13.454
81738W        W54152  10.341  12.312   2.802
81739W        W54153  31.452  18.093  11.390
81740W        W54154  16.628  42.355   0.275
81741W        W54155  37.897  32.937   1.252
81742W        W54156   5.345  39.888   4.713
81743W        W54157   3.853   7.180   1.269
81744W        W54158  21.020  35.992  12.922
81745W        W54159  29.052  32.496  12.441
81746W        W54160  13.141  36.485   0.411
81747W        W54161  33.516  20.175   4.213
81748W        W54162   0.419  32.561  12.471
81749W        W54163  43.414   7.366  13.817
81750W        W54164   9.353  33.911   1.383
81751W        W54165  11.823  23.206  12.355
81752W        W54166  31.131  21.692   0.903
81753W        W54167  42.781  34.467   0.762
81754W        W54168   3.773  14.700  13.314
81755W        W54169  43.316  31.966  13.024
81756W        W54170   8.771  22.043  13.933
81757W        W54171  29.046   1.277  13.426
81758W        W54172  38.526   4.209   1.926
81759W        W54173   9.699  22.622  14.371
81760W        W54174   5.217  17.121  12.074
81761W        W54175  26.976  32.593  13.907
81762W        W54176  13.136   0.762  10.966
81763W        W54177  14.667   7.765   2.225
81764W        W54178  10.356  33.477  11.097
81765W        W54179  17.567  27.563   4.802
81766W        W54180  21.570  17.128  13.017
81767W        W54181  23.613  31.948   1.368
81768W        W54182   7.846  35.852  10.431
81769W        W54183  38.894  12.840  11.432
81770W        W54184   8.722  25.532  13.999
81771W        W54185   5.833  41.444   3.314
81772W        W54186   0.979  15.727  10.147
81773W        W54187  19.751  22.582   4.796
81774W        W54188  33.043  38.564   2.329
81775W        W54189  15.138  22.514   3.759
81776W        W54190   4.912  35.017  14.448
81777W        W54191  26.144  28.577  14.762
81778W        W54192  17.138  21.237  13.453
81779W        W54193  33.595  21.518   9.483
81780W        W54194  43.949   5.825  14.995
81781W        W54195   1.279  31.417  10.951
81782W        W54196  38.436   1.785  11.863
81783W        W54197  26.050  26.681  14.865
81784W        W54198  15.315  18.670  14.995
81785W        W54199  22.223  12.334   2.286
81786W        W54200  40.335  19.078  12.362
81787W        W54201   1.869  25.143  11.119
81788W        W54202  36.458  35.359   0.797
81789W        W54203  42.523  27.106   0.778
81790W        W54204   1.457  20.728   2.900
81791W        W54205  26.692   5.300  13.047
81792W        W54206  13.606  34.599   2.780
81793W        W54207  40.509  28.952   1.214
81794W        W54208  41.868   5.815  10.905
81795W        W54209   0.987  40.814  11.898
81796W        W54210  10.860  24.556  11.612
81797W        W54211  13.834   9.300   3.221
81798W        W54212  22.711  14.811  12.064
81799W        W54213  35.867  13.113   0.293
81800W        W54214  20.650  26.616   2.834
81801W        W54215   3.325  24.137   1.261
81802W        W54216   0.268  31.497  11.548
81803W        W54217  42.453  27.016  13.810
81804W        W54218  11.638   3.882  11.033
81805W        W54219  12.754  31.942  12.902
81806W        W54220  19.704  27.952  10.954
81807W        W54221  21.128  18.214   1.415
81808W        W54222  32.460   2.279   4.214
81809W        W54223  41.448  44.334   4.312
81810W        W54224  39.382  19.550  12.347
81811W        W54225   8.776  44.864  14.019
81812W        W54226  10.377  29.498  12.977
81813W        W54227  31.077  11.724   4.192
81814W        W54228  42.421  20.631   3.215
81815W        W54229   0.433  37.898   4.795
81816W        W54230   8.209  36.996  12.844
81817W        W54231  18.693   0.760   1.775
81818W        W54232  25.197  30.516   3.383
81819W        W54233  22.195  15.161   4.255
81820W        W54234  43.290   4.863   0.785
81821W        W54235   6.234  11.820  14.330
81822W        W54236  15.623   7.684  11.600
81823W        W54237  27.060  29.961  13.952
81824W        W54238   7.346  25.081  14.017
81825W        W54239  19.068  42.928  13.477
81826W        W54240   4.855  15.277   1.789
81827W        W54241  28.591   6.915  10.516
81828W        W54242   6.271  30.155  11.383
81829W        W54243  15.138  28.660  12.530
81830W        W54244  18.764   2.371  10.433
81831W        W54245  32.604  18.669   0.843
81832W        W54246  38.876   9.803  11.598
81833W        W54247   9.254   7.828   3.353
81834W        W54248  22.109  17.127  13.346
81835W        W54249  16.738  23.000   4.233
81836W        W54250   5.344   5.709   4.279
81837W        W54251   7.370  16.580   0.934
81838W        W54252  22.605   8.395  11.085
81839W        W54253  30.513  44.992  11.423
81840W        W54254  42.484  27.547  11.579
81841W        W54255  22.699  39.421   0.255
81842W        W54256   9.691   4.769   3.217
81843W        W54257   0.464  21.098  10.419
81844W        W54258  33.538  34.036   2.828
81845W        W54259  27.619  17.138  11.866
81846W        W54260  29.434  38.377  13.545
81847W        W54261  17.669  19.187   3.277
81848W        W54262  30.493   4.442   1.861
81849W        W54263  11.310  26.478   2.701
81850W        W54264  33.505   2.382  10.109
81851W        W54265  34.404  34.010   1.439
81852W        W54266  29.061   5.217   2.698
81853W        W54267  35.872   1.807   4.282
81854W        W54268  17.636  42.000  14.852
81855W        W54269  22.085  36.896  14.858
81856W        W54270   5.422   7.767   3.782
81857W        W54271  31.040  35.860  14.789
81858W        W54272   5.231  32.396   0.411
81859W        W54273  34.047  31.489   4.620
81860W        W54274  13.240  17.167  13.834
81861W        W54275  28.509  22.645   4.789
81862W        W54276  23.674  38.937  12.080
81863W        W54277   4.907  11.166  11.495
81864W        W54278   3.325  27.068  11.488
81865W        W54279   1.776  42.822   0.395
81866W        W54280  29.440  41.410   0.770
81867W        W54281   2.311  22.594   1.827
81868W        W54282  19.095  44.809  10.950
81869W        W54283   8.782  40.928   4.341
81870W        W54284  31.979  42.912  14.371
81871W        W54285  25.667  41.806  14.860
81872W        W54286  31.063  30.999   2.684
81873W        W54287   9.252  13.669  13.014
81874W        W54288  44.901   7.671   4.303
81875W        W54289  32.438  44.497   3.721
81876W        W54290  44.319  29.627   4.606
81877W        W54291  44.385  27.066   3.314
81878W        W54292  27.471  22.110  11.973
81879W        W54293  23.022  43.001  12.061
81880W        W54294  24.013   8.714   1.318
81881W        W54295  14.174  12.360   0.765
81882W        W54296   0.880  28.464  13.383
81883W        W54297  28.499  42.885  12.024
81884W        W54298  43.904   8.731   2.302
81885W        W54299  40.477  37.868  10.560
81886W        W54300  26.985  42.936  10.561
81887W        W54301  28.155  42.439  12.055
81888W        W54302   3.954  38.349  10.542
81889W        W54303  38.872  42.408  10.409
81890W        W54304   7.891  29.943   1.221
81891W        W54305  21.160  25.008   3.242
81892W        W54306  20.259  25.662  12.929
81893W        W54307  14.691  20.250  14.929
81894W        W54308  42.935   2.319   1.273
81895W        W54309  32.067  21.109  13.343
81896W        W54310  20.698  30.910  11.394
81897W        W54311  12.195  25.493   2.731
81898W        W54312   4.307  19.207  14.924
81899W        W54313  37.509  26.205   0.731
81900W        W54314  10.746  37.442   2.214
81901W        W54315  28.484  13.217  11.387
81902W        W54316   8.829   8.280   0.876
81903W        W54317  33.597   7.689  10.012
81904W        W54318  11.823  21.207  14.457
81905W        W54319   0.354  23.490   3.855
81906W        W54320  35.999  38.957  13.922
81907W        W54321  32.494  22.209   9.470
81908W        W54322   2.427   7.313  11.934
81909W        W54323  29.130   9.758   1.797
81910W        W54324  15.741  28.442   3.744
81911W        W54325  44.903  12.612   4.720
81912W        W54326  26.546   2.417  11.006
81913W        W54327  37.996  30.473  10.976
81914W        W54328  10.717  43.359   2.259
81915W        W54329  41.430  26.085  14.435
81916W        W54330  44.862  29.049  13.913
81917W        W54331  38.438  28.182  11.523
81918W        W54332   4.297  41.372   2.661
81919W        W54333  33.909  13.247   3.319
81920W        W54334  44.464  10.278   2.746
81921W        W54335   5.925   1.920   1.283
81922W        W54336  27.172   0.914   9.453
81923W        W54337  39.027  31.546  14.024
81924W        W54338   9.213   7.806   1.223
81925W        W54339  10.645   4.235   4.168
81926W        W54340  21.048  14.324  13.890
81927W        W54341   7.856  43.298   4.183
81928W        W54342  30.572  15.154   2.764
81929W        W54343  11.148   7.226   2.389
81930W        W54344  35.981  36.938  10.602
81931W        W54345  35.535  21.660  13.024
81932W        W54346  35.898  15.664  12.926
81933W        W54347  18.294   4.276  12.867
81934W        W54348  10.290  35.439  14.936
81935W        W54349  43.876  44.278  13.030
81936W        W54350   0.856  31.010  14.279
81937W        W54351   1.351  35.963  10.429
81938W        W54352  35.050  42.480   3.255
81939W        W54353  11.832  34.530  10.598
81940W        W54354  32.981  36.864   0.383
81941W        W54355   5.726  27.954  10.008
81942W        W54356   7.859  23.731   0.844
81943W        W54357  24.642  29.128   3.735
81944W        W54358  10.875   9.335   2.202
81945W        W54359  24.998  26.582  12.537
81946W        W54360  29.937  36.564   3.633
81947W        W54361  19.638  31.990   5.091
81948W        W54362  12.286  25.178  12.423
81949W        W54363  24.127   3.397  13.521
81950W        W54364  38.422  29.546   0.336
81951W        W54365  31.417   3.295   4.703
81952W        W54366   4.428   2.403   4.699
81953W        W54367  16.655  37.564  10.472
81954W        W54368  41.985   7.364  13.347
81955W        W54369   8.823  35.045   4.629
81956W        W54370   1.838   0.973   0.738
81957W        W54371  26.989  37.018  13.535
81958W        W54372  28.673  22.590   1.901
81959W        W54373  30.584  42.500  10.444
81960W        W54374  29.940   7.810  13.322
81961W        W54375  43.368  11.301   0.444
81962W        W54376  16.599   2.422  13.033
81963W        W54377  30.042  22.179  10.889
81964W        W54378  17.210   0.961  12.061
81965W        W54379   6.883  43.472   3.316
81966W        W54380  18.629  11.302  14.763
81967W        W54381  40.850  32.117   4.829
81968W        W54382  32.022  40.519  12.027
81969W        W54383  24.062   2.869  10.461
81970W        W54384  44.300  17.597   3.281
81971W        W54385   5.885  24.042  14.488
81972W        W54386  26.542   6.858  14.400
81973W        W54387  16.276  34.450   1.858
81974W        W54388  32.414  24.682   3.706
81975W        W54389   9.645  12.303  13.832
81976W        W54390   6.348  29.471  13.909
81977W        W54391  22.252  30.421  11.482
81978W        W54392  10.143  44.993  12.877
81979W        W54393   8.342   0.861  14.890
81980W        W54394  15.715  23.172  13.819
81981W        W54395  35.369  38.014   3.696
81982W        W54396   1.963  25.080   1.236
81983W        W54397  38.554  36.416   2.195
81984W        W54398  10.855  37.428  13.890
81985W        W54399  43.965  13.845   4.251
81986W        W54400  37.512  42.972   2.793
81987W        W54401  36.877  27.011  12.953
81988W        W54402   8.257  19.686  11.612
81989W        W54403  37.402  28.938   4.798
81990W        W54404  43.324   8.227   0.381
81991W        W54405  44.797  37.003   1.716
81992W        W54406  41.321  13.707   4.639
81993W        W54407  20.626  23.986  11.496
81994W        W54408  42.027  12.667   0.410
81995W        W54409  27.047  29.448  13.341
81996W        W54410  23.583  17.078   3.189
81997W        W54411  30.470  24.063   1.247
81998W        W54412  30.150  42.381   4.609
81999W        W54413  42.442   7.242  14.353
82000W        W54414  15.098  12.833   0.391
82001W        W54415   0.750  33.400  13.414
82002W        W54416  43.776   6.873   1.763
82003W        W54417  19.047  35.561   0.477
82004W        W54418  27.673  21.701  11.498
82005W        W54419  16.787  42.844  14.395
82006W        W54420  43.952  43.877   2.394
82007W        W54421  21.217  28.439   3.343
82008W        W54422  16.164   5.892   4.719
82009W        W54423  27.170  31.010   4.735
82010W        W54424  43.975  27.019   0.337
82011W        W54425   6.310  43.821  12.463
82012W        W54426  11.666   2.948  12.907
82013W        W54427  40.377  14.788  14.956
82014W        W54428   5.875  18.202   1.848
82015W        W54429  27.666   1.323   1.400
82016W        W54430  16.199  31.078   2.787
82017W        W54431  35.037   6.804   1.923
82018W        W54432  32.908   1.761  12.922
82019W        W54433  10.144  44.315   4.144
82020W        W54434  24.051   7.324   1.373
82021W        W54435  10.362   9.369   1.390
82022W        W54436  15.679  28.110   3.855
82023W        W54437  20.059   3.254  12.559
82024W        W54438  44.785  41.794   1.382
82025W        W54439  18.720   0.411  10.161
82026W        W54440  11.821  23.009  11.497
82027W        W54441   8.734   2.240   2.678
82028W        W54442   9.846  19.126   3.362
82029W        W54443  18.071   2.773  13.318
82030W        W54444  34.408  18.289   2.814
82031W        W54445  36.093  13.150  11.105
82032W        W54446  37.016  21.076   1.839
82033W        W54447  39.454   0.267   0.284
82034W        W54448  11.794  40.371   1.416
82035W        W54449  14.280   6.189   3.291
82036W        W54450  13.788  27.033  10.464
82037W        W54451  20.709  15.282  11.894
82038W        W54452  29.990  30.541   2.409
82039W        W54453   9.875  12.836  12.359
82040W        W54454   4.374   8.348  13.893
82041W        W54455  15.696  37.336   3.631
82042W        W54456  40.971   7.368   4.319
82043W        W54457   0.778  38.465  12.471
82044W        W54458   7.887  32.916  13.535
82045W        W54459  28.569  39.017   1.762
82046W        W54460  32.100  17.752   3.173
82047W        W54461  41.926  24.064   2.866
82048W        W54462  44.308  35.496   4.144
82049W        W54463  33.509   7.740   4.632
82050W        W54464  26.458  37.839   2.711
82051W        W54465  15.619   0.323   1.281
82052W        W54466  26.994  22.551  12.061
82053W        W54467  32.004  42.999  12.856
82054W        W54468  17.164  10.272   5.259
82055W        W54469   6.856  19.163  12.877
82056W        W54470   9.851  36.898   4.658
82057W        W54471  36.006  36.895   3.845
82058W        W54472  28.950  26.666  11.006
82059W        W54473  24.548  25.185  11.937
82060W        W54474  11.371   9.289  10.423
82061W        W54475  44.454  12.682   0.432
82062W        W54476  40.986  23.146  14.877
82063W        W54477  19.076   0.765   0.360
82064W        W54478  41.538  24.546   3.863
82065W        W54479   5.767  35.397   2.216
82066W        W54480   8.250  40.991  11.567
82067W        W54481   5.350  29.481  13.396
82068W        W54482   4.784  25.216  14.776
82069W        W54483  27.157   2.471  13.545
82070W        W54484  10.647  41.847  12.038
82071W        W54485  39.867  30.414   0.387
82072W        W54486  44.456  19.614  12.092
82073W        W54487   9.227  27.074  12.920
82074W        W54488   1.315  17.697   3.731
82075W        W54489  12.649  18.629   4.294
82076W        W54490  20.147   3.764  10.957
82077W        W54491  42.461  26.693  12.470
82078W        W54492  17.799  10.325   3.209
82079W        W54493  44.819  28.651   1.753
82080W        W54494  25.098  42.503   3.224
82081W        W54495  43.986  36.061   2.269
82082W        W54496   6.202  39.387   1.293
82083W        W54497   3.309  23.087   3.224
82084W        W54498   9.731  24.639  10.543
82085W        W54499  36.030  25.117  13.988
82086W        W54500  24.675  44.348  12.506
82087W        W54501  37.880  14.746   3.208
82088W        W54502   9.754  30.491   4.759
82089W        W54503  30.129  30.535   0.898
82090W        W54504   4.898   6.326  10.484
82091W        W54505  39.882  33.887  11.511
82092W        W54506  26.526  10.271   1.451
82093W        W54507  31.910  42.892  12.374
82094W        W54508  14.725  15.327   1.826
82095W        W54509  24.085  26.644   4.349
82096W        W54510  40.467  14.267   1.235
82097W        W54511  20.676  18.706  11.489
82098W        W54512  22.713  24.998   0.450
82099W        W54513   7.875  24.112   3.237
82100W        W54514  41.938  35.515  10.907
82101W        W54515  12.233  31.982  12.569
82102W        W54516  33.108  40.804  14.510
82103W        W54517  23.138   5.725  14.428
82104W        W54518   6.255  36.385   0.268
82105W        W54519  35.937   2.903  12.565
82106W        W54520  19.149   1.850   2.187
82107W        W54521  42.916   9.254  10.536
82108W        W54522  28.943  10.870  13.896
82109W        W54523   7.851  38.441  13.352
82110W        W54524  10.348  40.897   0.775
82111W        W54525  37.422  15.193   3.288
82112W        W54526  19.211  37.382   2.827
82113W        W54527  42.339  12.639   2.701
82114W        W54528  26.124  30.490  13.545
82115W        W54529  29.939  31.082   3.302
82116W        W54530  36.557  38.024   3.323
82117W        W54531  32.519  15.148  11.968
82118W        W54532  19.670  15.237  11.942
82119W        W54533   9.286  23.088   3.854
82120W        W54534  21.177  32.597   2.850
82121W        W54535  19.539  42.868   0.813
82122W        W54536  22.743  29.967   3.233
82123W        W54537  40.365  42.522  10.580
82124W        W54538  36.025   0.787  10.492
82125W        W54539  27.114  30.623   2.301
82126W        W54540  10.848  19.276  13.481
82127W        W54541  26.477  42.815   4.218
82128W        W54542  16.566  44.972   3.652
82129W        W54543   7.210  41.879   0.921
82130W        W54544  22.015   4.413   0.402
82131W        W54545  36.930  23.578   1.772
82132W        W54546  23.070   8.863   0.428
82133W        W54547  33.381  39.559  11.932
82134W        W54548  35.456  23.035  13.515
82135W        W54549  40.508  16.293  14.958
82136W        W54550  43.963  44.958  10.527
82137W        W54551  32.087  40.880  13.061
82138W        W54552  43.296  40.986   0.775
82139W        W54553  25.119  29.626  13.052
82140W        W54554  11.283   2.384   4.811
82141W        W54555  33.115  15.229   1.805
82142W        W54556   1.351  24.709   3.844
82143W        W54557   9.301  36.849   4.661
82144W        W54558  37.374  42.917   0.945
82145W        W54559  22.698  17.630  12.873
82146W        W54560  23.062  27.520   1.396
82147W        W54561  21.675   1.337  10.508
82148W        W54562   9.243  31.032  13.470
82149W        W54563  36.418  25.551   2.801
82150W        W54564   9.671  11.333   1.436
82151W        W54565  20.627  16.081  14.876
82152W        W54566  35.513  34.027   4.681
82153W        W54567   2.322  25.002  10.448
82154W        W54568  33.107  29.925   3.812
82155W        W54569  22.041  29.532   3.269
82156W        W54570   0.938  14.682  11.599
82157W        W54571   3.874  38.331  14.381
82158W        W54572  31.609  11.637  14.763
82159W        W54573  15.806  37.851  13.864
82160W        W54574   9.284  12.662  14.432
82161W        W54575  12.730   2.813   2.888
82162W        W54576  31.907  28.434  14.787
82163W        W54577  26.654  31.599  12.974
82164W        W54578   8.339   3.384  12.376
82165W        W54579  27.136  26.615   4.198
82166W        W54580  36.035  41.025   1.228
82167W        W54581  31.058  36.404   0.441
82168W        W54582  36.921  18.739   2.766
82169W        W54583  38.547  20.668  14.966
82170W        W54584   4.914  41.991  13.937
82171W        W54585  13.289  11.287   1.222
82172W        W54586  26.999  40.532  13.380
82173W        W54587   3.364   6.210   4.692
82174W        W54588  30.919  14.674   0.483
82175W        W54589  37.417   1.815   0.777
82176W        W54590   5.329  17.639   2.311
82177W        W54591   5.439  34.970  11.917
82178W        W54592   8.771  38.927   4.120
82179W        W54593  23.597  38.045  13.437
82180W        W54594  12.711  22.038   3.821
82181W        W54595  34.064  35.602   3.724
82182W        W54596  14.740  40.859   1.383
82183W        W54597  41.973  34.115   0.894
82184W        W54598  36.993  27.547  12.902
82185W        W54599  13.209  13.279  11.105
82186W        W54600  20.739  34.541  10.928
82187W        W54601  43.869   6.412  10.913
82188W        W54602   2.366  30.033  14.373
82189W        W54603  36.030  34.945   0.343
82190W        W54604   5.744  12.725  13.018
82191W        W54605   4.782   0.355   3.172
82192W        W54606  25.211  26.031   3.230
82193W        W54607  20.042  19.679   3.190
82194W        W54608  25.147  36.075   2.387
82195W        W54609  43.330   6.413   3.822
82196W        W54610  31.619  28.945  14.414
82197W        W54611  26.582  42.802   0.909
82198W        W54612  27.173  35.474   3.347
82199W        W54613  21.710  17.263   4.707
82200W        W54614  10.252  44.484  11.108
82201W        W54615  36.545  11.846  10.916
82202W        W54616  28.129  31.557   1.219
82203W        W54617   6.190  40.314  13.398
82204W        W54618  12.652   1.840  10.902
82205W        W54619   6.316  18.147  11.517
82206W        W54620  23.550  12.624  12.468
82207W        W54621  44.313  28.958  11.066
82208W        W54622  31.624  18.255   0.270
82209W        W54623  14.722  30.618  13.055
82210W        W54624  34.116  42.336   0.767
82211W        W54625   3.305  11.736   0.902
82212W        W54626  44.415  16.145  11.561
82213W        W54627  13.138  34.526  12.455
82214W        W54628  16.616  32.037  12.864
82215W        W54629  11.212  34.447   2.365
82216W        W54630   4.254  24.532   4.620
82217W        W54631  24.098  15.772   3.740
82218W        W54632  17.730  34.114   3.787
82219W        W54633  36.083  27.955   1.354
82220W        W54634  14.602   7.895  11.537
82221W        W54635  20.186   0.838  12.069
82222W        W54636   9.248  19.596  10.460
82223W        W54637   6.814  42.326   3.280
82224W        W54638  42.999  43.318   2.390
82225W        W54639   5.741  19.731   2.792
82226W        W54640  26.498  19.258  14.822
82227W        W54641  21.722   3.883   1.417
82228W        W54642  26.067  31.903   2.755
82229W        W54643  18.192  42.793  11.982
82230W        W54644  21.606  30.043  12.405
82231W        W54645  19.227  34.039   2.712
82232W        W54646  24.126  19.047  12.491
82233W        W54647  13.199  44.387  11.412
82234W        W54648  22.122  34.553  13.425
82235W        W54649  13.312  38.388  11.547
82236W        W54650  30.917   9.225   2.304
82237W        W54651  44.350  25.628   2.720
82238W        W54652  28.679  36.968  12.043
82239W        W54653  42.398   5.298   2.874
82240W        W54654  36.557  16.764   3.867
82241W        W54655  15.798  38.328   0.362
82242W        W54656  39.815   3.329  11.603
82243W        W54657  35.873  26.080  11.945
82244W        W54658  18.158  25.980  14.784
82245W        W54659   0.969  27.480  10.898
82246W        W54660  16.761  26.131  11.869
82247W        W54661  19.638  41.787   3.375
82248W        W54662  37.428  17.258   2.377
82249W        W54663   9.735  10.286  12.444
82250W        W54664  22.121   2.410   1.873
82251W        W54665   5.698  42.980  13.930
82252W        W54666   1.378  27.034   4.633
82253W        W54667   6.248  22.570   2.235
82254W        W54668  24.989  38.437   3.772
82255W        W54669  44.760  41.833  12.456
82256W        W54670   7.230  40.416   1.764
82257W        W54671  33.005   5.327   3.242
82258W        W54672  11.227  41.452   1.438
82259W        W54673  43.869  13.233  13.002
82260W        W54674  40.922  38.940   0.448
82261W        W54675   3.899  35.927  11.124
82262W        W54676  10.793  20.255  14.876
82263W        W54677   0.929  42.420   3.673
82264W        W54678  13.332  32.522  12.466
82265W        W54679  32.509  17.078  14.382
82266W        W54680  18.278  24.149   0.859
82267W        W54681  29.432  39.022  14.956
82268W        W54682  37.456  33.535  12.510
82269W        W54683  36.487  43.816   2.379
82270W        W54684  28.494  15.115  11.947
82271W        W54685  33.487  39.955   1.379
82272W        W54686   4.751  15.591  13.366
82273W        W54687  26.507  14.629   2.897
82274W        W54688  20.169   4.893  10.913
82275W        W54689  34.083  39.989   3.221
82276W        W54690  21.753  20.745   1.887
82277W        W54691  31.138   3.308  10.946
82278W        W54692  38.498   5.755   1.704
82279W        W54693   2.407  12.802   1.764
82280W        W54694  39.840  35.536   4.783
82281W        W54695   3.762  21.541  13.862
82282W        W54696   8.313  29.145  12.576
82283W        W54697   8.353  35.955  13.797
82284W        W54698  17.198  34.095  14.001
82285W        W54699  28.002  33.036   1.234
82286W        W54700  33.069  35.036  10.475
82287W        W54701  37.464   9.785  11.044
82288W        W54702   5.310  43.343  11.916
82289W        W54703   6.814  43.364  12.389
82290W        W54704  14.590  10.669   0.754
82291W        W54705  33.013   6.422   1.752
82292W        W54706   5.756  25.000   4.771
82293W        W54707  15.727   1.813   2.194
82294W        W54708  31.015  13.774  11.011
82295W        W54709  34.083   3.222   1.325
82296W        W54710  17.757  27.107  14.013
82297W        W54711  10.216  43.375  10.504
82298W        W54712  27.670  36.091   2.711
82299W        W54713  21.737  34.606   3.763
82300W        W54714  31.949  24.616   1.307
82301W        W54715  39.437  14.678  10.971
82302W        W54716  23.195   1.948  14.299
82303W        W54717   5.758   1.244  13.793
82304W        W54718   0.249  17.560   1.305
82305W        W54719  35.399  10.278   2.861
82306W        W54720  24.722  34.414  11.603
82307W        W54721  12.706  22.555   2.405
82308W        W54722  10.855  25.113   1.262
82309W        W54723  35.544  22.688   0.330
82310W        W54724   8.898  24.589   4.602
82311W        W54725  27.630  44.267   0.475
82312W        W54726   9.778  43.765   4.238
82313W        W54727   4.304   2.954   3.151
82314W        W54728  14.687  43.769   3.320
82315W        W54729  23.070  25.041  12.935
82316W        W54730  11.637  42.339  11.612
82317W        W54731  35.391  15.201  13.401
82318W        W54732  15.327   0.328  10.405
82319W        W54733  16.698   2.789  13.795
82320W        W54734  31.402   1.412   3.366
82321W        W54735  28.040   4.848  14.277
82322W        W54736  16.116  24.014  13.402
82323W        W54737  21.228  17.071   5.116
82324W        W54738  16.736  17.739  14.400
82325W        W54739   3.729   2.792   2.857
82326W        W54740   1.867  29.632   2.217
82327W        W54741  15.098  37.854  10.454
82328W        W54742   0.473  21.600  12.970
82329W        W54743  28.645  32.482  11.063
82330W        W54744  10.198  18.584  13.410
82331W        W54745  37.501  15.742  11.454
82332W        W54746  43.352  33.464   1.326
82333W        W54747  43.793  13.109   2.695
82334W        W54748  24.191   6.789   2.698
82335W        W54749  26.465  11.237  12.060
82336W        W54750  21.676  44.815   4.136
82337W        W54751  22.569  36.022   1.344
82338W        W54752  39.919  43.403   0.479
82339W        W54753   9.722   6.849   3.684
82340W        W54754  12.770  19.657  11.376
82341W        W54755  17.604  21.555  10.494
82342W        W54756   3.932  44.480  11.513
82343W        W54757  41.442  38.430  10.542
82344W        W54758  25.091  37.480  13.426
82345W        W54759  10.698  26.547  14.422
82346W        W54760  39.490  16.674  11.115
82347W        W54761   2.818  13.285   3.802
82348W        W54762  31.519  29.107  12.968
82349W        W54763   9.221  27.476   1.910
82350W        W54764  30.133  25.642  11.119
82351W        W54765  29.435  35.977  11.497
82352W        W54766   2.465  34.387   0.772
82353W        W54767  11.365  42.352   4.707
82354W        W54768  11.811   8.808   3.735
82355W        W54769  19.185  31.509  10.895
82356W        W54770  17.140  11.732   3.342
82357W        W54771   2.740   4.345   1.383
82358W        W54772  21.156  26.588  12.559
82359W        W54773  16.608   8.735  11.901
82360W        W54774  17.271  23.723   0.889
82361W        W54775  13.323   4.311  13.914
82362W        W54776  33.086  28.553  11.120
82363W        W54777   3.229  17.102  11.575
82364W        W54778  41.427   0.950   2.896
82365W        W54779  16.761  14.609   4.822
82366W        W54780  28.080  42.973   3.331
82367W        W54781  42.815  14.221   4.731
82368W        W54782  30.064   7.748   0.884
82369W        W54783   4.743   1.294  11.458
82370W        W54784  24.502  25.578  12.357
82371W        W54785  38.382  24.194  11.008
82372W        W54786  35.059  44.946  14.990
82373W        W54787  17.668  19.752  13.357
82374W        W54788  29.531  28.484   4.804
82375W        W54789   4.749  19.746  14.400
82376W        W54790   1.374  28.524   4.278
82377W        W54791  14.663   8.367   2.670
82378W        W54792   9.647   1.777   3.319
82379W        W54793  37.578  12.682   4.250
82380W        W54794  41.962  22.137  11.992
82381W        W54795  20.581  32.614  11.855
82382W        W54796  21.710  36.956   2.667
82383W        W54797  31.052  33.924   1.284
82384W        W54798  30.554  29.073   2.251
82385W        W54799   9.242  15.618   2.385
82386W        W54800  36.060  32.121   0.959
82387W        W54801   9.884  18.566  13.521
82388W        W54802  18.260  34.412  10.488
82389W        W54803  42.791  24.032  12.559
82390W        W54804  41.476  36.361  10.591
82391W        W54805  28.506  25.135  14.975
82392W        W54806  11.255  38.405   0.320
82393W        W54807  26.695   8.791   4.832
82394W        W54808  35.945   0.380  12.850
82395W        W54809  15.106   4.773  13.034
82396W        W54810   9.228  30.961   3.732
82397W        W54811  28.970   3.741   2.227
82398W        W54812   0.394   0.858   2.284
82399W        W54813  41.000  24.173   3.778
82400W        W54814  27.687   3.348   5.252
82401W        W54815  37.852   4.717   9.980
82402W        W54816  27.182   1.300   4.336
82403W        W54817  11.147   4.826   4.678
82404W        W54818  35.579  25.175   0.263
82405W        W54819   9.796  37.348   0.753
82406W        W54820  44.475   6.393   1.786
82407W        W54821   8.797  15.670   4.713
82408W        W54822   8.793  27.602  10.150
82409W        W54823  43.440   7.284  10.494
82410W        W54824  25.130  42.362  11.549
82411W        W54825   9.347   5.772  14.999
82412W        W54826   3.765  39.942   1.225
82413W        W54827  16.116  38.460  12.857
82414W        W54828  26.697  14.326  12.433
82415W        W54829  38.842  24.011  11.442
82416W        W54830   2.921  14.776   4.644
82417W        W54831  39.914  41.531   1.797
82418W        W54832   1.820   8.332  10.613
82419W        W54833  43.481  34.093  13.985
82420W        W54834   2.357   8.898   0.242
82421W        W54835  36.455  33.499  10.595
82422W        W54836   8.710   3.834  14.028
82423W        W54837  14.311   8.784  14.898
82424W        W54838  19.076  26.458   4.342
82425W        W54839   8.810  19.047   0.746
82426W        W54840  34.896  26.687  14.996
82427W        W54841  36.352  10.258  12.458
82428W        W54842  23.158  13.154   1.292
82429W        W54843  10.836  33.592  14.868
82430W        W54844   3.281  44.860   0.893
82431W        W54845   0.810  28.048   2.217
82432W        W54846  19.201  28.531   0.911
82433W        W54847  34.087   6.830  10.465
82434W        W54848  31.524   4.720   2.232
82435W        W54849  10.658  39.432  13.454
82436W        W54850  17.589  21.668  12.854
82437W        W54851  41.004   4.902  14.335
82438W        W54852  24.091   0.824   1.726
82439W        W54853  12.739  28.148   4.344
82440W        W54854  44.352  27.014  11.590
82441W        W54855  12.211   7.834  13.960
82442W        W54856  35.592  23.219  12.448
82443W        W54857  42.310  12.251   2.749
82444W        W54858  25.999  37.957  11.031
82445W        W54859  26.027  29.577   3.812
82446W        W54860  13.135  11.858  10.971
82447W        W54861   9.363  35.081  10.585
82448W        W54862  21.241  37.536  13.916
82449W        W54863  11.258  37.051  11.873
82450W        W54864   2.948   3.395   0.741
82451W        W54865   4.271  35.558  11.905
82452W        W54866  14.284  10.818   0.427
82453W        W54867  30.574  38.900   0.907
82454W        W54868   6.214   4.796   3.166
82455W        W54869   1.345   2.308   0.880
82456W        W54870  13.134  40.964   3.836
82457W        W54871  15.713   7.726   1.753
82458W        W54872  12.222  27.547  11.013
82459W        W54873  43.297  38.847   1.721
82460W        W54874  42.403  12.321  14.019
82461W        W54875  28.995  19.753  14.029
82462W        W54876  33.491  16.752  10.416
82463W        W54877   3.749   7.299   4.676
82464W        W54878  36.989  30.005   3.169
82465W        W54879  39.054  17.295  13.530
82466W        W54880  17.166  44.259   4.197
82467W        W54881  13.154  36.439  11.963
82468W        W54882   6.821  24.582   0.962
82469W        W54883  22.077  35.519   3.748
82470W        W54884  29.151  25.565  13.006
82471W        W54885  19.623   2.961   2.779
82472W        W54886  39.535  39.878  11.388
82473W        W54887  33.102  12.285   1.749
82474W        W54888  33.447   6.215   1.912
82475W        W54889  26.002   8.307   1.731
82476W        W54890  29.666  13.793   1.780
82477W        W54891  37.957  30.914   2.357
82478W        W54892  27.139  39.896  11.060
82479W        W54893  16.742   7.416   4.235
82480W        W54894  31.922  24.025  11.521
82481W        W54895  24.570  31.638  12.550
82482W        W54896  16.234  39.964   1.381
82483W        W54897   1.248  35.398   4.816
82484W        W54898  10.875  38.069   2.721
82485W        W54899  16.287   5.241   2.236
82486W        W54900  24.680  20.217  11.121
82487W        W54901  33.062   7.329  14.969
82488W        W54902   6.797  38.051  10.636
82489W        W54903  11.337  29.091  14.430
82490W        W54904  38.548  11.771  12.868
82491W        W54905  39.843  18.746  11.523
82492W        W54906  25.138   1.921   9.931
82493W        W54907  36.463  15.684  12.353
82494W        W54908  32.433  10.256   4.263
82495W        W54909  14.696   1.860   0.878
82496W        W54910  28.052   8.814   1.435
82497W        W54911  18.755   2.805   0.795
82498W        W54912  32.440  19.054   4.270
82499W        W54913  21.257   0.958  12.561
82500W        W54914   4.917  41.974   3.202
82501W        W54915  10.284  31.438  11.539
82502W        W54916  30.425  10.845  13.315
82503W        W54917  33.968  20.217   1.771
82504W        W54918  37.370  18.555  11.522
82505W        W54919  21.236  26.037  11.098
82506W        W54920  13.198  40.496  11.092
82507W        W54921  38.386  36.993   4.149
82508W        W54922  11.744   5.730   0.829
82509W        W54923   6.236   0.867   3.154
82510W        W54924  35.427   8.869  13.914
82511W        W54925  28.668  17.706   2.320
82512W        W54926  15.691  17.711  10.978
82513W        W54927  37.488  32.418  10.627
82514W        W54928  33.067  42.300  11.526
82515W        W54929  36.355  18.555   4.760
82516W        W54930  31.898  24.106  12.826
82517W        W54931  35.077  24.185  13.444
82518W        W54932  34.001  14.322  10.574
82519W        W54933  18.624   6.417   0.744
82520W        W54934  15.283  30.528  11.442
82521W        W54935  40.320  43.286  14.922
82522W        W54936  26.656  21.547   3.202
82523W        W54937  32.506  42.953   1.909
82524W        W54938   5.377  20.657   4.211
82525W        W54939  44.880  14.623  12.924
82526W        W54940  44.771   8.382   4.233
82527W        W54941  20.095  34.874   0.289
82528W        W54942   2.954  29.583  10.526
82529W        W54943  15.587  38.528   0.782
82530W        W54944  34.885   1.384  13.362
82531W        W54945   7.702   9.769   1.728
82532W        W54946  43.861  28.646   3.658
82533W        W54947  23.132  22.105   1.371
82534W        W54948  12.336   2.306  12.431
82535W        W54949  38.838  15.745  11.390
82536W        W54950  27.509  21.098   2.189
82537W        W54951   7.271   1.907  14.330
82538W        W54952  29.983   4.271   2.362
82539W        W54953  23.020  40.868   2.207
82540W        W54954  19.202  21.744   1.416
82541W        W54955  32.440   3.268  14.803
82542W        W54956  16.669  34.943  14.826
82543W        W54957  15.328  37.338   2.669
82544W        W54958  22.192  39.960   4.823
82545W        W54959   2.854   3.298  11.485
82546W        W54960  24.084  25.025  10.966
82547W        W54961  40.011   9.370   4.171
82548W        W54962  25.480  29.072  14.448
82549W        W54963  30.967  24.153  14.784
82550W        W54964   7.676  33.009  12.409
82551W        W54965  30.060  29.146   0.379
82552W        W54966  30.122  26.149   1.892
82553W        W54967  19.764  44.353   2.314
82554W        W54968  25.063  16.141  13.798
82555W        W54969  40.422  27.164  11.002
82556W        W54970  12.312   2.885   1.825
82557W        W54971  17.243  17.639   4.598
82558W        W54972   0.938  44.419  13.909
82559W        W54973  40.528  41.918   1.402
82560W        W54974   2.854   9.826  13.377
82561W        W54975  29.089  36.420  10.466
82562W        W54976  30.062  14.645   0.919
82563W        W54977  37.566   5.891   0.359
82564W        W54978  16.318  22.662  10.619
82565W        W54979  34.866  19.044   2.738
82566W        W54980  24.219  37.960  12.473
82567W        W54981  22.551  23.031  11.554
82568W        W54982  18.570  36.899   4.253
82569W        W54983   3.288  29.109   4.206
82570W        W54984  43.005  18.635  12.476
82571W        W54985  13.625  27.154   0.857
82572W        W54986  10.334  31.967  12.082
82573W        W54987  44.488  10.237   3.813
82574W        W54988  18.237   3.779   1.399
82575W        W54989  13.289  38.500   3.212
82576W        W54990  32.111  26.956  13.963
82577W        W54991  36.914  39.343  10.575
82578W        W54992  42.780  27.117  12.014
82579W        W54993  40.478  16.640  10.610
82580W        W54994  37.042   8.345   0.311
82581W        W54995  24.623  37.346  11.382
82582W        W54996  32.631  42.027   4.295
82583W        W54997  29.499  20.134  11.422
82584W        W54998  34.969  17.188  10.419
82585W        W54999  21.699   9.274  13.924
82586W        W55000  44.862  38.023  14.903
82587W        W55001  26.625  20.598   4.342
82588W        W55002  30.945  36.861   3.270
82589W        W55003  37.352  23.228   3.827
82590W        W55004  31.075   7.865  13.947
82591W        W55005  26.170  36.860  13.517
82592W        W55006  19.693  25.524  13.457
82593W        W55007  28.602   1.442  13.516
82594W        W55008  14.740  26.200  13.325
82595W        W55009  19.125  18.756  10.407
82596W        W55010  11.227  29.938  10.494
82597W        W55011  29.049  34.971   0.332
82598W        W55012   4.804  41.467   4.167
82599W        W55013   8.842   4.893  14.802
82600W        W55014  44.267  28.936   3.654
82601W        W55015  42.523  16.673   3.325
82602W        W55016  27.080  43.790  11.399
82603W        W55017  39.013  38.503  12.572
82604W        W55018   4.389   8.775  13.497
82605W        W55019  40.352  15.197  14.366
82606W        W55020   2.233  32.945   3.831
82607W        W55021  37.364   6.237  13.896
82608W        W55022  19.240  44.778  10.568
82609W        W55023  31.521   4.233  14.974
82610W        W55024  24.623   2.881  13.522
82611W        W55025  14.635  10.728   2.778
82612W        W55026  42.897  26.523   1.851
82613W        W55027  14.285  28.045  12.054
82614W        W55028  39.020  10.845  12.394
82615W        W55029  15.083  10.793   3.250
82616W        W55030  24.074   4.902  14.801
82617W        W55031   6.357  22.595   0.480
82618W        W55032  23.990   0.472   0.384
82619W        W55033   5.819  36.885   4.332
82620W        W55034  17.784  25.519  10.567
82621W        W55035  17.249  39.389  13.468
82622W        W55036   0.966   3.290  11.940
82623W        W55037  11.653  35.563  12.477
82624W        W55038  24.173   5.206  11.898
82625W        W55039  41.431  21.575  13.509
82626W        W55040  40.444  22.075  13.465
82627W        W55041   1.775  14.281   1.697
82628W        W55042  13.635  22.153   3.355
82629W        W55043  41.496  23.580  13.902
82630W        W55044   4.269   8.305   2.821
82631W        W55045  24.720  28.615   3.248
82632W        W55046  25.076  21.695   2.842
82633W        W55047  31.943   2.415   1.722
82634W        W55048   6.692   4.760  14.512
82635W        W55049   9.188   5.401  12.487
82636W        W55050  24.656  42.779   2.879
82637W        W55051   3.775   3.780   0.330
82638W        W55052   0.369   9.185   4.676
82639W        W55053  26.979  14.786   2.727
82640W        W55054  19.279  35.601   3.676
82641W        W55055   6.372  18.103   1.901
82642W        W55056  40.896  25.657   4.632
82643W        W55057  16.086   5.412   4.251
82644W        W55058  38.072  10.795   4.154
82645W        W55059  17.783  36.410  12.062
82646W        W55060  10.381  16.736   1.354
82647W        W55061  30.154  31.484   0.828
82648W        W55062  41.394  33.953   0.246
82649W        W55063   1.338   4.215  13.968
82650W        W55064  43.878   0.789   3.793
82651W        W55065  21.026  34.871  12.050
82652W        W55066   2.753  12.794   3.366
82653W        W55067  14.186  44.406  12.976
82654W        W55068   1.478  18.612  12.485
82655W        W55069  16.192  22.069  12.972
82656W        W55070  32.550  17.661  10.493
82657W        W55071  10.320  40.939   2.301
82658W        W55072  33.005  36.591  12.010
82659W        W55073  12.235  13.130  12.951
82660W        W55074  32.983   8.213   2.839
82661W        W55075   2.763  43.467   0.909
82662W        W55076   4.727  37.582   3.159
82663W        W55077   9.270  42.016   2.204
82664W        W55078  31.049  23.693  10.945
82665W        W55079   2.819  34.403   4.182
82666W        W55080  40.810   2.421   2.749
82667W        W55081  23.056  34.007   1.326
82668W        W55082   1.421  30.553   4.745
82669W        W55083  15.808  28.504  12.923
82670W        W55084  39.468  37.864   0.253
82671W        W55085  33.553  43.438  10.567
82672W        W55086  20.248  27.579  10.454
82673W        W55087  24.654   3.844   4.608
82674W        W55088  39.418  34.919   0.464
82675W        W55089  19.113  22.180  12.343
82676W        W55090  29.596  40.329  14.858
82677W        W55091  24.613  19.113  11.907
82678W        W55092  26.653  21.189  13.022
82679W        W55093  26.457  35.547  11.973
82680W        W55094  10.277   1.280  11.463
82681W        W55095  19.099  34.937  13.845
82682W        W55096  16.733  18.130   1.790
82683W        W55097  41.901   5.843  14.850
82684W        W55098   7.371   6.259   3.793
82685W        W55099  21.243  20.677  11.922
82686W        W55100  10.225  34.480   3.769
82687W        W55101  18.586  29.114  13.382
82688W        W55102  24.605  34.957  14.333
82689W        W55103  15.812  10.758  11.063
82690W        W55104  19.213  19.272   1.696
82691W        W55105  42.489  26.564  11.041
82692W        W55106  36.898  43.357  13.828
82693W        W55107  43.313  11.260   3.242
82694W        W55108   4.771  25.528   1.774
82695W        W55109  28.569  24.514   3.795
82696W        W55110  19.264  31.136   4.224
82697W        W55111   5.817  23.693   4.622
82698W        W55112  35.498   4.365   3.251
82699W        W55113   9.393  25.971   3.154
82700W        W55114   7.687  40.857  14.920
82701W        W55115   4.436  30.515  13.452
82702W        W55116  33.071  28.469   3.721
82703W        W55117  13.326  26.476  13.954
82704W        W55118  31.545  41.407  14.950
82705W        W55119  10.688  13.261   1.921
82706W        W55120  32.976  18.134  12.375
82707W        W55121   5.743  23.141  13.018
82708W        W55122  21.530  25.473   4.819
82709W        W55123  41.430  33.052   1.355
82710W        W55124  36.462  33.939   1.276
82711W        W55125  25.213  14.307  14.906
82712W        W55126  21.136   6.679   2.873
82713W        W55127  41.948  42.365   0.463
82714W        W55128  32.012  32.635  14.973
82715W        W55129  37.436  27.541  13.002
82716W        W55130   0.917  14.317  10.902
82717W        W55131  11.759  38.974   3.820
82718W        W55132  34.496  23.507   2.264
82719W        W55133  14.617   5.748   5.761
82720W        W55134  30.984  44.410   3.806
82721W        W55135  23.595   3.317   2.273
82722W        W55136  22.613  29.067   0.416
82723W        W55137  40.483   3.854  13.420
82724W        W55138   5.696  14.164  14.356
82725W        W55139   0.853  16.171  13.338
82726W        W55140  22.651   4.926  10.557
82727W        W55141  39.363   8.365   2.725
82728W        W55142  31.946  31.006  11.599
82729W        W55143  35.043  22.726  14.847
82730W        W55144  11.650  34.591   5.239
82731W        W55145   8.794  17.211   0.301
82732W        W55146  29.500  38.484  14.481
82733W        W55147  25.187   3.431   3.189
82734W        W55148  13.733  28.068   2.828
82735W        W55149  15.105  10.756  14.890
82736W        W55150  35.581  28.939  11.507
82737W        W55151   1.282  42.399  13.836
82738W        W55152  31.643  31.516  11.896
82739W        W55153  20.118   5.777   2.250
82740W        W55154  25.084  31.974   3.199
82741W        W55155  40.799  36.474   4.619
82742W        W55156  12.796  27.538  13.496
82743W        W55157  24.557  29.991  10.593
82744W        W55158  38.876  39.392   1.359
82745W        W55159  42.791  40.547   4.761
82746W        W55160  28.538  39.467   1.428
82747W        W55161  44.428   7.891  11.995
82748W        W55162  35.514   8.858   4.601
82749W        W55163  27.497  32.110   2.402
82750W        W55164  22.125  12.256   4.169
82751W        W55165  26.995  34.501  11.513
82752W        W55166   2.846  38.002  13.528
82753W        W55167  18.758  44.493   1.239
82754W        W55168   6.902   0.813   1.815
82755W        W55169   0.896   9.856   3.254
82756W        W55170  22.013  44.767  14.833
82757W        W55171  38.884  41.024   3.181
82758W        W55172  14.786  15.701   2.255
82759W        W55173   7.363  23.654   3.866
82760W        W55174  32.604  23.985  13.340
82761W        W55175  38.822  18.151  12.950
82762W        W55176  26.546  18.698   1.822
82763W        W55177   0.920   3.954  11.376
82764W        W55178  43.328  25.129   1.363
82765W        W55179  25.604  12.716   0.478
82766W        W55180  27.465   2.964   4.784
82767W        W55181   8.309  28.936  10.485
82768W        W55182  29.022   2.396  14.808
82769W        W55183  43.351  39.858  14.388
82770W        W55184  39.861  18.750   4.187
82771W        W55185  30.060   9.692  10.554
82772W        W55186  39.820   5.386   2.862
82773W        W55187  23.050  16.599  13.955
82774W        W55188   3.434   0.753  13.324
82775W        W55189  15.242  40.956  12.398
82776W        W55190  40.797  26.679  10.064
82777W        W55191  20.169  23.548  11.544
82778W        W55192  19.605  30.540   3.153
82779W        W55193  28.670  38.481  12.923
82780W        W55194  34.434   5.700  10.502
82781W        W55195   9.867  12.136   4.764
82782W        W55196  17.156   8.266   0.868
82783W        W55197  13.772  40.529  14.857
82784W        W55198  11.327  21.564   1.362
82785W        W55199   5.699  38.076  11.551
82786W        W55200  11.352  39.516  12.382
82787W        W55201  38.069   2.871   1.244
82788W        W55202  42.350  17.065   4.315
82789W        W55203  30.633  30.956  13.446
82790W        W55204  38.035   6.316   0.925
82791W        W55205   8.348   5.869   0.351
82792W        W55206  17.600  35.572   2.350
82793W        W55207  10.877  18.563   2.730
82794W        W55208  38.569  38.367  14.010
82795W        W55209  36.564  30.988   0.920
82796W        W55210   1.906  24.647  14.508
82797W        W55211  27.108  43.864   2.288
82798W        W55212  12.834  11.244  11.991
82799W        W55213  18.058  28.564   3.706
82800W        W55214  18.289  17.156  14.931
82801W        W55215  15.790  20.255   5.665
82802W        W55216  15.263  11.671   0.351
82803W        W55217  16.112  10.877  14.827
82804W        W55218  38.878  12.260   2.411
82805W        W55219  26.502  11.204   1.709
82806W        W55220  16.736  32.971   3.851
82807W        W55221   0.311  18.565  14.364
82808W        W55222   7.186  11.330  12.924
82809W        W55223  23.052  44.453  11.935
82810W        W55224  35.437  33.078  10.622
82811W        W55225  41.499  41.882   4.195
82812W        W55226  44.302  26.645  10.960
82813W        W55227   1.451  42.828   2.862
82814W        W55228  29.609  16.198   3.350
82815W        W55229  43.363  27.004  14.870
82816W        W55230  38.879  29.050   3.807
82817W        W55231  43.991   5.290   4.794
82818W        W55232  25.046  20.259  12.567
82819W        W55233  40.823  18.790   1.727
82820W        W55234   8.229  34.015   2.778
82821W        W55235  25.625  41.818   3.365
82822W        W55236  15.087   0.857  14.334
82823W        W55237  40.535  14.279  14.300
82824W        W55238   0.831  17.092   1.353
82825W        W55239  27.945  14.626   2.670
82826W        W55240  23.606   7.392  13.513
82827W        W55241  17.241  14.794  12.969
82828W        W55242  20.064  33.533   1.406
82829W        W55243   6.830   5.251   3.801
82830W        W55244   5.408  41.427  12.983
82831W        W55245  21.041  44.329  14.275
82832W        W55246  33.451   7.404  12.562
82833W        W55247  14.666  32.086  13.950
82834W        W55248  19.577  38.463   2.672
82835W        W55249   3.777  20.034   1.737
82836W        W55250  20.758   5.243   4.139
82837W        W55251  22.104  25.968  12.440
82838W        W55252  42.309  32.397   1.705
82839W        W55253  12.296   8.798   2.714
82840W        W55254   9.298   1.922  10.468
82841W        W55255  21.262   1.352  12.093
82842W        W55256   4.925  37.045   0.854
82843W        W55257  38.051  32.415  12.393
82844W        W55258  29.510   9.755  12.476
82845W        W55259  24.195  26.183  12.985
82846W        W55260  24.159  32.613   1.800
82847W        W55261  21.077   2.302  12.540
82848W        W55262  29.669  27.013   1.250
82849W        W55263  11.210  21.113   1.392
82850W        W55264  20.045  26.155   3.788
82851W        W55265  34.437   5.341  11.570
82852W        W55266   3.284  26.131   4.702
82853W        W55267  37.030  32.048   0.917
82854W        W55268  19.572  41.877   1.803
82855W        W55269  40.436  14.770  11.939
82856W        W55270   9.220   6.695   3.226
82857W        W55271   2.276   7.361   5.156
82858W        W55272  33.944  28.014  10.474
82859W        W55273  21.183  29.616   0.406
82860W        W55274  21.133  23.633   3.331
82861W        W55275  32.918  20.152  10.623
82862W        W55276  24.544  18.695   4.597
82863W        W55277  30.026  17.691  14.934
82864W        W55278  38.029  16.783   2.848
82865W        W55279  35.922  24.228   0.938
82866W        W55280  13.763  10.719   1.806
82867W        W55281   4.393  39.871  13.441
82868W        W55282  28.981  15.103   1.838
82869W        W55283  23.623  33.093  10.440
82870W        W55284  17.152  42.833  11.979
82871W        W55285  16.648   3.898   4.131
82872W        W55286   1.781  44.414  14.996
82873W        W55287   4.932  18.080   4.266
82874W        W55288  35.922   0.263   3.864
82875W        W55289   2.811  30.067   0.958
82876W        W55290  39.055   0.257  13.838
82877W        W55291  42.836  28.990  12.349
82878W        W55292  17.656  33.977   4.306
82879W        W55293  26.476  25.173  13.411
82880W        W55294  35.360   4.286   3.641
82881W        W55295  31.450  31.030  11.474
82882W        W55296   5.212  16.296   2.236
82883W        W55297  21.641  44.353  13.058
82884W        W55298   9.392  40.471   2.775
82885W        W55299  37.954  41.537   2.721
82886W        W55300   1.866  29.505   1.409
82887W        W55301  23.597   8.221   2.367
82888W        W55302   9.863  34.500   0.897
82889W        W55303  10.138  21.613   2.845
82890W        W55304  22.523  29.012  14.773
82891W        W55305  24.196  44.802   0.814
82892W        W55306  18.069   7.900   3.238
82893W        W55307  14.741   3.260   1.383
82894W        W55308   1.322  29.080   2.756
82895W        W55309   3.281  43.422  14.796
82896W        W55310  43.387  13.250   2.707
82897W        W55311   6.696  11.737  11.590
82898W        W55312   9.727   0.828  13.861
82899W        W55313  13.601  42.435   1.736
82900W        W55314   5.276  30.650  14.879
82901W        W55315  13.265  34.889   1.410
82902W        W55316  17.199  33.030  12.024
82903W        W55317  26.699  44.439  14.352
82904W        W55318  11.740  24.045  14.024
82905W        W55319  32.615  25.131  13.431
82906W        W55320   3.771  28.502  13.344
82907W        W55321  39.037  16.664   0.943
82908W        W55322  17.570  19.705  10.609
82909W        W55323   8.809  23.616  14.438
82910W        W55324  30.648   9.805   2.345
82911W        W55325  12.652  22.518  11.464
82912W        W55326  40.819  20.239   4.300
82913W        W55327  26.549  29.153   4.686
82914W        W55328  20.691   0.892   0.328
82915W        W55329  16.732  31.527   2.704
82916W        W55330  19.153  15.251  10.630
82917W        W55331   8.327  14.700  10.429
82918W        W55332  39.558  40.459   2.343
82919W        W55333  13.836   7.711  14.425
82920W        W55334  12.766  26.962   3.230
82921W        W55335  19.594  21.549  11.114
82922W        W55336  39.900  40.837   1.239
82923W        W55337  32.472   5.896   4.788
82924W        W55338  26.174   2.862  13.843
82925W        W55339  20.101  24.556   4.814
82926W        W55340  33.559   9.280   3.859
82927W        W55341  14.151  37.949   2.865
82928W        W55342  40.013   0.358  13.533
82929W        W55343  40.433  29.574  14.314
82930W        W55344   7.171   4.305  13.849
82931W        W55345  43.271   2.789   1.289
82932W        W55346   4.718   3.272  13.410
82933W        W55347  26.990  15.276  13.980
82934W        W55348  37.954   4.357   2.900
82935W        W55349  19.253  30.451   1.294
82936W        W55350   8.386  16.798  14.453
82937W        W55351  30.041  21.113  10.063
82938W        W55352  33.500  37.008   2.804
82939W        W55353   5.861  41.934  13.824
82940W        W55354  44.325  34.012   2.221
82941W        W55355  43.474  19.544  14.861
82942W        W55356  40.330   7.690  11.549
82943W        W55357  16.720  12.790   1.718
82944W        W55358  15.594  16.623   1.377
82945W        W55359  18.157  25.541   3.259
82946W        W55360  33.022  44.456  10.449
82947W        W55361  14.162  22.621   5.128
82948W        W55362  28.502  43.869  14.299
82949W        W55363  22.533  24.661  14.834
82950W        W55364   4.323  27.658   2.810
82951W        W55365  25.605  12.349  14.784
82952W        W55366  35.394  36.456   3.180
82953W        W55367  41.025  37.044   2.722
82954W        W55368   9.853  25.626   1.261
82955W        W55369  29.090   0.916   2.182
82956W        W55370  43.897  41.966  12.954
82957W        W55371  40.341   6.403  10.135
82958W        W55372   2.246  21.593  11.953
82959W        W55373  38.946  25.654   2.674
82960W        W55374  33.527  32.011  10.120
82961W        W55375   8.310   0.434   3.181
82962W        W55376  21.568  33.993  13.371
82963W        W55377  10.662  27.452   0.763
82964W        W55378   3.450  12.191   1.833
82965W        W55379  28.975  23.619   2.285
82966W        W55380  20.756   4.868  13.534
82967W        W55381  11.126  14.149   0.435
82968W        W55382  23.049   4.725   2.833
82969W        W55383  33.886  11.167   4.136
82970W        W55384  38.953  27.010   2.266
82971W        W55385  19.159  33.117  12.984
82972W        W55386  39.316  44.438  10.620
82973W        W55387  27.669   8.298  13.921
82974W        W55388  35.452   6.786  13.021
82975W        W55389  34.952  23.660  14.021
82976W        W55390  44.952  29.063   2.829
82977W        W55391  42.497   3.855   2.242
82978W        W55392  25.013  19.222  14.793
82979W        W55393  35.870   4.944  12.423
82980W        W55394  12.167   6.908  11.106
82981W        W55395   1.412  11.693  11.441
82982W        W55396  37.366  44.886  13.058
82983W        W55397  27.521   8.771  13.365
82984W        W55398  23.227  10.383  14.400
82985W        W55399  31.067  19.231   3.742
82986W        W55400  13.603  20.077   2.298
82987W        W55401  16.160   4.937   0.465
82988W        W55402  14.671  11.265   4.762
82989W        W55403  16.697  10.377   4.652
82990W        W55404  11.813   4.725   2.350
82991W        W55405  22.206  38.938   3.711
82992W        W55406   6.259  25.032  10.950
82993W        W55407   8.827  10.330   5.199
82994W        W55408  14.719   6.420   2.819
82995W        W55409  43.301   8.719   1.861
82996W        W55410  29.462  32.136  13.904
82997W        W55411  10.256  39.477   3.317
82998W        W55412  16.727  42.919   3.836
82999W        W55413  28.659  11.302  12.460
83000W        W55414   8.711   9.158  11.431
83001W        W55415   9.831  24.535   1.408
83002W        W55416  33.119  41.364  11.565
83003W        W55417  35.582  41.910  12.953
83004W        W55418  34.881  22.040  12.938
83005W        W55419  30.415  10.227   4.180
83006W        W55420  32.526  25.589  13.041
83007W        W55421  24.992  33.961  11.611
83008W        W55422  31.495  34.392   4.615
83009W        W55423   9.173  42.888  11.477
83010W        W55424   0.331  33.116  13.354
83011W        W55425  40.353  14.642   3.780
83012W        W55426  24.607  18.549   5.254
83013W        W55427   1.869  38.028  10.936
83014W        W55428  31.131  42.838  12.407
83015W        W55429   5.715  20.260  14.973
83016W        W55430  39.542  25.577  14.832
83017W        W55431   5.856  17.779   2.786
83018W        W55432   7.908  15.755   1.337
83019W        W55433   4.856   9.303   0.768
83020W        W55434  41.999  28.059   3.254
83021W        W55435  28.670  11.812  10.993
83022W        W55436   2.338   8.833  13.453
83023W        W55437  19.172  16.110   3.785
83024W        W55438  40.491  44.475  11.012
83025W        W55439  34.591  23.515   3.650
83026W        W55440  17.567  13.146   3.292
83027W        W55441   3.412  26.699  14.029
83028W        W55442  37.079   0.823  14.413
83029W        W55443  22.244  20.082  12.958
83030W        W55444  14.794  19.765  13.904
83031W        W55445  31.590  42.029   4.607
83032W        W55446  42.435  11.190   2.811
83033W        W55447  36.406  13.331   4.837
83034W        W55448  29.953   9.767  11.613
83035W        W55449  24.552  11.768   0.802
83036W        W55450   5.293   2.315   4.178
83037W        W55451  12.174  36.879   1.878
83038W        W55452  13.323   1.839   4.213
83039W        W55453  37.496  16.742   4.616
83040W        W55454  23.056  38.379   2.285
83041W        W55455  44.946  21.256  11.124
83042W        W55456  29.953  21.074  13.485
83043W        W55457  37.552  38.387  12.017
83044W        W55458  39.031  17.727  12.461
83045W        W55459  10.274  33.879   4.608
83046W        W55460  28.451  31.426   3.294
83047W        W55461  23.137  19.721  10.537
83048W        W55462  38.491  20.536   0.803
83049W        W55463   5.874  16.739  12.859
83050W        W55464  23.093  29.142   3.700
83051W        W55465  21.750  25.194   0.442
83052W        W55466   4.304  37.558   0.849
83053W        W55467   0.956   4.763   3.770
83054W        W55468  28.651  40.545   3.270
83055W        W55469  26.969  24.659   0.425
83056W        W55470   1.891  38.889   4.807
83057W        W55471  16.683  25.140  14.869
83058W        W55472   3.371  22.095   0.376
83059W        W55473  36.502  34.591  11.576
83060W        W55474  32.954   1.750   4.735
83061W        W55475  26.168  19.737  14.949
83062W        W55476   7.905  22.546  10.040
83063W        W55477  29.571  36.518   2.217
83064W        W55478  37.867   5.736  13.346
83065W        W55479  29.667  40.414  10.156
83066W        W55480  16.789  29.634   1.782
83067W        W55481  38.974  13.204  11.098
83068W        W55482   0.936  10.337  14.385
83069W        W55483   2.446  40.428   4.121
83070W        W55484   4.863  14.798  13.325
83071W        W55485  39.958  36.426   2.177
83072W        W55486  20.678  18.189   4.734
83073W        W55487  44.853  10.728   4.610
83074W        W55488  25.982   6.757   1.713
83075W        W55489  38.472  43.465   2.290
83076W        W55490  11.277  23.710   2.328
83077W        W55491  26.631  42.910   3.635
83078W        W55492  29.168  20.232   0.828
83079W        W55493  18.220  10.702  13.387
83080W        W55494  19.557  14.629   2.271
83081W        W55495  26.646  33.882   2.357
83082W        W55496   8.253  34.450  14.990
83083W        W55497  33.382   5.342   1.712
83084W        W55498  17.141  44.870   5.321
83085W        W55499   0.257  28.590  10.961
83086W        W55500  14.599  30.015   1.270
83087W        W55501  36.896  40.936   4.241
83088W        W55502   9.240   7.846   0.250
83089W        W55503  30.983   5.322   1.211
83090W        W55504  12.240  44.878  12.392
83091W        W55505  39.902   7.351   1.815
83092W        W55506  16.090  31.921   9.979
83093W        W55507  44.401   1.378  14.859
83094W        W55508  14.755  43.473   0.847
83095W        W55509  41.856  40.953   0.453
83096W        W55510  11.147  18.068  12.381
83097W        W55511  41.899   3.748   3.703
83098W        W55512   2.433  22.553   4.344
83099W        W55513   3.239  30.961   4.804
83100W        W55514   2.877  24.052   1.701
83101W        W55515  38.942  32.428   4.734
83102W        W55516  39.813   9.886   0.848
83103W        W55517   6.215  20.633   3.248
83104W        W55518  30.016  19.647  13.475
83105W        W55519  42.391   1.371   0.749
83106W        W55520  39.057   7.373   0.958
83107W        W55521  32.559  14.649   3.802
83108W        W55522  11.144  31.567   4.814
83109W        W55523  35.568  31.500  14.309
83110W        W55524  24.032  27.006   1.772
83111W        W55525  30.032  31.448  10.597
83112W        W55526  14.715  32.047   2.718
83113W        W55527  34.386  43.499   0.395
83114W        W55528  26.973  32.013   1.796
83115W        W55529  42.462  35.979  12.513
83116W        W55530  26.129  28.073  13.943
83117W        W55531  17.225  40.870   3.150
83118W        W55532  18.629  38.349  12.534
83119W        W55533  38.999   9.866  12.015
83120W        W55534   0.767  41.871  10.536
83121W        W55535   8.849   1.791   1.788
83122W        W55536  20.750  36.930   2.204
83123W        W55537   4.795  43.841   1.410
83124W        W55538  19.718  15.132  11.530
83125W        W55539  21.052   9.675   1.260
83126W        W55540  32.117  23.692   1.754
83127W        W55541  10.324  22.602  12.520
83128W        W55542  15.154   4.310   4.147
83129W        W55543   3.814  24.146   0.957
83130W        W55544  18.280  18.182   2.398
83131W        W55545  23.131   4.833   3.829
83132W        W55546  23.205  22.185  10.499
83133W        W55547  39.890  33.509  14.823
83134W        W55548  21.088  21.074   0.780
83135W        W55549  28.141   8.683  10.069
83136W        W55550  17.719  36.901  10.527
83137W        W55551  19.595  14.804  14.458
83138W        W55552  30.964  20.216   3.207
83139W        W55553  25.179  12.343   3.345
83140W        W55554  12.342  28.960  13.387
83141W        W55555  16.779  43.338   2.782
83142W        W55556  13.312  39.971   4.213
83143W        W55557  13.730  13.206  12.915
83144W        W55558  22.562  41.801   2.760
83145W        W55559  29.011  37.549   0.398
83146W        W55560   1.437  35.861  14.764
83147W        W55561  35.560  34.543  10.425
83148W        W55562  21.192  38.856   2.341
83149W        W55563   3.906  17.768  11.112
83150W        W55564  33.567  22.061  12.559
83151W        W55565  30.922  23.542   3.702
83152W        W55566  43.511  40.970  13.422
83153W        W55567  30.099   9.378  11.084
83154W        W55568  21.170  30.598   1.410
83155W        W55569  14.314  20.047   3.369
83156W        W55570  16.678  36.348   0.898
83157W        W55571  33.003   5.294  14.487
83158W        W55572  35.074   3.743  14.883
83159W        W55573  35.083   7.755  13.317
83160W        W55574  26.527  40.379  11.466
83161W        W55575   3.366   7.373  13.820
83162W        W55576   9.158  27.510  12.849
83163W        W55577  17.789  27.485  11.603
83164W        W55578  32.018  31.023   4.167
83165W        W55579  17.589  34.394  10.579
83166W        W55580  27.169  22.630   4.638
83167W        W55581   3.800  19.241  13.972
83168W        W55582  34.898  15.205  12.361
83169W        W55583  16.807   9.246  10.933
83170W        W55584  35.967  13.127   0.769
83171W        W55585  43.450  23.015   3.769
83172W        W55586  30.006   1.381  13.398
83173W        W55587   0.265  20.615  12.395
83174W        W55588  20.152  28.621   2.278
83175W        W55589  27.964  36.040  13.925
83176W        W55590   3.925  13.312   1.832
83177W        W55591  26.050   3.340  13.389
83178W        W55592  16.234  39.524   4.271
83179W        W55593  28.498  29.992   1.751
83180W        W55594  25.005   0.489  10.108
83181W        W55595  14.729  28.670   4.270
83182W        W55596  32.538  41.528  12.948
83183W        W55597  32.966  42.872  11.555
83184W        W55598  16.750   7.677  13.963
83185W        W55599  17.577  42.903   0.863
83186W        W55600  18.750  34.864   5.093
83187W        W55601   2.228  41.970   4.748
83188W        W55602  37.463  43.439   0.350
83189W        W55603  21.647   6.202   3.806
83190W        W55604   7.295  42.488   3.671
83191W        W55605  38.913  16.170  11.105
83192W        W55606   6.374  21.551   4.237
83193W        W55607  31.010  16.195   2.763
83194W        W55608  26.650  23.720  13.793
83195W        W55609  24.710  31.507  11.888
83196W        W55610  13.156  16.136   1.885
83197W        W55611  10.747  26.167  14.812
83198W        W55612   2.453  43.395  10.627
83199W        W55613   8.823  14.709   2.698
83200W        W55614   6.795  39.925  11.027
83201W        W55615   5.276  16.308   0.881
83202W        W55616  35.933   5.720   1.708
83203W        W55617  20.576  34.085  14.869
83204W        W55618  23.221  35.947   1.355
83205W        W55619  40.049  18.727   2.793
83206W        W55620  33.467  29.599  11.456
83207W        W55621  28.118  27.036   4.183
83208W        W55622  41.981  12.196   2.218
83209W        W55623   6.747   8.821  10.934
83210W        W55624  41.877  43.794  13.813
83211W        W55625  34.057  40.509  11.581
83212W        W55626  32.113   7.279   2.756
83213W        W55627  31.438  35.582  10.484
83214W        W55628  31.424  19.552   0.278
83215W        W55629  22.115   6.889   1.283
83216W        W55630  41.478  41.040  11.490
83217W        W55631  18.749  44.878   1.240
83218W        W55632  36.407  20.082   1.248
83219W        W55633  18.728  44.479   3.213
83220W        W55634   5.851  36.959   3.222
83221W        W55635  33.069   0.482  13.511
83222W        W55636  34.876  28.478   0.418
83223W        W55637  28.604   1.881  11.531
83224W        W55638  41.387  42.925  14.962
83225W        W55639  41.409  17.723   2.884
83226W        W55640  26.010  34.901   4.613
83227W        W55641  32.473  39.961  12.431
83228W        W55642  44.393  20.600  13.804
83229W        W55643  27.955  18.131   1.758
83230W        W55644   9.324  43.507   3.853
83231W        W55645   6.308  15.189   2.282
83232W        W55646   6.855   8.755  12.392
83233W        W55647  38.458  35.070  14.015
83234W        W55648  29.658   0.776   3.738
83235W        W55649  31.452  22.678   0.469
83236W        W55650  14.834   4.710  10.151
83237W        W55651   5.817   6.406  14.410
83238W        W55652  22.506  11.344   0.841
83239W        W55653  36.572  41.373   0.756
83240W        W55654  27.183  33.037  12.914
83241W        W55655   7.378  41.394   0.280
83242W        W55656  42.779  38.420  12.577
83243W        W55657  36.950  32.130   4.816
83244W        W55658  12.199  41.936  14.905
83245W        W55659  18.745   9.335  11.922
83246W        W55660   3.850   7.336  10.444
83247W        W55661  16.767  19.085  10.915
83248W        W55662  38.938  41.002  11.993
83249W        W55663   2.289  22.611  12.990
83250W        W55664  39.833  14.800  14.342
83251W        W55665  44.357  22.672   4.708
83252W        W55666   9.180  40.353   1.697
83253W        W55667   1.463  15.715   3.779
83254W        W55668  40.333  42.029  11.572
83255W        W55669  24.034  28.502  11.384
83256W        W55670  12.829   2.901  10.926
83257W        W55671  37.957  26.993  14.855
83258W        W55672  37.522  26.661  13.494
83259W        W55673   4.421  12.306  14.844
83260W        W55674  26.128   7.219  12.871
83261W        W55675  12.766   4.840  10.116
83262W        W55676   3.897  14.797   2.887
83263W        W55677  35.867  43.807  11.491
83264W        W55678  26.472   5.896   0.963
83265W        W55679  33.618  24.134   2.736
83266W        W55680  10.643  15.780  10.952
83267W        W55681  19.598  30.413   1.826
83268W        W55682  27.636  35.094   4.317
83269W        W55683  25.646   2.789   4.156
83270W        W55684  37.836  32.967  10.480
83271W        W55685   0.461  22.147   4.787
83272W        W55686  44.428  13.332  14.301
83273W        W55687   2.261  14.292   1.230
83274W        W55688  36.432  35.970  10.913
83275W        W55689   4.817  39.447  10.466
83276W        W55690   5.385  26.491  14.364
83277W        W55691   7.825  40.912  10.455
83278W        W55692  21.749  19.775  12.418
83279W        W55693  18.678  41.849   2.895
83280W        W55694   0.936  30.942   0.954
83281W        W55695  38.075   1.952   3.329
83282W        W55696   4.770  33.568   3.791
83283W        W55697  15.109  13.657  11.075
83284W        W55698  40.047  12.706   2.843
83285W        W55699  23.117  39.471   2.756
83286W        W55700  14.807   5.930  11.861
83287W        W55701  33.912  25.971   0.840
83288W        W55702  26.976  24.053  12.975
83289W        W55703  44.446  23.991  12.429
83290W        W55704  18.240  18.583   0.957
83291W        W55705  31.574  39.435  14.828
83292W        W55706  24.549  12.671  12.564
83293W        W55707   8.860  21.620  11.500
83294W        W55708  14.654   6.235   5.317
83295W        W55709   0.800  20.708   4.718
83296W        W55710  40.054  27.073   0.395
83297W        W55711   9.276   0.794  11.937
83298W        W55712   4.343  27.113   2.787
83299W        W55713  30.088  23.994   3.822
83300W        W55714   2.828  27.545  14.012
83301W        W55715  25.624  22.517   0.475
83302W        W55716  32.509   6.425  14.922
83303W        W55717  23.643  10.265   1.338
83304W        W55718  27.992  12.620   2.664
83305W        W55719   1.851  16.650   4.736
83306W        W55720  33.620  43.779   4.796
83307W        W55721  34.554  32.483   3.859
83308W        W55722  10.226  33.069  13.019
83309W        W55723  16.753  25.994  11.449
83310W        W55724  33.506   7.260  10.081
83311W        W55725   3.379  20.603   0.931
83312W        W55726  29.040  38.426  11.915
83313W        W55727  42.978   1.922  13.800
83314W        W55728  14.163  42.515   4.598
83315W        W55729  10.707  29.962  13.523
83316W        W55730  10.163  20.096  13.399
83317W        W55731  24.111  27.091  13.012
83318W        W55732  33.021   0.965   3.189
83319W        W55733  33.000  15.238  10.527
83320W        W55734  35.535  26.106   0.423
83321W        W55735  32.560  25.988  13.508
83322W        W55736  41.400  40.927   0.808
83323W        W55737   5.421  32.003  10.531
83324W        W55738  33.500   9.208   0.942
83325W        W55739  15.107  33.421  14.805
83326W        W55740  31.049  11.324   3.848
83327W        W55741  20.553  16.610   0.465
83328W        W55742  25.484  27.071   4.132
83329W        W55743  21.121   9.256   1.701
83330W        W55744   7.330  36.061  14.839
83331W        W55745  37.924  18.134   4.208
83332W        W55746  11.239  37.051   3.281
83333W        W55747   5.840  42.319  12.931
83334W        W55748  39.031  24.681  10.148
83335W        W55749   7.323  15.793  13.000
83336W        W55750  22.741  18.098  10.554
83337W        W55751  18.128  24.211  14.794
83338W        W55752   8.188  20.239  11.856
83339W        W55753   0.471  14.817   3.309
83340W        W55754  34.897  40.988  14.807
83341W        W55755  19.642  33.081   2.201
83342W        W55756  31.063  37.899   4.748
83343W        W55757  22.245  44.909  10.483
83344W        W55758  31.463   0.325   4.239
83345W        W55759  23.615  30.973   2.269
83346W        W55760   2.453  31.554  14.814
83347W        W55761  17.587  26.200   1.427
83348W        W55762   1.961  42.031  13.843
83349W        W55763  30.490  26.991   4.116
83350W        W55764   6.203  18.546   3.757
83351W        W55765  25.504  43.382   2.289
83352W        W55766  39.843  13.328   1.801
83353W        W55767  31.933   7.830  14.922
83354W        W55768   1.866   5.849  13.316
83355W        W55769   6.359  35.461  14.304
83356W        W55770   5.742   1.733  13.519
83357W        W55771  41.801   9.667   3.773
83358W        W55772  17.569  34.946  13.493
83359W        W55773  26.124   1.803  10.585
83360W        W55774  38.889  11.655  12.471
83361W        W55775   9.708  44.969  10.507
83362W        W55776   5.703  19.225   1.873
83363W        W55777  21.615  34.484   2.862
83364W        W55778   4.937  19.674   4.781
83365W        W55779  18.103   8.240  13.926
83366W        W55780  28.064  39.350  11.398
83367W        W55781  15.581   2.852   0.333
83368W        W55782   0.898   6.851   0.957
83369W        W55783   4.857  35.488   0.748
83370W        W55784  24.544  43.275  13.869
83371W        W55785  39.314  39.896  11.874
83372W        W55786  43.896  33.056   0.742
83373W        W55787  38.463  22.678   4.644
83374W        W55788   3.885  33.620   4.718
83375W        W55789  18.086  33.000  14.935
83376W        W55790   1.356  14.279   2.690
83377W        W55791  32.525  44.347  12.920
83378W        W55792  37.833  27.571   2.323
83379W        W55793  33.010  29.608  12.933
83380W        W55794  15.189  19.636   3.281
83381W        W55795  26.071   7.308   4.632
83382W        W55796   0.283   9.385  12.449
83383W        W55797   6.789  12.326  14.475
83384W        W55798   8.858  37.517  10.508
83385W        W55799   4.836  35.604  11.037
83386W        W55800   6.790  43.354  13.524
83387W        W55801   0.386  21.051   3.317
83388W        W55802  12.203  43.907   4.833
83389W        W55803  39.855   9.359  11.108
83390W        W55804  31.422   5.435   0.785
83391W        W55805  25.107  34.421  12.888
83392W        W55806  36.967  17.690  11.973
83393W        W55807  19.560  43.500  14.373
83394W        W55808  20.564  10.350   3.726
83395W        W55809  20.112  37.439  12.372
83396W        W55810  31.965  40.446  14.772
83397W        W55811  29.006   1.734   1.875
83398W        W55812  25.974  29.050   1.893
83399W        W55813  17.663  31.005   2.674
83400W        W55814  41.537  37.522   0.931
83401W        W55815   3.874  29.517   2.190
83402W        W55816  38.394  22.206  14.890
83403W        W55817  43.968  25.066   4.617
83404W        W55818  15.185  23.681   2.373
83405W        W55819  11.851   7.877   0.366
83406W        W55820  12.252   8.879   4.635
83407W        W55821  33.937  37.430   3.379
83408W        W55822  20.724  39.817  11.071
83409W        W55823  23.032  11.225   4.668
83410W        W55824  30.150   9.328  14.999
83411W        W55825  23.517  44.289   1.431
83412W        W55826  24.506  24.026   0.244
83413W        W55827  22.591  26.678   4.605
83414W        W55828  30.586  23.190  12.066
83415W        W55829  13.315  28.435   1.787
83416W        W55830   2.801   8.354   0.475
83417W        W55831  19.088  40.931  13.955
83418W        W55832   4.309   8.216   1.331
83419W        W55833   7.833  20.558   0.890
83420W        W55834  12.713  13.150   4.125
83421W        W55835  27.969  33.606  14.921
83422W        W55836  42.506  13.675  10.896
83423W        W55837  13.800  40.362   1.333
83424W        W55838  26.167  31.071   3.329
83425W        W55839   5.313  41.923   0.811
83426W        W55840  30.075  14.657  13.858
83427W        W55841  13.815  20.213  13.335
83428W        W55842  24.547  35.951   1.392
83429W        W55843  23.733  39.979  13.901
83430W        W55844  36.528  38.976   4.758
83431W        W55845  17.759  32.004  14.889
83432W        W55846   0.912  23.157   0.266
83433W        W55847  40.042  44.350  10.488
83434W        W55848  10.763  41.510  11.502
83435W        W55849   9.651   9.199   4.134
83436W        W55850  41.357  39.425  13.535
83437W        W55851  13.745   4.856   0.803
83438W        W55852  23.105  35.924   1.869
83439W        W55853  23.207  38.004   3.666
83440W        W55854  21.115  11.195   3.691
83441W        W55855  39.894   5.326  13.346
83442W        W55856  26.668   4.249  10.448
83443W        W55857  15.801  17.193   5.192
83444W        W55858   7.787  23.174  12.912
83445W        W55859   0.789   8.389   3.754
83446W        W55860  33.976   3.461  11.475
83447W        W55861  25.624   4.876   1.849
83448W        W55862   7.835  37.061  13.903
83449W        W55863  14.207  30.036  14.904
83450W        W55864  33.465  43.479   2.390
83451W        W55865  37.051  10.221  12.045
83452W        W55866  44.500   1.461  13.521
83453W        W55867  38.442   5.827   4.687
83454W        W55868  22.017   2.397   2.672
83455W        W55869  38.967  43.838  14.012
83456W        W55870  29.953  31.646   3.353
83457W        W55871  13.321  30.450  13.332
83458W        W55872  28.057  32.451   1.853
83459W        W55873   4.236  40.921   1.731
83460W        W55874  25.490   6.394   3.859
83461W        W55875  17.644  39.038   2.346
83462W        W55876  30.436  24.609  13.308
83463W        W55877  23.723  16.162  11.557
83464W        W55878  27.504  40.469  13.406
83465W        W55879  11.162  32.489  10.943
83466W        W55880  35.950  30.599  14.850
83467W        W55881   4.405  35.454  11.527
83468W        W55882  37.910  12.303   0.376
83469W        W55883  19.119   1.359  12.983
83470W        W55884  22.740  38.016   0.364
83471W        W55885   7.284  14.753   4.728
83472W        W55886  34.487  11.738  10.941
83473W        W55887  38.501  37.564   4.133
83474W        W55888  23.212  43.777   4.307
83475W        W55889  27.016  36.422   3.830
83476W        W55890  28.512  37.899   2.259
83477W        W55891   7.378  21.531  11.409
83478W        W55892  20.075  37.348  11.539
83479W        W55893  39.492  14.121   4.249
83480W        W55894   6.262  23.032  11.061
83481W        W55895  11.746  13.647   2.729
83482W        W55896   3.723   2.334  14.449
83483W        W55897  14.617  31.939   1.418
83484W        W55898  28.011  30.129  11.969
83485W        W55899   3.444  33.035  11.857
83486W        W55900  30.601  35.383  14.797
83487W        W55901  13.755  31.611  13.999
83488W        W55902  27.562  29.047  14.976
83489W        W55903  11.770  10.374  10.111
83490W        W55904  19.753   6.696   4.355
83491W        W55905  17.646  26.619   3.179
83492W        W55906  20.603  40.354   0.966
83493W        W55907  15.173  29.150  12.372
83494W        W55908  41.507  14.282  14.884
83495W        W55909  31.997  25.216   1.818
83496W        W55910  20.742  14.698   3.256
83497W        W55911  11.710  23.568   2.306
83498W        W55912  30.938  28.495   4.308
83499W        W55913  34.605  32.111   2.380
83500W        W55914  23.559   4.791   0.444
83501W        W55915  21.173  12.257  12.356
83502W        W55916  24.657  33.933   2.368
83503W        W55917   0.986  15.763  14.470
83504W        W55918   7.756  26.201  13.482
83505W        W55919  10.866  11.236   3.859
83506W        W55920  33.504  39.466  12.488
83507W        W55921   8.259  23.081   1.265
83508W        W55922  26.092  33.913   1.817
83509W        W55923  26.667  44.883   1.709
83510W        W55924   5.334   3.828   3.224
83511W        W55925  11.272   5.838  10.444
83512W        W55926  23.605  32.428  13.374
83513W        W55927   9.658  44.905   0.436
83514W        W55928  34.108  23.507   5.638
83515W        W55929  10.875  10.139   4.833
83516W        W55930  36.049   5.253   0.370
83517W        W55931  41.296   2.457   0.361
83518W        W55932  16.589  17.603   5.587
83519W        W55933  40.320  37.380  12.898
83520W        W55934  18.595  19.719   3.227
83521W        W55935   2.881  12.791  14.832
83522W        W55936  44.883  16.789   0.743
83523W        W55937  43.817   3.759   2.719
83524W        W55938  39.948  35.566  10.986
83525W        W55939  42.509  39.356   2.801
83526W        W55940  17.788  38.865  12.456
83527W        W55941   1.427   2.884   3.310
83528W        W55942  10.707  34.415  13.901
83529W        W55943  22.225  39.481   0.880
83530W        W55944  36.370  37.568  12.037
83531W        W55945  40.054  36.420  10.913
83532W        W55946  41.997  27.191  12.092
83533W        W55947   7.379  21.654  12.928
83534W        W55948  42.381   1.874   4.694
83535W        W55949   6.222   0.928   4.226
83536W        W55950  42.362  27.972  13.547
83537W        W55951  34.018  24.665   3.151
83538W        W55952  44.944  38.948   2.668
83539W        W55953  17.558   0.450   3.162
83540W        W55954  31.454   4.371  13.405
83541W        W55955  37.351   0.756  11.868
83542W        W55956  15.612   0.901   5.098
83543W        W55957  37.440   3.402  14.759
83544W        W55958  22.215  39.409   3.648
83545W        W55959  33.446  20.727   4.612
83546W        W55960  36.424  17.200  12.473
83547W        W55961  21.100   5.769   2.836
83548W        W55962  12.162  25.515  13.796
83549W        W55963  33.035  43.794  11.990
83550W        W55964  35.453  42.994  10.515
83551W        W55965  21.695  10.272   3.173
83552W        W55966  23.236   4.913  12.062
83553W        W55967   4.447  26.472  11.953
83554W        W55968  39.994  37.975  14.450
83555W        W55969   6.913  43.015   2.408
83556W        W55970  18.568  33.606   3.341
83557W        W55971   2.801  30.972  13.889
83558W        W55972  15.774  37.566   2.383
83559W        W55973   8.226  26.081   0.892
83560W        W55974   9.838  10.848   4.785
83561W        W55975   6.738  23.611   2.343
83562W        W55976   4.903  26.035   9.534
83563W        W55977  26.508  24.138  14.960
83564W        W55978  11.656  41.016   4.631
83565W        W55979  33.128   8.673  13.937
83566W        W55980  16.087   4.882   0.797
83567W        W55981  34.943  11.793   2.323
83568W        W55982  44.416  33.109   0.294
83569W        W55983  43.406  19.719  10.614
83570W        W55984  31.406  36.418   4.623
83571W        W55985  32.890   7.844   2.709
83572W        W55986  13.725  23.201   4.212
83573W        W55987  20.245  40.444   3.152
83574W        W55988   3.342  44.300  13.003
83575W        W55989  44.755  39.056   2.244
83576W        W55990   8.375  43.315  13.480
83577W        W55991  40.810  41.912  13.018
83578W        W55992  19.619  40.876  14.979
83579W        W55993  26.095  38.066   1.716
83580W        W55994  36.897  38.844   0.948
83581W        W55995  27.636   6.916  13.022
83582W        W55996  39.999  20.728   3.680
83583W        W55997   9.866  36.587   4.333
83584W        W55998   4.869  12.754  12.902
83585W        W55999  33.553   9.386   1.864
83586W        W56000  27.946  30.979  12.571
83587W        W56001  16.806   0.953  10.545
83588W        W56002  34.882  40.930   0.926
83589W        W56003   9.672  15.674  11.516
83590W        W56004  15.774  12.149   4.241
83591W        W56005  23.490  38.067  11.397
83592W        W56006   2.844   4.867  14.768
83593W        W56007  21.113  25.689   0.967
83594W        W56008  24.210  43.782  10.435
83595W        W56009   3.774   3.779  13.935
83596W        W56010  39.415  35.106  10.953
83597W        W56011  18.227  44.354   1.756
83598W        W56012  21.080  22.666   3.683
83599W        W56013  29.020  29.642  14.972
83600W        W56014   5.253  16.149  12.500
83601W        W56015  19.201  31.071  14.781
83602W        W56016  28.067  15.713   3.270
83603W        W56017   3.378   3.285  12.555
83604W        W56018  13.768  32.935   1.361
83605W        W56019  31.634  28.179  11.115
83606W        W56020   4.294  42.475  13.862
83607W        W56021  13.106   4.753   1.251
83608W        W56022  31.994  15.244   3.748
83609W        W56023  26.065   4.337   2.803
83610W        W56024  39.847  27.962  13.381
83611W        W56025   6.246  16.673   1.721
83612W        W56026  27.011  24.098   0.261
83613W        W56027  44.936   7.390   1.849
83614W        W56028   8.891  25.531  10.928
83615W        W56029  29.444  29.539  11.957
83616W        W56030  13.273  21.083   9.941
83617W        W56031  35.906  24.228   5.244
83618W        W56032  14.144  36.025   4.325
83619W        W56033  20.116  22.032   1.304
83620W        W56034  12.628   1.474   2.299
83621W        W56035   4.923  25.603   3.337
83622W        W56036  24.555   2.346   3.726
83623W        W56037   2.418  22.676   1.329
83624W        W56038   8.697  24.696   1.773
83625W        W56039  37.990  23.171  10.908
83626W        W56040  42.893  43.496   3.341
83627W        W56041  27.651  33.120  10.567
83628W        W56042  28.557  18.183  11.127
83629W        W56043  40.055  31.924  13.025
83630W        W56044  38.014   0.942   0.788
83631W        W56045  21.526  11.303   0.448
83632W        W56046  37.054   6.755  13.860
83633W        W56047  35.018  10.228  14.454
83634W        W56048  33.575  42.009   3.344
83635W        W56049  33.517  13.258   0.805
83636W        W56050   9.865  40.924  13.029
83637W        W56051  19.234   3.783   3.794
83638W        W56052   3.310   4.248  13.016
83639W        W56053   1.366  39.857   0.408
83640W        W56054  37.532  41.858   0.348
83641W        W56055  37.831  31.638  14.873
83642W        W56056  21.248   9.213   2.283
83643W        W56057  27.666  26.102  12.826
83644W        W56058  36.580  19.251  12.374
83645W        W56059  34.382  38.489   2.410
83646W        W56060  32.091   6.821   4.775
83647W        W56061  40.878  20.043   4.834
83648W        W56062  28.656   5.394  12.935
83649W        W56063   7.872  41.395   4.337
83650W        W56064  25.602  24.536   2.878
83651W        W56065  43.483  36.472  10.633
83652W        W56066  16.638  32.084   1.316
83653W        W56067  20.072   2.933   2.363
83654W        W56068   2.740  40.385   1.424
83655W        W56069  41.853  11.334  13.816
83656W        W56070  26.996  29.484  11.430
83657W        W56071  15.675  20.654  11.440
83658W        W56072   8.219   6.312   4.639
83659W        W56073   5.309  24.602  13.324
83660W        W56074   6.379  38.488  14.293
83661W        W56075  27.564  32.498   1.399
83662W        W56076  33.990  15.698  11.488
83663W        W56077  12.787   2.775   1.775
83664W        W56078  33.982   6.240   4.323
83665W        W56079  42.863  29.543   3.762
83666W        W56080  44.863   8.211  11.047
83667W        W56081  15.672  13.774   2.867
83668W        W56082  16.168  44.316   4.350
83669W        W56083  19.057  26.565  14.009
83670W        W56084  41.394  30.055   4.799
83671W        W56085  17.670  28.462  11.608
83672W        W56086  29.017   4.702  10.408
83673W        W56087  21.552   1.274   2.768
83674W        W56088   3.791  43.484   1.311
83675W        W56089  19.757  30.429   2.284
83676W        W56090  22.222  24.119   3.762
83677W        W56091  23.186  38.341  14.474
83678W        W56092  37.997  25.115   4.809
83679W        W56093  19.119  38.539  13.543
83680W        W56094   7.221  37.580   2.229
83681W        W56095  43.476  44.393  13.374
83682W        W56096  30.564  30.150   2.830
83683W        W56097  19.746  30.028  11.546
83684W        W56098  42.821  36.447  11.929
83685W        W56099  12.809   2.351  10.640
83686W        W56100  33.512  44.772   1.901
83687W        W56101   0.292   9.867   4.837
83688W        W56102  10.715  18.712   2.411
83689W        W56103  26.115   0.276  13.862
83690W        W56104  28.449  13.668   3.331
83691W        W56105   1.976  17.778   3.357
83692W        W56106  26.101   4.708  12.071
83693W        W56107   1.363  13.626  14.960
83694W        W56108  33.525  12.647  10.139
83695W        W56109   4.858   9.240  12.367
83696W        W56110  10.830  22.617   0.779
83697W        W56111   5.875  19.094   4.768
83698W        W56112  21.230  25.052  12.398
83699W        W56113  36.514   4.290  11.496
83700W        W56114  32.460  44.383  13.508
83701W        W56115   7.903  23.722  12.902
83702W        W56116  28.020  17.125  12.390
83703W        W56117   7.392  18.259  12.056
83704W        W56118  39.396  25.051  12.557
83705W        W56119  33.905   5.879   2.789
83706W        W56120  26.183  23.649  13.357
83707W        W56121  29.111   8.333   4.226
83708W        W56122  20.749  34.973  12.069
83709W        W56123  27.668  24.484  12.504
83710W        W56124  42.392  32.940  13.036
83711W        W56125  38.980  13.842   2.873
83712W        W56126  22.120  40.986   1.918
83713W        W56127  25.183  24.013   1.918
83714W        W56128  27.994  26.180  10.567
83715W        W56129  17.558  17.623   0.243
83716W        W56130  22.245  18.714   2.855
83717W        W56131   8.381   3.400  11.925
83718W        W56132   9.778  18.547   1.219
83719W        W56133  44.422   1.398   2.253
83720W        W56134  11.854   2.429  11.581
83721W        W56135  44.967  16.608   3.833
83722W        W56136  18.759   7.889   0.801
83723W        W56137   0.254  39.907   1.932
83724W        W56138  39.501  16.768   4.705
83725W        W56139  29.011   3.403  14.008
83726W        W56140  11.637   2.377   4.743
83727W        W56141   9.221  36.591   1.767
83728W        W56142  39.536   0.925   1.833
83729W        W56143  31.504  34.612   0.842
83730W        W56144  26.053  28.613   2.311
83731W        W56145   6.193  10.659  11.987
83732W        W56146   2.259  42.349  12.434
83733W        W56147  27.149  44.364   1.901
83734W        W56148  20.149  43.351   3.180
83735W        W56149  20.091   0.337  12.897
83736W        W56150  16.606   9.389   0.822
83737W        W56151  34.589  22.177  14.860
83738W        W56152  34.484  40.816   2.801
83739W        W56153  37.902  17.158  10.991
83740W        W56154  34.425  43.999  14.365
83741W        W56155  11.301  10.303   3.794
83742W        W56156  41.360   5.269  14.432
83743W        W56157  41.035  11.749  14.449
83744W        W56158   1.943  43.958   4.270
83745W        W56159  18.184  29.643   4.641
83746W        W56160  38.564  18.781  11.403
83747W        W56161  28.581  13.108   1.883
83748W        W56162  27.149  36.968   0.834
83749W        W56163  42.806  27.187   2.179
83750W        W56164  12.694  18.130  13.406
83751W        W56165  31.525   3.909   4.706
83752W        W56166  35.384  22.122  13.915
83753W        W56167  43.999  25.029  13.001
83754W        W56168  38.521  30.596  13.511
83755W        W56169  21.102  18.654  10.903
83756W        W56170  36.086  32.564   1.774
83757W        W56171   0.875  24.048   4.302
83758W        W56172  13.662   2.956   3.382
83759W        W56173  31.514  29.062  12.050
83760W        W56174  30.095  42.922  13.350
83761W        W56175  12.817  28.532   4.254
83762W        W56176   3.743   8.839   5.300
83763W        W56177  15.238   8.769  14.794
83764W        W56178  19.231  31.042   2.243
83765W        W56179  22.162  28.945  11.401
83766W        W56180   3.795  25.165  10.143
83767W        W56181  16.628  16.666  14.318
83768W        W56182  13.198   7.334  11.380
83769W        W56183  25.675  22.611  13.359
83770W        W56184  37.912  14.726   3.741
83771W        W56185   6.688  12.342   2.234
83772W        W56186  41.323  24.106   0.793
83773W        W56187  22.023  28.464  14.955
83774W        W56188  11.297  17.580   1.338
83775W        W56189   2.427  18.063  10.578
83776W        W56190  25.661  22.561   1.378
83777W        W56191  12.788   6.396   4.767
83778W        W56192  33.446  10.142  12.436
83779W        W56193  36.878   5.352  10.620
83780W        W56194  27.493  20.616  12.456
83781W        W56195   9.678   3.723   0.476
83782W        W56196  19.753  30.490  13.968
83783W        W56197  14.244  10.259  14.843
83784W        W56198  14.257  28.018  11.461
83785W        W56199  20.757  44.782  12.019
83786W        W56200   8.247  39.846   4.230
83787W        W56201   0.871  31.003   3.176
83788W        W56202  11.304  16.242  11.481
83789W        W56203   1.880  10.339  13.535
83790W        W56204  11.860  43.837   0.441
83791W        W56205  32.628  16.653   2.220
83792W        W56206   6.370  28.477  14.444
83793W        W56207   7.795   5.763   0.351
83794W        W56208  42.956  37.032  10.976
83795W        W56209  10.639  24.162  12.885
83796W        W56210  29.133  37.504  10.997
83797W        W56211   9.737  20.058  10.931
83798W        W56212  32.558   7.172   1.309
83799W        W56213  10.245  30.447   3.676
83800W        W56214  30.056   1.392  14.399
83801W        W56215  38.856   9.166   1.450
83802W        W56216  42.793  44.809   0.894
83803W        W56217  36.440   2.785  13.885
83804W        W56218   6.225   0.329   0.769
83805W        W56219  12.644  10.718   0.947
83806W        W56220  24.571   8.229   3.741
83807W        W56221  18.248   1.820   0.340
83808W        W56222   4.859  18.585  12.064
83809W        W56223  24.186  29.442  11.465
83810W        W56224  28.639  39.360   4.187
83811W        W56225  23.005   8.824   5.235
83812W        W56226  24.157  21.200   4.701
83813W        W56227  38.926  33.438   3.359
83814W        W56228  21.255  38.885   4.804
83815W        W56229  26.184  43.007  12.008
83816W        W56230  18.145   8.792   1.238
83817W        W56231  24.030  40.049  14.324
83818W        W56232  32.913  31.576  14.324
83819W        W56233   3.280   6.260  12.471
83820W        W56234  33.080  32.395   3.228
83821W        W56235  37.944  29.553  14.406
83822W        W56236  42.506  23.992  13.309
83823W        W56237  20.747  31.466  11.006
83824W        W56238  36.433   2.247  10.516
83825W        W56239  33.895  40.040  10.901
83826W        W56240  42.956   5.302  14.279
83827W        W56241  16.686   4.428  11.954
83828W        W56242  26.509   9.160  10.519
83829W        W56243   7.282   0.268   2.352
83830W        W56244  23.025  34.889  12.408
83831W        W56245  16.192  22.654   0.899
83832W        W56246  13.812  37.381  12.039
83833W        W56247  44.768  16.125  12.434
83834W        W56248  34.995  28.123   9.994
83835W        W56249   9.771   2.335   2.218
83836W        W56250   6.749  21.263   1.907
83837W        W56251  41.446   6.848  12.044
83838W        W56252  32.438  19.240  11.559
83839W        W56253  38.527  31.643   2.333
83840W        W56254   1.874  32.425   1.791
83841W        W56255  23.736  29.546  10.468
83842W        W56256  32.448  20.084  10.513
83843W        W56257  21.679   6.204   1.839
83844W        W56258  41.360  23.027  13.990
83845W        W56259  16.577   3.840  11.520
83846W        W56260  33.943  21.055  13.902
83847W        W56261   6.399  24.609  10.619
83848W        W56262  12.669  27.084  14.439
83849W        W56263  32.621  30.464  12.885
83850W        W56264  41.917  33.102  14.805
83851W        W56265  30.975  13.126   3.313
83852W        W56266   1.453  39.941   3.310
83853W        W56267   8.674   0.861   4.672
83854W        W56268   6.263   3.426  10.957
83855W        W56269   9.267   1.274   3.690
83856W        W56270  42.833  43.840   2.209
83857W        W56271  26.019   5.919   3.185
83858W        W56272  34.464  39.808  12.975
83859W        W56273  29.128  44.922   3.775
83860W        W56274  28.463  28.543  12.843
83861W        W56275  33.942  20.577   0.380
83862W        W56276  36.438  33.609   2.288
83863W        W56277   3.392  40.523  14.494
83864W        W56278  38.949  10.293   2.225
83865W        W56279  40.856  37.480   3.215
83866W        W56280   8.708  16.656  14.786
83867W        W56281  16.258  39.020  12.936
83868W        W56282   4.833  39.042   9.966
83869W        W56283  21.571  27.107  10.957
83870W        W56284  29.502   5.718   2.792
83871W        W56285   0.909  36.426  11.066
83872W        W56286  17.123  22.645   9.982
83873W        W56287  19.625  37.467  11.449
83874W        W56288  33.089  38.434  14.020
83875W        W56289  34.105  15.688   1.449
83876W        W56290  39.403  23.999   4.671
83877W        W56291  31.128  12.649  10.112
83878W        W56292  11.140  19.244  11.506
83879W        W56293  24.074   2.333   0.876
83880W        W56294  22.553   1.318  12.996
83881W        W56295  40.014  38.534  12.956
83882W        W56296   0.816  32.000   2.856
83883W        W56297  38.987   2.761  10.031
83884W        W56298  28.487  17.197   4.677
83885W        W56299   9.194  42.499  14.413
83886W        W56300   5.228  30.612  14.503
83887W        W56301  27.039   7.359   4.662
83888W        W56302  39.058  26.129  14.892
83889W        W56303  32.398  31.937   2.280
83890W        W56304   7.190   5.196   0.832
83891W        W56305  30.119  28.466   4.699
83892W        W56306   2.867   2.952  14.853
83893W        W56307  16.769  40.858   2.275
83894W        W56308  26.678  34.476  10.058
83895W        W56309  31.022   7.847  12.934
83896W        W56310  40.358   4.401   2.267
83897W        W56311   9.381   0.866  13.530
83898W        W56312  20.087  20.629  11.510
83899W        W56313   7.836  44.274  14.495
83900W        W56314  21.140  36.587  12.417
83901W        W56315  21.716  40.358   4.325
83902W        W56316   5.254  14.749   2.819
83903W        W56317  28.065   7.687   3.640
83904W        W56318  31.409  10.659  14.280
83905W        W56319  25.053  30.019   3.667
83906W        W56320  30.133  28.534   3.816
83907W        W56321  29.153   4.350  13.392
83908W        W56322   7.904  29.661   1.896
83909W        W56323  11.241  37.938  14.987
83910W        W56324  18.678   9.666   0.305
83911W        W56325  41.852   8.737  14.962
83912W        W56326   4.212  35.530  12.576
83913W        W56327  38.867   2.246  13.335
83914W        W56328   9.654   2.411  10.576
83915W        W56329  42.470   0.812   0.843
83916W        W56330   4.839   8.281  10.517
83917W        W56331  23.205  32.059   4.125
83918W        W56332  20.264  25.158  12.083
83919W        W56333  11.196  19.551  14.396
83920W        W56334   1.897  22.701   0.740
83921W        W56335  34.604  13.659   4.149
83922W        W56336  22.579  31.097   2.737
83923W        W56337  30.979  35.936   1.312
83924W        W56338  17.255  22.636  10.936
83925W        W56339   9.797   0.762   3.210
83926W        W56340  37.891  37.851  11.534
83927W        W56341  10.833  18.602  14.797
83928W        W56342  37.344   7.905  13.013
83929W        W56343  36.096  26.998   0.812
83930W        W56344  25.699  44.757   0.781
83931W        W56345  41.993  41.965  14.478
83932W        W56346  27.977  17.227   3.200
83933W        W56347   7.178   3.789   2.686
83934W        W56348  21.744  18.087  13.801
83935W        W56349  40.417  15.314  11.478
83936W        W56350  16.206  37.874   3.752
83937W        W56351  40.526  34.886  14.387
83938W        W56352  32.504   8.368   4.801
83939W        W56353  34.942  40.812   2.830
83940W        W56354  22.626  15.604  13.871
83941W        W56355  20.563  23.722   0.736
83942W        W56356   6.914  20.257   2.709
83943W        W56357   6.684  40.386  12.411
83944W        W56358  18.772  34.471  11.886
83945W        W56359  24.180  21.708   2.302
83946W        W56360  20.592  27.082  12.446
83947W        W56361  12.665   5.271   2.414
83948W        W56362  37.893  31.960  14.503
83949W        W56363  35.559  42.803   0.272
83950W        W56364  31.618   7.183   1.427
83951W        W56365  28.514  16.724  11.490
83952W        W56366   9.356  26.516  10.442
83953W        W56367  34.374  13.279  12.072
83954W        W56368  12.355  21.226  13.945
83955W        W56369  19.712  33.544   2.837
83956W        W56370   2.311  14.146  13.861
83957W        W56371  39.347  23.080   2.305
83958W        W56372  26.181  40.486  12.527
83959W        W56373  31.580  40.987   3.757
83960W        W56374  17.741  41.788   2.215
83961W        W56375  37.557  40.978   3.199
83962W        W56376  37.535  40.838   4.669
83963W        W56377  32.019  19.180  14.822
83964W        W56378   7.368  13.294   4.798
83965W        W56379  20.274   0.434  11.393
83966W        W56380  22.679  31.909   3.734
83967W        W56381   9.819  36.349   2.315
83968W        W56382  26.620  25.575  14.786
83969W        W56383   0.256  31.925   2.289
83970W        W56384  16.126  12.220   4.750
83971W        W56385   8.659   5.790  12.365
83972W        W56386  18.737  19.053  12.472
83973W        W56387  35.027  42.828   2.200
83974W        W56388  15.812  43.302  13.913
83975W        W56389  28.069  17.214  11.451
83976W        W56390  43.821   7.226  14.828
83977W        W56391   2.917  10.637   3.198
83978W        W56392  24.018  44.433   3.191
83979W        W56393  38.330   2.857   1.256
83980W        W56394  40.901  43.485  10.407
83981W        W56395  14.107  30.124   2.296
83982W        W56396  17.268  43.454  11.374
83983W        W56397  25.640  11.247  13.370
83984W        W56398  34.597  15.769   3.703
83985W        W56399  42.850   8.718   4.817
83986W        W56400  14.752  12.807   1.275
83987W        W56401  40.447  29.035  10.417
83988W        W56402  17.740   0.316  11.127
83989W        W56403  33.880  26.133   3.182
83990W        W56404   7.824  40.948   3.832
83991W        W56405  20.168   9.849   3.845
83992W        W56406   0.296  14.094   1.211
83993W        W56407  27.990  37.383   4.629
83994W        W56408  18.627  41.996  13.433
83995W        W56409  18.252  13.665   3.665
83996W        W56410  22.105  17.748   2.766
83997W        W56411   7.326  27.080  13.028
83998W        W56412  35.468  26.612  10.509
83999W        W56413  20.193   7.199  11.904
84000W        W56414  42.523  33.596   4.237
84001W        W56415  43.430  38.071  12.038
84002W        W56416  44.434   6.305  12.361
84003W        W56417  43.998   3.800   2.346
84004W        W56418  22.074   5.390   4.241
84005W        W56419   7.229  32.462  11.907
84006W        W56420  31.501  31.490  13.881
84007W        W56421  29.022   7.399   0.472
84008W        W56422  40.345  31.553   1.853
84009W        W56423  20.761  17.110   3.234
84010W        W56424   3.730  27.117  12.853
84011W        W56425  32.481  15.768   3.660
84012W        W56426  20.561  37.972  10.469
84013W        W56427  42.425  41.383  12.460
84014W        W56428  34.954  20.150  11.912
84015W        W56429  14.219   3.862  10.948
84016W        W56430   5.743  14.181   1.309
84017W        W56431  29.443  37.563   5.112
84018W        W56432  39.987  16.100   1.410
84019W        W56433  25.120  11.759  13.003
84020W        W56434  16.750   4.926  10.577
84021W        W56435  33.946   1.894   1.931
84022W        W56436  32.995  36.524   1.363
84023W        W56437  42.791  33.084  11.015
84024W        W56438  23.536  17.674  13.049
84025W        W56439   0.824  29.425  12.926
84026W        W56440  28.991  12.793   2.722
84027W        W56441  37.381  37.999   3.634
84028W        W56442  37.890  13.209  14.425
84029W        W56443   1.874  30.626  14.896
84030W        W56444   5.432  15.165   0.864
84031W        W56445  34.406  13.708  12.573
84032W        W56446  19.138  41.419  12.373
84033W        W56447  25.206   5.863   1.821
84034W        W56448   7.231  10.252  13.825
84035W        W56449  15.603  31.037  13.415
84036W        W56450   1.346  35.549  10.407
84037W        W56451   4.331  43.789  13.947
84038W        W56452   2.389   0.278   0.355
84039W        W56453  28.627  18.573  12.380
84040W        W56454   6.253  17.233   2.256
84041W        W56455  42.969  24.572   0.307
84042W        W56456   9.762  29.157  12.520
84043W        W56457  34.930  40.410  13.013
84044W        W56458  16.751  23.610  12.436
84045W        W56459  21.727   6.325  12.954
84046W        W56460  26.152   3.811  10.992
84047W        W56461  12.314  33.902  10.479
84048W        W56462  20.757  28.093  12.091
84049W        W56463   4.432  44.324  12.092
84050W        W56464  31.576   3.429   3.847
84051W        W56465  31.621  44.969   2.399
84052W        W56466  25.570  11.144   1.214
84053W        W56467  41.925  36.079  14.950
84054W        W56468  25.053  19.578  14.780
84055W        W56469   8.773  22.217   0.894
84056W        W56470  28.506  27.484   2.416
84057W        W56471  25.598  37.902   3.375
84058W        W56472  25.700  43.314   1.897
84059W        W56473  28.022  24.139   1.703
84060W        W56474  39.020  39.361  12.445
84061W        W56475  40.545  33.076  14.784
84062W        W56476  14.187  38.923  12.414
84063W        W56477   2.430   0.807   1.918
84064W        W56478  25.530  19.275   2.320
84065W        W56479   6.695  14.765   2.896
84066W        W56480  36.087  35.963   4.173
84067W        W56481  42.018   9.709  14.339
84068W        W56482  15.108  43.870  14.772
84069W        W56483  43.002  28.952   4.795
84070W        W56484  23.182  31.005   3.802
84071W        W56485  10.266  41.495   2.380
84072W        W56486   7.825  21.260  14.815
84073W        W56487  25.610  32.393  13.917
84074W        W56488   2.772   2.850   1.422
84075W        W56489   6.691  27.132   3.752
84076W        W56490   2.818   4.820  14.457
84077W        W56491  32.092  18.612  11.906
84078W        W56492  31.582  36.081   2.228
84079W        W56493  39.022  25.199  11.410
84080W        W56494  23.712  41.815  12.929
84081W        W56495  10.691  14.679   3.371
84082W        W56496  41.787  36.898  13.800
84083W        W56497   5.721  29.498   0.850
84084W        W56498  35.520  41.293  11.918
84085W        W56499   8.690  43.837  11.511
84086W        W56500  21.198  32.534   1.701
84087W        W56501  28.151   5.904   4.176
84088W        W56502  23.032  25.577   2.219
84089W        W56503  18.626   8.351  11.517
84090W        W56504  31.601  43.335  12.398
84091W        W56505  25.990  42.927   3.253
84092W        W56506   9.274  39.557   3.755
84093W        W56507  16.075  28.554   3.649
84094W        W56508  25.541  17.226   5.312
84095W        W56509   9.154  23.049  14.319
84096W        W56510  39.912  28.040   0.808
84097W        W56511  25.188  25.973  13.474
84098W        W56512  13.185  11.195  12.561
84099W        W56513  30.542  14.232   0.745
84100W        W56514  33.946  42.023  13.938
84101W        W56515  18.150   7.360  14.457
84102W        W56516  11.809  36.577  13.397
84103W        W56517  20.187  16.602   2.710
84104W        W56518   1.242   3.402   0.314
84105W        W56519  24.588  22.147   3.811
84106W        W56520  38.854  17.695   2.753
84107W        W56521  44.308  40.402  13.809
84108W        W56522  28.035   3.414   3.346
84109W        W56523  10.193  35.502  12.044
84110W        W56524  18.066  32.510  13.939
84111W        W56525  31.010  16.307  11.529
84112W        W56526  23.078  38.860   2.682
84113W        W56527  33.052  11.373  12.886
84114W        W56528  40.054   6.687  13.835
84115W        W56529  41.347  21.518   1.254
84116W        W56530  35.455   6.314  12.390
84117W        W56531  32.961  37.029  13.805
84118W        W56532  30.636  41.475   2.857
84119W        W56533   4.906   3.392   2.412
84120W        W56534  10.632  14.644   0.828
84121W        W56535   5.404  41.461   5.255
84122W        W56536   9.295  25.539  10.942
84123W        W56537  23.649   5.264  13.950
84124W        W56538  34.085  31.950   3.812
84125W        W56539  17.563  24.002   4.132
84126W        W56540   3.787  18.775  13.897
84127W        W56541  31.931  29.116   3.722
84128W        W56542  35.955  32.988  13.878
84129W        W56543   8.722  31.940  10.617
84130W        W56544  41.500  14.705  14.421
84131W        W56545  13.222  22.192  12.880
84132W        W56546  29.621  31.046   2.321
84133W        W56547  17.231  19.159   0.872
84134W        W56548  26.105  15.637   4.184
84135W        W56549  38.821  18.751  13.446
84136W        W56550   6.209   7.345  10.004
84137W        W56551  13.193  32.566   4.187
84138W        W56552  13.726  22.246   3.752
84139W        W56553   8.188  16.618   3.686
84140W        W56554  26.658  41.950   4.673
84141W        W56555  27.469   9.308   0.800
84142W        W56556   2.745   9.797  10.905
84143W        W56557  40.918  39.873   0.898
84144W        W56558  12.789  38.880  10.893
84145W        W56559  22.666  16.687   4.653
84146W        W56560   3.750  13.298  13.802
84147W        W56561  16.301   6.864   9.498
84148W        W56562  30.959  13.681   0.478
84149W        W56563   9.366  11.739  14.323
84150W        W56564  11.292  15.168   0.773
84151W        W56565  15.266  38.473  13.904
84152W        W56566  25.076  12.837   0.916
84153W        W56567  11.772  27.620   1.763
84154W        W56568  22.200   2.720   2.399
84155W        W56569  44.881  35.924  11.448
84156W        W56570  38.849  24.106   2.338
84157W        W56571   3.238   6.764  11.446
84158W        W56572   3.230  20.550   4.603
84159W        W56573  13.128  24.016  13.996
84160W        W56574   8.883  17.079   0.840
84161W        W56575  38.529   4.215  11.077
84162W        W56576  37.864   2.429   2.712
84163W        W56577  13.699  28.184  12.443
84164W        W56578  16.153  23.197  12.032
84165W        W56579  25.586  44.419  12.446
84166W        W56580   4.918  30.585  11.090
84167W        W56581  20.722  36.497  10.479
84168W        W56582  27.148   7.717  12.073
84169W        W56583  40.342  22.053   0.843
84170W        W56584  40.502   9.154  11.062
84171W        W56585  35.503  33.995  13.956
84172W        W56586   2.951  24.689  14.940
84173W        W56587  32.549   1.387   2.705
84174W        W56588  12.218  41.012   4.814
84175W        W56589  44.856   7.744  10.574
84176W        W56590   2.458  36.854   0.427
84177W        W56591  12.271  14.589   4.268
84178W        W56592  24.630  44.407   0.815
84179W        W56593  28.006  14.664   3.344
84180W        W56594  19.181  28.601  13.806
84181W        W56595  24.126  33.976   3.306
84182W        W56596  32.079   6.383  10.598
84183W        W56597  22.698  11.324  13.064
84184W        W56598  10.372   4.876   4.302
84185W        W56599  27.510  28.633  13.026
84186W        W56600  17.121  35.471  10.409
84187W        W56601   7.704  22.068  14.370
84188W        W56602  13.673   9.806  11.109
84189W        W56603  26.132  37.537  13.888
84190W        W56604  27.511  21.617   2.863
84191W        W56605  10.807   9.689   4.178
84192W        W56606  18.632  27.612   4.302
84193W        W56607  21.584   8.378  10.597
84194W        W56608  29.669   8.328  14.446
84195W        W56609  19.627   3.776   1.328
84196W        W56610  22.096  40.538   1.704
84197W        W56611  25.588  32.396  11.028
84198W        W56612  13.661  23.221  14.001
84199W        W56613   4.870  17.794   1.891
84200W        W56614   7.199  40.350   2.851
84201W        W56615  43.281   7.191   4.809
84202W        W56616  27.527  44.394  11.415
84203W        W56617  20.188  27.015   2.862
84204W        W56618  32.079   5.375  10.539
84205W        W56619  38.926   0.395   4.687
84206W        W56620   5.876  28.563  11.540
84207W        W56621  15.805  28.004   2.820
84208W        W56622   8.719  41.344  11.871
84209W        W56623  35.522  44.901   0.257
84210W        W56624  10.316   1.459  13.529
84211W        W56625   2.235  37.957   1.237
84212W        W56626  21.748   2.428  11.923
84213W        W56627  13.680  33.902  14.511
84214W        W56628  27.564   5.751  14.816
84215W        W56629   0.953  14.640   1.322
84216W        W56630  13.259  39.848  10.932
84217W        W56631  26.025  13.616  14.474
84218W        W56632  15.313  11.777   3.306
84219W        W56633  18.111  28.101  13.973
84220W        W56634  20.714  24.596   1.905
84221W        W56635   3.405   7.806   1.810
84222W        W56636  39.037   6.831   0.956
84223W        W56637  32.961  27.023  10.994
84224W        W56638  24.226  28.136  12.346
84225W        W56639  26.531   8.285  14.961
84226W        W56640   0.285  38.895   4.737
84227W        W56641  37.541  43.994  13.953
84228W        W56642   1.294  28.635  12.052
84229W        W56643  15.616  30.532   1.296
84230W        W56644   7.269  37.476  14.832
84231W        W56645  43.372   5.421   0.288
84232W        W56646  23.690  12.745  12.858
84233W        W56647  36.032  27.115   3.787
84234W        W56648   4.407  18.550   0.922
84235W        W56649  39.451  42.977  11.377
84236W        W56650  44.978  27.056  12.571
84237W        W56651  24.224  32.949   1.745
84238W        W56652  12.252  41.409   3.825
84239W        W56653  31.419  13.805  14.931
84240W        W56654  10.227  15.672  13.494
84241W        W56655  28.972  39.030  13.402
84242W        W56656   6.288  24.605   2.865
84243W        W56657  10.864  29.604   0.947
84244W        W56658  24.651  14.145  14.945
84245W        W56659   3.828  33.006   1.718
84246W        W56660  27.031  33.994  11.511
84247W        W56661   6.246  26.490  12.914
84248W        W56662   6.901  13.142  14.326
84249W        W56663   0.881  16.096  12.027
84250W        W56664  19.587  44.905  12.060
84251W        W56665  33.874  19.271  14.321
84252W        W56666  40.030   9.691   2.252
84253W        W56667  25.547  21.167   3.861
84254W        W56668  29.607  38.501   0.265
84255W        W56669  39.347  33.933   2.691
84256W        W56670  16.808  38.015   4.640
84257W        W56671  17.073  31.120  12.343
84258W        W56672  36.876   5.906  14.776
84259W        W56673  12.269  26.519  13.995
84260W        W56674  29.155   9.731   4.118
84261W        W56675  33.109   1.248   0.333
84262W        W56676  14.625  28.011   0.889
84263W        W56677   9.673   1.326   2.337
84264W        W56678  37.990  36.524  10.121
84265W        W56679   6.355  42.029   0.420
84266W        W56680  23.163  37.415   4.212
84267W        W56681  35.109   3.829   0.302
84268W        W56682  12.144  25.057   3.368
84269W        W56683   2.795  17.200  14.867
84270W        W56684  36.496  24.600   3.858
84271W        W56685  37.338  43.418   1.401
84272W        W56686  15.722  15.710  12.484
84273W        W56687  22.706  29.020   3.156
84274W        W56688  32.933  19.535   0.394
84275W        W56689  30.113   9.152  13.924
84276W        W56690   7.878   5.438   2.302
84277W        W56691  26.053  25.105   3.634
84278W        W56692  31.574   6.922  11.489
84279W        W56693  15.688   7.406  14.959
84280W        W56694  29.534  43.921  13.378
84281W        W56695  16.611  36.035  10.462
84282W        W56696   3.909  25.521   1.861
84283W        W56697  11.793  16.150  11.380
84284W        W56698  32.955  32.965   4.744
84285W        W56699  26.987  35.034  13.053
84286W        W56700   3.263  13.716   3.705
84287W        W56701  10.181  27.058   0.427
84288W        W56702  16.097  24.665   2.351
84289W        W56703  14.219   4.230  10.147
84290W        W56704  14.822   9.189  10.617
84291W        W56705  44.415  26.207   0.830
84292W        W56706  29.988  17.288  12.001
84293W        W56707  40.004  14.338   3.189
84294W        W56708   6.835  29.558  14.783
84295W        W56709  29.153  25.712   2.241
84296W        W56710  18.209  19.705   1.405
84297W        W56711   2.916  26.034   4.828
84298W        W56712   1.348   1.370   3.371
84299W        W56713   4.333  15.219  14.845
84300W        W56714  40.363  12.149   2.184
84301W        W56715  20.039  36.955  14.844
84302W        W56716  30.128  19.559  13.996
84303W        W56717  26.032  10.340   0.935
84304W        W56718  34.993  40.324   0.446
84305W        W56719  24.608   8.371  14.487
84306W        W56720  14.653  24.066   2.830
84307W        W56721  35.866  29.045  13.355
84308W        W56722  13.795  28.653   2.256
84309W        W56723  33.551  21.066   3.173
84310W        W56724  30.949   9.177   1.772
84311W        W56725  25.614  17.629   3.172
84312W        W56726  34.559  23.235  13.974
84313W        W56727  11.246  18.789  10.484
84314W        W56728   7.822  43.438  14.842
84315W        W56729  36.035  17.603  14.348
84316W        W56730  19.678  25.147  14.479
84317W        W56731  36.847   9.193  11.509
84318W        W56732  31.045  23.997   0.866
84319W        W56733  20.176  35.541  12.470
84320W        W56734  36.420  18.586  11.440
84321W        W56735  39.519   8.711  11.961
84322W        W56736  20.678  30.424  11.912
84323W        W56737  29.470  23.180  12.070
84324W        W56738  26.460  11.677  11.525
84325W        W56739  11.131  35.074   2.325
84326W        W56740  34.950  41.968   2.863
84327W        W56741  26.099   2.366   0.731
84328W        W56742  11.172  43.914   1.328
84329W        W56743  27.000  28.645  12.448
84330W        W56744  35.092  25.110  11.082
84331W        W56745  28.155  11.244  11.991
84332W        W56746  23.517   7.670   0.938
84333W        W56747  22.643  16.264   4.672
84334W        W56748  10.181   6.399  14.387
84335W        W56749  33.454  17.086   1.918
84336W        W56750  26.629  33.544   3.159
84337W        W56751  17.130  32.615  13.040
84338W        W56752  43.934  20.624   0.795
84339W        W56753  13.718   7.315   0.315
84340W        W56754  29.066  31.583   3.204
84341W        W56755   9.267  34.612   2.893
84342W        W56756  38.411  38.326  13.392
84343W        W56757  30.068  38.387  12.924
84344W        W56758  43.852  43.281   4.717
84345W        W56759  43.926  36.590   4.306
84346W        W56760   5.922  12.287  11.896
84347W        W56761   1.941  27.641   5.186
84348W        W56762  11.353  25.132  14.405
84349W        W56763  25.158   0.433   5.142
84350W        W56764  16.783  33.966   3.740
84351W        W56765   0.385  30.506   1.277
84352W        W56766  24.535  30.999   1.741
84353W        W56767  43.014  10.194   0.247
84354W        W56768  18.088   7.734   2.818
84355W        W56769  30.140  23.987  12.908
84356W        W56770  42.478  18.243  14.925
84357W        W56771  25.484  26.147  11.054
84358W        W56772  19.244  20.587  13.380
84359W        W56773  26.506  22.188   5.195
84360W        W56774  15.770  26.169   3.656
84361W        W56775  36.447  12.169  13.881
84362W        W56776  36.986   5.812   4.118
84363W        W56777  20.760  24.518  10.474
84364W        W56778  40.959  21.223   2.371
84365W        W56779  40.474  26.479  13.545
84366W        W56780  39.842  41.980  14.495
84367W        W56781  28.050  32.520  10.996
84368W        W56782  32.108  20.274   4.646
84369W        W56783  15.101   1.293  12.891
84370W        W56784  43.946   3.798   1.357
84371W        W56785  30.940   3.950   2.262
84372W        W56786  31.113   0.289   3.658
84373W        W56787  13.141  38.549   4.733
84374W        W56788  40.840   4.925   4.647
84375W        W56789  28.514   5.904   3.380
84376W        W56790   5.752  41.915   0.765
84377W        W56791  44.795  34.997  14.482
84378W        W56792  37.056  35.006   3.288
84379W        W56793  40.916  23.109   4.771
84380W        W56794  31.970  39.406   3.280
84381W        W56795  35.000   7.376   4.147
84382W        W56796  34.506  17.106   3.657
84383W        W56797  13.163  41.525   5.269
84384W        W56798  25.154  42.948  12.827
84385W        W56799   8.710  14.254   0.397
84386W        W56800  39.325  22.219   0.953
84387W        W56801   9.375  23.161   3.353
84388W        W56802  42.313  23.629   0.891
84389W        W56803  41.880  28.020   4.252
84390W        W56804  14.236  26.548   1.924
84391W        W56805  39.821  16.577   1.214
84392W        W56806  40.912  33.976   2.700
84393W        W56807  15.739  10.302  11.382
84394W        W56808   2.448  31.637   4.767
84395W        W56809  17.199  26.963   0.256
84396W        W56810  42.355  30.560   0.307
84397W        W56811  39.940   6.208   0.782
84398W        W56812  26.601  21.565  12.933
84399W        W56813  23.505   5.400  11.924
84400W        W56814  17.140  22.059  12.865
84401W        W56815  13.791  17.753   9.677
84402W        W56816  42.361  37.348   2.786
84403W        W56817  11.283  14.703  11.871
84404W        W56818  26.528  23.607  11.043
84405W        W56819  37.482  38.541   0.475
84406W        W56820   3.942  13.615   4.282
84407W        W56821   8.853  42.016  14.903
84408W        W56822  39.053  23.575  11.471
84409W        W56823  10.285  14.169   1.790
84410W        W56824  21.089   6.291   2.363
84411W        W56825   9.312  32.960   0.878
84412W        W56826  35.475  16.808   2.834
84413W        W56827  16.274  12.682   2.812
84414W        W56828  22.666   4.251   0.306
84415W        W56829  20.230   4.304   2.210
84416W        W56830  18.631  28.054  12.440
84417W        W56831   0.368   8.328  14.475
84418W        W56832  26.671  28.572   2.311
84419W        W56833  29.535  40.315  11.571
84420W        W56834  37.866   6.726   1.336
84421W        W56835  42.303  42.459  10.993
84422W        W56836  30.496  32.549   2.185
84423W        W56837  19.183  13.196  10.909
84424W        W56838  14.173  35.054  12.856
84425W        W56839  33.059   4.708   3.190
84426W        W56840  44.983  22.655  14.924
84427W        W56841  27.076  39.524  12.974
84428W        W56842  41.364  12.190  11.931
84429W        W56843  31.563  16.622  11.607
84430W        W56844  22.545  36.427   9.945
84431W        W56845  13.766  15.639   1.247
84432W        W56846  38.951   7.782  12.440
84433W        W56847  34.901  38.023  11.487
84434W        W56848   6.213  12.728   5.231
84435W        W56849  33.003  39.955  12.575
84436W        W56850   1.815  22.243   4.291
84437W        W56851  10.296  33.464  13.855
84438W        W56852  26.186  24.559  12.943
84439W        W56853  23.608  13.685   0.331
84440W        W56854   6.319  22.131   1.276
84441W        W56855  23.156  41.373  12.541
84442W        W56856  24.982  34.025   3.809
84443W        W56857  42.300  18.057  12.454
84444W        W56858  30.413  32.558   0.448
84445W        W56859  31.601   7.349   3.690
84446W        W56860  26.123  28.557   4.335
84447W        W56861  20.040  19.239  12.938
84448W        W56862   9.287  43.851  12.859
84449W        W56863  11.308  39.454   4.198
84450W        W56864  32.056  22.635   4.147
84451W        W56865   2.337  12.805  12.082
84452W        W56866  29.030   6.378   2.678
84453W        W56867  43.851  33.118  14.848
84454W        W56868  20.160  27.472  11.072
84455W        W56869  25.511   5.251  12.836
84456W        W56870   5.336  13.309   3.721
84457W        W56871  11.800  23.195  10.463
84458W        W56872  19.055  38.024  12.384
84459W        W56873  10.362   7.366  10.007
84460W        W56874  23.525  33.975  13.811
84461W        W56875   8.769  20.724  10.932
84462W        W56876  34.885  29.593   3.370
84463W        W56877  25.653  44.942   3.382
84464W        W56878   6.258  28.042   4.612
84465W        W56879  42.469  20.267   0.428
84466W        W56880  13.222  27.509  13.329
84467W        W56881  23.685  10.689  10.536
84468W        W56882  26.488  34.114  11.580
84469W        W56883  22.719   3.300  12.538
84470W        W56884  40.906  44.407   2.898
84471W        W56885  40.518  28.548  12.989
84472W        W56886  31.413  31.529   4.762
84473W        W56887  29.054  20.552  10.526
84474W        W56888  42.833  11.788   2.264
84475W        W56889   1.834   1.440   1.248
84476W        W56890  12.245  44.883   2.662
84477W        W56891  38.836  31.074  14.917
84478W        W56892  15.603  26.574   3.369
84479W        W56893  13.669  43.369  10.546
84480W        W56894   3.277  25.543   9.960
84481W        W56895  37.865  36.074   4.325
84482W        W56896  17.232  34.380   0.776
84483W        W56897  37.421  35.912  13.456
84484W        W56898  23.689  42.011   0.257
84485W        W56899  13.780  29.069   0.761
84486W        W56900  18.267  16.120  12.495
84487W        W56901  39.054  32.086   4.140
84488W        W56902  24.094  37.338   5.304
84489W        W56903  36.524   8.372   4.797
84490W        W56904  41.951  33.547   4.166
84491W        W56905  13.264  43.435   2.667
84492W        W56906  36.366  31.908   4.671
84493W        W56907  43.480  12.637   3.263
84494W        W56908  14.251   5.842   3.334
84495W        W56909   2.440  29.982   1.846
84496W        W56910  24.642  35.445  14.002
84497W        W56911  34.520  13.260   1.870
84498W        W56912  22.624  12.343  13.982
84499W        W56913  40.310  25.962   4.645
84500W        W56914  43.378  13.780   1.712
84501W        W56915  37.967  39.026  10.050
84502W        W56916  16.728  36.546   3.347
84503W        W56917  35.920  27.500  12.912
84504W        W56918  15.758  32.523  10.970
84505W        W56919   6.890   3.279  12.977
84506W        W56920   6.875  20.768   1.417
84507W        W56921  31.071  22.558  10.159
84508W        W56922  24.011  22.530  13.979
84509W        W56923  29.047  20.163   1.834
84510W        W56924   4.390  42.511  12.381
84511W        W56925  31.432   4.374  10.954
84512W        W56926  38.478   5.231   1.230
84513W        W56927  24.693  37.875  12.861
84514W        W56928  27.195  32.989   1.218
84515W        W56929   1.952  27.097  12.571
84516W        W56930   2.931  25.971  10.058
84517W        W56931   7.831  11.747  12.937
84518W        W56932  19.640   0.276   5.684
84519W        W56933  23.120   5.853  13.038
84520W        W56934  28.081   4.297  11.566
84521W        W56935   3.913  25.574  11.041
84522W        W56936   3.772  28.072   1.887
84523W        W56937  18.056   9.688  13.346
84524W        W56938  12.756  37.948   1.217
84525W        W56939  31.950  20.138  12.451
84526W        W56940  44.911  13.750  13.439
84527W        W56941  35.934  24.688   0.763
84528W        W56942  13.824  32.998  13.045
84529W        W56943   6.678  15.252   3.179
84530W        W56944  24.506   2.272  11.381
84531W        W56945  28.456   1.817   2.728
84532W        W56946   9.798  10.847   0.789
84533W        W56947  19.164  25.690  11.511
84534W        W56948  35.043  14.815  14.396
84535W        W56949  39.455  21.546   2.404
84536W        W56950  26.076  15.620   3.638
84537W        W56951   1.854  36.439   3.754
84538W        W56952  12.276  19.272  14.837
84539W        W56953  10.140  25.999   4.265
84540W        W56954  29.457  26.084  11.083
84541W        W56955  17.187  33.509  11.995
84542W        W56956  24.641  22.706  12.509
84543W        W56957  22.710  12.655  12.415
84544W        W56958  17.778  38.543   0.318
84545W        W56959  10.702  44.878  11.858
84546W        W56960  37.943   7.682  12.875
84547W        W56961  24.623   3.223   1.249
84548W        W56962  44.497  43.963  13.054
84549W        W56963  42.945  32.906   3.198
84550W        W56964  33.431  11.342  12.081
84551W        W56965  25.001  21.214  13.945
84552W        W56966  20.549  34.368   1.221
84553W        W56967  22.153  13.751  11.122
84554W        W56968  24.555  30.436   3.349
84555W        W56969  30.092  30.493  10.923
84556W        W56970   9.171  22.105  14.351
84557W        W56971  27.176   7.184   2.214
84558W        W56972  31.910  44.948   0.474
84559W        W56973  22.160  39.910  12.050
84560W        W56974   2.720  30.529  14.282
84561W        W56975  27.655   3.879   1.432
84562W        W56976  10.248  32.593  11.952
84563W        W56977  15.135  35.503   1.910
84564W        W56978   6.761  17.716  13.365
84565W        W56979  14.099   5.419   0.833
84566W        W56980  30.085  39.891  12.852
84567W        W56981  22.580  15.583  12.356
84568W        W56982  28.616  27.559  14.941
84569W        W56983  34.953  19.725   0.385
84570W        W56984  28.649  44.427   0.473
84571W        W56985  14.691  18.255   4.793
84572W        W56986  40.434  36.033  12.993
84573W        W56987  15.306  12.136  12.394
84574W        W56988   8.742  16.749  12.449
84575W        W56989   0.464  21.744  11.968
84576W        W56990  42.336  23.540  10.445
84577W        W56991  15.121   0.414   0.801
84578W        W56992  31.006   8.289   3.243
84579W        W56993   4.373   2.771   1.434
84580W        W56994  25.482   3.257   3.819
84581W        W56995  11.130  16.270   0.836
84582W        W56996  44.955  37.556   2.398
84583W        W56997  33.966  15.577  14.941
84584W        W56998  33.533  39.858   4.272
84585W        W56999  37.917  14.205   2.879
84586W        W57000  19.750  31.084  10.584
84587W        W57001  31.059  26.509  13.491
84588W        W57002  18.193  32.395  14.451
84589W        W57003   4.770  12.746  14.405
84590W        W57004   7.203  15.808  12.557
84591W        W57005   0.302  38.334   0.933
84592W        W57006  22.045  40.817  14.859
84593W        W57007  41.800  43.968   1.317
84594W        W57008  33.530   1.842   3.214
84595W        W57009  14.796  26.668  11.516
84596W        W57010   1.758  34.991   0.887
84597W        W57011   8.290  36.035  13.399
84598W        W57012  39.996  40.437   3.160
84599W        W57013  42.841   8.210  12.367
84600W        W57014  15.119  17.705  14.988
84601W        W57015   6.746  35.999   1.751
84602W        W57016  26.564   5.739  13.918
84603W        W57017  41.481  14.172  13.867
84604W        W57018  34.444   0.806   0.447
84605W        W57019  16.639  39.928   2.665
84606W        W57020   0.936  18.668  14.471
84607W        W57021  44.841  38.862  11.970
84608W        W57022  16.089   8.774   1.695
84609W        W57023   2.850  33.128   3.308
84610W        W57024  21.738   3.224  14.847
84611W        W57025   0.295  27.942   1.399
84612W        W57026  20.769  28.561  10.559
84613W        W57027  38.500  33.466   0.376
84614W        W57028  29.970  24.606   1.229
84615W        W57029   3.732  32.587  11.042
84616W        W57030  44.968  23.650   2.192
84617W        W57031  23.136  30.533   4.766
84618W        W57032  36.958   7.203   3.773
84619W        W57033   0.870   9.298  11.035
84620W        W57034   0.838  41.853  12.509
84621W        W57035  33.131  37.444  13.815
84622W        W57036   5.213   4.432   1.805
84623W        W57037  17.200  32.489   3.157
84624W        W57038  14.693  24.620  11.982
84625W        W57039   7.903  12.129  10.587
84626W        W57040   0.759  39.339   3.158
84627W        W57041  16.730  41.434   0.819
84628W        W57042  35.982  28.130  11.535
84629W        W57043  12.774  30.926  11.517
84630W        W57044   3.441  42.427  10.145
84631W        W57045  19.129  44.762   1.225
84632W        W57046  28.040   7.224   5.291
84633W        W57047  23.696  21.543  11.055
84634W        W57048  33.069  22.664   5.143
84635W        W57049  15.093  36.468  11.086
84636W        W57050   2.755   0.328   0.369
84637W        W57051  35.957   9.709  14.762
84638W        W57052  30.931  42.992  13.376
84639W        W57053  31.071  19.554  10.033
84640W        W57054   9.271  29.064  13.546
84641W        W57055   8.723  11.208  13.487
84642W        W57056  30.076   6.916  13.048
84643W        W57057  29.659  38.394  11.510
84644W        W57058  34.582   7.723  11.559
84645W        W57059  12.742  39.335   2.238
84646W        W57060  30.474  37.514  12.349
84647W        W57061   4.363   8.261  11.921
84648W        W57062  32.581   4.336   1.749
84649W        W57063  30.650  39.051   3.722
84650W        W57064  26.959  13.646  12.465
84651W        W57065  25.118  23.986   4.823
84652W        W57066  26.189  22.238   1.215
84653W        W57067  18.627  27.535  10.984
84654W        W57068  17.232  11.272  12.979
84655W        W57069  13.681  22.089  14.365
84656W        W57070   0.801  28.442  11.069
84657W        W57071   5.316  15.304  11.976
84658W        W57072  34.897  33.964   4.226
84659W        W57073  34.423  31.141   2.788
84660W        W57074   8.199  23.178   4.183
84661W        W57075  11.794  21.638   0.854
84662W        W57076   7.308  36.046  14.362
84663W        W57077  34.961  31.410   4.199
84664W        W57078  10.692  17.559  12.046
84665W        W57079  22.641  40.334  12.903
84666W        W57080  10.334  33.470  11.371
84667W        W57081   8.686   3.381   4.690
84668W        W57082  23.178   2.318   3.663
84669W        W57083  10.207   6.399  13.976
84670W        W57084  35.024  41.999   1.409
84671W        W57085  36.082   0.954   2.842
84672W        W57086   0.342  33.582  12.478
84673W        W57087  10.140  21.117  11.064
84674W        W57088  17.288  33.465   1.928
84675W        W57089  12.639   1.348  14.450
84676W        W57090  30.087  26.201   4.344
84677W        W57091  33.476  30.952   1.374
84678W        W57092  14.605  23.153   2.258
84679W        W57093   9.654  12.631   4.310
84680W        W57094  34.948   9.838   0.384
84681W        W57095  12.656   9.281  14.770
84682W        W57096  26.102  34.460   4.141
84683W        W57097  35.383  36.549  11.602
84684W        W57098  22.203  34.101  14.366
84685W        W57099   6.218  31.565   3.743
84686W        W57100  33.881  37.934   1.214
84687W        W57101  27.487  33.547  12.017
84688W        W57102   1.805  24.006   3.826
84689W        W57103  18.243   7.345  14.861
84690W        W57104  24.993   7.400  12.872
84691W        W57105  21.075  43.272  13.495
84692W        W57106  35.051  23.058  11.529
84693W        W57107  15.318   6.296   5.267
84694W        W57108  26.102  36.424  14.878
84695W        W57109   5.342  32.978   3.382
84696W        W57110  19.239  21.753  13.536
84697W        W57111   8.738  33.957  10.598
84698W        W57112  28.597  41.466  13.456
84699W        W57113  25.663   7.393   0.249
84700W        W57114   5.897  33.929  12.463
84701W        W57115  12.850  23.149   1.738
84702W        W57116  19.273   2.830   0.917
84703W        W57117   3.849  18.271   2.221
84704W        W57118  43.855  40.307   3.791
84705W        W57119   7.343   8.225   0.374
84706W        W57120  31.413  37.529  10.417
84707W        W57121  11.774  25.096   3.710
84708W        W57122  33.449  21.650   1.818
84709W        W57123  13.179   0.363  10.551
84710W        W57124  40.473   1.760   0.299
84711W        W57125  36.072  29.939  14.778
84712W        W57126  23.003  43.923   2.234
84713W        W57127  29.987   4.776  14.428
84714W        W57128   1.449  16.276  11.499
84715W        W57129  17.711  22.737  11.013
84716W        W57130  40.995  43.435   3.150
84717W        W57131   6.272  30.072  14.858
84718W        W57132  36.480  31.114  12.076
84719W        W57133  20.163   8.199   0.398
84720W        W57134   2.915  44.975   4.603
84721W        W57135  11.648  38.367   9.990
84722W        W57136  19.732  26.554   3.247
84723W        W57137  10.761  31.025  14.437
84724W        W57138  18.638  25.138   2.368
84725W        W57139  35.993  43.863  11.952
84726W        W57140  32.088  17.197   0.767
84727W        W57141  28.178   5.881   2.304
84728W        W57142   8.275  18.769  13.929
84729W        W57143  40.811   0.841  14.998
84730W        W57144  23.593  39.845   3.745
84731W        W57145   8.732  19.052   4.238
84732W        W57146  22.700  38.957   0.388
84733W        W57147   6.213  39.343  14.484
84734W        W57148  43.345   7.819   2.702
84735W        W57149   9.161  40.417   4.599
84736W        W57150  14.808   8.235  14.762
84737W        W57151  32.936  39.556   2.755
84738W        W57152  10.252  32.133   0.889
84739W        W57153  44.335  37.534  13.948
84740W        W57154  16.673  21.068  12.030
84741W        W57155  40.886  13.321  12.432
84742W        W57156   0.351   5.287   4.808
84743W        W57157  11.752  31.033   4.163
84744W        W57158  14.594  16.727   5.762
84745W        W57159  20.664  31.535   1.778
84746W        W57160  26.067   6.885  12.030
84747W        W57161  41.396   2.310   3.705
84748W        W57162   3.765   5.388  13.517
84749W        W57163  24.125   9.216   2.796
84750W        W57164   3.740   9.752  10.949
84751W        W57165   3.331  32.584   3.219
84752W        W57166  10.697   4.250   2.739
84753W        W57167  37.065  15.210  14.013
84754W        W57168   7.719  22.998  12.082
84755W        W57169  44.828   9.235   2.793
84756W        W57170   6.834  18.101  10.449
84757W        W57171  14.613  36.098   0.388
84758W        W57172   5.221  13.212   0.307
84759W        W57173  25.967  44.985   1.359
84760W        W57174  19.146   4.333   4.803
84761W        W57175  42.843  42.410   3.727
84762W        W57176   0.928  19.639   0.804
84763W        W57177  38.854  40.896   1.784
84764W        W57178  36.497  20.705  13.005
84765W        W57179  42.350  39.053  14.853
84766W        W57180  41.814  23.126   4.677
84767W        W57181  10.230  37.863   3.826
84768W        W57182  26.187  20.203  14.854
84769W        W57183  36.562   4.324  12.844
84770W        W57184   7.259   9.163  11.404
84771W        W57185  16.704   8.277  14.025
84772W        W57186   7.675  43.276  11.956
84773W        W57187   1.278  22.243  13.394
84774W        W57188  22.060  23.554  12.448
84775W        W57189  23.058  20.561  13.514
84776W        W57190  11.757   7.386  10.945
84777W        W57191   4.870  15.084   1.415
84778W        W57192  21.530  39.905   1.847
84779W        W57193  29.635   6.869  11.989
84780W        W57194  12.613  31.629   1.824
84781W        W57195  12.176  29.510  12.386
84782W        W57196   5.406   4.924  13.505
84783W        W57197  27.681  27.026  12.038
84784W        W57198  36.458  19.051  11.895
84785W        W57199  31.427  40.533   3.771
84786W        W57200  37.885   2.724   0.409
84787W        W57201  43.477  35.421   4.143
84788W        W57202  44.279  30.932  10.913
84789W        W57203  24.087   4.799  13.477
84790W        W57204  17.094  32.121  10.639
84791W        W57205   6.713   8.802  13.898
84792W        W57206  37.908  13.757  12.392
84793W        W57207  19.648  13.247  12.005
84794W        W57208  23.676  43.971   0.402
84795W        W57209   8.781  25.603   2.776
84796W        W57210  30.130  19.643   3.828
84797W        W57211  36.866  26.090   2.409
84798W        W57212   6.424   5.858  14.995
84799W        W57213  17.079  41.028   0.862
84800W        W57214  24.542  17.702  14.494
84801W        W57215  25.528   5.876   4.756
84802W        W57216  25.043  37.871   1.276
84803W        W57217  44.823  28.999   2.307
84804W        W57218  10.783   8.707   4.116
84805W        W57219   7.360   5.893  11.089
84806W        W57220   7.225   6.379   3.248
84807W        W57221  43.388  44.905   4.684
84808W        W57222  37.848  38.825   3.234
84809W        W57223  12.661  21.064   0.727
84810W        W57224  19.575  40.536  13.462
84811W        W57225  37.871  29.454   0.807
84812W        W57226   9.295  19.780  10.944
84813W        W57227  42.366  36.370  13.497
84814W        W57228  19.713  27.612  13.033
84815W        W57229  40.542   7.728  11.016
84816W        W57230  16.702  40.954  12.877
84817W        W57231  42.790  29.159   3.869
84818W        W57232  42.413  10.336  12.063
84819W        W57233  33.619  42.005   4.681
84820W        W57234  10.307  39.980   9.959
84821W        W57235  18.622  35.450  10.559
84822W        W57236  40.327  18.692   0.738
84823W        W57237  30.080  25.190   1.399
84824W        W57238  33.477  19.777  10.405
84825W        W57239  22.514   1.431   1.451
84826W        W57240   3.777  42.417  14.419
84827W        W57241  37.896  36.367   5.306
84828W        W57242  11.634   7.773   3.374
84829W        W57243  28.593  37.369  13.050
84830W        W57244  30.996  21.229  12.346
84831W        W57245  25.148   7.678   4.317
84832W        W57246  30.516  24.109  13.934
84833W        W57247   7.397   3.414   0.964
84834W        W57248   9.839   9.706   3.631
84835W        W57249   2.885  42.806  13.513
84836W        W57250   9.835  25.557  10.496
84837W        W57251  22.075  30.658  12.880
84838W        W57252  43.002   0.841  13.528
84839W        W57253  39.873  20.589  12.841
84840W        W57254   6.858  25.704   4.227
84841W        W57255  14.773  16.600  14.805
84842W        W57256  24.225   9.273  14.359
84843W        W57257  35.397   7.262  14.433
84844W        W57258  34.116  29.549   2.225
84845W        W57259  39.425  19.699  13.810
84846W        W57260  44.274   5.276   3.702
84847W        W57261  14.256  33.577   1.307
84848W        W57262  37.467  10.788   1.709
84849W        W57263  19.591  33.527   3.297
84850W        W57264  33.453   4.266   4.140
84851W        W57265  12.260  40.525   3.769
84852W        W57266  19.111  14.603   0.730
84853W        W57267  30.560  31.939   1.702
84854W        W57268  22.199  28.942   1.821
84855W        W57269  18.160   8.894  14.830
84856W        W57270  10.364  33.118  10.505
84857W        W57271  21.031   9.314  12.411
84858W        W57272  40.422   1.344  11.388
84859W        W57273  30.446  21.157  14.279
84860W        W57274  16.575  23.683   1.249
84861W        W57275   9.172  32.479   3.183
84862W        W57276  41.919   4.832   2.839
84863W        W57277   0.856  33.495  12.411
84864W        W57278   6.796   2.902  11.102
84865W        W57279  30.457  20.240   0.438
84866W        W57280  10.178   3.777  10.502
84867W        W57281  41.040  12.276  14.932
84868W        W57282   5.270   4.937  13.814
84869W        W57283  21.201  18.255  10.533
84870W        W57284  31.948  32.056   1.265
84871W        W57285  20.579  18.710  12.569
84872W        W57286   6.697  37.460  11.061
84873W        W57287  18.068  28.964  14.821
84874W        W57288  39.881   0.324  12.502
84875W        W57289  25.667  27.616   1.241
84876W        W57290   3.377  40.371  10.043
84877W        W57291  20.640  31.041   1.912
84878W        W57292   5.907  23.208  11.589
84879W        W57293  42.361  36.980   3.690
84880W        W57294  11.640  39.009   5.225
84881W        W57295   2.308  15.653   2.899
84882W        W57296  13.803  19.247  14.993
84883W        W57297   4.833  37.978   2.882
84884W        W57298   1.893  21.588   4.698
84885W        W57299   5.265  10.145   3.799
84886W        W57300   7.364  28.940   2.295
84887W        W57301  28.089   5.265   1.900
84888W        W57302  12.139  39.333  11.013
84889W        W57303   4.818  32.040  13.836
84890W        W57304  13.115  19.764   0.821
84891W        W57305  22.518  29.169  10.416
84892W        W57306  18.612   8.731  11.526
84893W        W57307  33.919  14.327  13.835
84894W        W57308  28.098  20.074   3.714
84895W        W57309  14.123  41.906   0.406
84896W        W57310   7.224  28.455   1.244
84897W        W57311  44.434  38.830   3.818
84898W        W57312  44.458  18.717   4.685
84899W        W57313  25.476  15.134  11.907
84900W        W57314  12.805  40.815  13.469
84901W        W57315  29.554  32.964  13.801
84902W        W57316  11.804  24.993   4.702
84903W        W57317  10.308  33.951   1.890
84904W        W57318  42.801  21.248  14.861
84905W        W57319  27.980  22.159  11.956
84906W        W57320   5.797  13.240  11.430
84907W        W57321  26.126   0.961   3.293
84908W        W57322  40.862  23.015  11.044
84909W        W57323  33.980  25.975  12.897
84910W        W57324   5.315  24.706   4.312
84911W        W57325  20.048  17.089  14.864
84912W        W57326  25.982   8.327  13.417
84913W        W57327  14.205  33.930   4.621
84914W        W57328   0.391  11.257  13.812
84915W        W57329  31.082  37.892  10.608
84916W        W57330  34.538  17.282  12.389
84917W        W57331  26.460   7.351   1.433
84918W        W57332  40.436  20.738  11.027
84919W        W57333  21.661  42.439  14.348
84920W        W57334  24.562  14.615  14.761
84921W        W57335  22.186   2.871   1.778
84922W        W57336  35.019  44.894  10.966
84923W        W57337  36.407  34.511   4.600
84924W        W57338  19.121   7.891  10.563
84925W        W57339   9.645  31.097   1.711
84926W        W57340  24.597  36.920  10.558
84927W        W57341  16.117  27.955  14.886
84928W        W57342  43.892  39.891   1.917
84929W        W57343  12.189  36.593   2.851
84930W        W57344   5.322  22.180   3.335
84931W        W57345  21.666  24.028  10.526
84932W        W57346   2.753   1.756   0.909
84933W        W57347   1.446  31.942  12.420
84934W        W57348  15.099  11.835  12.390
84935W        W57349  28.485  32.070  11.483
84936W        W57350   8.827  18.731   0.854
84937W        W57351  38.064  29.086   2.367
84938W        W57352  13.730   0.414   2.705
84939W        W57353  39.355  38.038  14.312
84940W        W57354  14.256  40.510  14.314
84941W        W57355  43.965   5.752   1.210
84942W        W57356   0.351  18.150   2.776
84943W        W57357  29.504   4.917  13.880
84944W        W57358  21.067  27.501   2.844
84945W        W57359  31.094  35.481   4.161
84946W        W57360   7.287  32.504  11.112
84947W        W57361  40.878  24.127  10.560
84948W        W57362   8.166   6.409  13.922
84949W        W57363   0.279  18.759   0.445
84950W        W57364  43.882  11.280  12.482
84951W        W57365  44.938   2.253  14.973
84952W        W57366  12.263  42.429  13.405
84953W        W57367   8.868   4.782  11.861
84954W        W57368  27.638  31.437  14.954
84955W        W57369  38.887  40.511   1.737
84956W        W57370   7.887  24.707  13.050
84957W        W57371  26.693  10.708   1.217
84958W        W57372  24.600  43.869   0.784
84959W        W57373  25.046  12.118  13.479
84960W        W57374  38.849   9.721   4.806
84961W        W57375  23.143  38.016  13.466
84962W        W57376  22.523   3.248  10.020
84963W        W57377  26.658  44.867  12.075
84964W        W57378  28.647  24.695  12.409
84965W        W57379   0.954  17.268   4.735
84966W        W57380   8.762  43.960   1.217
84967W        W57381  19.549  41.468   4.185
84968W        W57382  29.437  17.684   4.787
84969W        W57383   8.281   7.882   2.336
84970W        W57384  35.399  32.493   0.732
84971W        W57385   2.446  12.241  14.894
84972W        W57386  44.270   2.358   2.262
84973W        W57387   7.815   9.248   2.328
84974W        W57388   9.746   7.322  12.436
84975W        W57389   1.307  11.164  13.977
84976W        W57390   1.818   9.854  12.896
84977W        W57391  38.556   6.383   1.266
84978W        W57392  32.996  43.401   1.349
84979W        W57393   5.352  30.915  12.528
84980W        W57394  14.307  44.340  11.890
84981W        W57395  18.098   7.225   2.769
84982W        W57396  40.445  18.611   1.350
84983W        W57397   6.395  20.150  10.469
84984W        W57398  14.111  18.173  11.100
84985W        W57399  32.622  43.892  14.870
84986W        W57400  37.524  25.687   0.472
84987W        W57401   0.887   2.861  14.879
84988W        W57402   0.324   7.352   2.704
84989W        W57403  22.014  20.589  11.884
84990W        W57404  42.001  26.112   4.287
84991W        W57405   5.438  13.657   2.398
84992W        W57406  29.162  23.542  10.635
84993W        W57407   2.442   0.441   3.747
84994W        W57408   9.372  27.034   4.138
84995W        W57409  20.233  30.492   2.789
84996W        W57410  35.868  19.265  14.368
84997W        W57411  19.249  37.921   2.247
84998W        W57412  18.783  15.751  13.975
84999W        W57413   4.903  30.470   0.256
85000W        W57414   7.827  19.232  14.804
85001W        W57415  15.672  12.180  14.908
85002W        W57416  14.156  32.421   2.393
85003W        W57417  43.309  22.511  14.869
85004W        W57418  22.564   6.889   0.287
85005W        W57419   2.730  20.185  10.466
85006W        W57420  23.001   5.238  14.408
85007W        W57421  14.095   2.940   4.255
85008W        W57422  41.481   5.734   1.210
85009W        W57423  14.301  44.762   3.742
85010W        W57424   0.283   0.443   1.348
85011W        W57425   2.895  30.023   3.182
85012W        W57426  36.955  25.990   0.297
85013W        W57427  35.894  25.108  14.442
85014W        W57428  42.884  39.505   1.885
85015W        W57429   7.668  43.434   1.265
85016W        W57430  24.632  12.632   3.230
85017W        W57431  29.616   3.801   0.399
85018W        W57432  10.235  21.254  13.316
85019W        W57433  39.964  42.369   3.227
85020W        W57434  32.447  11.141   2.764
85021W        W57435  37.434  39.987  13.018
85022W        W57436  34.040  12.181  13.982
85023W        W57437   7.316  44.872  14.924
85024W        W57438  33.464  25.587   0.387
85025W        W57439   2.732  16.077   2.265
85026W        W57440  18.704  32.961   0.273
85027W        W57441  33.604  34.978  13.798
85028W        W57442  23.511  20.743   0.937
85029W        W57443   1.349  30.510  13.841
85030W        W57444   4.730   1.826  12.915
85031W        W57445  21.185  27.499  13.529
85032W        W57446   1.805  42.336   3.357
85033W        W57447  44.985   0.960  14.368
85034W        W57448  19.716  29.016   2.677
85035W        W57449   5.765  36.567  12.910
85036W        W57450  34.056  37.573   3.763
85037W        W57451  28.648  40.506   4.742
85038W        W57452  11.680   8.269  13.826
85039W        W57453  44.769  14.605  14.313
85040W        W57454  33.089  23.615   3.261
85041W        W57455  39.943  10.792   3.773
85042W        W57456  27.977  34.578   4.188
85043W        W57457  13.223  42.347  10.441
85044W        W57458  36.397  41.374  13.520
85045W        W57459  35.898  16.146  10.928
85046W        W57460  15.759  41.034  11.946
85047W        W57461  37.406  22.579   1.919
85048W        W57462  25.522  38.933   1.381
85049W        W57463  18.271   6.337   2.312
85050W        W57464   2.277  25.524  12.904
85051W        W57465   9.312  27.679  11.493
85052W        W57466  21.143  11.760  12.833
85053W        W57467  24.040  18.176  14.329
85054W        W57468   3.461   8.239   2.324
85055W        W57469  27.677   3.837  14.322
85056W        W57470  18.084  31.586  10.449
85057W        W57471   7.360   2.931   4.228
85058W        W57472  20.144  20.200   0.731
85059W        W57473  33.445  29.552   1.760
85060W        W57474  37.894  23.021   4.611
85061W        W57475   9.779  34.401  12.425
85062W        W57476  22.704   0.489  11.944
85063W        W57477   3.776  31.466   3.851
85064W        W57478  37.008  25.593   4.735
85065W        W57479  29.062  30.577   4.309
85066W        W57480  16.676  24.682   4.284
85067W        W57481  38.494  15.684  13.796
85068W        W57482  29.487  24.224   3.678
85069W        W57483  20.070  13.201  13.803
85070W        W57484  44.875  26.694  13.847
85071W        W57485  28.484  28.128  10.615
85072W        W57486  40.875  11.626  13.409
85073W        W57487  33.454   2.849  13.463
85074W        W57488  33.129  18.055  10.600
85075W        W57489   2.439  30.612   5.310
85076W        W57490   8.860  15.117   2.408
85077W        W57491   3.249  14.145  10.507
85078W        W57492   7.256  20.146  10.944
85079W        W57493   9.853   5.898  13.992
85080W        W57494  21.164  40.441  11.933
85081W        W57495   9.373  18.570  13.388
85082W        W57496   9.183  43.325   3.273
85083W        W57497   3.303  19.118  13.045
85084W        W57498  11.627  26.001  11.945
85085W        W57499   9.787  41.018   4.601
85086W        W57500  29.168  42.792  12.382
85087W        W57501   9.328   3.743   2.695
85088W        W57502  18.715  25.121   0.797
85089W        W57503  30.652   9.349   0.449
85090W        W57504  10.147  17.109   2.255
85091W        W57505  38.822  44.856  11.948
85092W        W57506  36.862  43.320   4.725
85093W        W57507  21.123  43.334   1.870
85094W        W57508  23.241  14.169  11.855
85095W        W57509  44.495  26.092  12.842
85096W        W57510  23.677  11.358   3.666
85097W        W57511  41.398  24.565  10.424
85098W        W57512   3.255   7.200  12.888
85099W        W57513  21.085  34.461  10.464
85100W        W57514  19.618  25.173   4.230
85101W        W57515  27.123   9.287   2.411
85102W        W57516  25.504  15.678   1.816
85103W        W57517  22.237  17.670   9.958
85104W        W57518  16.589  17.703   0.246
85105W        W57519  33.942  24.147  14.352
85106W        W57520  28.567  28.041  13.318
85107W        W57521  26.186  42.424  14.795
85108W        W57522   7.336   6.756   1.895
85109W        W57523  15.673  32.925   2.376
85110W        W57524   1.446   2.243   3.365
85111W        W57525  27.672   6.849   0.451
85112W        W57526  28.957  27.123   4.606
85113W        W57527  31.999  24.486  13.896
85114W        W57528   4.908  32.017  10.592
85115W        W57529  25.036  13.617  13.547
85116W        W57530   5.335  27.103   4.756
85117W        W57531   2.921  40.942  14.861
85118W        W57532  18.742  42.838  11.520
85119W        W57533  12.722  10.350  12.074
85120W        W57534   4.343  21.224   4.331
85121W        W57535   7.234  29.608   3.193
85122W        W57536  23.153   7.208   4.218
85123W        W57537  24.492  15.287   5.644
85124W        W57538   7.688  40.827  13.343
85125W        W57539  24.113   3.265  10.496
85126W        W57540  13.753  26.201  10.431
85127W        W57541   6.714  14.744  10.452
85128W        W57542  14.226  25.482   1.763
85129W        W57543  31.495  13.777   4.607
85130W        W57544  26.610  29.146   5.230
85131W        W57545  18.145   0.447   5.108
85132W        W57546  42.505  23.238   4.288
85133W        W57547  17.788  33.875   1.266
85134W        W57548  31.567  34.866   4.621
85135W        W57549  37.398  42.777   3.732
85136W        W57550  28.008  23.990   0.332
85137W        W57551   9.190   6.335   4.278
85138W        W57552  37.414   3.397   1.379
85139W        W57553  34.437   9.177  14.767
85140W        W57554  34.566  41.911   3.828
85141W        W57555  34.495  16.073  14.360
85142W        W57556   6.746  17.242   4.684
85143W        W57557   3.802  36.586   0.924
85144W        W57558  11.785   8.205   1.757
85145W        W57559   1.377  33.525   1.234
85146W        W57560  44.996  21.150  13.995
85147W        W57561  10.245  41.816   2.741
85148W        W57562  28.072  41.480  14.918
85149W        W57563   4.894  28.657  14.416
85150W        W57564  16.594  41.473  13.006
85151W        W57565  36.408  20.674   1.342
85152W        W57566   3.234   5.916   2.833
85153W        W57567   2.425   1.454  12.875
85154W        W57568  18.253  31.505  13.957
85155W        W57569  34.972  19.609  14.828
85156W        W57570  43.359  27.567   4.137
85157W        W57571  37.002  16.571   2.733
85158W        W57572   6.782   9.813  13.327
85159W        W57573  14.765  21.583   1.696
85160W        W57574  17.235   2.771  13.804
85161W        W57575  11.747  40.337  13.825
85162W        W57576  23.587  36.509  12.397
85163W        W57577  32.430   6.419  11.471
85164W        W57578  12.810   4.447   3.657
85165W        W57579  30.057  36.097  13.834
85166W        W57580   5.254   4.248   2.705
85167W        W57581  32.055  44.410  10.994
85168W        W57582  43.966  30.970  12.400
85169W        W57583  21.079   2.774   1.451
85170W        W57584  38.367  11.749   4.248
85171W        W57585  20.572  43.952  11.551
85172W        W57586  41.346  25.648   4.663
85173W        W57587  37.876  25.962   4.627
85174W        W57588  16.173  39.352   2.389
85175W        W57589  35.941  19.778   3.152
85176W        W57590  41.499  36.467   2.746
85177W        W57591  23.196  21.638  12.436
85178W        W57592  23.526  37.366   4.344
85179W        W57593  36.576  29.141   4.834
85180W        W57594   9.784  44.414  11.964
85181W        W57595   0.931   9.337   2.267
85182W        W57596   0.410  30.923   1.886
85183W        W57597  23.169  18.564  14.967
85184W        W57598  39.967   2.773  14.306
85185W        W57599  28.636  10.727  10.582
85186W        W57600   9.645  10.791  10.578
85187W        W57601  29.073  20.635  14.504
85188W        W57602  12.127  33.958   3.849
85189W        W57603  15.327  16.753   5.658
85190W        W57604  34.369   8.854  12.980
85191W        W57605  16.645  43.018   0.249
85192W        W57606  23.227  39.066  13.346
85193W        W57607  42.779  40.428   2.843
85194W        W57608  32.050  41.324   4.777
85195W        W57609  18.680   5.198  14.000
85196W        W57610   0.753  43.807  12.042
85197W        W57611  15.617  13.243   1.414
85198W        W57612  43.813  21.231   0.404
85199W        W57613  44.876  43.900  14.973
85200W        W57614  31.627  30.034   4.181
85201W        W57615  30.004  40.828  10.534
85202W        W57616  14.309  28.007  12.544
85203W        W57617  30.465  18.196  10.547
85204W        W57618  20.673  27.038   0.844
85205W        W57619  25.526  42.003   0.311
85206W        W57620  27.546  23.541  12.472
85207W        W57621  23.077  20.612  13.047
85208W        W57622  35.438  34.469  13.983
85209W        W57623  35.519   6.269   2.791
85210W        W57624   4.817  25.488  14.877
85211W        W57625  22.195  40.963  11.925
85212W        W57626  43.423   3.919  12.974
85213W        W57627  15.242   8.682  12.528
85214W        W57628  24.084   0.772  12.422
85215W        W57629  29.579  39.965   0.830
85216W        W57630  26.661   8.767  11.428
85217W        W57631  42.408  28.492  13.315
85218W        W57632  24.583  37.069   2.811
85219W        W57633  19.721   3.929  10.448
85220W        W57634   0.334  22.622  13.797
85221W        W57635  25.049  28.086  12.859
85222W        W57636   0.435   2.728  11.397
85223W        W57637  29.448  29.545   1.756
85224W        W57638   9.737  19.748  14.307
85225W        W57639  16.086  21.631   2.400
85226W        W57640   4.449  13.148   0.758
85227W        W57641  44.839  15.592   4.224
85228W        W57642   1.933   9.277   2.416
85229W        W57643   6.837   1.850  10.905
85230W        W57644  30.483  32.983   0.272
85231W        W57645  12.766   3.855  14.978
85232W        W57646  28.583  15.207  11.022
85233W        W57647  38.548  32.098  14.292
85234W        W57648  18.596  17.138   2.306
85235W        W57649  32.980  25.480   0.737
85236W        W57650  43.886  31.917  11.930
85237W        W57651  41.809  27.606  13.462
85238W        W57652  24.018  23.722  11.398
85239W        W57653  20.657  17.666  14.006
85240W        W57654  32.916   2.913   2.274
85241W        W57655  41.878   2.747  13.400
85242W        W57656  16.132  24.559  12.927
85243W        W57657  25.051  44.306   9.932
85244W        W57658  25.535  18.191   4.812
85245W        W57659  17.081  14.204  10.631
85246W        W57660  44.466   4.430  14.935
85247W        W57661   9.700   9.358   1.297
85248W        W57662  13.328  41.008  11.587
85249W        W57663  10.848  12.709  13.528
85250W        W57664  12.821  15.129  14.985
85251W        W57665  22.632   9.847   4.235
85252W        W57666  33.935  20.263   1.353
85253W        W57667  36.434  26.032   1.753
85254W        W57668  10.765  30.107  14.385
85255W        W57669  36.854  17.125  14.300
85256W        W57670   8.250  13.245  13.458
85257W        W57671   0.396  36.875  12.427
85258W        W57672  37.877  19.562   4.799
85259W        W57673   6.342  19.253  13.851
85260W        W57674  12.154  30.554   4.128
85261W        W57675  21.753  12.338  12.976
85262W        W57676  21.085   6.877   4.830
85263W        W57677  20.660   0.306  13.456
85264W        W57678  22.169  15.311   2.232
85265W        W57679   7.274  29.972   2.783
85266W        W57680  41.334  44.996  12.913
85267W        W57681  32.586  13.668  12.017
85268W        W57682  26.092  15.750  13.798
85269W        W57683   3.220  23.670   4.220
85270W        W57684  28.571   8.791  14.971
85271W        W57685  30.421  41.034   0.874
85272W        W57686  30.530  17.777   4.815
85273W        W57687  44.917  36.434   0.877
85274W        W57688  13.661  37.419   0.409
85275W        W57689  12.749   4.872   1.837
85276W        W57690  12.623  39.316  14.490
85277W        W57691   3.456  24.206   4.673
85278W        W57692  39.459  26.685   0.336
85279W        W57693  14.800  25.563   1.932
85280W        W57694  40.318  17.258   4.329
85281W        W57695  12.657  17.291   1.819
85282W        W57696  23.202  31.135   0.414
85283W        W57697  29.016  34.373   0.820
85284W        W57698  32.886  12.157  12.016
85285W        W57699  21.177  26.952   0.875
85286W        W57700  42.969  37.968  10.462
85287W        W57701  22.119  21.057  10.559
85288W        W57702   7.371  19.766  12.081
85289W        W57703  14.821   3.304  13.852
85290W        W57704  40.392  18.267   4.280
85291W        W57705   5.224   9.245   2.398
85292W        W57706  31.907   8.389   2.889
85293W        W57707  40.454  12.351  10.578
85294W        W57708  24.557  19.279  12.398
85295W        W57709  33.403  34.050  12.528
85296W        W57710  41.507  41.042  12.990
85297W        W57711  26.199  39.460  10.597
85298W        W57712  37.874  24.042  12.412
85299W        W57713  31.433  40.889  11.415
85300W        W57714  34.597  27.061   3.267
85301W        W57715   1.273   6.824  13.347
85302W        W57716  39.389  26.502  10.586
85303W        W57717  20.070  10.274  12.555
85304W        W57718   1.277  31.017   0.753
85305W        W57719   6.416   8.899   2.670
85306W        W57720  13.195  26.007  13.333
85307W        W57721  32.952  13.207  10.447
85308W        W57722   9.173  17.732  11.439
85309W        W57723  43.376   6.789   3.773
85310W        W57724  32.434   9.350  11.403
85311W        W57725  17.713  26.078   4.836
85312W        W57726  32.522  35.028   2.892
85313W        W57727  36.374   4.870   1.710
85314W        W57728  19.279  37.507   4.802
85315W        W57729  32.599  16.305   1.898
85316W        W57730  37.455  37.086   2.268
85317W        W57731  25.528  39.554   2.374
85318W        W57732  31.019  17.584   4.680
85319W        W57733   8.206  32.606   4.210
85320W        W57734  30.413   1.417  11.499
85321W        W57735  19.279  33.519  14.901
85322W        W57736   7.799  21.580  13.979
85323W        W57737  35.109  14.147   0.960
85324W        W57738  22.722  17.766  14.914
85325W        W57739  20.116  24.019  12.096
85326W        W57740  16.663  36.355  11.122
85327W        W57741  39.464   2.376   1.286
85328W        W57742  25.659   1.750   5.164
85329W        W57743  43.284  14.780  13.492
85330W        W57744  34.384  41.885  13.969
85331W        W57745  11.802  38.848  12.905
85332W        W57746  33.499  20.110  11.570
85333W        W57747  40.363   2.844  11.884
85334W        W57748  22.175  14.271  12.028
85335W        W57749   2.409  42.319  10.535
85336W        W57750  42.777  37.944  12.553
85337W        W57751  32.441  42.439   0.261
85338W        W57752  27.074  30.645   3.169
85339W        W57753  40.305  27.604  13.980
85340W        W57754  43.896  16.769  12.951
85341W        W57755  11.714  18.208   0.442
85342W        W57756  17.581  27.119   2.370
85343W        W57757  20.266   3.370   9.994
85344W        W57758  40.864   2.834  14.861
85345W        W57759   4.744   2.750  11.586
85346W        W57760  34.913  22.142  14.320
85347W        W57761  32.454   4.353   0.392
85348W        W57762   7.335  31.592   1.834
85349W        W57763  22.576  15.717   3.296
85350W        W57764  11.707  14.696  10.441
85351W        W57765  38.005  29.146   3.187
85352W        W57766  37.453  41.872   2.308
85353W        W57767  10.727   1.445  11.575
85354W        W57768  13.629  35.396  12.421
85355W        W57769  34.499   3.747  12.466
85356W        W57770  40.408   8.209  12.517
85357W        W57771  34.068  28.165   0.450
85358W        W57772  10.172  31.574   3.318
85359W        W57773  13.757  41.041  13.523
85360W        W57774  14.218  34.993  13.487
85361W        W57775  34.475  15.653  11.588
85362W        W57776   6.418  28.557   3.764
85363W        W57777  32.430  20.229   0.345
85364W        W57778   9.177  36.079  13.461
85365W        W57779  35.913  26.000  13.400
85366W        W57780  34.997  22.228  13.479
85367W        W57781   7.203   5.830   3.288
85368W        W57782   3.772  40.845   1.842
85369W        W57783  34.432  38.933  13.486
85370W        W57784   5.211  33.534   3.193
85371W        W57785  11.307  32.502   4.705
85372W        W57786  22.614  14.323   1.796
85373W        W57787   7.381   7.870   4.773
85374W        W57788  19.645   9.812   2.280
85375W        W57789  41.975  30.000   3.813
85376W        W57790  37.504  10.254  13.518
85377W        W57791  24.480  21.753  10.506
85378W        W57792  28.982  23.542  13.354
85379W        W57793  12.334  32.029   0.282
85380W        W57794  30.612  19.628  11.866
85381W        W57795  19.664  25.037  11.909
85382W        W57796  17.775  31.933   2.305
85383W        W57797   9.196  31.149   3.335
85384W        W57798   8.359   2.300   3.649
85385W        W57799  34.898  41.507  11.072
85386W        W57800  40.536  26.696  10.937
85387W        W57801  12.341   9.696   2.315
85388W        W57802  10.314  32.918   4.309
85389W        W57803   9.246  20.086   2.701
85390W        W57804   0.377  21.538   1.727
85391W        W57805   2.958   6.235   1.270
85392W        W57806  37.560  36.015   0.337
85393W        W57807  11.654  10.754  11.871
85394W        W57808   9.832  38.020   3.374
85395W        W57809  24.182  13.744  11.607
85396W        W57810  12.716  24.187  13.332
85397W        W57811  31.415  42.802   2.750
85398W        W57812  26.474  12.254   1.927
85399W        W57813   5.827  27.132  10.540
85400W        W57814  18.573  29.973  14.286
85401W        W57815  44.393  18.725  11.543
85402W        W57816  18.658   1.334  14.781
85403W        W57817  21.055  17.715  12.374
85404W        W57818  23.708  17.071  14.512
85405W        W57819   9.208  12.172  12.909
85406W        W57820  37.504   2.963   0.809
85407W        W57821  34.461  12.262   3.824
85408W        W57822  12.764  35.890   3.693
85409W        W57823  36.899   6.426   0.734
85410W        W57824  41.877  13.310  11.490
85411W        W57825  24.040  10.191   2.398
85412W        W57826   4.369  19.577   2.249
85413W        W57827  10.224  36.093   0.847
85414W        W57828  12.348  35.952  11.477
85415W        W57829  43.016   7.849  13.506
85416W        W57830   0.357   1.882  11.961
85417W        W57831  22.200  43.875  11.058
85418W        W57832  23.059  14.608  11.473
85419W        W57833  30.101  15.710  14.021
85420W        W57834  36.096  39.333   4.659
85421W        W57835  21.223  32.110  12.351
85422W        W57836   8.201  43.504  11.609
85423W        W57837   5.253  40.977  14.472
85424W        W57838  44.285  15.585   4.713
85425W        W57839  24.178   5.775   4.714
85426W        W57840  21.574  17.581  14.969
85427W        W57841  31.030  27.496   3.818
85428W        W57842  32.405  22.612   0.930
85429W        W57843  36.856  31.581  13.328
85430W        W57844   7.301  17.699   2.410
85431W        W57845   8.192   7.388  12.908
85432W        W57846  18.768  10.314  13.933
85433W        W57847  31.564  39.904   0.404
85434W        W57848   7.683  14.187  12.866
85435W        W57849  22.180   3.354  14.762
85436W        W57850  35.523  29.600   3.729
85437W        W57851  44.968   5.838  12.861
85438W        W57852  42.013  33.411   2.862
85439W        W57853  18.684  44.301   2.413
85440W        W57854  33.076  28.157  10.966
85441W        W57855  36.361   8.799  12.357
85442W        W57856  23.053  42.850  14.987
85443W        W57857   9.281  37.448   0.340
85444W        W57858  17.607  36.871   3.832
85445W        W57859  24.227  36.582  10.450
85446W        W57860   5.246   0.467  14.944
85447W        W57861  28.168   7.402  10.916
85448W        W57862  41.840   6.187   3.283
85449W        W57863   2.235  22.563  13.889
85450W        W57864  18.161  37.845   4.724
85451W        W57865  39.356   7.309  14.978
85452W        W57866  27.952  42.342  13.944
85453W        W57867   8.704   0.356  12.932
85454W        W57868  18.699  40.461  11.592
85455W        W57869  44.316  10.305  11.403
85456W        W57870  26.654  35.006  13.443
85457W        W57871   9.276  30.587   2.770
85458W        W57872   9.334  16.751   0.435
85459W        W57873  18.684  24.575  12.347
85460W        W57874  39.327  37.061   2.251
85461W        W57875  30.456  27.658   4.616
85462W        W57876  37.841  30.048  11.592
85463W        W57877  20.245  32.482   3.710
85464W        W57878  14.772  38.499  14.966
85465W        W57879  27.629   6.421   4.610
85466W        W57880  36.024  21.572   3.832
85467W        W57881  20.547  30.509   1.901
85468W        W57882  12.160  41.403  14.440
85469W        W57883  12.309  11.146   3.322
85470W        W57884  32.421  27.574  14.359
85471W        W57885  44.426   8.187   3.169
85472W        W57886  30.427  19.649  12.526
85473W        W57887  40.540  27.086   1.734
85474W        W57888  39.022  20.737   3.837
85475W        W57889  35.014   5.262   4.618
85476W        W57890  42.888  44.453  13.546
85477W        W57891   9.395  24.671  11.062
85478W        W57892  23.494  39.040   2.400
85479W        W57893   1.746  42.911  11.038
85480W        W57894   4.212   2.730  12.041
85481W        W57895  39.849  12.361   4.808
85482W        W57896  22.187  13.319   2.181
85483W        W57897  42.840  10.275   4.828
85484W        W57898  10.642  26.979  14.896
85485W        W57899  15.207   8.399   3.864
85486W        W57900  22.086   4.447  12.972
85487W        W57901  12.657   0.820   0.894
85488W        W57902   2.965  37.405   3.631
85489W        W57903   5.418   9.352   4.700
85490W        W57904  20.656  39.041   4.311
85491W        W57905  28.130  43.868  12.904
85492W        W57906  16.150  14.822   1.442
85493W        W57907  39.023  22.640   0.289
85494W        W57908  23.567  25.050  12.454
85495W        W57909  35.405  16.299  14.796
85496W        W57910  23.656  28.976   0.785
85497W        W57911   9.394  12.288  13.958
85498W        W57912  25.634   7.316   2.230
85499W        W57913   8.695   7.870  11.531
85500W        W57914  35.939  32.076   1.347
85501W        W57915   2.820   0.399   1.816
85502W        W57916   4.247   7.887   1.815
85503W        W57917   6.895  36.975  13.063
85504W        W57918  15.145   6.909  12.544
85505W        W57919  35.044  23.532   9.626
85506W        W57920  28.617  10.827  10.895
85507W        W57921   7.823  35.361  11.901
85508W        W57922  38.414  19.177  13.416
85509W        W57923  29.555  33.531   9.925
85510W        W57924  11.677   4.323   0.406
85511W        W57925  28.041  10.263   4.773
85512W        W57926   3.745  30.464  14.455
85513W        W57927  37.490  16.687  11.977
85514W        W57928  27.588   1.896  10.938
85515W        W57929   9.289   6.904  14.768
85516W        W57930  18.582  20.733   0.295
85517W        W57931  32.891   5.771   1.267
85518W        W57932   6.348  17.239   5.322
85519W        W57933  12.165  17.674  14.353
85520W        W57934   5.814  11.161   3.815
85521W        W57935  29.090  20.272   2.885
85522W        W57936  21.567  13.249  10.158
85523W        W57937  30.085  32.923  13.937
85524W        W57938  27.055  11.712   3.858
85525W        W57939  19.679  11.129   1.433
85526W        W57940  26.502  37.479   2.206
85527W        W57941  29.940  22.230  13.347
85528W        W57942   8.685   6.877   3.310
85529W        W57943  21.574  15.597   3.634
85530W        W57944  19.749  17.236  11.918
85531W        W57945   8.367  14.192  11.891
85532W        W57946   1.345  27.059   2.359
85533W        W57947  20.122  13.166  10.446
85534W        W57948  13.722   6.208  10.516
85535W        W57949  19.237  36.391   1.694
85536W        W57950  31.999  18.768   5.222
85537W        W57951   1.469  34.516   2.882
85538W        W57952  18.190  10.678   3.808
85539W        W57953  13.741   0.835   4.200
85540W        W57954  20.669  17.768  13.472
85541W        W57955  36.493  20.734  11.999
85542W        W57956  26.471  30.571  11.107
85543W        W57957   9.377  19.125  12.916
85544W        W57958  13.687  25.176   2.236
85545W        W57959  36.888  42.472  11.505
85546W        W57960  17.727  23.193  13.964
85547W        W57961   5.813  17.074  11.000
85548W        W57962  35.375  36.566   0.262
85549W        W57963   6.376  44.006   3.301
85550W        W57964   3.782  32.920   0.317
85551W        W57965  41.486  28.448   3.675
85552W        W57966   4.364  15.658  14.926
85553W        W57967   8.292   9.202   1.273
85554W        W57968  43.994  10.683   1.231
85555W        W57969  19.202   0.944  11.510
85556W        W57970  18.787  40.933  14.942
85557W        W57971  27.654   5.386  12.068
85558W        W57972  31.547   5.779  12.450
85559W        W57973  21.017  30.021   4.780
85560W        W57974  28.625  42.387   1.326
85561W        W57975  26.482  43.784  14.335
85562W        W57976  34.996  15.235  13.474
85563W        W57977   3.767   6.897   0.309
85564W        W57978  30.931  40.361   3.869
85565W        W57979  13.704  25.174   1.246
85566W        W57980  42.890  41.963   5.117
85567W        W57981  43.516  20.169  14.477
85568W        W57982  12.224  21.084   3.345
85569W        W57983  21.675  43.925  14.418
85570W        W57984  27.962  22.012  13.397
85571W        W57985   1.862  20.077  12.520
85572W        W57986   3.727  39.846  14.994
85573W        W57987   7.866  32.028  13.400
85574W        W57988  26.029  23.720   3.194
85575W        W57989  38.392  35.016  11.129
85576W        W57990  43.397  39.510  13.413
85577W        W57991   5.434  37.994   2.388
85578W        W57992  39.366  44.382  14.418
85579W        W57993  31.024  33.604  10.641
85580W        W57994  38.907  13.763   0.446
85581W        W57995   0.919  26.048  12.000
85582W        W57996  15.210  29.435  12.828
85583W        W57997  18.228  27.558   4.789
85584W        W57998  17.287  36.473   1.372
85585W        W57999  16.705  19.767   2.263
85586W        W58000  14.193  19.739   9.501
85587W        W58001  32.081  27.452   1.862
85588W        W58002  12.148  10.848  10.974
85589W        W58003   6.317  40.919   1.332
85590W        W58004  42.515  30.465  12.341
85591W        W58005  32.602  36.543  13.507
85592W        W58006  37.927  18.194   0.314
85593W        W58007   5.932  16.203   3.252
85594W        W58008  33.394   7.234  11.468
85595W        W58009  17.616  33.899   3.282
85596W        W58010  31.997  36.930   3.211
85597W        W58011  20.764  23.100   4.259
85598W        W58012   7.909  35.058  12.092
85599W        W58013  18.277  14.620  11.014
85600W        W58014  42.470  38.823  12.950
85601W        W58015   9.834  43.944  11.049
85602W        W58016  23.026  29.079  14.900
85603W        W58017  27.100  13.338  12.024
85604W        W58018  37.944  17.622  10.535
85605W        W58019  27.491  18.071  13.813
85606W        W58020   8.190  18.642   4.756
85607W        W58021   2.809   1.947  12.873
85608W        W58022  29.559   7.200  13.973
85609W        W58023  27.675   8.867   3.859
85610W        W58024   4.231  21.135   2.260
85611W        W58025  32.107   8.712   2.218
85612W        W58026  12.259  43.460   2.759
85613W        W58027  35.359   6.694  14.469
85614W        W58028  13.217  41.363   4.743
85615W        W58029  39.024  41.003  14.506
85616W        W58030  15.771  23.556  10.625
85617W        W58031  22.096  22.211  10.495
85618W        W58032  33.981   6.701  13.977
85619W        W58033  23.697   1.335   4.660
85620W        W58034  30.923  14.111   1.788
85621W        W58035  27.454   0.327  14.830
85622W        W58036  22.038   0.348   0.772
85623W        W58037  37.019   0.387   4.172
85624W        W58038  10.326  31.558   0.311
85625W        W58039  19.731  41.863  10.640
85626W        W58040  16.244  41.826   3.320
85627W        W58041   7.769  11.699   4.238
85628W        W58042  39.984   2.288   2.876
85629W        W58043   2.812  17.139  13.374
85630W        W58044  17.567  40.826  11.524
85631W        W58045  40.904  31.416   1.843
85632W        W58046  24.161  35.940  13.928
85633W        W58047   1.377  36.549  13.333
85634W        W58048  13.220   4.781   0.432
85635W        W58049  44.391   3.925   0.482
85636W        W58050  31.472  42.518   1.724
85637W        W58051  23.518  10.758  13.325
85638W        W58052  35.378  15.300   0.426
85639W        W58053   3.242  30.589   0.814
85640W        W58054  34.947   6.861   2.863
85641W        W58055  23.084  13.267   4.113
85642W        W58056  42.848   0.979   1.839
85643W        W58057  36.960  40.818   1.292
85644W        W58058  22.131  17.678   4.205
85645W        W58059  13.180  35.877  12.846
85646W        W58060  32.582  26.622  14.446
85647W        W58061  40.996  23.104   0.281
85648W        W58062  21.036   4.801  14.810
85649W        W58063  37.388  21.205   4.669
85650W        W58064  16.653  13.640   4.798
85651W        W58065  15.291  44.456   1.298
85652W        W58066  12.681  38.400   0.865
85653W        W58067  34.919  15.616   3.844
85654W        W58068  34.376  39.824   3.207
85655W        W58069  16.122   3.434  10.438
85656W        W58070  32.393   4.303   4.141
85657W        W58071   5.859   7.184   4.665
85658W        W58072   4.410  34.998  10.989
85659W        W58073  40.376  27.106   4.631
85660W        W58074   7.211   0.442  10.999
85661W        W58075  31.446   1.362  12.566
85662W        W58076  20.656  32.435   4.627
85663W        W58077   9.679  37.017  13.445
85664W        W58078  40.920  38.030   3.787
85665W        W58079  39.827  23.624   1.851
85666W        W58080  33.061   7.796   3.698
85667W        W58081   0.836  34.446   3.751
85668W        W58082  35.061   2.365   3.216
85669W        W58083  24.668  27.452   2.294
85670W        W58084  38.325  35.070  12.365
85671W        W58085   3.449  25.109  14.839
85672W        W58086   2.776   5.296   1.360
85673W        W58087  43.950   6.817  13.449
85674W        W58088  22.675  33.060   0.898
85675W        W58089  44.452  15.809   0.795
85676W        W58090  15.642  31.589  11.052
85677W        W58091  22.067  15.629  13.014
85678W        W58092  21.187  16.103  14.472
85679W        W58093  19.177  12.344   1.244
85680W        W58094  28.594  17.267   2.738
85681W        W58095   7.704  14.292   2.357
85682W        W58096  18.261  43.014   1.363
85683W        W58097   5.296  18.676   1.821
85684W        W58098  13.231  12.802   4.604
85685W        W58099   2.416  18.152  14.870
85686W        W58100  13.257  20.153  11.553
85687W        W58101   0.267  33.932  13.379
85688W        W58102  17.782  26.093   2.249
85689W        W58103   1.455  26.159  13.432
85690W        W58104  12.346  35.425   4.263
85691W        W58105  42.829  10.348   0.862
85692W        W58106  29.995  23.055  13.853
85693W        W58107   5.753  10.178   1.340
85694W        W58108  42.861  31.998  12.881
85695W        W58109  29.927  23.038   3.731
85696W        W58110  15.171  20.741   0.784
85697W        W58111  35.502  14.795  13.865
85698W        W58112  13.348  24.720  14.427
85699W        W58113  34.394  43.005   1.775
85700W        W58114  25.004  14.212  12.414
85701W        W58115   2.746  31.437  11.557
85702W        W58116  10.861  40.457  13.427
85703W        W58117  16.114  44.849   0.260
85704W        W58118  23.499   0.460   0.887
85705W        W58119  43.491  32.400   4.134
85706W        W58120  21.662  15.262  13.331
85707W        W58121   5.279  34.603  11.914
85708W        W58122  15.643   7.672   5.739
85709W        W58123  43.279  25.595   2.741
85710W        W58124  44.865  21.627  14.469
85711W        W58125  23.685  31.915   4.746
85712W        W58126   1.919  14.589   3.303
85713W        W58127  40.441   0.443  13.820
85714W        W58128  30.131  37.556  14.842
85715W        W58129  21.668  41.791  10.560
85716W        W58130  38.832   5.254   1.331
85717W        W58131  35.539  18.233  12.552
85718W        W58132   5.363  17.185  12.927
85719W        W58133  13.165  24.139  12.387
85720W        W58134  36.360   5.331   0.908
85721W        W58135   4.320  19.596  12.055
85722W        W58136  38.925  41.008  13.026
85723W        W58137  22.076   6.274  11.454
85724W        W58138  11.281  26.170  13.936
85725W        W58139  11.358  17.595  14.305
85726W        W58140   4.725   5.834   3.638
85727W        W58141   4.717  21.058   0.256
85728W        W58142  43.300   6.807   2.250
85729W        W58143   7.868  34.388  10.484
85730W        W58144  19.093  44.415   5.195
85731W        W58145  44.757  28.559   4.313
85732W        W58146  23.720  21.663   2.399
85733W        W58147  12.623  40.430  12.407
85734W        W58148  22.185  34.396  12.492
85735W        W58149  28.957  30.130  13.385
85736W        W58150   4.789  10.198  13.372
85737W        W58151  14.616  24.576   1.306
85738W        W58152   1.389  43.351  12.936
85739W        W58153  18.657   0.475   1.227
85740W        W58154  19.740   6.288   1.417
85741W        W58155  11.703  19.198   1.736
85742W        W58156  43.975   9.323   0.869
85743W        W58157   2.959  16.742   3.821
85744W        W58158  42.935  25.977   4.822
85745W        W58159  40.410   6.277  11.875
85746W        W58160  18.760  43.014  13.351
85747W        W58161  29.465  15.724   3.387
85748W        W58162  28.524  33.488  12.867
85749W        W58163  38.363  15.273   2.325
85750W        W58164  30.127  44.447   3.629
85751W        W58165  37.517   9.227  11.890
85752W        W58166  42.503  22.157   1.746
85753W        W58167   3.259  24.189  13.448
85754W        W58168   5.861  15.687   1.812
85755W        W58169   1.977  20.200   4.730
85756W        W58170   5.400   2.926   3.790
85757W        W58171  36.427  12.789  11.085
85758W        W58172  25.971  26.015   4.812
85759W        W58173  39.492  30.085   2.870
85760W        W58174   9.383   4.345   1.917
85761W        W58175  19.706   3.285  11.055
85762W        W58176  16.567  12.796  13.383
85763W        W58177  10.800   6.877   0.879
85764W        W58178  30.518  32.403   0.914
85765W        W58179  13.747  38.491  11.407
85766W        W58180  22.123  41.339   3.240
85767W        W58181  27.035  14.814   4.835
85768W        W58182  18.252  24.701  11.044
85769W        W58183  35.880  42.437   4.684
85770W        W58184  42.437  32.624   1.323
85771W        W58185  12.178  26.636  10.576
85772W        W58186   1.401   7.671  13.996
85773W        W58187   2.739   4.421  13.988
85774W        W58188  43.352  28.535  11.468
85775W        W58189  36.032  30.596   3.247
85776W        W58190   0.279   7.276  11.500
85777W        W58191  35.410  43.803  11.460
85778W        W58192  19.134  24.231  11.947
85779W        W58193  15.266   7.801  12.859
85780W        W58194  15.190  13.636  14.788
85781W        W58195   7.763   5.689  11.415
85782W        W58196  43.510  18.587  12.416
85783W        W58197   0.390  26.196   1.381
85784W        W58198  41.033   0.400  14.807
85785W        W58199  37.399   5.244  12.042
85786W        W58200  21.222  40.030  11.876
85787W        W58201   3.406  15.108   5.212
85788W        W58202  31.594  35.916  14.330
85789W        W58203   6.885   6.720   0.770
85790W        W58204  21.119  44.450   2.261
85791W        W58205   9.281  15.765  11.879
85792W        W58206   7.306   3.339   5.156
85793W        W58207  32.621   9.812  11.877
85794W        W58208  42.466  33.896  14.803
85795W        W58209  17.769  29.044   0.763
85796W        W58210  39.373  27.507  13.011
85797W        W58211  44.990  14.698   3.359
85798W        W58212   7.845  26.128  12.883
85799W        W58213  38.981  38.906   1.427
85800W        W58214  40.895   1.790   0.938
85801W        W58215  34.605  16.702  10.912
85802W        W58216  19.066  14.280   4.309
85803W        W58217  17.066  24.079  13.958
85804W        W58218   9.883  35.906  11.938
85805W        W58219  34.438  44.333   3.163
85806W        W58220  20.270  17.789  11.424
85807W        W58221  14.218  18.274  14.835
85808W        W58222   5.732  36.987   2.771
85809W        W58223  40.484  12.175  12.366
85810W        W58224  38.002  21.638   0.827
85811W        W58225  11.844  18.676   9.934
85812W        W58226  32.551  37.396  12.974
85813W        W58227  32.886  31.152   4.282
85814W        W58228  40.454  12.218  11.857
85815W        W58229  24.612  29.115   1.211
85816W        W58230  22.511  20.603   4.216
85817W        W58231  37.043  32.436   0.828
85818W        W58232   8.730  13.132  10.934
85819W        W58233  15.777  27.008   1.733
85820W        W58234  33.131  30.538   0.257
85821W        W58235  16.288  39.015  10.519
85822W        W58236  26.960  15.202  12.472
85823W        W58237  18.565  17.221  14.958
85824W        W58238  15.803  31.134   0.795
85825W        W58239  10.708  43.998  10.446
85826W        W58240  29.057  37.846   1.374
85827W        W58241   3.325  14.588   2.266
85828W        W58242  12.751  41.896   1.216
85829W        W58243  19.243  32.608  14.400
85830W        W58244  30.484  31.018  11.491
85831W        W58245   6.225   3.236   1.234
85832W        W58246   1.480  30.619  12.358
85833W        W58247  17.223  13.716   3.176
85834W        W58248  18.739  13.762  12.449
85835W        W58249  30.986  37.560   4.262
85836W        W58250  23.091  15.595   5.165
85837W        W58251  13.196   5.414  13.936
85838W        W58252  34.535  41.538   3.284
85839W        W58253   2.255  15.803   4.738
85840W        W58254   2.833  10.296   3.364
85841W        W58255  12.149  16.752  13.499
85842W        W58256  10.821  42.290  11.899
85843W        W58257  32.441  22.509   1.244
85844W        W58258  21.059  15.207  12.347
85845W        W58259  33.610   9.296   4.193
85846W        W58260   3.334  29.126   1.312
85847W        W58261  34.392  40.843   4.711
85848W        W58262   2.929   3.937  12.850
85849W        W58263   5.415  35.552  13.851
85850W        W58264  15.086  42.308  12.974
85851W        W58265  11.661   3.277   3.719
85852W        W58266  22.505  10.856   2.361
85853W        W58267  26.181  28.154   1.719
85854W        W58268   8.314   2.413  12.417
85855W        W58269  27.618  10.678  13.418
85856W        W58270  44.319  29.131   2.757
85857W        W58271  39.054  18.707   4.610
85858W        W58272  32.984  42.292   3.282
85859W        W58273   6.204  20.752   2.367
85860W        W58274   4.890  10.681  12.989
85861W        W58275  29.047  29.666  11.597
85862W        W58276  24.683   3.284   0.405
85863W        W58277  32.085  44.382   5.244
85864W        W58278   1.244  23.678  14.308
85865W        W58279   9.375  31.150  14.465
85866W        W58280  19.260  10.319   5.313
85867W        W58281  23.120  21.122  10.636
85868W        W58282  29.480   4.740  13.059
85869W        W58283  24.129  31.023   2.248
85870W        W58284  41.332  29.072   1.804
85871W        W58285  31.022  41.963  14.880
85872W        W58286  24.008  11.223   1.451
85873W        W58287  36.001  12.293  13.325
85874W        W58288  23.675   1.344   1.851
85875W        W58289  24.519  33.463   2.284
85876W        W58290  25.525  29.625   0.283
85877W        W58291  21.237  18.693  14.494
85878W        W58292  42.986  21.622  10.468
85879W        W58293  44.310  32.042  14.366
85880W        W58294   0.410  26.667  14.869
85881W        W58295  33.383  41.496  11.442
85882W        W58296  24.194  43.847   9.955
85883W        W58297   7.186  42.832   5.087
85884W        W58298  38.366   2.374  14.399
85885W        W58299  28.980  15.109   4.149
85886W        W58300  20.221   1.850  14.318
85887W        W58301  14.791  17.788   1.731
85888W        W58302   4.389  38.061   0.312
85889W        W58303  23.517  43.973   4.316
85890W        W58304  28.182   3.842   4.215
85891W        W58305  11.627  44.800   0.471
85892W        W58306  15.129  15.732   4.120
85893W        W58307  27.676  36.427  12.381
85894W        W58308  44.426  16.766   5.143
85895W        W58309  25.673  22.618  11.453
85896W        W58310  29.950  15.285   0.919
85897W        W58311  36.567  25.710   3.242
85898W        W58312  34.943  20.101  12.559
85899W        W58313  24.487  16.190  13.443
85900W        W58314   0.745   7.774  14.463
85901W        W58315  34.906   4.867   1.787
85902W        W58316  35.553  10.156  14.417
85903W        W58317  20.756  19.681   0.851
85904W        W58318  37.073   9.335  13.504
85905W        W58319   0.910   9.878   0.939
85906W        W58320  13.243  30.016   1.822
85907W        W58321  17.678  25.970  13.490
85908W        W58322   7.331  14.206   2.278
85909W        W58323  42.007  14.642  14.846
85910W        W58324   1.244  31.043   4.202
85911W        W58325  29.095   6.903   2.784
85912W        W58326  14.261  40.386   5.192
85913W        W58327   4.843  39.429  13.977
85914W        W58328  18.226  20.231   4.806
85915W        W58329  18.686  19.049  13.935
85916W        W58330   2.790  12.304   1.260
85917W        W58331  36.887  39.997  11.857
85918W        W58332  39.822  26.573   4.834
85919W        W58333  25.140  17.164   4.186
85920W        W58334  44.407   3.888  12.354
85921W        W58335   8.701  12.254   2.411
85922W        W58336  15.232  42.017   0.755
85923W        W58337  20.074   3.369  10.909
85924W        W58338  23.214  21.530  11.871
85925W        W58339  29.552  29.061   0.942
85926W        W58340  40.513  12.643   3.720
85927W        W58341  11.302  15.738  14.920
85928W        W58342  25.691  33.410   2.299
85929W        W58343  24.144  19.159   1.233
85930W        W58344   9.855   9.301   3.368
85931W        W58345  35.108  18.580   4.232
85932W        W58346  21.556  23.126  12.544
85933W        W58347  33.068  23.714   5.287
85934W        W58348  18.548  44.930  10.590
85935W        W58349  41.370   1.792   3.796
85936W        W58350   0.324  28.476  11.863
85937W        W58351   7.310  44.769   4.342
85938W        W58352  18.555  21.170  14.025
85939W        W58353  44.002  32.056  12.508
85940W        W58354  44.928  19.533   1.222
85941W        W58355  24.205  40.422  12.358
85942W        W58356  43.945   9.159  13.326
85943W        W58357  10.247  10.773  10.583
85944W        W58358  15.244   1.332   1.329
85945W        W58359  25.551  18.296  14.302
85946W        W58360  38.996  30.416   0.804
85947W        W58361  44.452  11.244   0.935
85948W        W58362  24.602   3.348   0.955
85949W        W58363  36.951  23.088   0.967
85950W        W58364  17.772  28.560  14.340
85951W        W58365  41.035  19.269   2.795
85952W        W58366  38.411  26.961   0.362
85953W        W58367  21.168  40.323  12.418
85954W        W58368  25.191  12.209  12.549
85955W        W58369   2.244   9.181   0.465
85956W        W58370   0.253  33.379   1.226
85957W        W58371   5.816   9.173  12.482
85958W        W58372   6.890  33.406   3.713
85959W        W58373  39.934  29.443  11.038
85960W        W58374  23.142  11.348   3.336
85961W        W58375  17.770   4.398  11.991
85962W        W58376  32.550  16.650  11.102
85963W        W58377  13.299  31.432  11.407
85964W        W58378  36.015  43.939  10.483
85965W        W58379  39.385  26.696   1.391
85966W        W58380   9.237  26.668  13.420
85967W        W58381  16.655   3.258   3.831
85968W        W58382  41.457  35.886   3.217
85969W        W58383   8.797  34.572  10.071
85970W        W58384  34.433  40.889  11.886
85971W        W58385  44.789  33.106  11.963
85972W        W58386  44.439  23.095   4.130
85973W        W58387   5.821  19.755  13.488
85974W        W58388  43.424  39.439  10.571
85975W        W58389   4.717  10.822  11.943
85976W        W58390  37.954   5.803  12.547
85977W        W58391  26.104  36.433  12.580
85978W        W58392  40.985  15.268   0.428
85979W        W58393   5.437  19.060  12.988
85980W        W58394  24.566  31.596   0.393
85981W        W58395   8.763  14.772  13.377
85982W        W58396  40.984  27.046   2.284
85983W        W58397  19.206  40.846  13.423
85984W        W58398  41.309  12.250   1.816
85985W        W58399  31.959  27.586  14.916
85986W        W58400  16.623  36.020   2.686
85987W        W58401  19.733  14.322   2.826
85988W        W58402  31.456  43.515  12.048
85989W        W58403  31.930  41.408   4.184
85990W        W58404  22.742   8.894  12.826
85991W        W58405  31.010  19.564  14.383
85992W        W58406  18.595  21.214   2.186
85993W        W58407   1.862   6.291   1.895
85994W        W58408  33.598  18.178  12.496
85995W        W58409   6.428   1.431  14.842
85996W        W58410  15.120  43.466  11.954
85997W        W58411  33.954  15.606   2.697
85998W        W58412  17.127  42.997   2.358
85999W        W58413   9.772  27.629   0.730
86000W        W58414  28.554  37.580  11.897
86001W        W58415  12.331  37.557   1.694
86002W        W58416  41.512  13.238   0.898
86003W        W58417  17.762  41.366   3.818
86004W        W58418   7.680  42.382  13.923
86005W        W58419  11.706   7.756  12.565
86006W        W58420  17.654  18.599   4.692
86007W        W58421  39.458  17.224  14.336
86008W        W58422  10.375  40.468   1.259
86009W        W58423  13.831   6.723  14.911
86010W        W58424  24.538   0.469   4.313
86011W        W58425  41.442  11.232   0.365
86012W        W58426  37.956  18.251  11.111
86013W        W58427  40.387  28.091  14.807
86014W        W58428  22.231  31.128   4.669
86015W        W58429  36.546   8.677  11.087
86016W        W58430  23.119  44.968  12.931
86017W        W58431   8.667  32.632  11.437
86018W        W58432   4.700   6.770   4.156
86019W        W58433  17.174  28.512  11.462
86020W        W58434  19.713  37.020   3.869
86021W        W58435  42.448  25.970  10.559
86022W        W58436  37.071  32.420  12.430
86023W        W58437   9.776  29.540  13.824
86024W        W58438  24.612   3.749  12.411
86025W        W58439  13.231   6.851  10.086
86026W        W58440  38.023  37.886   3.214
86027W        W58441  33.972  26.023   2.765
86028W        W58442   8.331  33.433  11.548
86029W        W58443  15.736   8.860   0.300
86030W        W58444   2.866  38.977  12.506
86031W        W58445   4.821  17.266  13.883
86032W        W58446  43.853  21.527  13.040
86033W        W58447  24.999  37.909   2.292
86034W        W58448  36.892  16.133  12.568
86035W        W58449  29.501  26.462   1.829
86036W        W58450   8.691  20.059   0.369
86037W        W58451  32.986  12.845   4.742
86038W        W58452  33.395   1.751  12.096
86039W        W58453   9.873   1.347  11.100
86040W        W58454  18.245  18.599  10.928
86041W        W58455  14.143   1.380  11.418
86042W        W58456  20.218  33.424   3.252
86043W        W58457  40.343  23.660  13.468
86044W        W58458  12.685  11.677  12.923
86045W        W58459  27.987   2.752   3.787
86046W        W58460  11.340  38.390  10.470
86047W        W58461  43.901  34.090   3.724
86048W        W58462   9.233  15.701   3.762
86049W        W58463   4.288  27.079  11.010
86050W        W58464  25.487  25.500   4.348
86051W        W58465  10.705  36.491  10.526
86052W        W58466  22.668  35.456  11.903
86053W        W58467   6.686  20.756   4.157
86054W        W58468  10.192   6.256   0.839
86055W        W58469  43.290   1.883   0.732
86056W        W58470  43.326  14.684   4.202
86057W        W58471   1.938   7.253  11.109
86058W        W58472  17.229  41.404  14.411
86059W        W58473  42.786  27.610   3.269
86060W        W58474  10.251  38.026   1.793
86061W        W58475  25.969  33.516   3.681
86062W        W58476   1.322  31.630  14.454
86063W        W58477   8.672  37.419  14.429
86064W        W58478  31.475  15.100   2.696
86065W        W58479  13.617  27.186  10.978
86066W        W58480  15.609  38.400  12.979
86067W        W58481  37.346  35.390  12.829
86068W        W58482  40.522   9.824  12.491
86069W        W58483  31.587   3.227   4.147
86070W        W58484  14.806  18.566  14.917
86071W        W58485   1.458   1.735   1.232
86072W        W58486  33.445  44.489  10.421
86073W        W58487  43.465  29.941  13.445
86074W        W58488  11.167  31.937   4.709
86075W        W58489  41.334   3.831   1.787
86076W        W58490  33.109  42.507   1.836
86077W        W58491  14.103  42.941  11.942
86078W        W58492   5.914  40.488   4.824
86079W        W58493  21.249   0.388   1.370
86080W        W58494  28.499  35.557  14.816
86081W        W58495  25.209   0.805   5.081
86082W        W58496  18.226   3.844  14.852
86083W        W58497   8.324  26.073   1.880
86084W        W58498  13.329  32.470   3.760
86085W        W58499  31.012  21.601  10.446
86086W        W58500   0.896  30.614  10.083
86087W        W58501  23.735  43.945  13.324
86088W        W58502  18.261  23.674  10.634
86089W        W58503  37.904   1.295  11.076
86090W        W58504   9.764  21.244  14.888
86091W        W58505  37.363  41.930   2.732
86092W        W58506   5.835  16.605  11.120
86093W        W58507  39.390  31.147  12.888
86094W        W58508  22.120  12.805  14.347
86095W        W58509  34.085   6.866   3.670
86096W        W58510   4.391  24.499   1.790
86097W        W58511  43.348   7.187  14.369
86098W        W58512  11.744  32.013  13.809
86099W        W58513  42.902  20.139   5.229
86100W        W58514   7.843  38.030   1.922
86101W        W58515   2.757   5.396  11.956
86102W        W58516  32.099   5.414  12.968
86103W        W58517  43.405   2.749   3.305
86104W        W58518  11.168  38.569  12.500
86105W        W58519  41.533  13.226  10.976
86106W        W58520   6.269  43.356  14.490
86107W        W58521  37.004  22.140  12.569
86108W        W58522   1.834   7.703  14.901
86109W        W58523  17.558   1.450   3.156
86110W        W58524  28.130   8.744  12.556
86111W        W58525  28.962  38.376   1.372
86112W        W58526   0.805   8.775  10.084
86113W        W58527  27.688  31.418  11.042
86114W        W58528  24.163  30.927  12.496
86115W        W58529  40.412   2.815  14.800
86116W        W58530  31.534  17.686   4.314
86117W        W58531  41.875  15.785   4.264
86118W        W58532  24.158  35.087   4.284
86119W        W58533  16.771  30.556   1.804
86120W        W58534   0.473  25.962  10.639
86121W        W58535  16.072  44.297  14.986
86122W        W58536  42.789   9.836   0.416
86123W        W58537  31.997  36.987  10.528
86124W        W58538   0.361  19.630   4.245
86125W        W58539  35.999  23.491   4.719
86126W        W58540  15.258   2.437  13.003
86127W        W58541  28.153  11.347  13.475
86128W        W58542   6.799  21.180   4.263
86129W        W58543   3.285  36.845   4.255
86130W        W58544  34.514  12.284   3.156
86131W        W58545  36.893   2.440  13.433
86132W        W58546  22.120   4.794  14.397
86133W        W58547  24.615  33.385  12.412
86134W        W58548  37.474  36.067  13.037
86135W        W58549  18.566   9.727   3.795
86136W        W58550  33.921  22.214  14.451
86137W        W58551  26.057  37.337   3.692
86138W        W58552  12.253  27.543   0.898
86139W        W58553  25.966  14.719   1.909
86140W        W58554  20.581  42.455  10.422
86141W        W58555  36.469  42.440   1.311
86142W        W58556  31.479  41.448  13.964
86143W        W58557  14.735   1.902  13.421
86144W        W58558  23.699  20.244   4.245
86145W        W58559   9.181  35.937   3.870
86146W        W58560  24.170  20.563   0.729
86147W        W58561  29.579  36.977  14.905
86148W        W58562  18.059  31.921   1.280
86149W        W58563   5.868  44.912  13.453
86150W        W58564  27.042  29.487   3.352
86151W        W58565  29.083  31.142  14.460
86152W        W58566   0.776  40.438  14.372
86153W        W58567  40.478  20.596  12.892
86154W        W58568   2.380  44.498  10.959
86155W        W58569   0.922  11.837  13.797
86156W        W58570   9.867  20.523  14.843
86157W        W58571  29.137  33.939   2.862
86158W        W58572  17.564  35.465  10.443
86159W        W58573  37.065  21.030   1.276
86160W        W58574  13.105   0.295  12.406
86161W        W58575  25.216   5.281  12.563
86162W        W58576  25.066   1.241  10.969
86163W        W58577  18.115  25.582  11.593
86164W        W58578  28.083  30.035  14.017
86165W        W58579   6.375  32.048   0.475
86166W        W58580  30.111  11.260   3.315
86167W        W58581   0.393  18.641  14.978
86168W        W58582  24.609   6.225   1.780
86169W        W58583   8.186  13.838   3.715
86170W        W58584  16.600  43.954  13.804
86171W        W58585   0.465  29.621   0.398
86172W        W58586  27.187  24.709  12.010
86173W        W58587  10.800  32.965  11.864
86174W        W58588   3.933  29.627  10.528
86175W        W58589  33.415  43.873  14.012
86176W        W58590  10.763  12.183   4.156
86177W        W58591  33.606  24.498  10.520
86178W        W58592   0.285  14.757   2.673
86179W        W58593  27.570  33.385  12.404
86180W        W58594  36.030   1.886  11.589
86181W        W58595  10.784  20.045   3.187
86182W        W58596  26.660  20.554  10.642
86183W        W58597  31.424  21.238   3.242
86184W        W58598  23.233  23.071   0.298
86185W        W58599   2.418   6.204  12.958
86186W        W58600   9.343  22.224  12.874
86187W        W58601  37.409   0.374   0.824
86188W        W58602   2.413  26.490   5.578
86189W        W58603  37.548  26.171  14.383
86190W        W58604   6.782  36.492  13.321
86191W        W58605  40.023  30.154  14.982
86192W        W58606  34.946  27.144   3.793
86193W        W58607  39.456  21.190   0.952
86194W        W58608  38.918  12.345   4.763
86195W        W58609  31.646  28.611  12.418
86196W        W58610   2.945  26.558   4.751
86197W        W58611  21.657  38.971  13.530
86198W        W58612   4.254   0.753   1.717
86199W        W58613  16.580  11.642   0.480
86200W        W58614  14.678  31.424  13.988
86201W        W58615  24.219  33.387   0.816
86202W        W58616  36.512   9.817   0.380
86203W        W58617  17.233   7.860   3.253
86204W        W58618   3.254  22.504  12.415
86205W        W58619  39.919  35.899  13.854
86206W        W58620  17.170   5.294  12.572
86207W        W58621  37.424  10.701  11.900
86208W        W58622  31.068   1.336   4.730
86209W        W58623  44.284  30.020  11.991
86210W        W58624  42.800  23.654  12.998
86211W        W58625  42.812   1.273   2.693
86212W        W58626   4.873  19.072  11.067
86213W        W58627  23.647  44.912   4.651
86214W        W58628  32.446  15.688   2.240
86215W        W58629   5.872  40.910   3.683
86216W        W58630   2.277  30.546  13.003
86217W        W58631  16.134  41.320  10.542
86218W        W58632  19.578   0.806   0.807
86219W        W58633  42.410  43.940  12.986
86220W        W58634  18.125   1.890  10.899
86221W        W58635  28.976  43.343  13.440
86222W        W58636  23.687  32.982   1.855
86223W        W58637  21.129  39.866  12.505
86224W        W58638  13.338  31.038  11.414
86225W        W58639  22.997  43.866  11.556
86226W        W58640  17.170   9.735   1.450
86227W        W58641  25.533   7.182  10.548
86228W        W58642  44.453  29.454   0.471
86229W        W58643  32.394  17.606  13.436
86230W        W58644  14.125  33.988   3.229
86231W        W58645  23.525  35.091   1.410
86232W        W58646   2.444  21.699  12.933
86233W        W58647   4.750   0.459  13.980
86234W        W58648   4.733  37.400   0.342
86235W        W58649  26.645   5.742  14.488
86236W        W58650   3.755  40.390   5.314
86237W        W58651  17.156   3.224   3.365
86238W        W58652  29.562   1.413  13.040
86239W        W58653  36.584  15.691  11.415
86240W        W58654  24.546  18.726  14.880
86241W        W58655  28.093  18.747  12.088
86242W        W58656  20.745   2.943   1.214
86243W        W58657  12.658   3.743   4.267
86244W        W58658  43.936   0.844   2.706
86245W        W58659  16.613   8.890  13.516
86246W        W58660  18.240  33.968   1.280
86247W        W58661  32.580   5.289  14.500
86248W        W58662  34.033   1.397   3.234
86249W        W58663   1.452  39.498   4.336
86250W        W58664  23.153   2.394  12.955
86251W        W58665  11.628  22.184   0.845
86252W        W58666  17.077   6.293  11.493
86253W        W58667  38.052  36.871  13.420
86254W        W58668  29.481   7.741  14.514
86255W        W58669  19.075  42.855  11.063
86256W        W58670  15.181   9.680  14.827
86257W        W58671  18.577  40.911   4.225
86258W        W58672   3.812  41.956  11.859
86259W        W58673  36.932  26.670   2.744
86260W        W58674   8.168  41.460   2.696
86261W        W58675  44.435  39.546   2.277
86262W        W58676  32.635  20.138  14.967
86263W        W58677  30.161  38.541   3.325
86264W        W58678  44.281  31.146   4.252
86265W        W58679  35.077  39.506   3.642
86266W        W58680   0.476  38.920  10.644
86267W        W58681  40.309  23.699  14.297
86268W        W58682  14.716   4.234  14.275
86269W        W58683  31.417  16.808   0.800
86270W        W58684  33.969  10.868  14.428
86271W        W58685   2.759   9.855  11.593
86272W        W58686  41.353  27.068   2.190
86273W        W58687  12.254  36.381  11.517
86274W        W58688  15.682   3.877  12.091
86275W        W58689  31.070  25.508   3.868
86276W        W58690  11.155  19.774  12.428
86277W        W58691  28.640   7.345  13.060
86278W        W58692  33.998  29.666   1.275
86279W        W58693  24.666  21.667   3.208
86280W        W58694  27.673   7.700  10.468
86281W        W58695  10.810  25.540  14.311
86282W        W58696   3.243   8.811  13.060
86283W        W58697   0.765  28.087  12.462
86284W        W58698  43.939  44.840  13.936
86285W        W58699  21.264  25.190  10.416
86286W        W58700  21.579  28.130  14.930
86287W        W58701  11.139   7.832   0.424
86288W        W58702   3.899  42.949  13.530
86289W        W58703   1.908  29.521   3.723
86290W        W58704  41.294  27.598  10.634
86291W        W58705   0.371   1.919   4.256
86292W        W58706  35.996  31.923  10.532
86293W        W58707  37.499  35.005  11.504
86294W        W58708  40.499  16.649   0.268
86295W        W58709  27.050  31.594  12.405
86296W        W58710  26.585   8.720  10.541
86297W        W58711   3.425  16.097   1.404
86298W        W58712   0.959  28.453  14.797
86299W        W58713  31.647  34.905   1.307
86300W        W58714   0.938  38.567  12.852
86301W        W58715   9.839  23.049   3.720
86302W        W58716  39.940  32.483  11.055
86303W        W58717  22.647   2.467   0.832
86304W        W58718  17.782   0.917  12.490
86305W        W58719   1.810   0.871   0.382
86306W        W58720   8.724   9.885   0.459
86307W        W58721  39.434   7.683   3.305
86308W        W58722  40.958  36.869  13.821
86309W        W58723  28.596   8.236  13.327
86310W        W58724  16.256  37.904  11.437
86311W        W58725   4.402   9.644  14.795
86312W        W58726   2.782  23.613   1.913
86313W        W58727  13.141   0.830   3.211
86314W        W58728  26.699  16.147  14.340
86315W        W58729  14.157  25.158   1.386
86316W        W58730  29.943  37.054   2.404
86317W        W58731   1.406  29.499   3.288
86318W        W58732  13.210  13.662  14.007
86319W        W58733  15.144   2.299   0.952
86320W        W58734  24.048  30.990  11.570
86321W        W58735  33.525  11.249   1.885
86322W        W58736  32.620  26.691   1.726
86323W        W58737  43.479  27.101   2.225
86324W        W58738  10.852  20.733  12.888
86325W        W58739  15.141  26.680   4.178
86326W        W58740  27.191  29.472  10.002
86327W        W58741  27.189   9.176  10.981
86328W        W58742  36.424   2.909   4.733
86329W        W58743  19.199   1.754   0.346
86330W        W58744  34.924  22.585   0.257
86331W        W58745  24.694  26.965  10.408
86332W        W58746   6.741   1.769  14.956
86333W        W58747  32.948  34.907   3.171
86334W        W58748   5.195  14.683   3.646
86335W        W58749  19.735  10.171   0.780
86336W        W58750  11.367   0.358   0.254
86337W        W58751  37.032  20.245   2.259
86338W        W58752  36.966   8.879   4.182
86339W        W58753  14.791  29.089  10.542
86340W        W58754  19.277  40.889   2.410
86341W        W58755   3.794   4.373   1.350
86342W        W58756  25.009   3.265  13.822
86343W        W58757  17.738  23.116  11.420
86344W        W58758  21.127  32.894  14.012
86345W        W58759  11.657  39.927  14.794
86346W        W58760  18.725  21.750   3.252
86347W        W58761  40.331   2.795  13.841
86348W        W58762   9.152   8.667   4.341
86349W        W58763   2.270   8.723   5.264
86350W        W58764  23.094  38.354  13.547
86351W        W58765   7.776  18.689   0.250
86352W        W58766  38.983   7.882   4.798
86353W        W58767  14.284   0.831  10.605
86354W        W58768  15.661  15.260   2.830
86355W        W58769  18.204  27.058   4.612
86356W        W58770  39.884   8.275   2.406
86357W        W58771  20.113  36.389  14.481
86358W        W58772   9.359  13.701  12.036
86359W        W58773   5.767  34.588   2.775
86360W        W58774   6.916  36.448  11.889
86361W        W58775   3.839  22.575   2.210
86362W        W58776  44.860  31.958   3.852
86363W        W58777  28.067  18.626   1.407
86364W        W58778  22.048   9.826   4.637
86365W        W58779  18.693  44.964  11.544
86366W        W58780   1.305  33.545  10.561
86367W        W58781  44.417  26.004  14.953
86368W        W58782  15.144   2.765   0.937
86369W        W58783   6.690  28.079  10.975
86370W        W58784  17.192   2.370   0.428
86371W        W58785  23.066  21.668   2.822
86372W        W58786  40.324  16.112  13.923
86373W        W58787  12.740  33.566   0.957
86374W        W58788   4.824   8.201   4.299
86375W        W58789  29.082  32.068   4.616
86376W        W58790   8.873  15.204  12.016
86377W        W58791   3.938  39.963   9.965
86378W        W58792  39.341  42.885   2.789
86379W        W58793   2.454  29.088  13.044
86380W        W58794  21.104  26.975   3.866
86381W        W58795  10.329  44.929   0.264
86382W        W58796  17.627  21.664  13.501
86383W        W58797  43.005  39.489  13.831
86384W        W58798   5.800   4.936  12.505
86385W        W58799  15.821  34.599   0.471
86386W        W58800  18.652   1.336   3.856
86387W        W58801  28.596  24.675  14.427
86388W        W58802  34.949   1.460   4.294
86389W        W58803  23.232  37.346  10.528
86390W        W58804  40.031  17.135   4.349
86391W        W58805  14.810  11.827  11.104
86392W        W58806  31.554  39.825  11.078
86393W        W58807  34.915   8.680  14.493
86394W        W58808   4.388  29.566   9.973
86395W        W58809  36.466   6.871  11.963
86396W        W58810  37.944   5.388   2.312
86397W        W58811  39.334  20.071  12.960
86398W        W58812  10.232   2.731   2.730
86399W        W58813  27.051   0.775   4.829
86400W        W58814  21.519  41.787   3.187
86401W        W58815   4.370   3.413   2.322
86402W        W58816  43.498  12.698  12.941
86403W        W58817  11.698  43.930  12.932
86404W        W58818  29.527  10.288   2.716
86405W        W58819  21.525  15.140  14.979
86406W        W58820   9.302  25.098   4.640
86407W        W58821  24.716   3.265  12.017
86408W        W58822  42.382  27.060   3.803
86409W        W58823  34.438  16.293   3.226
86410W        W58824  22.078  35.500   4.609
86411W        W58825  44.453   2.317   3.661
86412W        W58826  10.862  14.599   1.831
86413W        W58827  16.089  21.749  14.280
86414W        W58828  22.740  24.500   1.768
86415W        W58829   8.898  24.115  13.968
86416W        W58830  44.905  23.157  10.916
86417W        W58831  41.498  15.626   2.887
86418W        W58832  11.859  35.523  12.048
86419W        W58833   0.384  15.656  14.869
86420W        W58834  40.930  30.955  11.423
86421W        W58835  22.700   7.290  14.780
86422W        W58836   2.783   5.749   3.668
86423W        W58837   2.268  42.891  14.422
86424W        W58838  19.546  18.754  10.414
86425W        W58839   2.932   2.854   1.862
86426W        W58840  24.137  39.968   4.159
86427W        W58841  20.148   9.376   3.252
86428W        W58842  43.982  15.685   0.282
86429W        W58843  40.482  17.161  14.280
86430W        W58844  10.366  17.180   0.368
86431W        W58845  42.346  41.937  14.418
86432W        W58846   8.791   3.427   0.758
86433W        W58847  35.422  26.997   3.225
86434W        W58848  28.532  18.181  10.616
86435W        W58849  27.150   3.406  13.402
86436W        W58850   1.825  16.742   2.673
86437W        W58851  15.116  11.681  11.477
86438W        W58852  40.320  30.513  14.335
86439W        W58853  12.182  26.011  14.327
86440W        W58854  39.972  27.098   3.309
86441W        W58855  22.066  36.094  13.926
86442W        W58856  44.473   8.337   2.300
86443W        W58857  11.229   6.746   2.704
86444W        W58858  17.582  19.621  11.569
86445W        W58859  26.951  30.088   4.191
86446W        W58860  44.856  34.393   4.787
86447W        W58861  32.037  37.489   1.232
86448W        W58862   1.864   9.164   3.849
86449W        W58863  26.064  18.280  11.983
86450W        W58864  30.423   6.704  10.413
86451W        W58865  13.774   3.310   3.774
86452W        W58866  10.828  29.984   3.757
86453W        W58867   4.407   2.865   2.696
86454W        W58868  20.680  14.816   1.332
86455W        W58869   7.370  35.375   3.281
86456W        W58870   3.352  28.105  11.061
86457W        W58871  38.417  25.174   2.871
86458W        W58872  29.628  44.437  11.497
86459W        W58873  40.492  41.948  12.525
86460W        W58874   9.149  32.904  13.979
86461W        W58875  29.005  23.027   1.788
86462W        W58876  16.082  41.904   1.876
86463W        W58877   4.784  19.677   3.183
86464W        W58878  42.013  25.997   3.765
86465W        W58879   6.810  20.738  12.511
86466W        W58880  20.695  29.163  12.053
86467W        W58881  35.495  32.534  13.548
86468W        W58882  42.993  19.066  11.456
86469W        W58883  42.512  36.510  11.383
86470W        W58884  19.057  36.464  11.924
86471W        W58885  12.752  13.830  14.917
86472W        W58886  34.883  27.622   3.663
86473W        W58887  27.153  10.816  11.959
86474W        W58888  38.419  19.241   3.733
86475W        W58889  41.301  27.080  13.377
86476W        W58890   5.312  15.653  12.565
86477W        W58891  33.605   5.350  11.919
86478W        W58892  17.205  19.281   1.791
86479W        W58893  15.303  28.007  10.419
86480W        W58894  23.578  28.049  12.483
86481W        W58895  13.601   1.459  13.465
86482W        W58896  32.489  23.637   1.216
86483W        W58897  34.873   3.254  10.012
86484W        W58898   4.208   6.920  10.893
86485W        W58899  19.199   2.745   2.731
86486W        W58900  18.629   1.930   2.807
86487W        W58901  14.767  30.979   2.279
86488W        W58902  43.961  12.344   0.392
86489W        W58903  24.086  19.140  13.874
86490W        W58904  25.672  17.135  12.983
86491W        W58905  22.526  29.594  10.998
86492W        W58906  22.108  19.044   1.439
86493W        W58907  40.845  37.444  14.508
86494W        W58908   3.751  30.454   2.781
86495W        W58909  38.064  44.950  14.488
86496W        W58910  27.526   5.287   4.267
86497W        W58911  27.076  29.971  12.839
86498W        W58912   2.912  39.413  13.008
86499W        W58913  42.020  23.643   5.098
86500W        W58914   5.767  40.542   3.744
86501W        W58915  32.630  23.721   0.361
86502W        W58916   9.694  37.873  13.009
86503W        W58917  31.623  11.149   0.752
86504W        W58918  36.508  30.103  12.435
86505W        W58919   9.267   6.853  11.968
86506W        W58920  44.421  37.992  13.533
86507W        W58921  41.948  11.255   4.240
86508W        W58922  23.011  29.538  12.550
86509W        W58923   3.336  33.035  10.611
86510W        W58924  36.052  19.550   1.805
86511W        W58925  44.492  41.805   2.690
86512W        W58926  23.652  27.590   4.614
86513W        W58927  31.035   2.816   4.330
86514W        W58928  27.994  11.797   1.880
86515W        W58929   8.789  40.405  14.928
86516W        W58930  21.717  30.012  11.577
86517W        W58931  13.215  19.551   4.226
86518W        W58932  12.298  20.096  11.607
86519W        W58933  36.439  30.658   5.304
86520W        W58934  22.082   1.846  10.561
86521W        W58935  29.454  14.647  11.096
86522W        W58936   1.773  29.445   0.757
86523W        W58937  28.065  11.734   3.252
86524W        W58938  34.524  31.084  11.901
86525W        W58939  13.722   5.740   1.791
86526W        W58940  11.206  40.923  13.468
86527W        W58941  34.869  20.724  14.954
86528W        W58942  10.292   5.780  11.085
86529W        W58943  19.631   4.805   0.356
86530W        W58944  15.783   1.269   3.342
86531W        W58945  11.664  37.547   0.874
86532W        W58946  43.956  38.875  13.387
86533W        W58947  38.897  14.603   2.260
86534W        W58948  22.533  42.910  13.951
86535W        W58949  18.568  23.223   0.779
86536W        W58950  29.128  15.108   2.808
86537W        W58951  41.020  41.004   2.772
86538W        W58952  10.201  29.028   3.335
86539W        W58953  10.174   2.293  13.039
86540W        W58954   0.455  34.095  12.021
86541W        W58955   2.865  27.985   1.716
86542W        W58956  29.980  33.554   4.282
86543W        W58957  42.875  33.902   3.856
86544W        W58958   0.336   1.947  14.859
86545W        W58959  36.535  31.062  14.778
86546W        W58960  13.192  11.678  11.438
86547W        W58961   4.741  12.752   5.091
86548W        W58962   7.719  26.624  10.453
86549W        W58963  43.308  35.884   4.272
86550W        W58964  41.494  24.633   3.316
86551W        W58965   2.461   1.842  10.540
86552W        W58966  22.046   2.430  11.578
86553W        W58967  32.625   4.288   1.361
86554W        W58968  36.072  21.618   0.726
86555W        W58969  28.560  24.151   4.614
86556W        W58970   0.782  40.900   1.778
86557W        W58971   8.730  17.698   4.770
86558W        W58972   2.417  25.219  13.832
86559W        W58973  27.489  21.677  10.952
86560W        W58974   5.919  24.517  12.928
86561W        W58975  31.572  36.089  13.051
86562W        W58976  13.175   6.418  11.464
86563W        W58977  18.162  18.118  12.858
86564W        W58978  32.448  19.077   2.850
86565W        W58979   2.252  12.805  12.494
86566W        W58980  17.724  26.546   1.916
86567W        W58981  43.888  27.188  11.114
86568W        W58982   9.683   4.940  11.555
86569W        W58983  39.401  27.178   3.684
86570W        W58984  24.683   2.292   1.912
86571W        W58985  41.400  12.199  14.426
86572W        W58986  25.513  16.177  13.413
86573W        W58987  32.038  38.835  14.764
86574W        W58988  39.927  44.444   0.749
86575W        W58989  25.972  10.776  11.095
86576W        W58990  40.493  16.658  14.286
86577W        W58991   6.361  12.136   3.700
86578W        W58992  30.622   6.195   3.231
86579W        W58993  26.145  27.459  12.947
86580W        W58994  27.953  33.415   2.318
86581W        W58995  29.577  43.956   0.458
86582W        W58996  11.749  14.284   0.359
86583W        W58997  30.019   7.768  12.564
86584W        W58998  44.322  16.166  11.007
86585W        W58999  40.528  40.314   3.660
86586W        W59000  14.116  32.067  13.393
86587W        W59001  17.699  25.190   1.447
86588W        W59002  35.514   4.734   0.298
86589W        W59003   5.206   1.252  13.811
86590W        W59004  24.488   1.461   4.300
86591W        W59005   4.242   4.921  10.910
86592W        W59006  16.248   8.278  13.511
86593W        W59007   4.850  43.767  10.514
86594W        W59008  18.137  40.465  13.512
86595W        W59009  19.285  44.979  14.424
86596W        W59010   2.243  12.715   4.734
86597W        W59011  34.055  44.004   0.761
86598W        W59012  29.651  15.760   3.822
86599W        W59013  35.562  13.812   4.354
86600W        W59014  43.942  35.040  12.549
86601W        W59015  27.071   1.355  13.803
86602W        W59016  17.129  20.602   4.278
86603W        W59017  17.199  37.518   1.774
86604W        W59018  30.148   0.759  12.839
86605W        W59019   2.242  29.432  12.964
86606W        W59020  11.647  31.563  12.936
86607W        W59021   6.732  32.479  14.354
86608W        W59022  41.311  43.006   3.772
86609W        W59023  13.323  26.597   2.355
86610W        W59024  12.772  44.381  11.375
86611W        W59025  12.271  35.032   4.160
86612W        W59026  12.171  16.224  12.557
86613W        W59027   7.844  11.275   0.435
86614W        W59028   6.730  42.369   0.420
86615W        W59029   8.220  29.602   2.203
86616W        W59030  13.262  18.224  10.053
86617W        W59031  40.351  36.555  13.458
86618W        W59032   9.656  31.585   4.228
86619W        W59033  44.891  13.211   0.874
86620W        W59034   3.741  36.518  11.043
86621W        W59035  35.943   8.264  14.936
86622W        W59036  33.579  19.069   1.776
86623W        W59037  15.280   5.885   0.918
86624W        W59038  37.491  12.621  10.620
86625W        W59039  44.301  42.472  12.503
86626W        W59040  15.706  17.101   0.818
86627W        W59041   1.251  14.775   4.686
86628W        W59042  12.784  43.900   0.472
86629W        W59043  16.140  29.932   4.263
86630W        W59044   2.337   5.408  10.447
86631W        W59045   5.908  18.566  13.797
86632W        W59046  38.494  33.477   2.669
86633W        W59047  37.340  34.864  14.932
86634W        W59048  33.426   6.890  13.528
86635W        W59049  34.911   9.757   3.707
86636W        W59050   1.353  40.501  13.417
86637W        W59051   8.283  12.630   4.649
86638W        W59052   6.760   8.661  14.289
86639W        W59053   4.413   6.397  13.038
86640W        W59054   7.336  21.089   5.258
86641W        W59055  20.534  34.536   2.305
86642W        W59056  28.569  42.369   2.756
86643W        W59057   4.346  25.215   0.264
86644W        W59058  15.328  24.222   0.931
86645W        W59059   9.175  39.856  13.049
86646W        W59060  18.276  11.740  12.575
86647W        W59061   6.803  39.340   2.870
86648W        W59062  18.181  40.986   0.865
86649W        W59063  43.290  10.374  10.489
86650W        W59064  12.709  32.104   4.286
86651W        W59065  39.359  30.067   3.640
86652W        W59066  30.914  41.536   4.608
86653W        W59067  31.473   1.944  11.530
86654W        W59068  39.340  20.527   0.308
86655W        W59069  40.397  13.314  13.821
86656W        W59070  16.138  23.122  10.467
86657W        W59071  25.570  21.689   0.758
86658W        W59072  40.836  21.059  11.479
86659W        W59073  20.209  32.495  14.784
86660W        W59074  13.805  13.169  12.084
86661W        W59075  29.031  24.189   4.794
86662W        W59076   9.674  31.628   0.877
86663W        W59077  32.477  38.928   2.203
86664W        W59078   8.677   2.275  12.433
86665W        W59079   5.362  30.943   4.826
86666W        W59080  14.724  36.406  14.831
86667W        W59081  42.505  11.861  14.022
86668W        W59082  35.889  32.598  13.057
86669W        W59083  22.649   6.399  14.814
86670W        W59084  10.656  20.672   0.914
86671W        W59085  16.568   8.868   0.745
86672W        W59086  42.345  11.311  11.519
86673W        W59087  26.176  34.022  14.390
86674W        W59088   4.805  12.652  10.967
86675W        W59089  31.645  25.585  13.392
86676W        W59090  35.602  13.837  11.414
86677W        W59091   3.277  17.294  10.892
86678W        W59092  42.363   8.860   3.228
86679W        W59093  24.545  27.620  13.361
86680W        W59094  38.987  28.998   5.167
86681W        W59095  34.057  30.114   4.605
86682W        W59096  17.164  20.663  10.909
86683W        W59097   0.757  39.472   1.924
86684W        W59098  20.237  12.747   4.773
86685W        W59099   5.374   0.363  13.872
86686W        W59100  17.678  17.280   4.337
86687W        W59101   4.836  35.403   2.846
86688W        W59102  11.854   0.856   3.219
86689W        W59103  26.578  36.038  12.402
86690W        W59104  36.852  41.800  10.596
86691W        W59105   8.867  33.937  13.999
86692W        W59106  18.265   1.790   4.779
86693W        W59107  33.024  12.184  10.479
86694W        W59108  13.756  32.444   2.297
86695W        W59109  14.717  17.099   5.649
86696W        W59110  36.885  26.202   3.239
86697W        W59111  36.841   4.339  12.963
86698W        W59112  44.379  37.429  10.909
86699W        W59113  38.353  19.545  12.573
86700W        W59114  40.987  20.559   4.649
86701W        W59115  32.501  27.616  11.942
86702W        W59116  14.123  34.467  11.859
86703W        W59117  36.463  31.122  11.406
86704W        W59118  42.495   3.395  12.361
86705W        W59119   8.700  22.042  13.370
86706W        W59120  33.547  30.022   4.772
86707W        W59121   8.211  15.242   3.362
86708W        W59122  17.596   3.339   1.878
86709W        W59123  18.622  43.358   4.171
86710W        W59124  19.694  20.163  10.461
86711W        W59125  34.950  33.912   0.464
86712W        W59126  27.611  25.070   4.675
86713W        W59127  32.427  42.956   0.401
86714W        W59128  37.076  34.548   1.215
86715W        W59129  34.978   6.722   3.788
86716W        W59130  27.139  29.055  11.099
86717W        W59131  23.580   4.715  14.961
86718W        W59132  12.677  40.022   1.874
86719W        W59133  27.016  17.758  11.572
86720W        W59134  40.382  16.170  10.943
86721W        W59135  23.650  14.794   3.687
86722W        W59136  35.503  26.524   0.305
86723W        W59137  43.330  42.895  14.966
86724W        W59138  37.893  20.133   3.300
86725W        W59139   8.390  41.933   4.797
86726W        W59140  30.624  25.616  14.477
86727W        W59141  36.975  15.622  13.399
86728W        W59142  12.239  36.093  14.428
86729W        W59143  43.291  33.400  14.373
86730W        W59144   1.889  19.682   4.787
86731W        W59145  38.000   6.373  11.445
86732W        W59146  24.522  17.158   2.407
86733W        W59147  42.910   0.815   1.403
86734W        W59148  37.855  36.469   4.145
86735W        W59149  30.636   0.358  13.001
86736W        W59150  32.476   1.364  10.426
86737W        W59151  39.012  36.418  11.550
86738W        W59152  12.178  17.570   4.615
86739W        W59153  15.790  32.451   2.710
86740W        W59154  31.569  36.361  11.097
86741W        W59155  31.586  44.372   3.299
86742W        W59156  30.956   7.885   1.393
86743W        W59157  42.894  14.723   4.609
86744W        W59158  22.158  12.153  12.469
86745W        W59159   5.233  23.635  10.939
86746W        W59160  40.960   8.690  14.946
86747W        W59161   5.776  17.170  13.383
86748W        W59162  36.971   8.688  12.346
86749W        W59163   6.279  20.263  14.778
86750W        W59164   2.299  15.581  10.416
86751W        W59165  33.127  33.005  11.945
86752W        W59166   9.335  22.010  12.439
86753W        W59167  26.031  41.907   4.755
86754W        W59168  20.236  30.535  10.576
86755W        W59169   6.814  12.774   1.932
86756W        W59170  44.912  27.084  14.785
86757W        W59171  31.510  28.440   2.721
86758W        W59172  44.289   8.901   4.175
86759W        W59173  39.431  33.559   1.820
86760W        W59174  24.548   8.206  13.388
86761W        W59175  37.054  12.677   3.352
86762W        W59176  39.554  31.529   3.254
86763W        W59177  15.652  16.765  14.333
86764W        W59178  33.589   8.395  11.536
86765W        W59179   9.172  21.626  11.408
86766W        W59180   6.259   9.187   0.730
86767W        W59181  38.489  17.192  14.304
86768W        W59182  31.045  25.167  10.094
86769W        W59183  37.917   9.211   3.252
86770W        W59184  26.135  36.097   2.894
86771W        W59185  30.079  27.077  14.812
86772W        W59186  41.807   5.422   4.778
86773W        W59187  21.220   0.278   0.471
86774W        W59188  36.505  10.327   1.413
86775W        W59189  35.033   4.915  14.313
86776W        W59190   9.834   4.403   4.709
86777W        W59191   2.438  29.056   1.345
86778W        W59192   6.419  13.220  12.409
86779W        W59193  28.041  18.069  13.352
86780W        W59194   1.957   7.843  12.473
86781W        W59195  38.973  32.903   5.574
86782W        W59196  10.829  33.468   4.768
86783W        W59197  14.197  28.503   2.781
86784W        W59198   5.300   2.375  14.938
86785W        W59199   6.213  16.666   0.304
86786W        W59200  14.206   1.389   0.794
86787W        W59201  31.142  35.531   1.899
86788W        W59202   7.751   7.676   3.837
86789W        W59203  34.917  17.273  14.842
86790W        W59204   7.182   4.285  14.845
86791W        W59205  20.565   6.234   0.825
86792W        W59206  20.078  44.379  12.390
86793W        W59207  42.351  23.189  11.992
86794W        W59208  14.326  32.109   4.641
86795W        W59209  12.254  12.320  10.595
86796W        W59210   0.826  22.237  12.920
86797W        W59211  18.771   5.420  12.907
86798W        W59212  42.922   9.806   2.218
86799W        W59213  10.296  28.099   0.760
86800W        W59214  28.958  38.508   0.929
86801W        W59215  12.276  13.328  11.599
86802W        W59216   7.348   7.711  11.896
86803W        W59217  36.932  17.559   1.748
86804W        W59218  25.107  34.864   3.698
86805W        W59219   1.341  25.218  13.533
86806W        W59220  28.646   4.258  11.425
86807W        W59221  11.817  29.429   0.823
86808W        W59222  15.630  38.868  14.878
86809W        W59223  21.145  11.670  11.858
86810W        W59224   8.855  33.481   3.342
86811W        W59225  10.288  26.575   1.438
86812W        W59226  30.549  31.015   2.221
86813W        W59227  23.991  30.110  13.449
86814W        W59228   9.655  14.602   2.380
86815W        W59229  35.036  33.010   3.810
86816W        W59230  37.582  24.700  12.000
86817W        W59231  38.001  28.144  11.011
86818W        W59232  43.515  21.169  11.493
86819W        W59233  26.141  13.614   0.337
86820W        W59234   3.875  25.583  14.475
86821W        W59235   5.735  10.794  11.925
86822W        W59236  36.395  12.341   1.366
86823W        W59237  28.540  14.254  14.484
86824W        W59238  39.382  33.036  13.946
86825W        W59239  13.635  39.026   4.657
86826W        W59240  31.989   9.228  11.400
86827W        W59241  30.947   1.968  13.957
86828W        W59242  37.542   8.871  10.446
86829W        W59243  18.059  31.609   0.875
86830W        W59244   0.901  28.628   1.332
86831W        W59245   1.311  23.714   3.213
86832W        W59246  37.498   1.769  12.441
86833W        W59247  38.370   5.207   2.796
86834W        W59248   5.238  32.415   0.748
86835W        W59249  30.937   1.364   2.245
86836W        W59250  40.895  37.042   0.779
86837W        W59251  32.415   8.393  11.908
86838W        W59252  24.624  35.017   1.736
86839W        W59253  34.917  34.022  12.526
86840W        W59254  20.273  35.984  13.827
86841W        W59255  33.422  22.548  10.058
86842W        W59256  38.341  18.659   3.149
86843W        W59257   4.734  12.304   2.870
86844W        W59258  38.529  40.959  13.474
86845W        W59259  44.888   7.368   0.939
86846W        W59260  32.124   0.436  13.456
86847W        W59261   6.309  29.532   0.890
86848W        W59262  41.864  41.039  14.921
86849W        W59263  31.995  26.681   3.649
86850W        W59264  28.974  41.433  14.363
86851W        W59265  39.004  15.780   0.347
86852W        W59266  21.250  44.918  14.939
86853W        W59267  21.154  43.284  10.995
86854W        W59268  34.009  31.150   2.370
86855W        W59269   8.888   8.823  13.918
86856W        W59270  13.340  10.753   0.884
86857W        W59271  36.484   5.820  14.435
86858W        W59272  32.543  10.346   0.412
86859W        W59273  34.446  27.123  13.855
86860W        W59274  15.270  39.832   4.808
86861W        W59275  15.647   5.344  13.377
86862W        W59276  36.844  14.331  11.518
86863W        W59277  18.168  21.209  13.831
86864W        W59278  35.962  16.162  14.503
86865W        W59279  30.952  34.427  10.159
86866W        W59280  11.730  22.094   3.362
86867W        W59281  13.729  10.756   4.292
86868W        W59282  24.994  38.075   0.300
86869W        W59283   9.797  24.166   1.930
86870W        W59284  16.635   0.764   2.889
86871W        W59285   8.787  38.020   3.731
86872W        W59286  17.686  35.460   4.300
86873W        W59287   8.276  29.463  12.579
86874W        W59288  16.142   0.964   4.712
86875W        W59289  34.106  30.596  11.435
86876W        W59290  35.502  43.908   0.421
86877W        W59291  20.660  35.091  13.008
86878W        W59292  36.533  34.966  13.417
86879W        W59293  34.875  18.065  12.910
86880W        W59294   6.390  19.770  11.609
86881W        W59295   9.685  31.107  14.428
86882W        W59296   7.822  29.661  13.484
86883W        W59297  13.285   3.942   1.895
86884W        W59298   4.937   4.735  14.809
86885W        W59299  14.612  10.360  14.454
86886W        W59300  33.483  43.441  11.067
86887W        W59301  27.029   4.217  12.915
86888W        W59302  44.460  28.445  14.777
86889W        W59303  14.159   9.687  13.532
86890W        W59304  37.438  23.716   4.777
86891W        W59305  41.025  27.013   0.741
86892W        W59306   7.360   9.808   2.810
86893W        W59307  18.251   0.436  14.808
86894W        W59308  33.460  37.907   0.767
86895W        W59309  44.840  28.151   9.937
86896W        W59310   4.901   8.220  11.857
86897W        W59311  33.064   9.378   4.632
86898W        W59312  44.753  18.586  12.857
86899W        W59313  39.360  25.659   3.336
86900W        W59314  21.247  42.853   2.667
86901W        W59315  43.976   8.186   4.605
86902W        W59316   9.728  33.547   0.878
86903W        W59317  16.247   8.823  14.984
86904W        W59318   1.376  41.357  10.494
86905W        W59319  38.041  24.506  11.980
86906W        W59320  36.990  24.711   1.215
86907W        W59321  33.394  22.539  14.476
86908W        W59322  27.943   3.746   0.943
86909W        W59323  35.534  33.018  14.860
86910W        W59324   3.415  38.884  13.971
86911W        W59325  38.398   0.415  11.593
86912W        W59326  43.890  29.047  12.446
86913W        W59327  38.526  14.638   3.277
86914W        W59328  30.614  23.599  13.408
86915W        W59329  13.281  19.635  14.500
86916W        W59330  14.827  22.138   0.729
86917W        W59331   1.784   7.812  12.836
86918W        W59332  30.423  18.571   1.368
86919W        W59333  42.345  14.200   2.360
86920W        W59334  42.391  13.760  14.026
86921W        W59335  12.634   8.164  12.969
86922W        W59336  21.191  13.680   4.835
86923W        W59337  24.491   9.175   0.940
86924W        W59338  13.296  31.642   4.281
86925W        W59339   3.913  34.577   1.768
86926W        W59340  33.490  40.376   0.897
86927W        W59341  25.674  36.356   4.273
86928W        W59342  11.855  31.587   2.234
86929W        W59343  16.257  42.805   3.758
86930W        W59344  28.520  10.282   0.437
86931W        W59345  30.621  21.700  13.902
86932W        W59346  35.928   0.266   2.296
86933W        W59347  24.200  36.583   1.716
86934W        W59348  22.056  41.968   0.342
86935W        W59349  25.100  33.581  12.520
86936W        W59350   9.873  10.209   0.949
86937W        W59351  35.866   2.253   1.816
86938W        W59352   7.850  29.529   4.762
86939W        W59353   4.928  27.475  10.637
86940W        W59354   6.194  36.841  14.301
86941W        W59355   6.231  12.731  12.040
86942W        W59356  43.768   7.707  13.002
86943W        W59357   5.888  26.032   2.666
86944W        W59358  32.939  33.940   4.139
86945W        W59359   8.689   1.409  14.313
86946W        W59360  29.441  25.538  11.413
86947W        W59361  38.418   9.157  11.890
86948W        W59362   8.719  44.400  12.372
86949W        W59363  44.992  29.997  11.431
86950W        W59364   0.757  21.740   1.355
86951W        W59365   4.338  39.022  11.374
86952W        W59366  38.352   3.351   2.853
86953W        W59367  29.636  42.984   0.894
86954W        W59368   4.779  44.479   3.327
86955W        W59369  21.098  24.603  12.971
86956W        W59370  27.193  17.293  14.433
86957W        W59371   3.823  44.447  12.869
86958W        W59372  28.140   6.192   1.816
86959W        W59373  10.814  26.992   0.270
86960W        W59374  42.442  29.067   2.312
86961W        W59375  19.210  21.728   0.389
86962W        W59376  41.469  33.480  10.473
86963W        W59377  19.538   7.236   2.846
86964W        W59378   5.345  16.219   1.926
86965W        W59379  37.521   6.794  10.524
86966W        W59380  41.934   4.808  10.009
86967W        W59381  16.106  32.042  14.352
86968W        W59382  44.406  28.169   0.398
86969W        W59383  29.564   3.411  11.109
86970W        W59384  28.532   9.201  13.895
86971W        W59385  18.191  31.017   4.661
86972W        W59386  21.690   9.867   4.192
86973W        W59387  31.125  10.295   2.745
86974W        W59388  11.151  28.068   0.908
86975W        W59389  27.994  14.194   3.808
86976W        W59390   2.229  35.088   0.917
86977W        W59391  14.320   7.843  11.486
86978W        W59392  22.076  34.007  12.373
86979W        W59393  31.960  12.259   1.794
86980W        W59394  22.561  26.110   0.473
86981W        W59395  35.386  40.502   2.748
86982W        W59396  41.466  11.297  12.427
86983W        W59397   0.424  35.026   1.391
86984W        W59398  12.177  41.318   1.380
86985W        W59399  34.921   0.494  14.370
86986W        W59400  12.284  16.784  14.870
86987W        W59401  16.266  30.634   3.271
86988W        W59402   0.299  15.183  12.435
86989W        W59403  43.396  13.319  10.917
86990W        W59404  23.671  11.137  11.611
86991W        W59405  37.564  21.155   2.185
86992W        W59406  23.593   9.341  11.057
86993W        W59407  33.118   6.806   2.795
86994W        W59408   6.858  33.919  14.293
86995W        W59409  32.463   8.330  13.040
86996W        W59410  16.159  39.322  12.366
86997W        W59411   2.829  10.304   2.283
86998W        W59412  25.205  18.785  11.506
86999W        W59413  24.531  23.706   3.283
87000W        W59414   2.383  19.681   5.294
87001W        W59415  22.653  42.499  10.981
87002W        W59416  23.130  39.963  11.914
87003W        W59417  42.393   3.754   4.203
87004W        W59418  25.660  31.592   1.255
87005W        W59419   8.900  30.973   4.816
87006W        W59420  33.625  28.024   0.873
87007W        W59421  17.662  17.087   0.753
87008W        W59422  10.279  11.814   1.798
87009W        W59423  14.618  20.640   5.294
87010W        W59424   7.679   2.262  13.961
87011W        W59425  28.932  28.073   3.260
87012W        W59426  40.492  14.276   3.703
87013W        W59427  14.283  23.582   2.348
87014W        W59428   1.738   9.251  12.964
87015W        W59429   0.284   9.794   0.728
87016W        W59430  13.292  14.624  13.426
87017W        W59431  25.687  15.747  10.534
87018W        W59432  20.147  22.103  11.575
87019W        W59433  38.337  27.969   4.788
87020W        W59434  11.275  26.568   3.294
87021W        W59435  23.100  37.940  10.513
87022W        W59436  37.551   0.354  10.643
87023W        W59437  26.075  38.371  12.362
87024W        W59438  28.169  11.756  13.992
87025W        W59439  28.514  17.076   9.982
87026W        W59440  15.087   2.954  11.939
87027W        W59441  32.481  42.000   2.304
87028W        W59442   2.410  25.612   4.721
87029W        W59443  42.326  29.436  10.895
87030W        W59444  24.164  15.103  14.947
87031W        W59445  33.558  19.635  14.031
87032W        W59446  38.395   6.680   3.186
87033W        W59447  38.025   5.301   4.134
87034W        W59448  14.240  23.235  14.403
87035W        W59449  18.783  16.617  12.462
87036W        W59450  29.596   1.904   4.144
87037W        W59451  19.750  33.574   4.301
87038W        W59452  26.992  28.545  13.892
87039W        W59453  15.118  23.492  11.995
87040W        W59454  32.117  39.559   4.206
87041W        W59455  22.138  41.427  14.431
87042W        W59456  34.555  28.053   1.840
87043W        W59457  33.385  33.419   4.314
87044W        W59458  12.838  18.254   2.184
87045W        W59459  42.402  16.282   2.823
87046W        W59460  16.728  34.114  10.434
87047W        W59461   3.296  28.551   3.732
87048W        W59462  20.544   4.937   4.140
87049W        W59463  41.811  25.965  11.111
87050W        W59464  12.165  32.635   3.725
87051W        W59465  32.623  15.328  14.515
87052W        W59466  23.688  29.565   2.724
87053W        W59467  25.653  15.102   2.334
87054W        W59468  38.069  44.373  13.428
87055W        W59469  13.279   6.884  11.873
87056W        W59470   5.776  35.472  10.599
87057W        W59471  16.645  42.344  14.291
87058W        W59472   0.916  13.781   0.428
87059W        W59473   8.793   1.943  13.908
87060W        W59474  39.986  44.915  11.874
87061W        W59475   6.242   4.237  12.504
87062W        W59476   3.351  41.000  12.837
87063W        W59477  23.565  12.136  14.438
87064W        W59478  43.392  23.511   3.637
87065W        W59479  26.575  13.831   0.917
87066W        W59480  33.109  29.029   2.281
87067W        W59481  24.690  15.321   2.787
87068W        W59482  12.229  44.434  12.864
87069W        W59483  31.935  39.409  10.900
87070W        W59484  16.084  33.490  14.807
87071W        W59485  22.664  19.591  12.502
87072W        W59486   9.387   3.852  12.567
87073W        W59487  44.361   4.731   3.312
87074W        W59488  16.703  39.853  10.971
87075W        W59489  31.964  42.445  11.453
87076W        W59490  22.596  13.829  11.089
87077W        W59491  14.592  16.711   3.795
87078W        W59492   2.919  10.699  10.465
87079W        W59493  16.751  22.556  14.463
87080W        W59494  30.621  43.281   2.734
87081W        W59495  11.858   6.378   5.292
87082W        W59496  20.082  15.220  13.444
87083W        W59497  40.408  34.567  14.347
87084W        W59498  18.788  25.635  12.044
87085W        W59499  42.835  21.757  12.076
87086W        W59500  31.925  37.457  11.928
87087W        W59501  29.532   5.778   3.783
87088W        W59502  30.938  14.095  11.877
87089W        W59503   0.954  12.685  14.859
87090W        W59504   3.820  20.198   0.744
87091W        W59505  34.864  24.084  14.792
87092W        W59506   9.282  35.933   3.352
87093W        W59507   4.227  32.413   2.676
87094W        W59508  19.644  11.187   4.679
87095W        W59509  43.926  12.283  14.982
87096W        W59510  33.954  16.245   1.403
87097W        W59511  12.199  15.685   1.233
87098W        W59512  21.563  12.655   4.834
87099W        W59513  15.720  12.234   1.913
87100W        W59514  17.713  27.041  13.542
87101W        W59515  15.761  39.560  14.882
87102W        W59516   3.387  38.882   4.601
87103W        W59517  31.599  34.470   1.284
87104W        W59518   8.889  44.261   1.848
87105W        W59519  24.497  18.065  13.368
87106W        W59520  18.253   7.906  12.824
87107W        W59521  41.316  42.358  12.879
87108W        W59522  38.396  36.075   2.822
87109W        W59523   7.896  28.648   4.698
87110W        W59524  24.485  19.767  12.356
87111W        W59525  34.930  23.674   5.784
87112W        W59526  14.266  16.224  14.285
87113W        W59527  15.169  43.396   4.277
87114W        W59528  14.598  19.214   1.386
87115W        W59529  21.685  44.813  10.910
87116W        W59530  37.468  19.263   2.902
87117W        W59531   6.852  13.243   1.906
87118W        W59532  44.848  12.142  14.346
87119W        W59533  41.506   9.735  14.815
87120W        W59534  36.988  32.989   0.465
87121W        W59535   6.893  19.079  12.436
87122W        W59536  14.619  30.579   1.778
87123W        W59537  25.025  43.396  14.870
87124W        W59538   7.815  33.986   3.245
87125W        W59539  39.477  19.269   2.809
87126W        W59540  28.599  31.114   0.968
87127W        W59541  15.193  24.610   0.247
87128W        W59542  34.054  17.263   1.848
87129W        W59543   7.856  12.769  10.146
87130W        W59544  41.842  21.655   2.276
87131W        W59545   7.910  19.675   0.844
87132W        W59546  21.135  43.900  13.055
87133W        W59547  19.272  13.779  14.791
87134W        W59548  10.864  40.893   4.803
87135W        W59549  21.711  43.776  10.599
87136W        W59550  12.360  22.045  11.999
87137W        W59551  15.622  35.049  11.031
87138W        W59552   1.385  39.434  10.947
87139W        W59553  24.986   1.959   1.431
87140W        W59554  23.084  41.505  14.316
87141W        W59555  34.924  33.952   1.241
87142W        W59556  35.097  14.742   3.258
87143W        W59557  41.919  32.953  13.858
87144W        W59558  16.677  25.074  11.858
87145W        W59559  12.812   0.937  12.828
87146W        W59560  24.169  31.611   4.782
87147W        W59561   4.747  35.583  14.339
87148W        W59562   6.320  33.074  12.504
87149W        W59563  38.510  15.246  11.093
87150W        W59564   4.699  44.497   0.745
87151W        W59565   2.805  19.533   2.844
87152W        W59566  18.128  31.481  12.899
87153W        W59567   6.191   5.321   4.812
87154W        W59568  35.891   1.956   3.368
87155W        W59569  41.895  43.431  12.407
87156W        W59570  31.036  35.930   3.649
87157W        W59571  38.494   9.768   3.203
87158W        W59572  43.294  34.465  14.277
87159W        W59573  30.011   5.898  11.495
87160W        W59574  28.098  31.109   3.690
87161W        W59575  10.267   3.448  13.981
87162W        W59576  36.556  22.146  10.967
87163W        W59577  24.211  29.132  13.048
87164W        W59578  14.099  28.111  14.811
87165W        W59579   9.395  20.757   3.158
87166W        W59580  21.132  26.118   3.260
87167W        W59581  31.429  24.577   2.881
87168W        W59582  15.770  21.602   3.216
87169W        W59583  25.031   4.431   4.124
87170W        W59584  13.806  10.641   3.306
87171W        W59585   1.466  24.060  13.020
87172W        W59586   5.771  10.849   0.404
87173W        W59587   5.917  39.420  11.513
87174W        W59588  16.273   5.886   3.687
87175W        W59589  30.110  25.186   4.690
87176W        W59590   6.276   9.649  10.989
87177W        W59591  23.166  19.228   2.708
87178W        W59592  14.687  27.071  11.969
87179W        W59593  42.343  30.619  10.633
87180W        W59594  27.194  24.563   1.234
87181W        W59595   6.770  42.789   0.326
87182W        W59596  34.034  44.766  14.835
87183W        W59597  25.624   2.262  14.950
87184W        W59598  38.362  44.461  14.359
87185W        W59599   8.214  29.998   4.275
87186W        W59600  21.657  18.790   4.656
87187W        W59601   8.379  34.389   1.286
87188W        W59602  39.049  36.075   3.206
87189W        W59603  17.625  17.675   3.308
87190W        W59604  20.044  33.388  13.430
87191W        W59605  44.339  42.927  13.802
87192W        W59606  23.105  36.477  13.500
87193W        W59607  27.531  34.457  14.451
87194W        W59608   9.726  30.093  12.831
87195W        W59609  19.773  31.083  12.515
87196W        W59610  21.627  17.668   4.245
87197W        W59611   0.973  35.465   3.241
87198W        W59612  42.504   0.304  13.338
87199W        W59613   8.692  24.070  13.371
87200W        W59614   0.277  14.635   4.688
87201W        W59615  36.406  22.077  13.407
87202W        W59616  14.783  12.184   3.794
87203W        W59617  28.629  26.022  12.431
87204W        W59618  38.349  26.178   2.792
87205W        W59619  11.817   2.236  14.360
87206W        W59620  41.436  22.549  14.288
87207W        W59621  20.063   8.692   1.841
87208W        W59622  32.970  36.000   4.670
87209W        W59623  33.531  12.853   4.296
87210W        W59624  11.807  33.466   0.387
87211W        W59625  30.444  24.097   2.242
87212W        W59626  14.797  34.579   4.789
87213W        W59627   3.232  33.493   1.408
87214W        W59628  23.992  31.614   2.846
87215W        W59629  41.041  23.139  12.378
87216W        W59630  12.351  21.728  12.895
87217W        W59631  42.817  40.906   3.659
87218W        W59632   2.412  32.407   1.398
87219W        W59633  30.040  11.708   3.798
87220W        W59634   6.808  23.590  12.402
87221W        W59635   2.343   7.809  11.409
87222W        W59636  11.216  39.499  14.965
87223W        W59637  40.457  38.382  10.435
87224W        W59638   8.278  38.446   0.445
87225W        W59639  32.099   5.905   9.965
87226W        W59640  12.225   3.376  13.539
87227W        W59641  44.473   9.305  14.845
87228W        W59642  34.423  44.412   4.660
87229W        W59643  33.916  23.063   2.678
87230W        W59644   1.435   0.890   4.143
87231W        W59645  30.424  22.176  11.033
87232W        W59646  37.896  35.965   9.965
87233W        W59647  32.513   6.705  10.573
87234W        W59648  23.645  24.986  11.437
87235W        W59649  25.518   4.698  12.895
87236W        W59650   7.907  30.632   2.330
87237W        W59651  15.266  12.723   1.246
87238W        W59652  17.166   5.300  11.027
87239W        W59653  37.921  23.678  14.479
87240W        W59654  41.994  28.978  11.100
87241W        W59655  10.820  42.984   0.412
87242W        W59656  20.260  29.477  14.954
87243W        W59657  33.043  41.380  14.337
87244W        W59658  17.565   9.877  14.489
87245W        W59659  21.541  22.126  11.890
87246W        W59660  29.132   9.382  14.805
87247W        W59661   2.453  27.994  13.506
87248W        W59662  23.141   5.406   3.308
87249W        W59663  34.568  11.763  12.971
87250W        W59664   2.311  11.791  10.561
87251W        W59665  10.155  31.153   3.197
87252W        W59666   9.251  12.629   2.802
87253W        W59667  44.327  19.105  11.480
87254W        W59668  10.373   4.365   4.121
87255W        W59669  34.938  43.419  13.851
87256W        W59670   1.335  28.140  14.938
87257W        W59671  24.651  10.793   1.295
87258W        W59672  42.897   9.715  14.982
87259W        W59673  39.477   2.914  11.456
87260W        W59674  19.749   1.794   1.858
87261W        W59675  36.987  18.134   2.679
87262W        W59676  40.829  17.732   4.228
87263W        W59677  21.161  13.139  14.348
87264W        W59678  33.435  35.037  12.532
87265W        W59679  36.381  17.151   2.738
87266W        W59680  23.210  18.730  13.532
87267W        W59681  27.008  43.990  14.789
87268W        W59682   8.704  22.578  10.483
87269W        W59683  29.045   0.479   0.952
87270W        W59684  26.562  16.314   2.360
87271W        W59685  17.722   0.826   4.137
87272W        W59686  37.394   1.298   1.243
87273W        W59687  29.151  28.009   4.327
87274W        W59688  23.504  38.942  14.785
87275W        W59689  31.122  17.708  13.439
87276W        W59690  33.459  36.873  11.929
87277W        W59691  22.535  39.962  13.392
87278W        W59692  42.505  15.125  11.464
87279W        W59693  26.690  28.933  10.026
87280W        W59694  35.444  42.893  13.852
87281W        W59695  27.182  12.118   3.691
87282W        W59696  39.478   8.175  13.891
87283W        W59697  44.361  40.416   2.296
87284W        W59698  33.971   6.201   1.387
87285W        W59699  16.226  32.554   1.829
87286W        W59700   7.221  23.553   4.771
87287W        W59701   7.213  11.342   3.251
87288W        W59702  14.192  41.786  10.446
87289W        W59703  25.472  42.305  13.339
87290W        W59704  12.271  41.952   0.962
87291W        W59705   0.375   8.869  10.546
87292W        W59706  21.050  24.638   4.188
87293W        W59707   2.416  36.003  11.601
87294W        W59708  44.384   9.793  14.368
87295W        W59709  39.358  29.450  11.050
87296W        W59710  33.898  39.517   0.743
87297W        W59711  27.973  39.353  10.571
87298W        W59712   2.419  42.945  13.330
87299W        W59713  43.277  15.641   4.156
87300W        W59714  27.610  31.949  14.448
87301W        W59715   8.298  36.875  10.487
87302W        W59716   0.769  35.455   3.742
87303W        W59717  16.231  28.953   0.933
87304W        W59718  41.456  14.661   2.232
87305W        W59719  12.644  29.524   2.178
87306W        W59720  39.976   5.278   1.272
87307W        W59721  43.342  16.600   4.799
87308W        W59722  35.042  43.949  10.454
87309W        W59723   0.836  12.155  12.460
87310W        W59724   6.392  34.937   0.767
87311W        W59725  21.602  23.514  14.413
87312W        W59726  23.986  24.478  11.392
87313W        W59727   1.850  40.412  10.587
87314W        W59728  17.708   3.905  11.013
87315W        W59729  19.744  23.494  14.889
87316W        W59730  11.683  13.820  12.523
87317W        W59731  30.931  44.421  11.471
87318W        W59732  29.638  11.866   2.788
87319W        W59733  12.325   7.672   0.788
87320W        W59734  17.632  21.190   4.819
87321W        W59735  41.424  22.524  10.578
87322W        W59736  40.999  31.944   2.699
87323W        W59737  14.654  26.604   9.956
87324W        W59738  31.472   8.395   2.266
87325W        W59739  31.081  16.263  13.375
87326W        W59740  25.116  34.931   4.129
87327W        W59741  37.021  40.042   1.432
87328W        W59742  36.096  19.249   0.359
87329W        W59743   2.428   0.856  10.617
87330W        W59744  34.539  21.061   4.176
87331W        W59745  30.464  25.685   3.349
87332W        W59746  38.042  25.115  14.973
87333W        W59747  34.991  26.980   0.966
87334W        W59748   4.449   3.905  10.918
87335W        W59749  13.166  41.985   1.400
87336W        W59750  10.362  19.248  12.990
87337W        W59751   9.854  42.498   3.385
87338W        W59752  33.114   5.354  13.062
87339W        W59753  36.034  29.632   0.244
87340W        W59754   4.766  21.065  14.021
87341W        W59755  15.165  39.863  11.461
87342W        W59756   0.756   5.859   2.272
87343W        W59757  28.988  18.201   3.165
87344W        W59758  38.501  32.405  12.980
87345W        W59759  27.054  29.001   2.267
87346W        W59760  44.385  31.973   4.236
87347W        W59761  37.345  12.769   0.963
87348W        W59762  25.584   1.300   0.247
87349W        W59763  10.163  10.685  13.409
87350W        W59764  20.175   5.718  12.946
87351W        W59765   4.434  43.500  11.466
87352W        W59766   3.827  23.065  14.819
87353W        W59767  26.679  43.907   1.934
87354W        W59768  12.753  17.629  11.890
87355W        W59769  25.565   1.802  12.827
87356W        W59770  26.469  40.349   4.208
87357W        W59771  10.664  43.870  14.917
87358W        W59772   4.739  26.475   2.679
87359W        W59773  12.349  39.528  13.964
87360W        W59774   8.662   6.878  13.794
87361W        W59775  18.634   1.788  10.582
87362W        W59776  12.212  17.579  11.117
87363W        W59777  35.471  35.513   4.335
87364W        W59778  37.035  41.348   4.316
87365W        W59779  40.386  10.739  10.896
87366W        W59780  37.982  28.992  10.553
87367W        W59781  29.063  21.199   3.262
87368W        W59782  42.912   2.776  10.547
87369W        W59783  25.700   8.674   2.672
87370W        W59784  26.001   5.298  14.338
87371W        W59785  32.068  17.251   1.400
87372W        W59786  40.312  42.364  14.399
87373W        W59787  34.888  44.453   3.780
87374W        W59788  18.070   6.394   1.271
87375W        W59789  25.127  12.645   4.623
87376W        W59790  18.738   7.850   0.471
87377W        W59791  22.678  43.925  11.490
87378W        W59792  30.541  41.934  13.902
87379W        W59793  15.643  44.477  13.025
87380W        W59794  26.610  44.770  13.809
87381W        W59795  17.586  23.553  12.915
87382W        W59796  26.008   3.902   1.884
87383W        W59797  29.439  17.617   1.270
87384W        W59798  36.358  29.047  10.988
87385W        W59799  22.191   6.848  12.919
87386W        W59800   3.796   7.671   1.224
87387W        W59801  43.406  43.879   3.685
87388W        W59802  28.123   1.278  13.064
87389W        W59803  13.724   2.378  11.990
87390W        W59804  16.640  18.231  14.437
87391W        W59805  36.945   5.280   4.150
87392W        W59806  31.617  38.930  10.985
87393W        W59807  20.740   7.392   0.438
87394W        W59808   4.248  20.227  14.759
87395W        W59809   6.190   9.203   3.296
87396W        W59810  14.331   0.934   0.789
87397W        W59811  18.216  22.141  12.021
87398W        W59812  17.662   1.793  14.943
87399W        W59813   5.931   9.852   4.817
87400W        W59814  12.668   7.681   3.683
87401W        W59815  17.235  11.228   4.776
87402W        W59816  44.440   2.429  11.064
87403W        W59817  22.097  17.784   1.892
87404W        W59818  27.507  20.639   1.368
87405W        W59819  28.626  29.935  10.413
87406W        W59820   3.895  22.239   3.163
87407W        W59821  24.484  40.802  14.404
87408W        W59822  34.865   2.914  10.544
87409W        W59823  28.088   4.244  13.850
87410W        W59824  37.030  35.033   1.812
87411W        W59825  13.303  36.056  10.458
87412W        W59826   5.914  33.528   3.784
87413W        W59827   7.748  28.123  12.532
87414W        W59828  24.027  32.429  12.477
87415W        W59829  31.923  15.758   1.254
87416W        W59830  44.472  34.475  11.014
87417W        W59831  22.053   0.339   3.638
87418W        W59832   1.971   0.778   4.738
87419W        W59833   7.673   8.293   0.378
87420W        W59834   4.223   7.228  14.792
87421W        W59835   6.814   0.783  12.897
87422W        W59836   4.413  23.500  12.068
87423W        W59837  41.310  34.988  10.419
87424W        W59838  28.556  31.521  11.940
87425W        W59839  16.682   1.959  11.064
87426W        W59840  26.042  14.338  13.007
87427W        W59841   1.277  26.049   0.293
87428W        W59842   9.650   1.947   2.335
87429W        W59843   2.272   9.781   4.810
87430W        W59844   7.408  25.568  10.627
87431W        W59845  44.995  11.860  13.479
87432W        W59846  14.306  44.411  10.600
87433W        W59847  41.860  40.044  14.288
87434W        W59848   5.335  22.023  13.490
87435W        W59849  37.021  39.940  13.021
87436W        W59850   5.334   6.279  10.632
87437W        W59851  41.937   0.304  13.498
87438W        W59852  38.855  30.649   4.677
87439W        W59853  13.821  37.339   4.185
87440W        W59854  18.126  38.062  10.537
87441W        W59855  12.780  35.604  13.024
87442W        W59856  38.947   5.373  14.456
87443W        W59857  19.090   7.270  13.311
87444W        W59858  23.195   2.258   1.837
87445W        W59859  10.330  25.650   3.684
87446W        W59860   9.830  29.973   0.284
87447W        W59861   8.831   0.831   0.268
87448W        W59862  38.438   9.830   3.835
87449W        W59863  35.896  17.555   2.775
87450W        W59864  22.089  35.509  12.532
87451W        W59865  15.323  32.900   1.412
87452W        W59866  23.005  14.675   0.448
87453W        W59867  44.853  19.123  13.817
87454W        W59868  12.353  20.729  10.488
87455W        W59869  33.108  16.749   2.705
87456W        W59870   9.660  15.259   0.877
87457W        W59871  21.587  41.500  14.023
87458W        W59872  42.405  22.071  11.903
87459W        W59873  42.977  23.541   1.842
87460W        W59874  12.309  24.681  10.484
87461W        W59875   8.178  44.482   0.738
87462W        W59876  34.419  24.098   0.794
87463W        W59877  13.310  36.082   3.191
87464W        W59878  13.791  14.697  11.118
87465W        W59879   3.882  34.513   4.302
87466W        W59880  13.748  14.312   0.781
87467W        W59881  14.676  36.917   1.753
87468W        W59882  42.427  36.579   4.348
87469W        W59883   7.354  30.049  11.533
87470W        W59884  32.021  19.628  11.062
87471W        W59885  39.851  14.818   1.420
87472W        W59886  20.033  44.007  11.107
87473W        W59887  41.394  38.065   0.955
87474W        W59888  28.120  19.738   1.324
87475W        W59889  30.009  39.828  13.848
87476W        W59890  34.522  42.389   3.629
87477W        W59891  17.182  25.108  13.926
87478W        W59892   8.406  44.356  14.840
87479W        W59893  10.643   5.934   1.329
87480W        W59894  22.084   7.377   3.230
87481W        W59895  43.907  13.186  14.888
87482W        W59896  37.378   6.363   0.256
87483W        W59897  17.297   8.713   4.330
87484W        W59898   6.905  34.900   0.266
87485W        W59899  28.178   0.443   9.976
87486W        W59900  32.957  43.938  13.313
87487W        W59901  23.189   2.344   4.233
87488W        W59902  15.201   0.807   4.695
87489W        W59903   0.755  21.134   4.168
87490W        W59904  25.685  44.792  11.891
87491W        W59905  15.671  10.266  14.399
87492W        W59906  37.415   6.904  11.524
87493W        W59907  17.089  24.133  10.152
87494W        W59908  21.100  34.061   2.865
87495W        W59909   5.896   4.941  14.876
87496W        W59910  23.560  19.168   5.172
87497W        W59911  44.868  26.189  13.973
87498W        W59912  27.661  27.152  12.339
87499W        W59913  33.063   6.376   2.891
87500W        W59914  19.142  17.725   3.689
87501W        W59915  11.867  38.015  10.411
87502W        W59916  30.141  15.242  10.893
87503W        W59917  14.315   0.437  10.589
87504W        W59918  23.101  12.205   1.324
87505W        W59919   3.418   0.966   0.932
87506W        W59920  11.632  32.080  13.411
87507W        W59921  29.064  10.321  13.542
87508W        W59922  42.830   7.762   0.802
87509W        W59923  41.814  39.961   4.601
87510W        W59924  38.412  13.657   2.845
87511W        W59925  23.158  27.970   1.745
87512W        W59926  13.224  29.661   0.351
87513W        W59927  35.895  12.309  14.951
87514W        W59928   2.291  13.210  13.542
87515W        W59929   7.789  42.964   0.862
87516W        W59930  28.522  28.570   3.291
87517W        W59931  26.167  28.954  13.845
87518W        W59932  32.438  35.393  14.402
87519W        W59933   8.839   5.274   0.889
87520W        W59934  13.803  12.647  10.470
87521W        W59935  26.954  40.445   0.324
87522W        W59936  19.096  25.570   1.296
87523W        W59937  23.707  41.877   1.794
87524W        W59938   1.380  36.044  13.055
87525W        W59939  31.896  19.239  12.909
87526W        W59940  22.572  37.906  11.439
87527W        W59941  15.788  16.254   2.707
87528W        W59942  42.407   5.415  13.381
87529W        W59943  32.129   9.706   0.476
87530W        W59944   7.214  11.232  12.388
87531W        W59945  11.776  11.765   2.404
87532W        W59946  37.981  24.049   3.698
87533W        W59947  33.047  38.338  13.467
87534W        W59948   4.439   9.374  14.474
87535W        W59949  32.576  25.639  12.090
87536W        W59950  44.830  35.930   1.830
87537W        W59951  17.679  31.502  14.918
87538W        W59952   5.272  37.878  11.015
87539W        W59953  36.475  37.492   2.710
87540W        W59954   8.238  15.222  11.558
87541W        W59955   8.357  14.650  11.895
87542W        W59956   2.829  19.119   3.719
87543W        W59957  31.505  36.859   4.799
87544W        W59958  29.661   6.851   2.245
87545W        W59959  42.445   8.889  14.964
87546W        W59960  17.078  18.155  13.443
87547W        W59961   4.271  23.539  14.396
87548W        W59962  17.616   2.304  10.446
87549W        W59963  42.854  39.967   2.825
87550W        W59964  17.732  28.142   1.799
87551W        W59965  42.817  41.528   1.422
87552W        W59966  36.452  43.975  11.900
87553W        W59967  13.349   9.813   2.710
87554W        W59968  18.273  43.329   1.210
87555W        W59969  28.107   8.197  12.878
87556W        W59970  34.112  16.085  12.862
87557W        W59971  27.645   4.872  11.053
87558W        W59972  22.502   6.706   2.209
87559W        W59973  31.043  34.600  10.915
87560W        W59974  37.354  25.632   0.859
87561W        W59975   9.284   1.802  13.415
87562W        W59976  22.565  40.495  14.339
87563W        W59977  23.192  39.847   3.739
87564W        W59978   1.371   1.335  14.021
87565W        W59979  20.757  37.086  11.552
87566W        W59980  38.545  43.461   3.861
87567W        W59981  26.677  18.782  13.338
87568W        W59982   4.927  42.906   4.759
87569W        W59983  13.303  17.625   3.846
87570W        W59984  35.912  36.535   3.640
87571W        W59985  33.586  41.031  14.799
87572W        W59986  20.183   1.781   3.830
87573W        W59987   5.370  36.442   3.863
87574W        W59988   3.858  22.716  13.928
87575W        W59989  16.155  16.719  13.863
87576W        W59990  27.997  13.178   2.760
87577W        W59991  30.455  21.228  11.914
87578W        W59992   1.306  43.950  12.871
87579W        W59993  22.249  28.555  13.008
87580W        W59994  39.451  44.969  12.564
87581W        W59995  30.931  13.643   2.328
87582W        W59996  41.003  16.678   0.444
87583W        W59997   3.890  40.368  10.009
87584W        W59998   0.258  27.047  14.888
87585W        W59999   9.345   3.265  13.468
87586W        W60000  19.072  25.118   2.188
87587W        W60001  34.006  36.093   1.426
87588W        W60002  37.832  12.795  14.346
87589W        W60003  29.994   7.721  11.058
87590W        W60004  18.622   8.329  13.417
87591W        W60005  34.369  20.693   2.225
87592W        W60006   6.301  28.657  10.449
87593W        W60007  17.189  27.195  10.497
87594W        W60008  23.613  41.867  10.980
87595W        W60009   5.397  44.345  12.857
87596W        W60010  21.669  36.020   4.810
87597W        W60011  24.014  17.683  11.490
87598W        W60012  15.239   0.468  12.390
87599W        W60013  15.220  41.461  14.008
87600W        W60014  12.703  39.489  10.453
87601W        W60015  37.540  21.644  11.068
87602W        W60016  30.460  17.761   3.715
87603W        W60017  17.791  13.663  10.919
87604W        W60018  40.913   4.425  11.473
87605W        W60019  27.494   6.700   2.872
87606W        W60020  26.686  39.917   4.249
87607W        W60021   4.232  21.614   0.424
87608W        W60022   7.356  32.960   3.299
87609W        W60023   6.796  13.672   1.898
87610W        W60024  24.212  35.926  14.437
87611W        W60025  25.530  19.567   1.752
87612W        W60026  27.597  28.551  10.893
87613W        W60027  23.529  27.626  12.848
87614W        W60028   7.719  10.648  10.943
87615W        W60029  35.909   9.857  11.413
87616W        W60030  17.161  28.173  12.082
87617W        W60031  30.602   4.392  11.855
87618W        W60032  42.027  11.697  14.870
87619W        W60033   1.789   7.890   0.426
87620W        W60034  24.178  20.187   0.862
87621W        W60035  16.146   6.400  12.405
87622W        W60036  23.574  32.134  13.818
87623W        W60037   8.879  42.981  14.924
87624W        W60038  24.561  18.270  10.952
87625W        W60039  18.677  21.104   3.366
87626W        W60040  39.896  32.622  14.379
87627W        W60041  38.006  20.568  11.455
87628W        W60042   2.905  41.877   5.133
87629W        W60043  11.337   5.929  12.055
87630W        W60044  34.472   7.221   1.834
87631W        W60045  41.787  26.092  11.986
87632W        W60046  19.121  28.471   2.884
87633W        W60047  19.206  25.133   3.688
87634W        W60048  17.724  13.744   1.303
87635W        W60049  21.230  13.168  13.400
87636W        W60050  26.025  14.824   0.347
87637W        W60051   9.745  19.589  11.081
87638W        W60052  31.117  18.238   4.354
87639W        W60053  36.460  16.567   2.372
87640W        W60054  19.255  18.083  12.347
87641W        W60055   7.706  36.066   3.637
87642W        W60056  42.962  38.537   2.275
87643W        W60057   4.941  44.939  10.923
87644W        W60058  34.529  29.667   2.358
87645W        W60059  41.038  14.317   4.725
87646W        W60060   7.734   4.729  10.630
87647W        W60061  31.984  17.772   4.225
87648W        W60062   9.178  26.507  12.072
87649W        W60063  36.589   9.797   2.208
87650W        W60064  19.653  20.063  14.505
87651W        W60065  12.189   9.291   2.189
87652W        W60066   0.371   0.486  10.607
87653W        W60067  36.055  30.061   3.382
87654W        W60068  30.476   9.728   4.344
87655W        W60069   7.306  31.131   2.341
87656W        W60070   6.291   6.264  11.602
87657W        W60071  39.915  12.816   4.731
87658W        W60072  27.070  23.119  11.961
87659W        W60073  10.320   2.778  14.837
87660W        W60074   8.291  41.029  12.363
87661W        W60075  11.740  25.083  13.985
87662W        W60076  39.446  22.638  12.885
87663W        W60077  20.710  11.271  14.471
87664W        W60078  25.023  16.705   2.237
87665W        W60079  16.170  20.139   4.305
87666W        W60080  39.325  15.758   2.795
87667W        W60081  40.518  13.200   3.634
87668W        W60082  10.716  34.912   4.805
87669W        W60083  14.313   1.790   4.152
87670W        W60084  19.092   9.779  10.993
87671W        W60085  44.003  15.606   4.268
87672W        W60086  41.334  27.604  13.412
87673W        W60087   5.205  22.555   2.355
87674W        W60088   7.401  36.908   0.252
87675W        W60089  38.911  16.142   4.174
87676W        W60090  17.726  41.481  11.411
87677W        W60091   5.264   1.757  10.479
87678W        W60092  25.034  40.328  10.918
87679W        W60093   0.327  11.309  12.047
87680W        W60094  34.583  21.102   5.120
87681W        W60095  11.703  19.224  12.445
87682W        W60096  20.742   4.745   0.475
87683W        W60097   2.825  44.354   2.339
87684W        W60098  30.600  38.478  11.046
87685W        W60099  38.861  20.116  14.342
87686W        W60100   5.890   4.423  12.493
87687W        W60101  38.861   1.342   0.955
87688W        W60102  27.015  41.384  14.454
87689W        W60103   3.370  11.146   1.437
87690W        W60104  11.659  42.866  14.783
87691W        W60105  38.004  40.844   0.333
87692W        W60106  35.950  11.346  14.891
87693W        W60107  35.463   7.379   0.372
87694W        W60108  23.609  12.692  13.863
87695W        W60109   5.438  21.721   3.290
87696W        W60110  35.017  14.101  12.561
87697W        W60111  37.496  40.335   1.933
87698W        W60112  27.590   0.430   4.777
87699W        W60113  12.657  23.224  12.377
87700W        W60114  35.475  14.673   2.751
87701W        W60115  14.759  34.120  13.433
87702W        W60116   7.822  30.448  13.854
87703W        W60117  35.928  43.371   0.316
87704W        W60118  11.129  22.689  14.487
87705W        W60119  37.836  31.014   4.631
87706W        W60120   6.715  26.097  12.539
87707W        W60121  34.452  27.098  10.488
87708W        W60122  17.216   0.777   2.820
87709W        W60123  20.269  33.517  10.916
87710W        W60124  28.438  37.443  13.355
87711W        W60125  28.045  32.462  14.371
87712W        W60126   6.821  10.856  13.895
87713W        W60127  29.955  10.156  11.076
87714W        W60128  22.729  11.777   2.719
87715W        W60129   8.841  26.137  13.826
87716W        W60130  35.103   8.811  11.491
87717W        W60131   7.269  11.682   4.726
87718W        W60132  17.242   9.250  13.023
87719W        W60133  39.313  24.662  12.832
87720W        W60134  36.563  11.713  12.548
87721W        W60135  18.702   0.275  14.795
87722W        W60136  33.401   3.949   2.370
87723W        W60137  39.540  28.097   1.358
87724W        W60138  35.007  36.494  10.458
87725W        W60139  17.565  37.356   0.424
87726W        W60140  40.343  27.944   0.332
87727W        W60141   4.741  19.243  11.981
87728W        W60142  13.741  14.273  13.035
87729W        W60143  33.483   7.200   4.295
87730W        W60144  19.709  11.799  10.622
87731W        W60145  15.134  20.595  10.159
87732W        W60146  15.237   7.888   2.806
87733W        W60147   8.754  44.396   4.638
87734W        W60148  20.608  12.309   4.643
87735W        W60149   0.334  36.416  10.470
87736W        W60150  17.708  40.488  11.038
87737W        W60151  35.440  14.681  11.995
87738W        W60152  30.144  22.197   4.273
87739W        W60153   5.905  34.893   3.760
87740W        W60154  20.636  31.026  12.884
87741W        W60155  13.615  41.885  11.111
87742W        W60156  16.644   8.787  10.957
87743W        W60157   0.422  11.705  13.837
87744W        W60158  15.303  21.031  11.075
87745W        W60159  39.813  14.802  12.862
87746W        W60160  26.115  28.139   3.357
87747W        W60161  11.783  41.791   4.717
87748W        W60162  25.994  18.248   3.227
87749W        W60163  40.844  37.029  13.413
87750W        W60164  24.069  27.564  13.829
87751W        W60165   9.157  37.434   1.899
87752W        W60166   2.947  31.470   0.902
87753W        W60167   2.791  18.553  10.447
87754W        W60168  25.188  44.436   2.263
87755W        W60169   4.793  32.919  14.352
87756W        W60170  35.082  32.053   1.360
87757W        W60171  15.663  40.913  13.334
87758W        W60172  34.554  18.684   4.665
87759W        W60173   9.809  18.252  13.025
87760W        W60174  15.269  30.640  12.458
87761W        W60175  22.067   7.891  13.397
87762W        W60176  22.654  19.534   4.599
87763W        W60177  41.499  34.452  14.398
87764W        W60178   6.399  28.992  14.473
87765W        W60179  43.425  28.035   2.896
87766W        W60180  16.752  26.625  14.471
87767W        W60181  44.345   0.484   2.737
87768W        W60182  43.925  17.749   0.322
87769W        W60183  15.691  19.719  14.014
87770W        W60184  35.863  15.177  14.292
87771W        W60185  26.051  21.708   4.621
87772W        W60186  13.296   6.384   2.214
87773W        W60187  38.378  23.525   2.803
87774W        W60188   8.343  12.260  12.400
87775W        W60189  37.368  30.928   2.243
87776W        W60190  15.695   6.282   9.538
87777W        W60191  37.546  29.656   3.675
87778W        W60192  11.180  10.288  12.871
87779W        W60193  10.256  25.511   1.714
87780W        W60194  32.104  26.189   2.662
87781W        W60195  29.609  43.449   0.840
87782W        W60196  22.154   5.408  10.936
87783W        W60197  30.580  20.051   4.634
87784W        W60198  15.605  31.049   2.876
87785W        W60199  42.970   9.647  13.049
87786W        W60200  30.448  11.755  11.988
87787W        W60201  29.514  16.085   0.396
87788W        W60202  20.051   5.338  13.870
87789W        W60203   0.408  19.603  13.987
87790W        W60204  42.311  16.708  14.491
87791W        W60205  13.712  23.708   2.740
87792W        W60206   3.751  32.394   1.318
87793W        W60207  40.035  43.910   0.788
87794W        W60208  11.311  23.727  11.035
87795W        W60209  41.500  43.499  14.454
87796W        W60210  27.588  27.645   0.962
87797W        W60211  40.520  15.715  12.866
87798W        W60212   1.789   2.262  11.000
87799W        W60213  17.665   2.758  14.947
87800W        W60214  32.065  25.610   4.289
87801W        W60215  34.900  19.040  12.460
87802W        W60216  30.474  18.686   2.780
87803W        W60217  35.601  40.949   3.672
87804W        W60218   0.292  17.762   3.297
87805W        W60219   5.899  31.517   0.739
87806W        W60220  34.117  42.459  11.000
87807W        W60221   1.356   9.784  14.487
87808W        W60222  22.995  17.267   0.849
87809W        W60223   0.338  28.052  13.969
87810W        W60224  25.578  20.122   4.247
87811W        W60225   6.399  37.339  12.976
87812W        W60226   6.893  23.081   1.402
87813W        W60227  30.143  15.823  13.008
87814W        W60228  31.551  23.594  12.479
87815W        W60229   8.722  33.507  14.466
87816W        W60230  30.160  11.829  13.950
87817W        W60231  17.717  24.051   3.727
87818W        W60232   6.762   8.282   1.849
87819W        W60233  23.699   0.972  12.470
87820W        W60234  22.651   4.732   0.759
87821W        W60235  42.846  18.088  12.969
87822W        W60236   3.896   5.248  14.467
87823W        W60237  37.523  21.671   2.669
87824W        W60238  27.008   7.903   0.269
87825W        W60239  24.517  35.396  11.437
87826W        W60240   6.236   1.857   0.881
87827W        W60241   2.326  11.205  14.964
87828W        W60242  39.423  34.088   0.794
87829W        W60243  10.675  32.132  13.883
87830W        W60244  27.465  16.668   0.334
87831W        W60245  32.112  26.180  10.488
87832W        W60246   9.804  11.643  13.387
87833W        W60247  10.276  38.886   4.177
87834W        W60248  43.866  17.599   2.900
87835W        W60249  29.954  38.856   1.752
87836W        W60250  39.023  16.671  12.941
87837W        W60251  21.242   6.344  12.381
87838W        W60252  32.024  10.678  11.502
87839W        W60253  13.642  42.451   1.426
87840W        W60254  17.593   7.373   2.821
87841W        W60255  38.010   5.381  11.548
87842W        W60256  28.149   6.870   3.802
87843W        W60257   5.916  20.223  11.511
87844W        W60258  42.346  40.539  11.373
87845W        W60259  23.073  12.826  10.406
87846W        W60260  36.928  16.131  12.933
87847W        W60261  22.687  13.703   4.791
87848W        W60262  18.703  39.893  13.969
87849W        W60263  38.821  30.458   3.151
87850W        W60264  18.267  39.391  11.985
87851W        W60265  19.214  29.168   0.316
87852W        W60266  15.823  16.749  14.938
87853W        W60267  15.588  23.042   2.380
87854W        W60268  23.215  17.784  13.959
87855W        W60269   2.427  12.722   1.386
87856W        W60270  14.136  11.795   2.190
87857W        W60271  43.900  15.250   4.803
87858W        W60272  31.061   2.454   4.302
87859W        W60273  17.581  21.032  14.946
87860W        W60274  40.950   9.293  13.910
87861W        W60275  11.813   1.257  11.094
87862W        W60276   5.696  43.373   0.418
87863W        W60277  18.292  18.727  13.350
87864W        W60278  31.587  43.002   1.387
87865W        W60279  43.339  38.852  13.542
87866W        W60280  35.498  41.008   2.264
87867W        W60281  35.395   1.852  13.431
87868W        W60282  11.184   9.155   1.869
87869W        W60283  14.286  27.964   0.429
87870W        W60284  23.551  27.528  13.891
87871W        W60285  40.821  33.939  10.418
87872W        W60286   9.158  13.140  11.410
87873W        W60287  33.437  17.657   2.294
87874W        W60288   0.280  43.427   1.887
87875W        W60289  40.374  39.913   2.755
87876W        W60290  29.646   6.915   4.240
87877W        W60291  40.946  37.953  11.600
87878W        W60292  38.857   1.442  14.819
87879W        W60293  29.440  15.247   3.854
87880W        W60294   3.335  16.095   3.242
87881W        W60295  36.882  42.393   1.716
87882W        W60296   1.944  37.934  12.825
87883W        W60297  10.687  29.925   4.136
87884W        W60298  33.395  29.982   1.314
87885W        W60299   0.398  14.824   1.900
87886W        W60300  28.467  31.135  12.837
87887W        W60301   2.342  27.467   0.368
87888W        W60302  20.129   6.702  13.373
87889W        W60303  21.056  37.350  14.770
87890W        W60304  38.917  10.693   3.709
87891W        W60305   7.183  37.518  10.982
87892W        W60306  13.276  27.106   0.770
87893W        W60307  23.598  30.426   0.793
87894W        W60308  42.417  27.117   2.824
87895W        W60309  26.993   8.374   0.841
87896W        W60310  40.308  26.152  11.530
87897W        W60311  38.396  25.714   4.317
87898W        W60312  23.174  19.540   2.403
87899W        W60313  17.243  29.459  10.606
87900W        W60314  16.640  33.877   2.889
87901W        W60315   6.904  19.182   4.655
87902W        W60316  29.500   3.954  13.326
87903W        W60317   8.373  32.426   1.292
87904W        W60318  38.475   8.756  10.969
87905W        W60319  38.025   0.885  12.344
87906W        W60320  36.886  44.757   1.768
87907W        W60321  32.448  24.641  11.604
87908W        W60322   4.393  29.602  14.285
87909W        W60323  29.511  27.162  14.837
87910W        W60324   1.428  11.186  12.419
87911W        W60325  27.535  18.676   1.829
87912W        W60326   9.221   1.460   2.730
87913W        W60327  44.360  12.319   1.332
87914W        W60328  35.359  24.109   2.307
87915W        W60329  36.580  29.170  12.036
87916W        W60330  33.978  25.187  13.412
87917W        W60331  14.594  23.147  14.857
87918W        W60332  40.868  38.454   2.388
87919W        W60333  31.619  14.237   0.843
87920W        W60334  29.529  13.656  13.323
87921W        W60335  11.205  43.291  10.501
87922W        W60336  27.180  19.750  14.438
87923W        W60337  35.522  15.141  12.375
87924W        W60338   0.920  43.476  10.429
87925W        W60339   2.814  28.601   0.907
87926W        W60340  36.056   2.282  10.900
87927W        W60341  21.627  20.550  14.846
87928W        W60342  37.959  15.773   0.858
87929W        W60343  17.080   0.281   5.617
87930W        W60344  36.015  14.677   4.715
87931W        W60345  24.652  38.506   2.854
87932W        W60346  22.223   4.382   2.200
87933W        W60347   0.770  21.062  11.584
87934W        W60348  11.137  18.564   1.263
87935W        W60349   1.350  13.686  11.061
87936W        W60350  34.423  10.639  13.374
87937W        W60351  36.920  41.437  10.596
87938W        W60352  21.585   9.352   2.718
87939W        W60353   5.334  33.494  11.553
87940W        W60354  22.651  20.532   3.385
87941W        W60355  19.747  12.311   3.682
87942W        W60356  31.438  26.637   4.183
87943W        W60357  38.441  15.606   0.429
87944W        W60358  36.865  20.087  14.998
87945W        W60359  26.044   6.226   2.226
87946W        W60360  17.725  31.945   1.768
87947W        W60361  28.640  18.789  14.861
87948W        W60362  29.601  19.552  10.159
87949W        W60363  13.295   1.776  13.533
87950W        W60364  13.837  31.020  13.546
87951W        W60365   2.288  43.885  11.046
87952W        W60366  14.105  34.960   1.381
87953W        W60367  36.034  13.764  12.419
87954W        W60368   3.364   0.869  13.795
87955W        W60369  41.488  37.980  12.516
87956W        W60370  15.806  14.759   1.848
87957W        W60371  23.112   6.386  13.053
87958W        W60372   1.410  25.991   3.387
87959W        W60373  39.879   2.805   2.229
87960W        W60374  40.937  43.393   0.408
87961W        W60375   2.361  11.210  13.318
87962W        W60376  10.266  29.631   3.655
87963W        W60377  28.645  21.150   4.819
87964W        W60378   5.899  30.138  11.938
87965W        W60379  31.514  26.536  13.499
87966W        W60380  24.674  12.172  12.375
87967W        W60381  25.125  37.901   4.697
87968W        W60382  23.685  15.228  14.498
87969W        W60383  39.428  14.180   2.286
87970W        W60384  26.140   8.672  11.434
87971W        W60385  28.510  27.956   3.784
87972W        W60386  13.801  15.633  14.490
87973W        W60387  17.183  13.159  11.041
87974W        W60388   7.371  32.405   1.246
87975W        W60389  39.809  27.149   1.391
87976W        W60390  15.808  24.695   1.899
87977W        W60391  10.234  34.604   1.357
87978W        W60392  15.230  26.659   4.727
87979W        W60393  23.098   1.872   2.257
87980W        W60394  29.922   0.433  14.964
87981W        W60395  27.556  36.927   0.899
87982W        W60396  25.028   3.793   3.727
87983W        W60397  18.564   6.417   3.185
87984W        W60398  40.483  11.807   2.325
87985W        W60399  25.094  23.088   3.205
87986W        W60400  31.630  20.613  14.492
87987W        W60401  11.692  13.317  10.499
87988W        W60402  29.500  27.692   0.907
87989W        W60403  19.179   5.722  11.943
87990W        W60404  11.738  17.186   1.912
87991W        W60405   2.356  20.731  11.935
87992W        W60406   9.389   6.822  11.596
87993W        W60407  34.592   1.297   3.380
87994W        W60408   5.691  31.645   4.738
87995W        W60409  21.707  26.029  11.410
87996W        W60410  33.507  27.622  13.012
87997W        W60411  19.685  34.905   1.227
87998W        W60412   0.982  14.117  12.014
87999W        W60413  15.182  34.949   0.374
88000W        W60414  24.073   7.676   1.896
88001W        W60415   6.243  39.470   0.418
88002W        W60416  19.265  13.614  11.861
88003W        W60417  22.648   1.384  10.433
88004W        W60418  44.941  38.834   0.850
88005W        W60419  31.004  33.069  14.784
88006W        W60420  34.105  11.351   3.737
88007W        W60421  30.940  40.369  13.803
88008W        W60422  41.334  32.031   0.867
88009W        W60423  44.424  36.562  13.356
88010W        W60424  24.664  35.928   3.842
88011W        W60425  34.981  27.112  11.600
88012W        W60426   4.304  34.446   1.850
88013W        W60427   7.867  21.537  14.863
88014W        W60428  32.942  22.569  14.331
88015W        W60429  15.307  15.651   3.304
88016W        W60430  20.057   5.318   1.907
88017W        W60431   0.470  36.500   0.423
88018W        W60432  36.381  40.976  13.321
88019W        W60433   6.797  28.608  11.959
88020W        W60434  19.207   5.416   3.694
88021W        W60435  37.079   0.974  13.537
88022W        W60436  40.008  27.660  11.488
88023W        W60437  21.702  40.909  11.073
88024W        W60438  44.864  23.540  10.416
88025W        W60439  40.353  24.670  11.992
88026W        W60440  42.990  41.986   0.386
88027W        W60441  15.721  42.492  13.490
88028W        W60442   0.923  42.792  11.421
88029W        W60443  35.946   9.729  12.438
88030W        W60444  40.344   9.848   3.661
88031W        W60445  24.560  32.637   2.377
88032W        W60446  30.027   1.314   2.360
88033W        W60447  13.217  40.373  14.957
88034W        W60448   9.728  19.773  13.450
88035W        W60449  16.216   2.329   1.901
88036W        W60450   4.911   2.781  14.930
88037W        W60451  38.506  17.120  13.335
88038W        W60452  17.686  42.476   3.863
88039W        W60453  29.168  36.416  11.426
88040W        W60454  10.289  21.061   1.887
88041W        W60455  27.987  28.966   2.766
88042W        W60456  17.783   1.482   1.908
88043W        W60457  40.400  31.527  11.994
88044W        W60458  34.045  15.713   1.862
88045W        W60459  13.345  12.827  14.893
88046W        W60460  39.964  39.988   0.854
88047W        W60461  26.516  12.692  12.854
88048W        W60462  43.899  32.619   1.322
88049W        W60463  35.880  20.158  12.034
88050W        W60464  28.178  29.098  14.440
88051W        W60465  34.556  10.850  10.911
88052W        W60466  30.009  34.377   1.768
88053W        W60467  28.541  42.008  10.464
88054W        W60468  23.515  38.054   2.370
88055W        W60469  31.006  20.685   1.718
88056W        W60470   9.705  24.186  14.857
88057W        W60471  28.445  36.397  13.931
88058W        W60472  25.003   6.729   0.767
88059W        W60473  33.505  14.099  12.881
88060W        W60474   2.954  24.099  12.509
88061W        W60475  44.348  44.907  14.485
88062W        W60476  41.351  25.496  14.381
88063W        W60477  25.708  10.354  10.922
88064W        W60478  30.464   7.388  10.495
88065W        W60479  13.271   3.935   2.868
88066W        W60480   6.211  11.344  13.314
88067W        W60481  16.106   6.185   0.399
88068W        W60482  11.845  44.849   4.317
88069W        W60483  21.257  23.591  12.470
88070W        W60484   4.394  26.130   3.260
88071W        W60485  23.646  18.570   0.311
88072W        W60486  29.027  27.601   2.183
88073W        W60487  21.105  38.863   0.863
88074W        W60488  16.092  33.896   2.690
88075W        W60489   0.339  21.216  13.855
88076W        W60490  22.181  18.096  14.905
88077W        W60491  41.931  13.655   0.773
88078W        W60492  16.230   6.322  13.386
88079W        W60493  26.106  41.527   3.868
88080W        W60494  42.799   3.291  14.455
88081W        W60495  37.399  44.406   3.723
88082W        W60496  37.052  43.876   3.307
88083W        W60497  23.601  12.132  12.055
88084W        W60498  39.031  35.517   2.782
88085W        W60499  29.662  25.621  12.376
88086W        W60500   4.925  32.470  13.987
88087W        W60501  41.813  35.512  13.327
88088W        W60502  12.177  44.941  10.937
88089W        W60503   3.243  25.496  10.953
88090W        W60504  12.648  26.652   3.182
88091W        W60505  26.197  22.556   1.279
88092W        W60506  34.079  37.521  12.460
88093W        W60507   2.376  20.675   0.397
88094W        W60508   9.770  26.613  14.430
88095W        W60509  10.840  41.886   1.324
88096W        W60510  15.674  23.029  12.081
88097W        W60511  41.986   1.731  14.356
88098W        W60512  16.207  44.775   2.231
88099W        W60513   0.983  17.645  14.761
88100W        W60514  15.651  17.229  12.093
88101W        W60515  25.067  36.387   2.328
88102W        W60516  42.003  28.450   2.792
88103W        W60517  10.812  31.131  13.019
88104W        W60518  28.481  36.379  12.999
88105W        W60519  33.527  20.555  12.076
88106W        W60520  23.016  32.492  14.938
88107W        W60521  21.595  11.732   3.828
88108W        W60522  25.141  14.127   1.240
88109W        W60523  23.174  23.108  13.036
88110W        W60524  36.025  38.428   1.280
88111W        W60525  26.150  31.417  12.084
88112W        W60526  29.468   5.257   2.719
88113W        W60527  32.030  12.807  10.542
88114W        W60528   7.269  19.672  14.490
88115W        W60529   0.375  41.956   2.344
88116W        W60530  41.956  37.566   2.197
88117W        W60531  21.173  16.158   4.791
88118W        W60532  16.651  25.468  13.960
88119W        W60533  28.958  13.817  14.488
88120W        W60534  23.534  20.731   4.605
88121W        W60535   9.855  39.840   0.348
88122W        W60536   8.171  44.449  13.968
88123W        W60537  19.207  15.653   1.237
88124W        W60538  17.143  16.197  13.990
88125W        W60539   1.758  16.712  10.908
88126W        W60540   4.931   1.850  14.795
88127W        W60541  27.078  18.099  11.939
88128W        W60542  14.788   6.398  14.824
88129W        W60543   9.169  24.984  12.422
88130W        W60544  28.591  18.671  13.540
88131W        W60545   4.829  27.627   4.827
88132W        W60546  17.119  33.523  14.767
88133W        W60547  32.900  16.225   1.343
88134W        W60548  20.722  27.590   2.276
88135W        W60549  21.138  18.204   4.728
88136W        W60550  38.974  16.641  14.278
88137W        W60551  27.194  27.476  13.462
88138W        W60552  18.569  30.912   2.345
88139W        W60553  31.472  34.066   4.817
88140W        W60554  28.672  40.946   1.914
88141W        W60555   7.307  26.090  13.979
88142W        W60556  27.978   3.249   9.949
88143W        W60557   8.886  26.185   4.233
88144W        W60558  34.600   6.405  13.462
88145W        W60559  30.946  23.028   4.715
88146W        W60560   1.876  39.035   1.450
88147W        W60561  37.915  25.049  13.877
88148W        W60562  38.894  30.619  10.038
88149W        W60563  12.733  14.592   2.258
88150W        W60564  31.550  38.545  10.555
88151W        W60565  10.152  16.722   2.214
88152W        W60566  39.503   5.218   1.397
88153W        W60567  18.183  32.034  11.475
88154W        W60568  17.799  33.910   1.789
88155W        W60569  40.316  30.466   5.217
88156W        W60570  14.187  15.119  10.898
88157W        W60571  18.704   9.708   4.199
88158W        W60572  13.766  41.832   3.698
88159W        W60573   5.871  29.511  13.438
88160W        W60574  33.508  23.007  11.929
88161W        W60575  39.831  19.618   3.709
88162W        W60576  29.528  15.225   1.309
88163W        W60577  10.247  17.792   4.313
88164W        W60578   4.258  42.917   4.785
88165W        W60579  11.729  31.573   4.290
88166W        W60580  35.898  43.283  11.978
88167W        W60581  30.503  26.506   3.722
88168W        W60582  33.457  13.778  14.390
88169W        W60583   9.790  20.536   3.792
88170W        W60584  25.620  32.929  10.955
88171W        W60585   0.894  32.613  10.584
88172W        W60586  42.971  24.014   1.443
88173W        W60587  36.549  10.709   2.702
88174W        W60588  43.834   7.759   0.367
88175W        W60589  42.843  18.154  13.436
88176W        W60590   3.818  17.801  14.994
88177W        W60591  43.005  11.364   1.238
88178W        W60592  37.994  36.409  13.863
88179W        W60593  25.994   6.391   2.857
88180W        W60594  35.886  41.987   1.373
88181W        W60595  32.526  34.973   1.387
88182W        W60596  21.059  31.014   1.385
88183W        W60597   0.458  19.196   0.408
88184W        W60598  15.151  14.610   2.182
88185W        W60599  35.943  28.528  10.419
88186W        W60600  20.119  25.516   3.705
88187W        W60601  42.387  29.489   3.665
88188W        W60602  39.396  26.971  12.390
88189W        W60603   9.218  28.463  14.862
88190W        W60604  32.545  21.081   4.314
88191W        W60605  35.529   6.291  14.445
88192W        W60606  39.846  38.412  11.991
88193W        W60607  18.755   0.930   2.295
88194W        W60608   2.886  32.420   1.701
88195W        W60609  16.116  13.808  14.957
88196W        W60610  13.735   1.416   1.324
88197W        W60611  30.474  28.131  14.790
88198W        W60612  44.800   4.839   2.326
88199W        W60613   8.234  11.346   0.382
88200W        W60614  40.809  42.940  10.411
88201W        W60615  38.383   1.903  14.027
88202W        W60616  16.655  37.840  12.373
88203W        W60617  24.571  16.309   4.249
88204W        W60618  12.829   6.812  11.926
88205W        W60619  10.269  14.675   1.283
88206W        W60620  44.914  36.452  14.483
88207W        W60621  39.408   5.195  14.837
88208W        W60622  41.040  26.986  13.791
88209W        W60623  36.543  18.291   1.835
88210W        W60624  14.832  28.039  13.514
88211W        W60625   5.878  20.039   0.772
88212W        W60626  25.072  34.469  14.912
88213W        W60627  22.613  22.714  10.978
88214W        W60628  42.460  44.275   3.769
88215W        W60629   1.327   1.965   4.696
88216W        W60630   0.818  41.516   1.411
88217W        W60631  20.092  24.030   3.806
88218W        W60632  29.015  37.069  14.481
88219W        W60633  23.041   4.418   3.223
88220W        W60634  32.116  38.851  12.071
88221W        W60635  43.277   0.254  13.349
88222W        W60636   5.843  28.555  12.096
88223W        W60637  25.023  37.885   2.726
88224W        W60638  28.438   2.903   2.407
88225W        W60639  27.045  10.633   2.367
88226W        W60640  32.466   4.943  13.407
88227W        W60641  31.064  10.673   3.315
88228W        W60642  21.256  43.387   0.943
88229W        W60643   6.807  40.975  14.459
88230W        W60644  40.813  42.411   4.602
88231W        W60645  34.977  23.667  11.964
88232W        W60646   2.272   3.810  13.379
88233W        W60647  14.766  22.556   0.328
88234W        W60648  27.156  13.779   4.287
88235W        W60649  31.968  39.466   0.338
88236W        W60650  37.573  24.226   0.765
88237W        W60651  11.203  25.697  13.812
88238W        W60652  17.755   4.385   1.426
88239W        W60653  15.187   1.470   2.698
88240W        W60654  26.958  31.576   3.780
88241W        W60655  35.575  22.534  13.480
88242W        W60656  40.311  19.231   4.671
88243W        W60657   5.782  30.488   1.733
88244W        W60658   8.212  29.549   2.845
88245W        W60659  28.449  28.136  11.989
88246W        W60660  30.026   2.785   4.180
88247W        W60661  34.596  44.859  13.846
88248W        W60662  22.040  23.126  12.354
88249W        W60663   3.715  32.898  14.348
88250W        W60664  24.673  15.807   2.749
88251W        W60665  21.547  22.011   3.690
88252W        W60666  15.662  41.474  13.351
88253W        W60667  42.947   9.316  12.547
88254W        W60668  37.463   2.906  14.906
88255W        W60669  31.929  38.496   4.216
88256W        W60670  28.973  33.583   2.745
88257W        W60671  43.840   3.364   0.400
88258W        W60672  20.034  43.824   0.420
88259W        W60673  16.672  11.198   2.749
88260W        W60674  26.090   0.351  14.366
88261W        W60675  41.953  12.624  11.004
88262W        W60676  16.590   7.769   0.778
88263W        W60677  19.137   8.197  11.080
88264W        W60678  43.832   5.311   2.300
88265W        W60679   0.908  23.625  14.870
88266W        W60680  36.881  33.944  12.463
88267W        W60681  26.609   0.856   2.862
88268W        W60682  43.344  24.000   1.931
88269W        W60683   7.390  22.524  11.459
88270W        W60684   4.743  40.940  14.365
88271W        W60685  12.663  35.857  12.461
88272W        W60686  44.957  10.373  14.430
88273W        W60687  39.914  16.231   0.937
88274W        W60688  29.101  42.383  14.945
88275W        W60689   1.774  23.735   1.296
88276W        W60690  15.703   4.300  11.553
88277W        W60691   4.874  12.322   0.248
88278W        W60692  32.089  44.843   4.197
88279W        W60693   0.281  41.847  12.532
88280W        W60694  38.889   5.817  10.092
88281W        W60695  38.326  30.418   3.329
88282W        W60696  14.785   7.322   4.775
88283W        W60697  42.403  16.169   1.890
88284W        W60698   4.274  10.277   4.227
88285W        W60699  34.001  30.616   2.718
88286W        W60700  34.016   9.161  13.420
88287W        W60701   5.766  13.152   4.603
88288W        W60702  29.046  26.097  14.936
88289W        W60703  12.166  42.505  12.848
88290W        W60704  10.733  14.109   3.697
88291W        W60705  16.217   3.817   4.808
88292W        W60706  20.214  25.016  11.402
88293W        W60707  17.629  20.555   1.709
88294W        W60708   1.836   1.380   3.827
88295W        W60709  27.990  18.781  12.418
88296W        W60710   5.368  37.446   4.657
88297W        W60711  11.641   4.309  14.299
88298W        W60712  31.955   4.232  14.899
88299W        W60713  23.497   4.229  10.503
88300W        W60714  44.292   9.166  11.911
88301W        W60715   0.418  24.062   4.250
88302W        W60716  32.408  13.813   3.707
88303W        W60717  43.902   8.860  13.872
88304W        W60718  40.877  35.403  11.129
88305W        W60719   3.805  25.677   5.667
88306W        W60720  17.263  33.615  13.870
88307W        W60721  28.434  32.602  14.899
88308W        W60722  26.649   9.684   0.286
88309W        W60723  11.636   2.235  12.470
88310W        W60724   0.896  12.343   1.883
88311W        W60725  20.166  18.064  11.994
88312W        W60726  23.538  31.541   0.782
88313W        W60727  21.215   2.846  13.949
88314W        W60728  15.664  44.446  10.575
88315W        W60729  12.749  28.005  11.063
88316W        W60730  14.644  25.159  12.870
88317W        W60731   1.250  18.293   3.328
88318W        W60732   7.724   5.782  14.417
88319W        W60733   4.847  37.971   3.359
88320W        W60734  21.657   6.279   0.815
88321W        W60735  23.160  27.606  11.403
88322W        W60736  11.861  34.056   1.433
88323W        W60737  14.121  13.619  12.939
88324W        W60738  43.904  41.469   2.280
88325W        W60739  32.940  40.432  14.893
88326W        W60740  38.440  16.263   4.618
88327W        W60741   6.396  25.982   0.798
88328W        W60742  30.917  14.159  12.941
88329W        W60743  44.400  42.904   3.634
88330W        W60744   8.754   8.173  12.454
88331W        W60745   3.890  28.942  11.008
88332W        W60746  32.438  27.034   4.690
88333W        W60747  25.568  22.185   2.817
88334W        W60748   5.205  22.658   1.290
88335W        W60749  25.661   1.317   3.815
88336W        W60750  24.526  27.645  12.551
88337W        W60751  36.845  35.492  14.881
88338W        W60752  18.588  26.578   0.330
88339W        W60753   9.362  38.354   3.745
88340W        W60754   5.335   7.808  13.957
88341W        W60755  30.518  23.560   0.346
88342W        W60756  10.281   1.829   4.266
88343W        W60757  29.071  35.920   2.768
88344W        W60758   1.775  16.596   3.789
88345W        W60759  21.138   6.342   0.828
88346W        W60760  18.093  26.133   3.232
88347W        W60761  28.434   1.313   2.314
88348W        W60762  28.629  44.010  11.461
88349W        W60763  12.318   9.202  11.989
88350W        W60764  10.358  34.452  10.416
88351W        W60765   7.760  43.791   4.669
88352W        W60766  36.536   6.334  13.856
88353W        W60767  12.297  29.529  14.968
88354W        W60768  26.696  20.744   1.772
88355W        W60769  38.379  32.034  10.942
88356W        W60770  15.176  29.041  14.485
88357W        W60771  19.254   2.294  12.042
88358W        W60772  20.090  32.135  12.013
88359W        W60773  12.854  17.598   9.525
88360W        W60774  38.984   5.798  13.974
88361W        W60775  18.670   7.357  13.535
88362W        W60776  30.626  23.142   0.807
88363W        W60777  37.335  44.845   4.229
88364W        W60778  31.141   2.467   1.391
88365W        W60779   2.747  26.086  11.531
88366W        W60780   0.805  29.011  14.759
88367W        W60781  13.791  41.978   4.792
88368W        W60782  29.525  20.063   0.839
88369W        W60783  42.366  34.543  11.930
88370W        W60784  18.733  38.015  14.275
88371W        W60785  25.114  44.865   3.317
88372W        W60786  43.957   2.900   4.245
88373W        W60787  30.418   9.846  13.491
88374W        W60788  38.334  31.412  10.983
88375W        W60789   7.774  17.232   3.804
88376W        W60790  13.336  43.998  10.579
88377W        W60791  28.143  39.048  12.949
88378W        W60792  14.243  32.540  13.380
88379W        W60793  23.534   8.661   3.751
88380W        W60794  23.040  18.072  13.493
88381W        W60795  23.497  15.686   4.661
88382W        W60796  43.298  17.772   1.746
88383W        W60797  40.815  10.675   0.761
88384W        W60798  39.422  24.631   2.405
88385W        W60799   4.786  22.635   1.369
88386W        W60800  43.458  20.531  10.546
88387W        W60801  41.394  14.320   1.840
88388W        W60802   8.399   5.738  12.430
88389W        W60803  29.450  15.232  10.577
88390W        W60804  24.159  33.602  10.926
88391W        W60805   8.669  10.309   1.887
88392W        W60806  41.447  36.888  14.360
88393W        W60807  41.931  36.920   3.380
88394W        W60808  37.511  19.276   1.820
88395W        W60809  33.028  13.177  13.462
88396W        W60810  31.475  14.739   1.372
88397W        W60811  27.684   1.279  11.018
88398W        W60812  32.467  24.134   2.829
88399W        W60813  37.068  38.882  13.896
88400W        W60814   8.720  30.011   2.331
88401W        W60815  26.066   6.218   1.869
88402W        W60816   8.345  14.633   3.760
88403W        W60817  35.075   9.212   1.811
88404W        W60818  14.158  34.424   3.335
88405W        W60819  38.921  18.186  14.354
88406W        W60820  39.420  34.106  14.918
88407W        W60821  27.556   3.815  14.842
88408W        W60822   1.942   8.190   4.640
88409W        W60823   5.194  31.063   0.399
88410W        W60824  36.060  41.512   4.809
88411W        W60825   4.339  30.618  12.375
88412W        W60826  41.978   3.217   1.849
88413W        W60827  18.112   9.750  14.310
88414W        W60828  22.041  16.225  10.449
88415W        W60829  20.172   7.255   4.656
88416W        W60830   4.737  23.555  13.460
88417W        W60831  31.096  41.887   0.435
88418W        W60832  21.096  33.992  10.470
88419W        W60833  18.294  17.137   2.333
88420W        W60834  12.750  24.675   0.409
88421W        W60835  39.956   5.315  12.562
88422W        W60836  42.002   4.218   4.315
88423W        W60837  30.069  34.399   0.314
88424W        W60838  27.613  30.121  12.964
88425W        W60839  20.720  20.593   4.283
88426W        W60840  28.079  40.372  10.034
88427W        W60841  38.473   8.359   3.200
88428W        W60842  17.164  41.437   3.724
88429W        W60843  31.065  12.248  11.584
88430W        W60844  30.032  23.009  14.307
88431W        W60845   6.335  10.319   1.865
88432W        W60846  11.622  31.599   3.767
88433W        W60847  23.599   1.413  13.821
88434W        W60848  26.156  38.878   4.799
88435W        W60849  41.332  26.167  13.528
88436W        W60850  35.552  11.791  14.370
88437W        W60851  42.330  11.666  14.899
88438W        W60852  21.677   2.820   4.767
88439W        W60853  15.636  27.171   0.767
88440W        W60854  35.985  22.695   4.649
88441W        W60855  23.526  40.891  10.425
88442W        W60856  41.301  42.307  11.405
88443W        W60857  18.250  19.261   2.288
88444W        W60858  11.289  38.877  13.473
88445W        W60859   2.824  13.203   5.280
88446W        W60860  15.305   4.823  12.016
88447W        W60861  24.535  28.100  12.867
88448W        W60862   4.723  13.301  12.391
88449W        W60863   9.377   4.298  12.341
88450W        W60864  17.122  28.625   2.896
88451W        W60865  42.890  31.501   2.760
88452W        W60866  26.702  15.750  14.324
88453W        W60867  38.394  31.965  11.971
88454W        W60868  12.178  37.338   1.424
88455W        W60869  28.667  23.038   4.263
88456W        W60870  14.211   5.769   4.232
88457W        W60871   1.333   7.675   0.818
88458W        W60872   1.334  37.955  13.912
88459W        W60873  26.102  26.080  14.299
88460W        W60874   2.856  10.827   0.451
88461W        W60875  40.426  15.222   4.325
88462W        W60876   7.215  16.685   4.271
88463W        W60877  30.654  41.808  12.025
88464W        W60878  25.550  27.493   1.765
88465W        W60879  43.856  17.249   0.929
88466W        W60880  17.717  44.903  10.023
88467W        W60881   6.868  11.651   3.158
88468W        W60882   6.415  26.105   5.277
88469W        W60883   6.815  28.634  13.529
88470W        W60884  16.760  33.511  11.591
88471W        W60885  32.420  11.637  11.543
88472W        W60886   3.735   3.812  10.567
88473W        W60887  24.481  42.332  13.801
88474W        W60888  14.162  25.654  14.394
88475W        W60889  40.514  17.126  11.428
88476W        W60890  24.685  26.119   3.842
88477W        W60891  10.755   0.337  10.994
88478W        W60892   7.792   0.829   2.714
88479W        W60893  10.190  43.819   1.434
88480W        W60894  19.039  16.584   4.345
88481W        W60895  31.905  41.943  13.512
88482W        W60896   0.892  22.672  10.058
88483W        W60897   0.866  16.151  13.019
88484W        W60898  22.138  21.052  13.470
88485W        W60899  23.153  22.168  13.826
88486W        W60900  18.694   4.401  13.498
88487W        W60901  20.141  30.466  14.402
88488W        W60902   5.902   3.288  11.581
88489W        W60903  27.139  34.579   3.268
88490W        W60904   7.783  13.171   1.836
88491W        W60905   2.881  11.323   1.852
88492W        W60906  13.736   9.801   4.243
88493W        W60907  29.560  28.457  13.529
88494W        W60908  14.258  23.663  13.851
88495W        W60909   1.261  40.459  12.043
88496W        W60910  29.072  16.084   3.855
88497W        W60911  24.154  18.612   3.635
88498W        W60912  11.726   0.785  12.856
88499W        W60913  27.449   1.278  12.562
88500W        W60914   6.755  39.490  11.017
88501W        W60915  41.386  33.439  14.869
88502W        W60916   3.244  28.995  12.089
88503W        W60917  16.262   8.219  13.937
88504W        W60918  35.361   7.767  13.315
88505W        W60919  13.606  44.351  14.786
88506W        W60920  12.348   6.895   0.876
88507W        W60921  41.368  31.590  10.486
88508W        W60922  33.998   5.217  12.962
88509W        W60923  36.467  22.662  11.523
88510W        W60924   5.933  40.311  13.472
88511W        W60925  25.692  23.092   3.250
88512W        W60926  26.171  34.443   1.414
88513W        W60927  35.023  28.666   0.800
88514W        W60928  29.538  39.831   3.249
88515W        W60929  10.242  31.896  14.843
88516W        W60930  35.935   0.986   3.676
88517W        W60931  41.407   4.355  14.781
88518W        W60932  22.025  21.511   0.390
88519W        W60933   5.280  20.258  12.886
88520W        W60934  24.556  23.067  12.542
88521W        W60935  34.432  36.582   4.729
88522W        W60936  11.786   9.755   4.623
88523W        W60937  43.764   0.932   1.257
88524W        W60938  30.116  11.252  10.939
88525W        W60939  27.669  16.579   4.705
88526W        W60940   5.722  29.984  10.482
88527W        W60941   7.205  20.588   4.185
88528W        W60942  12.159  19.697   1.818
88529W        W60943  16.633  16.263   3.215
88530W        W60944  28.439  25.065   1.791
88531W        W60945  26.473   1.267   4.219
88532W        W60946  31.079  13.186  13.988
88533W        W60947   2.770  15.148  10.636
88534W        W60948  39.985  13.635   4.780
88535W        W60949   9.317  14.115  10.595
88536W        W60950   8.259  39.363   2.772
88537W        W60951  32.027  16.694  10.902
88538W        W60952  38.412   2.868   1.761
88539W        W60953  10.148  34.490   3.164
88540W        W60954  24.718  24.991  10.483
88541W        W60955  19.599  35.576  14.908
88542W        W60956  36.041   3.834  14.478
88543W        W60957  24.495   2.298   4.257
88544W        W60958  38.008  38.531  12.426
88545W        W60959  34.104   2.260  13.876
88546W        W60960   5.335  24.561  14.362
88547W        W60961  20.674  33.545   1.789
88548W        W60962  22.704   9.869  13.828
88549W        W60963  18.238  13.673   2.841
88550W        W60964   0.818   7.852   0.396
88551W        W60965  42.929   3.223   9.942
88552W        W60966   5.347  38.462  10.593
88553W        W60967  38.979   3.943   4.281
88554W        W60968  40.365  30.610   1.313
88555W        W60969  11.776  22.733  12.864
88556W        W60970  16.652  11.639   1.276
88557W        W60971  31.421  32.132  14.440
88558W        W60972  25.500   6.360  10.558
88559W        W60973  22.061  16.649   4.672
88560W        W60974  36.485  22.593  13.374
88561W        W60975  43.992  11.236  11.420
88562W        W60976  42.819  14.655   1.304
88563W        W60977  13.346  36.929  14.773
88564W        W60978  23.027  26.530  12.978
88565W        W60979  41.876  36.474   1.308
88566W        W60980  35.877  30.648   2.212
88567W        W60981  35.862   6.415  10.451
88568W        W60982  12.123  30.012   2.695
88569W        W60983  41.512  36.453   0.929
88570W        W60984   4.419  29.667  14.978
88571W        W60985  19.611  16.092   3.187
88572W        W60986  27.537  40.431  14.474
88573W        W60987  36.465  36.589  11.973
88574W        W60988  31.566  13.727   4.135
88575W        W60989   1.262  25.655   2.772
88576W        W60990  12.776  21.662  11.990
88577W        W60991  42.805  15.596  12.836
88578W        W60992   4.857  42.440   2.774
88579W        W60993   5.312   9.377   3.290
88580W        W60994   0.409   2.245  13.819
88581W        W60995  26.017  44.274   2.900
88582W        W60996  41.954   0.252  12.385
88583W        W60997  20.721  37.578  10.473
88584W        W60998   7.363  36.392  11.520
88585W        W60999  19.741  22.077  10.549
88586W        W61000  18.582  23.491   3.230
88587W        W61001  15.088  18.099   3.155
88588W        W61002  30.650  15.305   0.835
88589W        W61003   5.714  44.978   0.455
88590W        W61004  34.039  38.348   3.197
88591W        W61005  10.791   4.869  11.481
88592W        W61006   9.850   8.369  11.521
88593W        W61007  20.151  22.675  11.876
88594W        W61008  40.984  42.969   3.186
88595W        W61009   4.853  41.309   3.208
88596W        W61010  12.694   8.892   3.355
88597W        W61011  40.930  29.018  11.115
88598W        W61012   6.910   6.788  14.804
88599W        W61013  31.637  22.668   1.249
88600W        W61014  21.078  32.986  11.946
88601W        W61015  26.113  41.902  13.328
88602W        W61016  13.754  18.283  14.311
88603W        W61017  31.085  15.086  10.600
88604W        W61018  41.925   8.821   3.780
88605W        W61019  23.207  19.645  12.824
88606W        W61020   1.770  13.170   2.366
88607W        W61021  32.926  44.362   4.762
88608W        W61022   9.707  36.851   3.687
88609W        W61023  24.996  38.377   1.817
88610W        W61024  24.044  23.039  12.850
88611W        W61025  43.370  19.663   4.246
88612W        W61026  28.637  41.895   4.162
88613W        W61027  16.596   5.367   4.714
88614W        W61028   0.332  31.971  11.085
88615W        W61029   0.808  42.488   1.739
88616W        W61030   3.225  16.194   0.317
88617W        W61031  28.549  21.745  10.439
88618W        W61032   2.282  21.187  14.988
88619W        W61033   2.850  39.947  14.923
88620W        W61034  37.336  16.606   9.944
88621W        W61035  34.504   4.438  11.033
88622W        W61036   5.299   0.356   4.773
88623W        W61037  11.854  32.633   2.351
88624W        W61038  40.855  23.558  10.941
88625W        W61039  39.931  38.398  12.439
88626W        W61040  11.636  41.944   0.778
88627W        W61041  36.451  26.078  10.484
88628W        W61042   1.745  15.200   2.723
88629W        W61043  38.527  41.793   4.802
88630W        W61044  26.620   9.804   3.798
88631W        W61045   9.219   4.908   1.744
88632W        W61046   6.837   5.710   4.711
88633W        W61047  27.067  39.519   4.610
88634W        W61048  18.546  24.110   1.715
88635W        W61049  32.108  10.869   4.672
88636W        W61050  20.181  20.582   2.352
88637W        W61051  31.457  36.019   3.162
88638W        W61052  15.301  38.893   1.390
88639W        W61053   6.228  19.610   5.137
88640W        W61054   5.210  25.186  12.887
88641W        W61055  33.546  36.017  13.835
88642W        W61056  30.655  37.002   1.921
88643W        W61057  13.785  14.296   3.686
88644W        W61058  29.513  23.700   2.793
88645W        W61059  12.717  17.768   5.260
88646W        W61060  26.137   6.888   4.304
88647W        W61061   7.856  13.215   0.811
88648W        W61062  23.670   6.716   2.732
88649W        W61063  41.838   4.418   4.802
88650W        W61064  20.636   3.299  11.084
88651W        W61065  40.414  15.650  11.099
88652W        W61066   7.368  17.567   1.769
88653W        W61067  21.038  25.704   3.153
88654W        W61068  43.871  41.809   1.867
88655W        W61069  32.440  28.516  10.456
88656W        W61070  32.111  30.956  13.318
88657W        W61071  43.285  20.673  11.012
88658W        W61072   1.318   7.171  10.444
88659W        W61073  13.347  41.824   3.774
88660W        W61074  31.000  29.530  10.551
88661W        W61075  12.756  28.183  12.534
88662W        W61076  35.518  12.709   1.304
88663W        W61077   4.396  16.694   0.341
88664W        W61078  12.734  38.558  13.511
88665W        W61079  33.421  27.513  14.811
88666W        W61080  23.097  12.772   4.758
88667W        W61081  18.646  21.622   0.405
88668W        W61082  41.020  26.673   0.255
88669W        W61083  29.475  31.949  11.885
88670W        W61084   6.288  36.503   3.224
88671W        W61085   2.776  42.868  13.020
88672W        W61086  34.419  31.458   3.688
88673W        W61087   2.401  43.293   0.376
88674W        W61088  26.685  34.915   0.368
88675W        W61089  40.947   9.677   0.843
88676W        W61090  35.357  18.581  12.342
88677W        W61091   2.865  28.017   4.681
88678W        W61092  11.282  15.625   0.287
88679W        W61093  44.438  43.315   0.822
88680W        W61094   1.840  31.547  10.490
88681W        W61095  31.492   4.725  10.015
88682W        W61096   9.883  13.249   3.323
88683W        W61097   0.357  13.834   1.400
88684W        W61098  15.796  13.723  11.612
88685W        W61099  24.682  18.660  11.421
88686W        W61100  44.406  32.605  10.579
88687W        W61101  22.183  24.646  12.382
88688W        W61102  22.578  16.311  10.998
88689W        W61103  24.515  15.097   1.333
88690W        W61104  44.357  35.577   4.823
88691W        W61105  27.515  44.900   4.231
88692W        W61106   8.393  31.928   2.367
88693W        W61107  12.817  35.072   2.691
88694W        W61108  21.020   8.898  13.367
88695W        W61109  26.954  43.337  13.533
88696W        W61110   3.826   9.879   3.674
88697W        W61111  27.557  42.291   1.715
88698W        W61112  30.155  29.126   1.839
88699W        W61113   8.226   1.898  13.425
88700W        W61114   8.686  35.002  14.861
88701W        W61115  43.940  23.581  14.999
88702W        W61116   6.217  30.057   3.199
88703W        W61117  18.580   5.877   1.829
88704W        W61118  18.293  17.628   3.839
88705W        W61119  40.461  18.566   0.324
88706W        W61120   3.278  16.300  13.034
88707W        W61121  27.555  27.657  11.031
88708W        W61122  35.402  23.710  11.111
88709W        W61123  19.688  35.107  13.435
88710W        W61124  39.980  10.790  14.002
88711W        W61125  10.284  32.634   3.322
88712W        W61126  34.373  34.053  14.773
88713W        W61127  43.833  41.986  13.445
88714W        W61128  31.453  15.235   1.763
88715W        W61129   4.784  31.101  13.904
88716W        W61130  11.334  13.679   0.853
88717W        W61131  41.426   3.441   4.785
88718W        W61132  23.709   2.356   1.879
88719W        W61133  34.389  31.519   0.830
88720W        W61134  13.837  29.133   2.748
88721W        W61135  41.854  42.370  13.373
88722W        W61136   7.375  11.251  14.776
88723W        W61137   8.833  42.785   1.439
88724W        W61138   8.814  18.568   1.297
88725W        W61139  44.938   5.435   1.413
88726W        W61140   4.703  41.902   2.843
88727W        W61141  22.653  12.774   2.885
88728W        W61142   1.859  17.217  10.933
88729W        W61143  24.642  27.629  12.987
88730W        W61144  22.561  21.177   3.668
88731W        W61145  40.321   1.797  13.383
88732W        W61146  27.130  16.573  14.291
88733W        W61147  38.353   2.298  13.905
88734W        W61148  34.983   3.356  14.896
88735W        W61149  29.068  18.109   1.440
88736W        W61150  11.185  25.681   1.240
88737W        W61151  38.896  14.646  14.000
88738W        W61152  17.149  21.127   4.614
88739W        W61153   9.343  33.542  11.918
88740W        W61154  42.387  27.164   4.698
88741W        W61155  34.053  26.595   2.195
88742W        W61156  20.561   1.430   4.208
88743W        W61157   6.260  10.238   5.093
88744W        W61158  41.394  33.610  11.438
88745W        W61159  43.000   9.243  11.477
88746W        W61160  11.699   4.275   4.328
88747W        W61161  38.348  23.526   3.251
88748W        W61162  10.821  11.357  10.963
88749W        W61163  15.641  39.055   2.251
88750W        W61164  32.560  22.219  14.936
88751W        W61165  19.213  27.112   4.775
88752W        W61166  13.667  36.569   3.743
88753W        W61167  36.572  37.971   0.409
88754W        W61168   9.277   9.196   0.337
88755W        W61169  42.803  44.395  12.349
88756W        W61170  20.543   4.295   3.199
88757W        W61171   5.368  18.171   0.841
88758W        W61172  41.812   7.386  11.491
88759W        W61173  22.150   4.802   3.382
88760W        W61174  39.446  44.492  11.542
88761W        W61175  18.157  40.375  11.419
88762W        W61176  44.832   6.879  12.059
88763W        W61177  43.294  17.126   1.224
88764W        W61178   2.807  29.432  14.977
88765W        W61179   5.299  35.383   1.707
88766W        W61180  26.090  35.050   4.181
88767W        W61181   4.726  22.588  12.876
88768W        W61182   0.399  36.431   1.389
88769W        W61183  25.648  13.301  14.308
88770W        W61184  19.120   8.190   3.225
88771W        W61185  35.426  14.240   3.225
88772W        W61186   7.821  12.328  14.370
88773W        W61187   5.195  42.480  10.889
88774W        W61188  12.216  42.914   0.282
88775W        W61189  44.341  24.631  12.843
88776W        W61190  36.036  32.631   3.713
88777W        W61191  16.167   6.771   2.394
88778W        W61192   9.337  10.362  11.384
88779W        W61193  26.552  37.526  10.407
88780W        W61194   0.938   1.760  13.005
88781W        W61195  37.346   4.335  13.042
88782W        W61196  26.004   9.388  11.477
88783W        W61197  29.918  37.844  10.916
88784W        W61198  22.625  17.229   1.213
88785W        W61199  24.190   8.732   1.884
88786W        W61200  24.097  22.217   1.719
88787W        W61201  20.677  39.873   2.368
88788W        W61202  39.366  25.130  13.050
88789W        W61203  27.613  39.502  10.644
88790W        W61204  21.744  42.286   2.397
88791W        W61205  28.456   3.752   0.892
88792W        W61206  41.509   9.753   0.817
88793W        W61207  20.664   7.902   2.260
88794W        W61208   7.403  25.986   4.165
88795W        W61209  30.549  44.806  11.935
88796W        W61210   8.217  12.295  14.350
88797W        W61211  11.245  30.585  13.421
88798W        W61212   7.410  17.209   5.150
88799W        W61213  18.245  31.437  12.500
88800W        W61214  18.765  11.354   0.390
88801W        W61215  18.758  44.404   0.299
88802W        W61216  40.927  31.121   3.687
88803W        W61217   0.808  28.538   3.249
88804W        W61218  43.964  31.544  13.520
88805W        W61219   6.891  28.098   4.617
88806W        W61220  16.256  17.118  10.479
88807W        W61221  32.068  15.726  10.949
88808W        W61222  42.974  37.340  14.883
88809W        W61223  24.015   9.876  11.575
88810W        W61224  12.227  13.165   3.811
88811W        W61225  18.636  22.197  10.462
88812W        W61226  11.729  31.577  10.979
88813W        W61227  26.563  32.976   3.332
88814W        W61228  27.042  12.791  13.807
88815W        W61229  13.624  22.553  14.390
88816W        W61230  28.636  11.169  11.882
88817W        W61231   9.326  41.823   1.860
88818W        W61232  38.863  19.576   2.260
88819W        W61233  23.035  39.980   1.227
88820W        W61234   2.444  28.975   1.753
88821W        W61235  17.578  10.660   2.243
88822W        W61236  12.616  10.332   2.760
88823W        W61237  36.847  24.991   2.868
88824W        W61238  41.402  12.213   2.887
88825W        W61239  26.697  26.135   2.416
88826W        W61240  24.600  33.988  13.832
88827W        W61241   4.440  22.250   3.805
88828W        W61242  21.209  40.959  10.921
88829W        W61243  22.683  11.183  13.449
88830W        W61244  31.900  38.489  10.622
88831W        W61245  33.032  26.560  12.983
88832W        W61246  28.605  40.931   4.225
88833W        W61247   9.693   4.350   1.829
88834W        W61248  37.348  42.954  14.364
88835W        W61249  21.672   8.306  11.972
88836W        W61250  14.728  14.283  12.530
88837W        W61251  29.556   3.954  12.430
88838W        W61252  32.441   2.358  11.009
88839W        W61253   8.313  34.052  14.920
88840W        W61254  12.841   8.339   2.902
88841W        W61255  11.697  18.270  14.833
88842W        W61256  31.959  35.942   1.384
88843W        W61257  38.076  42.527   4.737
88844W        W61258   9.177  19.607  12.095
88845W        W61259  25.152   1.907   2.346
88846W        W61260   2.809   2.904   4.315
88847W        W61261  14.194  31.022   5.136
88848W        W61262  12.322  14.770  10.572
88849W        W61263   1.296  32.414  13.821
88850W        W61264  40.484   3.282   1.788
88851W        W61265  44.866  10.154   0.882
88852W        W61266  33.083  16.163  14.331
88853W        W61267   5.862  20.154  13.315
88854W        W61268   1.309  34.450  11.443
88855W        W61269  40.357  44.965   4.694
88856W        W61270  35.048  15.317   1.909
88857W        W61271  37.456  23.670  11.895
88858W        W61272  26.471   2.340   1.899
88859W        W61273   2.956   9.692   0.926
88860W        W61274  11.825  30.530   3.734
88861W        W61275  37.861  44.899   1.828
88862W        W61276   2.327  39.870  14.961
88863W        W61277  42.949  36.079   0.287
88864W        W61278  12.727  32.048   4.789
88865W        W61279  42.884  36.947   0.894
88866W        W61280  12.256  16.202  13.039
88867W        W61281  24.996   0.364   2.901
88868W        W61282  42.291  37.445  13.389
88869W        W61283  15.811  37.449   0.417
88870W        W61284  28.474  41.876  14.429
88871W        W61285  12.812   6.832  10.484
88872W        W61286  40.522  43.832  13.469
88873W        W61287   1.276  25.651   3.849
88874W        W61288  27.468  34.089  14.316
88875W        W61289  15.591  21.534   2.669
88876W        W61290   9.371   9.890   4.762
88877W        W61291   7.709  28.021   5.169
88878W        W61292  31.047  12.650   3.246
88879W        W61293  32.013  22.646  12.367
88880W        W61294  11.289  15.092  11.994
88881W        W61295  44.401   3.377   2.861
88882W        W61296   3.733   5.691   2.418
88883W        W61297  18.645  28.095  14.421
88884W        W61298  31.901  25.531  14.349
88885W        W61299  33.089  24.166  10.908
88886W        W61300  24.701   6.249  10.999
88887W        W61301  19.217  42.014   2.880
88888W        W61302  15.735   6.850   2.237
88889W        W61303  40.898   3.713  12.365
88890W        W61304   0.948   4.348  11.372
88891W        W61305   8.262  12.744  11.515
88892W        W61306  38.537   6.847   3.777
88893W        W61307  15.592  18.676  11.076
88894W        W61308  31.904  26.674  13.513
88895W        W61309  30.024  32.051   3.279
88896W        W61310  32.456  21.735  11.993
88897W        W61311   3.716   1.733   4.175
88898W        W61312  36.893  18.086  13.845
88899W        W61313  20.090  39.541   2.878
88900W        W61314  33.411  32.011  12.016
88901W        W61315  29.042  25.484  11.983
88902W        W61316  28.596  30.432   0.440
88903W        W61317  41.291  11.257   3.154
88904W        W61318  31.479   1.783   3.146
88905W        W61319  31.120  31.502   4.310
88906W        W61320  24.157  39.923   0.761
88907W        W61321   1.395  12.752  13.449
88908W        W61322  30.584  27.017   2.814
88909W        W61323   7.376  35.024  12.842
88910W        W61324  23.135  32.547   3.807
88911W        W61325  19.062  36.397  10.915
88912W        W61326   2.255   1.854   5.200
88913W        W61327  15.687  15.310  12.339
88914W        W61328  40.549  25.185   5.215
88915W        W61329  20.168  40.420  14.772
88916W        W61330  10.197   2.438  10.610
88917W        W61331   4.925  43.916   0.332
88918W        W61332  16.133  13.748  12.479
88919W        W61333  19.151  21.081  13.877
88920W        W61334  40.835  36.958  14.365
88921W        W61335  37.042   2.845  12.994
88922W        W61336  16.252   9.864  11.448
88923W        W61337  16.682  23.205  14.275
88924W        W61338  41.439   8.261  14.506
88925W        W61339  30.079  14.125   4.697
88926W        W61340  11.825  18.238   3.830
88927W        W61341  20.532   7.887   0.833
88928W        W61342   8.672  33.454  12.014
88929W        W61343  32.518  27.097   3.796
88930W        W61344  15.719  30.486  10.894
88931W        W61345  20.254   8.401   3.762
88932W        W61346  24.684  34.424   2.895
88933W        W61347  30.936  40.958  14.797
88934W        W61348  13.262  23.560  12.876
88935W        W61349  22.194  42.500  13.904
88936W        W61350  18.613  39.440  13.377
88937W        W61351  31.943  16.310   4.768
88938W        W61352  22.059  17.121   3.814
88939W        W61353  20.065  22.211   0.886
88940W        W61354  31.054  28.577  13.338
88941W        W61355   5.305  14.227   0.960
88942W        W61356  30.081  14.627  14.966
88943W        W61357   5.435  31.011   3.233
88944W        W61358  11.335  10.756  10.595
88945W        W61359  37.442   4.769   5.250
88946W        W61360  16.243  23.231   1.424
88947W        W61361  28.167   2.898  13.898
88948W        W61362  18.767  17.686   1.914
88949W        W61363   7.181  27.629  10.484
88950W        W61364  28.958   4.930  11.942
88951W        W61365  25.169  19.269  14.501
88952W        W61366  39.944  41.834  11.974
88953W        W61367  14.726   3.814   0.833
88954W        W61368   3.777  20.141   2.766
88955W        W61369  25.033  22.692  12.478
88956W        W61370   4.362  14.208   3.859
88957W        W61371   7.197   7.341   0.826
88958W        W61372  37.555  39.454  13.322
88959W        W61373  14.213  28.478   0.271
88960W        W61374  13.182  37.573  10.957
88961W        W61375   2.804  25.581  11.087
88962W        W61376  27.083  17.675   2.852
88963W        W61377  27.534  27.946   3.762
88964W        W61378   9.297  22.073  10.957
88965W        W61379  28.031  38.824   5.292
88966W        W61380  44.402  16.247  13.835
88967W        W61381  40.852   1.475   3.702
88968W        W61382  39.025  44.449   0.800
88969W        W61383  14.226  12.258   4.245
88970W        W61384  32.044  16.205  10.548
88971W        W61385  33.603  18.699   1.826
88972W        W61386  25.598   8.735   4.335
88973W        W61387  27.144  26.556   3.761
88974W        W61388  19.138  31.927   3.674
88975W        W61389   8.741  34.413   1.835
88976W        W61390  41.956  14.158   2.837
88977W        W61391   6.725  11.291  14.791
88978W        W61392  44.463  11.857  10.463
88979W        W61393  34.602  12.821   1.240
88980W        W61394  13.668  22.608   2.293
88981W        W61395  37.572  11.843  14.412
88982W        W61396  42.007  16.571  13.879
88983W        W61397  37.949  20.717  12.550
88984W        W61398  38.498  33.559  10.047
88985W        W61399  41.850  11.772   0.286
88986W        W61400  25.512   1.307  14.902
88987W        W61401  10.241  32.469  11.414
88988W        W61402  17.194  39.060  11.524
88989W        W61403  26.651  26.078  13.376
88990W        W61404  29.918  41.480  13.812
88991W        W61405  39.551  11.802  10.557
88992W        W61406  17.591  31.089   1.294
88993W        W61407  35.468  18.237   2.829
88994W        W61408  40.838  26.535   3.661
88995W        W61409  32.503  17.603  14.488
88996W        W61410  29.658   0.820   3.318
88997W        W61411   6.706  33.940   0.885
88998W        W61412  44.298   6.222   4.189
88999W        W61413   0.856  28.968  11.079
89000W        W61414  14.752  19.570   2.817
89001W        W61415   3.239  30.583  13.012
89002W        W61416   1.971  11.327  11.594
89003W        W61417   5.899  13.268   0.320
89004W        W61418  14.208   4.389  13.316
89005W        W61419  32.982  39.857   0.339
89006W        W61420  14.750  15.219  13.460
89007W        W61421   3.853   3.770  11.895
89008W        W61422  27.677   9.792  11.515
89009W        W61423  33.913   6.245   3.299
89010W        W61424  25.492   5.806   3.732
89011W        W61425   4.936  35.877  10.010
89012W        W61426  33.056  43.895   4.763
89013W        W61427  35.915  18.598   1.349
89014W        W61428  13.608  38.476  13.995
89015W        W61429  32.053   6.800   4.199
89016W        W61430   9.311   5.308   4.169
89017W        W61431  40.468   0.964   4.297
89018W        W61432  18.107  23.126  13.035
89019W        W61433   1.902   6.787  13.528
89020W        W61434  34.467  12.709  13.321
89021W        W61435  13.670  18.187  13.954
89022W        W61436   9.320  25.046   0.781
89023W        W61437  39.885  44.304  12.342
89024W        W61438   3.227  41.349   3.642
89025W        W61439  32.451  28.583   4.174
89026W        W61440   3.769  44.275   2.753
89027W        W61441  25.023  21.622  14.901
89028W        W61442  21.149  37.386  10.411
89029W        W61443  17.278   5.929   3.268
89030W        W61444  29.492   0.402   1.774
89031W        W61445   1.260  29.535   0.331
89032W        W61446   2.813  33.094  10.641
89033W        W61447  13.198  17.189  10.106
89034W        W61448  34.431   9.198  10.925
89035W        W61449  33.027  38.837  11.055
89036W        W61450   3.907  24.519  13.344
89037W        W61451  33.596  36.098  13.015
89038W        W61452  33.937  14.321  10.911
89039W        W61453  21.115  20.666  14.861
89040W        W61454  13.699  29.948  11.546
89041W        W61455   9.382  17.762   1.896
89042W        W61456  33.911  31.930  14.794
89043W        W61457   3.730  43.333   5.691
89044W        W61458  41.938  19.564  12.875
89045W        W61459  34.527   2.833  13.457
89046W        W61460  42.783  24.048  11.908
89047W        W61461  16.667  18.638   2.826
89048W        W61462  42.308  41.323  14.862
89049W        W61463  40.315   1.320  13.004
89050W        W61464   3.241  39.380   0.741
89051W        W61465  24.595   0.431  12.049
89052W        W61466  43.867  27.574  14.853
89053W        W61467  36.052  37.953  10.548
89054W        W61468  32.025  16.639  14.988
89055W        W61469  21.033  37.559   2.340
89056W        W61470   7.216  16.747   2.265
89057W        W61471  34.538  18.548   2.190
89058W        W61472  20.121  44.468  11.411
89059W        W61473   7.715  12.684  12.343
89060W        W61474  29.167   2.277   0.901
89061W        W61475  20.621  17.214   1.413
89062W        W61476  14.793  17.095   3.713
89063W        W61477   3.851  13.613   0.469
89064W        W61478  36.032  42.426  12.094
89065W        W61479  39.533   4.754   1.363
89066W        W61480  20.260  39.433  11.431
89067W        W61481   2.745  25.196  14.830
89068W        W61482  41.842  13.145  10.497
89069W        W61483  43.009  44.364   0.446
89070W        W61484  28.595  42.407   4.598
89071W        W61485  22.675  15.201  10.421
89072W        W61486  19.564  10.863  10.985
89073W        W61487  15.681  14.776   2.321
89074W        W61488  35.993  18.261   1.384
89075W        W61489  27.512  15.819  14.477
89076W        W61490  10.146  37.378  11.025
89077W        W61491  32.025  30.607   4.170
89078W        W61492  15.628  19.224   1.340
89079W        W61493  32.949  18.558   0.387
89080W        W61494  43.885  43.374  13.345
89081W        W61495  12.851  18.267  14.008
89082W        W61496  24.591   0.804  15.000
89083W        W61497  33.898  17.689   0.439
89084W        W61498  33.400  34.505  14.831
89085W        W61499  12.250   0.941   2.818
89086W        W61500  14.238  13.672   1.314
89087W        W61501  38.929   1.933  14.828
89088W        W61502   4.225  39.838   5.193
89089W        W61503  25.114   2.272   0.852
89090W        W61504  41.925  15.171  14.431
89091W        W61505   6.223  27.560   1.288
89092W        W61506  35.583   0.462  12.392
89093W        W61507  14.597  40.888  10.925
89094W        W61508  33.602  42.793  12.932
89095W        W61509  34.081  18.651  12.431
89096W        W61510  22.594  10.331   3.168
89097W        W61511  44.984  14.262   0.447
89098W        W61512   4.858  40.480   3.304
89099W        W61513   6.717  34.536   4.244
89100W        W61514  10.683  29.022  13.020
89101W        W61515  15.655  21.179   1.210
89102W        W61516  23.504  40.424  12.080
89103W        W61517  23.196  41.828   1.408
89104W        W61518  10.196  10.827  11.585
89105W        W61519  11.747  30.920   3.334
89106W        W61520  35.405  11.632   3.325
89107W        W61521  29.983  22.235   0.758
89108W        W61522  15.673  22.553  12.353
89109W        W61523   3.723  35.001   4.130
89110W        W61524   4.740  23.012   3.254
89111W        W61525   0.812  29.002   1.433
89112W        W61526  17.620  17.267   1.897
89113W        W61527  11.786   0.396   4.292
89114W        W61528  28.557  26.656   1.433
89115W        W61529  22.246  10.656   2.278
89116W        W61530  28.942   9.244   3.706
89117W        W61531   2.365  33.424   0.397
89118W        W61532  40.443  44.467   2.292
89119W        W61533  17.247   4.915   2.785
89120W        W61534   5.195  39.043  10.458
89121W        W61535  37.079  28.588   3.224
89122W        W61536   4.248   1.945  11.572
89123W        W61537   7.698   2.318   4.640
89124W        W61538  20.179  31.058   0.470
89125W        W61539   2.893  26.184   4.232
89126W        W61540  18.066   6.818  13.004
89127W        W61541  14.706  10.818  13.849
89128W        W61542   4.311  38.854  13.793
89129W        W61543  30.164  40.901  13.892
89130W        W61544  18.191   9.324  10.631
89131W        W61545  25.198  29.664  12.565
89132W        W61546  22.047  39.510   0.484
89133W        W61547  13.622  36.097   2.404
89134W        W61548  23.519  26.201   2.763
89135W        W61549  42.833  19.686  12.052
89136W        W61550   0.780  44.996   1.812
89137W        W61551  42.319  35.960   1.887
89138W        W61552  44.935  29.450   0.251
89139W        W61553  12.153  20.219  14.945
89140W        W61554   4.729  16.662   4.159
89141W        W61555  27.603  36.083   1.343
89142W        W61556  15.093  20.257   5.257
89143W        W61557  10.696  35.003  12.528
89144W        W61558  34.376  31.968  10.087
89145W        W61559  14.135   7.293  11.409
89146W        W61560  31.404  31.090  10.525
89147W        W61561   0.919  37.067  11.460
89148W        W61562  34.079  35.543  14.768
89149W        W61563   6.190  15.311   4.712
89150W        W61564  20.631   2.401   1.807
89151W        W61565  31.150  29.460   1.836
89152W        W61566  27.663  38.950   4.800
89153W        W61567  27.980  35.597  13.487
89154W        W61568   2.941  42.488  14.354
89155W        W61569   2.268  22.131   0.889
89156W        W61570   5.221  12.252   1.344
89157W        W61571  43.015   6.697   1.299
89158W        W61572   5.229  12.258   4.794
89159W        W61573   8.271  14.675   0.378
89160W        W61574  43.333  11.373   1.908
89161W        W61575  31.900  29.495   1.809
89162W        W61576  10.187  21.517   4.655
89163W        W61577  27.139  30.607   1.226
89164W        W61578   6.247   7.364   3.701
89165W        W61579  27.088  33.380  11.953
89166W        W61580  41.963  40.477  11.029
89167W        W61581  31.445  23.575  11.383
89168W        W61582   5.318   4.355  11.050
89169W        W61583  32.419   9.797   4.326
89170W        W61584  39.884  11.175   0.285
89171W        W61585  23.520  23.570   4.220
89172W        W61586  11.643   3.930  13.021
89173W        W61587  14.102   9.155   1.731
89174W        W61588  11.819  12.717  12.983
89175W        W61589  32.411   3.455  14.385
89176W        W61590  38.484  29.599  11.377
89177W        W61591  42.498   6.254   3.717
89178W        W61592  35.856  28.161  11.121
89179W        W61593  29.115   8.194  12.341
89180W        W61594  27.141  13.265  14.374
89181W        W61595  36.042  24.206   4.684
89182W        W61596  40.952   9.784   1.926
89183W        W61597  11.161  10.189   4.230
89184W        W61598  36.911  41.344  14.017
89185W        W61599  11.647  26.564   5.276
89186W        W61600   9.196  23.197  13.017
89187W        W61601  15.282  40.018  11.057
89188W        W61602  16.669  21.564   4.818
89189W        W61603  23.630   7.889  11.597
89190W        W61604  20.114   7.266  14.378
89191W        W61605  13.263  26.031  13.870
89192W        W61606  35.093  18.570   2.777
89193W        W61607   3.880  41.904   9.989
89194W        W61608  20.730   3.311  14.301
89195W        W61609  28.034  27.008   2.851
89196W        W61610  20.157  43.881   2.797
89197W        W61611  28.063  23.661   3.833
89198W        W61612  18.555  29.141   1.303
89199W        W61613   4.255  11.262  12.912
89200W        W61614   1.971  36.466  11.936
89201W        W61615  19.230  41.365  14.396
89202W        W61616   2.786   4.912  10.416
89203W        W61617  22.148  31.516  10.997
89204W        W61618  20.266   0.930  10.081
89205W        W61619  43.903  30.475  14.768
89206W        W61620  24.050  27.649   0.317
89207W        W61621  28.492  16.295  13.529
89208W        W61622   6.345  23.681   4.211
89209W        W61623  39.532  35.065   4.635
89210W        W61624  29.500  29.924  14.323
89211W        W61625  12.270  29.515   1.712
89212W        W61626  28.940  36.865   2.856
89213W        W61627  20.214  40.326  11.003
89214W        W61628  31.599   8.321  13.315
89215W        W61629   4.448   8.857   2.203
89216W        W61630  30.610  35.378   0.285
89217W        W61631  40.338   8.719   4.623
89218W        W61632  18.610  18.547  14.465
89219W        W61633  18.580   0.800  11.068
89220W        W61634  43.275  23.689  13.313
89221W        W61635   0.877  21.539   3.747
89222W        W61636  35.877  40.473  14.334
89223W        W61637  19.085   5.843   3.642
89224W        W61638  36.471  29.558   4.783
89225W        W61639  26.951  44.851  12.946
89226W        W61640   8.241  32.983   3.825
89227W        W61641   7.200  39.410  12.061
89228W        W61642  13.249  31.471   3.689
89229W        W61643  15.157  35.055  11.972
89230W        W61644  12.196  38.013  11.958
89231W        W61645  23.645   5.777   3.240
89232W        W61646  29.944  36.355  10.425
89233W        W61647  32.446  11.184  14.310
89234W        W61648  18.693  35.882   5.283
89235W        W61649  44.958  31.147  10.560
89236W        W61650  31.509  23.660  11.903
89237W        W61651   3.301  20.667  12.904
89238W        W61652  41.310  27.024  13.878
89239W        W61653  22.568  33.132  11.475
89240W        W61654  26.971  30.439   3.782
89241W        W61655  18.276  23.142   2.713
89242W        W61656  23.692  11.341  12.481
89243W        W61657  42.996  23.673  11.987
89244W        W61658  29.572  13.138   3.301
89245W        W61659   2.403   5.270   0.808
89246W        W61660  27.061   7.672  13.013
89247W        W61661   1.813  10.344  13.026
89248W        W61662  16.736  43.771  10.132
89249W        W61663  32.051   5.833   4.199
89250W        W61664  24.646  17.653  10.487
89251W        W61665  27.523   2.356   0.809
89252W        W61666  28.959  33.454  13.900
89253W        W61667   6.725  30.599  13.954
89254W        W61668  36.551   2.917   0.901
89255W        W61669  34.377  23.085  11.381
89256W        W61670  21.229   6.762   4.287
89257W        W61671  17.619  26.685  14.917
89258W        W61672  25.090  14.730   1.402
89259W        W61673  16.074  32.578   0.819
89260W        W61674  11.757   1.938  10.428
89261W        W61675  40.517  40.440  14.763
89262W        W61676  36.929  30.480  14.501
89263W        W61677  16.679  25.706   0.835
89264W        W61678  44.889  23.192   2.811
89265W        W61679  31.901  32.084   1.869
89266W        W61680  12.808  36.955  10.947
89267W        W61681  39.348  25.143  11.039
89268W        W61682  40.862  18.203  13.502
89269W        W61683  27.121  40.999   4.732
89270W        W61684  12.247  11.302  11.968
89271W        W61685  25.641  39.830  10.905
89272W        W61686   3.928  16.740   4.196
89273W        W61687  41.900  23.491   0.313
89274W        W61688   1.741   6.356  12.940
89275W        W61689  30.123  20.149  11.986
89276W        W61690  23.631  37.400   2.347
89277W        W61691  10.731   0.375  14.276
89278W        W61692   1.275  43.483  14.910
89279W        W61693  16.694  14.302  13.055
89280W        W61694   7.390   7.756  12.955
89281W        W61695  33.944  12.734  14.864
89282W        W61696  11.707  41.848   3.803
89283W        W61697  15.246  27.136  13.928
89284W        W61698  32.133  44.005  13.031
89285W        W61699  40.963  27.665   2.849
89286W        W61700  38.046  13.230   2.886
89287W        W61701  26.507  15.196   0.317
89288W        W61702  40.998  12.128   3.363
89289W        W61703  13.349  35.915   2.689
89290W        W61704   6.731  22.087   2.299
89291W        W61705  30.137  35.046  14.880
89292W        W61706  12.653   8.231  10.636
89293W        W61707   4.786  25.640  11.578
89294W        W61708  19.760  30.604  10.575
89295W        W61709  42.396  22.074  11.514
89296W        W61710  35.873  25.201  10.896
89297W        W61711   3.829  28.023  13.914
89298W        W61712   0.805  35.361   1.924
89299W        W61713   8.306   8.211  13.425
89300W        W61714  36.498  18.254  11.858
89301W        W61715  15.285  26.701  11.372
89302W        W61716   8.796  32.140   4.780
89303W        W61717   7.710  34.575  11.566
89304W        W61718  17.211  42.438  10.617
89305W        W61719  23.099  13.662   0.746
89306W        W61720   0.918  26.955   2.874
89307W        W61721  17.585  16.811  13.534
89308W        W61722  44.856   1.943   1.439
89309W        W61723   7.347  12.754   3.717
89310W        W61724  41.804  14.801   0.853
89311W        W61725  11.814   0.452   3.185
89312W        W61726  34.384  26.516   1.282
89313W        W61727  30.509  37.948  11.032
89314W        W61728  14.109  39.972  10.413
89315W        W61729  22.052  13.639   4.602
89316W        W61730  40.899   9.677  13.934
89317W        W61731  28.484  12.344   2.699
89318W        W61732  22.241  28.535   1.926
89319W        W61733  14.683   1.761   4.239
89320W        W61734  18.198  27.088   2.864
89321W        W61735  28.438  36.052  10.969
89322W        W61736  38.958   1.355   2.794
89323W        W61737  21.221  44.917  14.511
89324W        W61738   1.239   1.451   2.778
89325W        W61739   3.363  26.962   3.276
89326W        W61740  21.703  14.741  11.412
89327W        W61741  39.406  27.526   4.145
89328W        W61742  35.023  22.023   0.864
89329W        W61743  24.509  39.055   3.645
89330W        W61744   9.698   5.862   2.667
89331W        W61745  27.135  44.853   1.251
89332W        W61746  40.368  16.708   4.291
89333W        W61747  39.405  32.967  10.078
89334W        W61748  16.792   3.820  11.878
89335W        W61749  14.824  32.018  14.425
89336W        W61750  12.213  31.558   2.293
89337W        W61751   4.733   2.248   1.801
89338W        W61752   5.918   8.400   0.960
89339W        W61753  37.929  27.115   4.215
89340W        W61754  26.641  17.182   4.726
89341W        W61755  31.420   0.416  13.885
89342W        W61756  31.055  11.777   4.631
89343W        W61757  25.117  28.442  12.364
89344W        W61758   4.374  31.941   5.087
89345W        W61759  43.360   9.354   0.334
89346W        W61760   2.894  19.710   1.289
89347W        W61761   1.255  38.396   1.729
89348W        W61762  22.109  36.953   4.162
89349W        W61763  29.572  26.533   0.452
89350W        W61764  22.119  20.675  13.362
89351W        W61765  32.615  27.117  12.955
89352W        W61766  15.762  20.170  13.991
89353W        W61767  11.856  29.166   4.664
89354W        W61768  11.690  34.113  12.040
89355W        W61769  39.906  38.512  11.476
89356W        W61770   1.368  36.418   4.688
89357W        W61771  35.048  38.914   5.235
89358W        W61772   0.336  40.456  14.886
89359W        W61773  25.024  36.564   3.800
89360W        W61774  39.436  39.500  14.884
89361W        W61775   6.262  40.396   2.887
89362W        W61776  21.066  10.787  14.453
89363W        W61777   6.773  11.271   0.420
89364W        W61778  44.399  23.648   0.337
89365W        W61779  16.133  16.276   2.777
89366W        W61780  12.130  14.639  11.594
89367W        W61781  22.067  23.710  14.321
89368W        W61782  34.459   7.316  11.582
89369W        W61783  17.109   9.214  10.567
89370W        W61784  26.991  19.645   3.199
89371W        W61785  12.248  19.763  13.892
89372W        W61786  35.425  25.979  11.462
89373W        W61787   0.267  35.978  14.005
89374W        W61788  11.752  27.194   0.317
89375W        W61789   8.815  37.444   2.288
89376W        W61790  32.007  37.861   0.791
89377W        W61791   5.298  23.585  14.361
89378W        W61792  29.622  29.054  13.353
89379W        W61793   7.202  22.644  13.442
89380W        W61794  39.435  33.128   0.342
89381W        W61795  38.483   3.400   0.753
89382W        W61796  25.114  37.448  14.362
89383W        W61797   7.795  27.185  13.905
89384W        W61798   2.880  16.124   1.780
89385W        W61799  39.004  40.395  13.406
89386W        W61800  35.451  38.839  12.902
89387W        W61801  22.085  38.341  12.433
89388W        W61802  24.640   4.936  13.988
89389W        W61803  31.428  12.846   2.670
89390W        W61804  30.927  42.940   0.341
89391W        W61805  28.650  19.759   0.331
89392W        W61806   7.276  36.398  11.945
89393W        W61807   5.863   0.264  10.496
89394W        W61808   2.292   1.861  13.918
89395W        W61809  28.593  30.080  14.483
89396W        W61810  28.936   0.271  11.562
89397W        W61811  23.568  20.615  13.311
89398W        W61812   5.798  12.218   0.271
89399W        W61813  38.465   1.471   0.426
89400W        W61814   8.305  30.533  12.944
89401W        W61815   2.794   0.450  13.824
89402W        W61816  36.413  29.611   4.246
89403W        W61817  22.659  43.282  11.086
89404W        W61818   0.962  25.566   0.887
89405W        W61819  20.596  24.117   3.305
89406W        W61820  24.171  10.185  14.356
89407W        W61821  14.797  24.566  13.323
89408W        W61822   1.282  23.996   0.453
89409W        W61823  32.895   5.245  14.818
89410W        W61824  18.762  35.968   1.246
89411W        W61825  11.634  35.927  10.429
89412W        W61826  23.699   0.290   5.677
89413W        W61827   5.816  39.516  10.460
89414W        W61828  42.989  37.998  14.297
89415W        W61829  42.315  32.037  14.486
89416W        W61830  11.296   7.909   2.195
89417W        W61831  44.479  10.213   3.320
89418W        W61832  18.769  27.661   1.345
89419W        W61833   3.942  17.709   3.185
89420W        W61834  22.653  18.603   3.283
89421W        W61835  26.696  42.399  13.381
89422W        W61836   6.761  44.849   1.852
89423W        W61837  11.196  26.493  10.591
89424W        W61838  37.837  26.153   3.790
89425W        W61839  32.410  13.308  14.452
89426W        W61840   1.763  26.690   4.743
89427W        W61841  27.948  15.270  13.509
89428W        W61842  36.867  17.611  12.363
89429W        W61843  24.499  34.868  11.380
89430W        W61844  41.329   1.825  12.958
89431W        W61845  42.969   4.312   1.322
89432W        W61846  20.153   8.280  12.969
89433W        W61847  42.301  14.777   1.746
89434W        W61848  12.721  25.023   1.782
89435W        W61849  12.142  14.803   2.662
89436W        W61850   7.176  23.734  13.868
89437W        W61851  36.405  27.468  13.939
89438W        W61852  41.989   2.877   0.874
89439W        W61853  32.939  27.538  14.926
89440W        W61854   1.780  10.156  14.362
89441W        W61855   6.235   8.240   0.825
89442W        W61856  36.511   4.435   0.734
89443W        W61857  14.739  33.590  11.934
89444W        W61858  27.667   6.800   1.358
89445W        W61859  18.777  30.927  11.531
89446W        W61860  25.564  16.315   1.850
89447W        W61861   2.469  31.627   0.251
89448W        W61862  11.837   4.851  13.339
89449W        W61863  21.249  12.718  10.903
89450W        W61864  32.914  17.728   2.342
89451W        W61865  23.696   1.732   4.628
89452W        W61866  13.296  19.645   1.777
89453W        W61867  31.462  41.320   3.275
89454W        W61868  32.462  31.998  14.834
89455W        W61869  37.371  22.159   4.303
89456W        W61870  16.154  37.979   2.685
89457W        W61871   9.393  25.653   3.360
89458W        W61872   5.408  21.570   0.266
89459W        W61873  30.479  16.646  10.627
89460W        W61874  43.783   8.383   1.917
89461W        W61875  10.356  36.548  11.087
89462W        W61876  15.089  11.307  12.430
89463W        W61877  26.640  43.514   4.114
89464W        W61878  34.502  14.675   3.668
89465W        W61879  42.284  40.510   3.367
89466W        W61880  12.127  22.025   0.472
89467W        W61881  38.987  22.130   0.945
89468W        W61882  10.216  21.581  14.377
89469W        W61883  15.115  27.175  11.046
89470W        W61884  10.151  43.472   3.205
89471W        W61885  40.476  32.083   1.835
89472W        W61886  36.089  16.641   3.242
89473W        W61887  18.099   7.872  11.121
89474W        W61888   5.867  22.680   1.382
89475W        W61889  23.569  35.051   4.210
89476W        W61890  28.094  42.861  14.319
89477W        W61891  32.099  44.448   0.282
89478W        W61892  30.604  12.193  14.450
89479W        W61893  13.765  15.296   0.438
89480W        W61894   3.386  29.118  12.368
89481W        W61895  41.887   0.476   0.888
89482W        W61896   4.329  20.677  11.992
89483W        W61897  33.078  36.041   0.940
89484W        W61898  15.648  23.004   1.334
89485W        W61899  34.874  29.058   0.358
89486W        W61900  25.695  14.317   4.171
89487W        W61901   9.649   2.243   4.243
89488W        W61902  40.378  13.739  10.581
89489W        W61903   2.836  11.237   2.179
89490W        W61904  13.159   7.867  11.485
89491W        W61905  12.821  23.014  12.071
89492W        W61906  34.108  18.547   1.433
89493W        W61907  33.402  42.480  12.094
89494W        W61908  14.234   7.837   0.315
89495W        W61909   0.956  30.602  13.969
89496W        W61910  31.980  24.979   1.252
89497W        W61911  43.498  15.140  12.457
89498W        W61912  14.220   9.876  12.995
89499W        W61913   0.850  19.716  12.904
89500W        W61914  42.340   8.218  13.422
89501W        W61915  12.181  39.889   3.724
89502W        W61916  34.953  32.635   2.185
89503W        W61917  19.696   3.928  13.818
89504W        W61918  38.073  38.423   4.731
89505W        W61919  22.714   4.894  12.081
89506W        W61920  19.128  18.613  13.843
89507W        W61921  33.896  29.988   2.407
89508W        W61922   1.832  24.036  10.466
89509W        W61923  15.655  36.452  14.500
89510W        W61924   5.713  39.384  13.972
89511W        W61925   2.835  27.450   5.252
89512W        W61926  40.847   6.219  11.410
89513W        W61927  27.042   7.839  13.911
89514W        W61928  19.081  11.246   3.806
89515W        W61929  39.856   1.441  14.315
89516W        W61930   5.885  20.058  11.925
89517W        W61931  10.695  11.671   1.786
89518W        W61932  33.962  13.275   4.353
89519W        W61933  39.370   8.225   4.340
89520W        W61934  32.895  33.909  11.398
89521W        W61935   6.820  14.809   1.773
89522W        W61936  34.026  18.697   4.172
89523W        W61937  38.853  21.666   0.765
89524W        W61938  19.771  24.005  12.878
89525W        W61939   9.844  42.399  11.920
89526W        W61940  17.705  36.999  11.397
89527W        W61941  23.028  16.254   9.644
89528W        W61942  21.132  16.649   2.829
89529W        W61943   3.923  22.572   2.717
89530W        W61944  43.900  41.984  12.480
89531W        W61945  23.221   2.318  11.873
89532W        W61946   5.813  28.973  10.526
89533W        W61947  21.610   5.819  14.376
89534W        W61948  33.472   4.334  12.068
89535W        W61949  28.143  16.731  10.096
89536W        W61950  25.570  12.303  12.996
89537W        W61951  21.708  18.179  14.444
89538W        W61952  43.377  15.140   2.799
89539W        W61953  32.071   6.242  11.567
89540W        W61954  19.630   4.856   4.819
89541W        W61955  18.774  15.223  12.504
89542W        W61956  41.521  18.259  11.463
89543W        W61957  30.984  29.932   0.918
89544W        W61958  33.994  19.266   3.296
89545W        W61959  17.068  11.343  11.935
89546W        W61960  23.627  43.415  14.816
89547W        W61961  44.304  40.327  10.527
89548W        W61962  39.017  10.701   1.914
89549W        W61963  31.559  28.993   4.155
89550W        W61964  16.116  11.743   1.838
89551W        W61965  39.831   5.350   1.882
89552W        W61966  14.628  10.298   4.691
89553W        W61967  42.844  41.326   2.836
89554W        W61968  42.522  21.738   0.386
89555W        W61969   6.295  19.607  10.594
89556W        W61970  32.446  38.464  13.420
89557W        W61971   5.845  44.948   1.432
89558W        W61972   0.958  34.960  11.005
89559W        W61973  30.946  40.051  10.470
89560W        W61974  37.422  26.625  14.942
89561W        W61975  17.089   0.921  10.156
89562W        W61976  22.050  29.158   0.282
89563W        W61977  40.886  13.663  14.961
89564W        W61978  25.672   1.864  11.966
89565W        W61979  38.946  17.666  13.495
89566W        W61980  36.354  42.907  11.041
89567W        W61981   3.843  17.177  11.045
89568W        W61982   4.321  22.033  13.966
89569W        W61983  38.336  32.476  11.096
89570W        W61984   0.438  25.970   0.739
89571W        W61985  22.658   2.457  11.611
89572W        W61986  39.999  40.398   2.343
89573W        W61987  42.862   0.755   3.286
89574W        W61988  36.005  11.642   3.156
89575W        W61989  15.312   0.884  11.390
89576W        W61990  38.421  32.018   4.761
89577W        W61991  36.942  17.099   1.886
89578W        W61992  41.524  30.621   2.663
89579W        W61993  34.572  22.245  13.941
89580W        W61994  33.453  27.641   3.269
89581W        W61995  39.869  13.795   1.303
89582W        W61996  41.413  19.597   2.326
89583W        W61997   1.770  43.953  10.576
89584W        W61998  23.989  38.068  10.959
89585W        W61999  27.673  18.139   4.755
89586W        W62000   5.920  44.984  13.941
89587W        W62001  33.125  44.755  14.312
89588W        W62002   0.415  15.167   4.335
89589W        W62003  25.479   2.935   1.756
89590W        W62004   3.216  17.741  10.505
89591W        W62005  15.202  18.582  12.503
89592W        W62006  33.946  15.151   1.738
89593W        W62007  10.825  17.073  12.430
89594W        W62008  35.998   4.333  13.536
89595W        W62009  27.544  41.507  10.493
89596W        W62010  42.394  44.479  10.431
89597W        W62011   6.868  33.927   2.779
89598W        W62012  16.176  40.414   0.380
89599W        W62013  24.020  39.994   0.374
89600W        W62014   5.236  12.726   0.751
89601W        W62015  28.049  29.925   4.690
89602W        W62016  21.639  35.985  11.007
89603W        W62017  33.039  19.559   2.771
89604W        W62018  26.181   4.362   3.677
89605W        W62019  43.773  33.016  13.967
89606W        W62020   7.246  19.765  11.605
89607W        W62021  39.985  16.140  12.484
89608W        W62022   8.210  44.417  10.959
89609W        W62023  42.979  43.391  14.421
89610W        W62024   3.242   1.855  14.333
89611W        W62025   2.899  42.498   2.415
89612W        W62026   2.761  41.302   2.219
89613W        W62027   4.866   4.298   9.997
89614W        W62028  27.124  38.916   2.314
89615W        W62029  18.625  38.475  11.929
89616W        W62030  35.548   2.778  11.391
89617W        W62031  30.449   4.272   3.370
89618W        W62032  15.084   8.900   2.341
89619W        W62033   0.364  18.688   2.274
89620W        W62034  16.287  32.636   1.212
89621W        W62035  14.185  38.869   4.235
89622W        W62036   9.252  37.882  12.964
89623W        W62037  37.920  21.029  12.447
89624W        W62038  40.361   5.231   3.690
89625W        W62039   0.296  22.186   2.862
89626W        W62040  15.208   8.856  12.919
89627W        W62041   5.394  36.369   4.150
89628W        W62042   6.387  42.522   1.928
89629W        W62043   4.745  11.135  14.325
89630W        W62044   2.918  16.579   0.249
89631W        W62045  15.623  12.787  14.801
89632W        W62046  14.798  33.618  14.886
89633W        W62047  41.453  15.798  11.444
89634W        W62048  25.986  44.439   2.294
89635W        W62049  41.976  35.974   1.904
89636W        W62050  14.799  21.591  12.352
89637W        W62051  40.453  18.657  12.983
89638W        W62052  27.579  26.583  13.446
89639W        W62053  24.986  23.501   0.878
89640W        W62054  17.167  24.166   3.742
89641W        W62055   5.793  42.982   4.271
89642W        W62056   4.296  18.749  13.851
89643W        W62057  12.335  14.833  14.453
89644W        W62058  12.162  26.652   0.955
89645W        W62059  39.985  13.119  13.412
89646W        W62060  20.525  41.913  14.286
89647W        W62061   3.400  30.589  14.915
89648W        W62062  43.353  24.144  13.316
89649W        W62063  26.470  13.123   0.785
89650W        W62064   4.222  15.646   2.202
89651W        W62065  28.548  40.410   3.796
89652W        W62066  26.040  29.630   2.775
89653W        W62067  21.548  19.157  14.435
89654W        W62068  16.238   8.226  14.969
89655W        W62069  37.966  29.559   3.247
89656W        W62070  24.638  44.801   4.282
89657W        W62071  24.022  12.663  12.061
89658W        W62072  43.452  13.140  12.543
89659W        W62073  10.372  44.863   1.320
89660W        W62074  23.690   0.492  11.953
89661W        W62075  36.054   4.728  11.493
89662W        W62076   7.770  34.891   0.314
89663W        W62077  43.830  22.032  12.837
89664W        W62078  35.080  24.543  11.411
89665W        W62079  21.033  15.111  14.455
89666W        W62080  18.733  34.950  11.508
89667W        W62081   8.363  35.066  11.570
89668W        W62082   8.692  15.228  11.011
89669W        W62083   4.909  14.120   4.329
89670W        W62084   8.810  16.707   2.887
89671W        W62085  24.701  16.152  11.856
89672W        W62086  43.816  42.288   1.384
89673W        W62087  35.038  21.596  13.541
89674W        W62088  14.241  11.796   4.838
89675W        W62089   3.289  24.515   2.720
89676W        W62090  19.600  18.667  13.490
89677W        W62091  20.588  18.293  13.942
89678W        W62092  10.803  15.791   0.443
89679W        W62093   3.412  18.130  13.841
89680W        W62094  35.505  22.109  11.472
89681W        W62095  20.146  33.954  12.850
89682W        W62096  38.382  36.488  12.048
89683W        W62097   5.316  29.954   1.788
89684W        W62098  11.339  40.805  12.414
89685W        W62099   2.382  34.037  12.035
89686W        W62100  20.684  41.473   4.825
89687W        W62101  10.171  15.807   2.885
89688W        W62102  22.738  27.008  10.030
89689W        W62103  12.795  33.477   3.675
89690W        W62104   0.963   2.951  12.971
89691W        W62105   2.344  31.059   0.309
89692W        W62106   7.387  14.652  14.374
89693W        W62107  31.505   4.380  14.367
89694W        W62108   3.226  13.797  13.324
89695W        W62109  12.669  26.549  13.349
89696W        W62110   8.235  29.528   1.839
89697W        W62111  38.003  14.833  10.405
89698W        W62112  14.101   9.687   3.789
89699W        W62113  13.783  40.324  11.569
89700W        W62114  14.723   1.853  10.462
89701W        W62115  40.344  36.558   3.647
89702W        W62116  14.684  22.213   2.207
89703W        W62117   2.272  33.454  11.937
89704W        W62118  30.909  25.631   2.192
89705W        W62119  38.464  12.666   0.792
89706W        W62120  41.986  32.591  12.500
89707W        W62121  30.113   3.358  11.456
89708W        W62122  28.972  26.603  14.802
89709W        W62123  22.544  16.627   1.351
89710W        W62124  18.068   4.396  12.552
89711W        W62125  14.105   8.813   9.929
89712W        W62126  19.540  17.571   0.874
89713W        W62127   0.274  22.648   3.319
89714W        W62128   9.311   1.313   3.288
89715W        W62129  44.865  29.625   1.827
89716W        W62130  11.231   3.865  11.904
89717W        W62131  14.788   8.230   3.311
89718W        W62132   9.709   1.801  11.883
89719W        W62133  16.624  39.020   4.347
89720W        W62134  17.164  17.131  14.391
89721W        W62135  27.015  41.882   3.652
89722W        W62136  23.735  39.808   2.793
89723W        W62137  34.425  15.681   0.378
89724W        W62138  14.657  26.667  12.528
89725W        W62139  38.541  34.020   5.222
89726W        W62140  15.219  35.416  10.990
89727W        W62141  44.913  43.463  10.927
89728W        W62142   9.682  28.041  14.461
89729W        W62143   5.798   4.388   0.251
89730W        W62144  23.084   8.778   4.174
89731W        W62145  20.148  43.432   1.700
89732W        W62146  42.356   0.908  12.003
89733W        W62147  32.100  15.241  14.343
89734W        W62148   7.295  30.911   5.111
89735W        W62149  36.029  28.162  12.551
89736W        W62150  14.257  44.290  11.601
89737W        W62151  18.637  31.920   5.124
89738W        W62152   7.230   0.813  11.101
89739W        W62153  12.141  24.032  10.468
89740W        W62154   5.890  37.836   2.715
89741W        W62155  24.686   3.344  14.948
89742W        W62156  40.863  34.873  12.545
89743W        W62157   9.804  12.352  13.502
89744W        W62158  10.696  26.126  11.592
89745W        W62159  36.091  42.421  13.837
89746W        W62160   6.361  43.899   1.791
89747W        W62161  14.692   1.340   0.731
89748W        W62162  36.084  23.595  11.048
89749W        W62163   9.267  22.525   4.828
89750W        W62164  10.807   3.358  14.794
89751W        W62165   9.222  25.684  11.427
89752W        W62166   4.753  41.795   0.422
89753W        W62167  26.051   9.735  12.031
89754W        W62168  33.875  39.422  12.470
89755W        W62169  13.843  14.710  13.328
89756W        W62170  38.458  21.605   1.232
89757W        W62171  32.028   9.285   4.749
89758W        W62172  35.373  37.992  13.352
89759W        W62173  21.069  13.694  10.526
89760W        W62174  20.141  16.797   1.424
89761W        W62175  28.635  36.016   2.845
89762W        W62176   1.296  42.409  12.010
89763W        W62177   8.174   4.307   0.311
89764W        W62178  36.452  38.982  10.887
89765W        W62179  27.466  10.649  12.926
89766W        W62180   5.736  23.685  11.031
89767W        W62181  30.026  17.117   3.827
89768W        W62182  20.061  33.121   4.616
89769W        W62183   8.842  41.321   0.879
89770W        W62184   3.809  33.936  12.528
89771W        W62185  30.576   1.904   3.223
89772W        W62186  32.959  36.579   0.779
89773W        W62187   1.758  37.412   0.375
89774W        W62188  40.979  21.693   1.860
89775W        W62189   0.448  12.754  11.114
89776W        W62190   0.965   9.224  14.968
89777W        W62191  25.654  15.785  13.817
89778W        W62192  26.092  24.479   2.296
89779W        W62193   5.422   3.814  12.041
89780W        W62194  15.204   1.976  10.962
89781W        W62195   6.838  25.469   3.746
89782W        W62196  29.620  12.285  13.502
89783W        W62197  19.742  21.625  14.003
89784W        W62198  14.737  28.000   4.297
89785W        W62199  14.244  31.509   1.812
89786W        W62200  13.105   4.713   0.954
89787W        W62201   5.858  42.930   2.193
89788W        W62202  28.575  31.489   0.244
89789W        W62203  41.012  26.477  11.925
89790W        W62204  29.098  22.195   0.376
89791W        W62205  38.325   5.310   4.728
89792W        W62206  26.672  38.515   1.331
89793W        W62207  23.693  38.945   3.827
89794W        W62208  25.604  30.121   0.260
89795W        W62209  24.056  44.001  11.533
89796W        W62210  22.208  24.162   0.306
89797W        W62211  22.644  39.875  13.053
89798W        W62212  23.607   0.320  11.502
89799W        W62213  11.336  14.634   3.372
89800W        W62214   9.861  16.616  12.840
89801W        W62215  36.945   5.227  11.877
89802W        W62216   3.432  37.900   3.792
89803W        W62217  23.095  36.025  12.019
89804W        W62218  40.833  36.053  13.404
89805W        W62219  14.739  29.086   3.322
89806W        W62220  37.004  28.554  10.628
89807W        W62221  14.321  18.779  14.393
89808W        W62222  24.629  25.978   3.327
89809W        W62223  20.126  18.240   3.247
89810W        W62224  10.828  41.465   0.459
89811W        W62225  38.071   2.430   1.388
89812W        W62226  37.544   7.376   0.456
89813W        W62227  43.830  30.142   2.288
89814W        W62228  41.904  28.125   0.413
89815W        W62229  24.490   6.373   3.796
89816W        W62230  41.015  37.015  12.925
89817W        W62231  41.910   6.844  11.538
89818W        W62232   5.717  39.929  11.586
89819W        W62233  12.134   3.908   4.761
89820W        W62234  26.541  35.859   2.269
89821W        W62235  30.457  13.215  10.967
89822W        W62236  33.390  36.511  12.846
89823W        W62237  34.945  12.242  11.537
89824W        W62238   8.724  15.643  13.877
89825W        W62239   8.837  22.742  12.536
89826W        W62240   5.393  36.537   1.704
89827W        W62241   7.891  33.614   0.369
89828W        W62242  17.292  33.456  11.526
89829W        W62243  34.385   8.766   4.149
89830W        W62244  43.009  37.541  12.411
89831W        W62245  11.243  18.782   0.386
89832W        W62246  30.534   4.801   0.837
89833W        W62247  20.549  43.788   5.717
89834W        W62248  23.720  28.502   2.672
89835W        W62249   6.687  43.345   4.793
89836W        W62250  17.602   7.292  14.894
89837W        W62251   9.831  14.178   1.776
89838W        W62252   5.750  26.506   2.369
89839W        W62253  10.237   3.775  12.896
89840W        W62254  34.080  32.961  11.049
89841W        W62255  12.322   2.956  14.323
89842W        W62256  36.865  23.655  10.500
89843W        W62257  15.291  23.185   4.749
89844W        W62258  23.164  36.971   0.327
89845W        W62259  15.323  20.712   3.361
89846W        W62260   9.808  30.109   3.739
89847W        W62261   6.780  37.451   1.451
89848W        W62262  40.500  15.215   4.636
89849W        W62263  15.214   2.229  12.544
89850W        W62264   0.854  34.944  13.394
89851W        W62265  44.338  34.893   4.222
89852W        W62266  33.400  32.948   1.824
89853W        W62267  39.547  23.632   3.318
89854W        W62268  10.236   1.403   2.217
89855W        W62269  25.492  14.824  13.470
89856W        W62270   7.905  27.615   3.674
89857W        W62271  39.350   9.190   3.739
89858W        W62272  22.590  33.512  12.892
89859W        W62273  16.091  36.381   4.329
89860W        W62274  34.492  17.768  11.407
89861W        W62275  22.745  31.406  12.529
89862W        W62276  12.121  30.942   2.348
89863W        W62277  26.969  31.964  11.016
89864W        W62278  41.452   0.400  10.978
89865W        W62279   7.665  26.177   1.838
89866W        W62280  40.839  37.378   2.320
89867W        W62281  32.984  42.410  11.877
89868W        W62282   6.873  43.990  12.348
89869W        W62283  30.448  12.246  12.088
89870W        W62284   3.739  22.198   2.680
89871W        W62285  11.163   3.350  12.919
89872W        W62286  22.622  27.495   1.905
89873W        W62287  19.563  12.297   3.201
89874W        W62288  17.182  39.880   3.772
89875W        W62289   1.343  25.002  14.882
89876W        W62290  16.605   6.346   3.190
89877W        W62291  30.480  17.590  11.969
89878W        W62292  18.697  34.538  12.413
89879W        W62293  17.138  32.002  13.519
89880W        W62294  30.616   9.319   5.092
89881W        W62295  32.550  20.235  11.915
89882W        W62296  29.089  35.451   2.209
89883W        W62297  28.096  43.010  12.065
89884W        W62298  36.965  17.161   3.256
89885W        W62299  23.500  31.599  13.790
89886W        W62300  39.453   3.243  11.088
89887W        W62301  13.249   8.224  12.857
89888W        W62302  35.364  20.264  14.930
89889W        W62303  34.514  16.158   1.322
89890W        W62304  26.695  25.615   0.249
89891W        W62305  34.370  23.504  10.071
89892W        W62306   8.399  13.605   2.409
89893W        W62307  40.830  22.608   2.847
89894W        W62308  19.775  44.395  10.568
89895W        W62309  25.999   2.464  13.331
89896W        W62310  41.896  12.295   3.371
89897W        W62311  39.978  15.724   0.303
89898W        W62312  23.998  37.428   4.645
89899W        W62313  17.247  40.454  12.353
89900W        W62314  26.951   1.825  12.446
89901W        W62315  32.904   9.752   4.141
89902W        W62316  33.457  28.011  11.572
89903W        W62317  43.423  26.201  13.385
89904W        W62318  40.410  39.379   3.242
89905W        W62319   5.805  21.125  11.578
89906W        W62320   9.677  35.094   0.856
89907W        W62321  33.399  24.652  11.567
89908W        W62322  33.535  23.225   9.552
89909W        W62323   9.156  38.456   4.823
89910W        W62324  40.953   3.913  13.053
89911W        W62325   9.840  18.060   0.330
89912W        W62326  19.164  16.735   3.834
89913W        W62327  40.882  24.048  13.975
89914W        W62328  38.063   4.890   1.789
89915W        W62329  32.523  15.168   1.844
89916W        W62330   1.378   7.810   3.187
89917W        W62331  42.400  15.252  14.907
89918W        W62332   9.798  19.693   3.234
89919W        W62333  42.777   6.340  13.828
89920W        W62334   3.937   0.986   4.703
89921W        W62335   5.776  38.984  13.873
89922W        W62336  28.185  13.141  11.482
89923W        W62337  28.551  41.489  11.374
89924W        W62338  18.581   2.374  14.855
89925W        W62339  43.919  40.480  14.449
89926W        W62340  41.000  43.343   1.791
89927W        W62341  30.907   2.451  11.053
89928W        W62342  37.930  38.015   1.810
89929W        W62343  33.390  20.691   1.218
89930W        W62344  21.580  23.071   2.687
89931W        W62345   6.211   5.228   3.307
89932W        W62346  38.359  39.320  10.985
89933W        W62347   9.364  43.489   0.875
89934W        W62348  18.065   0.377   0.349
89935W        W62349   6.757   4.748   1.726
89936W        W62350  31.914  28.670  14.489
89937W        W62351  30.015  16.723   2.685
89938W        W62352  23.615   7.345   4.790
89939W        W62353   3.946  22.209   4.305
89940W        W62354  14.727  39.491   4.666
89941W        W62355   6.762  19.763   3.853
89942W        W62356   9.160   3.221   4.682
89943W        W62357  44.947  22.077  14.461
89944W        W62358  21.651  19.137   4.614
89945W        W62359  24.027  10.339  10.117
89946W        W62360   9.180   9.887  11.085
89947W        W62361  36.050  42.394  11.384
89948W        W62362  16.710  11.353   0.945
89949W        W62363  26.522  20.048   4.297
89950W        W62364  19.573   4.838  12.060
89951W        W62365  30.595   5.365  12.514
89952W        W62366   1.774  40.520   1.355
89953W        W62367  21.537  16.669  11.443
89954W        W62368  41.369  35.569   1.342
89955W        W62369  21.592  33.518   1.270
89956W        W62370   3.373   3.891  10.937
89957W        W62371  25.194  38.342  14.285
89958W        W62372  14.735  38.837  11.932
89959W        W62373  19.063  34.405   1.921
89960W        W62374  18.289  18.758   3.825
89961W        W62375  11.262  14.192  12.897
89962W        W62376  23.072   3.412   3.245
89963W        W62377  26.642  17.168  10.934
89964W        W62378  21.714  35.880  14.973
89965W        W62379  24.631  33.040   3.215
89966W        W62380  32.613   6.223   3.728
89967W        W62381  40.964  10.811  14.968
89968W        W62382  20.767  17.588   0.866
89969W        W62383  26.168  10.268   4.150
89970W        W62384  26.046  40.838   4.156
89971W        W62385   2.821   0.400   4.626
89972W        W62386  35.039  29.660  10.547
89973W        W62387   9.847  26.029  14.820
89974W        W62388  14.256   2.916   1.769
89975W        W62389  32.112  40.800  12.525
89976W        W62390  32.069   6.249   0.769
89977W        W62391  36.872  11.652   4.177
89978W        W62392  20.240  33.531   3.750
89979W        W62393  25.211  21.247  12.961
89980W        W62394  30.076  38.417   1.403
89981W        W62395  30.091   3.442  10.976
89982W        W62396   4.229   0.295   1.257
89983W        W62397  22.009  19.230   0.905
89984W        W62398  18.092  42.990  13.978
89985W        W62399   3.771  21.511  10.424
89986W        W62400  32.440  26.105  14.955
89987W        W62401  44.779  42.444  12.832
89988W        W62402  17.558  37.903  11.541
89989W        W62403  17.200  34.514   3.836
89990W        W62404  16.260  44.481   3.261
89991W        W62405  18.738  12.756  12.053
89992W        W62406  20.652  42.802  11.516
89993W        W62407   3.726  35.419   1.246
89994W        W62408  39.946  22.682   4.125
89995W        W62409  11.685  22.521  11.088
89996W        W62410  41.818  14.295   2.355
89997W        W62411  44.493   0.880  12.548
89998W        W62412  29.093  21.551   3.277
89999W        W62413  40.931  22.503   1.411
90000W        W62414  29.012  43.950  13.406
90001W        W62415  17.555  13.201  11.543
90002W        W62416  13.213  42.780  10.020
90003W        W62417   7.732  24.607  14.832
90004W        W62418  36.002  26.060   1.900
90005W        W62419  24.145  14.336  12.958
90006W        W62420  20.550  42.991  14.355
90007W        W62421  39.031   0.855   0.329
90008W        W62422   8.200  22.058  11.871
90009W        W62423   5.411  19.068  11.533
90010W        W62424  41.820  15.200   4.228
90011W        W62425  31.097  16.785  11.033
90012W        W62426  38.030  41.384  11.987
90013W        W62427   8.861  36.993   3.289
90014W        W62428  20.708  26.054   0.406
90015W        W62429  40.467  31.010  13.391
90016W        W62430  44.921  38.481   1.214
90017W        W62431  29.619  40.547  11.054
90018W        W62432  41.354  24.202   4.628
90019W        W62433  11.205  44.920   4.724
90020W        W62434  14.813  28.571   2.871
90021W        W62435  12.635   3.733   2.792
90022W        W62436  36.593  26.695   4.634
90023W        W62437  39.002  19.216  14.790
90024W        W62438  16.661  33.552  14.504
90025W        W62439  27.537  17.180   3.345
90026W        W62440  20.646   3.401  13.461
90027W        W62441  32.111   0.928   0.483
90028W        W62442  28.139  28.671  11.905
90029W        W62443   4.292  31.485  13.367
90030W        W62444  35.907  11.721  11.918
90031W        W62445  22.528  38.829   1.309
90032W        W62446   5.314  15.758  10.419
90033W        W62447  12.333   3.232   0.456
90034W        W62448  26.672  22.625  14.417
90035W        W62449  12.617  18.660   3.296
90036W        W62450   1.408  26.031  12.383
90037W        W62451  23.019  26.957  14.297
90038W        W62452  10.879  30.043  14.847
90039W        W62453  44.481  18.143  11.412
90040W        W62454  41.787  41.808  11.943
90041W        W62455  26.025  38.901  13.941
90042W        W62456  35.087   4.342  13.521
90043W        W62457  28.114  10.306   4.151
90044W        W62458  41.890  34.575   5.297
90045W        W62459   0.324   5.698  14.923
90046W        W62460  42.799  41.913   0.795
90047W        W62461   6.191  17.101   4.351
90048W        W62462  10.252  22.022  10.978
90049W        W62463  28.004   3.827   3.760
90050W        W62464  17.591  35.474  12.416
90051W        W62465  43.444   2.926   4.259
90052W        W62466   3.442   2.300  14.873
90053W        W62467  29.533  36.069   3.753
90054W        W62468  38.403  40.938  11.878
90055W        W62469  24.110  35.017  14.811
90056W        W62470  15.802  39.525  13.434
90057W        W62471  22.646  15.712   0.369
90058W        W62472  13.161  34.031  12.871
90059W        W62473  36.453  17.249  11.025
90060W        W62474   6.208  39.317  13.015
90061W        W62475  30.948  22.040  12.343
90062W        W62476  12.227  33.111   4.727
90063W        W62477   0.760   1.954   4.770
90064W        W62478  30.550  23.520  12.568
90065W        W62479  35.562  38.980   3.800
90066W        W62480  14.122  32.533   1.225
90067W        W62481  13.811   5.199  10.418
90068W        W62482  32.969   1.920   1.916
90069W        W62483  25.671  25.029   2.207
90070W        W62484   8.332   4.758  13.003
90071W        W62485  13.193  27.511  14.485
90072W        W62486  12.154  28.002   1.908
90073W        W62487  19.740  36.950   2.676
90074W        W62488   1.322  12.177  14.387
90075W        W62489  13.113   2.449  10.961
90076W        W62490  42.374  40.882  12.416
90077W        W62491  10.278   5.821  12.352
90078W        W62492  15.697   5.900   0.450
90079W        W62493  26.566  34.107  13.509
90080W        W62494  39.320  11.771  13.423
90081W        W62495  19.237  18.718   2.835
90082W        W62496   7.674  21.755  12.898
90083W        W62497  31.008  28.488  12.435
90084W        W62498  12.154  29.167   3.235
90085W        W62499  42.501  37.933  12.964
90086W        W62500  38.063   8.392   2.403
90087W        W62501  24.705  40.522   1.294
90088W        W62502  35.003  42.344   1.287
90089W        W62503   2.377  18.105  12.448
90090W        W62504  32.467  13.751  12.438
90091W        W62505   0.344  14.743   4.323
90092W        W62506  43.771  36.361  10.973
90093W        W62507  15.703  39.335   4.633
90094W        W62508   5.369  41.512   5.608
90095W        W62509  16.684   0.252  10.935
90096W        W62510  22.069  20.185   3.740
90097W        W62511  42.349   6.320   2.854
90098W        W62512  40.856  41.906  10.484
90099W        W62513  42.790   1.787  14.396
90100W        W62514  31.029  24.097   4.625
90101W        W62515  20.089  31.995  14.761
90102W        W62516   1.767  44.423  10.436
90103W        W62517   1.801  37.354  10.463
90104W        W62518  40.464  17.599   0.839
90105W        W62519  26.552  32.005   3.803
90106W        W62520  42.391   2.387   3.186
90107W        W62521  10.374   2.813  13.421
90108W        W62522  23.229   3.771   0.463
90109W        W62523   5.710  24.070   4.244
90110W        W62524  27.970  19.715   3.808
90111W        W62525  33.935   0.265   4.661
90112W        W62526  35.103  33.581   5.161
90113W        W62527  10.283   4.420   4.718
90114W        W62528  12.680  11.818  14.031
90115W        W62529  28.564  37.920  11.477
90116W        W62530   1.454  15.193  10.941
90117W        W62531  35.027  34.532   0.327
90118W        W62532  24.064  24.011  13.007
90119W        W62533  22.221   3.876   4.627
90120W        W62534  41.927  31.011  13.983
90121W        W62535  34.478  38.421  11.440
90122W        W62536  31.059  16.662  13.941
90123W        W62537   9.888   4.226   2.384
90124W        W62538   7.888  13.339   0.314
90125W        W62539  20.527  24.074   4.202
90126W        W62540  31.081   2.813  11.064
90127W        W62541  17.130  25.039  12.390
90128W        W62542  28.178  32.103  13.345
90129W        W62543  18.550  22.064   1.325
90130W        W62544  31.897  15.240  13.026
90131W        W62545   2.780   9.200   4.222
90132W        W62546  10.299   4.343   1.333
90133W        W62547   4.772  37.024   3.711
90134W        W62548  16.775   0.343  14.875
90135W        W62549   6.220  18.686   0.419
90136W        W62550  29.042  13.702  11.524
90137W        W62551  13.655   5.749   4.265
90138W        W62552  29.482   0.313   3.655
90139W        W62553  34.487   4.425  14.948
90140W        W62554  40.320  44.791   2.874
90141W        W62555   2.866  33.422  13.844
90142W        W62556  35.510  27.088  14.362
90143W        W62557   1.930   8.249   3.762
90144W        W62558  11.854   4.257  10.898
90145W        W62559  20.118   9.748  14.319
90146W        W62560   4.758  26.616   4.156
90147W        W62561   6.773  31.900  14.319
90148W        W62562  27.956   9.324   1.412
90149W        W62563  23.576  23.044  14.940
90150W        W62564  19.101  12.247  12.357
90151W        W62565  35.081   0.951   1.706
90152W        W62566  13.711  44.965  11.097
90153W        W62567  17.771  40.977   4.746
90154W        W62568  38.858  18.566  12.955
90155W        W62569   6.303  33.450   5.130
90156W        W62570  32.548  30.932  12.829
90157W        W62571  37.915  28.090   2.690
90158W        W62572   3.239  26.111  12.491
90159W        W62573  34.979  36.572  14.990
90160W        W62574  13.197  24.520   2.886
90161W        W62575   8.827  15.160   1.763
90162W        W62576  29.103   3.812   2.901
90163W        W62577   3.784   3.458  12.383
90164W        W62578   3.889  30.125   4.138
90165W        W62579  17.620  10.207   1.418
90166W        W62580  32.081  10.851   4.261
90167W        W62581  18.190  28.934  10.574
90168W        W62582   0.481   7.770  13.434
90169W        W62583  33.987   2.405   4.752
90170W        W62584  42.895   7.225  13.369
90171W        W62585   3.399  21.541   0.398
90172W        W62586  19.737   1.335  14.793
90173W        W62587  35.422  31.922   1.908
90174W        W62588  23.667  12.300  13.525
90175W        W62589   7.737  42.315   3.188
90176W        W62590  40.489  41.351  13.839
90177W        W62591   1.455  32.028  11.547
90178W        W62592  25.492  27.036  11.479
90179W        W62593  17.711  34.042   2.188
90180W        W62594  10.331  24.601  13.957
90181W        W62595  14.261  11.639  13.002
90182W        W62596  35.507  11.666  10.638
90183W        W62597  11.711   1.260   1.255
90184W        W62598   2.279   1.398  10.595
90185W        W62599  17.768  43.971   3.751
90186W        W62600  20.532  14.680  14.972
90187W        W62601  37.854   5.727  14.886
90188W        W62602  28.041   6.743  10.962
90189W        W62603  36.053  29.494   1.419
90190W        W62604  30.611   4.803  13.309
90191W        W62605  13.342  23.136  10.897
90192W        W62606  22.077  17.755   2.332
90193W        W62607  30.455  15.197   4.252
90194W        W62608  36.874   2.938  12.568
90195W        W62609   5.277  13.747  14.334
90196W        W62610   7.831  14.113   2.676
90197W        W62611   2.348   8.767   3.871
90198W        W62612  26.598   6.280   2.295
90199W        W62613  18.570  41.526  12.900
90200W        W62614  31.973  30.065   1.345
90201W        W62615  15.698  29.108   1.291
90202W        W62616  19.121  32.522  14.935
90203W        W62617  40.928  25.006  13.451
90204W        W62618  35.083  12.760   2.725
90205W        W62619  20.170  39.509  14.887
90206W        W62620  32.454  20.053   2.885
90207W        W62621  11.637  41.905   2.669
90208W        W62622  14.675  31.448   3.664
90209W        W62623  41.472   2.871  12.084
90210W        W62624  35.892  44.961  12.390
90211W        W62625  11.130  14.614  10.413
90212W        W62626   4.375  42.983  14.004
90213W        W62627  26.067  40.411   0.355
90214W        W62628  22.731  15.648   2.711
90215W        W62629  17.259   8.324  11.470
90216W        W62630  24.090  31.970  13.535
90217W        W62631  30.909  27.587  10.894
90218W        W62632  16.203  40.029  12.929
90219W        W62633  32.443  18.668  13.802
90220W        W62634  13.252  18.695   3.680
90221W        W62635  16.116  42.849  14.901
90222W        W62636   7.352  17.163   2.854
90223W        W62637  31.018   9.177  13.794
90224W        W62638  41.360  13.817   3.788
90225W        W62639   0.308  20.569  14.305
90226W        W62640  40.927  14.679   1.912
90227W        W62641  33.524  34.384  10.015
90228W        W62642  44.330  44.857   4.738
90229W        W62643  33.910   5.253   0.943
90230W        W62644   3.786  24.230  12.358
90231W        W62645  19.084  14.211  10.611
90232W        W62646  43.777   0.254  13.324
90233W        W62647  43.870  25.546   1.371
90234W        W62648  18.553   3.755  14.941
90235W        W62649  19.267  23.578  14.363
90236W        W62650  13.641  36.486  13.813
90237W        W62651   1.321  25.092  12.846
90238W        W62652  21.622  26.137  12.549
90239W        W62653  43.851  25.616  14.421
90240W        W62654  32.132  13.724  13.930
90241W        W62655   4.392  28.629   9.948
90242W        W62656  43.270  36.586   0.843
90243W        W62657  31.106  43.939  10.579
90244W        W62658  10.346   1.839   5.185
90245W        W62659  36.090  31.918  14.480
90246W        W62660  24.063  44.840  14.513
90247W        W62661  24.498  14.817  13.421
90248W        W62662  16.627   1.285  10.542
90249W        W62663   4.381  35.530  14.799
90250W        W62664   8.230  13.294   0.387
90251W        W62665  12.683  26.114   0.440
90252W        W62666  43.516   3.267  13.879
90253W        W62667  39.559  42.843   4.678
90254W        W62668  13.187  29.594  13.965
90255W        W62669   8.865  22.045   1.304
90256W        W62670   5.842  11.655  11.988
90257W        W62671  39.424  10.239  12.897
90258W        W62672   3.888  17.791   1.783
90259W        W62673  29.494  27.665   3.783
90260W        W62674  27.692  21.579  13.881
90261W        W62675  31.618  30.910  12.462
90262W        W62676  38.006  16.085  12.353
90263W        W62677   5.848  27.177  13.355
90264W        W62678  22.195  27.504  13.031
90265W        W62679   6.767   4.450   4.349
90266W        W62680  35.955  44.804   4.234
90267W        W62681  31.983  37.531   0.812
90268W        W62682  36.437  26.025   3.670
90269W        W62683  22.032   1.740   3.183
90270W        W62684  43.312  13.821   2.890
90271W        W62685  32.997   5.726  11.903
90272W        W62686  42.406   5.833  13.468
90273W        W62687  43.935  40.034  13.911
90274W        W62688  15.231  37.472   4.190
90275W        W62689   7.778   7.758   1.323
90276W        W62690   6.313  34.432   1.793
90277W        W62691  16.202  11.260   2.665
90278W        W62692  29.532   4.936  12.458
90279W        W62693  42.341  33.924   2.819
90280W        W62694  25.013   2.454   4.234
90281W        W62695  21.685  42.310   3.226
90282W        W62696  32.612   0.381   1.902
90283W        W62697  20.220  38.959  11.057
90284W        W62698  25.653  42.397  12.341
90285W        W62699  17.728  19.160   4.751
90286W        W62700  11.129   0.467   3.384
90287W        W62701  33.897   9.368   2.830
90288W        W62702  17.625  30.652   0.450
90289W        W62703  39.880  17.680   3.164
90290W        W62704  27.052   2.858   3.269
90291W        W62705  21.572  42.860  11.925
90292W        W62706  10.352   4.889  13.945
90293W        W62707   2.757  42.487  14.792
90294W        W62708  36.844  26.573  13.793
90295W        W62709   8.349   2.352   4.605
90296W        W62710  25.564   6.711  13.504
90297W        W62711  43.302  13.247   1.816
90298W        W62712   2.789   3.727   1.899
90299W        W62713  22.173  19.732  12.993
90300W        W62714  13.833  21.660  13.914
90301W        W62715  15.227  40.921  11.419
90302W        W62716  30.537  27.576   1.824
90303W        W62717  13.841  20.029   0.392
90304W        W62718  33.008  19.209   0.306
90305W        W62719  33.410  16.646  11.080
90306W        W62720   1.889  42.944   4.212
90307W        W62721   4.416   3.392  14.027
90308W        W62722  19.618  42.975   3.352
90309W        W62723  22.604  42.373  13.856
90310W        W62724  13.716   9.232   5.135
90311W        W62725  17.110   2.448  13.892
90312W        W62726   8.747  43.495   0.769
90313W        W62727  17.590  44.438  12.845
90314W        W62728  37.953   7.679   1.786
90315W        W62729   6.693  31.537  13.475
90316W        W62730  35.898  16.569  12.880
90317W        W62731  11.632  41.335  12.518
90318W        W62732  25.964  14.646   0.847
90319W        W62733  26.139   7.774   2.361
90320W        W62734  39.899  41.336  10.437
90321W        W62735  41.036  20.271  12.066
90322W        W62736  25.013   3.895  12.930
90323W        W62737  33.107  19.153   2.415
90324W        W62738  10.696  19.133  13.871
90325W        W62739  25.066  22.154  12.431
90326W        W62740  34.581  22.093   9.994
90327W        W62741  20.748  27.615  12.979
90328W        W62742  25.713  31.133  10.581
90329W        W62743  36.570  30.014  13.326
90330W        W62744  13.739  38.424  13.519
90331W        W62745  10.251  14.190   4.300
90332W        W62746   0.282   4.833  11.599
90333W        W62747  17.620  34.045   4.729
90334W        W62748  20.607   2.780   1.825
90335W        W62749  19.131  33.470  10.502
90336W        W62750  10.248  24.550  11.559
90337W        W62751  19.138  41.470  14.913
90338W        W62752  43.347  32.078  11.457
90339W        W62753  19.739  32.990  12.340
90340W        W62754   7.389  13.607  14.863
90341W        W62755   1.919  37.539  12.511
90342W        W62756  21.250   7.221  12.879
90343W        W62757  36.582   8.271  11.445
90344W        W62758  31.402   3.400   2.792
90345W        W62759  33.473  32.465  11.457
90346W        W62760   4.835  39.937  11.392
90347W        W62761  15.095  11.718  12.908
90348W        W62762  17.702  21.129  10.020
90349W        W62763   6.406  30.994   1.211
90350W        W62764  10.678  23.714  13.906
90351W        W62765   7.793  27.464   1.931
90352W        W62766  13.716  13.134  11.594
90353W        W62767  16.108  28.057   4.638
90354W        W62768   7.399  31.425  12.912
90355W        W62769  39.472  11.247  11.053
90356W        W62770  42.464  32.105   0.790
90357W        W62771  29.955  42.999   1.826
90358W        W62772  28.093  16.266  12.344
90359W        W62773  32.474  19.142   0.859
90360W        W62774   2.333   4.713  12.969
90361W        W62775  26.637  23.037  14.889
90362W        W62776  44.998  44.781  14.333
90363W        W62777   6.748  30.952  10.550
90364W        W62778  17.217  13.702  13.818
90365W        W62779   7.732  43.907  13.515
90366W        W62780  10.314  10.271   2.691
90367W        W62781  30.576  44.332  10.552
90368W        W62782  21.638  41.420   3.770
90369W        W62783  44.264  39.439  14.789
90370W        W62784   4.317  44.854   2.755
90371W        W62785  25.554  42.514  12.067
90372W        W62786  29.086  15.261  12.847
90373W        W62787   1.781   1.377  10.483
90374W        W62788  11.714   1.256  10.645
90375W        W62789  38.878  37.500   5.168
90376W        W62790   6.721  32.562   3.216
90377W        W62791  33.949  25.622  10.595
90378W        W62792  22.043  11.164  14.993
90379W        W62793  22.214  17.617  11.939
90380W        W62794   9.381  19.049   1.855
90381W        W62795  21.594  30.010   3.798
90382W        W62796  14.684  20.206   3.304
90383W        W62797  26.630  37.513  11.127
90384W        W62798   5.906  11.196   0.262
90385W        W62799  44.260  31.636   0.294
90386W        W62800  30.121  37.905  11.438
90387W        W62801   3.897  20.644   1.743
90388W        W62802  18.093  44.983  10.957
90389W        W62803  15.642  16.811   2.220
90390W        W62804   0.423  27.501   1.812
90391W        W62805  17.235  27.520  11.109
90392W        W62806  23.727  26.488   0.395
90393W        W62807   3.839  42.985   2.869
90394W        W62808  33.958  15.200   4.177
90395W        W62809  23.605  43.979  14.351
90396W        W62810  17.743  26.184  12.842
90397W        W62811  30.532  29.173  10.487
90398W        W62812   0.321  26.203  11.561
90399W        W62813  31.045   3.401  11.861
90400W        W62814  24.483  26.504   4.197
90401W        W62815   6.696   3.454  14.947
90402W        W62816  43.381  11.799  11.019
90403W        W62817  14.819   3.788  14.341
90404W        W62818   3.304   7.785   4.125
90405W        W62819  18.166  19.723   0.818
90406W        W62820  17.703  20.666   4.324
90407W        W62821  39.504  18.126  13.360
90408W        W62822  37.914  21.680  12.554
90409W        W62823  30.419   9.337   4.299
90410W        W62824  26.553  26.542  10.003
90411W        W62825   6.806   6.852   2.666
90412W        W62826  21.667  19.048   4.257
90413W        W62827  32.531  35.868   1.771
90414W        W62828  33.061  28.653  14.951
90415W        W62829  31.538  23.610   3.276
90416W        W62830  26.561  18.587   3.158
90417W        W62831  29.553  14.164   2.297
90418W        W62832  36.898  25.139  10.555
90419W        W62833  13.638  22.679  12.043
90420W        W62834  27.007  19.208  14.411
90421W        W62835  26.003  26.682   0.454
90422W        W62836  20.701  21.534  10.992
90423W        W62837  25.203  28.951   3.237
90424W        W62838  22.504  42.879   1.714
90425W        W62839  13.638  13.125  12.551
90426W        W62840  13.155  27.637   4.609
90427W        W62841  10.245  29.495  13.384
90428W        W62842   2.269  30.913  13.415
90429W        W62843  32.019  30.483   2.715
90430W        W62844  32.393  16.111   3.655
90431W        W62845   0.809  18.257   0.363
90432W        W62846  27.182   8.247   4.642
90433W        W62847  26.029  40.821  11.871
90434W        W62848  37.044  42.418  14.842
90435W        W62849   7.370   6.252  10.457
90436W        W62850  10.667  16.264   3.310
90437W        W62851  24.212  13.192   2.855
90438W        W62852  40.924  14.763  12.487
90439W        W62853  44.287  43.515   3.816
90440W        W62854  14.645  43.352  12.906
90441W        W62855  10.652  43.907   2.244
90442W        W62856  35.005  38.857   9.939
90443W        W62857   6.678  27.170   2.285
90444W        W62858  18.630  18.731   0.837
90445W        W62859  43.784  30.094   4.121
90446W        W62860   2.335  31.559  12.859
90447W        W62861  29.094   5.263   0.879
90448W        W62862  25.076  23.498  11.972
90449W        W62863   8.873   4.346  11.612
90450W        W62864  10.748  44.386  11.027
90451W        W62865   2.730  24.675  11.524
90452W        W62866  26.513   5.252  14.360
90453W        W62867  28.543   0.936  13.453
90454W        W62868  36.093   9.814  13.913
90455W        W62869  43.470  35.595  10.478
90456W        W62870   9.332  12.735   5.250
90457W        W62871  29.631  33.925  10.966
90458W        W62872  12.740  24.061  10.960
90459W        W62873  20.269   4.225   4.274
90460W        W62874   4.238  27.027  13.829
90461W        W62875  41.042  23.098   3.323
90462W        W62876  38.046   6.846  14.411
90463W        W62877  40.328  24.156   0.843
90464W        W62878  24.176  38.334  13.965
90465W        W62879  24.531  12.169   2.249
90466W        W62880  15.684  25.148   0.793
90467W        W62881  29.154   7.386  12.077
90468W        W62882  37.511  29.480   0.767
90469W        W62883  12.651  20.721  11.861
90470W        W62884  30.497  26.519   3.154
90471W        W62885   4.423  26.689  14.390
90472W        W62886  37.535  23.728  10.583
90473W        W62887  32.572  16.220   2.259
90474W        W62888   3.862  11.641   0.408
90475W        W62889  39.812   0.758  12.838
90476W        W62890  29.467  38.999   2.200
90477W        W62891  19.115  15.158  11.984
90478W        W62892  31.507  42.495  12.390
90479W        W62893   1.398  17.114   3.836
90480W        W62894  39.062  43.869  12.912
90481W        W62895   1.321  14.730   0.315
90482W        W62896  16.174   1.441   3.283
90483W        W62897  39.960  39.982  13.843
90484W        W62898   6.326  14.666   1.222
90485W        W62899   8.769   5.778  11.543
90486W        W62900  25.969  21.080   4.350
90487W        W62901  31.136  37.564   1.880
90488W        W62902  27.592  25.643   0.734
90489W        W62903  11.316  20.724  11.020
90490W        W62904  14.288  13.746   1.754
90491W        W62905  41.298  25.166   1.269
90492W        W62906  30.025  30.427   4.260
90493W        W62907   8.714  41.988   3.679
90494W        W62908  36.361   9.793  13.927
90495W        W62909  43.288   8.680   0.407
90496W        W62910   3.342   2.919  14.987
90497W        W62911  26.951  13.780  14.275
90498W        W62912  19.762  19.095   4.757
90499W        W62913   7.349   8.317  14.329
90500W        W62914  26.017  17.704   2.784
90501W        W62915  39.553  25.085  14.414
90502W        W62916  34.508   2.831  14.334
90503W        W62917   9.291   3.343  12.492
90504W        W62918   3.326  28.937   2.389
90505W        W62919   0.769  44.269   1.812
90506W        W62920  38.518  19.621   1.753
90507W        W62921  27.092  17.216   3.377
90508W        W62922  38.044  19.719  11.480
90509W        W62923  40.476  21.747   0.849
90510W        W62924  30.577   8.272   3.261
90511W        W62925  32.613   2.787  12.385
90512W        W62926   2.774  18.263   3.382
90513W        W62927  32.476  10.309  10.968
90514W        W62928  35.004  14.258  11.867
90515W        W62929  17.692  35.872  12.348
90516W        W62930  11.812   9.814   3.786
90517W        W62931  38.463  23.491  11.986
90518W        W62932  34.044   8.321  14.932
90519W        W62933   1.912  31.547  12.915
90520W        W62934  12.326  44.963  11.554
90521W        W62935  20.645   0.883  12.870
90522W        W62936  10.226   8.299   2.769
90523W        W62937  32.992  12.338   3.145
90524W        W62938   8.812  27.475  13.001
90525W        W62939  13.625  23.193  14.474
90526W        W62940  21.212  17.712   2.298
90527W        W62941  35.996   0.419   3.261
90528W        W62942  42.802  12.848   2.871
90529W        W62943  17.265  23.184  11.451
90530W        W62944  18.707   1.888   3.815
90531W        W62945   9.278  34.016   1.794
90532W        W62946   9.295   7.816   0.847
90533W        W62947  23.221   8.192  11.486
90534W        W62948  26.537   3.356   3.285
90535W        W62949  34.002  35.437  12.894
90536W        W62950  37.030  21.120  11.610
90537W        W62951  44.919  33.572  10.155
90538W        W62952  41.862  23.079  13.939
90539W        W62953  16.282  12.209  10.436
90540W        W62954  23.111  36.464  14.804
90541W        W62955  39.370   1.390   4.355
90542W        W62956  23.108  37.574  12.431
90543W        W62957  19.663  28.998   1.928
90544W        W62958   5.262  22.163  14.367
90545W        W62959  28.499  13.812  11.527
90546W        W62960   1.381  33.035   1.713
90547W        W62961   7.783  33.115   0.477
90548W        W62962  27.188   8.741  11.568
90549W        W62963  15.090  16.767  12.830
90550W        W62964  20.129  11.137  11.412
90551W        W62965  23.695  28.541  10.995
90552W        W62966  12.253  24.601  11.465
90553W        W62967   2.346  26.160   5.670
90554W        W62968  19.618  22.178  13.819
90555W        W62969  21.122  16.616   1.768
90556W        W62970  31.510  42.833   2.349
90557W        W62971   0.317   4.767  14.339
90558W        W62972   9.216  26.514  12.937
90559W        W62973  13.600  10.774  13.447
90560W        W62974   7.846  41.410   3.806
90561W        W62975  14.711  27.633   1.233
90562W        W62976  28.576  11.669   1.701
90563W        W62977  43.996   7.221   2.836
90564W        W62978  33.535  14.335  12.580
90565W        W62979  16.802  44.753   4.610
90566W        W62980  26.514  37.070   1.925
90567W        W62981  21.719   2.350  14.779
90568W        W62982   8.350  27.536  11.908
90569W        W62983   9.876   4.750   4.286
90570W        W62984  33.557  16.573   0.433
90571W        W62985  25.690  15.236  10.430
90572W        W62986   8.204  15.800   1.296
90573W        W62987   4.715   2.340   1.386
90574W        W62988  20.194  26.118  11.544
90575W        W62989  23.592  24.113   4.194
90576W        W62990  30.647   2.820  10.497
90577W        W62991  25.636  27.503   4.224
90578W        W62992   8.841  34.877   2.823
90579W        W62993  21.203  28.554   2.254
90580W        W62994  23.572  36.457  14.445
90581W        W62995  27.146   1.825  13.542
90582W        W62996  20.185  20.693   2.742
90583W        W62997   8.222  38.419  13.517
90584W        W62998  24.689  14.731  12.369
90585W        W62999   2.764  10.810  12.998
90586W        W63000  15.297  20.655   2.332
90587W        W63001  41.402  14.224  13.033
90588W        W63002  23.607   6.762   1.816
90589W        W63003  31.542  31.947  11.041
90590W        W63004  10.659  14.713  12.517
90591W        W63005  20.039  15.622   4.736
90592W        W63006  14.713   6.841   4.653
90593W        W63007  42.930  35.416  12.982
90594W        W63008  11.215  11.852  10.641
90595W        W63009   2.240  23.008   4.634
90596W        W63010  39.814  43.903  10.407
90597W        W63011  34.893  30.149  13.419
90598W        W63012  15.232  11.647   2.213
90599W        W63013   7.749  14.802   3.237
90600W        W63014   4.817  23.592   2.770
90601W        W63015  43.468  31.052   3.242
90602W        W63016  15.145  12.319   4.828
90603W        W63017  41.323  20.711  12.829
90604W        W63018  44.786  44.361  13.857
90605W        W63019  17.072  35.546   0.297
90606W        W63020  43.870   9.721   1.413
90607W        W63021  12.348   1.745  12.927
90608W        W63022   8.818  17.673  14.515
90609W        W63023   3.447  43.862  11.888
90610W        W63024  34.512   8.218   2.854
90611W        W63025  42.793  15.724   2.848
90612W        W63026  13.631  23.676   2.314
90613W        W63027  16.682  44.432   2.240
90614W        W63028   4.713  15.221   9.475
90615W        W63029   8.320  40.998   4.768
90616W        W63030   6.378  26.624  11.062
90617W        W63031   7.410  26.978   1.775
90618W        W63032  13.278  26.123   1.444
90619W        W63033  22.197  13.240   0.429
90620W        W63034  43.844   0.267   2.681
90621W        W63035  27.459  25.121  12.829
90622W        W63036   0.939   7.353   2.696
90623W        W63037  24.074   7.334   5.196
90624W        W63038  38.042   5.434  14.799
90625W        W63039   3.448  32.928  14.975
90626W        W63040  14.141  29.099  14.908
90627W        W63041  15.239   2.394  10.928
90628W        W63042  12.335   6.817   9.599
90629W        W63043  17.626  16.107   1.273
90630W        W63044   3.227  25.671  12.892
90631W        W63045  27.144  17.667   3.762
90632W        W63046  31.608   6.280   4.270
90633W        W63047  16.111   2.318  12.419
90634W        W63048  15.754  25.974   1.876
90635W        W63049   8.684  42.024  12.414
90636W        W63050  34.600   5.874  14.015
90637W        W63051  35.034   3.293  11.423
90638W        W63052  42.024  36.978  10.635
90639W        W63053  38.540  25.637  11.596
90640W        W63054   8.720   9.799  11.517
90641W        W63055   6.187  15.316   3.669
90642W        W63056   7.690   7.807  13.960
90643W        W63057  12.824  22.237  13.953
90644W        W63058  18.128  13.813  14.333
90645W        W63059  15.796   2.787   9.986
90646W        W63060  38.965   4.207  11.962
90647W        W63061   2.816  38.998  11.558
90648W        W63062  44.891  44.281   3.730
90649W        W63063  23.495  36.535   2.389
90650W        W63064  29.480  22.721   3.344
90651W        W63065  38.412  39.994  13.844
90652W        W63066  21.178  43.917   2.731
90653W        W63067  14.310  30.487   2.893
90654W        W63068  33.032   2.846   3.762
90655W        W63069   3.734  33.550  14.345
90656W        W63070  25.197  35.371  12.351
90657W        W63071  30.069   7.295  13.368
90658W        W63072  41.897  30.530   3.292
90659W        W63073   6.332  28.142   2.402
90660W        W63074  21.639   5.745  12.989
90661W        W63075  10.761   6.321  13.886
90662W        W63076  24.124  12.174   0.809
90663W        W63077  13.844  29.456  14.776
90664W        W63078   7.844   6.714  13.043
90665W        W63079  34.408  18.068  11.507
90666W        W63080  26.475  32.427  11.473
90667W        W63081  21.177  27.650  10.464
90668W        W63082  24.144  28.933   0.922
90669W        W63083   0.387  41.790  11.588
90670W        W63084   4.324  38.414   4.788
90671W        W63085  43.279  32.971   0.361
90672W        W63086  15.141   9.192   4.275
90673W        W63087  40.356  29.508   1.759
90674W        W63088   7.746  38.931  12.836
90675W        W63089   0.987  30.641  14.806
90676W        W63090  31.563  16.135  11.487
90677W        W63091  42.382  32.941  12.032
90678W        W63092  20.089  25.555   0.838
90679W        W63093  25.517  31.992   0.282
90680W        W63094  23.716  27.041  12.018
90681W        W63095   2.469  37.067   3.730
90682W        W63096   0.980  27.520  12.460
90683W        W63097  24.704  24.692   4.790
90684W        W63098  43.948   8.758   5.260
90685W        W63099  10.275  29.123   4.235
90686W        W63100  12.820  15.673   2.232
90687W        W63101  13.211  12.291   4.602
90688W        W63102  42.795  40.309   1.217
90689W        W63103   6.869  26.041  14.995
90690W        W63104  39.375   6.379   4.124
90691W        W63105   9.814  36.568   0.932
90692W        W63106   5.293  42.877  11.517
90693W        W63107  42.339   2.340  13.324
90694W        W63108  13.137   6.259   3.798
90695W        W63109  36.051  17.790   3.738
90696W        W63110  27.459   7.833  13.944
90697W        W63111  10.161  34.038   5.144
90698W        W63112  35.003  25.635   1.389
90699W        W63113  38.022  41.923   1.392
90700W        W63114   9.247  18.108  12.039
90701W        W63115  11.228   3.297   2.372
90702W        W63116  26.552  39.494  14.999
90703W        W63117  10.279  18.754  13.028
90704W        W63118  12.646  17.756  12.891
90705W        W63119  27.099   8.851  10.082
90706W        W63120  16.739   5.728   3.241
90707W        W63121  10.177  41.344   4.319
90708W        W63122  23.002  24.162   4.222
90709W        W63123  29.946  13.747   3.662
90710W        W63124  34.541  17.624  13.967
90711W        W63125   6.803  29.075   3.202
90712W        W63126  23.206  24.565  14.318
90713W        W63127   5.748  25.072   0.797
90714W        W63128   2.837  20.227   0.948
90715W        W63129  33.388  42.514   3.670
90716W        W63130   9.848  39.929   2.390
90717W        W63131  36.482  18.165  13.949
90718W        W63132  11.798  34.406   3.755
90719W        W63133   4.880  23.237  10.963
90720W        W63134  23.011  22.107  12.077
90721W        W63135  40.821   4.752  10.895
90722W        W63136  39.416  18.680   3.303
90723W        W63137   7.816  42.834   1.923
90724W        W63138   6.844   3.721  14.836
90725W        W63139  42.798  11.356   4.699
90726W        W63140  17.650   9.160  10.499
90727W        W63141   4.268  41.372  11.064
90728W        W63142  43.309   0.301  11.011
90729W        W63143  41.032  36.014  13.973
90730W        W63144  10.334  30.613  10.599
90731W        W63145  39.984   8.698   2.753
90732W        W63146  31.966  11.640   0.366
90733W        W63147   6.312  27.524   3.197
90734W        W63148  24.505   4.412  11.579
90735W        W63149  38.835  34.578  13.508
90736W        W63150   3.375  12.732  12.862
90737W        W63151  26.139  25.682   4.767
90738W        W63152   7.272  27.613   1.787
90739W        W63153  35.511   0.756   3.314
90740W        W63154   6.824  33.420   1.250
90741W        W63155  35.577  38.012  11.882
90742W        W63156  41.925  24.514  14.493
90743W        W63157  35.919  15.161   0.808
90744W        W63158  38.426  30.433   2.897
90745W        W63159   3.954  38.857  14.818
90746W        W63160  14.108  31.447   0.739
90747W        W63161  29.033  17.772   4.787
90748W        W63162  16.261   7.307   5.206
90749W        W63163  27.632  42.505  11.105
90750W        W63164  26.176  17.283  12.826
90751W        W63165  39.322  36.879   3.217
90752W        W63166   8.683  15.746   1.808
90753W        W63167  22.086  37.531   3.190
90754W        W63168  32.420   1.871   2.800
90755W        W63169  26.126  35.953   4.234
90756W        W63170  41.458   6.335   1.416
90757W        W63171  40.439   1.401  13.332
90758W        W63172  43.933  22.072  14.351
90759W        W63173  13.203  11.129   0.746
90760W        W63174  44.478   0.347  13.358
90761W        W63175  36.060  20.592  14.797
90762W        W63176  19.107  38.526  10.636
90763W        W63177   6.737  42.471  14.939
90764W        W63178  40.502  14.303  10.058
90765W        W63179  37.834   3.290  14.766
90766W        W63180  39.848  35.393   1.347
90767W        W63181  44.968  21.258   3.251
90768W        W63182   2.340   3.283   1.893
90769W        W63183  29.966  42.349  11.991
90770W        W63184  13.759  39.484  12.076
90771W        W63185  35.576  40.367  11.118
90772W        W63186   1.384   7.857  13.544
90773W        W63187  38.490  37.997  14.832
90774W        W63188   8.302   6.795   3.159
90775W        W63189  34.507  36.484   0.248
90776W        W63190  35.538   1.802   2.220
90777W        W63191  30.527   5.724   0.927
90778W        W63192   5.216  22.621  11.376
90779W        W63193  36.975  31.508   2.371
90780W        W63194  35.465  12.682   3.186
90781W        W63195  41.364  43.313  13.308
90782W        W63196  20.713  34.046  13.450
90783W        W63197  25.128  20.567  13.903
90784W        W63198   8.815  20.260   2.805
90785W        W63199  20.202   4.827  14.482
90786W        W63200  37.474  26.112  11.984
90787W        W63201  37.516  42.913  10.154
90788W        W63202  22.698  10.170  11.508
90789W        W63203  37.412   9.720   3.293
90790W        W63204  31.910  15.708   4.178
90791W        W63205  23.179  27.988   2.249
90792W        W63206  24.594  23.009   3.718
90793W        W63207  23.989  10.264  12.465
90794W        W63208  23.148  14.797   2.790
90795W        W63209   3.954  31.480   1.441
90796W        W63210  12.221  14.693   3.833
90797W        W63211  21.103  16.610   0.281
90798W        W63212  13.802  21.143   2.265
90799W        W63213  10.637   4.439   3.231
90800W        W63214  25.035  12.847  10.922
90801W        W63215   9.225   1.952   4.770
90802W        W63216  31.567  21.149  14.420
90803W        W63217   1.324   0.831  13.332
90804W        W63218  40.499   7.417  13.888
90805W        W63219   0.860   6.207  12.492
90806W        W63220  35.410  39.405  14.920
90807W        W63221  22.076   6.388   4.610
90808W        W63222  18.766  42.361   4.816
90809W        W63223   8.810  41.962  10.911
90810W        W63224  14.647  34.422   2.760
90811W        W63225  30.056  19.077  10.560
90812W        W63226   5.427  32.074  13.430
90813W        W63227   3.757  39.014   3.172
90814W        W63228   4.835  20.230  13.003
90815W        W63229  40.965  26.203   0.761
90816W        W63230  35.427   6.401   2.349
90817W        W63231  14.195  18.208   0.784
90818W        W63232  21.658  36.385  10.419
90819W        W63233  15.607   7.327  10.980
90820W        W63234  33.884   9.853   1.891
90821W        W63235   2.341  34.978  14.943
90822W        W63236   4.359  22.175  11.108
90823W        W63237  34.977   3.955  11.414
90824W        W63238   6.899  24.636  10.965
90825W        W63239   1.776  20.581  11.399
90826W        W63240  26.176  11.155  10.908
90827W        W63241  23.692  19.057   9.975
90828W        W63242  19.590  25.664   1.789
90829W        W63243  36.961  30.029   2.757
90830W        W63244  38.355  34.375   4.281
90831W        W63245  19.650  16.674  14.455
90832W        W63246  24.505   2.330  13.878
90833W        W63247   9.311  42.844  14.492
90834W        W63248  36.916  23.002   1.776
90835W        W63249   5.828  24.511  11.875
90836W        W63250  16.217   6.818   4.619
90837W        W63251  24.653  37.382   3.372
90838W        W63252  41.795   6.273   3.649
90839W        W63253  32.450  11.148   0.779
90840W        W63254  18.146  42.284  12.445
90841W        W63255   9.295   2.875  11.441
90842W        W63256   2.758  22.538   2.383
90843W        W63257  32.453  15.652  14.277
90844W        W63258  24.094  17.194  12.418
90845W        W63259  24.120  33.890   4.764
90846W        W63260  21.156  18.140  11.885
90847W        W63261  17.705   7.342   4.673
90848W        W63262  34.423  26.089   0.250
90849W        W63263  38.356  44.868   3.694
90850W        W63264  11.320   3.910   3.379
90851W        W63265  27.576  21.212  13.454
90852W        W63266  16.187  37.555   3.775
90853W        W63267   1.451  34.566   0.423
90854W        W63268  14.791  16.137   4.717
90855W        W63269  22.194  32.637   0.280
90856W        W63270  14.723  19.225   4.310
90857W        W63271  15.276  39.808   4.178
90858W        W63272   8.358  17.064   1.805
90859W        W63273   6.759  36.004  12.027
90860W        W63274  10.830  13.721  12.461
90861W        W63275   3.286  19.552  11.978
90862W        W63276  32.504  37.490   2.400
90863W        W63277  12.649  22.682  13.861
90864W        W63278  24.112   5.758  14.413
90865W        W63279  10.254   2.786  13.008
90866W        W63280   1.785  40.444  13.933
90867W        W63281  18.599  40.383   4.609
90868W        W63282   1.318  25.613  13.810
90869W        W63283  34.002   1.832   4.129
90870W        W63284  44.989   5.880  11.576
90871W        W63285  39.436  26.009  12.029
90872W        W63286  38.928  33.414   4.123
90873W        W63287   8.165  34.481  10.639
90874W        W63288  23.538  36.860  13.037
90875W        W63289  13.800  11.230  11.408
90876W        W63290  39.025  22.146  12.405
90877W        W63291  29.992  37.519   4.616
90878W        W63292  20.715  22.061   3.853
90879W        W63293   8.260  19.201   0.365
90880W        W63294  29.136  33.423   4.600
90881W        W63295  11.702  42.809  14.371
90882W        W63296  35.864  44.498  12.994
90883W        W63297  15.316  21.697  10.456
90884W        W63298  16.811  20.159   9.618
90885W        W63299  24.046  43.475  10.488
90886W        W63300   7.855  26.031   1.281
90887W        W63301  36.004  39.549  13.991
90888W        W63302  14.673  22.727   2.785
90889W        W63303   3.376   6.857   1.776
90890W        W63304   3.821  39.462   4.599
90891W        W63305  33.980   3.322  13.923
90892W        W63306  24.505  43.951  11.112
90893W        W63307  20.030   8.388   2.398
90894W        W63308  29.506  36.996  11.474
90895W        W63309   4.211  30.032  13.958
90896W        W63310  24.489  43.884  11.861
90897W        W63311  36.987   4.753   3.199
90898W        W63312  15.196  21.653  11.972
90899W        W63313  13.780  22.669   1.935
90900W        W63314  17.622  41.357   4.160
90901W        W63315  34.970  26.507  10.955
90902W        W63316  43.498  34.057  13.450
90903W        W63317  18.636  13.334  14.759
90904W        W63318   9.673  17.620  12.069
90905W        W63319  36.384  10.811   0.822
90906W        W63320   7.898  12.172   0.310
90907W        W63321  10.365   5.889   0.891
90908W        W63322   8.357  17.798  13.900
90909W        W63323  19.252   0.782   3.723
90910W        W63324   1.389   6.336  14.864
90911W        W63325  36.385  22.178   3.285
90912W        W63326  14.274  39.960   1.803
90913W        W63327   9.800  10.302   2.763
90914W        W63328  17.751   8.900   3.732
90915W        W63329   5.785  22.723  11.059
90916W        W63330   1.468  18.762   0.273
90917W        W63331  18.592   6.750   4.668
90918W        W63332  41.351  24.974   4.262
90919W        W63333  24.670  32.040   2.856
90920W        W63334   9.371  37.536  13.877
90921W        W63335  36.921  16.291   2.814
90922W        W63336  36.461  24.533   1.867
90923W        W63337   4.793  27.517  14.291
90924W        W63338  35.989   2.770   2.894
90925W        W63339   6.884  15.227   1.816
90926W        W63340  23.655  30.989  11.412
90927W        W63341  16.167   6.345   9.504
90928W        W63342  22.169  25.676  10.425
90929W        W63343  11.199   9.763  13.850
90930W        W63344  11.768  21.627   9.989
90931W        W63345   0.771  44.788  12.403
90932W        W63346  13.693   5.299  11.081
90933W        W63347   4.925  20.184  14.372
90934W        W63348  42.332  25.572  14.307
90935W        W63349  40.517   3.439  13.014
90936W        W63350  38.481  36.348  12.853
90937W        W63351  10.686  38.874  14.772
90938W        W63352  17.721  16.157   2.734
90939W        W63353  36.881  33.970   1.342
90940W        W63354  36.955  39.396   1.371
90941W        W63355  29.958  39.344   3.365
90942W        W63356  15.661  37.562  13.482
90943W        W63357  23.617  31.503  11.567
90944W        W63358  23.177  20.267   4.649
90945W        W63359   8.700  35.885   3.150
90946W        W63360  39.330  33.074  14.897
90947W        W63361  38.525  33.103   1.704
90948W        W63362   2.964   2.734   0.740
90949W        W63363  21.146  38.968  10.907
90950W        W63364   8.346  33.126   4.816
90951W        W63365  33.558  32.011  13.480
90952W        W63366  10.636  19.572  11.860
90953W        W63367  44.004  27.521  11.120
90954W        W63368  24.223  40.897   0.967
90955W        W63369  39.387  14.156   1.761
90956W        W63370  36.993  22.738   0.338
90957W        W63371  40.982  23.549  10.498
90958W        W63372  37.562   0.895   3.782
90959W        W63373  39.540  22.563   1.931
90960W        W63374  34.895   1.832   0.952
90961W        W63375  16.768  41.452  14.315
90962W        W63376  12.211  15.718   2.723
90963W        W63377  38.507  38.408   1.308
90964W        W63378  42.022  37.388  14.286
90965W        W63379   1.928  39.823  12.538
90966W        W63380  32.030  15.728   3.172
90967W        W63381  39.478  10.274  14.298
90968W        W63382  13.107  16.781  12.827
90969W        W63383   4.332   7.894   1.250
90970W        W63384  18.260  41.522   2.312
90971W        W63385  14.619  27.608  12.498
90972W        W63386  31.941  14.116   0.813
90973W        W63387  28.123  17.802   0.855
90974W        W63388  38.828  11.232  10.995
90975W        W63389  20.630  15.811   3.807
90976W        W63390  12.288   4.306  12.916
90977W        W63391  23.099  37.355   1.262
90978W        W63392  41.333  14.204  13.508
90979W        W63393   7.774  41.514  10.634
90980W        W63394  21.613   1.816   5.287
90981W        W63395  26.669  21.578  14.982
90982W        W63396  21.645  32.586   2.247
90983W        W63397   7.184  28.615   4.671
90984W        W63398   9.360  11.326   3.290
90985W        W63399   1.296  10.266   5.182
90986W        W63400  35.570  11.781   3.726
90987W        W63401  17.129  10.847   4.268
90988W        W63402  32.542  12.721   0.941
90989W        W63403  36.914  30.999   1.908
90990W        W63404   8.367  20.699  14.306
90991W        W63405  10.701  21.150  14.303
90992W        W63406  11.808   6.244  11.969
90993W        W63407  13.726  18.288   4.338
90994W        W63408  20.057   7.804  13.822
90995W        W63409  16.290  33.421  13.988
90996W        W63410  28.525  18.755   2.677
90997W        W63411  19.657   3.851  12.960
90998W        W63412  20.674  29.918  14.489
90999W        W63413  38.537  26.994  12.564
91000W        W63414  30.464  43.020   3.644
91001W        W63415  41.873  26.473  12.058
91002W        W63416  35.535   8.884   0.872
91003W        W63417   6.920  13.273  10.552
91004W        W63418  21.727  21.633   1.301
91005W        W63419  17.289  10.773   3.863
91006W        W63420   3.767  27.134  10.643
91007W        W63421  33.089  10.368   2.357
91008W        W63422   0.749  24.227   4.833
91009W        W63423  44.450  32.514  12.012
91010W        W63424  36.489  20.660  14.432
91011W        W63425  22.685  23.714   4.224
91012W        W63426  30.587  20.076   3.712
91013W        W63427  41.497  16.259  11.477
91014W        W63428   6.193  29.045  10.448
91015W        W63429  30.620  41.534  13.344
91016W        W63430  44.841  37.984  14.420
91017W        W63431  17.146  15.792   3.291
91018W        W63432  39.425  38.515  10.888
91019W        W63433  38.867  10.842   2.706
91020W        W63434  20.191   0.285  13.912
91021W        W63435  37.423   7.880  14.922
91022W        W63436  20.241  11.810   5.088
91023W        W63437  36.527  11.804   3.162
91024W        W63438  33.448   4.213  10.641
91025W        W63439   0.277   3.786   3.274
91026W        W63440  37.048  12.702  12.410
91027W        W63441  26.629   3.875  10.422
91028W        W63442  23.221  40.838  11.510
91029W        W63443  43.290   5.254   3.321
91030W        W63444  43.347  42.400  10.630
91031W        W63445  25.569  31.632  13.029
91032W        W63446  30.556  23.239   3.809
91033W        W63447  42.413   2.448  13.935
91034W        W63448   4.790   5.729  12.990
91035W        W63449  10.159   8.672   3.337
91036W        W63450  30.059  14.253   3.798
91037W        W63451  40.939  41.483  12.919
91038W        W63452  40.382  22.531   2.259
91039W        W63453   2.732  15.191   5.759
91040W        W63454  23.489   0.756   9.923
91041W        W63455  20.694   4.232  11.978
91042W        W63456   6.407  21.172   1.210
91043W        W63457  38.429  29.451  10.927
91044W        W63458   7.288  17.301  14.940
91045W        W63459   4.748  20.172  11.572
91046W        W63460  32.452  29.624   1.286
91047W        W63461  35.066  25.213  13.408
91048W        W63462  26.158  34.611   2.698
91049W        W63463  21.569   3.747   3.746
91050W        W63464   3.343  25.524   5.136
91051W        W63465  20.105  17.647  14.820
91052W        W63466  27.127  32.972  13.869
91053W        W63467   6.797  42.505   1.306
91054W        W63468  31.958   7.350  12.853
91055W        W63469  40.471  39.385   1.887
91056W        W63470  33.078  20.558  10.544
91057W        W63471  21.130  18.788   0.763
91058W        W63472  29.587  14.257  12.533
91059W        W63473  11.697  26.636   4.743
91060W        W63474  43.433   8.829   3.288
91061W        W63475  43.004  13.171  11.868
91062W        W63476  15.670  39.507   3.223
91063W        W63477  35.423  10.681   2.272
91064W        W63478  38.429  39.533  13.491
91065W        W63479  41.009  20.082  10.932
91066W        W63480   1.462  38.019   3.795
91067W        W63481  38.466  27.613   4.294
91068W        W63482   9.289  44.809   1.838
91069W        W63483  25.577   9.221  10.993
91070W        W63484  21.157  35.407   1.879
91071W        W63485   5.432   4.414   4.220
91072W        W63486  39.035  40.845  11.022
91073W        W63487  40.418   3.789   0.398
91074W        W63488  36.959  24.988  12.520
91075W        W63489  29.114  21.077  11.104
91076W        W63490  22.130  33.621  14.774
91077W        W63491   1.953   6.762  12.906
91078W        W63492  17.683  14.712   4.349
91079W        W63493  41.948  33.088   3.190
91080W        W63494  11.217  28.669   1.734
91081W        W63495   0.361   5.413  10.637
91082W        W63496  41.890  26.190  13.476
91083W        W63497  33.970   8.376  11.462
91084W        W63498   4.745  16.211   1.225
91085W        W63499  33.052  19.143   0.870
91086W        W63500  42.404  39.973  13.026
91087W        W63501  24.127  25.214  10.015
91088W        W63502  10.833  21.596  13.986
91089W        W63503  12.840  25.493   1.402
91090W        W63504  41.810   8.739  11.519
91091W        W63505  37.550  20.167  11.556
91092W        W63506  23.019  32.013  12.557
91093W        W63507  11.332  19.653  11.471
91094W        W63508  18.679  28.054   0.944
91095W        W63509  24.036  18.244  13.800
91096W        W63510  27.690  41.004  13.477
91097W        W63511  15.786   1.763   3.297
91098W        W63512  40.328   8.820   9.973
91099W        W63513  24.658  39.531   4.171
91100W        W63514   3.284   3.861   0.382
91101W        W63515   2.379  29.491   5.248
91102W        W63516  18.194  25.160   0.873
91103W        W63517  15.173   1.482   3.796
91104W        W63518  30.092   9.337  11.576
91105W        W63519  30.935  34.593   2.342
91106W        W63520  19.771  34.377  13.867
91107W        W63521  14.610   2.744  12.890
91108W        W63522  41.895  31.085   0.456
91109W        W63523  40.409  11.267   2.866
91110W        W63524  22.064  15.671  11.063
91111W        W63525  14.676   6.880  12.040
91112W        W63526  31.107   4.220  11.475
91113W        W63527   8.228  42.486  13.836
91114W        W63528   9.848  21.531  12.579
91115W        W63529  36.894  10.340   2.337
91116W        W63530  19.714  44.503  11.549
91117W        W63531   6.303  42.932  12.475
91118W        W63532  29.051  33.132  13.884
91119W        W63533  41.316  35.912   4.790
91120W        W63534  23.495  39.459   0.941
91121W        W63535  30.637  21.518   0.954
91122W        W63536  35.359   3.331   4.700
91123W        W63537  18.680  19.612  13.415
91124W        W63538  42.945  35.476  11.129
91125W        W63539  26.577  25.970  12.435
91126W        W63540  39.977   4.835  13.798
91127W        W63541  30.651  35.575  11.552
91128W        W63542   8.809  21.255   2.860
91129W        W63543  14.833   4.207  10.613
91130W        W63544  36.408  10.154   0.921
91131W        W63545   5.206  31.465  10.952
91132W        W63546  38.979  11.307   1.403
91133W        W63547  36.881  30.146   0.357
91134W        W63548  16.153  17.235   0.411
91135W        W63549  27.673  41.399  12.428
91136W        W63550  33.578  10.810   2.197
91137W        W63551  15.744   6.868  12.482
91138W        W63552  17.556   2.405  11.116
91139W        W63553  16.197  25.149   0.318
91140W        W63554  35.492  21.517  14.885
91141W        W63555  41.331   0.957   1.795
91142W        W63556  16.284   6.415   9.944
91143W        W63557  15.589  30.607  13.994
91144W        W63558  42.023  39.432  14.929
91145W        W63559  41.927  37.454   1.302
91146W        W63560   3.776  13.619   0.958
91147W        W63561   1.784  20.733  12.387
91148W        W63562  13.700  39.559   2.393
91149W        W63563  41.975  33.519  11.422
91150W        W63564   1.377  15.601   2.218
91151W        W63565  11.290   5.331  13.949
91152W        W63566  42.895   7.716  12.542
91153W        W63567  16.138  40.957  11.999
91154W        W63568   3.415  15.210   2.417
91155W        W63569  11.369  44.820  11.980
91156W        W63570  32.031  32.463  11.572
91157W        W63571  39.509  11.632  14.448
91158W        W63572  43.443  11.271  11.447
91159W        W63573  26.691  18.094  11.996
91160W        W63574  13.684  30.077   2.257
91161W        W63575   8.384   1.245   2.318
91162W        W63576  10.682   9.162  12.355
91163W        W63577  18.710  11.707  14.487
91164W        W63578  17.561  42.836   3.306
91165W        W63579   7.347   5.871  11.460
91166W        W63580  36.915  39.985   2.775
91167W        W63581  31.006   0.307  13.403
91168W        W63582   7.335   0.869  14.804
91169W        W63583  42.971   2.278  11.922
91170W        W63584   6.346  26.532   2.871
91171W        W63585  30.114  33.551   0.852
91172W        W63586   5.851  41.378   0.854
91173W        W63587  27.948  22.114  12.378
91174W        W63588  42.286  17.785  14.428
91175W        W63589   1.839  19.632  14.794
91176W        W63590  18.644  28.453   2.302
91177W        W63591  41.313  10.297   3.802
91178W        W63592  15.643  31.414   0.869
91179W        W63593  26.486   3.717   4.263
91180W        W63594  42.812  19.585  13.366
91181W        W63595  36.463   0.443   3.633
91182W        W63596   4.878  17.080   3.377
91183W        W63597  15.798  30.945   3.636
91184W        W63598  34.427  20.137  14.473
91185W        W63599  43.384  26.196   3.284
91186W        W63600   7.328   8.405   4.258
91187W        W63601  29.444  33.403   2.718
91188W        W63602   9.668  29.607   4.796
91189W        W63603  39.024   2.409  12.931
91190W        W63604  19.607  25.519   4.680
91191W        W63605   7.891  35.483   4.749
91192W        W63606  43.269   6.273  10.980
91193W        W63607  27.483   1.966   4.674
91194W        W63608  24.141  24.493   1.265
91195W        W63609  35.582  19.545   2.818
91196W        W63610  35.975   9.772   4.304
91197W        W63611   7.839  36.096   2.754
91198W        W63612   6.428  38.069  11.071
91199W        W63613  28.056  29.174  14.840
91200W        W63614   0.394  18.154   0.896
91201W        W63615  20.045  38.041   4.764
91202W        W63616  44.356  31.089  11.882
91203W        W63617  26.061  30.139  10.533
91204W        W63618  14.152  12.170  11.015
91205W        W63619  17.289  11.127  13.370
91206W        W63620  23.027  23.707  13.534
91207W        W63621  31.947  21.136  14.847
91208W        W63622  11.626   6.393  13.439
91209W        W63623  21.591   0.946   2.387
91210W        W63624  34.494  25.996  14.811
91211W        W63625  21.109   1.250  10.620
91212W        W63626  11.232   6.917  14.383
91213W        W63627  37.848  29.951  14.433
91214W        W63628  26.200  20.222   4.188
91215W        W63629  38.833  34.931  11.988
91216W        W63630  18.121  44.983   3.375
91217W        W63631  25.635  25.970  12.006
91218W        W63632   3.724  19.614  11.940
91219W        W63633  37.481   5.202  14.957
91220W        W63634  15.684  37.577  11.494
91221W        W63635  18.747  38.451   4.211
91222W        W63636  38.565  43.917  13.947
91223W        W63637  18.781   1.845  14.452
91224W        W63638   3.889  39.949   5.213
91225W        W63639  41.829   9.677  13.415
91226W        W63640  25.639  40.903  13.943
91227W        W63641   3.299  44.891  14.830
91228W        W63642  27.602  20.140  11.483
91229W        W63643   0.447  12.314   2.812
91230W        W63644   0.890  42.503  13.020
91231W        W63645   9.683  32.997  14.280
91232W        W63646   5.710  11.342   4.759
91233W        W63647  28.179  35.960  12.902
91234W        W63648   2.966  24.166  13.935
91235W        W63649  18.214  23.174   0.403
91236W        W63650  22.091   3.243   1.220
91237W        W63651  39.936   0.852   3.157
91238W        W63652  23.237  12.173  10.483
91239W        W63653  39.360   7.335   3.752
91240W        W63654   4.276  30.975  10.995
91241W        W63655   5.772   4.332   3.192
91242W        W63656  34.046  32.452   4.256
91243W        W63657  44.919  32.569   2.748
91244W        W63658   8.319  24.128  12.517
91245W        W63659  43.008  24.573   2.353
91246W        W63660  20.759   0.256  12.029
91247W        W63661  42.991  38.850  11.058
91248W        W63662  16.230  25.552   3.274
91249W        W63663  35.575  22.098   0.318
91250W        W63664  18.605   4.850  11.972
91251W        W63665  35.580  11.680  13.847
91252W        W63666  17.198   5.366   1.819
91253W        W63667  38.905   0.837  14.898
91254W        W63668  31.052  37.490  14.906
91255W        W63669  34.396  25.975   2.364
91256W        W63670  10.340  38.465  11.445
91257W        W63671  19.726   2.261  12.074
91258W        W63672  22.546  40.808   1.754
91259W        W63673  33.441  42.401   2.826
91260W        W63674  41.433   9.743   2.775
91261W        W63675  26.476   8.858   5.086
91262W        W63676   6.676  24.117   3.832
91263W        W63677   4.344  42.925  12.540
91264W        W63678  13.158  32.087   2.754
91265W        W63679  33.981  42.014   3.283
91266W        W63680   2.329   5.240   1.931
91267W        W63681  31.542  24.097   3.204
91268W        W63682   7.329  20.688  13.958
91269W        W63683  23.089  22.608  12.365
91270W        W63684  42.949  34.420  12.440
91271W        W63685  27.097   7.377   3.825
91272W        W63686  21.559  26.521  13.531
91273W        W63687  43.014  39.992  10.571
91274W        W63688   9.789  27.609   2.231
91275W        W63689  37.389  11.188   4.187
91276W        W63690   4.284  42.844   5.637
91277W        W63691  16.297  21.569  10.416
91278W        W63692  35.568  20.659  13.044
91279W        W63693  26.127  16.218   5.083
91280W        W63694  28.142  18.055   4.714
91281W        W63695  25.131  39.384  12.520
91282W        W63696  10.770   7.386  11.458
91283W        W63697  33.407  24.618   4.194
91284W        W63698  42.856  24.996   0.261
91285W        W63699   7.696  33.512  11.884
91286W        W63700  38.556  10.338   3.648
91287W        W63701  43.004   8.863  11.468
91288W        W63702   7.209   3.772   3.747
91289W        W63703  11.183  31.609  10.584
91290W        W63704  26.060   4.399   0.352
91291W        W63705  19.696  40.907   2.218
91292W        W63706  17.238   0.964  10.948
91293W        W63707  25.209  22.503  14.018
91294W        W63708  10.854  20.139  10.536
91295W        W63709  35.525   0.818  14.433
91296W        W63710  19.060  43.907   2.689
91297W        W63711  28.532  11.813   3.243
91298W        W63712  34.395  39.915  10.959
91299W        W63713  22.673  37.008  11.561
91300W        W63714  19.706  18.574  14.494
91301W        W63715  43.939   6.406  14.334
91302W        W63716  17.772  11.212  12.357
91303W        W63717   3.876  21.722  11.860
91304W        W63718  39.472  30.969   4.633
91305W        W63719  22.693  12.659   1.386
91306W        W63720  20.632  30.624  14.758
91307W        W63721  40.018   0.258   1.846
91308W        W63722  44.366  44.479  13.050
91309W        W63723  27.966  22.066   9.951
91310W        W63724  23.523   6.285   4.790
91311W        W63725   8.215  11.311  14.374
91312W        W63726  43.817  21.696  14.860
91313W        W63727  15.255  42.027  13.327
91314W        W63728  44.811  42.305  11.609
91315W        W63729  12.263   9.648   4.137
91316W        W63730   3.908  32.520   2.245
91317W        W63731   9.699  24.113   4.209
91318W        W63732  34.095  32.951   0.323
91319W        W63733  44.922  28.140  13.399
91320W        W63734  44.343   4.423  13.426
91321W        W63735  28.948   1.737  10.921
91322W        W63736   3.435   3.850  13.992
91323W        W63737  37.440  11.137  13.546
91324W        W63738  16.232  19.729  13.540
91325W        W63739   3.765  23.599  11.879
91326W        W63740  36.431  18.718  12.983
91327W        W63741   8.676  19.192   2.799
91328W        W63742  14.225  37.007   2.810
91329W        W63743  35.073   9.342  10.577
91330W        W63744   1.941  24.095   1.910
91331W        W63745  17.658  11.238  12.051
91332W        W63746   0.355  29.058   2.396
91333W        W63747  39.491   5.725   2.271
91334W        W63748   9.392   3.405  12.024
91335W        W63749  42.958  11.179  12.844
91336W        W63750   4.278  25.138   3.296
91337W        W63751  17.672  44.388   9.545
91338W        W63752   0.905  25.119   4.771
91339W        W63753   5.350  29.576  11.976
91340W        W63754  16.098  31.418  10.639
91341W        W63755  21.036   9.308   4.802
91342W        W63756  41.383  14.818   4.311
91343W        W63757  29.023  19.255  12.005
91344W        W63758  34.403  14.607   0.897
91345W        W63759  20.644   2.933   4.598
91346W        W63760  15.706  30.533  10.532
91347W        W63761  16.179  38.345  11.052
91348W        W63762   0.744  22.676  12.378
91349W        W63763  18.593   8.761   5.178
91350W        W63764  30.916  32.492   4.753
91351W        W63765  37.881  39.956   3.374
91352W        W63766  44.338  40.970   0.901
91353W        W63767  29.601  13.794   2.342
91354W        W63768  14.764   1.432  10.553
91355W        W63769  40.889   9.302  13.378
91356W        W63770  23.120  29.132  11.944
91357W        W63771  33.490  23.132   4.250
91358W        W63772  36.925  28.946  11.037
91359W        W63773  10.809  43.788  14.506
91360W        W63774   7.353  22.117  10.947
91361W        W63775  17.672  20.255   0.343
91362W        W63776   9.867  30.105  14.331
91363W        W63777   2.336  24.501   1.932
91364W        W63778  31.487  15.242   1.370
91365W        W63779  39.500  37.855   2.266
91366W        W63780  26.049  11.687   4.623
91367W        W63781  43.829   5.693  13.367
91368W        W63782   4.836   9.325   2.417
91369W        W63783  11.740  33.930   3.359
91370W        W63784  11.685   8.865   2.858
91371W        W63785  29.162   5.793  11.091
91372W        W63786  39.473  14.297  11.890
91373W        W63787  34.977  17.772  12.443
91374W        W63788  19.131  11.714  11.884
91375W        W63789   6.335  21.516   3.809
91376W        W63790  16.140  17.667   4.692
91377W        W63791  35.509  32.599  12.341
91378W        W63792  18.710  44.264   2.689
91379W        W63793   2.816  40.980  12.530
91380W        W63794  18.104  31.031   1.306
91381W        W63795  36.442  34.971  13.942
91382W        W63796  14.638  42.003  14.900
91383W        W63797  18.181  42.378  11.599
91384W        W63798  25.129  15.254   3.235
91385W        W63799  29.525   1.966   1.232
91386W        W63800  42.521  34.988   4.241
91387W        W63801  12.162  29.622  12.076
91388W        W63802  42.877  29.528   2.703
91389W        W63803   7.860   6.226   4.743
91390W        W63804  38.073  41.003  14.481
91391W        W63805  27.044  41.807  14.784
91392W        W63806  38.399  29.625  13.036
91393W        W63807  35.109  11.127   4.337
91394W        W63808  38.358  28.651  13.001
91395W        W63809   7.760  20.568  10.475
91396W        W63810  38.828   5.213  14.776
91397W        W63811   0.838   9.858   1.276
91398W        W63812  21.032  33.486  11.117
91399W        W63813   9.733  43.440   3.695
91400W        W63814   7.367  26.008   0.244
91401W        W63815  32.451  30.968   1.412
91402W        W63816  34.537  17.747  11.925
91403W        W63817  10.854   8.656   1.719
91404W        W63818  41.930  27.119   1.329
91405W        W63819  27.669  20.203   0.256
91406W        W63820  33.120   7.376   1.820
91407W        W63821  15.578   3.713  12.574
91408W        W63822  34.115   2.335   1.396
91409W        W63823   8.853  32.016   4.122
91410W        W63824  41.946  43.895   4.256
91411W        W63825   3.459  18.180  10.067
91412W        W63826  20.669   6.685  11.467
91413W        W63827  26.055  11.843  12.056
91414W        W63828  24.120  34.402   3.755
91415W        W63829  26.563   1.794  11.489
91416W        W63830   7.761  13.799  11.452
91417W        W63831  23.162  16.123   0.268
91418W        W63832  19.776  19.773  14.990
91419W        W63833  22.633  18.741   5.196
91420W        W63834  40.999  34.954  11.127
91421W        W63835   5.354  32.904  11.452
91422W        W63836   4.714  29.969   0.453
91423W        W63837  21.714  33.566  13.522
91424W        W63838  39.988  39.363  12.443
91425W        W63839  29.425  11.214   4.811
91426W        W63840   8.812  37.414   0.357
91427W        W63841  12.260  32.401   2.823
91428W        W63842  34.894   3.760  10.998
91429W        W63843   1.310  41.339  12.359
91430W        W63844   4.762   3.777   4.837
91431W        W63845  32.576   8.849   0.459
91432W        W63846  19.742   6.357  14.441
91433W        W63847  26.044  21.616   1.932
91434W        W63848  27.118  25.099   0.815
91435W        W63849  39.878  26.012   0.798
91436W        W63850  25.686  31.451  12.495
91437W        W63851   0.421   8.250   4.679
91438W        W63852  41.501   7.181  13.890
91439W        W63853  28.129  39.348   0.770
91440W        W63854  18.220  34.393  14.942
91441W        W63855  25.499  42.466   4.752
91442W        W63856  33.466  24.068  12.400
91443W        W63857  41.452  41.503  11.438
91444W        W63858  18.249  25.682   4.647
91445W        W63859   2.855   2.732   4.681
91446W        W63860   5.284  37.477  11.024
91447W        W63861   3.352  43.773  13.478
91448W        W63862   9.824  43.289  13.515
91449W        W63863  31.002  27.951  10.539
91450W        W63864  41.525  28.506  12.447
91451W        W63865  39.056  26.153   1.857
91452W        W63866  14.315  25.533   2.826
91453W        W63867  40.429  32.132   3.695
91454W        W63868  27.095  35.462  11.479
91455W        W63869  20.150  22.224  13.856
91456W        W63870  14.259   5.283  10.618
91457W        W63871  44.319  40.302  11.949
91458W        W63872  36.871  20.029  11.968
91459W        W63873  15.292   0.277   4.685
91460W        W63874  43.384  38.409  10.511
91461W        W63875  34.531  25.165  13.001
91462W        W63876  23.220  26.628  11.889
91463W        W63877  21.228  29.163   0.861
91464W        W63878   6.767  37.425   2.321
91465W        W63879   2.939  24.593  13.870
91466W        W63880  13.646  34.541  12.424
91467W        W63881   8.753  25.021  14.509
91468W        W63882  21.697  19.094  11.962
91469W        W63883  27.981  33.443  12.020
91470W        W63884  37.340  23.998  11.986
91471W        W63885  11.724   1.834  14.379
91472W        W63886  23.180  44.439  14.888
91473W        W63887  21.140  18.079   2.847
91474W        W63888   4.381  18.761   1.335
91475W        W63889  14.691  41.516   5.169
91476W        W63890   6.796  31.410   1.286
91477W        W63891  24.491   5.732   3.252
91478W        W63892  17.299  19.645   3.656
91479W        W63893  32.473  40.358  12.915
91480W        W63894  23.193  23.708   3.289
91481W        W63895   9.214  36.588   2.319
91482W        W63896  23.731  17.751   3.790
91483W        W63897  10.769  33.986  10.466
91484W        W63898  14.747   8.283   9.607
91485W        W63899  38.962  40.046   2.705
91486W        W63900   2.278  38.058   4.231
91487W        W63901  36.060  13.193   2.871
91488W        W63902  27.598  11.193  10.597
91489W        W63903  36.390   0.843   4.648
91490W        W63904  22.116  34.910   2.703
91491W        W63905  14.141  19.066   2.895
91492W        W63906   1.333  22.522   2.395
91493W        W63907  24.038  18.233   2.691
91494W        W63908  37.845   5.416  13.926
91495W        W63909  33.900  18.182   3.309
91496W        W63910  12.251  19.239  12.541
91497W        W63911   8.265  20.626   1.921
91498W        W63912  21.262   4.883  13.448
91499W        W63913  44.007  14.778  12.376
91500W        W63914  36.857   6.207  11.484
91501W        W63915  20.553  14.137  10.473
91502W        W63916  24.024  44.311  13.503
91503W        W63917  13.300  37.902  14.842
91504W        W63918  22.747   6.283   3.713
91505W        W63919  29.531  28.006   3.183
91506W        W63920  11.826   4.250  13.910
91507W        W63921  11.233   8.792  10.565
91508W        W63922  11.730  27.539  11.897
91509W        W63923   2.404   5.325  12.845
91510W        W63924  38.939  44.449  12.453
91511W        W63925  32.402  10.145   1.834
91512W        W63926  35.413  13.119  14.992
91513W        W63927  14.334  36.456  13.811
91514W        W63928   3.296  22.747   2.895
91515W        W63929  13.744  33.450   3.690
91516W        W63930  23.213  19.108  11.068
91517W        W63931  29.104  44.853  10.924
91518W        W63932  34.460  18.574  12.018
91519W        W63933  15.806  16.806  13.352
91520W        W63934  33.057  25.217  11.113
91521W        W63935  10.220  22.683   0.806
91522W        W63936   2.964  14.756  13.057
91523W        W63937  11.366   1.416  12.831
91524W        W63938  24.028   8.725   3.213
91525W        W63939  43.997  37.343  11.994
91526W        W63940  31.974  22.695   2.181
91527W        W63941  14.751   7.775   3.175
91528W        W63942  22.736  32.457   0.390
91529W        W63943   6.685   9.825   1.697
91530W        W63944  34.480   6.320   3.677
91531W        W63945  34.382  28.532  14.428
91532W        W63946  40.930  25.102  10.971
91533W        W63947  34.482   1.946   0.342
91534W        W63948   1.886  43.892   4.821
91535W        W63949  39.438   6.775   4.797
91536W        W63950   3.429  18.629  11.926
91537W        W63951  15.274  14.216   2.880
91538W        W63952   4.443   6.763  13.492
91539W        W63953  14.235  15.802  14.505
91540W        W63954  34.423  39.439  11.911
91541W        W63955  23.236  28.002  12.579
91542W        W63956  15.589  15.206  11.127
91543W        W63957  39.009  30.605  11.903
91544W        W63958  14.827  39.990  12.540
91545W        W63959  35.979  23.689  11.539
91546W        W63960   9.682  28.623   4.637
91547W        W63961   8.725  26.092   4.663
91548W        W63962  23.631  43.872   2.183
91549W        W63963  32.954  42.947  12.409
91550W        W63964   4.272   9.652  10.936
91551W        W63965  23.202  44.839   5.659
91552W        W63966   8.186  35.530  12.075
91553W        W63967   3.727  27.007   4.247
91554W        W63968   0.764   2.305   3.338
91555W        W63969   1.407  26.133   1.731
91556W        W63970  21.683   8.839  14.833
91557W        W63971   2.247   0.464   3.307
91558W        W63972   9.372  29.619   4.616
91559W        W63973  43.381  44.890  12.547
91560W        W63974  34.445   9.683  12.079
91561W        W63975  42.308  35.361  14.480
91562W        W63976  19.153  39.442  11.611
91563W        W63977  13.713  16.099   0.327
91564W        W63978  44.848  16.297   4.156
91565W        W63979  27.068   7.670   3.219
91566W        W63980  32.078  35.965   0.932
91567W        W63981  35.457  23.158  10.937
91568W        W63982   3.867  42.791  10.570
91569W        W63983  26.701  36.361  10.917
91570W        W63984   3.931  35.971   1.908
91571W        W63985   9.663  12.340   4.155
91572W        W63986   0.310  36.550  11.598
91573W        W63987  39.527  15.161   4.728
91574W        W63988  10.383  26.648   0.472
91575W        W63989   2.961  15.689  14.792
91576W        W63990  19.071  22.737  14.299
91577W        W63991  20.557  33.530   4.125
91578W        W63992  33.437  38.461   2.827
91579W        W63993  28.167  27.114  11.004
91580W        W63994  26.979  17.201  11.407
91581W        W63995  38.430  43.004  12.881
91582W        W63996   9.296  23.715   5.205
91583W        W63997  41.407  36.853   3.146
91584W        W63998  40.480  20.560  12.359
91585W        W63999  22.724  27.132   0.392
91586W        W64000  25.500   4.925   4.287
91587W        W64001   5.394   8.348   3.373
91588W        W64002  19.644  43.489  12.956
91589W        W64003  10.824  26.972  12.452
91590W        W64004  37.835  25.112  13.472
91591W        W64005  12.721   0.874   3.670
91592W        W64006  38.042  10.270   0.760
91593W        W64007   8.356  20.579   3.806
91594W        W64008  31.566  41.408  10.958
91595W        W64009   7.772  37.377   4.144
91596W        W64010  11.327  22.081  13.388
91597W        W64011  28.656  41.947  11.000
91598W        W64012  39.897   1.395   0.742
91599W        W64013   4.337  39.529   0.441
91600W        W64014  30.149  36.436   4.336
91601W        W64015  15.768   0.927  14.812
91602W        W64016  42.842  38.009   2.668
91603W        W64017   8.656  35.925  10.995
91604W        W64018  40.427  25.559   0.821
91605W        W64019  44.343  20.095   0.729
91606W        W64020   8.400  17.744  12.067
91607W        W64021   1.885  38.439  11.595
91608W        W64022  30.647  20.572  13.027
91609W        W64023  13.625   7.682   5.204
91610W        W64024  13.340  41.857  12.574
91611W        W64025  28.959  12.336  13.916
91612W        W64026   1.416  26.467   4.169
91613W        W64027  37.485  41.313  14.855
91614W        W64028  38.054   5.232  14.431
91615W        W64029  20.596  24.048  13.857
91616W        W64030  34.118   2.821  14.845
91617W        W64031  27.981  16.755  14.493
91618W        W64032  32.026  33.495   2.299
91619W        W64033  40.374  18.785   2.263
91620W        W64034  15.091  26.527  13.828
91621W        W64035  35.379   3.381   1.771
91622W        W64036  29.441  33.400   4.814
91623W        W64037   4.942  19.200   4.664
91624W        W64038  11.666  11.338   0.951
91625W        W64039  40.010  40.942   4.329
91626W        W64040  15.302  17.306  13.449
91627W        W64041   3.428  35.936  10.460
91628W        W64042  39.052  11.750   1.929
91629W        W64043  41.836   9.848  11.038
91630W        W64044  35.973  12.745   1.287
91631W        W64045  15.625  30.595   2.682
91632W        W64046  36.034  39.011   1.397
91633W        W64047  32.613  10.339  12.569
91634W        W64048  26.667  10.718  14.763
91635W        W64049  19.241  33.108  11.388
91636W        W64050  26.673   4.919  14.915
91637W        W64051  34.546   3.766   4.254
91638W        W64052  17.172  19.248  13.502
91639W        W64053  40.505  32.578   3.287
91640W        W64054  18.092   8.884  14.397
91641W        W64055  26.201  38.038  14.878
91642W        W64056  15.140   6.196   1.323
91643W        W64057  35.978  28.182  14.450
91644W        W64058  13.184  38.403  11.067
91645W        W64059  40.333   4.779  13.848
91646W        W64060  12.825   5.896  11.098
91647W        W64061   5.912  29.621   3.724
91648W        W64062  29.592  37.050   1.400
91649W        W64063  42.937   6.326  12.426
91650W        W64064  29.934  16.728   0.894
91651W        W64065   6.283  44.498   4.636
91652W        W64066  36.359  35.395  13.016
91653W        W64067  40.498  29.429  10.889
91654W        W64068  42.800  38.065   4.707
91655W        W64069  14.589  16.577   4.162
91656W        W64070  34.437  30.934  12.938
91657W        W64071  44.289   9.387   0.436
91658W        W64072  42.497   4.233  10.893
91659W        W64073  18.155  16.118   0.461
91660W        W64074  20.032   5.695  13.434
91661W        W64075   4.871  21.098  13.005
91662W        W64076  13.290   6.246  13.370
91663W        W64077   3.882   5.251   3.309
91664W        W64078  26.018  15.306  11.579
91665W        W64079  31.433  32.392   1.296
91666W        W64080  21.216  39.862   0.255
91667W        W64081   7.352  30.058   2.388
91668W        W64082  18.566  18.773  11.942
91669W        W64083  24.107   0.333  13.033
91670W        W64084  35.056   9.364  12.577
91671W        W64085  22.699   3.398   2.718
91672W        W64086   1.850  44.423  10.108
91673W        W64087  14.173  34.928   1.781
91674W        W64088   2.917  29.085  13.510
91675W        W64089  33.100  14.211   1.278
91676W        W64090  42.831  42.984  10.577
91677W        W64091   0.862   4.706   0.451
91678W        W64092  41.474  38.935  11.077
91679W        W64093   9.178  40.838  14.465
91680W        W64094  43.897  23.656  14.325
91681W        W64095  17.233   7.824   1.401
91682W        W64096  35.099  13.803  13.940
91683W        W64097  18.545  42.797   1.868
91684W        W64098  20.635  30.103   1.897
91685W        W64099  43.350   5.921   2.813
91686W        W64100  18.610   3.905  13.901
91687W        W64101  28.538  24.989  10.592
91688W        W64102  22.092  24.209  13.002
91689W        W64103  25.682  41.451   2.306
91690W        W64104  28.595   2.226  14.915
91691W        W64105  36.358  25.559   3.671
91692W        W64106  30.909  33.896  11.947
91693W        W64107   6.893   8.675   2.366
91694W        W64108  10.321  36.973   2.683
91695W        W64109  23.662   9.192   4.295
91696W        W64110   7.261  20.190   2.268
91697W        W64111  33.545  14.833  10.482
91698W        W64112   8.220  14.229  14.778
91699W        W64113  13.203  24.549  13.423
91700W        W64114  24.127  24.490  10.424
91701W        W64115  21.247  38.470   2.867
91702W        W64116  37.917  34.036   0.820
91703W        W64117  38.376   0.468  13.917
91704W        W64118  39.409  37.582  13.003
91705W        W64119   0.490  43.980  13.344
91706W        W64120  12.353  21.758  13.434
91707W        W64121  11.848  35.486   0.861
91708W        W64122  28.100   0.773  13.371
91709W        W64123  42.410   8.841  14.008
91710W        W64124  22.078  25.106   4.279
91711W        W64125   1.448  10.694   3.803
91712W        W64126  43.934  38.340  13.386
91713W        W64127  14.645  36.447   0.918
91714W        W64128  31.078  33.928  14.370
91715W        W64129  25.159  37.341   1.268
91716W        W64130  14.127  41.947  12.979
91717W        W64131  29.951  34.441  13.865
91718W        W64132   8.206  36.489   4.756
91719W        W64133  20.166  31.117  11.587
91720W        W64134   9.344  34.977   2.336
91721W        W64135   6.738  26.538   1.380
91722W        W64136  15.697   2.947   3.184
91723W        W64137  25.546   3.251   4.687
91724W        W64138  21.176  15.321   3.294
91725W        W64139   1.423  34.973   3.859
91726W        W64140  33.585  44.978  12.524
91727W        W64141  31.092  42.854  13.931
91728W        W64142  31.438   3.836   3.733
91729W        W64143  12.152  21.058   0.267
91730W        W64144  36.477  10.693  14.770
91731W        W64145  39.443  44.930  11.601
91732W        W64146  32.138  28.449   1.279
91733W        W64147  32.065   4.369  14.279
91734W        W64148  32.910  35.585  10.595
91735W        W64149  14.714  18.711   0.248
91736W        W64150  35.450  23.699   5.659
91737W        W64151  29.094  35.498  13.926
91738W        W64152   7.284  10.256  14.794
91739W        W64153  27.655  30.114  13.507
91740W        W64154   5.784  28.031  12.454
91741W        W64155   9.719  40.963   3.796
91742W        W64156   7.387   6.909   3.347
91743W        W64157  44.339  29.604  10.108
91744W        W64158  26.604  40.359   0.854
91745W        W64159  36.972  36.462   2.705
91746W        W64160  12.314  37.577  10.457
91747W        W64161  17.258  18.168  12.449
91748W        W64162  31.962  16.631   3.846
91749W        W64163   3.954  28.008  11.517
91750W        W64164   5.408  31.582   3.160
91751W        W64165  33.900  39.018   1.256
91752W        W64166   6.211  25.021   0.391
91753W        W64167  20.146  36.939   3.826
91754W        W64168  36.005   1.742  14.873
91755W        W64169  37.855  11.298   2.761
91756W        W64170  18.056   1.403   4.256
91757W        W64171  17.164  23.043  12.953
91758W        W64172   7.736  27.163   3.152
91759W        W64173  41.373  34.522   1.875
91760W        W64174  15.232  31.594   0.900
91761W        W64175  40.543  17.164  12.057
91762W        W64176  18.705  28.178   3.869
91763W        W64177  19.066  27.616   2.355
91764W        W64178  21.183  43.900   4.140
91765W        W64179  11.248  11.273   3.758
91766W        W64180   5.310  17.125   2.393
91767W        W64181  27.197  14.286  14.382
91768W        W64182  38.881  44.502  11.405
91769W        W64183  31.923  31.555   3.861
91770W        W64184  25.636   8.264   0.326
91771W        W64185   1.310   4.303   1.372
91772W        W64186   4.337  37.071   0.312
91773W        W64187  24.609  26.535   1.304
91774W        W64188  31.540  11.135  11.536
91775W        W64189  42.962   3.234  14.913
91776W        W64190  39.916  43.276  11.549
91777W        W64191  14.140  31.139   1.848
91778W        W64192  41.293  19.205  13.061
91779W        W64193  20.216  10.752  14.934
91780W        W64194  22.090  43.847   1.235
91781W        W64195  24.695   8.680   4.829
91782W        W64196   7.734  30.447   3.850
91783W        W64197  22.042   6.732   0.265
91784W        W64198  42.390   1.393   1.798
91785W        W64199   5.927  17.142   3.861
91786W        W64200  41.481  25.152   1.797
91787W        W64201  16.694  20.576  14.407
91788W        W64202  34.968  12.714  12.029
91789W        W64203   6.732  31.503  11.606
91790W        W64204   1.431  17.776  13.983
91791W        W64205  37.436  11.274   4.651
91792W        W64206  11.771  25.478   0.870
91793W        W64207  29.562   4.401   3.836
91794W        W64208   9.834  10.349  13.914
91795W        W64209  37.557  22.644   0.308
91796W        W64210  36.410   6.319  12.946
91797W        W64211  25.582  26.961  10.618
91798W        W64212  22.111   0.920  11.096
91799W        W64213  37.052  11.202  13.414
91800W        W64214  20.215  20.200   3.155
91801W        W64215  15.176   4.728  13.383
91802W        W64216  39.874  20.631  11.381
91803W        W64217  19.215  38.348   3.831
91804W        W64218   2.299  40.354   2.280
91805W        W64219  36.504  44.352  13.470
91806W        W64220   9.373   1.464  11.573
91807W        W64221  39.953   7.891  11.606
91808W        W64222  30.076  16.605  13.861
91809W        W64223  22.508  24.143  11.486
91810W        W64224  10.297   3.283  11.491
91811W        W64225  14.318  27.101  14.949
91812W        W64226   2.904  31.412  14.868
91813W        W64227  24.590  44.415   5.216
91814W        W64228  37.531  12.625   3.353
91815W        W64229  14.701  37.451   0.361
91816W        W64230   4.432  36.903  12.938
91817W        W64231  42.828  16.793   3.799
91818W        W64232  38.060  44.325   3.663
91819W        W64233  40.801  27.191   4.766
91820W        W64234  21.678  40.418  12.342
91821W        W64235  18.224  29.538  14.987
91822W        W64236  33.538   8.742  10.125
91823W        W64237  43.408  29.059   3.181
91824W        W64238  12.830  17.178   2.209
91825W        W64239   9.225  39.877   0.454
91826W        W64240  32.403  20.713   3.703
91827W        W64241  28.022  32.975   4.179
91828W        W64242  28.161  29.141   1.346
91829W        W64243   5.406  18.101   2.350
91830W        W64244  24.986  35.032   1.401
91831W        W64245   2.332  11.676  13.818
91832W        W64246   7.185  32.109   1.344
91833W        W64247  44.459  44.859   3.709
91834W        W64248  36.026   7.297   3.688
91835W        W64249  27.665  24.524  12.865
91836W        W64250   0.439  13.294   3.668
91837W        W64251  13.105  31.080   2.674
91838W        W64252  40.484  19.634   1.857
91839W        W64253  23.239  22.142   2.880
91840W        W64254  40.433  33.568   1.246
91841W        W64255   8.242  14.599  12.891
91842W        W64256  32.531  17.138  14.014
91843W        W64257  41.465  38.880   0.776
91844W        W64258  34.574  37.851  11.013
91845W        W64259  27.660  41.907   0.417
91846W        W64260  33.909  10.247   4.763
91847W        W64261  18.195  40.454   1.266
91848W        W64262   4.231   5.312   1.805
91849W        W64263   6.247  20.164   1.270
91850W        W64264  10.214  32.889   1.907
91851W        W64265  26.649  31.008   0.815
91852W        W64266  37.535  10.210  10.068
91853W        W64267  12.723  33.556  12.827
91854W        W64268   3.325   3.459   4.653
91855W        W64269  27.132  29.644  14.894
91856W        W64270  41.447  27.581   2.863
91857W        W64271   8.800   4.788  12.415
91858W        W64272  12.614  37.969   3.677
91859W        W64273  30.131  13.239  14.449
91860W        W64274   2.825  37.362  14.955
91861W        W64275  30.046  17.105   3.221
91862W        W64276  41.803  10.878   2.678
91863W        W64277   9.362  14.635   2.713
91864W        W64278  27.122  32.495   3.355
91865W        W64279   8.163  37.952  13.797
91866W        W64280  14.223   8.851  14.338
91867W        W64281  32.619  23.681   3.814
91868W        W64282   4.919  24.989  14.458
91869W        W64283  26.126  40.363   2.839
91870W        W64284  12.153  29.077   4.706
91871W        W64285  13.716   4.424  11.390
91872W        W64286  16.160  15.307  13.041
91873W        W64287  11.733  25.475   3.342
91874W        W64288  21.662  21.707   4.658
91875W        W64289  16.243   3.892   1.820
91876W        W64290  26.581   9.384  10.934
91877W        W64291  13.284  17.769  10.115
91878W        W64292  29.012  31.475  11.095
91879W        W64293  42.503  38.438   4.127
91880W        W64294   5.350  27.665  12.380
91881W        W64295  38.500  18.128  11.048
91882W        W64296  15.593   1.757   4.350
91883W        W64297  12.785   8.843   0.428
91884W        W64298  32.559  11.132   1.720
91885W        W64299  10.876  31.453  11.123
91886W        W64300   5.854  33.996  11.582
91887W        W64301  30.954  35.856  10.635
91888W        W64302  33.084  27.512  13.428
91889W        W64303  14.625  41.366  10.403
91890W        W64304  36.871  20.665  11.971
91891W        W64305  22.608  16.724  14.785
91892W        W64306  12.836  26.663  12.472
91893W        W64307  13.607   3.405   2.342
91894W        W64308  12.650   9.832   4.192
91895W        W64309  27.533   1.821  12.937
91896W        W64310  32.435  27.449  10.584
91897W        W64311  20.677   4.723   1.849
91898W        W64312  37.519   2.768  10.952
91899W        W64313  28.473  23.678   4.762
91900W        W64314  18.594  44.839  11.002
91901W        W64315  38.882  10.780  14.941
91902W        W64316  18.570  43.439   4.682
91903W        W64317  24.094  41.306  11.498
91904W        W64318  12.353   2.757   4.624
91905W        W64319  23.524  30.598  11.952
91906W        W64320  15.110  16.243   1.725
91907W        W64321  22.008  29.027  14.314
91908W        W64322  11.643  21.688  14.423
91909W        W64323   0.970  25.036   3.747
91910W        W64324   5.408  12.714   1.215
91911W        W64325  14.815  32.919   1.306
91912W        W64326   2.835  28.597  11.871
91913W        W64327  34.942  32.435  12.935
91914W        W64328  14.668  36.503  10.892
91915W        W64329   0.781  25.665   2.792
91916W        W64330   9.829   7.770  14.880
91917W        W64331   0.943  12.794  10.060
91918W        W64332  12.835  11.169  12.424
91919W        W64333   5.249   1.477  14.325
91920W        W64334  17.688  34.069  14.496
91921W        W64335   5.398  31.467   1.428
91922W        W64336  30.598  43.409   3.798
91923W        W64337  17.787   1.793  11.004
91924W        W64338  11.266   9.720  10.495
91925W        W64339  27.076   1.875   2.790
91926W        W64340  19.632  38.949   4.606
91927W        W64341  24.996  34.583   0.854
91928W        W64342  42.428   3.799  10.613
91929W        W64343  32.968   7.197   2.824
91930W        W64344  38.533  24.713   0.339
91931W        W64345  16.729  42.839   2.189
91932W        W64346  21.115  42.925   3.361
91933W        W64347  39.029  21.722   1.421
91934W        W64348  15.585  29.637   3.763
91935W        W64349  37.843  12.705  13.489
91936W        W64350  15.592   9.269   0.340
91937W        W64351  39.886  20.168   4.757
91938W        W64352  28.934  27.473   3.847
91939W        W64353   5.795  39.440  13.462
91940W        W64354  25.565  37.545   4.780
91941W        W64355  34.485  42.857  11.516
91942W        W64356   1.473  30.093   3.250
91943W        W64357  18.735   9.172  11.401
91944W        W64358  27.498   5.916   0.820
91945W        W64359  42.363  36.380   3.332
91946W        W64360   6.367  43.304  10.643
91947W        W64361  43.876  28.497  14.810
91948W        W64362  35.040  21.633   4.354
91949W        W64363  32.430   4.873  14.460
91950W        W64364  38.020  25.697   4.809
91951W        W64365  35.868  10.207  10.894
91952W        W64366  23.727  38.541  14.968
91953W        W64367  24.725  27.002   3.770
91954W        W64368  25.158   7.707  12.983
91955W        W64369   9.826  27.530  12.855
91956W        W64370  39.923   2.794  11.518
91957W        W64371   6.235   7.797  10.507
91958W        W64372  34.530   3.324   2.831
91959W        W64373  27.116  41.987   4.335
91960W        W64374  16.581  20.191  14.343
91961W        W64375  22.032  38.058  12.987
91962W        W64376  19.085   3.313   3.676
91963W        W64377  42.331   9.220   0.915
91964W        W64378  19.170  20.657   4.225
91965W        W64379  21.661  43.792   3.182
91966W        W64380   5.794   7.369   1.880
91967W        W64381   7.826  41.995   3.643
91968W        W64382  44.802  20.664  14.815
91969W        W64383  36.356   0.489  13.828
91970W        W64384  21.167  11.340   0.412
91971W        W64385  31.539  34.421  12.901
91972W        W64386  32.888  24.582  14.768
91973W        W64387  38.846   6.282  13.859
91974W        W64388  26.499  23.557   2.749
91975W        W64389  19.577  35.861  11.434
91976W        W64390  15.816   8.167  12.898
91977W        W64391  27.956   0.918   3.860
91978W        W64392  14.281  28.002   4.720
91979W        W64393   5.832   9.786   4.350
91980W        W64394  41.956  21.742  11.488
91981W        W64395  32.532  13.128   1.265
91982W        W64396  20.694  10.789  14.862
91983W        W64397  15.775   9.152  10.927
91984W        W64398  33.047  24.128   3.166
91985W        W64399  34.953  30.007  14.439
91986W        W64400   9.726  13.839  11.062
91987W        W64401  23.572  24.582   1.792
91988W        W64402   9.155  34.891   3.317
91989W        W64403  23.540  18.618   2.716
91990W        W64404   2.291  41.424  12.834
91991W        W64405  43.972  23.502   0.902
91992W        W64406   5.891  38.413  13.365
91993W        W64407  13.770  31.438  10.509
91994W        W64408  22.630  26.071  14.896
91995W        W64409   1.403   1.732   4.131
91996W        W64410  25.125  12.148   0.967
91997W        W64411  28.015  13.705  13.928
91998W        W64412  23.146  31.006  10.948
91999W        W64413   8.212  22.076   2.780
92000W        W64414   6.254  31.464   0.891
92001W        W64415  29.089  35.595   1.716
92002W        W64416  13.279  21.703   2.885
92003W        W64417  38.439  15.809  14.355
92004W        W64418   7.785  22.545  10.469
92005W        W64419   6.239  29.514   5.089
92006W        W64420  34.600  23.115  11.070
92007W        W64421  15.808  16.171  14.388
92008W        W64422  26.550  35.455  13.316
92009W        W64423  18.588  14.262   2.788
92010W        W64424  20.574  18.188  11.911
92011W        W64425  25.632  11.721  11.108
92012W        W64426  33.384  41.396   2.305
92013W        W64427  31.099  24.617   3.339
92014W        W64428  22.718  16.666  10.448
92015W        W64429  21.212  21.526  12.878
92016W        W64430  41.484  18.255  14.807
92017W        W64431  15.087  22.006  14.915
92018W        W64432  31.139  32.022   2.819
92019W        W64433  11.152   1.355  11.896
92020W        W64434  41.447   5.845  10.461
92021W        W64435  31.084   6.198  13.500
92022W        W64436   7.822  40.030   0.870
92023W        W64437  17.560  11.340   0.882
92024W        W64438  17.206   3.229  13.819
92025W        W64439  21.534  44.302  13.941
92026W        W64440   3.954  23.578  10.568
92027W        W64441  22.204  43.321  14.894
92028W        W64442  31.430  44.262   1.740
92029W        W64443  38.884  25.013   4.649
92030W        W64444  32.070  44.480   3.165
92031W        W64445  32.493  33.104   0.247
92032W        W64446   3.952  35.431  12.022
92033W        W64447  43.346  22.716   3.219
92034W        W64448  20.229  17.073   1.406
92035W        W64449  28.984  28.669  14.397
92036W        W64450  37.380  43.330  13.898
92037W        W64451   0.885  17.717   4.612
92038W        W64452  13.105  10.212   0.455
92039W        W64453  37.867  35.984  11.579
92040W        W64454   7.368  25.204  10.480
92041W        W64455  39.884   6.208  11.569
92042W        W64456   4.373  43.429   5.775
92043W        W64457  15.721  24.106   0.759
92044W        W64458   9.791  30.077   3.280
92045W        W64459   3.412   9.737  11.612
92046W        W64460   2.289  38.467   1.933
92047W        W64461  13.117  44.813   2.834
92048W        W64462  16.292   2.415   2.701
92049W        W64463  43.864  26.096  12.512
92050W        W64464  12.221  35.542   3.843
92051W        W64465   4.875  41.812   1.865
92052W        W64466  19.660  22.514  14.379
92053W        W64467   4.396  37.982  14.914
92054W        W64468   8.859   3.305   3.151
92055W        W64469  20.065   2.797  13.935
92056W        W64470  20.043  27.980   4.261
92057W        W64471  21.110  32.120   1.841
92058W        W64472  27.471   9.250   3.759
92059W        W64473   1.263  17.248   1.805
92060W        W64474  44.853   1.862   3.223
92061W        W64475  34.923  31.038   3.259
92062W        W64476  35.015  29.025  12.984
92063W        W64477  21.603  24.223   4.636
92064W        W64478  37.895   0.297  14.759
92065W        W64479   7.848  44.378   0.962
92066W        W64480  36.498  10.208  10.050
92067W        W64481  14.317   8.367   9.667
92068W        W64482  11.136  27.493  14.788
92069W        W64483  28.079  29.663   1.906
92070W        W64484  21.246  42.451  14.824
92071W        W64485  27.679  21.612   4.207
92072W        W64486  29.462  30.044   2.816
92073W        W64487  31.129  30.451  12.468
92074W        W64488   6.257   1.317   2.762
92075W        W64489  38.926  36.498  11.065
92076W        W64490  20.674   7.687  13.496
92077W        W64491  43.302  10.367  12.470
92078W        W64492  25.662  20.528   1.813
92079W        W64493  42.307  13.745   4.334
92080W        W64494  29.451  11.131   0.730
92081W        W64495  43.275   6.839   4.180
92082W        W64496  42.301  23.210  12.846
92083W        W64497  31.988  12.615   1.801
92084W        W64498  43.330  21.203   3.788
92085W        W64499   4.834  37.566  14.318
92086W        W64500  20.062  35.551  14.844
92087W        W64501   2.784  35.095  11.035
92088W        W64502  35.553  17.127  13.015
92089W        W64503  22.697   1.838   2.360
92090W        W64504   3.851  29.025   1.934
92091W        W64505  20.733   5.848  12.565
92092W        W64506  32.523  27.668   0.248
92093W        W64507  26.611   6.202  13.992
92094W        W64508  31.048  28.121   3.756
92095W        W64509   8.681  43.996   1.841
92096W        W64510  37.487  25.700  11.035
92097W        W64511  14.794   5.781  11.410
92098W        W64512   1.413  43.372  14.352
92099W        W64513  28.647  21.094   0.961
92100W        W64514  13.153  27.108  12.511
92101W        W64515  16.781  13.147   0.321
92102W        W64516  33.874  25.561  13.792
92103W        W64517   1.773   9.677   0.910
92104W        W64518  13.807  31.470   0.444
92105W        W64519   8.237  33.451  10.598
92106W        W64520  18.712  11.238  10.957
92107W        W64521   2.398  27.962   3.826
92108W        W64522  27.107   2.771   1.280
92109W        W64523  30.990  16.228   0.406
92110W        W64524  38.477  29.542   3.323
92111W        W64525  26.670  37.877  14.365
92112W        W64526  24.707  43.295  10.437
92113W        W64527  31.599  38.956  12.541
92114W        W64528  29.088  17.728  12.558
92115W        W64529  40.863  24.623   2.824
92116W        W64530  42.815   1.758   0.254
92117W        W64531  18.631   6.759  14.927
92118W        W64532  13.843  17.695  14.878
92119W        W64533  25.035  23.108  11.426
92120W        W64534  43.482  15.197  14.886
92121W        W64535  39.520  12.713   1.781
92122W        W64536  35.050  18.262  13.335
92123W        W64537  10.215   8.186  10.639
92124W        W64538  30.644  40.529   2.702
92125W        W64539  36.553  13.149  11.555
92126W        W64540  15.718  21.194  11.953
92127W        W64541  37.402  44.754   1.363
92128W        W64542  36.074  36.848  13.919
92129W        W64543  16.609  31.050   4.730
92130W        W64544  16.164  11.289   0.254
92131W        W64545  30.468  10.789   1.315
92132W        W64546  33.072  31.412   0.480
92133W        W64547  23.003   1.804  10.515
92134W        W64548  23.212   7.238   3.798
92135W        W64549  14.601  33.601   1.370
92136W        W64550  42.009  40.992   2.697
92137W        W64551  20.056   7.850   3.836
92138W        W64552  24.710   8.853  10.925
92139W        W64553  26.508  23.657  14.422
92140W        W64554  25.010   5.801   2.804
92141W        W64555  21.661  16.142  13.043
92142W        W64556  37.986  14.295   3.233
92143W        W64557  27.990   9.336   5.192
92144W        W64558  25.112   7.387  10.962
92145W        W64559  19.578  43.772   2.365
92146W        W64560  26.524   6.393  13.497
92147W        W64561  26.090   7.185  13.323
92148W        W64562   0.858  39.376  13.385
92149W        W64563  41.947   1.774   5.210
92150W        W64564  23.530  10.190   4.164
92151W        W64565  30.562   2.848   4.248
92152W        W64566  11.709  13.804   4.247
92153W        W64567  41.463   5.202  14.026
92154W        W64568   5.266  27.151  10.078
92155W        W64569  16.656  21.103   3.838
92156W        W64570  30.916   7.175   4.193
92157W        W64571   4.789  27.186  13.828
92158W        W64572  20.268  41.401   0.805
92159W        W64573  31.019  36.848   3.800
92160W        W64574  27.091  10.206   0.410
92161W        W64575  17.739  10.143  10.480
92162W        W64576  36.586   4.737   4.343
92163W        W64577   9.882  21.623   3.184
92164W        W64578  11.182  40.426   1.448
92165W        W64579   7.755  33.075  11.408
92166W        W64580  35.055  41.033  11.075
92167W        W64581  37.968  14.701  13.975
92168W        W64582   8.184   8.724   4.285
92169W        W64583  35.002  41.484  11.964
92170W        W64584  11.262  42.790  12.868
92171W        W64585  11.236  19.065   1.238
92172W        W64586  17.154  20.194  13.343
92173W        W64587  20.144  25.121  10.001
92174W        W64588   2.828  23.021   4.764
92175W        W64589  19.205  29.589  11.982
92176W        W64590  39.025  15.781  10.940
92177W        W64591  37.910  12.354   1.707
92178W        W64592   6.284  44.469  11.465
92179W        W64593  37.362   7.757   3.704
92180W        W64594  43.996   1.454   2.751
92181W        W64595  40.370  34.497   2.403
92182W        W64596  24.501  25.481   3.245
92183W        W64597  26.095  16.174   2.248
92184W        W64598  12.618  14.738  13.520
92185W        W64599  15.206   8.809  13.455
92186W        W64600   3.397   5.386   0.757
92187W        W64601  43.434  40.382  12.457
92188W        W64602  26.964  24.135  10.629
92189W        W64603  10.792  39.830  11.578
92190W        W64604  10.352  22.562   3.354
92191W        W64605   9.731  22.141   0.406
92192W        W64606  12.150  31.147   4.691
92193W        W64607  40.372  13.632  13.877
92194W        W64608   8.766   6.290  11.089
92195W        W64609  38.420  23.567   1.228
92196W        W64610   0.868  24.028  12.485
92197W        W64611  17.615  44.837  11.548
92198W        W64612  32.081  23.031  13.479
92199W        W64613  44.988  39.027  13.025
92200W        W64614  35.602   0.450   0.404
92201W        W64615  34.485  44.008  12.432
92202W        W64616  41.038  36.883  12.448
92203W        W64617  32.603  39.034   0.450
92204W        W64618  34.005  23.048   0.431
92205W        W64619   6.338  31.004   0.246
92206W        W64620  26.631  12.296  13.548
92207W        W64621  44.328  32.919  11.913
92208W        W64622   7.813  34.375  13.358
92209W        W64623  41.324  29.527   3.385
92210W        W64624   7.823   1.410   0.925
92211W        W64625  14.588  22.693  14.300
92212W        W64626  16.317  41.481  11.899
92213W        W64627  36.863   4.425  10.955
92214W        W64628  30.504  35.978   2.751
92215W        W64629  26.680   3.949   4.606
92216W        W64630  30.588  33.004   2.350
92217W        W64631  28.009  22.501   2.870
92218W        W64632  11.250   5.220  10.933
92219W        W64633  30.529  21.137   2.688
92220W        W64634  38.329  30.000   2.340
92221W        W64635  27.078  13.664  13.514
92222W        W64636  33.567  38.402   1.715
92223W        W64637  32.044   3.939   2.671
92224W        W64638  43.827  37.915  12.482
92225W        W64639  29.578   8.706   1.703
92226W        W64640  41.020   6.396  12.912
92227W        W64641   5.300  36.428  13.529
92228W        W64642  23.622  15.187   1.930
92229W        W64643  20.732  21.583  10.496
92230W        W64644  11.654  29.023  13.918
92231W        W64645  16.740  12.847   1.243
92232W        W64646   7.689  39.029   1.740
92233W        W64647  41.951  35.903  11.606
92234W        W64648  35.533  28.079   2.360
92235W        W64649   6.409  18.746   3.372
92236W        W64650  10.711  40.017  14.899
92237W        W64651  19.194  30.022   1.780
92238W        W64652  39.951  35.063  12.531
92239W        W64653   6.236  19.196  11.922
92240W        W64654   4.427   4.740  13.357
92241W        W64655  18.171  44.484   4.676
92242W        W64656   9.790  34.120  10.896
92243W        W64657  41.527  28.974  12.929
92244W        W64658   9.776  23.130   4.603
92245W        W64659  19.214  36.499   2.671
92246W        W64660  35.966  14.106   5.270
92247W        W64661  34.967  13.636   2.357
92248W        W64662  15.229  13.752  13.438
92249W        W64663  31.408  23.173   4.247
92250W        W64664  26.678  31.087   1.887
92251W        W64665  28.109  21.552   0.312
92252W        W64666  29.123   1.392   0.319
92253W        W64667  27.607  27.502   4.727
92254W        W64668   9.833   8.720   0.434
92255W        W64669  41.841  22.242  14.907
92256W        W64670  11.675  24.205   2.194
92257W        W64671  44.861  35.379   4.170
92258W        W64672   5.913  23.524   0.782
92259W        W64673  30.047  23.554   0.305
92260W        W64674  10.170  19.094  13.318
92261W        W64675  17.158  11.206  10.480
92262W        W64676  26.108  11.727   0.886
92263W        W64677   3.775  44.793  12.547
92264W        W64678  38.010  18.213   0.784
92265W        W64679  29.061  36.545   3.261
92266W        W64680  26.026  16.792  10.981
92267W        W64681  13.787  18.268   2.817
92268W        W64682  21.054  33.930  13.314
92269W        W64683  25.618  24.574  12.402
92270W        W64684   8.313  13.308  12.830
92271W        W64685  25.661   6.888   3.727
92272W        W64686  40.847  41.480   4.823
92273W        W64687  44.413   7.396  14.844
92274W        W64688  42.485   1.348  13.989
92275W        W64689  26.088  13.267   0.933
92276W        W64690  44.490  19.258   0.387
92277W        W64691  25.499  22.638  12.352
92278W        W64692  33.581  10.670   1.882
92279W        W64693  10.661  34.957  13.038
92280W        W64694  39.998  11.134  10.511
92281W        W64695  12.134   3.271  14.368
92282W        W64696   2.799  25.198   3.246
92283W        W64697  26.003  11.249  13.922
92284W        W64698  17.147  21.038  14.988
92285W        W64699  15.642   4.328  14.806
92286W        W64700  34.877  38.546  14.018
92287W        W64701  21.264  29.431  11.912
92288W        W64702  41.871  36.917   2.179
92289W        W64703  39.987  43.373  12.970
92290W        W64704  32.430   2.833  13.927
92291W        W64705  16.715  37.078  12.573
92292W        W64706  11.753  44.378  10.891
92293W        W64707  14.605  30.585   0.873
92294W        W64708  13.301  42.353  13.326
92295W        W64709  29.130  40.865   0.377
92296W        W64710  44.389  25.499  11.414
92297W        W64711  27.581   3.353  11.998
92298W        W64712  24.491  10.872  14.367
92299W        W64713  43.295   2.921   3.773
92300W        W64714  17.194  10.379  13.803
92301W        W64715  20.220  34.085   4.184
92302W        W64716  19.145  13.150  14.031
92303W        W64717  19.199  30.423  13.852
92304W        W64718  26.168  44.006   4.197
92305W        W64719  16.626  38.905  10.104
92306W        W64720   7.404  12.284  12.020
92307W        W64721  28.945  26.959  12.092
92308W        W64722  31.059   4.294   4.756
92309W        W64723  41.499  33.461   1.909
92310W        W64724   3.890  39.386   0.729
92311W        W64725  38.003  41.365   4.146
92312W        W64726  34.370  30.642  14.916
92313W        W64727  37.911  34.394   0.911
92314W        W64728  38.998   3.842  10.520
92315W        W64729  27.575  35.594   0.340
92316W        W64730  27.492   2.772  11.917
92317W        W64731  33.558  33.598   2.778
92318W        W64732   7.176  26.536   1.793
92319W        W64733  10.744  35.550  12.971
92320W        W64734  25.054  40.525  14.366
92321W        W64735  31.972   7.858  13.352
92322W        W64736  32.480  26.966   2.871
92323W        W64737  15.187  10.725  14.447
92324W        W64738  32.592  12.813   2.794
92325W        W64739  13.739  20.035   4.274
92326W        W64740  30.944   9.786   2.706
92327W        W64741  33.417  21.183  14.386
92328W        W64742   0.327  24.665   3.836
92329W        W64743  33.074  29.503  12.367
92330W        W64744  34.099  27.020   2.698
92331W        W64745   3.854  27.954  13.411
92332W        W64746  40.971  10.702  11.940
92333W        W64747   4.338  31.957   0.907
92334W        W64748  11.241  42.526   0.426
92335W        W64749  26.060  30.011   1.721
92336W        W64750  28.064  11.847  12.008
92337W        W64751   1.892  21.064   1.333
92338W        W64752   9.214  28.153   3.704
92339W        W64753  41.472   4.806  14.015
92340W        W64754  21.050  11.274   2.226
92341W        W64755  29.597   8.663   0.288
92342W        W64756   3.738  14.796   3.345
92343W        W64757  24.589  36.094   2.258
92344W        W64758  24.177  24.505   2.359
92345W        W64759   8.847   9.326   1.758
92346W        W64760   6.878  33.016   1.256
92347W        W64761  22.693  26.006   2.238
92348W        W64762   8.685  39.498  11.528
92349W        W64763  13.781  17.785   2.277
92350W        W64764   7.243  37.407  10.599
92351W        W64765  14.265  10.336  13.547
92352W        W64766  23.041  43.965   3.839
92353W        W64767  25.219   5.391  14.821
92354W        W64768  21.063  25.176  13.028
92355W        W64769   0.787   6.226   4.806
92356W        W64770   5.695  34.486  12.481
92357W        W64771  23.567  20.033   1.727
92358W        W64772  15.194  23.688  10.926
92359W        W64773   8.710   8.893   1.400
92360W        W64774  32.984  10.660  12.943
92361W        W64775  31.931  27.664   3.634
92362W        W64776   3.328  18.148  14.840
92363W        W64777  23.538  28.046   3.852
92364W        W64778  23.092  13.717  10.969
92365W        W64779  25.964  39.371   1.260
92366W        W64780   1.824  38.374   1.737
92367W        W64781  34.451  10.273   4.294
92368W        W64782   1.402  41.888  14.302
92369W        W64783  13.182  42.875  13.862
92370W        W64784  35.966  42.903  11.876
92371W        W64785  13.658  34.558   0.761
92372W        W64786  39.494  44.852  13.993
92373W        W64787  28.636   6.319   4.316
92374W        W64788  10.287  19.769  11.039
92375W        W64789   6.413  25.988   4.181
92376W        W64790  17.598  10.155   3.672
92377W        W64791  42.950  43.928   1.698
92378W        W64792   1.796   0.335  14.392
92379W        W64793  20.233  14.107   0.726
92380W        W64794  21.574  19.554  13.537
92381W        W64795  33.032   9.870   0.311
92382W        W64796  11.194   2.404  11.087
92383W        W64797  38.530   0.874   4.729
92384W        W64798  44.460  29.649  12.537
92385W        W64799  10.141  11.343  11.527
92386W        W64800  33.063  33.486  11.456
92387W        W64801  28.669  29.670  13.402
92388W        W64802   2.742   9.747  10.543
92389W        W64803   7.327   2.382  13.031
92390W        W64804  19.576  25.477   2.689
92391W        W64805   7.856  10.370   0.464
92392W        W64806  35.358  36.026   4.598
92393W        W64807  19.063  39.321  12.918
92394W        W64808   5.209  29.550  14.889
92395W        W64809  16.604   9.326  12.372
92396W        W64810  16.578  18.229   2.296
92397W        W64811  18.130  19.258  14.027
92398W        W64812  27.950  36.895   3.239
92399W        W64813   1.364  10.165  13.536
92400W        W64814   2.815   4.936   4.700
92401W        W64815  38.521  29.022  12.097
92402W        W64816   3.881   8.335   0.315
92403W        W64817   4.787  18.627   1.341
92404W        W64818   2.457  21.149  13.392
92405W        W64819   1.423  42.992  11.996
92406W        W64820  40.357  28.625   2.348
92407W        W64821  37.573  44.983   2.262
92408W        W64822   5.353  36.093  10.924
92409W        W64823  12.666   8.859   0.875
92410W        W64824  38.498   3.719   0.871
92411W        W64825  14.788  30.922   1.410
92412W        W64826   2.306  17.304  10.572
92413W        W64827  19.204  33.980  13.883
92414W        W64828  23.653  26.998  11.055
92415W        W64829  19.144  12.118  12.971
92416W        W64830  33.503  31.080   1.798
92417W        W64831  31.130  14.213  13.939
92418W        W64832  24.493  42.809  14.909
92419W        W64833  12.336  42.918  10.546
92420W        W64834  31.146  14.128   0.254
92421W        W64835  35.566   5.242   2.711
92422W        W64836   1.819  23.005   4.182
92423W        W64837   9.393  13.637  12.506
92424W        W64838  15.755   4.725   4.705
92425W        W64839  25.517  13.700   0.943
92426W        W64840   3.367   0.257   0.476
92427W        W64841  10.215  42.335   3.205
92428W        W64842  25.981  43.307   2.843
92429W        W64843  43.852  29.918   0.470
92430W        W64844  41.943  27.133   0.283
92431W        W64845  30.552  34.997  11.055
92432W        W64846   7.707  21.674   2.389
92433W        W64847  16.290  28.960   0.390
92434W        W64848   1.787  19.115   3.717
92435W        W64849   3.950  31.902   3.782
92436W        W64850  33.060  43.764   1.907
92437W        W64851  43.507   8.379   1.213
92438W        W64852  39.534  26.476   4.165
92439W        W64853  34.492  28.990   0.480
92440W        W64854  39.964   1.913   3.663
92441W        W64855  42.353   0.939  12.579
92442W        W64856   0.925   5.874  12.499
92443W        W64857  14.595  38.958  12.908
92444W        W64858  21.559  10.765   0.359
92445W        W64859  36.877  15.086  11.994
92446W        W64860  37.363  35.392   3.630
92447W        W64861  12.715  14.341  11.912
92448W        W64862   7.263  18.610   4.178
92449W        W64863  43.452  36.903   1.398
92450W        W64864  10.853  22.252   4.239
92451W        W64865  42.515  10.773  13.881
92452W        W64866  40.506  10.672  14.416
92453W        W64867  25.023  20.715   4.702
92454W        W64868  24.211  26.573  11.117
92455W        W64869  43.009   5.271   3.783
92456W        W64870  22.077  18.707  11.587
92457W        W64871  37.975  24.030   0.794
92458W        W64872  34.564  27.142   1.807
92459W        W64873   5.748   7.284  14.378
92460W        W64874   0.339  39.905  11.465
92461W        W64875  28.520  31.125  14.861
92462W        W64876  25.039  44.307   3.703
92463W        W64877  20.058   9.722  13.532
92464W        W64878  23.630  30.960  13.815
92465W        W64879  42.294  19.143   2.220
92466W        W64880  42.787   7.837   0.393
92467W        W64881  41.016  29.002  13.026
92468W        W64882   0.777  13.238  12.878
92469W        W64883  29.957  23.589   4.295
92470W        W64884  43.988  20.627   4.768
92471W        W64885  15.629  44.498   2.773
92472W        W64886  24.005  37.359   0.350
92473W        W64887  28.554  37.370  13.915
92474W        W64888  35.474  29.471   4.330
92475W        W64889  19.539  21.064   3.249
92476W        W64890   4.867  30.656   1.855
92477W        W64891  24.184   3.909   3.834
92478W        W64892  13.795  38.899   1.923
92479W        W64893  15.256  41.419  13.338
92480W        W64894  17.677  10.777  11.900
92481W        W64895  22.571   4.857   3.190
92482W        W64896  25.065  25.189  11.124
92483W        W64897  41.948   8.775   2.256
92484W        W64898  43.923  11.842  10.635
92485W        W64899  15.227  38.868  14.341
92486W        W64900  29.035   8.785   0.917
92487W        W64901   3.852  36.924  10.971
92488W        W64902  35.597  22.094  10.472
92489W        W64903  39.454  17.588  13.970
92490W        W64904  10.147   7.866  11.525
92491W        W64905  35.958  33.605  11.513
92492W        W64906  14.205  23.060  14.943
92493W        W64907  12.722  44.332   0.383
92494W        W64908   0.751  44.905   4.722
92495W        W64909   4.908  21.163   4.690
92496W        W64910  19.232  21.058   2.792
92497W        W64911   5.870  41.437   4.728
92498W        W64912  44.813  13.220  14.419
92499W        W64913   9.294  10.293   0.901
92500W        W64914  23.124   1.290   4.705
92501W        W64915  36.354  17.714   0.429
92502W        W64916  36.841  14.293  14.906
92503W        W64917  21.712  16.286  10.479
92504W        W64918   7.368  24.698  14.508
92505W        W64919  29.561  17.270   4.125
92506W        W64920   7.370   9.348   2.803
92507W        W64921  21.707   9.157   3.649
92508W        W64922   1.830  16.754  12.835
92509W        W64923  38.423  15.746  11.066
92510W        W64924   1.332   8.777   3.275
92511W        W64925  16.579   6.357   4.793
92512W        W64926  11.171  12.270  11.559
92513W        W64927  35.946  15.753   1.290
92514W        W64928  31.445   0.369  10.921
92515W        W64929   7.813   4.741  14.350
92516W        W64930  23.531   6.339  13.889
92517W        W64931  17.207  33.928  11.531
92518W        W64932  36.088   9.782   3.740
92519W        W64933  40.874  27.683   3.752
92520W        W64934  20.568  44.273   0.845
92521W        W64935  40.897  13.192   1.897
92522W        W64936  10.794   1.920  11.037
92523W        W64937  31.958  27.082  10.472
92524W        W64938  33.029  40.024  10.436
92525W        W64939   0.330  26.994   3.182
92526W        W64940  21.752  39.542  12.370
92527W        W64941   9.803  22.145  10.999
92528W        W64942  31.513  41.367   1.834
92529W        W64943  31.541   5.711  11.975
92530W        W64944  34.414  10.220   1.855
92531W        W64945  33.933   2.903   0.352
92532W        W64946  16.271   8.289   5.189
92533W        W64947  28.611  14.262  13.897
92534W        W64948  22.110  36.014  10.482
92535W        W64949   5.282  28.982  12.860
92536W        W64950  37.862  23.635  12.940
92537W        W64951  15.180  18.271  10.947
92538W        W64952  30.594  31.027   3.197
92539W        W64953   8.863  34.602   4.277
92540W        W64954  22.672   7.355   4.641
92541W        W64955   5.904  38.452  11.395
92542W        W64956  28.942  19.097   2.417
92543W        W64957  39.344  30.908  14.458
92544W        W64958  29.069  34.070  11.521
92545W        W64959  29.999  17.071   1.764
92546W        W64960  35.453  14.660   1.310
92547W        W64961  20.255  16.767   4.168
92548W        W64962  16.794  17.766  13.927
92549W        W64963  22.558  31.015   1.412
92550W        W64964  31.439   2.400   1.420
92551W        W64965   6.291  30.494  10.563
92552W        W64966   5.273  32.914  14.404
92553W        W64967  31.595   7.731  12.390
92554W        W64968  41.514  23.724   1.325
92555W        W64969  10.824  30.068   2.218
92556W        W64970  27.457   8.895   1.707
92557W        W64971  16.737  15.168  11.495
92558W        W64972  43.416  28.113  11.076
92559W        W64973  13.614  34.974  12.912
92560W        W64974  37.922   3.833   1.261
92561W        W64975  31.023  21.031  10.535
92562W        W64976  29.982   5.729  10.993
92563W        W64977   3.252  26.472   1.797
92564W        W64978  11.693  23.118   0.890
92565W        W64979   9.855  39.461  11.604
92566W        W64980  36.877  17.623  13.997
92567W        W64981  44.462   0.960  11.480
92568W        W64982   8.854   8.270   4.687
92569W        W64983  44.366  30.553   0.374
92570W        W64984  21.231  30.534   1.746
92571W        W64985   1.249  13.213   4.682
92572W        W64986   9.819  19.700   4.141
92573W        W64987  40.851  23.504  14.400
92574W        W64988   2.237  13.253   0.452
92575W        W64989  20.638   0.780   2.350
92576W        W64990  23.720  23.733  12.936
92577W        W64991   2.288  24.704   3.149
92578W        W64992  14.323  26.196   2.747
92579W        W64993   2.761   1.246  11.611
92580W        W64994  24.225  22.218  13.530
92581W        W64995  16.794  14.119  14.907
92582W        W64996   4.229  18.563  11.956
92583W        W64997  18.656  24.554  14.905
92584W        W64998   5.242  15.150  13.508
92585W        W64999  22.638  39.976  14.419
92586W        W65000   9.788  43.905   1.282
92587W        W65001  15.779  28.143   1.367
92588W        W65002  27.976  20.143  14.383
92589W        W65003  29.569  24.195   4.342
92590W        W65004  44.441  38.917  10.944
92591W        W65005   9.159  22.733  13.468
92592W        W65006  16.607  38.005   3.196
92593W        W65007  20.632  14.270   1.213
92594W        W65008  13.302  20.616   0.939
92595W        W65009  40.341  35.922  10.106
92596W        W65010  41.322  38.335  11.091
92597W        W65011  43.895   0.399   0.379
92598W        W65012  38.899  34.512  11.955
92599W        W65013  24.140  32.946   4.762
92600W        W65014  43.941  27.139   0.920
92601W        W65015  35.056   1.941  11.612
92602W        W65016  10.347  38.451   4.646
92603W        W65017  40.311  10.705   4.775
92604W        W65018   1.896  10.348   2.293
92605W        W65019  34.585  38.912   3.705
92606W        W65020  42.487  22.085   3.185
92607W        W65021   6.215   4.367  14.311
92608W        W65022  30.496  16.703   0.411
92609W        W65023  44.370  33.879  14.002
92610W        W65024  17.638   5.832  14.454
92611W        W65025   6.368   4.828  10.591
92612W        W65026  32.554   5.845   3.824
92613W        W65027  24.607  17.713  10.890
92614W        W65028   7.850  35.560  12.430
92615W        W65029  43.877   0.758   3.265
92616W        W65030  44.461  13.803  14.784
92617W        W65031   6.209   6.193   5.244
92618W        W65032  12.808  37.373   4.272
92619W        W65033   1.869  39.876  12.901
92620W        W65034  12.337  37.352   2.662
92621W        W65035  19.614  10.771   2.299
92622W        W65036  15.661   5.388   0.758
92623W        W65037  44.959  40.017   4.672
92624W        W65038  26.952  35.963  11.081
92625W        W65039  26.986  35.372   2.825
92626W        W65040  26.977  11.649   2.891
92627W        W65041  30.416  14.319   4.334
92628W        W65042   5.872  17.667  14.388
92629W        W65043  43.994   3.250   4.152
92630W        W65044  23.541  41.809   3.863
92631W        W65045  10.151  11.233  13.437
92632W        W65046  20.129  19.739  13.046
92633W        W65047  26.618  16.212   1.909
92634W        W65048  36.487  31.617   0.887
92635W        W65049   2.760   0.946  12.940
92636W        W65050  25.981  42.900  14.337
92637W        W65051  29.171  32.025   3.368
92638W        W65052  25.027  23.617   2.352
92639W        W65053  29.968  40.003   3.346
92640W        W65054  40.981   1.298  10.546
92641W        W65055  17.738   6.725  14.905
92642W        W65056   3.901  14.205   4.607
92643W        W65057  29.929  13.676   4.284
92644W        W65058  41.945  39.947   3.851
92645W        W65059  22.040   1.952  14.988
92646W        W65060   9.202   6.766  12.387
92647W        W65061  18.616  36.021  13.511
92648W        W65062  11.327  18.599  12.508
92649W        W65063  38.399  22.532   3.385
92650W        W65064   4.910  14.328  11.956
92651W        W65065  29.583  34.403   0.942
92652W        W65066  16.294  35.526   2.665
92653W        W65067  18.681  15.695  13.333
92654W        W65068  17.103  42.351  12.890
92655W        W65069  19.746  20.261  13.537
92656W        W65070  16.764  22.712   0.843
92657W        W65071  18.083  38.852   1.776
92658W        W65072  19.709   7.787   4.339
92659W        W65073  13.260   1.884  11.425
92660W        W65074  41.923   3.354   4.283
92661W        W65075  39.438  12.769  12.013
92662W        W65076  14.163   8.211   0.848
92663W        W65077  33.404  10.384  13.355
92664W        W65078   0.304  17.653   0.411
92665W        W65079  27.940  41.891   3.707
92666W        W65080  34.874  22.219  14.019
92667W        W65081  19.248  30.443  12.981
92668W        W65082   9.721  11.267  14.453
92669W        W65083  16.303  21.615   1.933
92670W        W65084   3.408  15.240  10.906
92671W        W65085  37.893  37.488   4.630
92672W        W65086  42.414  12.150  11.430
92673W        W65087   3.414  31.646   0.423
92674W        W65088  39.039  11.865  14.822
92675W        W65089  12.163  14.187   1.344
92676W        W65090  44.849   2.933   2.246
92677W        W65091  14.664  31.153   4.291
92678W        W65092  35.983  30.000  11.880
92679W        W65093  25.477  44.306  11.602
92680W        W65094   2.952  11.150   4.613
92681W        W65095   8.234  29.000   0.842
92682W        W65096  16.111   1.388   1.870
92683W        W65097  40.446  40.936   3.172
92684W        W65098   2.889  28.949   3.784
92685W        W65099   2.914  22.118  12.089
92686W        W65100   9.645   8.208   4.749
92687W        W65101  22.600  18.700   1.852
92688W        W65102  11.782  24.227   2.792
92689W        W65103  22.025  21.742   4.123
92690W        W65104  16.294  41.912   3.682
92691W        W65105  42.962   6.902  13.836
92692W        W65106  26.031   6.763  12.949
92693W        W65107  16.610  14.689   2.902
92694W        W65108  15.117  15.233  12.410
92695W        W65109  14.243   6.838   1.296
92696W        W65110   8.725  10.378  14.379
92697W        W65111   5.899   8.257  10.423
92698W        W65112  38.938   9.383   0.779
92699W        W65113   8.192  41.959   3.688
92700W        W65114   3.288  37.553   3.703
92701W        W65115  39.887   9.210  11.891
92702W        W65116  43.786  22.024   2.205
92703W        W65117  19.633  14.214   3.631
92704W        W65118   6.307  25.138   3.174
92705W        W65119  29.621  39.005   5.222
92706W        W65120  12.856  12.705   1.710
92707W        W65121  35.952  21.679   4.128
92708W        W65122  43.379  12.156   0.327
92709W        W65123   1.276  34.376  14.891
92710W        W65124   5.267  17.677  11.914
92711W        W65125   5.221  10.870   0.465
92712W        W65126  32.000  33.026  14.314
92713W        W65127  11.141  23.040   3.199
92714W        W65128  13.763  12.828   1.821
92715W        W65129  33.987   0.882  13.037
92716W        W65130  30.061  43.875   2.693
92717W        W65131  11.192  16.712   3.663
92718W        W65132  19.276   4.797  10.953
92719W        W65133  24.018  15.805   4.757
92720W        W65134  10.277  22.515  10.508
92721W        W65135  43.336  13.758   3.150
92722W        W65136  23.198  21.077   1.284
92723W        W65137  20.237  29.128   3.185
92724W        W65138  14.678  24.486   2.866
92725W        W65139  34.903  43.415   1.824
92726W        W65140  38.054  27.611  14.424
92727W        W65141   1.326  28.545   0.292
92728W        W65142  39.980  42.928  10.977
92729W        W65143   0.962  14.327   0.455
92730W        W65144   3.348  14.237   2.748
92731W        W65145  13.683  38.058   1.276
92732W        W65146  10.867  31.621   4.601
92733W        W65147  18.069  33.898  11.487
92734W        W65148  30.539  21.704  14.918
92735W        W65149   5.306  28.635   9.598
92736W        W65150  26.208  10.678   2.729
92737W        W65151  15.731  11.157  12.906
92738W        W65152  37.014  40.441   0.922
92739W        W65153   4.757   8.725   0.737
92740W        W65154   3.752  13.164   1.219
92741W        W65155  34.117  13.331  12.372
92742W        W65156  32.434  41.318   3.765
92743W        W65157  44.815  24.009   0.399
92744W        W65158   1.778  28.948   3.786
92745W        W65159  44.501  36.520  14.997
92746W        W65160  30.057  20.566   4.763
92747W        W65161  25.495  30.628  11.957
92748W        W65162   7.908  24.194  12.998
92749W        W65163  16.665  14.210   3.668
92750W        W65164  27.686  16.144   0.839
92751W        W65165  23.597  24.138   2.185
92752W        W65166  16.197  11.255  12.354
92753W        W65167  26.124   1.884  11.087
92754W        W65168   2.780  29.947  14.506
92755W        W65169  35.893  21.530   5.106
92756W        W65170   0.888  12.621   4.129
92757W        W65171   4.321  25.618   3.762
92758W        W65172  28.186  21.610   2.298
92759W        W65173   6.281  33.107  12.957
92760W        W65174  21.199   2.246  13.485
92761W        W65175  15.308  35.857  12.976
92762W        W65176   2.749  24.512   4.765
92763W        W65177  37.891   9.197   0.790
92764W        W65178  43.947  18.050   2.209
92765W        W65179   0.893  35.033   1.444
92766W        W65180  33.398  26.172   1.809
92767W        W65181  35.594  30.142   3.168
92768W        W65182  40.905  10.796  13.957
92769W        W65183  42.020  33.915   4.300
92770W        W65184  36.049  14.652  13.927
92771W        W65185  33.529   3.321  11.982
92772W        W65186  16.118  22.090  14.320
92773W        W65187   4.928   8.307  14.363
92774W        W65188   9.830  21.669  13.977
92775W        W65189  34.053   2.256  12.993
92776W        W65190  11.854  16.724   3.385
92777W        W65191  36.954  16.091   4.267
92778W        W65192  31.972  15.766   0.356
92779W        W65193   0.917  27.510   3.668
92780W        W65194  35.953  44.409   3.369
92781W        W65195  15.284   6.222  13.863
92782W        W65196  24.040  14.658   4.827
92783W        W65197  27.187  20.082  11.072
92784W        W65198   3.832  35.584   3.715
92785W        W65199   1.286  41.011   1.283
92786W        W65200   7.174  43.870   0.924
92787W        W65201  31.599  30.985   2.894
92788W        W65202   8.248  29.466   0.291
92789W        W65203  13.222  43.271  14.506
92790W        W65204  21.144   1.875   3.849
92791W        W65205  22.251  25.132   3.770
92792W        W65206  34.588  43.018   3.177
92793W        W65207   4.408  35.922  14.874
92794W        W65208  29.012  39.396  10.636
92795W        W65209  43.368   4.807   2.787
92796W        W65210  10.788  37.389   5.235
92797W        W65211  17.621   9.749   2.276
92798W        W65212  26.186  28.062   0.875
92799W        W65213  26.129   0.922  13.014
92800W        W65214  16.074   0.783   1.262
92801W        W65215  12.243  44.010   3.843
92802W        W65216  29.103  23.702   4.821
92803W        W65217   1.427  42.839  10.926
92804W        W65218  40.012   9.731  14.956
92805W        W65219  38.399   0.926   2.833
92806W        W65220  32.907   8.783   0.420
92807W        W65221  32.585  11.295  10.422
92808W        W65222  10.730   9.707  11.515
92809W        W65223   3.891  14.743  12.039
92810W        W65224   2.393  15.599  12.938
92811W        W65225   1.734  25.092  13.059
92812W        W65226  28.164  15.159   4.815
92813W        W65227  18.074  19.543   4.671
92814W        W65228  10.251  27.530   3.219
92815W        W65229  17.253  25.005  10.425
92816W        W65230  25.620  13.709   3.768
92817W        W65231  37.923  19.720   2.825
92818W        W65232  36.365  27.546  12.931
92819W        W65233  31.146  25.149   4.247
92820W        W65234  28.082  13.636   4.642
92821W        W65235  15.172   7.860   4.707
92822W        W65236  32.591   9.874   3.163
92823W        W65237  28.973  24.604  11.088
92824W        W65238  39.518  31.553  10.574
92825W        W65239  30.071  19.147  14.443
92826W        W65240  19.619   0.784  14.475
92827W        W65241  11.234  28.160  14.964
92828W        W65242  23.491  30.547   0.316
92829W        W65243  30.162  20.221   0.264
92830W        W65244  22.671  12.235   1.386
92831W        W65245  37.531  34.412   4.297
92832W        W65246  29.516  31.917   0.373
92833W        W65247  31.143   1.915   5.204
92834W        W65248  42.817   7.847   2.186
92835W        W65249  12.644  15.181   0.807
92836W        W65250   4.731   8.760   1.266
92837W        W65251  23.240  40.972   0.850
92838W        W65252   7.678  18.257   1.358
92839W        W65253   4.748  22.643  10.569
92840W        W65254  27.102  24.725  14.889
92841W        W65255   0.394  44.335   0.943
92842W        W65256  28.036   8.292  11.450
92843W        W65257   9.817  42.821   1.251
92844W        W65258  42.996  36.064  12.929
92845W        W65259  10.690  32.090   0.439
92846W        W65260   6.719  29.979   1.778
92847W        W65261  27.996   2.455   2.778
92848W        W65262  24.007   8.350   4.342
92849W        W65263  25.610  16.250  14.922
92850W        W65264  33.547  42.493  14.765
92851W        W65265  14.315  36.464  12.052
92852W        W65266  21.137  32.138   1.300
92853W        W65267  42.818  33.515   0.261
92854W        W65268  38.826   7.906  14.281
92855W        W65269  21.035  33.509   3.240
92856W        W65270  38.992  32.055  14.879
92857W        W65271   1.872  10.323   1.370
92858W        W65272  42.015  39.514  13.016
92859W        W65273  19.135  28.656   4.221
92860W        W65274  22.189  38.549  12.824
92861W        W65275   8.820  36.866   4.192
92862W        W65276  39.964  16.148  13.401
92863W        W65277  33.398  36.029  14.798
92864W        W65278  12.639  18.201   4.181
92865W        W65279  11.283  28.063   1.760
92866W        W65280  37.864  41.401   1.728
92867W        W65281  27.071   8.884  12.035
92868W        W65282  40.943  40.812   3.296
92869W        W65283  35.494  32.108  13.546
92870W        W65284  34.500  26.020  12.983
92871W        W65285  13.656  22.241   0.879
92872W        W65286  25.138  36.063   4.625
92873W        W65287  32.618  12.712  13.056
92874W        W65288  19.664  20.666   1.828
92875W        W65289  28.583  18.082  12.551
92876W        W65290   6.806   1.258  13.313
92877W        W65291   0.884  17.076  14.014
92878W        W65292  16.658  30.603  11.920
92879W        W65293  40.987  32.449   4.673
92880W        W65294  36.015  22.245  13.427
92881W        W65295   2.435  10.803  14.804
92882W        W65296   0.339  37.460   3.831
92883W        W65297  34.418   1.787  12.346
92884W        W65298  25.157   2.235  14.298
92885W        W65299  27.104   2.356  12.016
92886W        W65300   5.918  38.989   3.739
92887W        W65301  34.518  24.186  13.938
92888W        W65302  44.886  27.476   0.818
92889W        W65303  12.678  33.893  11.547
92890W        W65304   1.281   6.271  12.877
92891W        W65305  16.656  17.741   3.337
92892W        W65306   3.383  13.322  13.431
92893W        W65307  29.470   3.325   5.286
92894W        W65308  31.470  22.669  12.857
92895W        W65309  15.821  26.560  13.399
92896W        W65310   9.686   3.231   4.790
92897W        W65311  10.156   0.854  13.875
92898W        W65312  36.031  43.770   1.927
92899W        W65313  29.027  14.206   3.829
92900W        W65314  35.911   0.908   2.208
92901W        W65315  17.739  24.646  14.004
92902W        W65316   1.242  31.584  10.632
92903W        W65317  43.311  11.269   4.114
92904W        W65318  24.673  37.402  12.545
92905W        W65319   7.207  22.015   4.772
92906W        W65320  44.346  31.003  12.552
92907W        W65321  32.491  36.069   1.396
92908W        W65322   7.220  44.324  14.321
92909W        W65323  31.636  30.054  14.494
92910W        W65324   7.265  39.863   0.875
92911W        W65325  40.835   9.184  10.930
92912W        W65326  44.447   1.247  12.342
92913W        W65327  32.064  17.674   0.872
92914W        W65328  31.044  30.477  13.531
92915W        W65329   3.878  30.445  14.026
92916W        W65330   5.227  15.703   1.762
92917W        W65331  36.091  11.753  14.323
92918W        W65332  30.946  24.227  13.847
92919W        W65333  31.018  35.058  10.407
92920W        W65334  12.236  28.070  14.995
92921W        W65335  40.969  31.476  14.433
92922W        W65336   6.680  38.032   0.864
92923W        W65337  35.965  20.571  11.604
92924W        W65338  12.684  16.260  11.920
92925W        W65339  12.715  19.150   1.331
92926W        W65340   9.729  34.519   4.216
92927W        W65341   2.849  18.565   1.786
92928W        W65342  34.565   1.423  12.996
92929W        W65343  22.245  11.328   2.235
92930W        W65344  33.900  37.832  11.388
92931W        W65345  25.516  16.648  10.558
92932W        W65346  33.423  43.980  13.056
92933W        W65347  33.540  16.138   4.799
92934W        W65348  24.075  44.279  13.898
92935W        W65349  11.738  40.540  11.917
92936W        W65350  38.335  11.220  10.514
92937W        W65351   7.179   0.475   1.286
92938W        W65352  32.464   6.850   1.930
92939W        W65353   4.944  21.513   1.412
92940W        W65354  41.306  26.173   3.276
92941W        W65355   3.821  36.094  12.487
92942W        W65356  21.255   9.740   2.860
92943W        W65357   0.980  28.673  11.529
92944W        W65358  41.936   6.398  10.987
92945W        W65359  38.956  25.635  14.772
92946W        W65360  42.869  33.405  12.907
92947W        W65361  29.926   7.347   4.198
92948W        W65362   8.199   8.748   2.718
92949W        W65363   0.895   6.416   1.398
92950W        W65364  44.453  20.719   4.165
92951W        W65365  43.829  16.318  13.960
92952W        W65366   6.768   0.869  12.478
92953W        W65367   0.260  23.233  14.803
92954W        W65368  11.340  42.297  12.088
92955W        W65369  21.050  40.837   4.832
92956W        W65370  33.579  36.533  10.419
92957W        W65371   8.817   2.392  13.040
92958W        W65372  32.548  21.715  11.570
92959W        W65373  40.869   2.801   2.856
92960W        W65374  10.803  13.690   2.293
92961W        W65375  39.918  28.652  10.599
92962W        W65376  38.391  26.545  13.309
92963W        W65377  34.922  30.452   3.379
92964W        W65378  31.554  31.947  12.886
92965W        W65379   1.320  40.837   2.812
92966W        W65380  39.857  23.558   4.235
92967W        W65381  18.621  27.164  10.601
92968W        W65382  35.547  26.140  14.501
92969W        W65383  31.939  36.926   4.233
92970W        W65384  16.583  41.943  12.061
92971W        W65385  17.133   6.223   0.809
92972W        W65386  34.867  29.014   4.160
92973W        W65387   1.793  33.948   1.232
92974W        W65388   1.293   2.886  13.462
92975W        W65389  24.632   6.807  14.012
92976W        W65390   7.328  30.459   4.761
92977W        W65391  25.508  16.793   3.863
92978W        W65392  35.096   6.918  12.032
92979W        W65393  32.922  22.543  10.608
92980W        W65394  23.517  33.418   3.332
92981W        W65395   7.889  11.371  10.542
92982W        W65396  22.620  13.186  11.920
92983W        W65397  22.155  40.816   2.355
92984W        W65398   3.726  40.384   3.331
92985W        W65399  32.043  41.345  14.464
92986W        W65400  44.948  37.486   3.354
92987W        W65401  24.571   3.825  14.356
92988W        W65402  36.448  13.134   3.153
92989W        W65403   1.784  19.200   2.865
92990W        W65404  15.274  23.600   2.723
92991W        W65405  34.026  23.207   3.155
92992W        W65406  36.587  29.944  11.378
92993W        W65407  17.130  12.272   4.824
92994W        W65408  25.173  42.460  12.972
92995W        W65409  21.139   1.922  10.005
92996W        W65410  21.662  23.013  11.524
92997W        W65411  35.430  31.022   0.426
92998W        W65412   0.825  38.331   3.197
92999W        W65413  43.464  41.359  10.448
93000W        W65414  40.532   0.984   0.895
93001W        W65415  14.756   1.434   4.243
93002W        W65416  39.890  12.659   0.463
93003W        W65417   4.714  23.534   1.298
93004W        W65418  14.794   6.859   4.203
93005W        W65419  10.644   1.827  11.524
93006W        W65420  16.226  29.978  10.500
93007W        W65421  40.395  20.592   1.914
93008W        W65422   0.776  15.308  14.840
93009W        W65423  31.898  14.661  11.534
93010W        W65424  22.575  38.939   5.229
93011W        W65425  31.105  38.831   3.301
93012W        W65426  34.547  18.764  12.371
93013W        W65427  34.615  22.528   2.896
93014W        W65428  30.125  29.603  14.886
93015W        W65429  14.588  32.393   0.274
93016W        W65430  19.767  44.459  14.334
93017W        W65431  41.999  30.003  12.005
93018W        W65432  44.339  29.573   2.838
93019W        W65433   0.760  26.551   2.267
93020W        W65434  38.072  19.278  11.541
93021W        W65435   1.446   5.279  10.437
93022W        W65436   4.920  19.225  11.512
93023W        W65437   0.846  22.596  14.020
93024W        W65438  26.584  25.154  14.331
93025W        W65439  41.945   6.906  14.364
93026W        W65440   3.305  14.328  12.972
93027W        W65441  14.794   0.468  12.090
93028W        W65442   6.361  16.760  11.865
93029W        W65443  28.045   1.251  14.817
93030W        W65444  26.641  36.503  10.523
93031W        W65445   8.832  11.689   3.788
93032W        W65446  30.983  25.575   1.329
93033W        W65447   8.721   4.315  11.040
93034W        W65448  27.000   4.890   1.366
93035W        W65449  43.338  38.434  12.369
93036W        W65450  12.749  25.490  14.841
93037W        W65451  40.895  36.067  14.905
93038W        W65452   1.795  25.570   5.081
93039W        W65453  22.645  23.692  11.886
93040W        W65454   5.884   7.861  11.554
93041W        W65455  34.606   7.192   2.227
93042W        W65456  18.269  23.523  13.386
93043W        W65457   3.800   4.861  14.892
93044W        W65458  23.994  23.984   0.350
93045W        W65459  27.537  29.010   0.865
93046W        W65460  25.039  19.216  13.452
93047W        W65461   1.834  34.480   3.666
93048W        W65462  13.817   4.419  12.473
93049W        W65463  38.888  32.902  14.429
93050W        W65464  34.972  36.406  11.525
93051W        W65465  27.656   4.841   2.324
93052W        W65466   3.322   7.173   3.267
93053W        W65467  43.854  36.044  12.954
93054W        W65468  14.309  34.614  14.863
93055W        W65469   0.279  33.486   4.669
93056W        W65470  13.797  15.180  14.469
93057W        W65471  23.598  23.225   4.721
93058W        W65472  15.748  43.426  14.795
93059W        W65473  40.367  38.957  10.002
93060W        W65474   9.694   9.324  10.483
93061W        W65475  13.158  20.701   1.449
93062W        W65476  43.367   9.681  13.040
93063W        W65477  17.102  27.047   4.251
93064W        W65478  30.014  37.390  13.969
93065W        W65479  36.546  25.171   3.293
93066W        W65480  42.398  28.624  11.565
93067W        W65481  38.006   7.382  12.874
93068W        W65482  44.973  15.296   4.625
93069W        W65483  28.637   1.410   3.220
93070W        W65484  23.002  22.066   3.363
93071W        W65485  23.546   0.780  14.461
93072W        W65486  17.074  32.112  10.976
93073W        W65487  29.463  34.423  13.036
93074W        W65488   0.491  14.799   0.313
93075W        W65489  44.808  12.835  11.576
93076W        W65490  16.628  18.785   1.702
93077W        W65491  17.074   0.918   0.425
93078W        W65492  31.976  15.111  14.028
93079W        W65493  24.697  41.823   3.199
93080W        W65494  17.072  31.941  14.858
93081W        W65495  39.949  20.075  11.997
93082W        W65496  12.362  28.647   0.935
93083W        W65497  20.664  33.889  12.541
93084W        W65498   0.985  14.139  10.510
93085W        W65499  21.585   8.337   2.823
93086W        W65500  26.034  20.621  14.351
93087W        W65501  29.574  12.756   4.189
93088W        W65502  43.411  30.518  13.037
93089W        W65503  41.366   8.869   9.988
93090W        W65504  21.210  37.397   3.160
93091W        W65505  44.850  42.851  10.923
93092W        W65506  18.739  26.555  14.516
93093W        W65507  23.075  39.979   4.637
93094W        W65508  28.069  16.744  11.502
93095W        W65509   5.870  20.050   1.408
93096W        W65510  33.522  32.008   4.277
93097W        W65511   3.357  34.441  12.527
93098W        W65512  36.449   9.865  14.329
93099W        W65513  17.214   1.968   0.253
93100W        W65514  32.001   3.775  11.544
93101W        W65515  34.926  25.140  12.543
93102W        W65516  26.178  39.462   0.802
93103W        W65517  29.614   0.491   4.347
93104W        W65518  37.905   3.945   4.838
93105W        W65519  22.072   1.250   0.385
93106W        W65520   9.162  16.240  13.035
93107W        W65521  27.140   7.731  10.592
93108W        W65522  25.522  13.195  11.016
93109W        W65523   7.711   4.292  13.438
93110W        W65524   4.301  33.600  11.990
93111W        W65525  37.528  16.787   2.340
93112W        W65526   2.246  36.942  12.886
93113W        W65527  30.161  34.010  14.414
93114W        W65528  33.893  18.693  14.492
93115W        W65529  23.611   7.879  14.017
93116W        W65530  15.702   6.394   1.428
93117W        W65531   9.389   3.288   0.836
93118W        W65532   5.298  23.144   3.385
93119W        W65533  44.892  34.375   2.734
93120W        W65534   9.195   2.389  12.565
93121W        W65535  36.402  23.611   4.159
93122W        W65536  43.363  26.555   3.715
93123W        W65537  16.690  30.085   3.688
93124W        W65538  18.079  16.235  14.425
93125W        W65539   6.242   9.886  11.535
93126W        W65540   5.249  27.025  11.374
93127W        W65541  28.124   6.242  12.904
93128W        W65542  35.487  17.731   2.737
93129W        W65543  20.162   3.867  13.449
93130W        W65544  41.341  36.578  12.543
93131W        W65545   7.752  39.882  11.494
93132W        W65546  44.970  26.132   0.876
93133W        W65547  27.450   8.763   2.224
93134W        W65548   8.668  35.924  14.877
93135W        W65549  30.946  37.983   4.166
93136W        W65550  10.743  12.721   0.472
93137W        W65551  30.094  12.283  11.451
93138W        W65552  19.129   1.414   9.661
93139W        W65553  39.967   5.219  14.779
93140W        W65554  39.991  17.273   3.745
93141W        W65555  22.161  10.257  11.483
93142W        W65556   0.391  31.473   0.766
93143W        W65557  43.910   3.383   3.791
93144W        W65558  15.158   5.817   1.873
93145W        W65559  25.627  39.823   5.102
93146W        W65560  42.784   3.453  13.435
93147W        W65561  40.456  20.160  13.353
93148W        W65562  32.423  42.454   1.299
93149W        W65563  17.282  19.637  13.356
93150W        W65564  43.351  39.886  12.418
93151W        W65565  30.912  34.516   4.351
93152W        W65566  23.077  31.962  13.053
93153W        W65567  19.081  11.326  14.014
93154W        W65568   4.330   9.673   2.354
93155W        W65569  25.688   7.171   4.303
93156W        W65570  22.514  22.608  14.786
93157W        W65571  18.776  43.840   0.296
93158W        W65572  35.878   7.275   2.397
93159W        W65573  20.732  32.030   2.377
93160W        W65574  44.753  12.615  13.526
93161W        W65575  34.111  36.562   4.626
93162W        W65576  33.385  31.111  11.069
93163W        W65577  23.073  13.145   4.630
93164W        W65578  22.160  28.587  12.363
93165W        W65579  11.713  42.466   4.805
93166W        W65580  16.095  37.002   3.241
93167W        W65581  43.513  11.828  12.358
93168W        W65582  10.345   1.475   1.414
93169W        W65583   9.344   6.238  12.934
93170W        W65584  13.335  26.135   2.896
93171W        W65585  17.603  25.638   1.713
93172W        W65586   4.724  17.719   2.236
93173W        W65587  19.075  17.250   0.335
93174W        W65588  29.145  26.654   1.309
93175W        W65589  26.024  18.155   1.277
93176W        W65590   1.314   9.853   1.888
93177W        W65591  29.972  18.738   3.255
93178W        W65592   0.800   1.907  10.073
93179W        W65593  20.649  13.711   2.757
93180W        W65594  27.976   7.337  12.940
93181W        W65595  28.499  37.882  12.056
93182W        W65596   6.388  39.495  14.851
93183W        W65597   8.734  10.195  13.938
93184W        W65598  37.837   0.441  13.319
93185W        W65599  10.237   6.197   2.399
93186W        W65600  25.594   6.327   0.906
93187W        W65601  30.652  34.031  13.021
93188W        W65602  35.414  31.547  10.412
93189W        W65603  31.959  44.429  12.914
93190W        W65604  26.060  10.303  10.906
93191W        W65605  26.493   9.713  11.980
93192W        W65606  32.108  18.155  13.390
93193W        W65607  31.426  23.078  12.453
93194W        W65608  20.191  43.911   0.838
93195W        W65609   7.678   0.792  13.440
93196W        W65610   2.375  32.117   0.897
93197W        W65611  38.444  21.086  11.107
93198W        W65612  10.695  13.200  13.909
93199W        W65613   9.805   7.301   2.236
93200W        W65614  14.311   2.812   2.874
93201W        W65615  43.351  10.309   5.183
93202W        W65616   6.864  34.955  12.374
93203W        W65617  17.767  36.876   1.759
93204W        W65618  29.996  30.569  13.504
93205W        W65619  36.886  42.351  12.979
93206W        W65620   1.780  44.305  10.997
93207W        W65621  28.978  29.115  10.904
93208W        W65622   8.377  19.179  12.536
93209W        W65623  11.816  22.168  14.406
93210W        W65624  16.158  38.991  11.547
93211W        W65625  18.287  39.406   1.291
93212W        W65626   3.334  21.083   5.091
93213W        W65627  13.813   0.257   4.136
93214W        W65628  37.495  32.944   3.310
93215W        W65629  44.299   5.932  12.569
93216W        W65630   6.705   6.778  14.003
93217W        W65631  20.066  31.943   2.753
93218W        W65632  24.499  15.676  11.501
93219W        W65633  20.131  31.434   1.705
93220W        W65634  43.348   6.698  10.932
93221W        W65635  26.540   3.295   0.894
93222W        W65636  24.708   4.296  13.448
93223W        W65637   6.807  34.506  10.908
93224W        W65638  14.696  21.139   2.762
93225W        W65639   0.756  13.351  11.930
93226W        W65640  35.000  41.457   2.890
93227W        W65641  36.007  27.653  11.509
93228W        W65642  36.371  44.324  11.866
93229W        W65643   9.672  27.949   0.456
93230W        W65644  29.060  29.014   0.937
93231W        W65645  39.408  11.787  13.052
93232W        W65646  24.568  12.727  12.831
93233W        W65647   9.823  34.474   2.717
93234W        W65648  41.976  35.893   0.832
93235W        W65649   2.931  44.894   1.823
93236W        W65650   8.735  31.448  10.571
93237W        W65651  44.001  12.313  11.471
93238W        W65652  15.094  42.345   4.653
93239W        W65653  36.363   2.348  14.455
93240W        W65654  43.795  43.466  11.425
93241W        W65655  36.860   4.389   2.181
93242W        W65656   8.200  18.782  10.486
93243W        W65657  17.188  35.965   2.707
93244W        W65658  27.994  32.955  11.099
93245W        W65659  10.280   9.711  12.845
93246W        W65660  10.337  13.282  13.836
93247W        W65661  32.462  31.010  10.607
93248W        W65662  21.116  11.299  10.155
93249W        W65663   1.911  40.942  14.454
93250W        W65664  15.228  27.143  13.322
93251W        W65665  16.685  23.140   0.756
93252W        W65666  16.237  24.611   1.872
93253W        W65667  29.106  36.429  14.988
93254W        W65668  31.096  31.632  14.275
93255W        W65669  23.639  20.056  14.291
93256W        W65670  32.442   2.346  11.875
93257W        W65671  38.842  23.099  14.422
93258W        W65672  40.025   9.694  13.507
93259W        W65673  35.502  26.169   4.629
93260W        W65674  23.101  31.106   1.412
93261W        W65675  11.725  12.779  11.460
93262W        W65676  18.137  35.481  14.295
93263W        W65677  25.028  16.713  11.985
93264W        W65678   1.948   3.315  12.363
93265W        W65679  28.623   0.274   3.666
93266W        W65680  34.910   5.752   3.766
93267W        W65681  28.514  10.737  14.983
93268W        W65682  36.580   0.880   0.798
93269W        W65683  36.403  15.176  11.896
93270W        W65684   4.337   8.267  11.495
93271W        W65685  44.857  11.294   2.718
93272W        W65686   3.837   6.191   1.395
93273W        W65687  18.657  34.118   3.775
93274W        W65688  20.129  24.623  13.941
93275W        W65689   5.922  37.392   1.710
93276W        W65690  12.668  30.918   4.598
93277W        W65691  40.520  30.084   4.312
93278W        W65692  15.145  22.049  13.466
93279W        W65693  27.090  25.589  10.894
93280W        W65694  21.177  26.964   3.273
93281W        W65695  14.728  33.562  12.383
93282W        W65696  44.498  12.771  12.362
93283W        W65697   7.747  20.237   3.249
93284W        W65698  19.132  18.209  13.938
93285W        W65699  15.295   2.917  13.023
93286W        W65700  41.310  23.626  12.574
93287W        W65701  12.793  28.561   0.954
93288W        W65702   4.428  29.002  12.360
93289W        W65703  22.708  17.084  10.094
93290W        W65704  34.926  40.836  11.981
93291W        W65705  10.384  25.981  13.028
93292W        W65706   4.434  12.311  10.589
93293W        W65707  12.202   6.707  11.907
93294W        W65708  10.663  33.429   0.948
93295W        W65709  24.009  41.789  12.865
93296W        W65710  14.810   9.294   1.866
93297W        W65711  19.153   8.770  12.864
93298W        W65712   3.336  35.381  11.989
93299W        W65713   7.203  38.373  12.396
93300W        W65714  17.766   2.847   1.449
93301W        W65715  29.518  40.010   3.797
93302W        W65716   3.937   7.192  11.388
93303W        W65717  29.039  35.423  10.560
93304W        W65718  30.573  33.391  11.027
93305W        W65719  34.870  35.387   1.431
93306W        W65720  23.698  23.987   1.918
93307W        W65721  16.277  25.205   5.212
93308W        W65722   5.810   5.705   4.824
93309W        W65723  38.481  39.402   4.307
93310W        W65724  30.932  11.203   4.218
93311W        W65725  39.025  32.629   0.280
93312W        W65726  24.033  20.642  13.380
93313W        W65727   6.323  11.840   3.745
93314W        W65728  29.074  35.859  14.911
93315W        W65729  29.501  12.722   3.867
93316W        W65730  27.047  28.680   1.252
93317W        W65731  35.912   3.719   1.785
93318W        W65732   6.775  13.264   1.304
93319W        W65733  41.476  44.944  10.596
93320W        W65734   9.878  10.642   1.450
93321W        W65735   5.710  23.226   3.831
93322W        W65736   5.201  13.155   1.718
93323W        W65737  11.278  15.622  10.414
93324W        W65738   1.419  16.305   3.767
93325W        W65739  10.261  29.056  10.936
93326W        W65740  33.430   6.912  14.890
93327W        W65741  44.916   0.256   0.744
93328W        W65742  38.343  41.321  11.414
93329W        W65743   4.417  13.635   2.295
93330W        W65744  18.694  30.591  12.398
93331W        W65745  32.446  42.974  11.928
93332W        W65746  16.134  38.510  11.520
93333W        W65747  20.270  24.977  12.885
93334W        W65748  36.446   1.463   3.330
93335W        W65749  34.566  19.545  11.479
93336W        W65750  11.223  18.560   1.815
93337W        W65751  14.721  19.595   1.419
93338W        W65752  25.595  44.929  11.028
93339W        W65753  19.146  23.567  12.465
93340W        W65754   6.204  29.973   1.419
93341W        W65755   4.372  37.929  11.480
93342W        W65756  26.086  25.528   2.319
93343W        W65757  26.032   8.896   2.890
93344W        W65758  27.081  17.787   0.393
93345W        W65759  22.560  33.451  11.120
93346W        W65760   0.951  30.098   3.253
93347W        W65761  15.237  11.173  10.996
93348W        W65762  31.928  35.883   9.943
93349W        W65763  31.025   3.247  13.516
93350W        W65764  41.827  13.784  12.935
93351W        W65765   4.739  44.899  12.974
93352W        W65766  39.381  31.506   4.655
93353W        W65767  27.972  43.876   1.858
93354W        W65768  37.884  35.977   3.312
93355W        W65769  21.114  21.625   5.085
93356W        W65770  16.180   1.914   3.313
93357W        W65771  30.106  15.822   2.819
93358W        W65772  34.005   3.294   2.730
93359W        W65773   0.438  22.159  12.377
93360W        W65774  28.496  12.212   1.313
93361W        W65775  22.503  15.120   3.752
93362W        W65776   0.789   5.744   0.750
93363W        W65777  25.504   0.957   3.386
93364W        W65778   8.252  11.653  12.944
93365W        W65779  10.649  15.317   0.767
93366W        W65780  42.922  28.030  12.961
93367W        W65781  25.041  43.487   3.325
93368W        W65782   1.312   1.385  11.007
93369W        W65783  30.137  32.126  10.893
93370W        W65784  40.409  32.452  14.380
93371W        W65785  30.060   7.668  12.999
93372W        W65786  12.156  22.611  11.127
93373W        W65787   6.286  12.843  11.574
93374W        W65788   5.417   8.233   3.858
93375W        W65789   6.722  28.665   4.810
93376W        W65790  22.021   6.833   3.705
93377W        W65791  32.479  26.117   0.367
93378W        W65792  38.475  36.042   3.706
93379W        W65793  27.967   6.246  11.863
93380W        W65794  38.412  11.134   4.187
93381W        W65795  29.960  12.356  11.013
93382W        W65796   1.257  14.678   0.734
93383W        W65797  25.975  30.474   2.702
93384W        W65798  23.192   7.201  11.048
93385W        W65799   4.261  26.989  12.487
93386W        W65800   5.906  36.582  11.893
93387W        W65801  24.685  41.848   1.381
93388W        W65802  34.518  40.496   0.374
93389W        W65803   6.315   7.758  12.559
93390W        W65804  27.094   5.287  12.415
93391W        W65805  15.237   5.379  12.942
93392W        W65806  10.303  29.465   5.218
93393W        W65807  43.445  14.297  11.456
93394W        W65808  21.207  20.097  14.499
93395W        W65809  32.400   5.200   2.357
93396W        W65810  43.003  15.109   3.283
93397W        W65811  33.016  36.392  12.430
93398W        W65812  39.065   8.177   2.882
93399W        W65813   5.302   1.886  12.356
93400W        W65814  20.093  12.128   2.314
93401W        W65815   5.323  38.031  14.458
93402W        W65816  31.446   8.739   3.203
93403W        W65817   4.428  17.254   0.943
93404W        W65818  27.945  11.233  11.077
93405W        W65819  43.384  35.109  13.513
93406W        W65820   2.855  11.689   1.292
93407W        W65821   8.756  18.263  14.413
93408W        W65822  18.723  24.213   2.895
93409W        W65823  12.730  28.102  12.976
93410W        W65824  44.772  21.030   2.866
93411W        W65825  19.600   5.910   2.402
93412W        W65826  12.835  14.221   1.421
93413W        W65827  26.150  28.025   4.684
93414W        W65828  23.218  27.026   4.622
93415W        W65829  13.293   8.182  13.451
93416W        W65830  17.258  33.418  10.990
93417W        W65831  14.170  14.188  10.441
93418W        W65832  24.552   5.399  12.891
93419W        W65833  42.454  34.389  10.519
93420W        W65834  32.096  25.051   4.151
93421W        W65835  32.976  11.309   0.341
93422W        W65836  11.361   4.331   4.238
93423W        W65837  17.106  38.506  10.990
93424W        W65838  29.087   0.805   0.807
93425W        W65839  25.020  38.943   3.336
93426W        W65840  34.495  44.763   0.359
93427W        W65841   5.812   1.373   3.864
93428W        W65842  13.757  33.552  13.409
93429W        W65843  30.002  27.505   0.760
93430W        W65844   3.741  13.668   2.702
93431W        W65845  44.864  35.406   0.357
93432W        W65846  25.117   5.317  12.836
93433W        W65847  19.171   5.838  13.011
93434W        W65848  16.253  26.682  11.929
93435W        W65849  26.565   4.240   2.850
93436W        W65850  12.130   9.187   3.757
93437W        W65851  22.576  40.418  14.912
93438W        W65852   9.789  25.005  10.943
93439W        W65853  20.218  40.508  10.548
93440W        W65854  33.609  20.763  10.633
93441W        W65855   1.440  36.554   2.350
93442W        W65856  40.402  32.549   2.683
93443W        W65857  41.788  23.081   3.781
93444W        W65858  23.123  17.641   0.820
93445W        W65859  40.383  32.444  13.843
93446W        W65860  42.307  34.473  14.880
93447W        W65861  32.982   7.389   0.251
93448W        W65862  41.944   3.313   1.366
93449W        W65863  18.084  17.280  10.986
93450W        W65864   5.770   2.425  11.051
93451W        W65865   3.760  13.720  11.533
93452W        W65866  38.878  26.653  12.921
93453W        W65867  36.589   8.365  14.800
93454W        W65868  13.649  43.814   4.254
93455W        W65869  22.187  16.162   1.930
93456W        W65870  24.091   0.935   4.230
93457W        W65871  31.625   0.800  12.954
93458W        W65872  11.367  17.106   0.437
93459W        W65873  35.943  17.251  13.433
93460W        W65874  22.166  27.532  13.913
93461W        W65875  33.523  14.173  10.507
93462W        W65876  31.417  17.679  10.562
93463W        W65877  42.308  23.112  14.789
93464W        W65878   0.393  13.227   0.768
93465W        W65879  21.630   9.210  10.645
93466W        W65880  14.152  25.100  11.384
93467W        W65881   5.919   6.699   4.609
93468W        W65882  38.325  39.432   4.829
93469W        W65883  24.625  43.834  10.578
93470W        W65884  24.188  13.343  10.433
93471W        W65885   6.844  21.143  11.876
93472W        W65886  26.571  37.350   0.772
93473W        W65887  14.155  21.263   1.911
93474W        W65888   6.223  38.065  14.884
93475W        W65889  43.378  22.631   4.710
93476W        W65890  27.068   6.809  13.460
93477W        W65891  25.968  44.993   2.782
93478W        W65892  35.933   9.372  12.941
93479W        W65893  22.542   1.799   1.433
93480W        W65894  35.570  23.105  13.792
93481W        W65895  39.456  17.614   1.290
93482W        W65896  31.489  10.765  13.439
93483W        W65897  26.085  15.806  11.578
93484W        W65898  36.930   1.870  12.395
93485W        W65899  39.968  43.365   2.182
93486W        W65900  13.244  39.879  13.396
93487W        W65901  23.567   0.455   2.898
93488W        W65902  34.489  22.551  11.456
93489W        W65903  43.492  31.037   3.739
93490W        W65904  21.172  44.994  11.945
93491W        W65905  36.843  28.004  12.086
93492W        W65906  24.688  38.336   4.149
93493W        W65907  39.425  43.465   1.329
93494W        W65908   6.733  42.969  12.384
93495W        W65909  33.046   0.943   2.219
93496W        W65910  13.151  41.373   2.301
93497W        W65911  41.312   6.297  14.469
93498W        W65912  35.981  17.738  13.827
93499W        W65913  11.333  34.974   3.230
93500W        W65914   0.254  19.203  10.413
93501W        W65915  27.582  30.162   3.768
93502W        W65916   4.714  28.516  10.566
93503W        W65917   9.672  20.194   2.703
93504W        W65918  20.098  26.671  13.801
93505W        W65919  12.854  19.629  12.478
93506W        W65920  39.999  40.379  13.032
93507W        W65921  43.331   7.911   4.308
93508W        W65922  35.357   9.189  10.576
93509W        W65923  14.109  24.987  14.904
93510W        W65924  41.999  14.653  13.836
93511W        W65925  40.352  15.313   1.365
93512W        W65926   9.190   7.192   0.338
93513W        W65927   2.355   9.837  11.983
93514W        W65928  35.519   5.337   1.736
93515W        W65929  42.865  37.004  11.876
93516W        W65930   8.843  28.077   0.835
93517W        W65931   6.416  39.026   2.800
93518W        W65932  14.675  28.549  14.779
93519W        W65933  24.984   9.831   4.728
93520W        W65934  10.204  41.538  14.971
93521W        W65935  13.670  28.531  11.975
93522W        W65936  17.771  15.283   3.225
93523W        W65937   1.280  32.541  11.430
93524W        W65938  22.167  34.968  14.812
93525W        W65939  11.274  38.484  11.969
93526W        W65940  28.670   8.260  11.413
93527W        W65941  10.197  18.694  12.095
93528W        W65942  19.209   9.294  11.973
93529W        W65943  33.913  29.160   0.411
93530W        W65944  44.878  43.315   4.212
93531W        W65945  40.364  12.621  13.949
93532W        W65946   0.960  40.007  10.430
93533W        W65947  43.419  35.959  12.464
93534W        W65948  26.677  30.971   3.167
93535W        W65949  22.561  27.090  12.933
93536W        W65950   7.361  34.583  12.904
93537W        W65951  40.038  36.443   2.680
93538W        W65952  44.351  44.807  10.551
93539W        W65953  22.079   2.820   0.405
93540W        W65954   4.870  12.210  10.430
93541W        W65955  35.535  39.371  12.974
93542W        W65956  26.581   1.868  11.885
93543W        W65957  38.476   4.851   3.239
93544W        W65958  16.140  27.526  10.969
93545W        W65959  21.545  24.599  13.932
93546W        W65960  32.941  26.490  10.558
93547W        W65961  30.072  38.869  14.946
93548W        W65962  38.470  28.092  14.931
93549W        W65963  42.895  27.949   2.302
93550W        W65964  33.471   3.325  10.621
93551W        W65965   2.860  21.071   3.326
93552W        W65966  35.505  30.512   0.817
93553W        W65967  26.043   2.723   1.370
93554W        W65968   3.342  26.100  14.413
93555W        W65969   4.721  35.926   0.320
93556W        W65970  36.020  18.142   1.788
93557W        W65971  17.707   0.341  12.049
93558W        W65972  27.146  35.485   2.295
93559W        W65973  20.055  12.696   1.909
93560W        W65974  38.385  32.935  11.906
93561W        W65975  15.659  36.026  13.008
93562W        W65976   5.240  43.272   3.369
93563W        W65977  40.341  11.183  14.504
93564W        W65978  31.640  24.587   1.815
93565W        W65979  19.779  22.146  12.498
93566W        W65980  11.215   6.790  12.843
93567W        W65981   4.768  37.942   3.642
93568W        W65982   8.895  40.452   0.831
93569W        W65983  11.748  21.242   3.248
93570W        W65984   3.428  14.599  14.289
93571W        W65985  42.421  14.170  12.394
93572W        W65986  30.416  44.380   0.442
93573W        W65987   3.839  28.504  14.307
93574W        W65988   4.308  38.908  14.444
93575W        W65989  17.720  17.253   4.830
93576W        W65990  30.532  13.712  11.058
93577W        W65991  28.112  25.131   1.846
93578W        W65992  41.935  25.200   2.791
93579W        W65993  15.742  17.268   2.859
93580W        W65994  32.932  34.581  10.942
93581W        W65995  17.684  19.700   1.312
93582W        W65996  42.463  25.009  12.846
93583W        W65997  44.375  28.025   4.653
93584W        W65998  23.226  31.492   1.896
93585W        W65999  26.181  39.863   0.244
93586W        W66000  37.444  39.916   0.329
93587W        W66001  17.211  25.613  10.483
93588W        W66002  27.068  15.262  11.951
93589W        W66003  11.177  38.064   1.443
93590W        W66004   9.362  43.402  12.352
93591W        W66005  26.093  26.689  12.881
93592W        W66006  11.642  30.437   4.773
93593W        W66007   0.787   5.909  10.541
93594W        W66008  23.577  40.991  11.974
93595W        W66009  21.225  14.634  12.844
93596W        W66010  29.563   8.833  14.916
93597W        W66011  15.295   0.350   1.781
93598W        W66012  37.003  20.618  11.508
93599W        W66013  30.121  33.568  13.327
93600W        W66014  31.536  31.628   2.209
93601W        W66015   1.323  17.794  10.445
93602W        W66016  37.432  36.396   0.322
93603W        W66017  12.803  25.623  12.053
93604W        W66018  41.445  17.225   0.412
93605W        W66019   9.375   7.899  10.592
93606W        W66020  18.569  25.993  13.917
93607W        W66021  37.925  33.503  13.466
93608W        W66022   0.289   7.788   3.778
93609W        W66023  13.142   4.904  14.935
93610W        W66024  18.595  26.601  11.026
93611W        W66025  17.262  25.532   0.398
93612W        W66026   4.844  29.617   3.760
93613W        W66027  15.198  30.429   1.701
93614W        W66028   9.208  19.042  12.017
93615W        W66029  23.013   6.332   2.254
93616W        W66030   4.943  10.783   5.092
93617W        W66031   9.767  13.222  12.983
93618W        W66032  40.514  38.867  12.388
93619W        W66033   1.482  44.901   2.249
93620W        W66034  40.846  28.501   0.952
93621W        W66035  10.270   9.297   0.773
93622W        W66036   2.279  38.958   4.147
93623W        W66037  14.734  38.486   0.811
93624W        W66038  19.176  30.623  11.864
93625W        W66039  42.995   5.890   3.341
93626W        W66040  11.742  22.746  10.498
93627W        W66041   9.163  34.506   4.178
93628W        W66042  22.215  43.477  10.956
93629W        W66043  10.726  43.345   1.796
93630W        W66044  25.001   4.869   0.929
93631W        W66045   0.963  27.965   5.310
93632W        W66046  27.950  32.052  12.919
93633W        W66047   9.227  22.138   4.340
93634W        W66048  37.931  34.564   4.772
93635W        W66049  11.795   7.780  11.420
93636W        W66050  21.622  21.030  12.386
93637W        W66051  20.118  29.541  10.505
93638W        W66052   0.479  29.554  10.493
93639W        W66053  11.715   0.848  11.565
93640W        W66054   0.341  20.185   1.834
93641W        W66055   2.236  16.693  14.784
93642W        W66056   2.945   4.440   0.454
93643W        W66057   9.157  26.138   3.765
93644W        W66058  42.931  17.294   5.170
93645W        W66059  24.655   4.243  10.431
93646W        W66060  21.513  31.625   1.791
93647W        W66061  13.688  40.880   1.334
93648W        W66062  35.892  41.293   4.187
93649W        W66063  13.795   5.817  14.947
93650W        W66064   3.287  20.037   3.204
93651W        W66065  14.287   0.779  11.097
93652W        W66066  16.095  30.541  13.474
93653W        W66067   8.377  17.572   2.711
93654W        W66068  12.136  25.044   1.329
93655W        W66069  34.418   8.666  13.455
93656W        W66070  12.687  30.472   4.223
93657W        W66071  25.484   5.803  12.073
93658W        W66072  33.096  40.002   1.863
93659W        W66073  31.913   2.373  14.776
93660W        W66074  25.115  13.276   3.728
93661W        W66075  13.835  41.843  12.955
93662W        W66076   2.454  28.595  13.854
93663W        W66077  38.821  21.211  12.060
93664W        W66078  38.024  42.353  12.881
93665W        W66079  33.930  15.813   0.303
93666W        W66080   1.764   5.306   2.697
93667W        W66081  38.919  13.602   3.759
93668W        W66082  18.619  29.080   1.880
93669W        W66083  32.526  42.304  11.885
93670W        W66084  34.384  28.473  13.315
93671W        W66085  12.829  12.723   3.285
93672W        W66086  37.074  40.434  13.493
93673W        W66087  44.497  28.945  12.552
93674W        W66088   9.315  21.531   2.204
93675W        W66089  40.382   0.983  12.998
93676W        W66090  36.889  32.551   4.145
93677W        W66091  29.981  44.838  14.906
93678W        W66092   7.909  10.211  14.423
93679W        W66093   0.276  24.079  12.430
93680W        W66094  11.213   2.876   2.319
93681W        W66095  30.460   1.313  11.994
93682W        W66096   4.835  33.117   2.264
93683W        W66097  13.107  23.061   4.719
93684W        W66098  27.152  41.878  10.889
93685W        W66099  39.324  19.268  12.495
93686W        W66100  38.411   0.898  13.444
93687W        W66101  31.144  13.149  14.852
93688W        W66102  13.206  41.489  12.404
93689W        W66103   4.311   1.257  10.982
93690W        W66104   3.405  35.904  14.309
93691W        W66105  11.839   4.853  13.937
93692W        W66106  31.132  16.295   4.274
93693W        W66107  13.196  18.614   5.778
93694W        W66108  40.347  37.379   1.310
93695W        W66109  35.075   8.746   3.822
93696W        W66110   6.190  13.721   1.795
93697W        W66111  36.921  13.224   3.161
93698W        W66112  19.690   9.703   0.292
93699W        W66113  28.464  35.861   4.791
93700W        W66114  15.596  27.040   3.165
93701W        W66115   5.895  29.162   3.293
93702W        W66116  34.942  41.308   5.213
93703W        W66117  31.628  44.344  11.606
93704W        W66118  11.176   7.261  10.945
93705W        W66119   1.840  14.286   2.858
93706W        W66120   2.736  24.667   0.268
93707W        W66121  20.697  33.408  12.577
93708W        W66122  21.757  40.902   0.275
93709W        W66123   3.390  37.571   0.740
93710W        W66124  22.073  14.797  13.796
93711W        W66125  25.112  19.760  11.053
93712W        W66126  27.606  19.110   1.833
93713W        W66127  26.630   9.160   0.350
93714W        W66128  41.961  11.133  14.987
93715W        W66129  44.853  14.304  11.456
93716W        W66130  27.071  25.045   3.186
93717W        W66131  37.546   4.307  10.600
93718W        W66132  17.582   0.402  14.945
93719W        W66133   8.890  22.583  10.926
93720W        W66134   8.787  21.113   0.345
93721W        W66135  22.732   3.734  13.373
93722W        W66136  40.491   6.424   1.883
93723W        W66137  16.159  34.076  14.409
93724W        W66138  43.389  35.857   2.343
93725W        W66139  27.662  17.681  13.936
93726W        W66140  26.032  24.635   3.677
93727W        W66141   3.734  26.659   4.621
93728W        W66142   1.971  43.397  13.911
93729W        W66143   5.902  22.199  10.968
93730W        W66144  39.385   0.915  10.005
93731W        W66145  14.762  39.506  12.962
93732W        W66146   6.899   9.728  11.869
93733W        W66147  39.016  12.852   3.317
93734W        W66148   1.380  12.685  12.920
93735W        W66149   8.854  31.152   2.746
93736W        W66150  14.110  27.677  11.107
93737W        W66151  36.866   9.276  10.987
93738W        W66152   8.298  12.175   3.251
93739W        W66153  12.761  11.150   1.408
93740W        W66154   8.401   6.202  10.979
93741W        W66155  14.175   5.225   1.292
93742W        W66156  13.117  35.538  12.043
93743W        W66157  22.169  35.475   3.256
93744W        W66158  29.114  26.192   4.637
93745W        W66159  44.458  30.965   3.381
93746W        W66160  21.517  11.227   3.382
93747W        W66161   6.825  26.689   0.887
93748W        W66162  44.423  21.167  14.835
93749W        W66163  10.850  29.105   2.789
93750W        W66164  13.705  34.956  10.630
93751W        W66165  16.298  30.466   1.737
93752W        W66166  19.078  43.480  11.570
93753W        W66167  24.522  23.019  10.553
93754W        W66168  20.549   1.349   3.702
93755W        W66169   3.778  15.590   1.230
93756W        W66170  13.265  15.198  11.499
93757W        W66171   2.468  22.654  10.552
93758W        W66172  20.083  43.902  13.434
93759W        W66173   4.739  38.066  12.926
93760W        W66174  17.076  25.612   2.351
93761W        W66175   1.884  29.648   0.415
93762W        W66176  39.995   3.302  14.501
93763W        W66177  17.266  11.839   1.398
93764W        W66178  14.134  18.189  14.004
93765W        W66179   5.775  40.924   3.168
93766W        W66180  14.175   7.775   3.846
93767W        W66181  37.387  30.017   2.875
93768W        W66182   1.878  22.542  13.495
93769W        W66183  21.517  25.090   4.236
93770W        W66184  11.792  17.689   2.860
93771W        W66185  19.279  20.133   2.414
93772W        W66186  13.700  19.727  10.092
93773W        W66187  34.508  28.072  13.452
93774W        W66188  29.501  28.012   4.261
93775W        W66189  24.044  32.422   3.174
93776W        W66190  18.555  25.099  13.847
93777W        W66191  34.092  41.535   3.842
93778W        W66192  18.251  40.516   2.791
93779W        W66193   2.787   6.854   1.754
93780W        W66194  30.087   6.856  14.801
93781W        W66195   0.961  21.577  13.389
93782W        W66196  22.197  10.690  13.371
93783W        W66197  16.258  39.424  12.887
93784W        W66198  25.162  14.749  10.986
93785W        W66199  44.834   7.769  11.584
93786W        W66200   4.445  14.259   4.174
93787W        W66201  14.265  29.103  14.461
93788W        W66202   6.719  37.419   3.796
93789W        W66203   4.305  43.510  13.950
93790W        W66204  36.402  23.710  12.396
93791W        W66205  32.012  10.340   1.866
93792W        W66206  28.660  25.583  14.398
93793W        W66207   9.342  24.719  12.556
93794W        W66208  23.715  23.561   0.290
93795W        W66209  12.774  14.165   0.252
93796W        W66210  35.888  28.067   3.674
93797W        W66211   1.802  39.984  10.409
93798W        W66212  12.658  30.642  11.113
93799W        W66213  41.887  31.944   0.891
93800W        W66214  28.539  28.943  11.964
93801W        W66215  42.516  34.896  13.999
93802W        W66216  34.598  38.406   2.690
93803W        W66217  14.141  10.765  14.366
93804W        W66218   4.711  15.669  12.906
93805W        W66219  20.573  10.151  14.492
93806W        W66220   4.853  31.557   4.213
93807W        W66221  12.737  38.382  11.502
93808W        W66222  11.134  34.948  11.553
93809W        W66223  43.936  13.154  12.389
93810W        W66224  18.054   0.408  13.841
93811W        W66225  36.405  38.385   0.912
93812W        W66226  37.002  31.544  12.380
93813W        W66227  41.018  25.698  14.019
93814W        W66228  32.533   7.174   5.233
93815W        W66229  21.650  23.537   3.359
93816W        W66230  32.408   7.667   0.286
93817W        W66231   7.277  17.775   3.762
93818W        W66232  31.578  13.758  10.544
93819W        W66233  27.565  18.741   1.360
93820W        W66234  19.051   0.362   5.627
93821W        W66235  13.346  40.382  12.082
93822W        W66236  12.785  35.961   3.253
93823W        W66237  25.017   6.279   4.303
93824W        W66238  33.622  36.408  14.869
93825W        W66239  19.210  32.961   4.643
93826W        W66240  34.409  30.612   2.328
93827W        W66241  28.173  25.162  12.933
93828W        W66242  26.471  27.002   3.256
93829W        W66243  27.676  37.345  11.580
93830W        W66244  39.448  28.616  12.448
93831W        W66245  24.580  38.895   2.256
93832W        W66246  25.602  15.089  12.915
93833W        W66247  18.225  16.587  14.931
93834W        W66248  12.173   0.961   4.231
93835W        W66249  29.044  16.309   0.968
93836W        W66250  38.029  23.636  13.331
93837W        W66251  15.199  22.011  10.438
93838W        W66252  14.181  39.947  14.843
93839W        W66253  24.149   8.878   5.174
93840W        W66254  17.224   4.871  13.914
93841W        W66255  36.085   7.348   4.740
93842W        W66256   5.286  34.977  12.839
93843W        W66257  20.738  34.068   1.224
93844W        W66258  11.790  29.106   2.198
93845W        W66259  13.273  36.967   2.705
93846W        W66260  30.119  30.483   3.161
93847W        W66261   4.437  15.180   5.118
93848W        W66262   5.904   7.193  12.917
93849W        W66263   3.868  43.389   9.439
93850W        W66264  18.261   8.245   0.745
93851W        W66265  34.431  23.051  14.937
93852W        W66266  32.943  18.176   1.394
93853W        W66267  35.020  30.041  14.808
93854W        W66268  31.948  40.932  12.003
93855W        W66269  35.472   7.783  10.533
93856W        W66270  32.622   8.373  13.412
93857W        W66271   9.662  12.724  12.978
93858W        W66272  23.989  38.012  10.591
93859W        W66273  41.422   5.390  13.350
93860W        W66274  20.159  27.685  14.311
93861W        W66275  30.131   5.346  11.016
93862W        W66276  16.218  12.165  11.373
93863W        W66277  39.892   8.268  14.950
93864W        W66278  16.206  10.726   0.731
93865W        W66279   2.311  44.771   2.186
93866W        W66280  34.048  25.034  14.834
93867W        W66281  43.384  31.012   1.715
93868W        W66282  29.008  28.048   2.866
93869W        W66283  31.013  20.201  13.829
93870W        W66284  42.354  39.826   1.864
93871W        W66285  12.830  12.182  12.998
93872W        W66286  27.481  39.464  11.372
93873W        W66287  34.494  38.561   0.389
93874W        W66288  42.309  22.633  13.850
93875W        W66289   8.344  11.282  11.915
93876W        W66290  36.583  15.127  10.935
93877W        W66291   9.258  37.477   2.687
93878W        W66292   0.900   8.320   1.414
93879W        W66293   9.216  24.163   2.731
93880W        W66294  19.076  22.023   0.339
93881W        W66295  22.083  39.048  10.564
93882W        W66296  41.463  38.963   1.812
93883W        W66297   7.895  15.770  12.858
93884W        W66298  19.176  34.373  12.081
93885W        W66299  31.630  18.599   3.772
93886W        W66300  13.296  10.685   2.762
93887W        W66301  24.643   0.748  11.454
93888W        W66302  13.713   6.277  13.944
93889W        W66303  37.407  22.608  13.964
93890W        W66304  31.135   9.293   3.735
93891W        W66305   6.816  24.138  12.453
93892W        W66306   9.240  35.005  13.806
93893W        W66307  37.568  44.918   3.176
93894W        W66308   1.257  12.355  12.889
93895W        W66309  41.029   9.762  14.972
93896W        W66310  38.394  27.983   3.842
93897W        W66311  17.105  44.799   4.643
93898W        W66312  35.943  40.545   1.380
93899W        W66313   7.758  40.862  12.964
93900W        W66314  31.128  22.116   3.656
93901W        W66315  21.736  41.827   3.857
93902W        W66316  39.523   8.230  14.419
93903W        W66317  17.705  14.167   0.954
93904W        W66318  35.540   5.378   0.293
93905W        W66319  25.133  34.916   0.275
93906W        W66320  42.002  24.569  10.943
93907W        W66321  23.697  13.194   3.749
93908W        W66322  37.396  29.924  11.522
93909W        W66323  16.647  22.033   4.606
93910W        W66324  22.096  34.065   2.670
93911W        W66325  22.037  33.534   0.797
93912W        W66326   7.768  39.495  11.997
93913W        W66327  35.913  33.459   0.294
93914W        W66328   6.909   3.952   2.185
93915W        W66329  34.370  13.641   3.727
93916W        W66330   0.746  34.498   4.239
93917W        W66331  13.251   6.328  10.603
93918W        W66332  44.346  21.553   4.217
93919W        W66333  33.128  18.145  14.310
93920W        W66334  10.691  43.466  12.873
93921W        W66335   4.824  42.816   4.301
93922W        W66336  27.684  35.558  14.759
93923W        W66337  41.519  40.894   4.304
93924W        W66338  20.755  25.027  11.915
93925W        W66339   4.916   8.256   2.793
93926W        W66340  20.709   7.217   3.356
93927W        W66341   2.912  18.093  12.443
93928W        W66342   8.711  30.943   3.644
93929W        W66343   7.361   9.194   3.325
93930W        W66344  14.761  43.326   3.644
93931W        W66345   6.254  22.136   4.245
93932W        W66346   5.780  41.968  11.435
93933W        W66347   2.923   1.952   3.384
93934W        W66348  36.365  37.941  13.974
93935W        W66349  33.982  33.409   1.412
93936W        W66350  17.270  16.726   0.284
93937W        W66351  24.522  24.715   0.407
93938W        W66352   7.403  39.546   1.255
93939W        W66353   3.238  43.785   4.288
93940W        W66354   6.374   2.771  12.852
93941W        W66355  41.906  21.046   2.770
93942W        W66356  38.050   4.220   1.730
93943W        W66357  21.552  11.706  11.405
93944W        W66358  18.209  38.952  11.029
93945W        W66359   4.825  39.014  14.512
93946W        W66360  32.139  42.360   4.652
93947W        W66361  12.836  26.644   1.716
93948W        W66362   9.795  41.042  14.413
93949W        W66363  40.455  38.333   4.828
93950W        W66364   5.844  42.028  11.994
93951W        W66365  32.098  34.947  11.908
93952W        W66366  33.090  19.243  13.999
93953W        W66367   7.823  28.583  10.472
93954W        W66368  40.391   0.795   2.195
93955W        W66369  18.612  20.075   3.152
93956W        W66370  37.337   7.413  14.794
93957W        W66371  12.749  13.740  11.469
93958W        W66372  23.061  42.831   1.825
93959W        W66373  42.989  25.140  13.837
93960W        W66374  34.389  15.144   1.239
93961W        W66375   3.767  18.657  10.439
93962W        W66376   4.852  39.810   2.314
93963W        W66377   2.882   7.177   1.341
93964W        W66378  12.639  40.916  14.871
93965W        W66379  15.234  36.072   1.926
93966W        W66380  16.677  11.846  13.519
93967W        W66381  17.303  38.836  10.438
93968W        W66382   0.413  25.515  14.843
93969W        W66383  24.648   7.379  13.917
93970W        W66384  43.408  41.538   1.246
93971W        W66385  15.582  28.178   0.914
93972W        W66386  23.040  25.212  11.125
93973W        W66387  40.802   9.860   4.126
93974W        W66388   0.855   2.918  10.444
93975W        W66389  28.654   2.745  12.927
93976W        W66390   8.799  17.638  11.023
93977W        W66391   5.289  36.086  13.325
93978W        W66392  32.548   5.877   2.828
93979W        W66393  33.481  22.601   2.728
93980W        W66394  22.635  37.487  13.952
93981W        W66395  13.686  21.029   0.739
93982W        W66396  35.957  35.386  13.042
93983W        W66397   9.679  44.344  10.564
93984W        W66398  22.069  21.734  12.352
93985W        W66399  24.027   3.441   0.948
93986W        W66400  38.918  41.516   3.724
93987W        W66401   2.278  43.921   2.776
93988W        W66402   7.700  12.789   0.967
93989W        W66403  43.412  28.980   2.312
93990W        W66404   3.387   6.358   4.231
93991W        W66405  31.973  26.110   3.763
93992W        W66406  37.513  20.725   3.309
93993W        W66407  18.614  38.013  12.968
93994W        W66408  36.050  21.696  14.461
93995W        W66409   6.272  16.619   3.182
93996W        W66410  35.860  32.392  10.422
93997W        W66411  11.252  15.758   2.881
93998W        W66412  16.808  20.647  10.450
93999W        W66413  34.369  33.122  12.883
94000W        W66414  31.149   3.892  12.451
94001W        W66415  11.134  43.837   3.656
94002W        W66416  31.015  20.606   2.770
94003W        W66417   4.399   3.250   1.270
94004W        W66418  20.225  39.416   1.210
94005W        W66419  41.980  44.438   4.347
94006W        W66420   2.360   7.847   4.669
94007W        W66421  25.680  20.598  12.864
94008W        W66422   7.230  34.428  11.945
94009W        W66423  11.630  10.144   3.652
94010W        W66424  11.300   3.748  11.533
94011W        W66425  22.244  10.378   2.377
94012W        W66426   0.369   7.218   4.823
94013W        W66427  16.319  22.615   1.265
94014W        W66428  20.575  11.848   2.752
94015W        W66429  17.630   9.740   2.875
94016W        W66430   0.965  43.308   0.477
94017W        W66431   9.681  43.884  12.458
94018W        W66432  13.217  28.651   4.770
94019W        W66433  21.101  42.456  13.541
94020W        W66434  21.687   4.728  10.572
94021W        W66435  12.671   9.313   0.753
94022W        W66436   3.760  29.462   4.694
94023W        W66437   6.864  30.567   0.804
94024W        W66438  21.226  19.735  12.914
94025W        W66439  10.676  19.051   2.342
94026W        W66440  15.577   6.765  10.983
94027W        W66441  28.572  36.524   2.253
94028W        W66442  34.512  29.131   1.404
94029W        W66443  40.816   5.833  12.474
94030W        W66444  33.007  36.470   4.823
94031W        W66445  26.190   3.756  12.044
94032W        W66446  25.040  43.451   2.306
94033W        W66447  11.337   1.243   1.366
94034W        W66448  30.619  27.581  14.815
94035W        W66449  16.648  22.661  13.991
94036W        W66450   3.380  32.014  13.046
94037W        W66451   2.233  27.039  10.086
94038W        W66452  14.285  19.697   1.857
94039W        W66453   0.770   8.699  10.899
94040W        W66454   3.237   7.911  10.410
94041W        W66455  39.014   5.825   3.376
94042W        W66456  12.720  22.201  11.039
94043W        W66457  17.613  24.190  10.990
94044W        W66458   2.256  41.980   3.149
94045W        W66459  44.404  28.059   1.330
94046W        W66460  31.990  34.076  10.536
94047W        W66461   1.918  38.037   2.872
94048W        W66462  44.912  25.595   0.454
94049W        W66463  18.158  18.276  11.855
94050W        W66464  22.017  11.351  12.085
94051W        W66465   9.196   9.196  10.410
94052W        W66466  26.204  19.148  11.972
94053W        W66467  21.221  40.818  12.400
94054W        W66468   4.317  34.910   4.689
94055W        W66469   3.373  37.523   5.194
94056W        W66470  17.202  14.754  10.445
94057W        W66471   6.792   8.168   0.744
94058W        W66472  25.571  16.633  13.390
94059W        W66473  34.449  34.108  11.448
94060W        W66474  19.573  43.979  11.477
94061W        W66475  12.310  32.503   1.249
94062W        W66476  14.220   4.362  10.565
94063W        W66477  19.565  16.785  11.083
94064W        W66478   6.716  37.902   2.673
94065W        W66479   3.911  26.521   0.377
94066W        W66480   0.936  26.197  12.461
94067W        W66481  33.549  10.383   3.341
94068W        W66482  33.406  35.581   0.854
94069W        W66483   7.778  37.967   1.278
94070W        W66484  15.291  43.982   2.876
94071W        W66485   6.338  30.920  14.801
94072W        W66486  38.364  18.158  11.435
94073W        W66487  24.214  18.052   9.457
94074W        W66488   5.327  18.669  11.892
94075W        W66489  28.566   9.656  11.918
94076W        W66490  11.353  25.194  12.362
94077W        W66491   4.856  18.758   1.823
94078W        W66492   7.823  10.877   2.314
94079W        W66493  41.918  24.516  14.826
94080W        W66494  44.377  17.233   5.233
94081W        W66495  34.994  24.559  10.450
94082W        W66496   5.905  20.647   1.370
94083W        W66497  17.799  29.509  11.004
94084W        W66498  33.519  13.163   1.745
94085W        W66499  12.689   8.802   2.769
94086W        W66500  38.433  33.131   5.674
94087W        W66501  43.017  38.384  11.081
94088W        W66502   1.336  23.601  12.430
94089W        W66503   4.839  44.836  11.860
94090W        W66504  15.130  25.630   1.400
94091W        W66505  11.806  17.790   4.324
94092W        W66506  29.055   3.716   0.386
94093W        W66507  27.066  29.950  14.431
94094W        W66508   2.875  35.526   4.258
94095W        W66509  14.591  11.244  12.573
94096W        W66510   2.370  18.736   4.691
94097W        W66511  27.677  20.032   1.220
94098W        W66512  35.387   1.463  11.036
94099W        W66513  11.662  18.577   5.157
94100W        W66514  34.492  23.715  14.404
94101W        W66515  24.538   3.950   0.280
94102W        W66516  23.531  22.592   0.366
94103W        W66517  44.006   2.875   2.229
94104W        W66518  24.688   8.265   0.778
94105W        W66519  23.641   7.701  10.970
94106W        W66520   9.766   0.859   1.752
94107W        W66521  15.604  17.736  10.531
94108W        W66522   2.956  29.028  11.873
94109W        W66523   3.830  13.610   1.845
94110W        W66524  17.624  43.353   0.386
94111W        W66525  31.638   7.870  13.000
94112W        W66526  22.590   1.240   3.693
94113W        W66527  19.776  21.085  11.427
94114W        W66528  21.174  36.025   0.348
94115W        W66529  10.857   6.220   2.678
94116W        W66530  27.643   5.730   3.315
94117W        W66531  44.317  18.197   2.400
94118W        W66532   0.254   7.394  12.893
94119W        W66533  38.480  31.148  14.784
94120W        W66534  44.435  38.013   4.348
94121W        W66535  30.465  23.531   4.727
94122W        W66536  33.586  11.858   2.325
94123W        W66537  38.539   1.343   3.862
94124W        W66538  27.638  29.135   0.346
94125W        W66539  23.199  33.957   3.177
94126W        W66540  25.068  27.023   2.679
94127W        W66541  29.601  16.604  12.986
94128W        W66542  34.034  40.979   1.720
94129W        W66543  37.980  44.936   2.383
94130W        W66544  14.757  18.157  11.984
94131W        W66545  19.742  40.008  14.874
94132W        W66546  39.051  33.931   2.274
94133W        W66547   7.356  43.430  12.363
94134W        W66548  21.659  15.707  10.430
94135W        W66549  41.886  40.799   3.756
94136W        W66550   4.920   7.783  12.066
94137W        W66551  28.931   7.820   4.612
94138W        W66552  33.973  25.694   4.156
94139W        W66553  24.019  19.170  10.973
94140W        W66554  28.521  23.218   3.225
94141W        W66555  30.442  19.206   2.865
94142W        W66556  42.289   9.803  13.804
94143W        W66557  26.118  24.090  13.421
94144W        W66558   6.740   3.285  11.971
94145W        W66559  42.006  42.854   4.634
94146W        W66560  44.814  17.560  13.041
94147W        W66561  42.962  19.675   4.135
94148W        W66562  19.629   3.943  14.493
94149W        W66563  33.496  20.555   0.782
94150W        W66564  26.159  14.179   2.222
94151W        W66565  30.956  43.465   1.364
94152W        W66566   0.976  17.202  14.854
94153W        W66567  21.604  44.826   0.881
94154W        W66568  30.121  35.561  11.561
94155W        W66569  21.683  43.418   3.749
94156W        W66570  18.648   4.702   1.875
94157W        W66571  30.916   5.825   2.315
94158W        W66572   7.746  31.619   3.230
94159W        W66573  31.647   2.469   4.151
94160W        W66574  19.186  38.542  14.307
94161W        W66575  24.973  33.579  13.471
94162W        W66576  27.949  33.956   2.717
94163W        W66577  29.123   4.806   3.371
94164W        W66578   2.362  37.424   4.726
94165W        W66579  16.805  44.886   0.433
94166W        W66580  18.070  14.171   3.169
94167W        W66581  38.010   8.380  11.437
94168W        W66582  40.404  38.568  14.940
94169W        W66583  26.093  35.852  13.396
94170W        W66584  21.131  13.310   2.900
94171W        W66585  37.535  22.174  11.376
94172W        W66586  22.568  22.245  11.926
94173W        W66587   6.400  39.340  13.821
94174W        W66588  43.307  25.022   1.921
94175W        W66589  24.225  31.428  12.090
94176W        W66590  34.557  20.197  13.837
94177W        W66591  41.896  39.837   2.337
94178W        W66592  18.611  18.550   2.825
94179W        W66593   2.339   5.719   3.833
94180W        W66594  20.647  12.218   3.825
94181W        W66595  13.158  12.759  12.443
94182W        W66596   3.277  31.134  12.392
94183W        W66597   5.747  15.106   4.752
94184W        W66598  15.746  13.844   0.317
94185W        W66599  36.097  30.050   1.271
94186W        W66600   4.932  31.514  11.882
94187W        W66601  36.539  32.023  12.393
94188W        W66602   6.770   2.341   3.782
94189W        W66603  24.082  32.087   3.851
94190W        W66604  35.044   5.813  13.320
94191W        W66605   2.460   6.887   0.885
94192W        W66606  32.436  16.261   2.715
94193W        W66607  35.596  26.025   0.885
94194W        W66608  17.061  40.311  12.825
94195W        W66609  25.142  11.659  14.836
94196W        W66610  23.601   9.274  10.536
94197W        W66611   3.924   5.791   4.739
94198W        W66612  39.391  12.328  13.901
94199W        W66613  26.134   9.179  14.377
94200W        W66614  13.299  34.432   2.821
94201W        W66615  14.329  16.196   2.684
94202W        W66616  18.580  34.993   1.234
94203W        W66617  33.001  20.247  13.879
94204W        W66618  38.888  10.838   2.365
94205W        W66619   0.308  37.416  14.020
94206W        W66620  40.044  12.169   0.827
94207W        W66621  13.168  13.600  11.480
94208W        W66622  17.781  31.016  11.536
94209W        W66623   6.199   4.236  10.001
94210W        W66624  36.346  28.016   0.270
94211W        W66625   8.254  26.678  12.370
94212W        W66626  11.855  12.260  12.452
94213W        W66627   6.888  31.931   3.255
94214W        W66628  17.227  24.993  12.036
94215W        W66629  41.870   6.230  12.001
94216W        W66630  27.178  18.057  12.487
94217W        W66631  22.121  14.299  13.931
94218W        W66632  33.573   5.872  13.511
94219W        W66633   1.261  24.186   3.241
94220W        W66634  18.245   3.402   3.265
94221W        W66635  22.222  10.823   4.231
94222W        W66636  18.742  22.247  11.092
94223W        W66637  22.727  31.991  14.963
94224W        W66638   3.931  44.812   2.841
94225W        W66639  38.034  10.281  13.803
94226W        W66640  16.695  20.746   1.277
94227W        W66641   9.168  25.149   2.816
94228W        W66642  42.364  10.162  12.907
94229W        W66643  32.490  42.795  13.915
94230W        W66644  41.930   6.380   0.274
94231W        W66645  38.995  41.526  13.027
94232W        W66646   4.857   5.260   2.232
94233W        W66647   5.855   9.793  13.509
94234W        W66648  26.021  16.795  14.883
94235W        W66649  13.274   9.734   0.351
94236W        W66650  35.058  39.899  13.400
94237W        W66651   6.760  31.571   1.850
94238W        W66652   0.370  40.495   3.868
94239W        W66653  19.592   9.831   4.282
94240W        W66654  42.435  34.894   0.869
94241W        W66655   7.675   7.190  13.416
94242W        W66656  26.681  26.665   1.733
94243W        W66657  15.245  40.009  12.867
94244W        W66658   9.358   0.834  11.486
94245W        W66659   4.897  37.013  11.086
94246W        W66660  15.245  28.623   3.649
94247W        W66661  26.000  42.497  13.384
94248W        W66662  43.995  40.051   1.273
94249W        W66663  16.145  22.687   1.791
94250W        W66664  35.578  20.566   5.611
94251W        W66665  19.139   7.357  12.829
94252W        W66666  15.135   1.760  13.842
94253W        W66667  43.345  42.382   0.814
94254W        W66668  34.609  39.382  13.985
94255W        W66669  39.403   4.368  10.508
94256W        W66670  16.610   3.216   5.116
94257W        W66671  40.396   5.737   2.382
94258W        W66672   2.254  39.388   4.733
94259W        W66673  20.704  39.513  14.980
94260W        W66674   2.287  20.745  11.446
94261W        W66675   5.321  36.428   0.945
94262W        W66676  18.628  42.001   1.795
94263W        W66677  12.242  27.467  13.445
94264W        W66678  26.634  14.833  11.509
94265W        W66679   1.396  31.494   1.264
94266W        W66680  12.852  38.468   1.710
94267W        W66681  31.058  23.613   3.263
94268W        W66682   5.903  28.660   1.715
94269W        W66683  31.474   8.856  10.914
94270W        W66684  10.699  43.443  14.363
94271W        W66685   6.732  43.361   0.348
94272W        W66686  29.934  43.767  11.008
94273W        W66687  17.071  18.085   3.666
94274W        W66688   9.209  24.127  13.922
94275W        W66689   7.667  10.254  13.913
94276W        W66690   8.670  22.167   4.736
94277W        W66691  10.192   6.370   5.222
94278W        W66692   2.879   1.345  14.935
94279W        W66693  40.009  25.089   4.739
94280W        W66694  13.349  42.478  11.601
94281W        W66695  36.472  19.048   3.262
94282W        W66696  40.458   9.391  12.859
94283W        W66697  13.821  12.181   1.880
94284W        W66698  35.403  44.259  11.994
94285W        W66699  25.079  39.479  11.961
94286W        W66700  33.026  22.209   0.816
94287W        W66701  16.778  12.166   3.208
94288W        W66702  35.035   2.337   4.177
94289W        W66703  30.612   2.809  14.979
94290W        W66704   7.720  34.881  12.952
94291W        W66705  42.797   4.231  13.836
94292W        W66706  20.168  13.752  14.949
94293W        W66707   6.775  42.480   4.779
94294W        W66708  39.911  19.772  10.943
94295W        W66709  13.752  21.717   1.417
94296W        W66710  43.292   4.269   4.277
94297W        W66711  42.340  20.750  14.796
94298W        W66712  16.147  13.177   4.293
94299W        W66713  19.151  40.000  10.897
94300W        W66714  42.288   0.409   1.723
94301W        W66715  38.006  10.665   0.949
94302W        W66716  43.827  13.160  13.978
94303W        W66717  40.324  37.455  10.498
94304W        W66718  33.540  10.334   1.858
94305W        W66719  26.577  33.587  11.542
94306W        W66720  20.653  42.963  12.341
94307W        W66721   1.824  22.232  11.965
94308W        W66722  30.613  15.171   0.409
94309W        W66723  13.706  43.449   1.429
94310W        W66724   7.854  36.500   4.307
94311W        W66725  32.090  36.053   3.274
94312W        W66726  42.328  30.570   1.364
94313W        W66727  18.212   9.656  10.537
94314W        W66728  34.014  37.477   0.252
94315W        W66729  38.334  32.021  14.779
94316W        W66730  14.138  14.767  14.032
94317W        W66731  40.804  33.090   3.666
94318W        W66732   3.260  17.119  12.516
94319W        W66733  25.656   6.888  12.915
94320W        W66734  31.518  34.454  14.832
94321W        W66735  27.567  25.073  13.919
94322W        W66736  12.734  25.679   2.217
94323W        W66737  21.716   9.182  12.909
94324W        W66738   3.305  17.583  12.533
94325W        W66739  34.000  11.731   0.883
94326W        W66740  18.213  39.992  13.470
94327W        W66741   8.172  25.021  11.891
94328W        W66742   9.844  37.438   4.328
94329W        W66743  16.173  22.211   0.757
94330W        W66744  21.671  27.615  12.912
94331W        W66745  34.592   5.354   4.261
94332W        W66746  17.675  15.324  14.904
94333W        W66747  19.263  29.440  12.835
94334W        W66748  14.623  39.826  12.845
94335W        W66749  29.984  11.696   4.677
94336W        W66750  28.481  33.066   2.233
94337W        W66751  40.440   2.349   4.700
94338W        W66752  13.772  44.289   0.394
94339W        W66753  18.251   9.741   2.239
94340W        W66754  11.363  18.712  11.385
94341W        W66755  14.128  32.573   3.825
94342W        W66756  15.751  41.922  13.531
94343W        W66757  27.664  14.127  13.530
94344W        W66758  25.178  27.592  13.391
94345W        W66759  22.122  44.388  14.816
94346W        W66760  34.884  18.759   1.273
94347W        W66761  40.373  27.470   2.242
94348W        W66762  30.090  33.470   1.895
94349W        W66763   7.380  23.618  11.986
94350W        W66764  14.614   8.873  14.430
94351W        W66765  41.912   4.854   4.649
94352W        W66766  26.101  18.655   2.304
94353W        W66767  29.103  24.624   3.714
94354W        W66768  26.980  16.576   1.285
94355W        W66769  29.517  38.357  11.056
94356W        W66770   9.648  26.067   0.354
94357W        W66771  33.994   8.672  14.428
94358W        W66772  17.300  34.899   1.379
94359W        W66773  28.662  39.487  13.061
94360W        W66774  43.446  17.775  14.801
94361W        W66775   8.763   9.735  13.362
94362W        W66776   0.455  29.644  13.998
94363W        W66777  27.471  37.501  14.957
94364W        W66778  42.953  29.042  13.856
94365W        W66779  29.073  29.665   3.662
94366W        W66780  44.753   2.331  12.431
94367W        W66781  27.070  41.356  12.905
94368W        W66782  44.004  44.865   4.158
94369W        W66783   6.721  28.960  12.525
94370W        W66784  20.560  17.720  11.600
94371W        W66785  15.241   8.390   5.180
94372W        W66786  29.438  22.105  14.503
94373W        W66787  21.686  16.152  14.833
94374W        W66788  12.818  31.057  12.010
94375W        W66789  41.478  43.321  11.910
94376W        W66790  12.169  15.121   0.808
94377W        W66791  11.180  33.885  12.904
94378W        W66792  42.505  18.092  13.485
94379W        W66793   1.476  12.621  11.526
94380W        W66794  42.499  15.152   1.448
94381W        W66795  26.991   5.707   2.183
94382W        W66796  19.671  43.888  12.085
94383W        W66797   5.381  32.581   1.280
94384W        W66798   1.404  14.774  10.508
94385W        W66799   8.178   5.275   4.808
94386W        W66800  10.849  25.160   0.848
94387W        W66801  29.966  36.883   2.694
94388W        W66802  38.367  43.010  13.505
94389W        W66803  15.783  44.959   0.370
94390W        W66804  44.436  16.228  11.923
94391W        W66805   9.686  32.957   2.370
94392W        W66806  10.654  42.796  13.845
94393W        W66807  11.224  30.601  14.306
94394W        W66808  10.317  32.492  14.481
94395W        W66809   0.841   7.246  13.944
94396W        W66810  40.002   3.456   0.414
94397W        W66811  31.508  25.037   3.642
94398W        W66812  34.033  30.591  13.906
94399W        W66813  44.869  25.048  14.982
94400W        W66814  39.458  32.619   0.734
94401W        W66815  18.240  17.109   3.233
94402W        W66816   1.791   4.836   4.605
94403W        W66817  11.303  33.966   3.803
94404W        W66818  14.294  35.365  11.542
94405W        W66819  24.209  44.967   1.735
94406W        W66820  14.333  15.122   3.354
94407W        W66821   0.967  26.505   5.154
94408W        W66822  12.814  38.359  12.897
94409W        W66823  30.007  17.098  13.364
94410W        W66824  13.818  20.232  14.839
94411W        W66825  31.077   0.352   1.362
94412W        W66826  37.531  12.734  14.771
94413W        W66827  12.791  27.144  13.990
94414W        W66828  30.429   9.803   0.308
94415W        W66829  32.064  11.356   0.366
94416W        W66830  13.828  13.677  11.553
94417W        W66831   0.487  11.156   3.630
94418W        W66832  29.046  24.705  14.906
94419W        W66833  30.146  37.899  12.898
94420W        W66834  44.496   4.881   0.361
94421W        W66835  26.203  40.053   1.698
94422W        W66836   6.713  11.177   1.369
94423W        W66837   5.196   0.814   1.935
94424W        W66838  12.694  14.210  10.496
94425W        W66839  15.669  19.668   0.262
94426W        W66840  35.970  40.035   2.729
94427W        W66841  32.085  22.663   2.683
94428W        W66842  12.784   7.869  10.524
94429W        W66843  40.842  18.206  12.084
94430W        W66844  17.231  21.185  12.827
94431W        W66845  29.087  39.435   3.181
94432W        W66846  38.562   2.728  12.834
94433W        W66847   5.927  25.574  10.542
94434W        W66848  16.212  37.875  10.933
94435W        W66849   6.696  30.947   4.316
94436W        W66850  43.316  12.173  13.503
94437W        W66851   7.395  14.125  14.491
94438W        W66852  17.800  34.067  12.430
94439W        W66853  36.016  10.867  12.351
94440W        W66854  35.106  42.959  10.097
94441W        W66855   4.753  13.640   1.319
94442W        W66856  14.304   9.235   4.630
94443W        W66857  40.858   5.734   2.725
94444W        W66858  17.283  44.368   0.767
94445W        W66859  16.258  15.622  11.440
94446W        W66860   1.847  31.900   0.361
94447W        W66861  28.097  23.727  11.386
94448W        W66862   2.820  21.124  13.509
94449W        W66863  32.577  27.500  14.026
94450W        W66864   2.800   0.908   2.253
94451W        W66865  10.356   5.779   3.358
94452W        W66866  36.367   8.733  14.460
94453W        W66867   9.223  34.068   3.279
94454W        W66868  41.379  44.813  11.430
94455W        W66869  38.027   3.354   4.653
94456W        W66870  12.699  32.623   2.395
94457W        W66871   0.472  37.042   1.785
94458W        W66872  25.077   5.435   0.932
94459W        W66873  13.633  24.583   4.753
94460W        W66874  28.616  26.461   4.225
94461W        W66875  29.989  43.339  12.883
94462W        W66876  14.115  41.919  14.813
94463W        W66877  15.231  35.564   2.402
94464W        W66878  43.779  27.470   3.686
94465W        W66879  36.912   9.229  12.580
94466W        W66880   1.927  19.215   4.147
94467W        W66881  23.559  39.475   2.662
94468W        W66882  32.082  38.359   1.307
94469W        W66883  14.230  10.285  11.378
94470W        W66884   4.247  33.553   1.892
94471W        W66885  33.600   1.925  13.790
94472W        W66886   7.300  12.266   3.686
94473W        W66887  15.681   8.734  11.548
94474W        W66888  44.975  30.437  14.029
94475W        W66889  19.550   9.674   0.869
94476W        W66890  16.134  40.879   4.291
94477W        W66891  12.186   9.670   1.925
94478W        W66892  42.962  37.941   3.231
94479W        W66893  44.964  43.336   3.354
94480W        W66894  34.006  40.838   3.630
94481W        W66895   5.409  14.212   1.371
94482W        W66896   2.460  43.829  13.060
94483W        W66897  15.651  14.764  13.045
94484W        W66898  18.267  30.022   4.274
94485W        W66899  27.176   9.753   3.262
94486W        W66900  23.068  42.461   2.823
94487W        W66901  12.722  28.677   3.851
94488W        W66902  28.458   7.253  12.069
94489W        W66903  28.131  31.468  12.027
94490W        W66904  19.608  36.521   0.963
94491W        W66905  44.894   9.367   3.803
94492W        W66906  15.764   3.271   4.154
94493W        W66907  12.280  13.122  14.006
94494W        W66908  19.651  19.729  10.412
94495W        W66909  14.227  43.411   0.467
94496W        W66910  17.135  18.677  11.862
94497W        W66911  32.113  40.813  10.510
94498W        W66912   7.871   3.431   3.153
94499W        W66913  27.557  35.536   3.373
94500W        W66914  22.047  25.544   2.197
94501W        W66915  37.853  14.614  10.996
94502W        W66916  14.644  19.219  13.975
94503W        W66917  36.570  11.778   1.238
94504W        W66918   7.186  13.128   0.262
94505W        W66919   7.791   2.405   0.954
94506W        W66920   7.696  37.011   1.437
94507W        W66921   5.687  10.774   3.818
94508W        W66922  44.296  24.058  11.992
94509W        W66923   3.400   9.810  10.964
94510W        W66924  26.202  28.652  14.007
94511W        W66925  15.158   1.938  14.810
94512W        W66926  10.278  26.077   4.718
94513W        W66927  22.613  34.092  11.398
94514W        W66928   8.900  26.641   2.859
94515W        W66929  26.048  24.140  12.027
94516W        W66930   2.252  19.138   2.874
94517W        W66931  43.279   0.324   0.246
94518W        W66932   4.302  15.642   0.305
94519W        W66933  41.430  21.565   0.471
94520W        W66934  26.559   4.383   1.719
94521W        W66935  38.005   2.376  14.349
94522W        W66936  13.690  14.695  12.470
94523W        W66937  32.594  13.191  10.973
94524W        W66938  22.996   1.972  13.428
94525W        W66939  14.737  11.327   1.236
94526W        W66940  20.630   2.372  12.443
94527W        W66941  44.280  38.372   3.180
94528W        W66942   7.761  25.121  11.020
94529W        W66943   1.914  19.649  12.372
94530W        W66944   0.919   9.750  11.494
94531W        W66945  17.562  43.289   0.742
94532W        W66946  31.561   9.855   1.884
94533W        W66947   3.875  24.081   2.724
94534W        W66948   1.238  16.782   4.755
94535W        W66949   5.736  14.794   5.755
94536W        W66950  18.630  27.034  11.403
94537W        W66951  22.221   5.868  12.085
94538W        W66952  34.869  28.524   3.184
94539W        W66953  33.948  34.560   0.242
94540W        W66954  38.417  26.532  11.911
94541W        W66955  25.185   6.713  11.506
94542W        W66956  18.613   0.306  10.607
94543W        W66957  28.453   8.318   1.309
94544W        W66958   0.966  26.105   3.318
94545W        W66959  10.307  34.005   3.826
94546W        W66960  37.959  39.513   1.357
94547W        W66961   9.387  21.204  14.777
94548W        W66962  25.639  21.236  12.061
94549W        W66963  33.384  20.101  10.616
94550W        W66964   0.766  35.095  12.449
94551W        W66965  16.257  35.970  10.982
94552W        W66966  23.075  19.570   0.802
94553W        W66967  21.619  23.615   0.433
94554W        W66968   8.797  39.982  11.105
94555W        W66969  13.828  24.180  14.293
94556W        W66970  43.415  42.958   4.778
94557W        W66971  11.820  15.266   3.750
94558W        W66972  21.018  23.994   1.871
94559W        W66973  26.699  20.033  11.056
94560W        W66974  16.569  21.730  10.496
94561W        W66975  44.944  23.724   4.337
94562W        W66976  16.711  13.270  11.524
94563W        W66977  29.083  19.227   4.160
94564W        W66978  29.630   1.862  11.878
94565W        W66979  40.042  26.170  11.516
94566W        W66980   6.816  27.675   3.699
94567W        W66981  35.435   2.830   2.739
94568W        W66982  13.820  34.418   3.361
94569W        W66983  13.115  36.903  10.598
94570W        W66984  17.147  17.601   4.230
94571W        W66985  36.523   7.852  12.954
94572W        W66986  17.704  20.199  13.307
94573W        W66987   7.312  35.025   2.361
94574W        W66988  17.577   4.392   3.200
94575W        W66989  24.215  21.559   0.770
94576W        W66990  15.144  13.171   3.294
94577W        W66991  25.169  10.368  11.926
94578W        W66992   5.886  13.721   4.241
94579W        W66993   9.254   4.728   0.726
94580W        W66994  31.975  39.814   4.198
94581W        W66995  25.107   9.760  13.384
94582W        W66996  15.201  16.687   9.668
94583W        W66997  44.363   1.944  11.535
94584W        W66998   8.687   8.667   0.857
94585W        W66999  12.773  42.918  14.011
94586W        W67000  18.640   0.752  13.837
94587W        W67001  12.289   2.734  11.857
94588W        W67002   2.409   7.206   2.204
94589W        W67003  23.539  24.120  11.061
94590W        W67004  31.513   1.304  14.363
94591W        W67005   9.757  35.979   4.624
94592W        W67006  29.134  42.366  12.932
94593W        W67007  28.000  25.082  11.892
94594W        W67008  29.575  25.481  11.104
94595W        W67009  37.069   1.283  11.578
94596W        W67010  37.454  40.005   3.664
94597W        W67011  34.929  26.488  11.950
94598W        W67012  27.170  15.743  11.518
94599W        W67013  20.740  20.547  14.339
94600W        W67014  34.439  43.891   1.267
94601W        W67015   3.947  39.334   3.340
94602W        W67016  29.524  12.224   0.862
94603W        W67017   1.944   1.251  11.869
94604W        W67018  21.540  26.203  11.994
94605W        W67019  31.991  23.642   0.428
94606W        W67020  27.091  39.335   1.774
94607W        W67021  41.292   2.242  13.989
94608W        W67022  39.880  32.515  11.441
94609W        W67023  39.328  15.665  10.420
94610W        W67024  35.549  35.920   3.870
94611W        W67025   2.786  25.186   9.927
94612W        W67026  31.146   4.437   1.246
94613W        W67027  31.453  35.567   1.372
94614W        W67028  19.051  11.825   4.598
94615W        W67029  32.997  21.589  12.421
94616W        W67030  42.935  22.694  12.972
94617W        W67031  37.414   5.739  12.023
94618W        W67032  36.541  33.550   3.775
94619W        W67033   3.417   2.731  12.493
94620W        W67034  44.976  40.971   0.748
94621W        W67035  18.628  25.135  11.956
94622W        W67036  32.555  32.939  10.978
94623W        W67037  36.888  26.506  12.046
94624W        W67038  20.128  28.627   3.763
94625W        W67039  32.563  31.086   4.150
94626W        W67040  41.482   0.380  12.405
94627W        W67041  40.872   4.338   2.387
94628W        W67042  20.557  24.225  10.901
94629W        W67043  38.855  19.729  10.491
94630W        W67044  11.780   3.802  14.877
94631W        W67045  27.102  29.445   0.754
94632W        W67046  16.600  23.100   1.210
94633W        W67047  39.938  15.130  10.998
94634W        W67048   1.365   9.843   3.241
94635W        W67049  29.451  28.594  11.409
94636W        W67050  35.385  36.982   3.771
94637W        W67051  41.847  20.252  11.955
94638W        W67052  32.434  38.449   4.259
94639W        W67053  34.522  33.052   2.843
94640W        W67054  18.188   5.731   4.672
94641W        W67055  42.822   2.268   2.802
94642W        W67056   0.301  39.040  11.957
94643W        W67057  27.479  18.764   2.232
94644W        W67058   1.251  17.620  12.069
94645W        W67059  42.029  40.919  10.517
94646W        W67060  34.485  37.051  11.028
94647W        W67061  33.576   0.922  13.473
94648W        W67062  34.526   1.939   4.648
94649W        W67063  43.839   3.890  12.947
94650W        W67064  27.672  32.530   3.806
94651W        W67065   3.803  17.146   2.827
94652W        W67066  44.962  18.574   0.413
94653W        W67067  34.577  21.625  13.437
94654W        W67068  36.901  16.691   1.876
94655W        W67069  28.109  22.523  12.458
94656W        W67070  13.643  26.114  11.874
94657W        W67071  37.581   0.936   1.380
94658W        W67072  35.518  12.856  11.868
94659W        W67073  37.336  18.656   0.320
94660W        W67074  24.054  39.985  12.052
94661W        W67075  14.698  30.569  14.483
94662W        W67076  31.525  39.372   1.781
94663W        W67077  36.453   8.369  12.567
94664W        W67078  30.046  41.526  12.929
94665W        W67079  39.410  41.904  11.494
94666W        W67080  18.668  39.535  12.349
94667W        W67081  15.738  13.214   2.266
94668W        W67082  25.083  31.487   0.934
94669W        W67083  19.206  44.380  14.894
94670W        W67084  44.985  26.626   0.320
94671W        W67085  41.383  24.498   0.307
94672W        W67086  25.141  16.077   5.251
94673W        W67087  44.307  35.597   3.252
94674W        W67088  12.824  15.639  12.446
94675W        W67089  24.588  28.527  11.434
94676W        W67090  25.590  24.484   2.314
94677W        W67091  18.223  10.375   0.454
94678W        W67092  36.458   7.284   3.814
94679W        W67093   9.360  31.549   1.375
94680W        W67094   8.682  20.644   1.273
94681W        W67095   1.255  26.671  11.588
94682W        W67096  22.006  38.382  11.490
94683W        W67097   3.338  21.635   2.418
94684W        W67098  19.285  44.292  11.961
94685W        W67099  27.969  39.327   2.400
94686W        W67100   6.289  38.520   0.831
94687W        W67101  16.704  39.906  14.295
94688W        W67102  24.490  41.344   1.897
94689W        W67103  38.400  39.337   0.453
94690W        W67104   4.357  36.031   2.743
94691W        W67105  36.499   4.768  10.013
94692W        W67106  12.799  21.718  14.943
94693W        W67107  32.071  28.155  11.098
94694W        W67108  14.661  13.193   4.753
94695W        W67109  40.444   3.427  12.034
94696W        W67110  30.100   4.836  13.343
94697W        W67111   6.770  43.373   2.769
94698W        W67112  16.269  32.046   4.657
94699W        W67113   7.707  18.615   1.400
94700W        W67114   7.694  25.595  14.511
94701W        W67115  14.164   7.831  14.768
94702W        W67116  30.514   7.854  11.513
94703W        W67117  24.682  17.245   1.285
94704W        W67118   9.291  39.400   0.429
94705W        W67119  18.169  41.311  10.923
94706W        W67120  31.488  43.428  13.886
94707W        W67121   4.364  31.484   1.309
94708W        W67122   3.848  34.969  10.422
94709W        W67123  42.418  41.490   2.863
94710W        W67124   5.349  19.640  11.958
94711W        W67125  16.262  22.248  10.477
94712W        W67126  43.797  13.286  13.435
94713W        W67127  25.473  19.210  14.445
94714W        W67128  34.100   8.724   2.359
94715W        W67129   8.200   1.845  13.029
94716W        W67130  16.113  28.481  13.366
94717W        W67131   8.234  33.395   3.269
94718W        W67132  23.228  18.266   4.244
94719W        W67133  29.511  28.169  10.637
94720W        W67134  24.138  34.879   2.198
94721W        W67135  29.157  10.161  11.856
94722W        W67136  25.206  21.039  14.509
94723W        W67137  18.233  10.294  10.422
94724W        W67138  21.254  19.646  12.560
94725W        W67139  38.874  35.033   3.200
94726W        W67140   6.919  16.294  11.386
94727W        W67141  31.967  13.755  14.374
94728W        W67142  26.177  19.244   2.790
94729W        W67143  44.896  19.147   4.276
94730W        W67144  29.039  44.865   2.874
94731W        W67145  21.129   3.430  10.591
94732W        W67146  19.080   8.726   0.822
94733W        W67147   3.933  21.756   1.291
94734W        W67148  15.619  43.962   0.774
94735W        W67149   9.701  37.510  14.499
94736W        W67150  22.619  43.823  10.920
94737W        W67151  22.720  35.485   3.250
94738W        W67152  39.472  20.233   4.729
94739W        W67153  38.946  42.359  13.806
94740W        W67154  39.941  29.609  12.533
94741W        W67155  37.870  34.076  12.861
94742W        W67156  31.484  21.604  14.473
94743W        W67157  14.267  23.591   3.161
94744W        W67158  14.642  44.490  13.319
94745W        W67159   2.902  13.838   3.814
94746W        W67160  10.219   3.270   0.398
94747W        W67161  40.369  36.588   0.763
94748W        W67162   7.735  16.149   4.237
94749W        W67163  15.770   3.232   9.957
94750W        W67164  26.185  26.206  14.789
94751W        W67165  37.471   0.435  11.996
94752W        W67166   5.794  29.635   0.311
94753W        W67167  17.144  14.661  14.992
94754W        W67168  38.911  27.960   5.258
94755W        W67169  33.934  26.577  11.084
94756W        W67170  20.529  26.500  14.491
94757W        W67171  16.277  15.142  14.959
94758W        W67172  37.028  38.978   3.833
94759W        W67173  21.557  39.332  11.396
94760W        W67174  19.580  29.634   3.856
94761W        W67175  16.175  41.309  14.006
94762W        W67176   5.272  34.490  14.762
94763W        W67177   5.925  25.991   5.686
94764W        W67178   8.788  32.956   1.896
94765W        W67179  31.118  30.430  10.012
94766W        W67180   6.722  37.887  14.901
94767W        W67181  27.069   4.907   3.809
94768W        W67182   8.805  38.550   0.731
94769W        W67183  24.724  27.482  13.887
94770W        W67184  41.981  21.206  14.769
94771W        W67185  30.947   0.922  13.892
94772W        W67186  15.298  11.302  12.883
94773W        W67187  21.628  16.578   2.862
94774W        W67188  36.864  39.412  12.958
94775W        W67189  30.034  11.146  10.644
94776W        W67190   7.230  26.599   4.229
94777W        W67191  25.129  19.249   2.187
94778W        W67192   0.299  41.948   3.786
94779W        W67193  27.092  39.474  11.480
94780W        W67194  20.125  12.323  13.982
94781W        W67195  30.594  19.680  14.801
94782W        W67196  21.120  27.945   2.843
94783W        W67197  43.965  13.211  11.961
94784W        W67198   8.763   7.710  10.460
94785W        W67199   8.190  21.719  11.068
94786W        W67200  22.693  19.615  14.351
94787W        W67201  25.005  15.665  12.992
94788W        W67202  23.099  41.029   0.377
94789W        W67203  36.876  37.338   4.654
94790W        W67204   9.281  19.626  14.415
94791W        W67205  44.965  37.022  12.897
94792W        W67206   9.792  27.966  14.912
94793W        W67207  24.973  23.091  13.477
94794W        W67208  16.122  12.162   3.785
94795W        W67209   2.806  18.056  10.618
94796W        W67210  38.413  38.873   2.889
94797W        W67211  16.677   2.296  13.836
94798W        W67212  44.943   9.814   2.211
94799W        W67213  29.928  28.069   0.348
94800W        W67214   9.677  23.029   2.180
94801W        W67215  26.086  15.662   2.330
94802W        W67216  22.668  23.125  14.373
94803W        W67217  19.587  16.100   1.387
94804W        W67218   3.905  22.588  11.089
94805W        W67219   5.227   4.910   4.137
94806W        W67220  15.254   1.461   4.720
94807W        W67221  35.078   4.253  12.859
94808W        W67222  13.640  36.504  12.466
94809W        W67223  34.498  24.201   4.251
94810W        W67224  20.207  28.572  11.594
94811W        W67225  26.606   4.375  13.842
94812W        W67226   7.311  10.703  12.934
94813W        W67227  31.627  35.510  13.812
94814W        W67228   8.687  23.557  13.357
94815W        W67229  22.566   3.811  11.413
94816W        W67230  37.410  33.011  11.046
94817W        W67231  30.953  21.237   3.854
94818W        W67232   1.304   6.798   0.855
94819W        W67233   4.711  29.108  10.965
94820W        W67234  28.945  30.418   1.713
94821W        W67235  31.010  32.515  12.860
94822W        W67236  15.203  34.455   3.763
94823W        W67237   8.311   3.943   4.256
94824W        W67238  36.456  29.506   0.874
94825W        W67239  10.727  16.264  14.279
94826W        W67240  33.429  21.561   2.833
94827W        W67241   2.324  14.181   3.189
94828W        W67242   7.207  41.005   3.345
94829W        W67243   8.362  19.167  14.954
94830W        W67244   3.950   2.815  12.346
94831W        W67245  14.096  28.612  13.877
94832W        W67246   7.856  10.290   1.250
94833W        W67247  31.917   5.373  11.433
94834W        W67248  44.452  24.654  11.513
94835W        W67249   1.735   3.776  12.368
94836W        W67250  35.068  14.254   1.408
94837W        W67251   1.474  26.960  11.415
94838W        W67252  19.766   5.439  11.479
94839W        W67253   0.751  13.833  14.006
94840W        W67254  22.737  43.976   0.457
94841W        W67255  12.832   0.248   0.301
94842W        W67256  30.629  34.541  13.884
94843W        W67257  14.690  23.690   0.791
94844W        W67258  15.229  25.087  14.310
94845W        W67259  14.747   8.797   0.352
94846W        W67260  39.029  19.175   1.274
94847W        W67261  11.319  10.306  13.545
94848W        W67262   6.832  24.062  14.027
94849W        W67263  30.629  33.513  10.467
94850W        W67264  21.078  40.018   2.297
94851W        W67265  23.152  20.574   0.885
94852W        W67266   9.363  23.503  12.417
94853W        W67267  19.086  12.319   2.727
94854W        W67268   9.156  34.591  10.591
94855W        W67269  35.036  23.703   4.710
94856W        W67270  40.339  16.276   0.352
94857W        W67271  31.117  26.056  11.551
94858W        W67272   7.361  17.229  11.460
94859W        W67273  24.032  26.006   4.254
94860W        W67274  39.508   5.369  10.603
94861W        W67275  29.436  13.260  11.516
94862W        W67276   0.945  35.370  12.570
94863W        W67277  16.166   7.192   4.692
94864W        W67278  39.821   1.802  10.408
94865W        W67279  13.611  38.568  12.506
94866W        W67280  43.851  39.825  14.903
94867W        W67281  38.896  36.541  13.338
94868W        W67282  29.953  27.469  10.889
94869W        W67283  28.967  14.688  14.758
94870W        W67284  32.417  29.086   4.720
94871W        W67285   3.222  26.018   5.130
94872W        W67286   6.409  26.192  14.798
94873W        W67287  39.400   3.847  13.830
94874W        W67288   6.735   1.943   2.250
94875W        W67289  25.624  21.167  13.889
94876W        W67290  16.701   3.372  10.628
94877W        W67291  37.038   6.355   2.742
94878W        W67292   3.728  19.775   2.753
94879W        W67293  38.982  44.400   2.195
94880W        W67294   4.772   6.728  10.450
94881W        W67295   0.357  28.566   1.436
94882W        W67296  25.026  43.488   5.218
94883W        W67297  24.212  42.892  13.404
94884W        W67298   0.302  40.955   4.688
94885W        W67299  22.074  23.143   1.707
94886W        W67300  15.748   9.160  10.489
94887W        W67301  27.986  18.620  13.335
94888W        W67302  14.689  39.824   1.324
94889W        W67303  21.214   2.875   3.211
94890W        W67304  15.209  20.674  10.533
94891W        W67305  14.654  33.897  11.552
94892W        W67306  37.426   6.810  11.028
94893W        W67307   5.336  43.945   0.302
94894W        W67308  17.245   5.728   0.251
94895W        W67309  18.277  31.091  11.959
94896W        W67310  26.160  24.490  11.567
94897W        W67311  11.137  20.590  14.371
94898W        W67312  28.124  34.880   0.424
94899W        W67313  42.856  23.202  11.085
94900W        W67314  10.877  32.023  14.992
94901W        W67315   9.292  23.598   2.736
94902W        W67316  16.729   0.338   5.262
94903W        W67317  41.329  10.212   4.652
94904W        W67318  25.697  22.705  10.949
94905W        W67319  43.860  18.566   2.391
94906W        W67320  23.558  31.958   5.133
94907W        W67321  40.809   7.389   1.223
94908W        W67322  15.725  34.982  10.468
94909W        W67323  25.966  31.450   0.838
94910W        W67324   4.396  33.469  11.606
94911W        W67325   3.387   6.834  13.401
94912W        W67326   1.966  32.447  12.894
94913W        W67327  42.947  10.685  13.982
94914W        W67328  18.109   9.253   2.703
94915W        W67329  44.288  41.871   3.675
94916W        W67330  13.637  12.797  12.563
94917W        W67331   3.252   1.320   2.401
94918W        W67332  36.943  13.202   4.821
94919W        W67333  36.960  39.013  11.886
94920W        W67334   7.764  41.488   4.607
94921W        W67335  30.449  17.186  11.526
94922W        W67336  18.612  36.381   3.828
94923W        W67337   8.815  11.171   2.367
94924W        W67338   3.247  28.128   5.584
94925W        W67339  17.142  28.445   0.754
94926W        W67340  22.081  14.607  10.889
94927W        W67341  33.501  14.316  10.948
94928W        W67342   5.902  40.996   1.265
94929W        W67343  41.990  17.694  11.588
94930W        W67344   5.832  20.216  10.898
94931W        W67345  10.363  11.797  10.934
94932W        W67346   2.814  12.649  11.585
94933W        W67347  23.046  29.557  13.409
94934W        W67348  35.007  32.430   4.308
94935W        W67349   2.408   0.380   1.771
94936W        W67350   3.451  31.041  10.491
94937W        W67351   4.340  37.516   2.308
94938W        W67352  37.060  24.010  13.978
94939W        W67353  40.035   2.288   0.738
94940W        W67354  16.188  16.215  14.363
94941W        W67355  19.660  21.051   4.314
94942W        W67356  37.915  36.010  10.495
94943W        W67357   2.928  39.964  12.480
94944W        W67358  43.865  33.380  13.330
94945W        W67359  28.150  25.648   0.435
94946W        W67360  29.598  30.611  13.412
94947W        W67361  36.540  21.671  14.873
94948W        W67362  20.604  27.491   3.819
94949W        W67363  11.315  17.172   4.616
94950W        W67364  32.406  21.679  14.490
94951W        W67365   9.366  31.900   3.316
94952W        W67366  16.124  23.591  11.038
94953W        W67367   9.714   4.784  14.911
94954W        W67368  42.842  31.022  11.442
94955W        W67369  23.073  25.027   3.732
94956W        W67370  20.112   8.394  13.327
94957W        W67371   2.926  32.000  11.874
94958W        W67372   6.204   3.872   1.736
94959W        W67373  29.072  34.410  14.838
94960W        W67374  13.200  38.957  13.388
94961W        W67375   2.883  36.005  10.513
94962W        W67376   3.262  29.026   1.866
94963W        W67377  22.138  25.198   3.346
94964W        W67378  35.891   6.908  11.506
94965W        W67379  43.819  11.298   3.214
94966W        W67380   2.270  33.944  14.775
94967W        W67381  12.698   3.719   3.197
94968W        W67382  20.659  21.605  12.523
94969W        W67383  10.812  38.987   0.254
94970W        W67384  12.355  10.638  12.418
94971W        W67385  16.604  33.526  12.960
94972W        W67386   0.960   4.909   1.756
94973W        W67387   2.927   4.771   0.428
94974W        W67388  13.845  23.228  13.311
94975W        W67389  37.426  37.421  14.436
94976W        W67390  13.727  18.684   4.754
94977W        W67391  33.894  30.945  11.512
94978W        W67392  21.104   9.232   0.914
94979W        W67393  24.717  16.119   5.573
94980W        W67394   6.842  41.442  13.499
94981W        W67395  43.888   9.804   4.183
94982W        W67396  29.980  33.932   3.154
94983W        W67397   7.182  12.175  14.402
94984W        W67398  35.599  24.489  12.444
94985W        W67399  10.737  20.541   3.326
94986W        W67400  35.048  20.060  14.473
94987W        W67401   6.790  27.687   4.798
94988W        W67402   2.767  31.108  12.438
94989W        W67403   0.920  40.988   4.750
94990W        W67404  12.690  20.630   1.921
94991W        W67405  34.062  14.826  10.949
94992W        W67406  28.086   8.866   1.756
94993W        W67407   3.900  15.808   0.861
94994W        W67408  14.616  15.688   4.233
94995W        W67409   4.235  32.522   4.701
94996W        W67410  33.904  30.647   1.395
94997W        W67411  10.781  35.054  13.348
94998W        W67412   5.223   6.264  14.788
94999W        W67413  27.576  22.677  11.990
95000W        W67414  13.667   9.694  10.602
95001W        W67415  44.920  13.151  12.517
95002W        W67416  43.975  12.834   2.744
95003W        W67417  21.549  26.698   5.277
95004W        W67418   2.310  41.002  11.924
95005W        W67419  25.975   7.322   2.817
95006W        W67420  10.311   7.384  12.494
95007W        W67421  16.622   8.191   2.820
95008W        W67422   7.378  23.179  11.096
95009W        W67423   8.207   6.801   2.315
95010W        W67424  16.239  17.555   3.373
95011W        W67425  20.158  42.421  11.392
95012W        W67426  30.925  14.617  12.454
95013W        W67427  23.531   6.239   1.333
95014W        W67428   5.880  25.547   1.916
95015W        W67429  40.967  36.549  12.414
95016W        W67430   4.209  37.356   3.343
95017W        W67431  38.061  16.608   4.670
95018W        W67432  34.002   4.286   4.816
95019W        W67433   7.299  44.348   3.675
95020W        W67434  16.568  27.687  14.804
95021W        W67435   7.895   4.424   4.304
95022W        W67436  16.232  36.944  13.054
95023W        W67437   9.250  23.137  11.080
95024W        W67438  15.601  19.768  11.567
95025W        W67439  28.598  38.998  12.491
95026W        W67440  12.614  12.618   2.292
95027W        W67441  31.127   3.304   3.349
95028W        W67442  38.063   9.709   4.190
95029W        W67443  31.904  15.773  11.929
95030W        W67444  21.017   9.171   3.186
95031W        W67445   9.647  26.553  10.496
95032W        W67446  29.964  19.560  12.886
95033W        W67447   8.377  29.992   0.875
95034W        W67448  19.150  29.052  14.277
95035W        W67449  20.583  42.032   4.697
95036W        W67450   0.881  20.080  11.447
95037W        W67451  33.060  17.784   0.814
95038W        W67452  25.062  26.639   3.162
95039W        W67453  25.477  12.240  14.466
95040W        W67454  22.169  43.399   3.311
95041W        W67455  20.198  13.727   4.120
95042W        W67456  31.491   0.775   1.303
95043W        W67457   3.953  33.923   2.710
95044W        W67458  13.297   3.423  10.410
95045W        W67459   4.885  28.961   5.174
95046W        W67460  36.354  33.095  13.347
95047W        W67461   8.370  18.771  11.928
95048W        W67462  27.120   3.907   3.242
95049W        W67463  42.347  33.916  11.937
95050W        W67464  14.319  22.722   0.425
95051W        W67465  28.563   7.215   4.740
95052W        W67466  39.476  40.494   4.154
95053W        W67467  31.045  27.635   1.908
95054W        W67468  20.668  35.426  13.416
95055W        W67469  18.637   0.782   4.230
95056W        W67470  36.444  11.629  13.310
95057W        W67471   3.726  27.511   0.312
95058W        W67472  40.886  31.443   4.239
95059W        W67473  29.163  22.614   3.371
95060W        W67474   5.202  39.340   3.278
95061W        W67475  36.371  12.673  11.579
95062W        W67476  20.110  32.029   0.949
95063W        W67477  39.480  10.662   1.739
95064W        W67478   1.478  40.484   3.736
95065W        W67479  43.297  36.573   1.750
95066W        W67480  12.120  14.219  13.309
95067W        W67481  29.100  44.862   4.838
95068W        W67482  32.907  32.548  12.016
95069W        W67483  30.111   1.301   0.902
95070W        W67484  39.541  12.764   3.357
95071W        W67485  37.351  28.581   4.804
95072W        W67486  10.137  21.564   4.193
95073W        W67487  26.177  26.693   2.888
95074W        W67488   3.917  16.761  14.871
95075W        W67489  24.212   5.688   0.480
95076W        W67490  16.778  38.875   0.818
95077W        W67491   3.458  25.514  10.454
95078W        W67492  43.447  26.554   1.271
95079W        W67493  42.325  43.507  13.998
95080W        W67494   9.328   1.251   0.953
95081W        W67495  14.698   4.705   2.771
95082W        W67496  13.251  25.586   0.328
95083W        W67497  29.490  30.584   3.156
95084W        W67498  36.551  28.516  12.531
95085W        W67499   0.896  33.878  13.503
95086W        W67500  14.691   9.170   3.310
95087W        W67501  30.124  11.733   1.223
95088W        W67502  14.612  20.730  14.867
95089W        W67503  30.946   9.770  10.461
95090W        W67504   1.936  25.702   2.356
95091W        W67505  28.574   8.233  12.393
95092W        W67506  42.442  34.869   2.836
95093W        W67507  44.375  36.960  14.386
95094W        W67508   9.234   1.432  12.468
95095W        W67509  26.058  13.799  12.426
95096W        W67510  25.205  34.864   1.856
95097W        W67511   1.307  12.137   1.818
95098W        W67512  41.455  35.381   2.901
95099W        W67513  26.040   3.330   3.755
95100W        W67514  11.134  33.500   1.786
95101W        W67515  39.353   8.786   2.309
95102W        W67516  42.886  30.059   2.698
95103W        W67517   3.773   0.431   3.821
95104W        W67518  38.383  18.780  14.768
95105W        W67519   6.334  30.100   1.922
95106W        W67520  41.526  19.630  13.337
95107W        W67521  41.856  31.912   2.792
95108W        W67522  26.154   6.703   4.808
95109W        W67523  19.130  12.804   1.415
95110W        W67524   4.784   4.939   4.308
95111W        W67525  25.072  37.070   2.858
95112W        W67526   7.253  20.758  11.885
95113W        W67527  25.173   0.266   0.949
95114W        W67528   2.386  44.942   2.803
95115W        W67529   1.909  27.157  13.039
95116W        W67530   8.324  34.422  11.573
95117W        W67531  39.325   4.336  14.855
95118W        W67532  30.150   1.337   2.889
95119W        W67533  39.331  23.231   2.866
95120W        W67534  40.935  32.937   1.733
95121W        W67535  20.097  34.454   2.667
95122W        W67536  30.495  39.986  12.039
95123W        W67537  25.651  38.953   2.400
95124W        W67538   2.790  28.991   4.145
95125W        W67539  32.049   8.773   0.944
95126W        W67540   3.829  43.493  11.372
95127W        W67541  39.831  10.192  13.825
95128W        W67542  25.705  25.195  10.430
95129W        W67543   2.241   7.696   3.218
95130W        W67544   2.803  24.142   3.662
95131W        W67545  34.511   9.818   0.331
95132W        W67546  28.554   7.395  10.527
95133W        W67547  42.908   3.924   0.357
95134W        W67548  27.451   7.690  11.066
95135W        W67549  20.688  32.540   2.325
95136W        W67550  36.048  35.595   1.930
95137W        W67551  42.817   2.954  12.849
95138W        W67552  23.114  10.201  10.965
95139W        W67553  35.507   6.399  11.896
95140W        W67554  23.074   6.853  14.436
95141W        W67555  30.162  23.634   1.773
95142W        W67556   1.904  37.863  11.433
95143W        W67557   0.330  18.262  14.455
95144W        W67558   2.317   2.263   0.411
95145W        W67559  19.680  16.756   0.345
95146W        W67560   7.843  36.468  12.868
95147W        W67561   0.427  37.946   4.257
95148W        W67562  27.452  20.112  14.822
95149W        W67563   9.340  31.483  14.993
95150W        W67564  39.018   3.319   4.277
95151W        W67565  16.766  20.563   4.783
95152W        W67566   1.457  41.369   1.911
95153W        W67567  21.186  39.012  12.440
95154W        W67568  37.576   9.185  14.428
95155W        W67569  22.510  29.669   0.254
95156W        W67570  22.687  20.658  10.456
95157W        W67571  32.955   8.742  12.872
95158W        W67572  28.149   5.306  12.545
95159W        W67573  35.065  44.846   2.707
95160W        W67574  29.506  18.281   2.838
95161W        W67575  16.153  35.882   4.751
95162W        W67576  24.479  23.608   1.722
95163W        W67577  18.134   5.345   1.305
95164W        W67578  24.580  12.317   4.657
95165W        W67579  17.104  11.768  11.558
95166W        W67580  28.938   9.327   0.886
95167W        W67581  15.732   5.720   2.811
95168W        W67582  27.516  15.313  13.061
95169W        W67583  43.449  28.967   0.472
95170W        W67584  28.086  34.561  13.462
95171W        W67585  27.598  20.230   1.738
95172W        W67586  29.152  14.212  11.439
95173W        W67587   8.187  41.913  11.985
95174W        W67588  39.976  20.138   2.250
95175W        W67589  41.905  25.996  13.874
95176W        W67590  41.879   6.923  11.030
95177W        W67591  38.973  40.377  14.361
95178W        W67592  12.149  14.686   0.298
95179W        W67593  37.916   7.830   4.693
95180W        W67594  16.313   1.886   2.385
95181W        W67595  44.884  17.654   0.456
95182W        W67596  17.247  41.440   5.094
95183W        W67597  13.735  24.627   2.203
95184W        W67598   8.732  36.425   0.473
95185W        W67599   8.694  36.545   4.247
95186W        W67600  37.564  32.062  14.476
95187W        W67601  42.516   1.816  12.870
95188W        W67602   7.367   6.677  14.842
95189W        W67603  35.542   2.344  13.547
95190W        W67604  42.362   5.721  12.839
95191W        W67605  10.730   8.358   2.892
95192W        W67606   6.268  42.834  11.982
95193W        W67607  42.410  42.305   2.838
95194W        W67608  21.023  15.227   0.440
95195W        W67609  43.981  21.044  11.385
95196W        W67610  24.609  31.959   1.262
95197W        W67611  34.096  23.005   4.814
95198W        W67612  37.453  24.175  14.964
95199W        W67613  33.574  25.557   5.130
95200W        W67614  20.701  27.450   2.817
95201W        W67615   1.972  31.950   5.271
95202W        W67616  24.993  19.078   0.946
95203W        W67617  37.077  37.951   3.233
95204W        W67618  38.042  31.126  11.391
95205W        W67619  20.232  25.475   4.667
95206W        W67620  31.117  16.701  11.947
95207W        W67621  35.887  28.439   0.958
95208W        W67622  18.761  32.003  11.604
95209W        W67623  41.415  32.547   1.882
95210W        W67624  30.039  40.510  10.949
95211W        W67625  24.112  44.451   4.290
95212W        W67626  29.588  40.927  11.123
95213W        W67627  34.920  44.901   1.831
95214W        W67628   2.473  26.007  12.028
95215W        W67629  14.196   6.697   5.138
95216W        W67630  41.880  22.551   2.382
95217W        W67631  19.542  45.000  14.410
95218W        W67632  42.018  40.505  10.563
95219W        W67633  18.218  16.568   2.315
95220W        W67634  13.633  18.149   2.320
95221W        W67635   7.259  28.058   0.794
95222W        W67636   2.425  28.653  11.033
95223W        W67637  34.867   9.269   4.335
95224W        W67638  14.173  43.935  11.603
95225W        W67639  40.527   7.841   1.343
95226W        W67640   2.468  36.091  10.586
95227W        W67641  41.367  22.638   3.379
95228W        W67642  43.966  28.441   3.170
95229W        W67643   1.839  44.400   4.779
95230W        W67644  20.228  37.940  12.394
95231W        W67645  14.690  24.483  11.525
95232W        W67646  31.057  42.342  11.881
95233W        W67647   9.335   6.204  13.325
95234W        W67648  40.536  17.562  12.439
95235W        W67649  36.093   3.362   2.212
95236W        W67650   4.753  25.055   4.763
95237W        W67651  28.547  11.320  12.823
95238W        W67652   7.363   8.812  14.911
95239W        W67653  16.760  14.334   3.261
95240W        W67654  41.805  37.978  11.604
95241W        W67655   5.252   4.299   4.604
95242W        W67656  14.173  42.811  13.854
95243W        W67657   4.843   4.343   4.216
95244W        W67658  25.123   6.719  10.620
95245W        W67659  44.421   3.344  13.925
95246W        W67660  38.467  16.150   3.200
95247W        W67661  41.992  32.098  14.781
95248W        W67662   9.654   3.781  13.392
95249W        W67663  31.918  15.198   0.818
95250W        W67664  25.616  12.637  12.354
95251W        W67665   8.865  21.524  12.081
95252W        W67666   7.857  40.405  12.569
95253W        W67667  31.974  14.793   1.282
95254W        W67668  33.612  34.870  10.569
95255W        W67669   2.772   0.284  10.609
95256W        W67670   0.890  14.140   0.829
95257W        W67671  12.783  32.984   1.860
95258W        W67672  12.144  44.480  12.494
95259W        W67673  39.438  14.794   2.255
95260W        W67674  27.971  36.008   1.738
95261W        W67675   2.792  28.975  10.578
95262W        W67676   2.400  25.653   2.290
95263W        W67677  32.442  33.563   4.837
95264W        W67678  28.531  41.533  11.966
95265W        W67679   3.378  25.585   4.611
95266W        W67680  24.114  44.374   1.762
95267W        W67681  19.176  12.621   3.299
95268W        W67682  24.111  27.498  14.348
95269W        W67683  20.755  34.919  11.515
95270W        W67684  33.979  29.660  14.999
95271W        W67685  43.008  27.167   4.719
95272W        W67686   5.905   9.344   4.281
95273W        W67687  39.509  16.142   2.815
95274W        W67688   1.798  35.898   3.810
95275W        W67689  17.110  19.601   5.163
95276W        W67690   3.311  23.608   1.376
95277W        W67691  35.984   9.684   1.789
95278W        W67692  33.615  38.016  12.876
95279W        W67693  37.979  23.518   1.268
95280W        W67694   0.864  27.980   0.349
95281W        W67695   9.802   0.925   3.799
95282W        W67696  36.575   3.912   1.246
95283W        W67697  39.400  11.364  11.536
95284W        W67698  24.573   3.244   3.832
95285W        W67699  26.521  22.235   1.935
95286W        W67700  35.051  11.245  13.543
95287W        W67701  35.453   4.942  13.405
95288W        W67702  10.644   9.679  12.090
95289W        W67703   9.236  33.590  11.579
95290W        W67704   6.254  11.196   0.965
95291W        W67705  27.156  12.720   4.809
95292W        W67706  13.231  10.232  14.501
95293W        W67707   4.295  41.956  11.120
95294W        W67708  21.650   9.760   2.685
95295W        W67709  22.141  29.614  11.461
95296W        W67710  22.050  40.948   3.712
95297W        W67711   4.391  31.150  11.546
95298W        W67712  22.582  43.772  12.069
95299W        W67713  17.175  32.436  14.485
95300W        W67714  41.916  29.617  14.003
95301W        W67715  42.851  42.412   1.711
95302W        W67716  19.705  16.797  11.384
95303W        W67717  36.447   0.890  13.969
95304W        W67718  12.292  27.532   1.346
95305W        W67719  10.651  29.476   9.991
95306W        W67720  40.318   0.440  12.353
95307W        W67721  30.997   6.847  14.305
95308W        W67722  11.660   0.885   1.390
95309W        W67723  14.599  39.349   2.340
95310W        W67724  25.479  44.821   2.775
95311W        W67725  17.171  44.955   1.245
95312W        W67726  44.882  15.651  14.897
95313W        W67727   7.677  20.045  13.404
95314W        W67728   1.941  26.039  11.517
95315W        W67729  11.282  23.147   2.241
95316W        W67730  22.227  42.961  13.899
95317W        W67731  35.473  37.544   1.304
95318W        W67732  41.358  26.570   0.962
95319W        W67733  33.462  21.540   9.989
95320W        W67734   7.690  18.197   3.683
95321W        W67735  18.255   0.967  14.850
95322W        W67736  24.047  26.055  14.481
95323W        W67737  44.343  37.841   0.891
95324W        W67738  37.348  23.133  12.899
95325W        W67739  34.015  37.405  12.835
95326W        W67740  15.704  40.911   1.838
95327W        W67741  12.766  24.040  12.849
95328W        W67742   3.410  42.023   2.372
95329W        W67743  29.456  42.778   2.790
95330W        W67744  32.634  36.425   3.672
95331W        W67745  32.397  33.613   1.755
95332W        W67746  30.118  21.086   4.284
95333W        W67747  42.933   6.386   4.638
95334W        W67748  23.187  26.110   0.884
95335W        W67749  12.748  19.261  10.922
95336W        W67750  44.271  10.775   0.467
95337W        W67751  14.267  37.472   0.456
95338W        W67752  42.434  30.938  13.456
95339W        W67753  21.730  30.967   0.332
95340W        W67754  30.530  19.583  10.505
95341W        W67755   3.838  28.952   3.337
95342W        W67756  38.392  40.932  14.802
95343W        W67757  37.492   4.940  14.411
95344W        W67758   1.786  35.955  13.384
95345W        W67759  29.614   4.231  14.965
95346W        W67760   5.252  25.125   4.768
95347W        W67761  41.939   5.255  13.870
95348W        W67762  41.826  37.877   4.340
95349W        W67763   7.227  39.480  14.775
95350W        W67764   6.263   3.385   3.802
95351W        W67765  24.028  13.785  13.352
95352W        W67766  39.895  15.675   0.825
95353W        W67767   5.258  43.766  12.497
95354W        W67768  30.071   9.760   0.748
95355W        W67769  22.576  15.126  11.493
95356W        W67770   2.825  39.012   0.906
95357W        W67771  11.355  28.077   3.738
95358W        W67772  10.771  25.997  13.504
95359W        W67773  17.182  15.144  14.441
95360W        W67774  44.354   4.762   1.394
95361W        W67775  44.987   9.885  10.941
95362W        W67776   1.389  31.032  10.422
95363W        W67777  20.698   5.241  14.335
95364W        W67778  26.524  40.376  14.465
95365W        W67779   5.934   9.168  10.434
95366W        W67780  40.474  26.114  12.361
95367W        W67781   5.830   4.732  13.857
95368W        W67782  39.386  42.971   4.258
95369W        W67783  37.361  36.042   5.594
95370W        W67784  33.125   0.271   3.755
95371W        W67785  40.023  16.274  11.417
95372W        W67786  22.568  31.425  10.426
95373W        W67787  13.663   1.895   4.350
95374W        W67788   8.823  31.507  12.339
95375W        W67789   2.733  33.102  14.774
95376W        W67790  15.667  32.083  10.497
95377W        W67791   5.831  40.465  12.036
95378W        W67792   9.648   6.802  12.437
95379W        W67793  21.060  16.194  11.561
95380W        W67794  37.454   7.884   2.671
95381W        W67795  31.958   3.778  13.793
95382W        W67796   3.822  10.204  10.427
95383W        W67797  22.503  44.915   1.385
95384W        W67798  34.432  17.171  12.904
95385W        W67799  38.531  30.065   3.777
95386W        W67800  37.045  28.028   0.728
95387W        W67801  32.623  39.358   3.256
95388W        W67802  20.681   2.960   0.359
95389W        W67803   6.714  23.232   3.846
95390W        W67804  22.573  24.619   3.779
95391W        W67805  36.377  19.661  10.419
95392W        W67806   0.811  42.417   0.918
95393W        W67807  31.064  10.704  11.965
95394W        W67808  28.053  21.157  13.412
95395W        W67809  36.478  15.700   4.757
95396W        W67810  33.126  41.492  14.950
95397W        W67811   1.793  16.236   3.832
95398W        W67812  28.502  20.528  11.092
95399W        W67813  28.943  20.243  14.005
95400W        W67814  11.837  20.688  11.501
95401W        W67815  31.504  31.973   0.772
95402W        W67816  34.956   3.938  10.430
95403W        W67817   0.976  13.607   3.245
95404W        W67818  28.017  37.024  12.078
95405W        W67819  25.052  40.878   0.265
95406W        W67820  37.992  29.450   3.832
95407W        W67821  13.329  25.589  10.630
95408W        W67822  29.092   0.471  12.879
95409W        W67823  30.588   5.833   3.266
95410W        W67824   9.254  36.972  10.538
95411W        W67825  26.593  39.993   1.404
95412W        W67826  29.033  21.197  14.478
95413W        W67827  41.497  32.496   4.230
95414W        W67828  32.047  13.749   1.802
95415W        W67829  17.556  26.589   1.359
95416W        W67830  32.547  30.005  13.848
95417W        W67831  30.941  38.423  11.089
95418W        W67832  16.617  12.361  12.006
95419W        W67833  16.102  13.293  10.454
95420W        W67834  24.168   2.373  10.893
95421W        W67835  25.602  34.864  12.830
95422W        W67836   2.229  30.465   4.166
95423W        W67837   2.907  20.591  13.453
95424W        W67838   2.881  35.553   2.790
95425W        W67839  17.223  39.816  12.430
95426W        W67840  28.034  39.455  13.049
95427W        W67841  22.554  31.024   1.866
95428W        W67842  30.579   9.350  13.431
95429W        W67843  44.960  32.060   4.164
95430W        W67844   9.698  36.509  13.934
95431W        W67845  16.110  42.411  12.482
95432W        W67846   6.910  25.213  13.370
95433W        W67847  29.015  30.443  12.915
95434W        W67848  13.173  16.206  13.801
95435W        W67849   7.824  23.531   1.889
95436W        W67850  26.083  31.128  10.590
95437W        W67851  43.334  29.114   0.925
95438W        W67852  33.492  31.006   2.208
95439W        W67853  24.503  40.027   3.727
95440W        W67854   6.808   2.326  14.305
95441W        W67855  12.634  22.074   0.958
95442W        W67856  34.984  36.086  11.942
95443W        W67857  16.570  44.374   0.279
95444W        W67858  21.046  32.104  11.071
95445W        W67859  26.981  11.161  12.512
95446W        W67860   3.215  43.431  10.549
95447W        W67861   4.414  16.577  11.421
95448W        W67862  13.628  17.064  13.361
95449W        W67863  24.565  33.016   1.904
95450W        W67864  37.381  35.055  12.480
95451W        W67865  34.490  13.659  11.599
95452W        W67866  39.440  37.886   4.266
95453W        W67867   0.336  21.725  12.452
95454W        W67868  38.976   3.849   3.770
95455W        W67869  16.750   4.409   3.830
95456W        W67870  44.887  21.624   4.285
95457W        W67871  40.820  30.483  13.399
95458W        W67872  34.899  11.724  13.349
95459W        W67873  43.954   4.273   0.830
95460W        W67874   6.351  24.174   1.407
95461W        W67875  24.063  44.379  10.434
95462W        W67876  18.603   3.334  13.493
95463W        W67877  23.230  21.230   2.355
95464W        W67878  17.259  35.548   2.183
95465W        W67879   2.919  17.689   1.241
95466W        W67880  31.912  35.546  14.332
95467W        W67881   9.302   2.306   3.259
95468W        W67882  35.083   4.271   0.376
95469W        W67883  44.974   6.719  12.471
95470W        W67884  18.231  30.136   2.870
95471W        W67885  30.127  15.615   1.305
95472W        W67886   2.813   5.761   2.341
95473W        W67887  30.613  15.640   2.392
95474W        W67888   6.777  36.063  13.896
95475W        W67889  33.045  38.828   1.265
95476W        W67890  16.178   3.290  11.577
95477W        W67891   9.834  36.552   0.341
95478W        W67892  12.275  13.202   0.357
95479W        W67893  38.901  37.365   3.181
95480W        W67894  12.119  15.092  11.605
95481W        W67895   4.240  10.242   2.882
95482W        W67896   3.907  43.474   2.822
95483W        W67897   1.893  36.549   5.181
95484W        W67898  15.245  27.189  14.333
95485W        W67899   1.288  26.020   1.223
95486W        W67900   4.931  14.822  12.477
95487W        W67901   9.252   4.888   3.215
95488W        W67902  28.999   9.357  10.913
95489W        W67903  23.537  39.519  11.122
95490W        W67904  26.009  23.031   0.481
95491W        W67905  29.597  39.339  11.564
95492W        W67906  44.317  41.906   0.255
95493W        W67907  19.120  44.919  12.491
95494W        W67908  23.544  40.404  14.421
95495W        W67909  12.127   5.800   0.800
95496W        W67910  12.732   0.360   2.897
95497W        W67911   8.882  35.493   1.303
95498W        W67912   1.858   3.730   3.786
95499W        W67913  22.641  23.209  12.967
95500W        W67914   3.377  11.639  14.799
95501W        W67915  11.162  22.159  12.040
95502W        W67916  10.252   7.805  14.003
95503W        W67917  31.536  37.574   2.389
95504W        W67918  39.438  36.454  13.046
95505W        W67919  27.940  36.553  11.536
95506W        W67920  35.856  10.735  14.445
95507W        W67921   2.759   3.926   0.776
95508W        W67922  35.435  26.129  12.881
95509W        W67923  17.200  36.913   3.323
95510W        W67924   0.452  42.969  13.994
95511W        W67925  10.687  33.067  11.076
95512W        W67926   9.728   0.322  11.449
95513W        W67927  19.672  25.606  10.495
95514W        W67928   5.783  40.040   1.219
95515W        W67929  13.268  16.775   3.147
95516W        W67930  29.538  40.343   4.745
95517W        W67931  23.040  35.584  11.445
95518W        W67932  19.652  44.966  11.499
95519W        W67933  44.838  25.620  10.509
95520W        W67934  12.841  30.643  12.425
95521W        W67935  22.156  12.812   3.194
95522W        W67936  28.051  24.147   3.718
95523W        W67937  10.198  32.588  10.547
95524W        W67938  27.970  44.990  13.368
95525W        W67939   7.681  30.637   0.303
95526W        W67940  37.050  25.478   0.387
95527W        W67941  24.086  22.714  11.952
95528W        W67942  30.946  10.685  11.015
95529W        W67943  12.244  28.481  14.428
95530W        W67944  42.349   0.974  14.481
95531W        W67945  19.154  39.861  12.401
95532W        W67946  14.296   8.200  13.957
95533W        W67947  33.390  44.305  13.363
95534W        W67948  19.105  44.379   3.218
95535W        W67949  14.234  21.727   4.315
95536W        W67950  21.579  40.521   0.357
95537W        W67951  33.057  19.747   1.429
95538W        W67952  13.297  30.564  11.524
95539W        W67953  34.550  16.091   3.765
95540W        W67954  17.299  28.027  10.149
95541W        W67955  11.855  27.959   5.242
95542W        W67956   2.430  18.683  14.956
95543W        W67957   3.803  26.481  14.392
95544W        W67958   4.389  36.926  11.548
95545W        W67959  37.411   2.737   2.276
95546W        W67960  40.466   1.276   0.323
95547W        W67961   6.418  28.585  11.477
95548W        W67962  44.777  28.571  11.504
95549W        W67963  44.999   0.941   0.482
95550W        W67964  21.636  10.653  13.320
95551W        W67965  41.441  17.080  14.939
95552W        W67966  15.113  44.344  12.052
95553W        W67967  16.206  19.254   9.651
95554W        W67968   1.960  20.208  14.776
95555W        W67969  36.022  32.041  12.399
95556W        W67970   8.345   6.357   1.881
95557W        W67971  20.143  10.684   1.291
95558W        W67972  27.150   5.379  10.504
95559W        W67973  42.907  14.298  12.358
95560W        W67974   6.271   5.702  12.941
95561W        W67975  33.564  10.679   3.337
95562W        W67976  29.663   1.771  13.033
95563W        W67977  36.909  11.255  10.963
95564W        W67978  15.307   3.892   0.280
95565W        W67979  26.510  10.833   2.256
95566W        W67980  33.877  41.904  11.611
95567W        W67981  26.110  19.695   1.855
95568W        W67982  33.469   2.904   9.952
95569W        W67983  32.491   3.866  14.884
95570W        W67984  25.077  30.142   3.375
95571W        W67985  44.811   6.256   2.708
95572W        W67986  20.756   6.325  13.410
95573W        W67987  44.491   1.955  13.513
95574W        W67988  37.085  33.979   2.869
95575W        W67989  15.182  19.209  13.500
95576W        W67990  15.127   2.289   4.117
95577W        W67991   6.718  37.563  14.830
95578W        W67992  26.529  32.414   2.678
95579W        W67993  40.000  14.239  14.858
95580W        W67994  24.204  40.418  13.859
95581W        W67995   2.747  15.318   2.370
95582W        W67996   6.372   9.226  13.840
95583W        W67997   3.426  32.457  13.952
95584W        W67998  21.641   1.803   3.679
95585W        W67999   6.759  28.567  12.514
95586W        W68000   0.828  37.362  13.364
95587W        W68001  19.660   0.306  14.342
95588W        W68002  40.043  12.240  11.397
95589W        W68003  21.099   1.759   2.267
95590W        W68004  22.215  24.492   4.354
95591W        W68005  15.613  40.850   1.360
95592W        W68006  21.068  26.577  11.987
95593W        W68007  12.630  15.749   0.772
95594W        W68008   4.291  17.298  12.969
95595W        W68009  37.550   2.316  11.021
95596W        W68010  24.698  22.648  14.932
95597W        W68011  36.985   8.187  13.370
95598W        W68012  42.377  28.471  11.009
95599W        W68013  25.623  37.353  13.496
95600W        W68014  24.026  42.325  12.370
95601W        W68015  28.601   2.953   0.457
95602W        W68016  36.904  25.063   3.784
95603W        W68017  33.003  34.608  11.974
95604W        W68018  16.635  38.858  11.107
95605W        W68019  25.092  27.153  11.089
95606W        W68020  34.577  38.949   2.254
95607W        W68021  32.946  22.686   1.784
95608W        W68022   0.832   2.895   4.237
95609W        W68023  31.992   3.453   3.843
95610W        W68024  17.103   9.804  12.834
95611W        W68025  28.676  14.321  12.976
95612W        W68026  18.250  40.016   0.293
95613W        W68027  39.348  42.398   2.765
95614W        W68028  26.698  22.514  12.044
95615W        W68029   5.390   8.777  14.027
95616W        W68030  22.592   2.331   2.773
95617W        W68031   2.908   4.209  10.587
95618W        W68032  14.252  12.822  12.349
95619W        W68033  13.314  34.902   4.143
95620W        W68034  24.530   4.894   3.225
95621W        W68035  29.076  35.897   4.682
95622W        W68036  14.728  30.630   4.315
95623W        W68037   2.947  26.677   9.963
95624W        W68038  14.294  32.119  14.473
95625W        W68039   0.976  13.748  11.953
95626W        W68040   7.769  23.520  13.348
95627W        W68041  24.097  26.671  14.865
95628W        W68042   1.262  28.637  13.857
95629W        W68043   7.814  42.487  10.457
95630W        W68044  20.161  23.532  13.908
95631W        W68045  35.423  23.599   5.146
95632W        W68046   5.231  36.090  14.941
95633W        W68047  14.698  33.423   3.287
95634W        W68048  39.992  11.761   4.673
95635W        W68049  11.728  32.587   4.200
95636W        W68050  35.582   9.696  11.007
95637W        W68051  19.697  31.907   2.861
95638W        W68052   5.709  44.357   0.908
95639W        W68053  26.500   3.770  12.438
95640W        W68054  22.551   1.287  13.950
95641W        W68055   0.407  41.944   0.874
95642W        W68056  29.485   7.896  12.839
95643W        W68057  21.723  23.104   3.342
95644W        W68058  11.643  27.947  11.480
95645W        W68059  21.062  28.584  14.772
95646W        W68060  30.038  26.178  14.312
95647W        W68061  33.520  33.106  14.334
95648W        W68062  27.546  12.643  11.123
95649W        W68063  26.116   7.792   2.880
95650W        W68064  12.727   3.322   2.200
95651W        W68065  17.675   7.179   4.220
95652W        W68066  11.237  34.086   1.879
95653W        W68067   5.291  35.053   1.225
95654W        W68068   1.391  10.868   2.878
95655W        W68069  32.932  23.599   9.460
95656W        W68070   5.207  30.555  12.498
95657W        W68071  29.449  34.457  11.867
95658W        W68072  36.517  34.376  12.545
95659W        W68073  30.659  22.733  12.882
95660W        W68074   9.304  34.460   0.315
95661W        W68075   7.265  42.924   0.282
95662W        W68076  17.151  29.654   1.880
95663W        W68077  40.530   0.474   3.181
95664W        W68078  42.431  44.807  13.810
95665W        W68079  22.501  40.902  12.530
95666W        W68080  20.575  32.575  13.810
95667W        W68081   5.406  39.957   1.786
95668W        W68082   4.791  32.034   0.287
95669W        W68083  11.715  27.598   2.766
95670W        W68084   3.945   3.317  13.861
95671W        W68085  17.102   3.328   2.669
95672W        W68086   4.936  35.362  12.500
95673W        W68087  36.058  37.957  14.486
95674W        W68088   3.888  41.025  13.868
95675W        W68089  35.372  29.142   0.927
95676W        W68090   3.349  15.199   2.663
95677W        W68091   5.344  13.319  11.008
95678W        W68092  17.180  32.019   0.766
95679W        W68093  14.134  13.816   3.804
95680W        W68094  28.587   6.885  10.976
95681W        W68095  27.504   6.393   1.878
95682W        W68096  26.978   7.755  11.409
95683W        W68097   1.738  20.261  10.438
95684W        W68098  19.614  32.107  11.410
95685W        W68099  29.424  38.001  14.366
95686W        W68100   4.417  27.006  11.531
95687W        W68101  17.766   2.942  12.964
95688W        W68102  34.382   6.864  14.886
95689W        W68103  40.806  14.270   3.746
95690W        W68104  27.539  10.217  13.811
95691W        W68105  41.808  16.221  14.279
95692W        W68106  39.868  12.776   2.216
95693W        W68107  20.264  39.325   0.301
95694W        W68108  40.926  25.624  13.498
95695W        W68109   3.808  23.612  14.385
95696W        W68110  29.598  29.497  11.562
95697W        W68111  14.328   5.703  13.918
95698W        W68112  33.010  34.373  12.865
95699W        W68113  41.965  42.989   1.800
95700W        W68114  28.098  27.607   3.238
95701W        W68115  43.432   6.904   2.707
95702W        W68116  36.586  39.940   2.823
95703W        W68117   4.301  14.632   5.720
95704W        W68118  20.151  20.751   3.338
95705W        W68119  29.659   5.833  12.956
95706W        W68120   1.294  43.771  11.027
95707W        W68121  24.614  43.845  14.957
95708W        W68122  42.992   6.872  11.420
95709W        W68123  43.989  20.666  13.399
95710W        W68124  24.021   3.354  10.971
95711W        W68125  40.375  19.533   0.755
95712W        W68126   5.925   4.761  13.045
95713W        W68127  15.316  36.456   4.659
95714W        W68128  32.421  40.038   3.253
95715W        W68129  27.483  44.922  10.575
95716W        W68130  18.221  43.389  14.841
95717W        W68131  17.700   4.356  13.434
95718W        W68132  12.267   5.918   3.669
95719W        W68133  17.701  28.185   3.299
95720W        W68134  10.752  17.262   1.932
95721W        W68135  29.658  33.074  11.452
95722W        W68136  33.907  12.844   1.864
95723W        W68137  18.791  34.468  13.030
95724W        W68138   9.743  41.998   1.238
95725W        W68139  39.979  34.946  12.866
95726W        W68140  33.985  27.126  10.635
95727W        W68141  32.983  13.120  13.917
95728W        W68142  12.811  32.502  14.814
95729W        W68143  11.242  11.214  10.592
95730W        W68144  29.933  32.591   0.356
95731W        W68145  14.256  42.852  12.386
95732W        W68146   4.811  25.981   5.620
95733W        W68147  33.024  20.524  12.525
95734W        W68148   0.365  43.981  12.953
95735W        W68149  22.642  18.245   4.801
95736W        W68150  26.538  10.806   1.935
95737W        W68151   0.840  19.113  14.032
95738W        W68152  15.714  22.175   1.430
95739W        W68153  42.963   0.775   0.774
95740W        W68154  44.878  21.689   0.451
95741W        W68155   9.837  37.508  13.440
95742W        W68156  29.433   5.249  10.633
95743W        W68157  42.293   7.908   0.270
95744W        W68158  14.783  41.463  11.018
95745W        W68159  38.541  13.224   2.336
95746W        W68160   9.810  21.639  14.424
95747W        W68161  20.226  12.711  10.540
95748W        W68162  23.087  37.832  11.553
95749W        W68163  24.075  36.540  13.813
95750W        W68164  36.984  36.887   1.806
95751W        W68165   6.870  26.072   0.255
95752W        W68166   5.716   9.330  12.931
95753W        W68167   0.343   0.938   0.782
95754W        W68168  36.877  23.153   2.334
95755W        W68169   2.804  22.562  10.897
95756W        W68170  10.237  22.712  14.955
95757W        W68171  29.174  14.649  12.021
95758W        W68172  17.567  20.603   1.415
95759W        W68173  36.920  11.316  12.870
95760W        W68174  37.864  36.486  13.491
95761W        W68175  15.128  21.659  13.944
95762W        W68176  35.092  33.406  11.373
95763W        W68177  21.025  12.702   0.290
95764W        W68178  37.529  26.661  12.929
95765W        W68179  11.640   3.249  12.966
95766W        W68180   2.852  18.094  11.069
95767W        W68181   5.691  35.040  13.490
95768W        W68182  26.678  35.878   0.244
95769W        W68183  18.751   5.254  13.469
95770W        W68184   8.688  22.088   3.242
95771W        W68185   3.373  10.821  14.979
95772W        W68186  35.484  40.959  12.864
95773W        W68187  24.085  15.176   4.159
95774W        W68188   6.371  40.826  10.029
95775W        W68189  10.876  30.518   4.718
95776W        W68190  38.542  13.752   0.247
95777W        W68191   7.853  12.144   4.669
95778W        W68192  44.848  12.710   4.231
95779W        W68193  16.114   3.397  13.411
95780W        W68194   2.295  42.397   0.789
95781W        W68195  35.571   5.205   3.189
95782W        W68196   2.809   5.763   4.616
95783W        W68197  10.375  27.048   2.342
95784W        W68198  32.951  23.105   4.711
95785W        W68199  15.584  37.489   3.267
95786W        W68200  16.118  20.529   2.300
95787W        W68201   1.833  12.786  14.917
95788W        W68202  21.725  24.025  10.922
95789W        W68203  23.610  38.359  12.047
95790W        W68204  36.912  12.156  14.497
95791W        W68205  19.164  15.240  12.577
95792W        W68206  35.405  18.277   4.755
95793W        W68207  33.917  31.545   2.247
95794W        W68208  19.667  29.437  12.420
95795W        W68209   0.266  39.315  10.529
95796W        W68210  30.163  36.948  14.295
95797W        W68211  43.463  27.996  11.527
95798W        W68212  37.371  21.216  11.931
95799W        W68213  28.102  41.972   5.320
95800W        W68214  13.134  23.205  11.419
95801W        W68215  20.732  20.571   2.216
95802W        W68216  16.706  38.499   2.754
95803W        W68217  27.195  14.211  11.428
95804W        W68218   4.327  38.418  14.459
95805W        W68219   0.438  39.357  12.987
95806W        W68220   6.187  32.554   2.200
95807W        W68221  11.302  32.450   1.341
95808W        W68222   2.834  14.128  12.366
95809W        W68223  24.035  43.909   1.768
95810W        W68224  36.090  18.788   3.806
95811W        W68225  33.904  23.061   1.269
95812W        W68226  40.360  31.930   2.310
95813W        W68227  28.162  39.893   4.258
95814W        W68228   2.953  19.153   1.266
95815W        W68229   4.262  39.416  10.508
95816W        W68230  32.001  44.841  12.392
95817W        W68231  22.730   8.307   3.809
95818W        W68232  22.555  27.180   3.842
95819W        W68233  31.414  18.062  14.278
95820W        W68234   1.972  38.404  11.942
95821W        W68235  17.095  43.448  10.952
95822W        W68236  35.500  37.869  10.535
95823W        W68237  44.460  37.548   2.802
95824W        W68238  11.172  39.864  12.982
95825W        W68239  23.195  11.709  14.968
95826W        W68240  23.092  11.266  13.404
95827W        W68241  38.934  17.219   3.371
95828W        W68242  38.026  26.592   4.627
95829W        W68243   9.370  15.731  14.958
95830W        W68244  26.575  22.220  12.427
95831W        W68245   7.692  19.541   2.221
95832W        W68246  17.595  39.059  14.290
95833W        W68247   7.316  40.868  13.836
95834W        W68248  18.764  31.543   0.823
95835W        W68249  15.727  13.817  13.450
95836W        W68250   3.455  41.330   4.271
95837W        W68251  38.444  23.491  11.456
95838W        W68252  32.613  21.121  13.315
95839W        W68253  18.197  18.601  14.905
95840W        W68254  33.626  20.564   1.790
95841W        W68255  30.991  37.964  10.943
95842W        W68256   4.809  25.530  12.344
95843W        W68257  17.643  21.722   2.185
95844W        W68258  24.165  26.477   1.913
95845W        W68259   3.768   6.776  14.989
95846W        W68260  20.070  14.240  12.382
95847W        W68261  41.990   9.381   0.943
95848W        W68262   8.848  24.703  14.398
95849W        W68263  40.981   5.399  14.997
95850W        W68264  19.086  39.813  12.922
95851W        W68265  27.523  12.763   2.709
95852W        W68266  24.555  33.448  10.574
95853W        W68267  21.558  33.953  13.011
95854W        W68268  44.933  25.643  12.014
95855W        W68269  36.009   8.790   4.789
95856W        W68270  15.321  28.541  11.599
95857W        W68271  24.124  26.479   4.831
95858W        W68272  27.177  20.095  14.298
95859W        W68273  15.732   2.281   3.325
95860W        W68274   5.856  25.622  12.564
95861W        W68275  40.315  25.597   4.185
95862W        W68276   5.917  31.064   0.288
95863W        W68277  43.293   2.923   0.875
95864W        W68278  12.625  15.157  13.341
95865W        W68279  32.103  29.538   4.694
95866W        W68280  18.259  30.570   3.658
95867W        W68281  43.286  36.948  11.398
95868W        W68282  44.814  11.777   3.695
95869W        W68283  22.216   3.440   2.416
95870W        W68284  18.135  22.125   2.829
95871W        W68285  20.532  42.509  14.400
95872W        W68286  26.627   6.798  13.430
95873W        W68287  25.554   8.264  13.061
95874W        W68288  10.263   5.740   3.728
95875W        W68289  28.038  42.358  10.641
95876W        W68290  22.250  15.307   4.609
95877W        W68291  17.097  34.039   4.778
95878W        W68292  39.857   4.710   0.796
95879W        W68293  29.072  24.019  11.921
95880W        W68294   2.911  32.617   2.374
95881W        W68295  13.837  44.869  12.554
95882W        W68296   3.786  10.749   3.242
95883W        W68297  39.449  15.717  14.318
95884W        W68298  35.433   5.927  10.418
95885W        W68299   5.245  21.172   3.762
95886W        W68300  26.121  39.457  14.878
95887W        W68301  21.539  16.153  13.324
95888W        W68302  33.470  43.356  11.856
95889W        W68303  43.499  26.638  13.986
95890W        W68304  19.152  24.098  10.503
95891W        W68305  29.108  13.235  13.875
95892W        W68306  44.838  22.687   2.732
95893W        W68307  38.891  39.483  12.848
95894W        W68308   3.841  36.513   4.706
95895W        W68309  19.175   7.334  14.384
95896W        W68310  14.738   2.226  14.774
95897W        W68311  26.009  43.940  14.776
95898W        W68312   8.276  37.838   4.693
95899W        W68313   4.905  27.533   0.458
95900W        W68314  26.972  16.289   0.252
95901W        W68315  30.965  38.347   1.922
95902W        W68316   7.288  30.995  13.350
95903W        W68317  26.672  15.699   3.273
95904W        W68318  31.456   7.835   0.364
95905W        W68319  21.224  29.460   1.755
95906W        W68320   7.861  19.533   0.398
95907W        W68321  22.041  43.898   0.427
95908W        W68322  28.510  21.717  12.579
95909W        W68323  42.902  42.958   1.276
95910W        W68324  35.076  27.025  14.879
95911W        W68325  31.087  10.149  10.508
95912W        W68326  11.689  38.548   0.965
95913W        W68327  29.651   2.892  13.908
95914W        W68328  23.554   7.777   2.696
95915W        W68329   7.184   2.743   1.313
95916W        W68330   1.773  17.627  12.830
95917W        W68331  26.619  12.257   2.734
95918W        W68332  38.866  15.644   1.760
95919W        W68333  36.588   3.829  10.497
95920W        W68334   4.895  21.215  14.446
95921W        W68335  24.098  43.293  11.573
95922W        W68336  31.146  42.439   2.406
95923W        W68337  25.642  33.429  11.586
95924W        W68338   1.248  33.051  12.446
95925W        W68339   8.177   8.312  11.863
95926W        W68340  41.868  10.801  14.288
95927W        W68341  21.694  37.414  12.489
95928W        W68342  19.572  23.505  13.536
95929W        W68343   8.832  26.493  13.521
95930W        W68344  39.497   9.357   4.785
95931W        W68345  25.047  12.704  13.879
95932W        W68346  44.430   7.863   4.621
95933W        W68347  35.030  22.146   0.443
95934W        W68348  22.535  16.691  14.503
95935W        W68349  33.600  15.100  10.904
95936W        W68350  28.653  26.976  14.840
95937W        W68351  22.040  32.974   0.322
95938W        W68352  44.759   5.205  13.411
95939W        W68353  41.478  30.102  10.518
95940W        W68354  43.483   6.286  11.549
95941W        W68355   0.826  11.198  14.481
95942W        W68356  31.963  27.632  13.432
95943W        W68357   3.870   1.316   1.432
95944W        W68358  24.670  39.842  12.407
95945W        W68359   9.223  16.701   1.352
95946W        W68360  40.806  38.394   1.907
95947W        W68361  27.097  19.749  11.610
95948W        W68362  42.452   6.700  12.071
95949W        W68363   1.238   9.251  10.628
95950W        W68364   4.787   4.320   3.244
95951W        W68365  23.663   3.419  12.507
95952W        W68366  35.915  35.464   5.104
95953W        W68367  20.709  22.717  13.046
95954W        W68368  38.909  29.997   1.253
95955W        W68369  43.341   9.264  12.082
95956W        W68370   6.687   1.284  14.886
95957W        W68371   1.900   3.244  11.573
95958W        W68372  39.518   2.324  10.438
95959W        W68373  35.513  23.618  14.995
95960W        W68374  41.428  24.646  11.938
95961W        W68375  17.800  34.462  12.383
95962W        W68376  13.760  20.198   1.365
95963W        W68377  28.034  33.932   0.731
95964W        W68378  12.199   7.193  13.037
95965W        W68379  37.350  10.207  12.558
95966W        W68380  32.439  27.113  13.318
95967W        W68381  12.856  29.659  11.984
95968W        W68382  23.123  20.183  13.452
95969W        W68383  24.568   7.879   3.692
95970W        W68384  36.397  41.908   0.831
95971W        W68385  36.425  13.798   0.363
95972W        W68386   7.730  24.526   4.666
95973W        W68387   0.799  19.734  13.405
95974W        W68388  37.922  31.923   0.762
95975W        W68389  18.774  18.756   4.799
95976W        W68390  14.165  13.274   0.760
95977W        W68391  31.136  36.092   5.273
95978W        W68392  22.032   1.268   2.863
95979W        W68393   6.808  32.902  14.853
95980W        W68394  22.226  33.406  10.951
95981W        W68395  13.150  28.437   3.790
95982W        W68396  31.088  13.294  12.931
95983W        W68397   4.214  34.503   2.366
95984W        W68398  13.761   6.717  12.497
95985W        W68399   9.706  27.008   4.785
95986W        W68400  13.222  42.015   0.763
95987W        W68401  41.855   7.776   4.316
95988W        W68402  13.189  40.357  10.564
95989W        W68403  15.300  39.420  13.039
95990W        W68404  40.410  43.786   1.410
95991W        W68405  44.431  27.087  14.407
95992W        W68406  15.146   9.733  11.584
95993W        W68407  25.012  32.063  13.432
95994W        W68408  20.575  20.238  11.883
95995W        W68409  36.993  22.204  11.465
95996W        W68410   1.907  16.772  11.543
95997W        W68411   3.441   2.296  10.597
95998W        W68412  13.116  22.584  13.414
95999W        W68413  42.831  29.138   1.265
96000W        W68414  44.884   4.743  10.968
96001W        W68415  32.406  15.667  12.930
96002W        W68416  42.835  13.302   3.740
96003W        W68417  31.957  21.569   4.721
96004W        W68418  17.575  12.753   2.300
96005W        W68419   5.925  37.939   1.411
96006W        W68420  12.240  36.396  13.949
96007W        W68421   9.333  43.937   1.370
96008W        W68422  40.473   0.923  11.516
96009W        W68423  36.053  30.551   4.118
96010W        W68424  19.124  26.520  11.530
96011W        W68425  38.842  44.975  10.515
96012W        W68426  30.083  17.605   2.720
96013W        W68427  16.608  13.606  13.393
96014W        W68428  16.164  38.501  13.810
96015W        W68429  33.572  28.679   4.688
96016W        W68430  22.231  33.533  10.524
96017W        W68431  37.989   6.805  10.492
96018W        W68432  42.403  42.493  14.412
96019W        W68433  28.527  11.784  11.446
96020W        W68434   6.859  11.327   2.706
96021W        W68435  14.103  29.518   3.242
96022W        W68436   8.221  16.212   2.724
96023W        W68437  24.481  44.859  12.030
96024W        W68438  28.987   9.331  12.519
96025W        W68439   6.419  18.226  14.336
96026W        W68440  35.361  37.340  10.506
96027W        W68441  19.691  43.783  10.603
96028W        W68442  29.469  18.198  13.893
96029W        W68443  39.483  23.113   0.799
96030W        W68444  11.784  23.005  11.007
96031W        W68445   0.369  26.960   4.787
96032W        W68446  36.551  32.463  14.381
96033W        W68447  10.156  24.544   1.240
96034W        W68448  34.906   4.861   2.684
96035W        W68449  32.559  43.983   4.776
96036W        W68450  35.449  23.601   4.123
96037W        W68451  10.862  19.183  14.930
96038W        W68452  23.017   1.767   1.891
96039W        W68453  10.309  32.015   1.431
96040W        W68454  32.127  41.389   3.796
96041W        W68455   5.921   5.836  14.847
96042W        W68456  18.106  12.317   2.388
96043W        W68457  18.164   4.812  10.529
96044W        W68458   9.160   5.337  14.831
96045W        W68459  16.223  12.746  14.321
96046W        W68460  18.271   8.759  12.413
96047W        W68461   4.920  23.561   2.270
96048W        W68462  29.981  34.399  10.530
96049W        W68463  26.674   0.306   2.683
96050W        W68464   3.757  40.378   0.275
96051W        W68465  39.037  34.928   4.309
96052W        W68466  27.975  27.164  11.860
96053W        W68467  27.097  21.682   0.820
96054W        W68468  27.985  32.125   3.290
96055W        W68469  29.456  26.175  11.890
96056W        W68470  15.731  16.615   4.691
96057W        W68471   9.827  39.412   1.765
96058W        W68472  30.958   7.676  14.463
96059W        W68473  39.529  24.721   3.856
96060W        W68474  25.155  39.016   4.133
96061W        W68475  12.796   8.879  14.334
96062W        W68476   3.317  22.191  14.293
96063W        W68477  19.574  30.524   1.433
96064W        W68478  12.835  16.078  12.349
96065W        W68479  24.059  42.854   5.174
96066W        W68480   9.348  14.233  14.800
96067W        W68481  37.508   4.418   4.334
96068W        W68482  41.948  27.583   2.773
96069W        W68483  33.579  18.193  10.149
96070W        W68484  22.072  37.037   3.279
96071W        W68485  18.545   7.818  12.375
96072W        W68486  41.862  34.022  12.542
96073W        W68487   9.392  41.495  11.861
96074W        W68488  13.633  37.377   2.316
96075W        W68489  12.250  34.595  10.424
96076W        W68490   6.351  29.535   1.934
96077W        W68491  35.925   6.222   4.289
96078W        W68492  14.613   8.664   2.414
96079W        W68493  43.916  23.141  11.121
96080W        W68494  13.323  11.673   0.874
96081W        W68495  30.491  21.225   9.974
96082W        W68496   3.881  27.632   2.876
96083W        W68497  26.653  44.358  11.869
96084W        W68498  16.095   5.770  10.059
96085W        W68499  40.531  25.599   1.839
96086W        W68500   5.893  38.562  12.934
96087W        W68501  32.621   9.726  10.506
96088W        W68502  44.477  25.136   2.742
96089W        W68503  39.545  11.177   4.205
96090W        W68504  41.365   0.857   4.322
96091W        W68505   4.357  12.728   4.670
96092W        W68506  25.987   0.857   2.339
96093W        W68507  13.828  20.702  14.456
96094W        W68508   4.702  36.051   2.728
96095W        W68509  13.812  35.087   0.744
96096W        W68510  26.689  43.824   3.664
96097W        W68511  40.052  15.294   3.322
96098W        W68512  15.625   5.402  14.316
96099W        W68513  15.153  42.284  14.427
96100W        W68514  36.459   8.847  12.907
96101W        W68515   1.331  36.391   0.416
96102W        W68516  21.525  12.844   2.870
96103W        W68517  20.186   7.778  12.058
96104W        W68518   2.360   2.886  14.283
96105W        W68519  37.834  30.464   1.897
96106W        W68520   9.738  14.696   1.215
96107W        W68521  16.708  35.026   2.710
96108W        W68522  22.153  12.791  11.870
96109W        W68523  12.206  34.412  11.012
96110W        W68524  37.435  19.601   2.204
96111W        W68525  14.720  27.523   1.804
96112W        W68526  22.688  44.479  10.643
96113W        W68527  11.275  34.031  10.602
96114W        W68528  22.713  37.980   1.327
96115W        W68529  29.636  42.463   0.243
96116W        W68530   4.892  19.681  14.990
96117W        W68531  41.351   7.195   0.393
96118W        W68532  29.578  15.221  13.896
96119W        W68533   8.212   5.771  10.438
96120W        W68534  20.051  12.646   1.307
96121W        W68535  32.100  15.287  11.458
96122W        W68536  40.928  17.626  14.311
96123W        W68537  36.563  19.077   3.807
96124W        W68538  13.223  22.651  10.114
96125W        W68539  20.701  20.751  13.314
96126W        W68540  33.450   2.939   1.770
96127W        W68541  25.503  42.495  13.804
96128W        W68542   6.692  33.972   3.780
96129W        W68543   3.327   9.175  12.899
96130W        W68544   5.241  11.687   4.185
96131W        W68545   1.294   2.324  13.956
96132W        W68546  41.850  13.643   3.651
96133W        W68547   8.673  43.412  12.873
96134W        W68548  24.681  33.894   1.287
96135W        W68549  22.093  23.553   4.639
96136W        W68550  31.109  30.963   0.420
96137W        W68551   4.895  28.963  14.433
96138W        W68552  38.485   9.850  12.853
96139W        W68553  24.672  37.502  12.895
96140W        W68554   5.820  30.508   2.211
96141W        W68555   5.374  39.947   9.595
96142W        W68556  12.305  21.102  14.317
96143W        W68557  14.163  21.658   2.815
96144W        W68558  42.845   0.856  14.355
96145W        W68559  24.554  27.941   3.284
96146W        W68560  36.421   7.379  10.919
96147W        W68561  32.483  22.220  14.019
96148W        W68562  21.511  39.819  10.955
96149W        W68563  12.328   7.826   3.810
96150W        W68564  30.514  24.503  13.868
96151W        W68565  21.220   7.723  12.931
96152W        W68566  11.208  23.683  14.870
96153W        W68567   7.333  29.482   0.948
96154W        W68568  17.722  28.959  10.642
96155W        W68569   0.826  26.134  12.903
96156W        W68570  34.459  14.710   4.602
96157W        W68571   2.943  31.605  13.831
96158W        W68572  24.079  22.061   2.729
96159W        W68573   9.750   3.299   1.371
96160W        W68574  29.065  35.895  14.338
96161W        W68575  17.061  42.845   0.371
96162W        W68576  33.941  21.116  12.933
96163W        W68577   3.411   7.288   1.257
96164W        W68578  23.095  11.826  11.510
96165W        W68579  10.279  40.901  11.920
96166W        W68580  36.878  35.053  12.371
96167W        W68581  13.757   4.893  14.489
96168W        W68582  15.770  31.528  11.525
96169W        W68583  31.521  35.392  14.495
96170W        W68584   2.393  27.079  14.444
96171W        W68585  25.219  12.765   2.736
96172W        W68586  31.628  37.972   3.838
96173W        W68587  41.510  21.643  14.832
96174W        W68588  18.183  26.978  13.467
96175W        W68589  28.074  15.579   0.314
96176W        W68590  29.519   4.927   1.217
96177W        W68591  25.972   9.657   0.298
96178W        W68592   9.265   6.779   0.801
96179W        W68593  33.564  21.712   1.346
96180W        W68594   0.954  34.370  12.383
96181W        W68595  42.955  29.540  13.337
96182W        W68596  19.659  32.926  11.121
96183W        W68597  43.860  28.570  10.568
96184W        W68598  37.047  18.181   0.347
96185W        W68599   8.218   7.889  14.925
96186W        W68600   3.764  36.029   5.107
96187W        W68601  43.375  42.306   0.419
96188W        W68602  17.294  41.323   3.217
96189W        W68603  24.678   9.669   2.387
96190W        W68604  28.020  26.968   0.319
96191W        W68605   6.697  21.021   4.737
96192W        W68606  22.593  11.781  13.514
96193W        W68607  15.785  41.878   0.871
96194W        W68608  10.313   4.736   0.741
96195W        W68609   1.405  13.284  11.042
96196W        W68610  35.549  25.629   3.326
96197W        W68611   2.854  44.879  14.361
96198W        W68612  42.431  11.179  12.431
96199W        W68613  39.413   4.721   1.722
96200W        W68614  16.142  20.211  10.918
96201W        W68615   4.309  27.474   0.342
96202W        W68616  25.121  39.528  14.821
96203W        W68617  21.602   4.272   0.467
96204W        W68618  24.112  19.187   3.771
96205W        W68619  20.258   1.952   3.291
96206W        W68620  16.583  43.831   3.376
96207W        W68621  34.413  18.638   0.283
96208W        W68622  40.983  42.941  12.470
96209W        W68623  28.441  21.133  12.963
96210W        W68624  12.166  13.715  12.568
96211W        W68625   5.434  20.184   0.340
96212W        W68626  43.463  27.171  11.395
96213W        W68627  37.554  36.374   4.784
96214W        W68628  12.837  33.574  14.304
96215W        W68629  28.187  12.262  13.397
96216W        W68630  23.717  25.176  13.916
96217W        W68631  24.502   4.795   3.859
96218W        W68632   4.700  17.606  11.116
96219W        W68633  32.015  35.583  13.350
96220W        W68634  43.308   5.863  14.907
96221W        W68635  25.037  35.453  10.933
96222W        W68636  40.865  17.077   2.862
96223W        W68637  10.326  19.715  11.374
96224W        W68638  41.387  17.119   2.314
96225W        W68639   0.257  17.193  14.297
96226W        W68640  24.484   1.784   0.901
96227W        W68641  34.394   2.301  12.955
96228W        W68642  27.614   7.212   4.237
96229W        W68643  15.627  11.780  10.894
96230W        W68644   6.828  42.355  13.349
96231W        W68645  39.344  12.233  12.936
96232W        W68646  20.571  18.282  11.375
96233W        W68647   4.881  39.924   2.803
96234W        W68648  39.345   8.711  12.564
96235W        W68649  34.969  20.763  10.080
96236W        W68650   4.282  22.098   2.863
96237W        W68651  12.316  34.465   1.733
96238W        W68652   0.901  25.179  12.887
96239W        W68653   2.720  42.520  10.506
96240W        W68654   0.278  18.208  14.893
96241W        W68655   9.218  40.507  12.367
96242W        W68656  14.296  25.073  12.843
96243W        W68657  37.353  33.972   1.227
96244W        W68658  24.578  24.534   2.812
96245W        W68659  31.066  34.997  12.449
96246W        W68660  38.486   8.268  10.541
96247W        W68661   1.420  13.318  11.888
96248W        W68662  44.461  41.794  13.871
96249W        W68663  17.212  29.070   4.330
96250W        W68664  12.830   9.813   0.415
96251W        W68665  31.108  37.039  13.407
96252W        W68666   6.220  16.575   3.791
96253W        W68667  44.773  26.101  11.009
96254W        W68668   7.176   6.368  12.093
96255W        W68669   2.885  10.763   1.726
96256W        W68670   8.320  27.024  11.002
96257W        W68671  15.781  19.119   0.790
96258W        W68672  26.060  39.436  11.556
96259W        W68673  22.055  35.467  14.461
96260W        W68674   4.361   3.822   2.356
96261W        W68675  23.681  18.296  14.868
96262W        W68676  13.692  28.498  12.996
96263W        W68677  14.181  19.641   1.325
96264W        W68678   9.692   7.721   1.822
96265W        W68679   2.257  17.656  13.413
96266W        W68680  35.458   0.304  10.961
96267W        W68681  22.244  14.600   1.744
96268W        W68682  20.711   5.379  13.523
96269W        W68683  25.515   6.725   0.910
96270W        W68684   5.764  35.075  10.625
96271W        W68685   9.222  20.039  11.872
96272W        W68686  13.607  11.816   0.918
96273W        W68687  16.775  28.127   0.331
96274W        W68688  37.020  30.654  11.555
96275W        W68689  35.021   1.893   5.113
96276W        W68690  21.558   7.191   2.881
96277W        W68691  22.547   0.869  13.807
96278W        W68692  34.441  20.068  13.361
96279W        W68693  43.459   3.445   2.687
96280W        W68694  15.803  22.241   0.730
96281W        W68695  12.256  26.657   1.726
96282W        W68696   1.337  21.216   1.792
96283W        W68697  39.872  17.095  12.375
96284W        W68698  42.002  33.883  11.117
96285W        W68699   4.369  35.916   4.685
96286W        W68700  32.544  33.003   3.162
96287W        W68701  41.341  16.097   2.182
96288W        W68702  32.489  44.869  10.597
96289W        W68703   7.679   6.702   2.725
96290W        W68704  33.584  31.975  14.839
96291W        W68705  39.918   6.901   2.376
96292W        W68706   5.924  40.380  14.028
96293W        W68707  38.977  31.551  12.034
96294W        W68708  11.781   5.832   3.384
96295W        W68709  25.577  25.488   0.385
96296W        W68710  43.305  14.131   2.192
96297W        W68711  11.811  38.476   1.388
96298W        W68712  12.774  16.098  10.422
96299W        W68713  42.339   8.178  12.905
96300W        W68714  30.028   3.861  11.447
96301W        W68715  22.543  30.649   2.705
96302W        W68716  30.502  27.518  13.843
96303W        W68717  32.582  24.540   3.319
96304W        W68718  41.440   6.237   3.737
96305W        W68719  18.544  10.301   2.666
96306W        W68720  28.123  32.556  13.941
96307W        W68721  31.480  29.147  14.941
96308W        W68722  37.411  19.620  13.312
96309W        W68723  31.442   1.969   0.364
96310W        W68724  41.530  34.119   3.688
96311W        W68725   0.751   2.334   2.259
96312W        W68726  34.596  23.236  13.379
96313W        W68727   4.732  36.586  14.915
96314W        W68728  17.142  17.167  13.861
96315W        W68729  44.846  35.431   3.816
96316W        W68730  15.271  14.331  12.401
96317W        W68731  30.084  42.823   4.705
96318W        W68732  32.426  20.144  13.450
96319W        W68733  28.588  11.352  14.315
96320W        W68734  21.114  13.261   0.365
96321W        W68735  35.856   1.347   3.322
96322W        W68736  14.750   0.875  11.610
96323W        W68737   3.446  44.806   1.250
96324W        W68738   3.715  34.873  14.014
96325W        W68739  30.931  12.765   1.304
96326W        W68740  19.229   7.296   0.366
96327W        W68741  40.358  33.987   0.340
96328W        W68742  26.580  17.757   3.168
96329W        W68743  20.170  25.573  14.009
96330W        W68744  17.799   4.710  13.399
96331W        W68745  18.152  11.693  13.528
96332W        W68746  37.003   8.803   3.809
96333W        W68747  28.956  28.959   1.857
96334W        W68748  35.905  12.153   0.290
96335W        W68749  39.329  20.695   4.149
96336W        W68750  37.835   1.372   4.301
96337W        W68751   0.917   6.316   0.403
96338W        W68752  38.855   9.234   4.643
96339W        W68753  24.104   5.245  12.951
96340W        W68754  23.490  35.432  14.955
96341W        W68755  19.762  30.966   1.895
96342W        W68756  24.535   6.803   2.225
96343W        W68757   7.323  19.547  10.506
96344W        W68758  32.920   9.853   1.417
96345W        W68759   2.836   6.814   0.919
96346W        W68760  11.331  31.898  11.559
96347W        W68761  15.318  14.781  10.474
96348W        W68762  17.273  44.892   0.356
96349W        W68763  15.719  22.238   4.290
96350W        W68764   7.855   0.822   5.142
96351W        W68765  21.151  24.696  14.398
96352W        W68766  18.270   1.407   3.224
96353W        W68767   2.788  44.831   3.373
96354W        W68768  18.173  25.086  11.565
96355W        W68769  38.916  44.916   9.979
96356W        W68770   5.334  35.496   0.889
96357W        W68771   6.201  16.208   0.312
96358W        W68772  16.231  44.780  10.606
96359W        W68773  37.079  17.589   4.306
96360W        W68774  11.799  40.335  13.490
96361W        W68775  40.833  17.200  14.927
96362W        W68776   5.407  15.318  11.091
96363W        W68777  12.731  21.075  14.792
96364W        W68778  32.055  14.211   2.194
96365W        W68779  38.491  32.623  11.930
96366W        W68780  39.042  35.467  14.030
96367W        W68781  36.021  35.950  13.012
96368W        W68782  33.455  20.254  10.947
96369W        W68783   1.920  22.599   5.178
96370W        W68784   3.440   9.770   4.240
96371W        W68785   7.194  23.146   3.200
96372W        W68786  41.362  44.336   2.246
96373W        W68787  14.701   6.195   1.357
96374W        W68788  43.000  17.158   3.158
96375W        W68789  34.603  29.063  14.992
96376W        W68790  41.336  44.275  13.401
96377W        W68791   6.843   4.264  14.870
96378W        W68792  27.505  43.504  14.012
96379W        W68793  11.164  38.007   4.651
96380W        W68794  24.063  36.470   1.418
96381W        W68795  35.944  19.140   1.758
96382W        W68796   7.688  21.047  14.418
96383W        W68797  42.297  34.101   1.712
96384W        W68798   7.693  18.103   4.698
96385W        W68799   9.663  37.882   2.791
96386W        W68800  29.544  44.412   3.719
96387W        W68801  27.943  20.196  11.376
96388W        W68802  25.151  30.560  10.443
96389W        W68803  21.235  39.415   4.185
96390W        W68804  26.987  40.306  14.836
96391W        W68805  10.184  31.085   2.351
96392W        W68806  14.818  29.629  13.855
96393W        W68807   9.180  34.462  11.078
96394W        W68808  39.849  18.757   2.192
96395W        W68809  25.047  29.924   0.343
96396W        W68810  43.798   2.255   1.769
96397W        W68811  25.664   1.805  11.509
96398W        W68812  31.113  33.903  12.497
96399W        W68813   7.403  23.163  12.842
96400W        W68814  35.068  34.090  11.857
96401W        W68815   8.198  22.559   0.277
96402W        W68816  35.011  35.976  13.040
96403W        W68817  40.054  32.047   2.362
96404W        W68818  29.587  13.307  14.300
96405W        W68819  26.958  16.626   4.673
96406W        W68820   4.789  43.487  14.452
96407W        W68821  40.388  32.983  14.495
96408W        W68822  40.912  25.587  11.371
96409W        W68823  44.437   1.266   3.647
96410W        W68824  13.341  43.931  10.894
96411W        W68825   2.725  23.993   0.351
96412W        W68826  42.439  39.957  14.405
96413W        W68827  20.155   5.263  14.390
96414W        W68828  35.033  36.087  10.438
96415W        W68829  11.669  18.547   2.686
96416W        W68830  36.855  24.074  11.111
96417W        W68831  42.796  15.580  12.383
96418W        W68832   8.794  39.543  13.405
96419W        W68833  39.557  39.560  14.307
96420W        W68834  22.225  24.187   4.219
96421W        W68835  12.122  39.400   3.370
96422W        W68836   4.746  32.578  14.418
96423W        W68837   1.297  18.223   0.377
96424W        W68838   8.274  10.359  11.999
96425W        W68839  19.235  42.884  12.985
96426W        W68840  39.552   9.762   3.772
96427W        W68841  16.623  37.879  13.959
96428W        W68842  13.798  15.721   0.851
96429W        W68843  33.903   2.902  11.392
96430W        W68844   5.726  15.699   4.178
96431W        W68845  13.133   8.233  14.977
96432W        W68846   8.378  21.039  12.454
96433W        W68847  35.009  34.947   0.746
96434W        W68848  30.635  10.300   3.765
96435W        W68849  22.669  21.190  11.530
96436W        W68850   6.400   8.743  10.967
96437W        W68851  18.165  39.960  10.409
96438W        W68852   9.774  40.035   2.796
96439W        W68853  14.245   3.302   4.346
96440W        W68854  21.147   3.836  14.971
96441W        W68855  30.140  26.567  14.408
96442W        W68856   4.721  33.076   2.670
96443W        W68857  32.081   1.313   2.377
96444W        W68858  14.731  18.759   4.213
96445W        W68859   9.852  35.552   0.357
96446W        W68860  38.943  28.968   4.821
96447W        W68861  34.488   1.404   0.893
96448W        W68862   8.817  15.664  13.427
96449W        W68863  25.705  19.630  10.611
96450W        W68864  27.081  41.535   2.775
96451W        W68865  43.827  39.537   4.685
96452W        W68866  24.225  30.494   0.286
96453W        W68867  16.711  38.494   0.947
96454W        W68868  36.915   0.352  12.399
96455W        W68869  23.564  44.403   1.713
96456W        W68870  11.671   6.831  11.122
96457W        W68871  27.625  42.927  10.603
96458W        W68872   4.823   0.265  14.363
96459W        W68873   0.820  36.371  13.510
96460W        W68874  43.860  25.968   4.760
96461W        W68875  21.149  18.082  12.516
96462W        W68876  27.957  37.065   3.862
96463W        W68877  22.222  22.048  14.367
96464W        W68878  25.109  20.532   2.195
96465W        W68879  36.930  36.460  14.480
96466W        W68880  37.037  12.253  10.544
96467W        W68881  20.707  21.035   4.837
96468W        W68882  32.068  26.557   2.306
96469W        W68883  37.847  23.986  11.603
96470W        W68884  38.422  26.507  11.554
96471W        W68885  32.580  34.447   3.634
96472W        W68886  21.057  35.541  11.856
96473W        W68887   3.870   4.313   4.693
96474W        W68888  11.758   7.880  13.332
96475W        W68889  35.889  23.686   2.730
96476W        W68890  29.447  35.865   4.665
96477W        W68891  31.416  39.445  14.342
96478W        W68892   6.866  34.909  12.928
96479W        W68893  26.159  30.083  12.095
96480W        W68894  28.591  15.732  11.592
96481W        W68895  30.628   0.345   1.369
96482W        W68896  10.331  33.601   3.340
96483W        W68897  43.987  36.900  14.996
96484W        W68898  18.144  25.685   1.434
96485W        W68899  34.450   3.264   2.220
96486W        W68900  26.593  10.140  14.803
96487W        W68901   0.791   8.703   3.180
96488W        W68902  15.715  33.416   4.244
96489W        W68903  18.078  16.625   2.698
96490W        W68904   6.231  39.878  14.814
96491W        W68905  26.054  37.534  11.073
96492W        W68906  33.109  15.135  12.405
96493W        W68907  40.846   9.669   2.678
96494W        W68908  16.581  35.021   1.886
96495W        W68909  19.727  15.762   9.976
96496W        W68910  40.028  39.421   2.332
96497W        W68911  23.133  36.573  13.899
96498W        W68912  33.570  31.957   3.301
96499W        W68913  44.287  15.818   3.856
96500W        W68914  22.713  21.259  12.560
96501W        W68915  13.127  28.542   1.325
96502W        W68916  17.706  29.923  11.543
96503W        W68917  27.161  39.824   4.738
96504W        W68918  11.648  41.914  13.866
96505W        W68919  32.521  40.982   0.742
96506W        W68920  21.036  30.430  12.944
96507W        W68921   7.809  23.706   3.648
96508W        W68922  29.469  24.572   3.749
96509W        W68923  24.230   4.827  13.950
96510W        W68924  30.151  10.288  11.482
96511W        W68925  41.987  24.205  10.412
96512W        W68926  16.171  42.986   1.442
96513W        W68927  38.877  18.752   0.870
96514W        W68928  11.831   4.760  12.971
96515W        W68929  30.572  39.545  13.962
96516W        W68930  41.443  37.029  13.493
96517W        W68931  30.491  37.062  14.459
96518W        W68932   6.367   6.703   0.729
96519W        W68933  39.895  35.924   1.340
96520W        W68934   5.221  12.182  11.449
96521W        W68935  10.261  37.986   3.380
96522W        W68936  29.003  32.619   4.221
96523W        W68937  19.545  39.441  12.535
96524W        W68938  30.445  30.572  14.912
96525W        W68939  24.549  28.105  13.329
96526W        W68940  33.387  18.749   0.753
96527W        W68941  35.936  22.041  14.397
96528W        W68942  12.142  11.361  11.396
96529W        W68943  30.059  41.340   2.234
96530W        W68944  13.738  30.497  10.932
96531W        W68945  35.431  20.236  11.110
96532W        W68946  32.917  19.662   4.816
96533W        W68947  41.039  35.998  10.952
96534W        W68948   8.835  22.546  11.406
96535W        W68949  42.385   4.777  13.384
96536W        W68950  44.871  11.132   0.758
96537W        W68951   6.794  18.228   3.809
96538W        W68952  16.655   8.170  12.424
96539W        W68953   1.307  28.442  14.970
96540W        W68954  28.547  37.932   1.436
96541W        W68955  27.059  39.399  14.758
96542W        W68956  14.611  24.146   2.324
96543W        W68957  23.032  37.014  12.862
96544W        W68958   5.357  24.641   3.272
96545W        W68959   4.241  26.573  11.054
96546W        W68960  36.876  26.632   3.658
96547W        W68961  43.949  12.169   3.210
96548W        W68962  30.535  22.134   0.866
96549W        W68963  16.302  32.931   3.214
96550W        W68964  36.347  26.505  12.824
96551W        W68965  40.401   9.668   1.770
96552W        W68966  31.063   9.377   3.230
96553W        W68967  19.584  20.070  11.554
96554W        W68968  44.986   6.901   1.877
96555W        W68969   9.217  11.734   0.958
96556W        W68970  12.827  13.614  12.843
96557W        W68971  20.633  33.586  13.839
96558W        W68972  18.591  14.704   3.198
96559W        W68973  31.082  28.464  11.504
96560W        W68974   6.842  27.059  14.342
96561W        W68975  14.312  42.814  11.451
96562W        W68976  25.617   1.925   0.360
96563W        W68977  18.236  42.437   0.816
96564W        W68978  12.144  15.164   4.777
96565W        W68979   6.857  20.183   4.663
96566W        W68980   4.365  39.915   5.569
96567W        W68981  16.702  39.377  13.460
96568W        W68982  19.763  25.594  12.021
96569W        W68983  33.556  26.968  12.883
96570W        W68984  34.075   4.381  11.998
96571W        W68985  24.490  11.134   2.892
96572W        W68986  29.438   0.395   2.889
96573W        W68987  30.592  35.013  11.482
96574W        W68988  17.214  15.127  13.799
96575W        W68989  14.098   5.355  13.850
96576W        W68990  11.305   7.298   0.900
96577W        W68991  28.996   6.804  14.318
96578W        W68992  38.901  17.800   4.604
96579W        W68993  38.445  44.925   0.287
96580W        W68994  36.417  30.950   0.477
96581W        W68995  17.126   8.814   2.178
96582W        W68996  29.429   9.320   0.942
96583W        W68997  35.029  14.671  11.080
96584W        W68998  31.488   2.764   0.965
96585W        W68999  27.040  32.920   4.223
96586W        W69000  38.062  31.579  12.546
96587W        W69001  22.157  22.576   2.805
96588W        W69002  42.379  38.408  11.899
96589W        W69003   0.813  20.033  12.561
96590W        W69004  44.779  20.035   2.707
96591W        W69005  39.481   0.367  11.570
96592W        W69006  27.066  27.056  13.906
96593W        W69007  20.683  19.734   2.903
96594W        W69008  12.326   4.899  14.960
96595W        W69009  39.526  20.052   0.408
96596W        W69010   2.917   1.864   4.308
96597W        W69011  11.862  27.143   4.228
96598W        W69012  31.121   2.757   3.148
96599W        W69013  23.565  22.055   2.414
96600W        W69014   0.785   3.219   2.816
96601W        W69015  31.586  17.266   0.855
96602W        W69016  25.101  11.229  14.838
96603W        W69017  34.916   0.882  11.521
96604W        W69018  32.927  23.179  10.910
96605W        W69019  35.445  27.527   1.429
96606W        W69020  39.023   7.324  13.034
96607W        W69021  25.543  42.415  12.985
96608W        W69022  13.167  21.229   0.468
96609W        W69023  16.204  29.617  12.950
96610W        W69024   4.339  16.232  14.809
96611W        W69025  11.200   0.891   4.707
96612W        W69026  33.035  31.913   4.331
96613W        W69027  36.498  20.726   2.751
96614W        W69028  26.043  16.232  11.117
96615W        W69029  22.016  43.922  12.953
96616W        W69030  29.542   1.468   0.385
96617W        W69031   6.386  12.321  10.439
96618W        W69032  42.506  30.498   1.909
96619W        W69033  13.608  32.125  13.865
96620W        W69034   5.775   0.915  14.391
96621W        W69035  24.095  25.179  13.855
96622W        W69036  10.143   5.329   2.865
96623W        W69037  14.831   5.849  14.779
96624W        W69038  29.081   6.788  10.417
96625W        W69039   4.407  27.060   4.758
96626W        W69040  26.001  22.155   1.776
96627W        W69041  22.617  37.468   5.198
96628W        W69042  40.011  11.318   2.868
96629W        W69043  37.544   8.726  12.082
96630W        W69044   8.402  40.440   4.755
96631W        W69045  23.010  21.561  12.981
96632W        W69046  17.692  28.030   2.721
96633W        W69047  23.067  28.144  13.805
96634W        W69048   0.489  37.064   1.261
96635W        W69049  31.074  38.040  14.921
96636W        W69050  13.841  13.117   3.741
96637W        W69051   4.759  41.937  10.540
96638W        W69052  41.982  21.205  13.989
96639W        W69053  34.581   1.254  11.571
96640W        W69054  25.217  40.961  11.900
96641W        W69055  39.998  10.671  14.815
96642W        W69056  25.134  37.483  11.907
96643W        W69057  39.920  30.439  11.605
96644W        W69058  14.213  29.113  13.863
96645W        W69059  32.970  44.263  11.588
96646W        W69060  19.039  10.789   4.745
96647W        W69061  28.933  21.659   0.778
96648W        W69062  23.162  33.949   1.761
96649W        W69063  23.578  38.505   1.726
96650W        W69064  26.073  40.477  14.482
96651W        W69065   7.249  25.023  12.877
96652W        W69066   9.777  21.236   2.698
96653W        W69067   8.702  34.414   4.678
96654W        W69068  14.705  37.419   2.238
96655W        W69069   4.779  16.735  14.472
96656W        W69070   8.294  44.359  12.507
96657W        W69071   0.442  14.324  12.567
96658W        W69072   4.894  24.116   3.195
96659W        W69073  21.586   4.838   3.758
96660W        W69074  24.065  16.253  10.039
96661W        W69075  37.949  17.670   0.477
96662W        W69076  13.767  14.595  12.841
96663W        W69077  28.068  44.307  13.378
96664W        W69078  36.382  38.568   3.154
96665W        W69079   0.256   9.833   1.821
96666W        W69080  33.481  40.907  13.987
96667W        W69081  35.859  11.159  13.792
96668W        W69082  13.669  36.962   0.765
96669W        W69083  43.448  26.144   1.321
96670W        W69084  11.255   4.936  12.987
96671W        W69085  29.571  23.148   1.264
96672W        W69086   7.304  35.909  13.836
96673W        W69087  10.209  32.122   3.796
96674W        W69088  12.128  38.877   1.894
96675W        W69089  37.025   1.885   0.466
96676W        W69090   2.270  36.002   0.765
96677W        W69091  14.285  11.185   3.239
96678W        W69092  28.480  38.560  11.384
96679W        W69093  39.923  33.914   1.920
96680W        W69094  10.273   0.381   3.146
96681W        W69095  28.123  11.184   1.890
96682W        W69096  25.651  27.473  12.461
96683W        W69097  35.502  43.448  11.028
96684W        W69098  34.052  36.564  14.372
96685W        W69099  19.041  21.198  14.820
96686W        W69100  38.448  41.786  13.464
96687W        W69101  26.546  32.551  10.598
96688W        W69102  21.152   4.304  12.383
96689W        W69103  43.437  43.842   3.360
96690W        W69104  17.766  23.534  12.439
96691W        W69105   4.310   0.263  13.456
96692W        W69106  16.135  41.874  14.968
96693W        W69107   8.824  30.017   0.805
96694W        W69108  41.342   9.234   1.892
96695W        W69109  25.482  31.075   3.337
96696W        W69110  22.576  35.893   4.718
96697W        W69111  14.694  14.737  12.033
96698W        W69112  18.095  27.068  14.430
96699W        W69113  19.609  37.516   3.753
96700W        W69114  21.622   3.363   0.370
96701W        W69115   3.843   8.790  10.538
96702W        W69116   9.687  10.758  11.548
96703W        W69117  35.461   1.845  12.446
96704W        W69118  28.656  44.877   0.246
96705W        W69119  44.792  10.744  10.476
96706W        W69120  35.016  36.353   1.854
96707W        W69121  15.253  12.177  13.467
96708W        W69122  42.917  38.354   0.251
96709W        W69123  24.983  11.361   1.239
96710W        W69124  41.939   0.789  12.068
96711W        W69125  26.691  26.644   0.930
96712W        W69126   9.717  32.401  14.509
96713W        W69127  12.625   4.265   4.183
96714W        W69128  42.864  30.914   1.247
96715W        W69129  35.079  32.084   2.882
96716W        W69130  42.895  17.106  12.889
96717W        W69131   3.867  35.049   2.267
96718W        W69132  21.066  31.932   0.871
96719W        W69133  17.249  18.763   4.122
96720W        W69134  23.501  19.656   2.222
96721W        W69135  19.630  18.602   0.290
96722W        W69136  29.451  27.504  10.593
96723W        W69137  44.298  19.210   2.340
96724W        W69138  11.341  24.497   2.241
96725W        W69139  32.609  39.869  10.969
96726W        W69140  41.461  33.435   0.898
96727W        W69141   0.428  38.035  10.546
96728W        W69142  25.202  18.126  13.343
96729W        W69143  37.548  31.139  11.532
96730W        W69144  19.101  21.536   1.862
96731W        W69145   2.355  29.638   0.449
96732W        W69146  36.089  19.749  14.405
96733W        W69147  39.888   5.692  14.845
96734W        W69148  34.927  36.547  13.331
96735W        W69149   1.816   8.822   2.684
96736W        W69150  44.894  10.370  10.461
96737W        W69151  12.739  22.728   1.788
96738W        W69152   5.856  41.863  11.016
96739W        W69153  42.894  30.152   4.159
96740W        W69154  40.845  37.905   1.904
96741W        W69155  14.787  27.144   3.352
96742W        W69156  36.956  28.612  12.383
96743W        W69157  26.631  44.931   1.245
96744W        W69158  14.254   6.278   5.148
96745W        W69159  25.157  18.194   0.869
96746W        W69160  42.799  39.343  11.074
96747W        W69161  21.028  28.096   2.236
96748W        W69162  38.460  15.295   0.393
96749W        W69163   5.838  21.147  12.478
96750W        W69164   7.708  22.525   2.693
96751W        W69165  10.873   4.891  14.379
96752W        W69166   6.708  10.811   1.895
96753W        W69167  28.010  38.414  14.781
96754W        W69168  14.791  14.710   0.319
96755W        W69169  10.351   7.344  13.530
96756W        W69170  21.637  28.992   1.376
96757W        W69171   2.895   8.208  12.896
96758W        W69172  41.883  21.179   4.250
96759W        W69173  38.995   3.956  14.878
96760W        W69174  30.144  12.324   1.302
96761W        W69175  27.133   4.839  11.429
96762W        W69176  18.282  29.119  12.539
96763W        W69177  27.168   4.309   2.821
96764W        W69178  23.135  43.804  13.902
96765W        W69179   7.785   1.947  14.008
96766W        W69180  10.310   9.345   3.849
96767W        W69181   4.352   5.825   0.462
96768W        W69182  20.175  33.008  12.010
96769W        W69183  16.219   0.361  11.081
96770W        W69184  40.487  34.466  13.905
96771W        W69185   9.852   0.413  13.542
96772W        W69186   7.266   3.374   2.186
96773W        W69187  10.203  15.771  14.409
96774W        W69188  27.671  28.962  11.029
96775W        W69189  32.451  14.631  10.496
96776W        W69190  38.430  32.123   4.294
96777W        W69191  22.071  35.428   2.239
96778W        W69192  27.159   9.202   3.352
96779W        W69193  14.736   8.735   5.608
96780W        W69194  37.462  29.435   2.414
96781W        W69195   1.467   5.294  13.526
96782W        W69196  42.884  38.396  10.624
96783W        W69197  11.369  21.544   2.751
96784W        W69198   2.924  15.753  13.501
96785W        W69199  13.347   3.717   1.403
96786W        W69200  31.902  38.997   1.873
96787W        W69201  40.533  39.828  14.864
96788W        W69202  28.101  39.937  14.421
96789W        W69203  15.179  33.401   1.428
96790W        W69204  19.054  38.544   2.299
96791W        W69205   0.865  23.209   4.689
96792W        W69206  16.273   8.870  10.982
96793W        W69207  40.303  41.918   4.827
96794W        W69208   0.916  26.166   2.899
96795W        W69209  26.558  24.216   2.348
96796W        W69210  36.923  15.250   4.290
96797W        W69211  19.604  23.008   2.384
96798W        W69212  19.115   3.302   4.609
96799W        W69213  25.570   7.700  13.997
96800W        W69214  25.064  17.692   5.619
96801W        W69215  31.499   7.376   0.463
96802W        W69216   8.795  18.258  10.956
96803W        W69217  13.202  17.205   2.316
96804W        W69218  15.181  25.971  10.598
96805W        W69219  18.791   8.186  13.060
96806W        W69220  27.690  27.196   3.828
96807W        W69221  42.813  19.773   0.253
96808W        W69222  21.513  11.812  13.487
96809W        W69223  18.281  38.526  14.435
96810W        W69224  24.977  33.991  13.860
96811W        W69225  13.233   0.846   1.397
96812W        W69226   0.838  37.989   0.953
96813W        W69227  40.874  20.263   3.657
96814W        W69228  21.059  18.200   0.244
96815W        W69229  40.845  40.820  12.986
96816W        W69230  16.139   3.809  10.497
96817W        W69231  25.103  34.043  13.477
96818W        W69232  16.802  41.398  11.965
96819W        W69233  33.961  21.601   1.710
96820W        W69234  32.579   1.481  11.862
96821W        W69235  16.294  21.247   0.389
96822W        W69236  41.493  13.224   4.150
96823W        W69237  32.003  22.745  10.459
96824W        W69238  36.448  40.011  10.086
96825W        W69239  40.840  14.747  13.917
96826W        W69240  15.178  36.066   4.296
96827W        W69241  11.701  30.525   1.919
96828W        W69242  36.877  18.107   1.303
96829W        W69243  22.107  25.641   4.831
96830W        W69244  31.018  35.870   1.739
96831W        W69245  33.489   1.974  11.020
96832W        W69246  26.053   9.810   1.780
96833W        W69247  16.606  38.822   4.607
96834W        W69248   9.230  24.068   3.295
96835W        W69249  37.501  17.668   1.255
96836W        W69250  30.424  14.292   5.090
96837W        W69251   6.242  21.133   5.137
96838W        W69252  43.378  44.279   0.844
96839W        W69253   7.763   1.784  11.589
96840W        W69254  14.101  43.864  14.820
96841W        W69255  39.853  26.104  11.045
96842W        W69256  15.228  19.533   5.621
96843W        W69257  39.481   7.383   1.299
96844W        W69258   9.853   7.215  12.897
96845W        W69259   0.771   8.339   4.122
96846W        W69260  29.491  39.992  12.394
96847W        W69261   9.329  14.781   4.165
96848W        W69262   4.758  14.820   5.130
96849W        W69263  35.469  22.194   5.138
96850W        W69264   7.758  16.786  11.025
96851W        W69265  10.151  17.794   3.149
96852W        W69266  30.912  27.653   3.251
96853W        W69267   4.419   1.844   4.254
96854W        W69268  43.333  15.160   0.468
96855W        W69269  40.436  26.156   4.294
96856W        W69270  31.123  26.525   4.636
96857W        W69271  38.395  33.984  11.590
96858W        W69272  37.391  24.652   1.894
96859W        W69273  11.312  40.809   2.713
96860W        W69274  35.037  23.522   5.260
96861W        W69275  15.260  42.309   3.692
96862W        W69276  43.842  30.609  13.906
96863W        W69277  26.673   6.341  11.572
96864W        W69278  33.559  20.675  11.456
96865W        W69279  18.763  11.862   2.893
96866W        W69280   2.936  33.110  12.846
96867W        W69281  13.276  14.784   1.311
96868W        W69282  30.111  10.873   2.883
96869W        W69283  42.481  38.842  12.497
96870W        W69284  27.115  27.606  11.902
96871W        W69285  27.466  15.664  11.433
96872W        W69286  30.481  29.633  13.021
96873W        W69287   0.958   9.655  13.506
96874W        W69288  24.574  26.134   2.799
96875W        W69289   0.316  37.401   1.876
96876W        W69290  23.711   2.885   2.297
96877W        W69291  20.217  40.901   4.258
96878W        W69292  34.074  20.632  12.877
96879W        W69293  21.017   7.234  14.916
96880W        W69294   7.848  28.489   1.221
96881W        W69295   8.863  17.217  11.031
96882W        W69296  35.034  19.221   3.754
96883W        W69297  38.441  33.403   4.802
96884W        W69298  29.653  11.789   5.224
96885W        W69299   0.308  36.536   2.683
96886W        W69300  26.579   7.258   4.198
96887W        W69301   1.829  38.449   3.185
96888W        W69302  16.151  29.162  13.333
96889W        W69303   4.937   0.925   5.148
96890W        W69304  38.389  18.128  14.799
96891W        W69305  21.754  28.445  13.384
96892W        W69306  24.025  23.020   1.442
96893W        W69307  26.024   9.681   2.321
96894W        W69308  22.180  10.679  14.927
96895W        W69309  33.444  26.576   3.221
96896W        W69310  39.974  34.386   4.618
96897W        W69311   3.309  40.867  12.370
96898W        W69312  42.780  18.646  10.949
96899W        W69313  44.777  35.988   4.139
96900W        W69314   5.887  16.205  14.987
96901W        W69315  27.064  31.518   0.308
96902W        W69316  16.141  23.692  12.577
96903W        W69317  11.276  40.989   0.320
96904W        W69318  23.596  26.595   1.700
96905W        W69319  16.082  33.877   4.760
96906W        W69320  44.882  22.729   1.883
96907W        W69321   6.810  32.439   0.763
96908W        W69322  15.140   7.786  14.972
96909W        W69323   2.354  39.371  14.401
96910W        W69324   9.672   9.803  11.567
96911W        W69325   0.895  10.644   0.942
96912W        W69326  26.531   6.420   4.799
96913W        W69327  12.852  43.806   2.709
96914W        W69328   5.719  33.570   3.385
96915W        W69329  32.935  17.750  14.827
96916W        W69330  30.125  10.301   2.718
96917W        W69331   3.331  26.046   5.631
96918W        W69332  40.001   7.185  12.491
96919W        W69333  26.092   3.444  14.405
96920W        W69334  25.173  23.130  11.961
96921W        W69335  12.361   7.372   1.316
96922W        W69336  42.401  35.547   4.666
96923W        W69337  35.485   1.861   0.809
96924W        W69338  41.912  17.228  12.398
96925W        W69339   3.383  22.024  10.127
96926W        W69340  24.185  22.582   3.656
96927W        W69341  10.317  36.878  14.803
96928W        W69342  12.325  37.402   4.259
96929W        W69343   4.715  33.895  14.909
96930W        W69344  11.140  16.592   0.301
96931W        W69345  10.698  16.294  12.505
96932W        W69346   9.780  29.516  10.414
96933W        W69347  24.629  38.852   2.818
96934W        W69348  12.121  24.666   2.338
96935W        W69349  15.104  26.592  14.891
96936W        W69350  22.083   7.834   4.814
96937W        W69351  12.262   4.910   2.850
96938W        W69352  25.041  43.901   2.212
96939W        W69353  27.127  28.179  14.784
96940W        W69354  28.107  27.074   1.881
96941W        W69355  19.154  21.638  14.375
96942W        W69356   7.715  44.289   4.788
96943W        W69357  35.938   5.362   3.350
96944W        W69358  35.992  34.435  13.310
96945W        W69359   0.425  29.098  14.904
96946W        W69360  37.368  32.985   2.674
96947W        W69361   4.315  25.111   1.214
96948W        W69362  23.720  44.329  10.544
96949W        W69363   9.801  23.161   1.317
96950W        W69364   3.431  23.573   2.774
96951W        W69365  41.945  18.210  12.404
96952W        W69366  37.402  34.590   1.235
96953W        W69367  35.980   4.319  12.992
96954W        W69368  12.182  14.654  13.874
96955W        W69369  25.572  41.945   3.795
96956W        W69370  18.717  21.638   4.144
96957W        W69371  19.163   1.281   0.474
96958W        W69372  25.994  17.783   1.872
96959W        W69373   9.800  11.716  11.873
96960W        W69374  36.926  24.633  14.842
96961W        W69375  25.156  12.357   4.256
96962W        W69376  42.976  10.666  13.538
96963W        W69377  21.555  27.632   0.276
96964W        W69378  35.103  32.968   1.700
96965W        W69379  38.391  17.158  11.903
96966W        W69380  24.489  43.796   3.855
96967W        W69381  42.972  42.874   2.837
96968W        W69382   9.773  39.865  13.478
96969W        W69383   1.822  41.495  11.379
96970W        W69384  38.991  44.882  10.968
96971W        W69385  11.190  22.505   3.271
96972W        W69386   2.867  12.143   0.849
96973W        W69387  17.649  13.290  14.342
96974W        W69388  16.636   6.334   0.892
96975W        W69389  11.686   7.397  10.047
96976W        W69390   4.226  15.207   5.595
96977W        W69391  29.507   5.902   3.165
96978W        W69392  10.844  22.221   3.373
96979W        W69393  10.775   5.207  11.550
96980W        W69394   5.743  44.816   2.326
96981W        W69395  11.767   9.657  12.087
96982W        W69396  43.959   3.228   1.340
96983W        W69397  27.043  37.862  10.923
96984W        W69398  25.979   2.769  10.571
96985W        W69399  42.822  18.194   3.343
96986W        W69400   1.372  27.493   1.894
96987W        W69401  43.900  20.653   0.339
96988W        W69402   4.710  36.433  11.905
96989W        W69403  20.193  30.038   1.929
96990W        W69404  21.173   5.899   4.325
96991W        W69405  31.491  35.908  11.861
96992W        W69406  34.079  38.857  14.514
96993W        W69407  29.034  43.928   4.152
96994W        W69408  24.686  24.222   4.756
96995W        W69409  21.040  38.976  14.469
96996W        W69410  25.058  28.086  14.968
96997W        W69411  43.922  11.734   1.760
96998W        W69412  11.330  16.300  14.412
96999W        W69413  15.625   5.924   1.352
97000W        W69414  15.716   1.249  12.531
97001W        W69415  22.074   8.720   1.249
97002W        W69416  43.869   6.243  13.034
97003W        W69417  21.181  21.591  10.461
97004W        W69418  41.824  25.216  11.045
97005W        W69419  10.228  21.145  10.127
97006W        W69420  32.529  15.254   0.832
97007W        W69421   2.453  24.049  12.495
97008W        W69422  35.985   6.266  11.051
97009W        W69423  42.981  21.224   4.299
97010W        W69424   3.290  31.489   1.777
97011W        W69425   8.723   3.301   4.117
97012W        W69426  29.019   5.757   4.128
97013W        W69427  14.228  38.461  14.019
97014W        W69428  26.546  19.248   1.820
97015W        W69429  11.687   9.808   1.320
97016W        W69430  14.211  41.916   1.225
97017W        W69431   0.422  33.923  10.974
97018W        W69432   0.474  11.134   3.340
97019W        W69433   9.167   5.749   9.961
97020W        W69434  19.533   4.733  14.983
97021W        W69435  33.616  44.880  13.366
97022W        W69436  12.116  39.844   4.172
97023W        W69437  36.472  30.098  12.924
97024W        W69438  34.957   9.722  12.478
97025W        W69439   2.751  31.632  14.501
97026W        W69440  20.632  18.609  13.873
97027W        W69441  21.521  33.449  12.440
97028W        W69442   3.814  43.440  10.896
97029W        W69443  13.808  27.152  13.965
97030W        W69444  33.034  16.663   0.793
97031W        W69445  40.978  33.026  11.411
97032W        W69446  27.509  15.802   2.250
97033W        W69447  26.570  36.494   4.322
97034W        W69448  15.255  22.201   2.868
97035W        W69449   2.409  42.422   9.472
97036W        W69450  44.487  15.273   2.295
97037W        W69451  26.184  43.471  14.864
97038W        W69452  24.640  23.642   2.776
97039W        W69453   5.390  42.384   4.137
97040W        W69454  19.620  39.866  13.816
97041W        W69455  40.829  23.601  12.090
97042W        W69456   3.307   6.250   3.660
97043W        W69457  17.122  42.902   4.187
97044W        W69458  36.925  21.545  13.050
97045W        W69459  19.133   4.727  14.412
97046W        W69460  18.723  24.070  13.399
97047W        W69461  11.680  43.877   0.937
97048W        W69462  20.255  31.530  13.801
97049W        W69463  24.150   6.254  13.327
97050W        W69464  44.993   2.366   2.383
97051W        W69465  19.728  43.803   3.200
97052W        W69466  40.460   6.881  10.437
97053W        W69467  11.277  13.340  11.596
97054W        W69468   9.873  23.569  13.496
97055W        W69469  11.231  18.206   1.705
97056W        W69470  44.439  32.906   1.725
97057W        W69471  42.413  13.647  14.896
97058W        W69472  40.806   0.770  14.008
97059W        W69473  14.278  34.500   1.269
97060W        W69474   9.670   3.381  14.865
97061W        W69475   1.895  41.902   1.379
97062W        W69476  16.582   2.797  12.885
97063W        W69477  44.992  22.679  11.912
97064W        W69478  26.053   4.871   1.216
97065W        W69479  10.368  13.787  10.964
97066W        W69480   6.826  41.000   3.283
97067W        W69481  18.139  28.574  12.056
97068W        W69482  19.078  33.896   3.179
97069W        W69483  32.994  34.949   3.728
97070W        W69484   9.799  25.538   4.795
97071W        W69485  25.026  21.518   0.257
97072W        W69486  27.024  38.971  11.419
97073W        W69487  44.800  22.180  12.399
97074W        W69488  22.140  23.988  11.913
97075W        W69489  20.190  19.676   4.251
97076W        W69490  22.996  21.121   0.890
97077W        W69491  23.514   5.361  10.943
97078W        W69492  43.377  31.500   4.613
97079W        W69493  42.017   9.353  12.562
97080W        W69494  40.353  17.683  11.964
97081W        W69495  42.394  15.326  12.438
97082W        W69496  23.649  27.965  13.011
97083W        W69497  19.561  38.026   2.800
97084W        W69498  35.546  36.867   2.363
97085W        W69499  42.460  44.474   2.233
97086W        W69500  20.735  13.715   0.333
97087W        W69501  26.988  36.884   3.244
97088W        W69502   3.848   4.339   0.837
97089W        W69503  41.022  37.466   2.731
97090W        W69504  29.670  26.659  12.847
97091W        W69505  12.297   3.388   4.692
97092W        W69506   9.383  26.078  14.463
97093W        W69507  30.505  29.599  11.858
97094W        W69508  29.477  37.937   0.326
97095W        W69509  17.071  41.933   4.666
97096W        W69510  29.506  34.974   3.714
97097W        W69511  31.432  43.437  12.947
97098W        W69512  44.492   8.746  11.546
97099W        W69513  13.753  22.068  13.475
97100W        W69514  18.623  42.384  14.285
97101W        W69515  22.739   7.709   3.359
97102W        W69516   8.273  36.500   0.875
97103W        W69517  34.482  30.068   4.121
97104W        W69518  26.121   5.763  13.030
97105W        W69519  33.961   7.309   4.622
97106W        W69520  19.701  40.526   0.929
97107W        W69521  28.523  39.348   2.680
97108W        W69522   0.977  38.868   9.963
97109W        W69523  31.528  22.525  14.888
97110W        W69524  13.757  40.048   1.784
97111W        W69525  26.969  34.596  13.498
97112W        W69526  43.369  32.077   4.833
97113W        W69527   2.371  27.594   1.329
97114W        W69528  15.695  33.902   0.474
97115W        W69529   8.736  30.137   1.276
97116W        W69530  35.592   4.837   1.356
97117W        W69531  13.841  37.888   4.662
97118W        W69532   5.361   5.349  14.418
97119W        W69533  39.895  31.629   2.764
97120W        W69534  21.648   1.440  13.517
97121W        W69535  26.583   8.393   2.228
97122W        W69536   6.260  20.134  12.904
97123W        W69537  31.130  44.841   2.185
97124W        W69538  40.816   9.326   0.455
97125W        W69539  27.653  35.547   3.853
97126W        W69540  29.018  14.829  13.027
97127W        W69541  24.566  43.875  12.541
97128W        W69542  21.137   7.393   4.245
97129W        W69543  20.046  31.574   4.151
97130W        W69544  30.965   0.979  10.962
97131W        W69545  20.718  33.384   4.782
97132W        W69546  23.565  41.298   2.365
97133W        W69547  36.086  11.734  12.388
97134W        W69548  29.927  13.158  11.936
97135W        W69549  29.008  12.169  12.553
97136W        W69550  16.792  35.911   0.920
97137W        W69551  20.572  40.339  13.063
97138W        W69552  18.287  43.950   4.129
97139W        W69553  24.193  25.603   2.351
97140W        W69554  10.210  37.494  14.817
97141W        W69555  35.603  15.708   4.781
97142W        W69556  12.264  29.667  10.464
97143W        W69557  27.981  35.997   5.264
97144W        W69558  18.655  18.293  12.003
97145W        W69559  40.002  12.294   1.805
97146W        W69560  16.671  31.924   2.222
97147W        W69561   9.304   6.889  10.598
97148W        W69562  24.518  13.833  14.800
97149W        W69563  22.662  40.009   3.850
97150W        W69564   1.911  30.992   3.320
97151W        W69565  40.362  44.797   0.385
97152W        W69566  26.480  41.003  14.276
97153W        W69567  30.556  14.149  14.497
97154W        W69568   2.748   0.369  12.918
97155W        W69569  26.128  37.338   2.752
97156W        W69570  35.007  34.084  10.938
97157W        W69571  17.560  12.173  14.856
97158W        W69572   4.733  43.425   0.932
97159W        W69573   1.761   4.749   2.690
97160W        W69574  25.085  35.908   0.322
97161W        W69575  40.462   6.319   2.662
97162W        W69576   3.884  38.455  11.504
97163W        W69577  28.435  15.783   0.829
97164W        W69578   1.950  30.964   1.840
97165W        W69579   8.252  22.690  11.871
97166W        W69580  28.578   4.817  12.541
97167W        W69581  24.983  43.482  13.487
97168W        W69582  44.925   6.424  11.111
97169W        W69583   9.810   8.400  10.910
97170W        W69584  41.362   1.767   3.228
97171W        W69585  25.533  43.874   9.485
97172W        W69586   5.330   7.322   0.940
97173W        W69587  25.710   5.306  14.322
97174W        W69588  18.077   8.197   4.335
97175W        W69589  35.856  12.313   4.682
97176W        W69590   8.231  25.005  14.304
97177W        W69591  22.081  40.911  14.505
97178W        W69592  39.860  12.699  10.568
97179W        W69593  23.632  38.977   1.823
97180W        W69594  42.415  37.482  10.641
97181W        W69595  37.954  20.676   3.270
97182W        W69596   7.249  29.108  13.824
97183W        W69597   4.877  11.233  10.105
97184W        W69598  34.053   3.342  12.976
97185W        W69599  28.503  21.516   1.363
97186W        W69600  26.567  11.735   1.247
97187W        W69601  27.524  11.310   4.687
97188W        W69602  37.919  32.526  13.413
97189W        W69603  15.139  29.011  12.935
97190W        W69604  41.991  29.534  14.284
97191W        W69605  17.602   8.403  12.863
97192W        W69606  43.946  24.586   2.805
97193W        W69607  31.019  42.861   2.266
97194W        W69608  29.564  16.607   1.367
97195W        W69609   9.854  21.595  14.882
97196W        W69610  24.157  44.836  13.936
97197W        W69611  14.727  36.576   2.810
97198W        W69612   5.695  23.514  13.951
97199W        W69613  34.087  17.600  13.064
97200W        W69614  39.540  32.907  10.558
97201W        W69615   5.434   0.256   2.288
97202W        W69616  39.333  42.521   1.933
97203W        W69617  32.476   6.820   2.751
97204W        W69618  33.929  10.178  14.956
97205W        W69619  23.713  30.447   1.220
97206W        W69620  16.604   1.749  14.391
97207W        W69621   1.397  17.556  14.937
97208W        W69622  19.749   7.792   0.443
97209W        W69623  23.003   7.679  13.893
97210W        W69624   1.925  31.908  11.918
97211W        W69625   4.861  26.953  11.006
97212W        W69626  40.499  14.214   4.622
97213W        W69627  21.625  10.207  13.820
97214W        W69628   4.910  10.280   2.807
97215W        W69629  12.151  21.136   2.266
97216W        W69630   7.848  29.616  11.037
97217W        W69631  39.885   7.417  11.599
97218W        W69632   3.234  43.889   1.243
97219W        W69633  17.278   3.921   2.768
97220W        W69634  14.769  29.467  11.403
97221W        W69635  32.478   8.665   2.283
97222W        W69636  10.874  41.493   1.254
97223W        W69637  15.292  10.869   3.675
97224W        W69638  38.930  18.684  10.517
97225W        W69639   1.258  35.880   2.735
97226W        W69640  22.095  41.463   4.721
97227W        W69641  36.492  35.057   5.273
97228W        W69642  40.494   5.807   2.827
97229W        W69643  44.980  27.648   1.874
97230W        W69644  23.989   1.352   4.210
97231W        W69645   8.318   1.867  11.968
97232W        W69646  42.997  32.911  12.078
97233W        W69647  30.132  37.957   0.761
97234W        W69648  13.296   8.184   5.727
97235W        W69649   0.392  10.314  11.612
97236W        W69650  38.860  39.372   0.415
97237W        W69651  13.715  17.749   2.840
97238W        W69652  30.499  24.666   2.702
97239W        W69653   8.885  27.530   2.877
97240W        W69654  35.398  33.118   0.271
97241W        W69655  19.114  40.883   4.736
97242W        W69656   5.870  24.681   0.847
97243W        W69657  29.030  12.172  14.954
97244W        W69658  13.682   3.420  10.957
97245W        W69659   2.368  36.507   2.834
97246W        W69660   4.901  31.102   2.241
97247W        W69661  26.962  14.687   1.899
97248W        W69662   7.680   3.923  14.989
97249W        W69663  30.038  38.038  10.610
97250W        W69664  20.551  42.958   0.283
97251W        W69665  19.652  10.672   4.205
97252W        W69666  19.213  15.210   1.304
97253W        W69667  13.652  39.840  14.393
97254W        W69668   6.193  31.434   0.259
97255W        W69669  26.981  19.706   0.298
97256W        W69670  38.440  36.991  10.558
97257W        W69671  20.030  14.822   1.276
97258W        W69672   4.382  43.957  12.433
97259W        W69673   4.396  29.072   0.293
97260W        W69674  30.062  24.702   3.278
97261W        W69675  23.515   2.868  11.094
97262W        W69676  39.469  41.015   4.717
97263W        W69677  11.260  44.293  10.413
97264W        W69678  21.605  32.114  12.422
97265W        W69679  19.162  13.786  10.590
97266W        W69680  14.777  22.556  14.768
97267W        W69681  44.955  15.234  11.005
97268W        W69682  22.235  11.270   1.734
97269W        W69683  10.271  11.645  14.451
97270W        W69684   5.883   0.826  12.371
97271W        W69685  19.265  30.020  12.392
97272W        W69686  18.226  23.987   2.336
97273W        W69687  39.385  31.493  12.967
97274W        W69688   2.800  33.557   4.793
97275W        W69689  16.188   4.754  11.908
97276W        W69690  38.063  38.057   4.709
97277W        W69691  14.767  32.398   2.736
97278W        W69692  29.625  44.344  13.502
97279W        W69693  20.240   9.327   0.928
97280W        W69694  27.689  25.561   1.823
97281W        W69695   2.435   7.291   0.266
97282W        W69696  15.790  35.449  10.993
97283W        W69697  15.200  28.463   4.618
97284W        W69698  42.817  13.176   4.353
97285W        W69699  43.341  10.298   4.352
97286W        W69700  32.024  25.625  14.819
97287W        W69701   4.213  16.265   5.602
97288W        W69702  11.184  16.120  10.584
97289W        W69703  27.159   5.907   3.744
97290W        W69704  41.408  11.657  14.008
97291W        W69705  39.408  21.636  13.853
97292W        W69706  14.319  37.539   4.609
97293W        W69707  27.621   6.874  10.636
97294W        W69708  36.051  21.139  10.990
97295W        W69709  37.365  29.502   2.802
97296W        W69710  43.848   6.824   3.773
97297W        W69711   5.319  27.632  12.910
97298W        W69712  39.993   6.361   4.727
97299W        W69713   8.805   3.769  11.487
97300W        W69714  27.978  13.340   1.349
97301W        W69715  12.629  17.622   3.147
97302W        W69716   3.712  32.041   5.204
97303W        W69717  36.959  28.454  14.286
97304W        W69718  12.137   9.158  13.961
97305W        W69719  18.731   6.862   1.282
97306W        W69720  13.695  22.224  12.072
97307W        W69721  14.279  33.954  12.373
97308W        W69722   2.255  26.107  12.891
97309W        W69723  34.554   0.461  14.505
97310W        W69724  17.620  25.040  14.977
97311W        W69725  20.577  42.884   3.735
97312W        W69726  15.810  13.107  11.040
97313W        W69727  10.212  17.192  10.552
97314W        W69728  44.340  14.833  13.029
97315W        W69729  31.468  25.204  14.864
97316W        W69730   4.700  29.567   4.170
97317W        W69731  27.985  40.823  13.410
97318W        W69732   9.807  13.315   2.275
97319W        W69733  24.117   8.315  11.495
97320W        W69734  25.036  43.511  12.856
97321W        W69735   2.357   9.301   1.429
97322W        W69736   1.895  25.150  13.463
97323W        W69737  42.819  30.530   0.938
97324W        W69738   2.882  38.539  14.027
97325W        W69739  16.247  39.973   4.246
97326W        W69740  35.420  19.048   3.372
97327W        W69741  25.094  14.639  12.432
97328W        W69742  39.401  19.280  13.979
97329W        W69743  22.527   8.695   3.298
97330W        W69744  13.199   9.262   1.750
97331W        W69745  31.948  10.357  14.814
97332W        W69746  36.057  19.545  14.974
97333W        W69747  15.595  11.651  12.837
97334W        W69748  31.985   5.750   2.246
97335W        W69749  18.256  26.575  12.561
97336W        W69750  28.931  22.669   2.195
97337W        W69751  22.168  34.568   2.253
97338W        W69752  40.360  12.751  14.996
97339W        W69753  27.963  34.982   4.189
97340W        W69754  30.421  44.898  10.439
97341W        W69755   1.385  23.581   2.828
97342W        W69756  44.783   7.321   3.197
97343W        W69757  29.061  13.781  12.972
97344W        W69758  19.063  37.888   3.272
97345W        W69759  19.696  33.455  14.837
97346W        W69760   9.352   4.901  11.110
97347W        W69761  15.315  24.596  12.931
97348W        W69762  26.023  25.123   4.606
97349W        W69763  20.175   8.272  10.492
97350W        W69764  11.775  16.789  14.989
97351W        W69765  25.146  16.294  14.894
97352W        W69766  23.154  15.219  14.355
97353W        W69767  20.742  18.170  10.953
97354W        W69768  10.829  42.840   2.677
97355W        W69769  26.646  34.882   3.357
97356W        W69770  39.893  40.459  11.884
97357W        W69771  19.707  30.641   4.180
97358W        W69772  23.525  35.017  13.043
97359W        W69773  43.943  35.392  10.957
97360W        W69774  18.612  30.523  14.340
97361W        W69775  12.318  24.134  14.937
97362W        W69776  24.604   1.343   9.619
97363W        W69777  23.628   2.278   2.900
97364W        W69778  37.431  11.660   2.230
97365W        W69779  13.148  28.112  14.892
97366W        W69780  42.380  16.813   2.410
97367W        W69781  44.299  42.792  11.868
97368W        W69782  11.636  12.760  11.899
97369W        W69783  35.008  13.215  11.432
97370W        W69784   2.231  20.605  10.431
97371W        W69785  26.161  14.154   1.377
97372W        W69786  30.948  22.527   0.443
97373W        W69787   4.789  13.293  14.846
97374W        W69788  19.074  27.467  13.995
97375W        W69789   4.877  29.135   9.947
97376W        W69790  24.195   0.976  14.301
97377W        W69791   3.279   2.420   4.749
97378W        W69792   5.778  43.822   0.394
97379W        W69793  29.998  12.791  12.994
97380W        W69794  28.610  20.111  13.960
97381W        W69795  38.529  31.126  13.045
97382W        W69796  22.739  16.811  14.027
97383W        W69797  40.970  20.743  11.989
97384W        W69798  39.399  25.530  11.438
97385W        W69799  11.179  23.207  12.077
97386W        W69800  16.643  20.678  14.953
97387W        W69801  24.168  28.131   3.160
97388W        W69802  23.194  36.904   1.249
97389W        W69803  20.661  41.445   0.424
97390W        W69804  27.663   1.796   2.353
97391W        W69805   8.295  23.032  13.406
97392W        W69806  31.096   3.891   4.116
97393W        W69807  36.070   9.240  10.991
97394W        W69808  37.916  13.625   4.220
97395W        W69809   2.242  38.352  12.358
97396W        W69810  11.293  38.984  14.950
97397W        W69811  18.774  18.106   4.692
97398W        W69812  33.970  11.732   3.302
97399W        W69813  28.065  42.890   0.727
97400W        W69814  37.064  17.071   2.250
97401W        W69815  44.877  44.381   0.327
97402W        W69816  43.882  14.728   3.794
97403W        W69817  20.042  31.635   3.803
97404W        W69818  20.635  17.759  10.497
97405W        W69819  30.133  33.028  12.833
97406W        W69820  37.037  13.749   0.297
97407W        W69821  36.561  11.368  12.514
97408W        W69822  21.203  13.194  11.451
97409W        W69823   0.746  33.554   4.137
97410W        W69824   5.368  39.551  12.397
97411W        W69825  15.204   3.245  11.610
97412W        W69826  20.639  42.396   3.268
97413W        W69827  30.990  37.993   1.704
97414W        W69828  20.541  16.125   0.271
97415W        W69829  30.067  34.991   4.645
97416W        W69830   4.738  28.111   1.886
97417W        W69831   8.776   7.702   2.868
97418W        W69832  42.791   6.861  14.447
97419W        W69833   0.830  40.819  12.909
97420W        W69834  39.844  31.575   1.763
97421W        W69835  32.984   9.335   3.279
97422W        W69836   8.829   1.423  11.560
97423W        W69837  34.576  19.645   2.748
97424W        W69838  32.094   0.858  11.889
97425W        W69839  33.108   9.794  14.304
97426W        W69840  20.560  43.438  10.410
97427W        W69841  13.256  38.474   2.305
97428W        W69842   7.773  22.528  14.327
97429W        W69843  36.501   8.234   1.281
97430W        W69844   5.377  21.684   3.804
97431W        W69845  29.983  25.712  13.351
97432W        W69846  39.035   6.294  12.975
97433W        W69847   5.933  28.098   3.359
97434W        W69848  30.447  38.908  13.027
97435W        W69849  36.398  10.671  14.400
97436W        W69850  14.666  13.206  12.075
97437W        W69851  32.419  25.610   1.359
97438W        W69852   7.766  13.171   3.216
97439W        W69853  20.213  33.983   3.848
97440W        W69854  30.642  42.872   1.444
97441W        W69855  39.467  19.167   2.369
97442W        W69856  19.238  30.965  12.921
97443W        W69857  31.146  13.672  13.488
97444W        W69858  33.881   0.961   1.891
97445W        W69859   6.821  25.196   0.861
97446W        W69860  16.147  13.834  11.481
97447W        W69861   6.849  39.855   0.851
97448W        W69862   6.913  11.854  12.076
97449W        W69863   3.319  44.945  10.972
97450W        W69864   5.293  31.084  11.482
97451W        W69865   9.313  11.226   1.383
97452W        W69866  26.018  28.494   0.921
97453W        W69867  36.086  15.716   4.685
97454W        W69868  24.113   6.291   2.786
97455W        W69869  19.141  39.428   0.847
97456W        W69870  33.584  24.723   0.953
97457W        W69871   9.358  33.052  12.000
97458W        W69872  26.653  34.608  14.424
97459W        W69873   4.335   6.745   0.281
97460W        W69874  24.716  40.926  11.002
97461W        W69875   5.766   8.855  14.954
97462W        W69876   7.179  34.413  13.987
97463W        W69877  15.618  18.194  10.608
97464W        W69878  43.777  16.195  14.919
97465W        W69879  38.459  22.672  13.445
97466W        W69880  44.835  21.212   4.631
97467W        W69881  40.054  24.582   1.440
97468W        W69882  16.713  39.358   1.776
97469W        W69883  26.581  40.360  10.943
97470W        W69884  43.323  44.284  12.449
97471W        W69885  37.451   2.802  10.474
97472W        W69886  34.442  16.772   0.249
97473W        W69887  28.124  28.005   0.822
97474W        W69888   1.754   3.912   2.708
97475W        W69889  11.205  12.791  13.490
97476W        W69890  40.337  44.384  14.988
97477W        W69891  12.177  31.896  13.499
97478W        W69892  29.500  20.237  12.997
97479W        W69893  11.235  20.589   1.292
97480W        W69894  40.460  39.539   3.851
97481W        W69895  13.149   5.778  11.008
97482W        W69896  32.584   1.860  12.365
97483W        W69897  13.284  18.758   4.631
97484W        W69898   9.159  22.226  14.919
97485W        W69899   7.863  34.031  11.101
97486W        W69900  33.406  43.509   3.759
97487W        W69901  20.665  14.811   0.285
97488W        W69902  34.607   3.871  13.038
97489W        W69903  30.132   0.402   3.253
97490W        W69904  38.363  44.394   2.303
97491W        W69905  42.906  36.466   0.399
97492W        W69906  13.162  33.117  14.925
97493W        W69907  19.205  42.849   1.306
97494W        W69908  14.144  11.179   3.644
97495W        W69909   1.340  32.491   3.696
97496W        W69910  26.017  28.613  11.052
97497W        W69911  22.143  30.503   4.156
97498W        W69912  34.480  44.917  12.039
97499W        W69913  24.196  30.114   4.312
97500W        W69914   1.283   4.808   1.292
97501W        W69915  41.796  25.617  14.276
97502W        W69916   4.319   4.905  11.880
97503W        W69917  14.195  16.116   2.272
97504W        W69918  26.097  33.005   2.273
97505W        W69919  11.226  34.485  10.462
97506W        W69920  15.085   5.407   1.798
97507W        W69921  25.487  24.069  12.474
97508W        W69922  13.836  20.216   3.741
97509W        W69923   1.736  15.201  14.317
97510W        W69924  18.706   2.366  11.019
97511W        W69925  43.790   0.903  11.951
97512W        W69926   3.773  30.976   2.330
97513W        W69927  19.246   4.408  10.404
97514W        W69928  17.797  41.351  13.384
97515W        W69929  21.724  39.900  14.305
97516W        W69930  34.447  37.850  13.006
97517W        W69931  12.632  19.053   4.162
97518W        W69932  33.965   9.791   2.316
97519W        W69933  40.917  23.185   1.738
97520W        W69934   5.321   1.324  11.445
97521W        W69935   3.948   9.776  14.435
97522W        W69936  17.069   8.835   3.640
97523W        W69937  15.619  16.636   1.863
97524W        W69938  23.659  41.962  13.889
97525W        W69939   0.752  27.543  12.071
97526W        W69940   2.236  37.838  14.009
97527W        W69941  19.239   3.850   4.244
97528W        W69942   1.303  32.573  14.322
97529W        W69943  28.071  44.379   5.224
97530W        W69944  16.719  38.865  13.450
97531W        W69945  15.713   9.750  14.913
97532W        W69946  26.951  43.271  10.921
97533W        W69947  21.757   4.402   4.721
97534W        W69948  43.340  42.781   3.275
97535W        W69949   3.271   7.277   0.916
97536W        W69950  33.424  28.050  13.335
97537W        W69951   6.332  39.384   0.956
97538W        W69952  10.201  42.312   2.392
97539W        W69953  15.770   6.746  13.877
97540W        W69954   7.738  27.189   1.270
97541W        W69955  21.051  30.449  11.384
97542W        W69956  25.038  44.334  10.637
97543W        W69957  24.121   4.809   1.740
97544W        W69958   1.332  36.937   3.747
97545W        W69959  19.255   4.718  12.360
97546W        W69960   2.794  12.680  10.594
97547W        W69961  36.412  38.351   4.731
97548W        W69962  42.915  25.634   5.125
97549W        W69963   7.364   7.725   2.210
97550W        W69964   8.376  40.440  14.512
97551W        W69965  30.985  31.084  14.340
97552W        W69966  24.509   6.703  11.507
97553W        W69967  41.342   2.872  14.462
97554W        W69968  44.934  36.532   4.731
97555W        W69969  40.467  25.993   2.368
97556W        W69970  25.482  23.734   0.271
97557W        W69971   2.811  40.892   4.334
97558W        W69972  42.806  32.598   0.928
97559W        W69973  17.718  14.760   0.376
97560W        W69974  11.323  13.338   1.324
97561W        W69975   1.946  35.370   3.852
97562W        W69976  26.681  32.491   0.320
97563W        W69977  14.125  43.273  14.939
97564W        W69978   7.290  20.112  13.834
97565W        W69979   6.309   8.874  11.480
97566W        W69980   2.754  12.279   2.318
97567W        W69981  33.010  32.954   2.767
97568W        W69982  29.964   2.351   2.807
97569W        W69983  22.703  33.544   3.746
97570W        W69984   5.797  30.100   4.185
97571W        W69985  15.327  19.621  14.370
97572W        W69986  27.103  40.975  12.561
97573W        W69987  13.110  22.530   3.366
97574W        W69988  23.006  15.234  10.410
97575W        W69989  12.322  42.791   4.626
97576W        W69990  35.055  11.345  12.060
97577W        W69991  35.087  13.223   0.955
97578W        W69992  39.409  27.957   0.405
97579W        W69993  10.248   0.801   3.740
97580W        W69994   5.248  42.527   1.392
97581W        W69995  34.999   1.353   0.353
97582W        W69996  29.548  22.619   4.792
97583W        W69997  37.378   5.216  14.370
97584W        W69998  14.178  31.560  12.444
97585W        W69999  12.841  43.340  14.464
97586W        W70000  33.436   7.789   4.259
97587W        W70001  40.342  11.845   3.218
97588W        W70002   2.785  16.235  12.895
97589W        W70003  17.294  29.440   4.312
97590W        W70004  34.000  20.538   4.230
97591W        W70005  18.623  28.069  10.086
97592W        W70006   3.421  26.534  11.548
97593W        W70007  25.530   8.881   5.297
97594W        W70008  24.134  12.330   2.411
97595W        W70009  40.949  16.165   2.234
97596W        W70010  39.060   7.768  13.921
97597W        W70011   4.858  26.540   2.351
97598W        W70012   2.833  21.683   0.470
97599W        W70013  28.446   2.226  11.969
97600W        W70014  38.894   2.229   1.785
97601W        W70015  32.424  31.574  10.521
97602W        W70016  22.171  37.390  10.640
97603W        W70017  20.096  12.768   2.888
97604W        W70018   3.254   4.416  11.094
97605W        W70019   1.299  37.441  13.360
97606W        W70020   0.784  44.883   4.340
97607W        W70021  36.432  35.998   3.836
97608W        W70022  25.144  14.263  14.315
97609W        W70023  23.668  13.608  13.911
97610W        W70024  39.529  40.423   2.731
97611W        W70025  36.027  35.947   4.626
97612W        W70026  27.460   9.867   3.844
97613W        W70027  36.953   4.399  11.472
97614W        W70028  32.486   9.304  12.834
97615W        W70029  10.749   4.309   4.712
97616W        W70030  37.980  17.611  13.532
97617W        W70031  12.721   6.704   2.706
97618W        W70032  35.585  21.148  12.354
97619W        W70033  10.219   5.929  11.601
97620W        W70034  40.413  15.719   3.258
97621W        W70035   9.385  16.802  12.941
97622W        W70036  33.523  23.714   1.283
97623W        W70037  15.585  11.796  14.957
97624W        W70038  14.719  11.131  11.417
97625W        W70039  32.022  23.672  11.997
97626W        W70040  33.417  13.782   0.780
97627W        W70041  17.131   6.327   4.796
97628W        W70042  33.084   6.256   0.306
97629W        W70043   4.278  18.179  14.894
97630W        W70044  18.106   1.906   3.352
97631W        W70045  12.279  21.041  12.917
97632W        W70046   4.787   7.372  14.934
97633W        W70047  10.202   8.801  10.617
97634W        W70048  36.039  40.927   2.373
97635W        W70049  36.861   7.688   3.634
97636W        W70050   0.965   6.685  13.479
97637W        W70051  19.077  14.641  13.985
97638W        W70052  43.363  15.629   3.852
97639W        W70053   5.709  41.380   9.473
97640W        W70054  39.496  42.356   4.603
97641W        W70055  39.430   3.244  10.636
97642W        W70056   2.362  39.815  13.355
97643W        W70057  37.380  12.783  13.891
97644W        W70058  43.392  33.573  12.366
97645W        W70059  12.167  37.402  11.600
97646W        W70060   2.811  41.321   5.267
97647W        W70061  20.670  23.672   2.684
97648W        W70062  40.051  39.913  14.276
97649W        W70063  37.070  10.811   2.693
97650W        W70064  25.126  32.916   1.245
97651W        W70065   1.876  37.945   0.362
97652W        W70066  12.705  11.173  11.590
97653W        W70067  26.105  20.208  13.051
97654W        W70068  40.394  42.792   2.205
97655W        W70069  27.145  14.822  14.957
97656W        W70070  30.640  14.234   1.738
97657W        W70071  37.581   7.818  13.794
97658W        W70072  43.430  19.717   1.249
97659W        W70073  43.931  26.101   3.791
97660W        W70074  36.097  26.701   0.805
97661W        W70075   4.342   5.723  11.857
97662W        W70076  20.101  20.238   4.291
97663W        W70077   1.483  27.564   0.920
97664W        W70078  38.831  35.993  10.454
97665W        W70079  27.588  24.666  14.349
97666W        W70080  29.069   9.854   4.758
97667W        W70081  40.491  20.229  14.804
97668W        W70082  41.013  16.644   3.274
97669W        W70083  25.632  24.710   1.358
97670W        W70084  25.002  32.601   2.266
97671W        W70085  26.959  11.366  14.777
97672W        W70086  41.476  34.106  14.381
97673W        W70087  26.606  34.375   1.813
97674W        W70088   5.310  38.490  12.944
97675W        W70089  29.150  30.977   1.427
97676W        W70090  39.383   3.267  13.355
97677W        W70091   4.803   6.306   0.247
97678W        W70092  16.109  41.881  13.858
97679W        W70093  31.600  18.108  14.010
97680W        W70094  37.402  19.595  10.011
97681W        W70095   0.936  43.945  12.533
97682W        W70096  17.568  11.327  10.638
97683W        W70097  15.685  30.550  14.899
97684W        W70098  30.478   4.434  13.835
97685W        W70099   7.239  35.368  14.341
97686W        W70100   7.209   3.245  13.372
97687W        W70101  24.226  33.031   2.386
97688W        W70102  11.709  26.460  12.862
97689W        W70103   7.174  29.039   1.767
97690W        W70104  22.046  22.595   1.347
97691W        W70105  28.469  11.330   4.692
97692W        W70106   9.772  16.072   2.349
97693W        W70107  28.620  14.824   4.229
97694W        W70108   1.466  36.580  12.002
97695W        W70109  19.252  33.127  10.893
97696W        W70110  19.573   8.319   3.327
97697W        W70111  11.234  34.408  14.491
97698W        W70112  14.139  35.389  14.401
97699W        W70113   7.385   0.255   4.200
97700W        W70114  40.013   2.384   1.877
97701W        W70115  21.699  31.617  14.372
97702W        W70116  11.626   8.865  11.074
97703W        W70117   7.845   1.396   3.867
97704W        W70118  35.603  44.453   0.283
97705W        W70119  16.101   9.224  11.492
97706W        W70120  18.287   0.876  10.130
97707W        W70121  14.763  30.614   5.277
97708W        W70122  11.632  25.023  11.039
97709W        W70123  36.883  20.150   3.266
97710W        W70124  11.308  17.065  14.293
97711W        W70125   6.690  42.979  14.801
97712W        W70126  20.066  32.134  11.477
97713W        W70127  34.396  25.471   1.379
97714W        W70128   6.707  28.509  14.871
97715W        W70129  14.797  30.647   4.711
97716W        W70130   9.645   6.314  12.474
97717W        W70131  15.588  42.306  12.555
97718W        W70132  44.366  16.809   1.284
97719W        W70133   5.687   2.892  14.023
97720W        W70134  15.090  29.596  11.483
97721W        W70135  43.279  20.675   1.839
97722W        W70136  29.091  39.982  12.480
97723W        W70137  30.041  43.445  14.922
97724W        W70138   0.374  21.173  12.885
97725W        W70139  16.809  18.709   4.643
97726W        W70140   0.747  37.878  11.946
97727W        W70141  11.751  20.714  13.372
97728W        W70142  28.578  34.440   1.764
97729W        W70143   2.349  43.989  11.921
97730W        W70144  38.372  12.323   4.766
97731W        W70145  21.068  20.182  12.930
97732W        W70146  17.243   2.280  10.635
97733W        W70147  26.173  37.551   2.358
97734W        W70148   0.819  13.111  12.420
97735W        W70149  36.365  35.941   2.347
97736W        W70150  27.577  18.647   3.697
97737W        W70151   5.753  22.612   0.832
97738W        W70152  35.392  24.564   2.415
97739W        W70153  22.537  14.196  14.485
97740W        W70154  17.222  22.198   4.152
97741W        W70155  26.689  24.221   4.268
97742W        W70156  39.910  34.966   2.257
97743W        W70157  37.918   5.263   4.823
97744W        W70158  43.365  21.681   3.240
97745W        W70159  43.875   6.785   0.764
97746W        W70160  34.457  22.023  11.870
97747W        W70161  16.704  40.355   2.378
97748W        W70162  22.014   5.926  10.971
97749W        W70163  19.163  18.129  10.921
97750W        W70164   0.409   2.807   0.407
97751W        W70165  36.512  30.591   2.873
97752W        W70166  13.823  35.580   2.246
97753W        W70167  32.595  39.448   2.227
97754W        W70168  27.692  36.843  12.053
97755W        W70169  15.745  16.117   1.924
97756W        W70170   4.342   5.220  11.103
97757W        W70171  27.594  12.133   2.859
97758W        W70172  32.569  26.171   1.287
97759W        W70173   8.810  33.880   2.192
97760W        W70174   6.314  24.132   2.739
97761W        W70175  30.040   8.720  12.913
97762W        W70176  15.804   0.357   0.874
97763W        W70177  20.702   9.780   0.365
97764W        W70178  37.492  32.142  10.081
97765W        W70179   5.390  22.574   3.648
97766W        W70180  39.977  30.016   4.331
97767W        W70181   0.317   8.809   2.225
97768W        W70182  22.651   8.806  11.106
97769W        W70183   1.923  34.503   2.257
97770W        W70184  26.570   1.865   1.354
97771W        W70185  28.979  31.564  11.977
97772W        W70186  29.630  44.299  10.975
97773W        W70187  19.249  16.615  14.816
97774W        W70188   9.772  18.231  13.986
97775W        W70189  37.457   4.933   1.214
97776W        W70190  29.598  16.749  12.543
97777W        W70191  20.074   2.375   2.883
97778W        W70192   3.926   8.211  13.866
97779W        W70193   5.933  31.465  13.994
97780W        W70194  24.154  18.671  10.966
97781W        W70195  31.940  29.041   4.671
97782W        W70196  32.457   2.239   4.810
97783W        W70197  22.204  14.636   3.370
97784W        W70198  30.098   9.392  12.491
97785W        W70199  24.637  29.604   1.219
97786W        W70200  30.953   9.645  14.443
97787W        W70201  28.030   3.243  10.492
97788W        W70202  18.235  10.162   1.842
97789W        W70203  27.105  43.446  13.011
97790W        W70204   2.967  18.074  11.897
97791W        W70205  27.153  27.963   0.276
97792W        W70206   3.815   0.291   1.750
97793W        W70207   2.272  20.034   0.788
97794W        W70208  38.439  28.632  13.432
97795W        W70209  39.982  27.042  12.891
97796W        W70210  25.179  33.468   2.419
97797W        W70211  11.834  36.077  12.965
97798W        W70212  36.878  27.126   0.474
97799W        W70213  23.510  41.918   0.869
97800W        W70214  38.931  14.714   0.845
97801W        W70215  12.760  36.890   2.677
97802W        W70216  36.933   3.357  11.613
97803W        W70217  29.060  15.278  14.775
97804W        W70218  24.145   4.734  10.889
97805W        W70219  13.664  24.489   1.801
97806W        W70220  34.591   4.272   1.405
97807W        W70221  28.614  39.024  10.965
97808W        W70222  27.674  21.625  12.970
97809W        W70223  26.165  43.500  14.474
97810W        W70224  15.595  19.146  13.817
97811W        W70225   0.450  31.595   1.262
97812W        W70226   8.311   8.784  13.033
97813W        W70227   8.715  27.537  13.400
97814W        W70228  36.994  40.351  10.599
97815W        W70229   8.884   0.829   1.262
97816W        W70230  15.300   9.255  10.119
97817W        W70231  10.805   5.808  12.481
97818W        W70232  34.527  22.654   3.252
97819W        W70233  14.164   7.323  12.903
97820W        W70234  14.108  16.234   0.889
97821W        W70235  42.900  32.413  10.471
97822W        W70236  24.719  15.667  10.520
97823W        W70237  33.119  26.972   2.244
97824W        W70238  19.744   5.782  13.516
97825W        W70239  37.931   4.204  13.341
97826W        W70240  35.884  18.680   4.729
97827W        W70241  32.030  23.028   2.688
97828W        W70242  24.205  33.559  10.467
97829W        W70243  40.304   6.247   3.679
97830W        W70244  32.532  38.846   0.861
97831W        W70245  17.065  29.102  14.398
97832W        W70246  10.837   1.296   4.796
97833W        W70247  38.011  23.000  11.447
97834W        W70248  40.973  29.998  11.865
97835W        W70249   6.826  40.385  11.473
97836W        W70250  23.548  12.849   3.687
97837W        W70251  23.530  30.073   2.372
97838W        W70252  22.100  12.679  10.545
97839W        W70253  36.973  33.434  14.855
97840W        W70254  24.071  34.466   0.932
97841W        W70255   7.232  25.489  10.993
97842W        W70256  15.170  34.097  10.435
97843W        W70257  19.676   0.947   1.449
97844W        W70258  38.343  31.619  13.870
97845W        W70259  11.177  10.283  14.302
97846W        W70260  24.154  18.734  12.061
97847W        W70261  18.264  44.970  14.469
97848W        W70262   1.951  32.466  12.521
97849W        W70263  22.592  39.438   4.683
97850W        W70264  40.890  40.336   3.858
97851W        W70265  41.364  22.103  10.439
97852W        W70266  17.591  25.486   0.890
97853W        W70267  17.798  14.304  14.957
97854W        W70268  29.527  25.699  10.613
97855W        W70269  40.328  25.559   3.204
97856W        W70270  40.009  43.886   1.311
97857W        W70271  42.895  38.049  14.979
97858W        W70272  35.889  31.078   1.317
97859W        W70273  42.862  18.747   4.618
97860W        W70274  15.174  15.636   0.248
97861W        W70275  38.328  34.895   3.686
97862W        W70276  12.176  41.841  13.456
97863W        W70277  24.563   6.905  10.580
97864W        W70278  30.607  26.585  11.868
97865W        W70279  24.042  24.016   2.798
97866W        W70280   0.973   7.319   3.780
97867W        W70281   1.379  43.775   4.183
97868W        W70282  37.420  41.458   0.271
97869W        W70283   5.694   1.844  11.882
97870W        W70284   7.256  11.249   4.647
97871W        W70285  25.678  37.932  11.502
97872W        W70286  40.351  12.355  12.894
97873W        W70287  44.396  11.155  10.458
97874W        W70288  23.697  26.616   2.365
97875W        W70289  12.715  29.431  13.874
97876W        W70290   4.833  32.032   2.695
97877W        W70291  18.240  42.905   1.928
97878W        W70292  27.598  17.191   0.279
97879W        W70293  31.108  36.058  11.882
97880W        W70294  13.685   6.295   1.815
97881W        W70295  29.513  27.642  14.809
97882W        W70296   0.423  36.546  14.392
97883W        W70297  25.063  42.783   4.280
97884W        W70298  18.217  20.202   0.420
97885W        W70299  28.016  39.349   3.246
97886W        W70300  23.675  28.026  11.496
97887W        W70301   1.372  11.799   0.779
97888W        W70302   6.299  17.579   4.151
97889W        W70303  41.896  16.156  12.013
97890W        W70304   4.749  29.626  14.503
97891W        W70305  15.754   9.333  12.833
97892W        W70306   0.761  41.480   2.857
97893W        W70307   9.223   5.769   4.604
97894W        W70308  27.624  29.549   3.757
97895W        W70309  30.050  30.916  11.499
97896W        W70310  13.344  34.383  13.355
97897W        W70311  10.320   4.754   0.286
97898W        W70312  13.736  21.074  14.286
97899W        W70313  15.601  19.671  14.297
97900W        W70314   3.375  38.857  11.550
97901W        W70315   6.891   2.310   3.374
97902W        W70316   1.336  32.052   1.856
97903W        W70317  44.344  13.646  13.498
97904W        W70318   6.890  16.804   3.723
97905W        W70319   7.689  44.387   3.731
97906W        W70320   7.317  26.040  14.887
97907W        W70321  34.870  44.837   4.347
97908W        W70322   4.926  37.534  11.587
97909W        W70323  26.163  28.085   3.842
97910W        W70324  31.643  18.256  12.565
97911W        W70325  13.167  16.300   0.797
97912W        W70326   0.896   9.190   3.183
97913W        W70327  43.922  18.629   1.291
97914W        W70328   4.918  43.393  12.528
97915W        W70329  38.372  20.095  12.499
97916W        W70330   4.351  38.862  10.411
97917W        W70331  16.105  10.681   4.705
97918W        W70332   9.809  10.344   2.407
97919W        W70333  24.649  43.272   3.186
97920W        W70334  35.419  40.505   1.286
97921W        W70335  36.005   1.236  10.576
97922W        W70336  30.908   9.154   0.931
97923W        W70337  34.056  38.835   3.855
97924W        W70338  40.510  11.807  13.795
97925W        W70339  12.628  10.825  13.412
97926W        W70340  17.303  13.763   4.295
97927W        W70341  33.080  44.467   4.326
97928W        W70342  22.554  20.561  13.932
97929W        W70343  36.548  14.171   4.810
97930W        W70344  26.081  12.135  14.779
97931W        W70345  11.367  16.644   2.886
97932W        W70346   1.807  35.108   1.294
97933W        W70347  43.015  38.556  14.825
97934W        W70348   3.857  34.455   0.907
97935W        W70349   8.376  10.804   0.930
97936W        W70350  29.011  24.120   1.399
97937W        W70351  20.085   4.207   1.704
97938W        W70352  18.562  32.919   4.624
97939W        W70353   6.787  10.850  13.319
97940W        W70354  29.094  43.336  10.989
97941W        W70355  28.040   0.773  11.856
97942W        W70356  10.289  28.547   4.799
97943W        W70357  22.228  16.569  13.386
97944W        W70358  37.831  24.011  14.796
97945W        W70359  35.103  37.348   2.758
97946W        W70360  32.402  43.513   1.796
97947W        W70361   4.379  35.431  12.837
97948W        W70362   5.920  14.805   2.221
97949W        W70363  38.827  22.054   2.296
97950W        W70364   3.258  20.264   1.434
97951W        W70365  19.202  26.988  12.833
97952W        W70366  41.827  17.562   1.742
97953W        W70367  29.165  31.558   4.316
97954W        W70368  20.165  39.058  14.490
97955W        W70369  40.983  30.921  12.376
97956W        W70370   2.390  12.335  11.008
97957W        W70371  36.079  30.445   3.806
97958W        W70372  27.633  30.449   2.261
97959W        W70373   9.230  30.574  10.574
97960W        W70374  10.718  38.988   3.660
97961W        W70375  24.059  19.274   5.126
97962W        W70376  15.775  40.473  10.121
97963W        W70377   9.259  11.706   1.857
97964W        W70378  30.021  14.298   0.329
97965W        W70379  38.934  23.079   4.134
97966W        W70380   3.350  22.229   3.344
97967W        W70381   5.687  42.373   0.897
97968W        W70382  30.974   4.928  14.907
97969W        W70383  29.622  29.974  10.982
97970W        W70384  16.307  44.281  10.006
97971W        W70385  33.076  39.352   4.786
97972W        W70386  17.587  17.622  14.350
97973W        W70387   8.213  33.006  13.383
97974W        W70388  42.432  35.520  10.907
97975W        W70389  41.457  42.987   4.635
97976W        W70390   7.739  40.467   4.737
97977W        W70391  23.035   2.448   0.789
97978W        W70392   3.891  30.921  12.890
97979W        W70393  31.426  23.095   2.190
97980W        W70394  35.359   0.967   1.397
97981W        W70395  27.163  42.880   3.369
97982W        W70396  36.020  44.494   0.851
97983W        W70397   2.357  10.329  12.345
97984W        W70398  28.994  27.600  12.394
97985W        W70399  34.114  14.771  14.292
97986W        W70400   9.332  10.364  12.892
97987W        W70401   0.780  29.652   0.915
97988W        W70402  10.289  18.165  14.828
97989W        W70403  43.789  20.672  12.418
97990W        W70404   6.401  26.703  11.445
97991W        W70405  22.105  26.061   1.714
97992W        W70406   1.316  36.868  11.942
97993W        W70407  38.874  29.023  11.479
97994W        W70408  20.719  41.906   2.289
97995W        W70409  42.456  27.629   3.686
97996W        W70410   9.698  19.564   2.691
97997W        W70411  26.023  13.281   3.232
97998W        W70412  34.970  11.314  10.919
97999W        W70413  32.511  21.205   3.743
98000W        W70414  10.663  36.387   3.233
98001W        W70415  31.532  25.538   0.349
98002W        W70416  30.420  42.332  12.539
98003W        W70417  40.493   3.350  10.636
98004W        W70418  38.348  14.719  14.780
98005W        W70419  20.081   4.942   0.922
98006W        W70420  25.708   0.346  10.406
98007W        W70421  26.155  39.341  13.338
98008W        W70422  38.905  44.415   2.714
98009W        W70423  38.933  29.543   5.146
98010W        W70424   9.887   0.883  14.956
98011W        W70425  10.711  14.102   0.818
98012W        W70426   9.254  44.816  14.937
98013W        W70427  11.225   4.900  12.423
98014W        W70428  14.712  40.019   4.742
98015W        W70429   2.449   9.887  12.515
98016W        W70430  39.898  41.380  14.496
98017W        W70431   2.455   8.827   4.155
98018W        W70432  42.375  37.073  13.894
98019W        W70433  32.609   9.239   2.869
98020W        W70434  38.956  32.430  14.476
98021W        W70435  23.223   6.367   3.735
98022W        W70436  27.153  37.462   2.279
98023W        W70437   2.902  33.617   4.218
98024W        W70438   1.788  41.851   3.671
98025W        W70439  35.579  27.012   0.887
98026W        W70440  38.359  14.821  13.474
98027W        W70441  22.111   4.319  12.432
98028W        W70442  23.235   2.888  10.966
98029W        W70443   9.658  12.236  12.019
98030W        W70444  41.419  37.491  12.559
98031W        W70445  39.361  44.772  12.867
98032W        W70446   7.718  40.522   5.189
98033W        W70447  39.477   9.271  11.936
98034W        W70448  28.055  23.655   1.427
98035W        W70449  10.186   9.277  14.022
98036W        W70450  25.016  32.908  11.961
98037W        W70451  27.509   6.233  13.905
98038W        W70452   6.327  36.520   4.772
98039W        W70453  36.978  25.148  13.496
98040W        W70454  15.629  32.407   1.422
98041W        W70455  10.786  12.754   3.803
98042W        W70456  31.045  42.993  12.970
98043W        W70457   8.811  12.828  10.515
98044W        W70458   5.253  39.011   2.686
98045W        W70459   5.726  42.343  14.296
98046W        W70460   2.316  42.032  12.406
98047W        W70461  34.881  36.397  12.543
98048W        W70462  16.248  16.666   4.679
98049W        W70463  35.559  25.605  14.484
98050W        W70464  23.216  28.583   0.423
98051W        W70465  15.279  20.113   5.729
98052W        W70466  36.086  31.574  12.045
98053W        W70467  32.099  43.513   0.901
98054W        W70468  31.508   6.883  13.013
98055W        W70469  41.445  40.411  12.421
98056W        W70470  42.418  23.228   0.404
98057W        W70471  37.512   6.713  12.032
98058W        W70472  18.726  37.500  13.329
98059W        W70473  41.313  26.090   2.218
98060W        W70474  24.704  44.995  11.471
98061W        W70475  36.037  21.554  10.407
98062W        W70476   3.354  33.384   0.847
98063W        W70477   3.322  13.600  11.929
98064W        W70478   5.741  44.263   3.382
98065W        W70479   4.291  34.079   2.371
98066W        W70480  27.649  34.604  12.824
98067W        W70481   4.927  39.013   5.226
98068W        W70482  13.714  40.431  10.613
98069W        W70483  28.064  14.760   3.792
98070W        W70484   5.738   1.259   0.882
98071W        W70485   7.843  39.466  10.488
98072W        W70486   5.344  33.522   0.835
98073W        W70487  41.294   1.315  13.422
98074W        W70488  42.872  11.776  14.451
98075W        W70489  21.623  11.329   4.116
98076W        W70490  15.662   5.339   4.642
98077W        W70491   1.951  20.763   2.674
98078W        W70492  25.704  21.137  14.804
98079W        W70493  22.699  34.885   0.311
98080W        W70494   1.280  40.012  13.035
98081W        W70495   4.794  26.991   3.839
98082W        W70496  20.674   2.267  14.879
98083W        W70497   1.346  26.479   4.614
98084W        W70498   1.859  28.522   1.228
98085W        W70499   3.347  29.653  10.148
98086W        W70500  38.987  30.145  11.105
98087W        W70501  35.969  12.360  12.577
98088W        W70502   4.208  25.195  13.049
98089W        W70503  43.369  34.935   1.304
98090W        W70504  18.265  23.169  11.081
98091W        W70505  19.752  34.963  14.011
98092W        W70506   2.397  37.506   2.763
98093W        W70507  42.021  17.090  13.537
98094W        W70508   7.717  10.316   5.289
98095W        W70509   1.842  42.975  10.026
98096W        W70510   2.351   8.221   2.406
98097W        W70511   2.317  11.143   2.730
98098W        W70512  10.751  39.905   0.258
98099W        W70513  21.568  33.090  12.539
98100W        W70514  11.867  43.421  13.443
98101W        W70515  44.314  38.977   0.755
98102W        W70516  43.505  11.717   4.639
98103W        W70517  32.082   3.443   2.847
98104W        W70518  30.541   0.357   0.423
98105W        W70519   1.334  38.073   3.325
98106W        W70520  16.209  35.556   0.266
98107W        W70521  42.423  22.732   3.775
98108W        W70522  28.013   8.796  13.308
98109W        W70523  41.320  14.318  11.401
98110W        W70524  36.379  14.771  14.481
98111W        W70525   6.312   0.397   4.806
98112W        W70526  27.463   8.234   0.412
98113W        W70527  14.330   5.857   1.435
98114W        W70528  36.487  27.029   0.441
98115W        W70529  38.391  40.797  12.454
98116W        W70530  21.157  40.818  13.328
98117W        W70531   1.450  32.567  12.017
98118W        W70532  42.372  29.020   2.819
98119W        W70533  35.998  31.080   3.256
98120W        W70534  11.314  15.598  13.000
98121W        W70535   5.915  15.759  11.108
98122W        W70536   5.786   5.297  10.549
98123W        W70537  42.789  44.290   4.247
98124W        W70538  26.017   6.776   2.282
98125W        W70539  10.776  37.885  15.000
98126W        W70540   8.332   9.333   3.708
98127W        W70541  13.632   9.665   1.706
98128W        W70542  25.043  34.024  14.815
98129W        W70543   4.764  10.726  13.910
98130W        W70544  10.844  42.022  14.004
98131W        W70545  20.540  35.431  11.986
98132W        W70546  21.659  36.496   0.375
98133W        W70547  33.910   7.738   1.443
98134W        W70548  33.904  43.505   0.852
98135W        W70549  28.453  27.137  13.878
98136W        W70550  30.986  42.514   3.279
98137W        W70551  27.144  26.485  12.550
98138W        W70552  28.054   1.918  10.972
98139W        W70553  28.042  30.425  10.157
98140W        W70554  23.734  33.410  11.038
98141W        W70555  36.092  15.092   3.286
98142W        W70556   9.887  31.095  13.426
98143W        W70557  37.913  13.763   2.726
98144W        W70558  10.679  15.800  12.076
98145W        W70559  24.124  12.148   3.151
98146W        W70560  31.402   6.420   2.667
98147W        W70561  41.799  21.135   2.361
98148W        W70562  21.227  39.476  10.904
98149W        W70563   6.866  38.445  10.459
98150W        W70564   4.431   6.390   1.440
98151W        W70565  10.297  42.868  14.913
98152W        W70566  34.038  20.589  14.394
98153W        W70567   4.256  29.032   2.879
98154W        W70568  41.345  43.946  13.900
98155W        W70569  40.938   7.880  11.085
98156W        W70570   8.386  25.092   1.285
98157W        W70571  34.532   6.292   2.705
98158W        W70572  40.318  14.689   1.385
98159W        W70573  24.517  30.923   3.212
98160W        W70574  24.530  26.008   4.744
98161W        W70575   3.800  40.306  10.547
98162W        W70576  41.999  28.620   0.874
98163W        W70577  30.647  36.475  11.093
98164W        W70578  44.974  31.090  11.472
98165W        W70579  24.111  24.187  12.389
98166W        W70580  43.371   1.909  11.933
98167W        W70581  17.719  18.687   0.421
98168W        W70582   1.481  38.489  14.369
98169W        W70583  44.440  40.433   3.260
98170W        W70584  30.484   9.318   3.279
98171W        W70585   6.266  27.515   4.148
98172W        W70586  29.152  39.968   4.350
98173W        W70587   3.442  41.816  13.483
98174W        W70588  17.606  37.889  13.922
98175W        W70589   2.910  39.995   2.723
98176W        W70590  27.181   5.271  10.894
98177W        W70591  20.034  30.585   0.328
98178W        W70592  24.529  10.866  13.481
98179W        W70593  38.532   6.914   2.797
98180W        W70594   8.264  32.016  10.561
98181W        W70595  31.116   2.261  13.318
98182W        W70596  21.043  41.833   3.866
98183W        W70597  23.736   9.804  12.514
98184W        W70598   3.369   1.374  14.941
98185W        W70599  10.762  39.527   2.321
98186W        W70600  40.866  36.396   0.430
98187W        W70601  33.993  37.078   2.861
98188W        W70602  40.869   8.783  14.356
98189W        W70603  35.592  43.368   2.776
98190W        W70604  24.589  40.329  12.502
98191W        W70605  39.020   7.828   2.215
98192W        W70606  24.551  28.019   2.286
98193W        W70607  33.005  43.278  11.079
98194W        W70608  17.691  13.116   1.328
98195W        W70609  36.075  36.094  13.949
98196W        W70610   4.321  33.403   4.330
98197W        W70611  25.073  18.275  13.868
98198W        W70612  38.368  19.176   1.236
98199W        W70613   1.733  40.393   3.859
98200W        W70614   6.833   7.789   3.347
98201W        W70615  28.509  34.021   4.797
98202W        W70616  29.437  23.669  12.565
98203W        W70617  34.595  12.335  10.451
98204W        W70618  15.280  39.946  14.964
98205W        W70619  37.899  21.050   4.249
98206W        W70620  21.120  29.521   3.201
98207W        W70621  41.872  36.359  12.543
98208W        W70622  22.556  15.598  10.986
98209W        W70623   2.303  25.615   3.194
98210W        W70624  21.723  30.967  13.945
98211W        W70625  27.941   0.312   4.689
98212W        W70626  30.071  42.398  13.017
98213W        W70627  42.297  39.906   4.615
98214W        W70628  36.548  33.475   4.193
98215W        W70629  32.105   8.701  12.998
98216W        W70630  17.767   2.382   0.301
98217W        W70631  27.027  36.543  14.934
98218W        W70632  44.301   9.783   2.327
98219W        W70633  34.953   1.921  11.886
98220W        W70634  10.213  21.581   3.207
98221W        W70635  27.684  23.509   0.365
98222W        W70636   5.805  33.418  11.584
98223W        W70637  17.232  44.458   5.087
98224W        W70638  36.445  22.051   2.331
98225W        W70639  32.485  24.100   0.777
98226W        W70640   9.701  22.700   0.361
98227W        W70641   7.413  10.723  12.421
98228W        W70642  23.534  20.140   0.890
98229W        W70643  19.742  11.274   0.345
98230W        W70644  40.006  13.256  13.061
98231W        W70645  18.087  41.944   3.304
98232W        W70646  11.750  23.606  10.528
98233W        W70647   6.313  41.493   2.780
98234W        W70648  10.212  32.959  10.954
98235W        W70649   2.269  35.095  14.370
98236W        W70650  35.952  15.299  10.595
98237W        W70651  26.060   8.797  11.954
98238W        W70652  15.254   1.453   0.930
98239W        W70653  24.697  32.419  11.960
98240W        W70654  19.142  30.131  10.914
98241W        W70655  42.496  32.132  13.824
98242W        W70656  35.561   7.716   3.802
98243W        W70657  19.542  41.506   1.307
98244W        W70658  11.744  21.738  10.482
98245W        W70659  41.964  41.981   3.284
98246W        W70660   3.791  15.752  12.410
98247W        W70661  39.378  24.145  14.833
98248W        W70662  20.575   6.783  14.333
98249W        W70663   3.329  41.945  10.488
98250W        W70664  19.732  16.718   4.673
98251W        W70665  41.005  25.560  10.488
98252W        W70666  40.936  44.995  11.422
98253W        W70667  35.459  37.398  11.102
98254W        W70668  29.481  35.384  13.807
98255W        W70669  39.550  38.483  12.826
98256W        W70670  41.458  18.094   0.769
98257W        W70671  13.818   0.391  14.029
98258W        W70672  34.006  14.712   3.345
98259W        W70673  29.586  40.946   0.737
98260W        W70674  27.608  40.384   4.229
98261W        W70675   7.875   0.265   1.290
98262W        W70676  17.651  29.649  14.822
98263W        W70677   1.825  20.699   2.181
98264W        W70678  29.136  11.828   3.631
98265W        W70679  15.131  26.541  14.286
98266W        W70680  43.292  35.913   3.273
98267W        W70681  29.047  12.287  10.410
98268W        W70682  28.964  36.477  14.395
98269W        W70683   3.921  40.850   0.941
98270W        W70684  34.074  11.149  10.558
98271W        W70685  18.791  40.966  14.429
98272W        W70686  32.502  14.779  12.549
98273W        W70687   9.171  37.923   3.653
98274W        W70688  30.967  34.467   1.918
98275W        W70689  22.153  25.140  13.834
98276W        W70690  18.756  41.842   4.152
98277W        W70691  30.000  38.463   0.823
98278W        W70692  34.878  22.747   9.983
98279W        W70693  12.311  12.153  14.374
98280W        W70694  14.767  42.452   0.955
98281W        W70695  15.224  18.566  10.435
98282W        W70696  25.052  12.348   2.816
98283W        W70697  44.919  29.500  13.383
98284W        W70698  17.211   2.849  13.041
98285W        W70699  10.690   3.338  11.520
98286W        W70700  15.087  26.482   0.461
98287W        W70701  11.675   7.240   3.701
98288W        W70702  44.465   7.818   0.363
98289W        W70703  36.556  27.971  10.961
98290W        W70704  24.485   6.267   3.151
98291W        W70705   4.440  36.042   0.826
98292W        W70706  37.981  27.008   2.855
98293W        W70707  25.159  31.137   0.923
98294W        W70708  15.801  13.313   5.271
98295W        W70709  12.117   7.290   4.197
98296W        W70710  30.658   6.681   4.163
98297W        W70711   2.320  35.913  11.018
98298W        W70712  35.061  20.679   3.245
98299W        W70713  32.070   0.824   1.911
98300W        W70714  16.183   6.789   1.406
98301W        W70715  41.825  10.317   1.284
98302W        W70716  20.155  38.407   1.867
98303W        W70717  11.826  30.966  11.594
98304W        W70718  18.111  38.836  12.089
98305W        W70719  17.079  20.665  12.974
98306W        W70720  23.150  42.373  14.291
98307W        W70721  32.064  10.727   3.815
98308W        W70722   8.217  15.807  11.373
98309W        W70723  34.450   5.429  12.422
98310W        W70724  29.646   9.885  11.452
98311W        W70725  13.131  41.412  11.527
98312W        W70726  44.992   5.699  11.091
98313W        W70727  13.273   2.239   3.319
98314W        W70728  33.443   8.247  13.904
98315W        W70729  18.768  37.535   3.699
98316W        W70730   4.309  42.023   1.797
98317W        W70731  18.570  13.154  12.512
98318W        W70732  16.316  40.312   4.640
98319W        W70733  23.660   5.317  14.425
98320W        W70734  18.174  23.540  11.087
98321W        W70735   5.694  25.169  11.606
98322W        W70736  44.459  22.127  10.552
98323W        W70737  14.230  31.548  10.537
98324W        W70738   5.240   2.426   1.892
98325W        W70739  24.666   3.812  14.764
98326W        W70740  33.075  39.339  11.448
98327W        W70741  29.951  12.272   4.282
98328W        W70742  13.155  20.153   0.957
98329W        W70743   9.698  33.417   3.384
98330W        W70744  22.102  17.791  14.355
98331W        W70745   6.408   9.199   3.827
98332W        W70746  18.192  12.621   2.253
98333W        W70747  15.152  24.214  11.572
98334W        W70748  11.346  24.512  12.017
98335W        W70749  21.751  14.156   0.967
98336W        W70750   2.428  24.524  13.908
98337W        W70751  13.789   4.444  12.894
98338W        W70752   8.753  28.069   3.362
98339W        W70753  38.390  43.793  12.949
98340W        W70754  17.302  44.366  10.143
98341W        W70755  43.890  12.740  11.606
98342W        W70756  31.494  11.172   2.311
98343W        W70757  27.010  10.732  13.894
98344W        W70758   9.845   0.456   2.229
98345W        W70759  34.952  24.481   1.882
98346W        W70760  37.456  14.710   1.915
98347W        W70761   7.323   9.200   4.208
98348W        W70762  18.155  23.509   0.412
98349W        W70763   6.316  15.132  12.539
98350W        W70764  40.040  14.212  10.643
98351W        W70765  17.272  25.052   1.403
98352W        W70766  34.503  26.515  10.406
98353W        W70767  18.705  30.082   4.807
98354W        W70768  22.561  30.508   5.135
98355W        W70769  32.459  12.201  14.834
98356W        W70770  41.433   4.356   4.614
98357W        W70771  41.897  33.504   3.664
98358W        W70772  37.041  32.107  11.530
98359W        W70773  34.568  13.283  12.565
98360W        W70774  36.503  34.500   2.861
98361W        W70775  35.587   0.787   4.610
98362W        W70776   9.183  22.578  11.582
98363W        W70777   8.738  26.049  11.052
98364W        W70778  18.215   4.320   3.380
98365W        W70779  13.303   8.865   5.795
98366W        W70780  42.454  26.471   0.914
98367W        W70781  28.541  33.997  11.864
98368W        W70782  18.731   2.353   4.267
98369W        W70783  26.554  43.426  12.966
98370W        W70784  14.259  32.886   0.859
98371W        W70785   4.336  27.978  10.978
98372W        W70786   4.707  38.858   3.264
98373W        W70787   4.723  22.236   0.904
98374W        W70788  32.618  41.486   5.090
98375W        W70789  34.960  41.501   1.850
98376W        W70790  17.721  39.855  14.812
98377W        W70791  34.980  35.952  14.401
98378W        W70792  43.878  24.058   2.782
98379W        W70793  34.533  21.749   2.331
98380W        W70794  43.918  29.643  13.510
98381W        W70795   4.786  27.630   5.640
98382W        W70796   9.349  17.744   1.382
98383W        W70797  44.948   6.190   1.290
98384W        W70798  29.027  43.450   0.482
98385W        W70799   1.772   8.810   0.923
98386W        W70800   9.228   5.816   3.709
98387W        W70801  35.991  20.163   1.786
98388W        W70802  30.058  40.316  12.030
98389W        W70803  39.017  13.752  14.448
98390W        W70804   5.300   3.786   3.750
98391W        W70805  36.570   9.313   2.756
98392W        W70806   3.948  27.170   2.325
98393W        W70807   2.315   2.416   2.229
98394W        W70808  35.882  16.691  11.022
98395W        W70809   4.738  10.795   1.852
98396W        W70810  28.082  24.712   3.219
98397W        W70811   5.264  35.978  13.876
98398W        W70812  35.868  37.888  11.999
98399W        W70813  40.941  11.829   2.392
98400W        W70814  18.573  41.006   0.837
98401W        W70815  44.289   6.791  12.378
98402W        W70816  36.550   0.431   0.761
98403W        W70817   9.762  14.335  14.890
98404W        W70818  37.086  30.084   4.642
98405W        W70819   9.338   2.331  12.078
98406W        W70820  23.079  44.372  14.280
98407W        W70821  35.861  36.892   2.220
98408W        W70822  14.717   0.827   0.900
98409W        W70823  32.996  38.071   3.320
98410W        W70824  30.934  30.926  11.001
98411W        W70825  31.956  33.964  10.893
98412W        W70826  25.087  33.995   4.829
98413W        W70827   6.209  10.353   3.739
98414W        W70828  23.105  29.089  12.880
98415W        W70829  28.501   4.729  11.602
98416W        W70830  39.449  13.706  13.957
98417W        W70831  36.549  35.424   1.844
98418W        W70832  23.652   8.181  11.965
98419W        W70833   7.737  41.311  10.118
98420W        W70834  37.908  16.224  12.971
98421W        W70835   6.856  44.416   3.851
98422W        W70836   3.278  44.399   3.804
98423W        W70837   9.671  16.685   2.897
98424W        W70838  40.906  33.577  14.473
98425W        W70839   7.181  39.846  14.512
98426W        W70840  40.001  38.921  13.941
98427W        W70841  34.091  41.381  14.349
98428W        W70842  19.745  22.006  11.976
98429W        W70843  28.174  22.586  12.906
98430W        W70844  39.864  13.178   3.677
98431W        W70845  10.790  14.811  13.382
98432W        W70846  31.421   0.280   3.686
98433W        W70847  17.746  41.397   4.607
98434W        W70848  23.732  14.119  14.497
98435W        W70849  17.656  34.991  14.359
98436W        W70850  22.103  15.324   1.441
98437W        W70851  21.149  41.969  14.459
98438W        W70852   6.283  32.053   3.796
98439W        W70853   8.672  16.729  11.536
98440W        W70854  31.122  31.981   1.855
98441W        W70855  21.545   0.940   0.480
98442W        W70856  20.216  11.215  12.359
98443W        W70857  10.164  20.233   0.331
98444W        W70858   4.869   9.744  14.940
98445W        W70859  10.303  13.166   4.146
98446W        W70860   0.399  15.237   2.725
98447W        W70861   5.809  22.197  11.574
98448W        W70862  15.762   7.196  10.530
98449W        W70863  13.814   5.224  14.985
98450W        W70864   4.370   3.287   0.822
98451W        W70865   4.317  31.491  11.109
98452W        W70866  36.843  32.527   3.354
98453W        W70867  36.354  21.144   3.709
98454W        W70868  36.095   2.952  10.967
98455W        W70869  16.797  30.538  12.977
98456W        W70870   2.371  26.508   3.281
98457W        W70871  44.338  39.549  13.803
98458W        W70872  33.500  12.807   0.757
98459W        W70873  33.483  35.600  10.450
98460W        W70874  28.099   0.744  12.359
98461W        W70875  21.158  34.110   1.724
98462W        W70876   9.735   5.739   1.910
98463W        W70877   7.852   0.492  12.970
98464W        W70878  21.540  33.400  11.587
98465W        W70879  20.095  40.542  12.831
98466W        W70880  11.833  13.644  11.113
98467W        W70881   8.216  42.300   2.823
98468W        W70882  18.620  42.481   3.174
98469W        W70883  10.178   3.260   2.279
98470W        W70884  10.834  40.339  13.905
98471W        W70885  41.038   0.746   3.183
98472W        W70886  37.515  23.115   3.234
98473W        W70887  35.492  13.704  14.023
98474W        W70888  17.119  31.518  13.969
98475W        W70889  27.526  37.892  12.874
98476W        W70890  39.953  32.905   3.679
98477W        W70891   2.422  19.625  12.534
98478W        W70892  34.895   8.344  13.544
98479W        W70893  26.515   2.405   2.800
98480W        W70894  17.582  19.708   0.802
98481W        W70895  32.991   7.319   2.331
98482W        W70896  42.822  31.038  11.883
98483W        W70897  35.080   0.917   2.854
98484W        W70898   2.408  13.682   0.455
98485W        W70899   7.407   7.703  14.926
98486W        W70900  40.341   7.256  14.920
98487W        W70901   0.270  33.129   0.464
98488W        W70902   1.828   6.342   2.793
98489W        W70903  30.059  11.345  13.490
98490W        W70904  12.731   5.295  14.008
98491W        W70905  44.451  40.343  11.075
98492W        W70906  27.682  30.976   3.264
98493W        W70907  41.461  40.411   3.211
98494W        W70908  33.015  43.302  11.492
98495W        W70909  28.118   9.218  12.870
98496W        W70910  22.649  27.543  13.019
98497W        W70911   4.801  41.363  12.991
98498W        W70912  27.500  44.409   1.347
98499W        W70913  26.650  12.851   3.189
98500W        W70914  10.190  12.692  13.027
98501W        W70915  23.693  34.071   1.872
98502W        W70916  10.778  27.946  13.862
98503W        W70917  38.925   3.874  12.347
98504W        W70918  34.443  10.321  12.091
98505W        W70919  43.366  10.169   3.687
98506W        W70920  30.037   4.736   4.753
98507W        W70921  19.193   1.848  11.125
98508W        W70922  38.435  21.209  13.386
98509W        W70923  15.774  10.750   0.384
98510W        W70924  11.693  43.490   1.856
98511W        W70925   6.753  29.043   2.178
98512W        W70926   8.781  21.644   4.117
98513W        W70927  29.979  40.339  14.435
98514W        W70928  19.746  35.011  12.397
98515W        W70929  31.573  29.649   1.899
98516W        W70930  21.164  11.855  14.013
98517W        W70931  27.464  17.785   3.156
98518W        W70932  35.068  10.325   4.767
98519W        W70933  27.063   9.319   2.718
98520W        W70934  32.391  18.552  13.322
98521W        W70935   2.872  21.202  11.408
98522W        W70936   6.836  35.586   1.393
98523W        W70937  30.960  32.622   2.306
98524W        W70938  19.708  27.588  10.039
98525W        W70939   5.727  21.106   3.700
98526W        W70940   2.448  23.616  13.032
98527W        W70941  27.049  30.499   0.772
98528W        W70942   8.303  22.691   4.822
98529W        W70943  21.048  19.075   3.700
98530W        W70944  33.423  25.705   2.290
98531W        W70945  14.131  16.241   3.300
98532W        W70946  24.091  27.171   1.317
98533W        W70947   6.890  22.223  13.383
98534W        W70948  44.879  11.359  13.339
98535W        W70949  36.382  16.291  12.339
98536W        W70950   0.478  23.082   3.672
98537W        W70951  21.734  15.673   2.419
98538W        W70952  22.713  33.567  13.792
98539W        W70953  27.529  25.105   0.831
98540W        W70954  39.041  23.546   2.735
98541W        W70955   2.461   5.693   3.222
98542W        W70956  40.349  44.329   1.212
98543W        W70957   6.381  36.422  10.906
98544W        W70958  40.407  10.178  10.614
98545W        W70959   6.907  23.654   3.265
98546W        W70960   8.358  19.757   4.274
98547W        W70961   7.780   9.757  13.522
98548W        W70962  25.698  33.542   0.397
98549W        W70963   7.307  41.333  13.871
98550W        W70964   5.893  44.848  13.033
98551W        W70965  30.553  35.052  14.405
98552W        W70966  10.299  26.137  11.099
98553W        W70967  13.244  28.068   2.261
98554W        W70968   9.818   3.874   4.324
98555W        W70969  14.139  39.878   2.319
98556W        W70970  12.685  15.822   3.643
98557W        W70971  12.126  23.507  10.487
98558W        W70972  29.022   9.227  11.429
98559W        W70973  40.011  18.666  10.580
98560W        W70974   6.828  19.657   4.245
98561W        W70975  20.671  35.522  14.442
98562W        W70976   2.296  41.955   0.256
98563W        W70977  12.722  31.469   2.367
98564W        W70978   0.761   6.737  11.394
98565W        W70979   2.943  22.693   3.342
98566W        W70980  43.880  38.879   2.846
98567W        W70981  15.621  13.320  14.899
98568W        W70982  22.131  13.711  11.556
98569W        W70983   1.811  11.834  10.471
98570W        W70984  13.151  16.652   1.415
98571W        W70985   2.906  17.266  14.390
98572W        W70986   1.972  28.083  10.561
98573W        W70987   0.971  43.324   1.218
98574W        W70988  41.535  40.328   5.194
98575W        W70989  41.795   2.349   1.705
98576W        W70990  18.629   1.876  13.308
98577W        W70991   7.833  16.229  13.011
98578W        W70992  36.933  35.928   4.197
98579W        W70993  38.382   6.819  11.607
98580W        W70994  22.194  24.131   2.797
98581W        W70995  31.643   4.364  13.062
98582W        W70996  30.414  22.569   4.182
98583W        W70997  25.616  23.570   4.746
98584W        W70998  22.671  38.934   1.806
98585W        W70999  37.927  28.002  14.287
98586W        W71000  12.348   7.862   3.381
98587W        W71001  19.192  37.459  10.489
98588W        W71002  14.245   1.907  12.455
98589W        W71003  21.672  26.496   0.729
98590W        W71004  28.164  21.073   2.353
98591W        W71005  37.505  11.762  10.912
98592W        W71006  12.204  35.041   0.324
98593W        W71007  30.147  26.978   1.263
98594W        W71008   8.188  39.429   3.747
98595W        W71009  23.219  28.148   0.771
98596W        W71010   0.820  13.149  14.313
98597W        W71011  16.160  23.190  11.511
98598W        W71012  25.610  12.797  10.054
98599W        W71013  21.021  19.063   2.675
98600W        W71014  44.790  26.177  12.461
98601W        W71015   7.767  31.027  11.456
98602W        W71016  29.523  32.090   4.617
98603W        W71017  15.774  32.454  12.076
98604W        W71018  20.656  11.835  12.059
98605W        W71019   9.650   1.810   1.701
98606W        W71020  33.626   1.739   0.896
98607W        W71021  23.531  18.624   4.310
98608W        W71022  17.693  26.995  11.404
98609W        W71023  28.653  20.684   2.228
98610W        W71024  37.856  15.196   4.232
98611W        W71025  29.578  35.858   1.447
98612W        W71026  13.799   0.404   3.780
98613W        W71027   7.800  43.351   2.293
98614W        W71028  35.582   8.754   2.816
98615W        W71029  36.461   6.902  14.956
98616W        W71030  27.159  16.780  14.001
98617W        W71031  28.585  14.619   3.251
98618W        W71032  30.910  31.568   1.825
98619W        W71033   8.890  18.054  11.527
98620W        W71034  41.342  38.862   2.179
98621W        W71035  18.606  30.945  11.996
98622W        W71036  30.970   4.423  10.539
98623W        W71037  18.233   0.478  13.055
98624W        W71038  44.362  32.924   3.639
98625W        W71039   0.885   6.703  11.976
98626W        W71040  35.376  30.932  13.537
98627W        W71041  22.511  40.513  13.856
98628W        W71042  13.138  21.092   2.846
98629W        W71043  19.146   1.948  12.066
98630W        W71044  27.111  26.518  14.434
98631W        W71045  42.873  17.608  10.595
98632W        W71046  38.526  34.937   3.321
98633W        W71047  10.373  19.101   4.802
98634W        W71048  32.562   3.321  13.964
98635W        W71049  19.681  44.339   4.795
98636W        W71050   3.400  44.318   0.268
98637W        W71051  16.264   8.865  10.584
98638W        W71052  13.699  13.651  13.337
98639W        W71053   5.769  11.283   3.333
98640W        W71054   5.877  30.435  13.961
98641W        W71055  44.921  11.181   3.815
98642W        W71056   6.803  44.392   1.893
98643W        W71057  28.618  34.986  13.348
98644W        W71058  33.447  38.495   0.924
98645W        W71059  40.498  26.192   1.825
98646W        W71060  41.915  19.735  10.903
98647W        W71061  44.991  41.355  14.878
98648W        W71062  39.929  26.206  12.535
98649W        W71063  31.428  30.058  12.493
98650W        W71064  19.638  21.701  11.541
98651W        W71065  10.680  31.024   2.223
98652W        W71066  16.149  29.572  14.943
98653W        W71067  17.757   1.846  12.370
98654W        W71068  33.978  22.022   3.351
98655W        W71069  14.129   2.318   1.223
98656W        W71070  21.578  29.670  11.057
98657W        W71071  14.812  36.912   2.287
98658W        W71072  17.193  14.327  12.961
98659W        W71073  38.327  26.141  14.410
98660W        W71074  34.976  20.555  12.504
98661W        W71075  14.163   8.178   5.686
98662W        W71076   2.407   0.781  13.465
98663W        W71077   7.243  24.067  11.030
98664W        W71078   3.886  39.371   3.860
98665W        W71079  32.441  18.260  13.410
98666W        W71080  22.523  17.200   0.891
98667W        W71081  21.178  26.602   3.764
98668W        W71082  16.078  18.644   5.280
98669W        W71083  29.970  16.226  14.441
98670W        W71084  40.850  34.457  12.988
98671W        W71085   1.914  34.434   1.242
98672W        W71086  10.743   3.453  10.573
98673W        W71087   6.679   4.933  13.874
98674W        W71088  16.647  41.390  12.352
98675W        W71089  22.707  17.697  12.472
98676W        W71090   6.829  10.232   4.322
98677W        W71091   7.771  28.499  13.499
98678W        W71092  13.618  10.235   3.272
98679W        W71093  44.969   5.238   3.719
98680W        W71094  12.253  24.116  13.037
98681W        W71095  12.761  41.958   4.261
98682W        W71096   1.247  28.139   0.914
98683W        W71097  43.867  20.722   3.259
98684W        W71098  13.237  17.075  11.496
98685W        W71099  17.065  34.441  14.387
98686W        W71100  26.151  11.657  13.933
98687W        W71101  16.142  34.566   4.836
98688W        W71102  23.500   6.249   4.115
98689W        W71103   5.194  25.190   0.362
98690W        W71104  23.585   0.305   3.248
98691W        W71105  44.289  29.052  12.908
98692W        W71106  21.208  14.197  14.314
98693W        W71107  24.681  17.142  11.514
98694W        W71108  23.559  26.625   3.661
98695W        W71109   7.680  19.562   4.140
98696W        W71110  16.166  36.580  12.012
98697W        W71111   3.803  16.303  14.780
98698W        W71112  28.185  26.992   4.772
98699W        W71113  42.963  28.983   0.941
98700W        W71114  33.447  25.096   0.951
98701W        W71115  37.572  22.663   5.270
98702W        W71116   2.859  31.543  13.030
98703W        W71117  30.431  16.597  12.927
98704W        W71118  23.693  11.233   0.318
98705W        W71119  19.077  32.957  14.455
98706W        W71120  21.212   2.358  11.011
98707W        W71121   0.335  14.688   3.791
98708W        W71122  14.760   7.258   0.342
98709W        W71123  20.263   6.330   3.375
98710W        W71124  39.909   1.921  12.513
98711W        W71125   8.304  20.069   2.356
98712W        W71126  26.185  15.754   1.252
98713W        W71127  38.064  23.506   5.243
98714W        W71128  38.453   4.862  14.409
98715W        W71129  26.999  17.163  14.011
98716W        W71130  38.513  27.008  11.889
98717W        W71131  22.021   1.867  11.964
98718W        W71132  43.989  23.735   4.793
98719W        W71133  24.097  15.189  10.047
98720W        W71134  29.632  27.023   4.680
98721W        W71135   7.313  31.001   3.822
98722W        W71136  40.396  28.038  11.416
98723W        W71137  19.141   9.358   2.739
98724W        W71138  19.050  31.469  14.498
98725W        W71139  28.090  28.644   0.408
98726W        W71140  36.475  24.991   0.325
98727W        W71141  22.081  17.301   5.653
98728W        W71142  42.505  16.762  13.956
98729W        W71143  25.511  23.017  11.878
98730W        W71144  28.636   4.354   2.712
98731W        W71145  31.548  11.778  10.558
98732W        W71146  39.449  24.001  11.055
98733W        W71147  39.984  40.849  12.960
98734W        W71148  43.013  16.687  13.925
98735W        W71149   8.246   0.941   3.160
98736W        W71150  32.578  34.087  14.481
98737W        W71151  33.892  15.140  11.417
98738W        W71152  13.107  26.665   4.317
98739W        W71153  28.530  23.599  10.914
98740W        W71154  41.968   8.351   4.759
98741W        W71155   0.478  33.115  14.997
98742W        W71156  26.098  12.813  11.449
98743W        W71157  20.700  32.423   1.809
98744W        W71158  14.325  18.752   3.669
98745W        W71159  14.298   6.370  13.935
98746W        W71160  40.988  11.842  14.792
98747W        W71161   7.174   5.243  10.907
98748W        W71162  42.406  27.122   4.255
98749W        W71163  30.421  36.919   3.367
98750W        W71164  36.005  12.823  14.969
98751W        W71165  31.927   0.892   2.275
98752W        W71166  21.162   0.782   3.657
98753W        W71167   7.863   5.385  13.486
98754W        W71168  32.420  43.396  11.493
98755W        W71169  39.540  18.126   1.386
98756W        W71170  42.896  31.059  10.434
98757W        W71171  20.085  24.077   3.270
98758W        W71172  35.051  13.259  13.957
98759W        W71173  22.055  10.662  11.123
98760W        W71174  31.637  42.332   3.304
98761W        W71175  39.363   9.205  12.980
98762W        W71176  16.676  24.518  12.556
98763W        W71177  20.174  35.014  11.017
98764W        W71178  12.692  36.032  13.495
98765W        W71179  13.631   0.947  11.399
98766W        W71180  11.653   0.491  10.641
98767W        W71181   1.307  10.698  12.453
98768W        W71182  13.230   9.691   3.678
98769W        W71183   0.814  27.678   2.237
98770W        W71184  25.005   6.708  13.039
98771W        W71185  39.012   2.799   0.762
98772W        W71186  29.130  37.462   1.807
98773W        W71187   7.368   9.738   0.959
98774W        W71188   2.765  26.177   3.186
98775W        W71189  39.432   1.432  10.561
98776W        W71190  29.043   2.817   1.834
98777W        W71191  39.447  19.093  11.927
98778W        W71192  32.914  30.097   2.210
98779W        W71193   8.397  40.927   3.757
98780W        W71194  31.415  39.820   3.175
98781W        W71195  33.547  44.343  13.045
98782W        W71196   6.808  19.741   4.716
98783W        W71197   1.309  26.548   0.892
98784W        W71198  29.935  18.145  12.435
98785W        W71199  21.072   1.264  14.022
98786W        W71200   8.658  40.053  14.869
98787W        W71201  41.468  26.973   3.377
98788W        W71202   5.201  38.887   0.844
98789W        W71203  41.014  16.758   4.803
98790W        W71204  26.178  40.922  14.302
98791W        W71205  28.184  21.114   5.105
98792W        W71206  23.054  36.854  10.492
98793W        W71207  35.086  32.039  12.473
98794W        W71208   3.780  25.070  13.016
98795W        W71209  29.949  41.936   1.269
98796W        W71210  40.492  39.064  10.927
98797W        W71211  23.086  10.322   2.184
98798W        W71212   7.771   2.231   2.376
98799W        W71213  31.136  28.939   2.362
98800W        W71214  32.470  28.435  13.010
98801W        W71215  36.965   3.786  13.478
98802W        W71216  31.117   2.360  12.908
98803W        W71217  43.979  14.788  12.055
98804W        W71218  15.128   0.336  10.973
98805W        W71219  26.115   3.347   1.845
98806W        W71220   2.746  25.498  12.033
98807W        W71221  30.512  13.732   2.297
98808W        W71222  31.082  11.686   3.188
98809W        W71223  29.018  42.921  11.489
98810W        W71224  32.990  37.460  14.318
98811W        W71225  19.665  29.649  10.978
98812W        W71226  35.551   6.403  10.534
98813W        W71227  18.238  27.521   0.447
98814W        W71228  38.514  37.349  10.942
98815W        W71229  10.209  11.319  12.044
98816W        W71230  28.931  37.036   3.359
98817W        W71231   4.445  37.402   0.332
98818W        W71232  38.971  22.045   1.264
98819W        W71233  16.242  18.629  13.851
98820W        W71234  44.763  44.492  10.900
98821W        W71235  36.957   3.229  14.486
98822W        W71236  15.161  40.855   2.277
98823W        W71237   5.418  23.491  10.544
98824W        W71238  24.607  15.191   0.439
98825W        W71239  12.741  34.864  11.028
98826W        W71240  33.956  17.287  12.544
98827W        W71241  13.671  33.126   2.220
98828W        W71242  16.098  27.662  11.411
98829W        W71243   0.793  13.695   1.214
98830W        W71244  17.143  10.191  13.018
98831W        W71245  37.068   2.797   3.638
98832W        W71246  14.138  24.146   0.737
98833W        W71247  42.383  21.080  12.873
98834W        W71248  21.569   2.403   3.658
98835W        W71249  40.052  26.467   1.712
98836W        W71250  35.462  31.514   1.721
98837W        W71251  40.927  18.259   0.289
98838W        W71252  14.730  41.410   0.909
98839W        W71253  13.656  18.746   3.269
98840W        W71254   0.431  16.202   0.863
98841W        W71255   3.405  28.142  11.927
98842W        W71256  41.497   8.248   0.347
98843W        W71257   5.734  23.579   0.449
98844W        W71258  44.449  40.503   4.713
98845W        W71259  36.992  12.747  13.020
98846W        W71260  22.695  44.465   0.961
98847W        W71261   2.315  21.596   4.817
98848W        W71262  24.652  17.085   4.647
98849W        W71263   7.198  16.177   4.214
98850W        W71264  12.750  21.686   3.641
98851W        W71265  23.528  28.513  12.077
98852W        W71266  14.786  25.140  14.281
98853W        W71267  13.606  21.737   3.784
98854W        W71268   7.816  15.135  10.451
98855W        W71269  29.108   7.812  10.896
98856W        W71270   5.746  38.563  13.864
98857W        W71271  43.985  28.548   4.224
98858W        W71272  17.631   4.919  11.968
98859W        W71273  15.156  34.591  10.622
98860W        W71274  24.612  14.758  11.406
98861W        W71275  11.182  10.804   0.781
98862W        W71276  27.186  28.053   4.605
98863W        W71277  17.624  27.529  12.824
98864W        W71278  28.667   7.891  12.049
98865W        W71279  29.951  34.934   2.214
98866W        W71280  18.675  35.503  14.851
98867W        W71281  37.522   9.181   1.238
98868W        W71282  10.298  15.261   4.682
98869W        W71283  20.091  41.487  14.932
98870W        W71284  41.954   0.928  10.501
98871W        W71285  18.693   7.313   3.871
98872W        W71286  15.208  27.548   3.853
98873W        W71287  11.342   6.285  12.016
98874W        W71288  31.982  20.128   1.802
98875W        W71289  10.172  27.191  11.447
98876W        W71290  32.599  38.928   4.726
98877W        W71291  25.982   1.281  12.041
98878W        W71292  35.901  11.666  13.822
98879W        W71293   8.337  40.541   0.304
98880W        W71294  44.405  21.180  12.547
98881W        W71295  17.675  31.511  13.932
98882W        W71296  30.565  36.929  11.969
98883W        W71297   8.290  15.254  10.587
98884W        W71298   8.893  26.488   3.160
98885W        W71299  26.166  27.016   4.324
98886W        W71300  28.674  22.546  12.000
98887W        W71301   8.179   0.302   1.420
98888W        W71302   1.817  32.001   4.245
98889W        W71303  20.088   5.313   0.291
98890W        W71304  34.526  37.470  10.532
98891W        W71305  25.195  13.215   1.768
98892W        W71306   0.761  11.762  13.494
98893W        W71307  44.353  20.580   1.243
98894W        W71308  12.675  13.781  11.912
98895W        W71309   7.870   6.739  13.938
98896W        W71310  32.114  31.116   1.892
98897W        W71311   4.261  31.479   3.344
98898W        W71312  18.638  43.807   3.263
98899W        W71313  39.942   8.690   2.298
98900W        W71314  13.653  29.987  13.530
98901W        W71315   2.320  27.197  13.495
98902W        W71316   8.175  42.372   1.753
98903W        W71317  25.188  30.519   1.424
98904W        W71318  20.032   5.760  10.972
98905W        W71319  13.689  44.839   4.142
98906W        W71320   0.326   0.305   0.793
98907W        W71321  20.573  20.029   4.245
98908W        W71322  38.387   2.424   4.217
98909W        W71323  30.913   6.182   0.966
98910W        W71324  39.345  18.091  13.904
98911W        W71325  31.608   5.240  14.292
98912W        W71326   3.845  36.443   4.153
98913W        W71327   3.853  16.224   4.736
98914W        W71328   8.404  43.273  10.499
98915W        W71329  44.831  19.146  11.901
98916W        W71330  19.649  12.229  12.413
98917W        W71331  22.720   6.839   0.950
98918W        W71332  16.156   7.759   5.580
98919W        W71333  41.791  40.436   3.218
98920W        W71334   2.812   8.396  11.448
98921W        W71335  35.574   7.193   0.807
98922W        W71336  14.170  21.523   0.884
98923W        W71337   3.834   9.311   1.727
98924W        W71338  12.199  13.157  11.917
98925W        W71339  37.376   1.378   0.947
98926W        W71340  23.668  31.023   4.762
98927W        W71341   3.396   9.682  13.435
98928W        W71342  12.329  11.253   4.733
98929W        W71343  17.091  36.920   1.735
98930W        W71344  27.005  41.354   4.722
98931W        W71345   7.293  24.071  14.807
98932W        W71346   3.857   9.189  14.979
98933W        W71347  44.788  27.193  14.275
98934W        W71348  23.517  25.482  14.313
98935W        W71349  44.809  10.162   4.665
98936W        W71350  39.430  38.512   0.399
98937W        W71351  18.234  32.140   5.191
98938W        W71352  22.232  34.467  14.774
98939W        W71353  21.110   2.741  12.540
98940W        W71354  32.924  12.654   4.172
98941W        W71355  40.809  24.622  12.367
98942W        W71356  29.028  21.169   1.362
98943W        W71357  24.642  39.912   1.715
98944W        W71358  15.793   8.715   2.845
98945W        W71359  40.863  34.597  14.898
98946W        W71360  34.609  29.619   3.674
98947W        W71361   3.854  26.078   4.273
98948W        W71362   0.750  30.563   1.392
98949W        W71363  27.682  17.101   4.181
98950W        W71364  19.085   0.267   4.213
98951W        W71365  44.304  29.045  13.503
98952W        W71366  44.450  20.225  11.902
98953W        W71367  33.455  23.561  14.286
98954W        W71368  14.275  35.580   0.736
98955W        W71369   6.820  16.619   0.870
98956W        W71370  26.467  19.709   3.807
98957W        W71371  41.405  40.993  14.853
98958W        W71372  28.051  27.681   3.773
98959W        W71373   6.818  43.009   3.797
98960W        W71374  31.079  25.644  10.991
98961W        W71375   7.871  15.803   5.301
98962W        W71376  24.052  40.041   1.430
98963W        W71377   0.378   1.823   1.215
98964W        W71378  20.662  16.758   1.840
98965W        W71379   9.836  29.135   4.134
98966W        W71380  32.627   6.709   0.297
98967W        W71381  25.036   0.385  12.342
98968W        W71382  26.089  40.988  14.948
98969W        W71383  15.678  18.727  14.285
98970W        W71384  14.590  34.451   5.277
98971W        W71385  36.436  40.410  14.370
98972W        W71386  18.109  27.528  13.424
98973W        W71387   1.244   0.816   0.342
98974W        W71388   0.759  22.528  10.952
98975W        W71389  20.720  23.691  10.889
98976W        W71390  10.331  39.482   2.873
98977W        W71391  27.562  14.270  12.463
98978W        W71392  29.125   7.790   0.796
98979W        W71393  30.464  11.321   1.736
98980W        W71394  22.713  26.003   3.736
98981W        W71395  18.735  23.163  12.965
98982W        W71396  16.788  16.193  11.022
98983W        W71397  31.462  21.697   2.317
98984W        W71398  23.715  23.530   3.286
98985W        W71399  42.934  27.048   3.780
98986W        W71400  27.119  24.171   4.662
98987W        W71401  35.009   0.317  12.379
98988W        W71402  32.960  13.268  11.476
98989W        W71403   5.256  28.642  10.441
98990W        W71404   4.402   9.819  14.420
98991W        W71405   7.392  38.009  14.397
98992W        W71406  38.450  37.506  13.792
98993W        W71407   7.227   6.686  13.954
98994W        W71408  41.523   3.230   2.885
98995W        W71409  26.105   8.397   2.857
98996W        W71410  43.402  26.701  12.559
98997W        W71411  33.517  23.074   1.380
98998W        W71412  24.561   2.829   4.807
98999W        W71413  37.356   6.288  14.299
99000W        W71414  10.256   2.876   4.613
99001W        W71415   2.904   2.401   3.827
99002W        W71416  32.427  18.229   2.190
99003W        W71417   3.294  36.487   0.882
99004W        W71418  44.805   1.473   1.410
99005W        W71419  22.643   8.379   4.284
99006W        W71420  39.409  35.565   3.342
99007W        W71421   9.746  42.823  14.328
99008W        W71422  42.893  33.509  14.332
99009W        W71423   2.935  35.408  12.446
99010W        W71424  32.454   0.763  13.013
99011W        W71425  17.143  30.118   2.372
99012W        W71426  13.778  32.055  10.498
99013W        W71427  17.248  43.938  10.145
99014W        W71428  32.887  29.918   4.701
99015W        W71429  28.598  18.220  11.586
99016W        W71430  24.167   7.794  11.587
99017W        W71431   0.448   6.744   3.826
99018W        W71432  26.542   1.470   4.608
99019W        W71433  24.602   5.800  11.952
99020W        W71434  33.027  25.525   3.153
99021W        W71435  42.028   8.668  10.027
99022W        W71436   5.394   7.197   2.858
99023W        W71437  20.253  37.400   0.393
99024W        W71438  14.817  15.161  14.335
99025W        W71439   0.984   1.787  13.410
99026W        W71440  34.439  12.619   3.807
99027W        W71441   7.360   6.889   2.193
99028W        W71442  43.342  42.817   4.150
99029W        W71443   3.335  21.518  12.007
99030W        W71444   7.172  41.796  13.985
99031W        W71445  28.438   6.325  13.309
99032W        W71446   2.353  19.609   1.869
99033W        W71447  32.001  30.972  12.078
99034W        W71448  36.485  21.686  13.325
99035W        W71449  36.927  20.609  14.366
99036W        W71450  44.391  18.244   0.277
99037W        W71451  41.946  43.839  12.422
99038W        W71452  36.052  24.170  14.929
99039W        W71453  22.045  27.037  10.992
99040W        W71454  23.625  43.275   4.781
99041W        W71455  31.966   4.944  11.445
99042W        W71456   6.249  14.176  13.885
99043W        W71457  39.370  14.824  12.859
99044W        W71458  24.169  21.675   0.250
99045W        W71459   1.769   9.883  12.017
99046W        W71460  40.041  36.472  14.488
99047W        W71461  31.141  18.633  11.060
99048W        W71462   7.832  41.909   2.238
99049W        W71463  16.743   0.878   4.648
99050W        W71464  35.968  15.216  14.018
99051W        W71465  26.168  37.836   3.703
99052W        W71466  15.247  16.598  11.076
99053W        W71467  11.663   9.216   1.244
99054W        W71468  26.966  17.784  14.284
99055W        W71469  44.357   1.244   4.252
99056W        W71470  15.283   7.262   2.882
99057W        W71471  31.115   2.814  11.372
99058W        W71472  23.634  19.231   5.661
99059W        W71473  26.626  32.556   2.247
99060W        W71474  25.580  20.057  14.428
99061W        W71475  28.985  41.394   1.416
99062W        W71476  42.945  39.822  11.864
99063W        W71477  23.501  21.129  13.998
99064W        W71478  30.144  23.564   1.289
99065W        W71479   8.821  40.992  14.372
99066W        W71480  29.432   0.330  11.400
99067W        W71481  15.328   3.248   2.305
99068W        W71482  32.474  13.706  12.984
99069W        W71483  33.570   3.441   4.245
99070W        W71484  11.822   5.841   0.465
99071W        W71485  23.597   4.818  10.957
99072W        W71486   0.834  38.519  14.766
99073W        W71487   8.691  33.109  11.535
99074W        W71488  20.218  12.302  11.985
99075W        W71489  25.144  20.221   0.740
99076W        W71490   7.857  30.112   4.156
99077W        W71491  27.661  20.626  13.493
99078W        W71492  13.229  25.059   0.357
99079W        W71493  10.360  30.042   0.932
99080W        W71494   7.227  21.211  14.023
99081W        W71495  26.979  26.200  11.577
99082W        W71496  44.989  43.332  13.937
99083W        W71497   9.361   0.936   2.730
99084W        W71498   3.450  40.994   9.947
99085W        W71499  14.695  16.299   1.806
99086W        W71500   5.733  20.647  11.934
99087W        W71501  34.392  13.718   2.788
99088W        W71502  18.746  40.015  12.979
99089W        W71503  34.491  32.467  10.541
99090W        W71504  37.548   8.870   2.288
99091W        W71505  35.418  31.522  10.937
99092W        W71506  28.144   4.862   3.658
99093W        W71507   2.265  12.834   3.353
99094W        W71508  34.594  34.886   4.134
99095W        W71509  25.633  29.578   4.633
99096W        W71510  20.229  28.469  12.428
99097W        W71511  35.874  29.492   3.658
99098W        W71512  42.481  19.277   3.252
99099W        W71513   0.371  44.439  14.843
99100W        W71514  44.797  35.059   4.353
99101W        W71515  16.780   1.930   1.772
99102W        W71516   4.228  12.219   4.679
99103W        W71517  27.141  27.030   2.796
99104W        W71518  35.426  21.593   3.799
99105W        W71519  25.528   0.957  13.811
99106W        W71520  35.559  34.961  12.383
99107W        W71521  37.550  28.506  12.500
99108W        W71522  40.002  19.077  11.560
99109W        W71523  22.665   7.846  12.042
99110W        W71524  31.014  22.508  11.971
99111W        W71525  15.096  17.154  10.928
99112W        W71526  36.040   4.776  14.969
99113W        W71527  19.736  11.214  12.959
99114W        W71528   0.832  44.827  10.072
99115W        W71529  22.129  24.979  12.056
99116W        W71530  29.054   2.893  12.913
99117W        W71531  14.704  43.859  11.915
99118W        W71532  36.929  31.576   3.369
99119W        W71533  26.191  25.490  13.356
99120W        W71534   1.937   8.869   2.356
99121W        W71535  10.700  31.629  13.941
99122W        W71536   9.271  43.899   4.257
99123W        W71537  36.390  33.070   9.514
99124W        W71538  44.842  15.644   1.256
99125W        W71539  19.175  18.622   1.325
99126W        W71540  15.097   3.340   4.681
99127W        W71541   6.815  31.445   3.806
99128W        W71542  17.707  28.153   0.958
99129W        W71543  21.731  42.380   3.663
99130W        W71544  34.033  17.180  11.489
99131W        W71545  32.519  33.019   2.283
99132W        W71546  24.159  15.186   2.756
99133W        W71547   2.266  35.973   1.840
99134W        W71548   2.936  24.557   3.345
99135W        W71549  41.802  30.576   4.248
99136W        W71550  26.617  44.910  12.580
99137W        W71551   5.229  26.623   4.263
99138W        W71552   5.430  11.750  10.610
99139W        W71553  21.623  26.467   2.384
99140W        W71554   4.777  24.207   4.834
99141W        W71555  19.246  25.013  11.529
99142W        W71556  33.122  21.722   1.837
99143W        W71557  32.022  11.239  11.408
99144W        W71558  37.577  15.313   0.871
99145W        W71559  20.750  16.591  13.390
99146W        W71560   1.445  15.159   3.353
99147W        W71561   6.690  19.757   0.409
99148W        W71562   7.225   6.819   0.736
99149W        W71563   7.856  28.996   1.724
99150W        W71564  26.564  25.554  12.568
99151W        W71565  29.488  27.971   0.940
99152W        W71566  29.058   8.658  10.440
99153W        W71567  22.010  24.723   2.380
99154W        W71568  28.948  35.066  11.502
99155W        W71569  39.401  23.499   1.870
99156W        W71570  18.180  26.492  13.341
99157W        W71571  21.592  18.234   2.247
99158W        W71572  31.124  37.392  10.890
99159W        W71573  26.205  41.458   0.806
99160W        W71574  20.708  36.490  11.914
99161W        W71575   9.164  29.995  13.848
99162W        W71576  19.685  24.978  14.000
99163W        W71577  14.271   6.847  12.462
99164W        W71578   8.186  25.543  13.397
99165W        W71579  25.007  24.497  14.465
99166W        W71580  31.960  35.531   3.225
99167W        W71581  39.485   8.694   1.825
99168W        W71582  30.048  14.741   3.199
99169W        W71583   5.247  41.349   3.317
99170W        W71584  24.159  34.991   3.642
99171W        W71585  35.565   3.427  11.482
99172W        W71586  44.447  36.000   2.840
99173W        W71587   7.224  38.996  11.033
99174W        W71588  21.522  19.652  10.436
99175W        W71589  30.059  37.883  14.459
99176W        W71590   8.233   5.366   1.914
99177W        W71591  22.615   3.942   2.679
99178W        W71592  25.032  12.315   4.658
99179W        W71593  19.679  30.652   3.801
99180W        W71594  13.824  43.852   2.241
99181W        W71595  20.097  43.328  11.108
99182W        W71596  12.153  39.406  11.383
99183W        W71597  20.253  27.490  11.422
99184W        W71598  21.037  17.654   3.299
99185W        W71599  26.051  32.116  11.016
99186W        W71600  36.533  16.713  12.053
99187W        W71601   1.433  14.762  10.901
99188W        W71602  33.974  22.634  14.021
99189W        W71603   6.424  27.969  12.064
99190W        W71604  31.135  26.554  10.082
99191W        W71605   7.735  40.913  13.960
99192W        W71606  29.078  40.435   3.332
99193W        W71607  24.116  44.982  10.035
99194W        W71608   8.222  30.914   2.184
99195W        W71609  42.400  25.583   4.800
99196W        W71610   2.240  13.708  11.438
99197W        W71611   4.884  28.668  11.097
99198W        W71612  37.458  35.107  10.500
99199W        W71613  34.119  18.582   2.771
99200W        W71614  12.195  23.072   1.712
99201W        W71615  14.291  39.425   0.467
99202W        W71616  40.375  38.065   2.897
99203W        W71617  22.712  23.156  13.857
99204W        W71618  16.704  23.710   0.827
99205W        W71619  24.005  26.686  11.601
99206W        W71620  11.694  26.051  12.907
99207W        W71621  43.484  13.803  12.913
99208W        W71622  18.292  25.117   0.467
99209W        W71623   1.971  15.259   4.706
99210W        W71624  33.509  31.433  10.599
99211W        W71625  15.767  41.994  10.016
99212W        W71626  30.141   2.291  10.493
99213W        W71627  44.298   5.794   2.802
99214W        W71628  43.317  18.101  14.988
99215W        W71629  40.529  22.635   0.381
99216W        W71630  37.086  35.567   2.757
99217W        W71631   0.814  10.273   3.629
99218W        W71632  13.126  34.868  10.084
99219W        W71633   6.193  13.208  11.463
99220W        W71634  37.399  18.082  14.461
99221W        W71635  36.863  40.013  11.545
99222W        W71636  11.852   7.215   4.799
99223W        W71637  21.537  14.634   3.665
99224W        W71638  32.093  27.945  14.344
99225W        W71639   7.707   5.222   3.196
99226W        W71640  42.470   3.279  13.338
99227W        W71641  43.831  41.318  12.828
99228W        W71642  29.145   4.354  11.472
99229W        W71643  38.362  19.121   0.252
99230W        W71644  36.431  17.184   3.311
99231W        W71645  14.253  38.884   1.328
99232W        W71646   0.841  11.326   2.670
99233W        W71647  29.036   8.213   3.639
99234W        W71648  28.551   1.851   1.436
99235W        W71649  22.179  24.021   2.276
99236W        W71650  32.895  41.323   0.471
99237W        W71651   4.343  30.523   4.114
99238W        W71652  38.565  18.134  12.057
99239W        W71653  24.037  18.769   2.732
99240W        W71654   8.285  39.943   4.635
99241W        W71655  36.037  34.068  11.375
99242W        W71656  29.553  43.409  13.987
99243W        W71657  38.372   1.783   0.956
99244W        W71658  30.458   2.436  12.981
99245W        W71659  27.958  36.388  13.940
99246W        W71660   9.214  30.455  14.929
99247W        W71661  23.643  21.127  10.485
99248W        W71662  23.655  37.478  14.003
99249W        W71663  43.809  17.584   3.695
99250W        W71664  24.085  23.691  12.921
99251W        W71665  17.671  38.389   1.442
99252W        W71666   4.282   8.292  14.950
99253W        W71667   1.332  41.798   4.233
99254W        W71668  40.527   2.895  12.919
99255W        W71669   1.816  43.436  12.423
99256W        W71670  34.880   2.340   1.855
99257W        W71671   8.381  31.042  12.463
99258W        W71672  15.205  28.549  14.841
99259W        W71673  42.922  35.951   2.662
99260W        W71674  36.523  44.352   0.325
99261W        W71675  21.560  32.549  12.858
99262W        W71676  40.902  23.557  14.776
99263W        W71677  30.432  14.727  11.492
99264W        W71678  14.268  39.417  10.896
99265W        W71679  26.070  34.098  13.506
99266W        W71680  44.919   8.796  10.538
99267W        W71681  21.023   2.869   2.369
99268W        W71682   2.779  22.580  12.044
99269W        W71683  35.451  29.940   1.816
99270W        W71684  12.345  32.091  11.026
99271W        W71685  29.155  36.873  11.876
99272W        W71686   2.274  16.652  14.306
99273W        W71687  22.210  14.258   1.285
99274W        W71688   2.721  41.795  14.972
99275W        W71689  36.410  15.779  10.156
99276W        W71690  11.765   7.670  14.989
99277W        W71691  38.475  15.194  12.826
99278W        W71692   3.923   0.768   3.282
99279W        W71693  13.636  25.501  10.954
99280W        W71694  16.151  18.633   4.838
99281W        W71695  34.996  21.220   2.786
99282W        W71696  15.177  17.702   4.754
99283W        W71697  36.954  26.016   4.771
99284W        W71698  38.534  39.936  12.363
99285W        W71699  31.962   1.254   4.671
99286W        W71700  11.246  15.698   3.196
99287W        W71701  34.558  16.179  11.017
99288W        W71702  33.626  37.841   2.680
99289W        W71703   7.242  42.350   2.662
99290W        W71704  12.190  16.167   0.274
99291W        W71705  12.285  14.651  13.025
99292W        W71706  29.156  28.050   0.776
99293W        W71707   6.427   9.782   1.868
99294W        W71708   8.239  35.930   1.735
99295W        W71709  36.089  33.412  10.133
99296W        W71710  34.946  29.003  10.940
99297W        W71711  39.428  15.733   1.294
99298W        W71712   0.869   4.803  12.404
99299W        W71713  35.531  33.015   1.877
99300W        W71714  11.822   4.751   4.344
99301W        W71715  16.661  13.652  11.064
99302W        W71716   7.203   7.343  13.394
99303W        W71717  10.706  30.424  12.905
99304W        W71718   9.763   9.679  12.091
99305W        W71719  11.214  10.690  13.958
99306W        W71720   3.721  34.046   0.806
99307W        W71721   7.302  35.033  10.598
99308W        W71722  32.540  42.831  13.343
99309W        W71723  25.541  13.797   2.229
99310W        W71724  19.260  13.781   4.742
99311W        W71725  29.517  36.500  11.022
99312W        W71726  29.969  37.046   0.364
99313W        W71727  11.225  37.051   1.280
99314W        W71728   9.885   6.392  13.064
99315W        W71729  23.582  44.321  13.474
99316W        W71730   1.786  33.051  12.525
99317W        W71731  17.228  40.890   2.873
99318W        W71732  21.637  34.954  12.075
99319W        W71733  30.576  33.066   4.210
99320W        W71734  21.044  10.879   3.270
99321W        W71735  35.404  44.344   2.762
99322W        W71736  36.068  23.581  14.445
99323W        W71737  39.490  31.623   1.335
99324W        W71738   2.427  38.991  12.459
99325W        W71739  25.156  16.269  10.042
99326W        W71740  31.020  14.101  12.396
99327W        W71741  40.465  43.773   3.230
99328W        W71742  13.738   9.890  13.055
99329W        W71743  31.552  38.915   3.178
99330W        W71744  31.924  11.250   4.227
99331W        W71745  18.147  16.314   3.148
99332W        W71746  26.468  30.565  10.101
99333W        W71747   0.317  36.414  10.937
99334W        W71748  26.614  24.011  11.867
99335W        W71749  17.769   3.852  11.983
99336W        W71750  16.599  38.392   4.660
99337W        W71751  19.149  18.580  10.927
99338W        W71752  16.114  24.083  13.940
99339W        W71753  15.298  30.420  13.917
99340W        W71754  40.987  36.517   4.339
99341W        W71755  31.102  38.859   4.684
99342W        W71756  28.581  33.891   0.450
99343W        W71757  41.503  11.766   3.818
99344W        W71758  35.523   8.160   4.134
99345W        W71759  12.140  20.612   1.870
99346W        W71760  25.618  31.484   3.701
99347W        W71761  13.759  27.589   4.796
99348W        W71762  26.951  19.060   1.282
99349W        W71763  23.587   7.835   3.778
99350W        W71764   6.750  24.151   3.183
99351W        W71765   3.314  25.639  14.888
99352W        W71766   2.758  40.341  13.429
99353W        W71767  36.060  13.839  11.595
99354W        W71768   7.405  31.618   2.232
99355W        W71769  20.145  18.704  12.843
99356W        W71770  40.881   0.822  11.067
99357W        W71771  25.119   8.221  10.996
99358W        W71772  31.048  40.966  12.942
99359W        W71773  35.919  11.313   3.670
99360W        W71774  17.297   4.248   1.310
99361W        W71775  13.280  39.935   3.837
99362W        W71776  36.990  12.343   1.884
99363W        W71777   3.378   9.270   3.830
99364W        W71778   0.428  35.556   1.447
99365W        W71779  37.463   4.737  11.518
99366W        W71780  40.000  42.979   2.690
99367W        W71781   7.188  26.647  14.912
99368W        W71782  39.326  16.722  14.857
99369W        W71783  33.078  43.764   1.377
99370W        W71784   4.782  23.702  10.998
99371W        W71785  33.416   5.376   2.185
99372W        W71786  23.066   0.281  12.934
99373W        W71787  10.713  29.984   1.302
99374W        W71788  17.612   2.817  10.523
99375W        W71789  21.553  35.533   1.727
99376W        W71790  13.663  33.509  14.279
99377W        W71791   4.408  14.590   3.295
99378W        W71792  36.457  31.925  10.554
99379W        W71793  42.000  35.968   2.255
99380W        W71794  15.690  34.573   4.276
99381W        W71795  41.491  15.776  12.532
99382W        W71796  19.734   5.391   3.786
99383W        W71797   1.397  20.645   3.771
99384W        W71798  34.052  43.391  14.468
99385W        W71799  32.971  37.907   4.723
99386W        W71800   7.392  14.803   3.187
99387W        W71801  33.882  28.652   0.928
99388W        W71802  32.950  25.536   0.282
99389W        W71803  33.504  18.718  13.351
99390W        W71804  17.114  44.425   3.833
99391W        W71805  34.881  28.671   4.636
99392W        W71806  44.497  12.797  14.902
99393W        W71807   6.201   6.379  10.454
99394W        W71808  42.944  42.471  12.392
99395W        W71809  12.169  14.232   0.876
99396W        W71810  13.317  20.194  12.872
99397W        W71811  10.252   9.205  13.521
99398W        W71812  40.961  43.790   1.432
99399W        W71813  14.819  30.014   2.192
99400W        W71814   2.262  18.287   1.778
99401W        W71815   6.739  38.518  13.812
99402W        W71816   4.757  20.596   4.717
99403W        W71817  18.119  29.952   0.960
99404W        W71818  31.407  27.607   4.247
99405W        W71819  11.344  15.320  13.507
99406W        W71820   7.870  35.580   2.331
99407W        W71821  16.724  23.107  11.398
99408W        W71822  41.503  29.664  14.863
99409W        W71823  18.164   2.858   3.764
99410W        W71824  44.309  43.433   4.346
99411W        W71825   7.273  19.699  10.957
99412W        W71826  43.391   8.757  14.902
99413W        W71827  13.730   5.913   2.259
99414W        W71828  28.543  19.682   1.399
99415W        W71829  23.214  27.035  11.056
99416W        W71830  42.363  14.615  10.952
99417W        W71831  13.222  30.095  11.982
99418W        W71832  36.903  43.282  14.479
99419W        W71833  23.640  41.498   3.740
99420W        W71834   1.880  27.952  12.383
99421W        W71835  11.189  44.353   0.924
99422W        W71836   6.789  29.668  14.359
99423W        W71837  25.684  32.118  12.406
99424W        W71838  10.231  18.173  13.484
99425W        W71839  35.974  35.064  13.368
99426W        W71840  20.709  38.545  14.835
99427W        W71841   5.229   2.472   2.328
99428W        W71842   5.899  19.621  11.942
99429W        W71843  31.984   7.888   5.268
99430W        W71844   1.957  41.518   5.289
99431W        W71845  28.459  39.351  11.916
99432W        W71846  17.063  12.823  14.313
99433W        W71847  12.655  24.096   4.218
99434W        W71848   1.287  25.499   1.784
99435W        W71849  30.432  30.093  12.999
99436W        W71850   5.700  19.142   1.281
99437W        W71851  26.580  32.430   4.263
99438W        W71852  36.382  40.440   3.154
99439W        W71853  29.634  43.970  11.863
99440W        W71854   7.406  35.887   2.308
99441W        W71855   2.432  25.188   1.367
99442W        W71856  18.698  27.141  13.389
99443W        W71857   9.155  33.510  13.831
99444W        W71858  22.234  38.006   0.863
99445W        W71859  43.332  20.234  10.972
99446W        W71860  11.326  20.110  12.516
99447W        W71861  40.429  16.640   2.182
99448W        W71862  39.483   7.757  14.321
99449W        W71863  38.388  30.492   2.193
99450W        W71864   8.681  18.267   4.225
99451W        W71865   9.777  31.514  12.506
99452W        W71866  31.963  38.992  12.352
99453W        W71867  12.123  12.251   3.265
99454W        W71868   1.254   7.865   1.727
99455W        W71869   2.439  15.717  10.103
99456W        W71870  28.138   9.657  11.976
99457W        W71871  11.160  44.933  14.445
99458W        W71872  35.092   9.343   3.645
99459W        W71873  32.604  11.336  11.863
99460W        W71874  30.535  18.111   4.238
99461W        W71875  28.967  44.487   2.755
99462W        W71876  25.691  19.685   1.391
99463W        W71877   2.435  20.732  14.960
99464W        W71878  17.712  39.895  14.356
99465W        W71879   9.248  29.921   1.791
99466W        W71880  40.452  34.487  10.453
99467W        W71881  27.580   2.890   1.848
99468W        W71882  25.040  44.462   0.454
99469W        W71883  10.820  11.697   0.316
99470W        W71884   9.158  31.952   4.608
99471W        W71885  26.163  32.141  11.928
99472W        W71886  32.014  36.095   2.685
99473W        W71887   1.788  36.987  14.981
99474W        W71888   5.377  38.931  13.988
99475W        W71889  30.563  21.216   3.290
99476W        W71890  21.060   0.494  13.392
99477W        W71891  20.535  21.170  11.961
99478W        W71892  26.475  29.480   4.346
99479W        W71893  44.970   4.354   2.854
99480W        W71894  31.899  42.459  10.576
99481W        W71895   1.321  35.603   2.861
99482W        W71896  41.403  23.026   4.816
99483W        W71897  13.775  23.128  10.995
99484W        W71898  17.222   4.745  11.373
99485W        W71899  41.959  43.928  14.882
99486W        W71900  29.170  43.475   0.866
99487W        W71901  40.500  29.953  14.012
99488W        W71902  18.599  21.516  11.099
99489W        W71903  14.183  15.756   5.192
99490W        W71904  21.717   4.402   3.281
99491W        W71905  10.704   2.456   1.212
99492W        W71906  31.921   1.424  11.486
99493W        W71907  33.110  33.992   3.239
99494W        W71908  19.656   7.178   0.319
99495W        W71909  39.994  12.148  11.008
99496W        W71910  39.951  17.629   0.411
99497W        W71911  36.364  23.007   9.542
99498W        W71912  44.771  11.194   4.273
99499W        W71913  30.451  30.972  11.042
99500W        W71914   1.406   1.430   4.170
99501W        W71915  34.016   7.775  10.624
99502W        W71916  38.879  23.628   3.709
99503W        W71917  11.625  38.989   4.810
99504W        W71918  10.181  17.193   1.920
99505W        W71919  40.957  18.084  14.350
99506W        W71920  10.237  24.495  12.981
99507W        W71921   6.730  15.637  11.564
99508W        W71922  17.218  11.337   2.245
99509W        W71923   1.271  10.296  10.897
99510W        W71924  17.657  38.567  12.521
99511W        W71925  19.269  11.771  12.580
99512W        W71926  28.466   8.882  12.487
99513W        W71927  14.705  36.353   2.247
99514W        W71928  34.079  39.024  10.959
99515W        W71929  23.985  22.603  14.387
99516W        W71930  36.963  33.557   1.309
99517W        W71931  10.327  38.353  13.962
99518W        W71932  27.108  36.970   2.271
99519W        W71933   3.265   9.866   1.363
99520W        W71934   9.666   0.783  11.961
99521W        W71935  32.134  18.276   3.769
99522W        W71936  28.106   5.410   4.263
99523W        W71937  21.594   1.286  10.894
99524W        W71938  13.113  13.758  12.406
99525W        W71939  21.062  34.900  13.034
99526W        W71940   9.321  32.621  10.508
99527W        W71941   3.886  19.134  12.553
99528W        W71942  19.616  41.955   0.770
99529W        W71943  36.426  14.197   0.847
99530W        W71944  33.545  30.142  13.472
99531W        W71945   5.861  12.718   1.312
99532W        W71946   7.752  26.685   4.800
99533W        W71947  34.428   0.960  14.359
99534W        W71948  13.197  42.837  11.409
99535W        W71949  10.188   6.777   0.939
99536W        W71950  24.059  36.882  14.856
99537W        W71951  13.125  29.075  13.830
99538W        W71952  14.124  12.828  11.387
99539W        W71953   0.342  44.979   2.824
99540W        W71954   4.782  21.179   3.695
99541W        W71955  32.599  10.173  14.834
99542W        W71956  39.496  21.083   1.241
99543W        W71957  31.149  26.967  11.429
99544W        W71958  14.649  26.199   0.299
99545W        W71959  40.359  14.273  12.522
99546W        W71960  44.491   4.929  14.987
99547W        W71961  42.476   9.864  12.090
99548W        W71962  25.615  10.688   0.325
99549W        W71963  18.227  23.535  13.039
99550W        W71964  27.072   5.312  14.958
99551W        W71965   5.742   7.702   3.156
99552W        W71966  24.091  24.191  11.090
99553W        W71967   2.390   3.954  14.316
99554W        W71968  43.812   1.831  11.446
99555W        W71969  19.544  39.843   0.827
99556W        W71970  38.913  35.525  12.906
99557W        W71971  44.821  12.191   1.724
99558W        W71972  41.986  16.099   3.381
99559W        W71973  13.219  27.025   1.272
99560W        W71974  29.989  15.262  10.608
99561W        W71975  38.055  14.682   2.348
99562W        W71976   8.712  19.683   2.749
99563W        W71977  17.287  27.550   0.391
99564W        W71978   9.654  24.194   3.754
99565W        W71979   3.282  41.795  11.475
99566W        W71980  30.007  18.225  11.075
99567W        W71981  40.375  27.116  13.407
99568W        W71982  21.757  38.416  11.864
99569W        W71983  38.932  44.476   3.239
99570W        W71984   1.817  28.967   3.231
99571W        W71985  26.953  27.138   3.647
99572W        W71986  21.247   7.693   3.755
99573W        W71987  35.566  42.801   3.347
99574W        W71988  36.468   4.850   3.291
99575W        W71989  43.930  26.552  12.918
99576W        W71990   5.714  37.997  10.406
99577W        W71991  33.090   4.890  12.471
99578W        W71992  29.057   0.324  13.975
99579W        W71993  13.203   8.782   0.425
99580W        W71994  18.700  22.538  10.127
99581W        W71995   0.330   0.482  12.880
99582W        W71996  12.334  34.068   0.313
99583W        W71997   3.949  15.228  14.325
99584W        W71998   3.759  32.912   3.151
99585W        W71999  39.886   6.348   2.865
99586W        W72000  16.192  32.010  14.875
99587W        W72001  15.085  25.209   2.220
99588W        W72002   2.723   8.761  11.498
99589W        W72003  31.026   9.271  11.892
99590W        W72004  43.005  12.651  12.472
99591W        W72005   2.398  33.123   4.765
99592W        W72006  21.212  43.018  12.058
99593W        W72007  11.677   1.753  12.499
99594W        W72008   8.763   6.779   2.351
99595W        W72009   6.763  10.164   3.789
99596W        W72010  36.072  38.341  11.388
99597W        W72011  13.239   2.957  10.419
99598W        W72012  19.130  14.149  12.518
99599W        W72013   9.321  24.645   2.208
99600W        W72014  18.281  41.519   0.248
99601W        W72015  10.374  17.235  10.941
99602W        W72016  42.851  41.873   4.670
99603W        W72017   0.484  22.714  11.534
99604W        W72018   7.674  13.788   1.806
99605W        W72019  31.599   3.790  12.919
99606W        W72020  22.024  10.371   0.744
99607W        W72021  18.254  31.001  14.759
99608W        W72022   3.421  41.489   4.671
99609W        W72023  24.589  21.231  13.901
99610W        W72024  15.796  26.056  11.118
99611W        W72025   5.920   2.847  14.925
99612W        W72026   1.283  11.240  13.362
99613W        W72027  17.148  23.215   4.303
99614W        W72028  25.542   4.736  14.277
99615W        W72029  19.617  34.876   4.320
99616W        W72030  22.125  22.653  14.298
99617W        W72031   2.416   9.650   1.734
99618W        W72032  32.610   6.857   3.696
99619W        W72033  29.539   3.443   4.724
99620W        W72034   5.748  27.967  14.907
99621W        W72035  31.080   5.850  10.031
99622W        W72036  23.219  11.689   1.398
99623W        W72037  32.966  36.004  10.904
99624W        W72038   9.237  30.940  14.841
99625W        W72039  15.304   5.715   2.365
99626W        W72040   1.903   0.769  11.878
99627W        W72041  40.341   1.281   2.189
99628W        W72042  10.645  26.467   0.479
99629W        W72043  32.022  27.597   0.300
99630W        W72044  33.519  28.594  13.462
99631W        W72045   4.353  20.253   2.868
99632W        W72046  40.407  37.006   1.374
99633W        W72047  14.761  21.537  13.022
99634W        W72048  17.103  11.675   2.880
99635W        W72049   3.275  41.908  12.077
99636W        W72050  29.945  16.684  14.399
99637W        W72051  13.610  44.757   3.666
99638W        W72052  37.060  31.066   2.713
99639W        W72053  32.921  13.610   0.415
99640W        W72054  16.192  32.627  13.514
99641W        W72055  10.735  21.187  10.501
99642W        W72056  41.890   5.802   4.823
99643W        W72057   9.656  31.511  14.897
99644W        W72058   2.290  14.218   5.163
99645W        W72059  42.450   3.401  10.514
99646W        W72060  25.485  10.879  11.480
99647W        W72061  32.551  15.290  11.522
99648W        W72062  10.234  31.482   1.361
99649W        W72063  10.337  34.938   0.290
99650W        W72064   9.287   0.452  12.988
99651W        W72065   2.397  31.504   4.332
99652W        W72066  41.848  43.314  13.939
99653W        W72067  20.620  43.923  10.422
99654W        W72068  29.480  32.131   3.703
99655W        W72069   1.274  42.893  14.458
99656W        W72070   2.440  28.481   3.865
99657W        W72071  14.118  41.960  11.918
99658W        W72072  42.284  31.085   0.869
99659W        W72073  37.907  25.611  14.835
99660W        W72074  15.091  35.909  14.496
99661W        W72075  38.901  26.475  10.422
99662W        W72076  23.489  20.594   3.629
99663W        W72077  43.974  11.788   0.793
99664W        W72078   2.882  16.086   2.766
99665W        W72079   9.392  34.898  14.963
99666W        W72080   7.876  10.222  11.605
99667W        W72081  21.228   4.771  12.525
99668W        W72082  14.283  32.103   2.728
99669W        W72083   8.274   3.935  14.364
99670W        W72084  42.334  17.241   0.817
99671W        W72085  34.902  19.066   3.337
99672W        W72086  15.581  17.600  14.403
99673W        W72087   3.395  16.655   2.274
99674W        W72088  11.858   6.335  10.498
99675W        W72089   2.467  14.588  13.010
99676W        W72090  29.461  40.405   1.888
99677W        W72091  44.470  26.566   2.410
99678W        W72092  23.217  29.542   1.422
99679W        W72093  42.008   9.652  12.081
99680W        W72094  29.098  23.077  14.827
99681W        W72095  29.009  19.096   3.273
99682W        W72096  38.920   5.706   4.297
99683W        W72097  30.995  33.994   2.779
99684W        W72098  42.941  41.897   1.741
99685W        W72099  16.202  25.169  11.522
99686W        W72100  24.652  22.030  12.077
99687W        W72101  41.795   3.770  13.466
99688W        W72102  11.661  32.617  12.844
99689W        W72103  41.396  37.529  12.852
99690W        W72104   1.413  32.476   2.755
99691W        W72105  36.378  20.086   3.241
99692W        W72106   3.313  10.664  13.357
99693W        W72107  43.357  37.021  14.917
99694W        W72108  30.164  16.153   3.742
99695W        W72109  24.988   5.211  10.550
99696W        W72110  38.038  43.404   2.220
99697W        W72111   5.892  34.493   2.180
99698W        W72112  16.219  23.078  13.836
99699W        W72113  18.275  14.238  13.979
99700W        W72114  34.521  32.461  12.491
99701W        W72115  34.888   4.343   1.383
99702W        W72116   6.770  44.336  13.391
99703W        W72117  38.072  22.093  11.952
99704W        W72118  15.296   9.791  11.884
99705W        W72119  12.641  17.127  14.967
99706W        W72120   6.368  40.975  12.429
99707W        W72121  26.687  34.949  11.559
99708W        W72122   8.659  41.825   4.794
99709W        W72123   3.846   6.692  12.571
99710W        W72124  28.993  33.030  13.051
99711W        W72125  23.212  42.006  14.345
99712W        W72126  23.503  25.196   1.729
99713W        W72127  31.628  10.269  11.071
99714W        W72128  37.377  19.123  11.065
99715W        W72129  13.241   7.850   4.204
99716W        W72130  27.616  38.509   3.284
99717W        W72131  39.998   3.766  14.424
99718W        W72132  10.285  39.995   4.296
99719W        W72133   5.871  35.545  14.416
99720W        W72134  10.780  43.349  10.936
99721W        W72135  43.964  17.127   1.860
99722W        W72136   1.386   0.391  12.522
99723W        W72137  43.970  15.206  12.853
99724W        W72138  12.751  19.127  12.991
99725W        W72139  23.088  38.393  11.437
99726W        W72140  30.486   7.191   2.404
99727W        W72141  11.799  26.581  12.473
99728W        W72142  36.408  24.120  11.477
99729W        W72143  13.308  27.974  13.796
99730W        W72144  24.191   9.244  11.501
99731W        W72145  23.666  18.758   3.148
99732W        W72146   4.419  38.909   2.209
99733W        W72147   8.341  16.289  11.033
99734W        W72148   8.874  29.034  12.543
99735W        W72149  14.340  23.632  11.916
99736W        W72150  11.224  10.142   1.763
99737W        W72151  43.781  28.044  12.452
99738W        W72152  33.446  24.700   2.814
99739W        W72153  29.048   9.321  10.408
99740W        W72154  22.713  24.985   2.746
99741W        W72155  17.733  42.446  10.935
99742W        W72156  32.035   8.766  12.398
99743W        W72157  17.793   3.725   0.806
99744W        W72158  33.596  23.538  12.394
99745W        W72159  30.586  35.474   2.366
99746W        W72160   3.733  12.203  12.935
99747W        W72161  37.891  10.258   0.389
99748W        W72162  28.976  37.489  11.459
99749W        W72163  41.880  29.445   1.265
99750W        W72164   5.858   2.426  11.935
99751W        W72165  18.181  23.990  11.058
99752W        W72166  12.276   9.237  10.602
99753W        W72167  29.540   8.301  11.610
99754W        W72168  37.063  18.560   4.116
99755W        W72169   0.782  18.571   0.323
99756W        W72170  30.560  11.716   3.259
99757W        W72171  22.711  30.573  11.871
99758W        W72172  18.679  32.128  12.022
99759W        W72173  40.440  38.418   0.842
99760W        W72174  27.044  24.497   4.634
99761W        W72175  15.191  18.774   1.885
99762W        W72176  25.020  12.850  12.477
99763W        W72177  44.800   4.851   3.862
99764W        W72178  14.338  11.276  12.998
99765W        W72179   7.223  24.572   1.240
99766W        W72180  38.361  25.186   1.751
99767W        W72181  10.636  27.448   4.326
99768W        W72182  21.705  16.235   2.397
99769W        W72183  13.670   2.452   4.172
99770W        W72184  21.062  26.683  11.051
99771W        W72185  40.797  42.810   0.909
99772W        W72186  42.423   6.749  14.435
99773W        W72187  21.513  10.658  10.535
99774W        W72188  44.472  39.052   2.833
99775W        W72189  11.288  38.958   0.462
99776W        W72190   5.376  28.129   1.873
99777W        W72191  37.428  43.463  11.569
99778W        W72192  21.183  33.610  14.880
99779W        W72193  39.926  42.951   0.382
99780W        W72194  22.565  37.958   1.883
99781W        W72195   3.233   3.384   0.451
99782W        W72196  34.009  36.909  13.847
99783W        W72197  12.730  36.425   2.724
99784W        W72198   6.212  25.151   4.299
99785W        W72199  43.813  42.936  12.835
99786W        W72200  27.524  16.156   1.369
99787W        W72201  40.830  16.094   3.258
99788W        W72202   9.688  32.577   4.297
99789W        W72203  11.710  30.088   2.853
99790W        W72204   7.863  38.847   5.233
99791W        W72205  20.689  12.121   2.813
99792W        W72206   3.714  29.478   2.857
99793W        W72207  10.836  35.411   2.745
99794W        W72208  25.081  27.485   0.385
99795W        W72209  11.263  43.904  13.874
99796W        W72210   8.180  36.984   2.233
99797W        W72211  35.980  31.920  10.107
99798W        W72212  21.259  35.909   2.751
99799W        W72213  31.413  25.069  13.798
99800W        W72214  23.063  13.763   1.285
99801W        W72215   9.758  15.156  12.919
99802W        W72216  10.186  44.753   3.736
99803W        W72217   5.219  38.056   0.828
99804W        W72218  38.567   9.390  14.328
99805W        W72219  38.563  24.705  13.861
99806W        W72220   4.737  16.279  11.037
99807W        W72221  24.110   0.383   3.641
99808W        W72222  21.575  29.140   3.238
99809W        W72223  38.034   8.849  14.514
99810W        W72224  29.951   4.398   3.691
99811W        W72225   5.838   1.393   1.297
99812W        W72226  34.954  44.782  11.958
99813W        W72227   3.334  14.745  13.817
99814W        W72228   5.902  34.867  14.961
99815W        W72229   3.800  25.052  11.054
99816W        W72230  20.639   3.897  13.478
99817W        W72231  36.848  22.501  13.479
99818W        W72232   9.374  41.930  13.428
99819W        W72233   8.381  43.873   1.866
99820W        W72234  15.736  42.943  13.402
99821W        W72235  29.169  22.536  13.403
99822W        W72236  38.050   7.333   3.643
99823W        W72237  18.649  42.826   9.569
99824W        W72238  13.333  32.058   0.897
99825W        W72239  28.088   1.772  10.565
99826W        W72240  20.681  16.166  10.898
99827W        W72241  15.114  11.793  10.461
99828W        W72242  36.955  38.833   4.193
99829W        W72243  18.726   6.861   3.184
99830W        W72244  38.827  22.679   2.869
99831W        W72245  24.142   9.306  13.525
99832W        W72246  40.509  17.685  12.853
99833W        W72247   6.229  39.478   4.346
99834W        W72248   6.869  18.550   4.784
99835W        W72249  12.335  33.934   3.216
99836W        W72250   2.312   7.830  10.994
99837W        W72251  20.706   0.826   0.859
99838W        W72252   3.776  42.375   2.281
99839W        W72253   1.383  35.878   1.898
99840W        W72254  20.218  31.076  13.024
99841W        W72255  31.425  25.710  12.887
99842W        W72256  36.390  26.551   3.704
99843W        W72257  15.612  32.984  13.519
99844W        W72258  13.627  21.684  11.035
99845W        W72259  40.519  42.851  10.108
99846W        W72260  12.645  32.549  11.896
99847W        W72261  35.375   2.857  10.423
99848W        W72262  33.621   2.414   2.755
99849W        W72263  14.288  29.461   3.678
99850W        W72264  21.123  11.250   0.794
99851W        W72265  19.161  10.192   3.800
99852W        W72266  14.591  37.912  12.957
99853W        W72267  22.252  20.550   1.754
99854W        W72268  38.359  40.538  14.800
99855W        W72269  23.043  44.898   0.339
99856W        W72270  18.186  35.528   2.722
99857W        W72271  20.571  18.273  13.052
99858W        W72272  32.980   2.290   4.213
99859W        W72273  31.909   0.903  14.890
99860W        W72274  29.073   2.826   0.740
99861W        W72275  26.014  40.927   3.340
99862W        W72276   0.887   7.248   2.365
99863W        W72277  24.696  12.208   1.216
99864W        W72278   2.870  40.352  10.592
99865W        W72279  35.086   8.889  14.829
99866W        W72280  32.036  32.989  13.373
99867W        W72281  14.273  44.005   1.290
99868W        W72282   2.954  37.566   1.730
99869W        W72283  21.235  44.382   4.220
99870W        W72284   0.782   4.778  11.898
99871W        W72285  32.527  34.892  10.564
99872W        W72286  38.331   7.757   4.715
99873W        W72287  12.232  22.182   4.689
99874W        W72288  22.684   6.360   0.847
99875W        W72289  36.857  21.551   4.225
99876W        W72290  23.632  17.262  12.449
99877W        W72291   7.395  26.013  12.946
99878W        W72292  40.017  36.855  14.411
99879W        W72293  26.537  31.440  12.404
99880W        W72294  10.374   5.432  12.972
99881W        W72295  43.891  14.828  13.996
99882W        W72296  18.277  32.470  11.925
99883W        W72297   3.765   7.267  14.825
99884W        W72298  32.052  44.480  13.825
99885W        W72299   7.711  11.655  12.513
99886W        W72300  31.051  38.058   0.781
99887W        W72301  40.929  44.884   2.789
99888W        W72302   8.794   5.778  14.893
99889W        W72303  39.375  43.383   0.378
99890W        W72304  28.630  35.468  14.426
99891W        W72305  30.628  31.468   2.849
99892W        W72306  36.896  25.627  13.008
99893W        W72307  33.898   8.247  14.013
99894W        W72308  22.646  26.532  11.960
99895W        W72309  12.238  37.453  14.339
99896W        W72310  23.118  21.692   2.229
99897W        W72311   8.828  11.247   3.808
99898W        W72312  31.625   4.765  14.976
99899W        W72313   3.298  18.290   4.598
99900W        W72314  44.895  35.443  10.559
99901W        W72315  29.534  18.697   3.261
99902W        W72316  22.127   5.807   0.747
99903W        W72317  36.019  16.747  10.510
99904W        W72318  21.705  33.984   1.696
99905W        W72319  15.293  32.990  10.497
99906W        W72320  42.816  34.109  13.873
99907W        W72321  21.704   7.908  12.073
99908W        W72322  34.022  39.983   1.810
99909W        W72323  32.620  27.610   2.241
99910W        W72324  37.460  25.534  11.512
99911W        W72325  34.915  21.225  10.549
99912W        W72326  26.517   6.361  14.467
99913W        W72327   9.356  41.984   4.303
99914W        W72328  18.122  20.121  12.370
99915W        W72329  44.316  39.420  12.467
99916W        W72330  35.106  40.882   4.663
99917W        W72331  24.546  33.598  10.927
99918W        W72332   8.317  22.240  13.336
99919W        W72333  31.520  10.849  10.633
99920W        W72334  33.514   1.851   9.935
99921W        W72335  31.058  12.287   4.625
99922W        W72336  32.035   0.941  14.320
99923W        W72337  19.235  30.484  11.482
99924W        W72338  21.026  42.472   1.337
99925W        W72339   2.825  19.067  11.436
99926W        W72340  38.933   1.372  13.974
99927W        W72341   5.702   3.849   1.845
99928W        W72342   9.210  18.256   3.761
99929W        W72343   9.249  26.656   0.255
99930W        W72344  15.130  32.074   3.791
99931W        W72345  41.320  31.150  12.448
99932W        W72346  11.191  41.816  13.468
99933W        W72347  23.153   9.265   4.645
99934W        W72348  29.665  32.469   0.336
99935W        W72349  14.806  31.646   2.673
99936W        W72350   5.887   2.303   4.673
99937W        W72351  34.057  11.340   3.226
99938W        W72352  43.449  13.237  11.399
99939W        W72353  32.072  29.148  14.845
99940W        W72354  23.226  12.118  10.998
99941W        W72355   0.981  23.541   4.831
99942W        W72356   9.197  29.987  12.071
99943W        W72357  11.243  24.527   4.669
99944W        W72358  42.859   8.363   1.773
99945W        W72359   0.309  22.059  14.433
99946W        W72360   4.400  23.091   4.726
99947W        W72361  30.612   0.373   2.749
99948W        W72362  30.083   4.917   1.741
99949W        W72363   7.876   2.722  13.944
99950W        W72364  31.442  33.914  12.486
99951W        W72365  43.842  29.508   0.479
99952W        W72366   7.176  38.022  12.055
99953W        W72367   4.751  20.611   1.710
99954W        W72368  15.089   5.909  14.293
99955W        W72369  25.633  12.622  13.889
99956W        W72370  35.577  31.429  13.019
99957W        W72371  27.501  10.220  12.441
99958W        W72372   5.405  28.498   1.419
99959W        W72373   8.204   4.707  14.372
99960W        W72374  11.757  26.511  14.865
99961W        W72375  19.549  26.631  12.389
99962W        W72376   3.259  27.118   3.664
99963W        W72377  22.176  19.193   2.399
99964W        W72378  43.820  17.285  10.447
99965W        W72379  41.296  40.423   2.295
99966W        W72380  11.746   8.872  10.434
99967W        W72381  25.683  38.880   3.713
99968W        W72382  34.899   7.188  13.865
99969W        W72383  10.260   3.769   1.294
99970W        W72384  34.577  44.304  12.889
99971W        W72385   3.421  27.662   1.904
99972W        W72386  22.649  18.599  13.040
99973W        W72387  39.970  43.511  14.353
99974W        W72388  43.810  29.561   3.819
99975W        W72389  22.243  18.661  14.904
99976W        W72390   4.915   3.263   5.155
99977W        W72391  19.138   7.195  11.477
99978W        W72392  33.057  36.476  11.607
99979W        W72393   9.818  20.675   1.801
99980W        W72394   8.161   7.736   3.653
99981W        W72395  30.572  41.851   2.832
99982W        W72396  18.146   3.937   3.789
99983W        W72397  29.627  42.371   0.940
99984W        W72398   3.833  20.271  10.948
99985W        W72399   8.701  17.106   1.886
99986W        W72400  11.226  34.465  11.985
99987W        W72401  39.490  31.980  12.060
99988W        W72402  41.324   0.362  14.953
99989W        W72403  20.531  29.070  13.061
99990W        W72404  31.631  34.488   4.229
99991W        W72405  29.158  32.618  14.364
99992W        W72406  12.733  12.148  11.876
99993W        W72407   3.368  35.928  11.467
99994W        W72408  14.177  24.117   5.144
99995W        W72409   3.937  30.561   1.252
99996W        W72410  14.242  34.446  11.522
99997W        W72411  29.926  25.588   1.839
99998W        W72412   4.220  17.073  11.561
99999W        W72413  36.456  26.960   0.912
    0W        W72414   6.837  38.062  11.542
    1W        W72415  40.879  12.199  11.855
    2W        W72416  10.354  18.550  14.330
    3W        W72417  28.521  44.382   3.168
    4W        W72418   2.437  34.931   1.900
    5W        W72419  10.654  13.701  14.425
    6W        W72420  33.459   4.848   1.446
    7W        W72421  11.695  14.712   2.288
    8W        W72422  39.036  43.445  11.047
    9W        W72423   6.718  30.908  11.611
   10W        W72424   3.430  31.557  14.461
   11W        W72425   6.236  34.463  10.904
   12W        W72426   9.711  34.887   1.310
   13W        W72427  40.984  38.553   3.680
   14W        W72428  28.966  17.126  14.945
   15W        W72429  40.320  37.833  12.835
   16W        W72430   8.372  22.223  14.032
   17W        W72431  41.973  20.653  10.427
   18W        W72432   8.263  26.067  11.939
   19W        W72433  44.365   5.334  12.879
   20W        W72434  42.820  39.886   2.212
   21W        W72435  22.543  24.220  14.291
   22W        W72436  35.098  33.395   0.813
   23W        W72437  38.495   1.431   1.288
   24W        W72438  31.458  14.321  13.371
   25W        W72439   3.266  12.140   3.802
   26W        W72440  23.596  14.261   3.340
   27W        W72441  29.642  37.920   2.901
   28W        W72442  18.269   0.466  14.490
   29W        W72443   0.836  29.138   2.763
   30W        W72444  40.433  30.426   2.797
   31W        W72445   8.748  23.116  13.523
   32W        W72446  28.459  23.015   0.773
   33W        W72447  26.632  41.481  12.557
   34W        W72448  30.639  18.579   3.386
   35W        W72449  32.391  44.001   1.307
   36W        W72450   9.689   3.392  13.995
   37W        W72451   9.691  11.360   2.678
   38W        W72452  43.461  10.677   2.327
   39W        W72453  43.366  42.305  13.548
   40W        W72454  35.017  43.010  11.465
   41W        W72455  25.185   1.361   0.357
   42W        W72456  28.012  34.979   1.320
   43W        W72457  25.633  17.095   1.864
   44W        W72458  27.554   1.434  12.915
   45W        W72459  26.690  36.911  12.013
   46W        W72460  27.087   9.695  11.592
   47W        W72461  13.612  30.416   1.250
   48W        W72462  44.838  17.163  13.422
   49W        W72463  38.521  35.459   3.371
   50W        W72464  43.458  38.454   2.733
   51W        W72465  10.820  22.622   3.644
   52W        W72466  33.574  25.541   1.763
   53W        W72467  24.644  41.346   2.687
   54W        W72468  36.393  41.973   1.211
   55W        W72469   7.252  43.507   3.818
   56W        W72470  44.484  25.051  13.854
   57W        W72471   5.250   8.751   2.277
   58W        W72472  29.081  14.108   0.404
   59W        W72473   2.727  28.509   9.500
   60W        W72474  15.291  18.239  14.462
   61W        W72475  30.994  38.048   2.229
   62W        W72476  21.246  29.035  12.060
   63W        W72477  37.949   4.233  10.439
   64W        W72478  29.566  27.559  14.009
   65W        W72479  42.817   4.837   0.444
   66W        W72480  24.611  17.231  14.342
   67W        W72481   0.943  31.645  11.565
   68W        W72482  39.512  31.609   4.187
   69W        W72483  35.465   6.757  11.570
   70W        W72484  13.315   7.249  13.524
   71W        W72485  13.282  24.082  10.913
   72W        W72486  16.093  39.888  11.981
   73W        W72487  25.040  28.130  13.312
   74W        W72488  38.453  36.965   1.363
   75W        W72489   6.233  36.420  13.380
   76W        W72490  40.466  33.552  13.432
   77W        W72491  18.767  11.763  14.932
   78W        W72492   5.893   8.881  10.547
   79W        W72493  26.550  21.545   0.878
   80W        W72494  38.562  36.962  11.103
   81W        W72495  42.940  19.126   2.418
   82W        W72496  42.929  24.581  13.054
   83W        W72497  40.936  36.507  14.317
   84W        W72498  17.133  24.525  11.941
   85W        W72499  28.184  10.772   1.320
   86W        W72500   5.401  20.060  12.042
   87W        W72501  12.755   5.751   9.957
   88W        W72502   0.414  28.018   2.879
   89W        W72503  23.529  26.683  14.375
   90W        W72504  15.760  32.921   3.860
   91W        W72505  28.101   1.961  12.505
   92W        W72506  39.050   6.379   0.733
   93W        W72507   8.200   9.264  14.998
   94W        W72508  42.454   2.853  11.978
   95W        W72509  29.967  35.425   1.310
   96W        W72510  41.461  42.357  13.382
   97W        W72511  12.317  13.664   3.648
   98W        W72512  13.104  12.852  14.347
   99W        W72513  31.558  34.023  11.606
  100W        W72514  19.679  18.553   2.365
  101W        W72515  38.833  19.241  13.466
  102W        W72516   0.342   4.883  13.328
  103W        W72517  34.486   3.713  13.822
  104W        W72518  40.963  13.137  11.527
  105W        W72519  34.427  19.720  14.342
  106W        W72520   1.333  29.128  13.969
  107W        W72521   8.694  11.225   2.686
  108W        W72522  28.143  22.035   3.320
  109W        W72523  24.071   1.770   2.348
  110W        W72524  43.925  32.587  14.982
  111W        W72525   8.354  33.497   4.117
  112W        W72526   6.776  11.217   3.864
  113W        W72527  32.934  10.153   1.900
  114W        W72528   5.788   6.353   2.669
  115W        W72529  22.554  13.752   0.736
  116W        W72530   9.359  42.836   5.104
  117W        W72531  34.917  24.594   9.952
  118W        W72532   8.832  31.613   4.256
  119W        W72533  20.203  43.794  14.326
  120W        W72534  44.403  20.694  12.038
  121W        W72535  20.604  23.230  12.965
  122W        W72536  23.029   5.287   4.348
  123W        W72537  36.921  34.541  12.350
  124W        W72538  31.075   4.839   4.269
  125W        W72539   9.850  20.761   3.151
  126W        W72540  21.256  20.574   4.339
  127W        W72541  10.372  43.953   3.149
  128W        W72542  28.115  29.667  14.972
  129W        W72543  23.608  14.736   4.630
  130W        W72544  35.874   0.957   1.367
  131W        W72545  39.969   2.952   0.785
  132W        W72546  20.745  13.174   2.277
  133W        W72547  36.547   1.340  11.906
  134W        W72548  39.996  17.103   1.243
  135W        W72549  14.130  42.426   4.294
  136W        W72550  31.487  20.750   0.839
  137W        W72551   9.764   0.315   0.957
  138W        W72552   6.214  10.682  13.940
  139W        W72553   5.831   8.804   0.814
  140W        W72554  39.531   6.349  13.895
  141W        W72555  11.191   2.871   0.346
  142W        W72556  41.034   9.208  14.992
  143W        W72557  24.994  39.829  12.437
  144W        W72558   0.753  37.575  14.886
  145W        W72559  19.623  16.265   0.317
  146W        W72560  42.955  28.652   2.891
  147W        W72561  23.558  18.288   0.896
  148W        W72562  18.682  23.575  14.512
  149W        W72563  35.574  16.300  13.892
  150W        W72564  43.944   5.834  12.874
  151W        W72565  20.206   4.849  12.043
  152W        W72566  17.130  20.176  10.081
  153W        W72567  35.365  12.155   1.767
  154W        W72568  42.832  38.828   2.757
  155W        W72569  20.170   7.300  10.090
  156W        W72570   5.786   1.275  12.914
  157W        W72571  33.401  17.128   3.807
  158W        W72572  32.548  16.072   3.172
  159W        W72573  31.074  27.017  14.893
  160W        W72574   4.779  30.557   5.082
  161W        W72575  23.086  11.630   3.336
  162W        W72576  15.767  11.208   3.198
  163W        W72577  30.991  22.576  10.915
  164W        W72578   6.375  37.866  10.494
  165W        W72579  22.711   9.774  12.530
  166W        W72580  15.628  13.107   4.830
  167W        W72581  44.358  44.287   2.274
  168W        W72582   7.412  36.557   1.743
  169W        W72583  17.649  19.731  14.838
  170W        W72584  38.385  41.873  13.906
  171W        W72585  11.354  14.696   4.747
  172W        W72586  35.003   1.265  11.009
  173W        W72587  25.096  41.936  14.837
  174W        W72588  21.176  23.112  14.828
  175W        W72589  21.717  27.109   3.689
  176W        W72590  16.644   5.758  14.874
  177W        W72591  34.456   8.399   0.383
  178W        W72592   0.250  34.393  12.368
  179W        W72593  19.222  26.068   2.886
  180W        W72594   4.852  34.901  12.029
  181W        W72595   7.296  14.228   0.402
  182W        W72596   5.338  42.793   1.450
  183W        W72597   8.852  21.128   3.168
  184W        W72598  24.993  21.610   4.598
  185W        W72599  23.588  32.945   3.152
  186W        W72600  24.552  41.339  13.992
  187W        W72601  32.405  43.414  13.936
  188W        W72602  30.996  32.080  11.103
  189W        W72603  30.933  16.682  10.584
  190W        W72604  20.067  10.230   3.700
  191W        W72605  17.222  13.719  11.470
  192W        W72606  40.019   0.269   1.227
  193W        W72607  42.935  28.178   0.316
  194W        W72608  36.573  36.510  14.955
  195W        W72609  38.007  32.913  13.829
  196W        W72610   3.455  42.506  14.006
  197W        W72611  40.880  36.562  10.513
  198W        W72612   9.210  22.596  12.415
  199W        W72613  35.883   5.251  10.630
  200W        W72614  42.858  23.021  13.927
  201W        W72615  42.894  44.900   4.339
  202W        W72616  16.106  26.631   1.870
  203W        W72617  16.775   9.190  12.084
  204W        W72618   4.345  22.160  14.948
  205W        W72619  16.299  15.303   2.214
  206W        W72620   1.791  40.913   4.345
  207W        W72621  32.956   7.409   1.253
  208W        W72622  11.834  28.665   1.254
  209W        W72623  36.478   8.784  13.399
  210W        W72624  12.126  24.508   1.414
  211W        W72625  10.354   4.322  13.873
  212W        W72626  25.046  11.699   1.332
  213W        W72627  19.551   3.387  12.572
  214W        W72628  28.435  31.097   4.703
  215W        W72629  16.813  15.711   2.809
  216W        W72630   0.827  31.930   3.681
  217W        W72631   7.782   9.176   4.694
  218W        W72632  23.165   9.228   0.864
  219W        W72633  26.118  27.957  11.065
  220W        W72634  38.463  35.855  10.556
  221W        W72635  25.483  27.160   4.692
  222W        W72636   6.300  19.681   4.117
  223W        W72637  20.676  26.686  12.989
  224W        W72638  16.213  36.029   2.236
  225W        W72639  42.802   2.965  14.371
  226W        W72640  15.579  36.540   0.856
  227W        W72641  27.969  43.493  14.916
  228W        W72642  34.397  38.349   4.211
  229W        W72643   5.407   8.175   2.202
  230W        W72644   6.183  14.297   0.844
  231W        W72645  39.862   6.700   1.736
  232W        W72646  29.114  39.503   4.224
  233W        W72647   0.918  43.791  10.979
  234W        W72648   8.276  25.603  10.521
  235W        W72649  32.405   2.444  11.581
  236W        W72650  34.596  28.578   0.299
  237W        W72651  39.065  42.341   5.299
  238W        W72652  25.587   9.846  12.356
  239W        W72653  28.150  38.925  13.919
  240W        W72654  39.545  16.710   0.957
  241W        W72655  36.496  25.040   4.226
  242W        W72656   3.787  14.205  14.770
  243W        W72657   8.783  32.142   3.294
  244W        W72658   7.717  41.954  14.358
  245W        W72659  18.730  24.006  14.366
  246W        W72660  35.587  41.419  11.105
  247W        W72661  42.341  15.239  10.628
  248W        W72662  42.005  16.666  12.442
  249W        W72663  43.824   6.427  12.530
  250W        W72664   8.658  26.524   4.689
  251W        W72665   2.823  42.283   5.690
  252W        W72666   8.773  42.981   3.742
  253W        W72667  18.278  30.638   2.843
  254W        W72668  18.261  11.860  11.611
  255W        W72669  35.377  25.064  12.990
  256W        W72670  25.078  18.231  12.994
  257W        W72671  18.544  29.008  10.617
  258W        W72672  31.022  35.995  12.537
  259W        W72673  36.870  11.667  14.939
  260W        W72674   9.735  40.851   2.813
  261W        W72675  39.400  33.018   3.796
  262W        W72676  27.957  25.665  11.067
  263W        W72677   2.378  15.253   1.715
  264W        W72678  39.951  22.651  13.468
  265W        W72679  35.877  18.104  12.484
  266W        W72680  31.632   4.343   3.869
  267W        W72681  13.708   8.665  14.811
  268W        W72682  12.313   9.347   1.221
  269W        W72683  38.045  20.647  14.819
  270W        W72684  23.668  19.595  14.477
  271W        W72685   1.462  11.689  10.543
  272W        W72686   8.319  27.477  12.893
  273W        W72687  32.533  28.012  12.988
  274W        W72688  33.489  31.980  14.004
  275W        W72689  37.909   9.781  11.939
  276W        W72690   8.796  26.532   2.184
  277W        W72691  29.471   4.438   0.289
  278W        W72692  13.632   7.750  13.908
  279W        W72693  11.807  36.499  12.341
  280W        W72694  35.476  24.580  14.300
  281W        W72695  18.243   0.947  11.087
  282W        W72696  43.774  34.377  13.863
  283W        W72697   0.336  34.989  11.512
  284W        W72698  37.988   2.827   0.796
  285W        W72699  14.690  22.113   4.181
  286W        W72700   0.886  41.862  14.353
  287W        W72701  18.131  17.257  14.464
  288W        W72702  24.100  12.701   3.825
  289W        W72703   6.721   5.324  12.078
  290W        W72704   4.326  41.007   4.118
  291W        W72705   4.941  19.076  10.462
  292W        W72706   0.949  36.910  13.307
  293W        W72707  15.788   4.764  13.927
  294W        W72708  22.073   7.793  11.549
  295W        W72709  18.611   5.787   4.276
  296W        W72710  34.055   2.865   4.220
  297W        W72711  10.317  13.187   5.268
  298W        W72712  41.533  20.619  14.924
  299W        W72713  15.701   2.839   1.830
  300W        W72714   1.371  31.554   4.659
  301W        W72715  12.856  38.361   2.263
  302W        W72716  20.740  23.506   2.277
  303W        W72717  35.986   8.330  10.887
  304W        W72718  10.827  13.274   0.755
  305W        W72719   9.192  36.507  13.806
  306W        W72720  28.592  38.424   3.685
  307W        W72721  40.445  24.175   1.833
  308W        W72722  33.911   3.398   1.699
  309W        W72723  44.001  12.343  14.282
  310W        W72724  23.666  28.610   3.259
  311W        W72725  14.611  38.357  10.554
  312W        W72726  18.114  31.062  13.485
  313W        W72727  11.342  19.601   1.211
  314W        W72728  38.532  32.959  10.896
  315W        W72729  15.636  11.834  14.394
  316W        W72730  12.733  32.624  12.854
  317W        W72731  34.417   0.748   0.813
  318W        W72732  41.406  13.329  13.532
  319W        W72733  19.634  37.541   3.151
  320W        W72734  12.275  34.591  11.536
  321W        W72735  21.251  16.597  11.606
  322W        W72736  25.614  42.826  10.038
  323W        W72737  13.117  23.590  14.336
  324W        W72738  25.018  41.022  14.969
  325W        W72739  37.527  22.744   3.790
  326W        W72740   0.447  32.091   4.130
  327W        W72741  17.148  20.737   4.657
  328W        W72742  37.069  33.440   4.321
  329W        W72743   3.722   3.420   2.703
  330W        W72744  29.613   1.757  10.959
  331W        W72745  30.123   8.306   0.784
  332W        W72746  27.071  34.116   1.426
  333W        W72747   9.302  34.422  12.932
  334W        W72748  30.060  44.382  11.101
  335W        W72749   7.388  19.650   3.373
  336W        W72750  18.273  10.785   4.302
  337W        W72751  20.200   7.823   3.194
  338W        W72752   8.264   2.885   1.737
  339W        W72753   5.740  21.585  12.562
  340W        W72754   7.734  23.723   0.261
  341W        W72755  34.017   4.893   3.207
  342W        W72756  20.232  25.479   4.223
  343W        W72757  33.495  18.296  12.067
  344W        W72758  25.167   1.390   4.283
  345W        W72759   0.392   1.977  10.890
  346W        W72760  19.080  23.175   0.333
  347W        W72761  10.670  35.455  13.467
  348W        W72762  10.324  16.182  13.827
  349W        W72763   0.902  33.596   5.253
  350W        W72764  37.479   5.230   3.868
  351W        W72765  42.817  42.002   1.255
  352W        W72766   7.870  17.604   3.282
  353W        W72767  11.352   6.182   3.330
  354W        W72768  25.683   6.189  11.986
  355W        W72769  16.281  36.067  10.449
  356W        W72770   1.281   0.780  14.463
  357W        W72771  29.060  15.700   4.791
  358W        W72772  43.291  16.703  11.969
  359W        W72773   8.210  16.198  13.031
  360W        W72774  23.610  30.155   1.908
  361W        W72775  44.471  22.192  14.396
  362W        W72776  26.514  34.589  10.511
  363W        W72777  29.648   8.165   0.345
  364W        W72778  33.944  35.017  13.947
  365W        W72779   9.190  26.137   2.311
  366W        W72780  40.884  25.990  12.350
  367W        W72781  44.981  40.360   0.330
  368W        W72782  23.671   5.728  11.977
  369W        W72783  19.616  29.157  11.929
  370W        W72784  44.343  13.750   4.625
  371W        W72785  27.129  27.975  13.820
  372W        W72786   9.356   5.331  12.844
  373W        W72787  30.966  12.245  13.957
  374W        W72788  29.616  30.933  11.882
  375W        W72789  34.482   5.359  13.848
  376W        W72790  32.428  44.294   3.184
  377W        W72791  44.913   2.432   3.828
  378W        W72792  36.401   7.211  14.843
  379W        W72793  12.180  23.086   3.249
  380W        W72794  40.526   6.846   1.314
  381W        W72795  18.573  31.092  13.059
  382W        W72796  21.238  11.794   1.929
  383W        W72797  39.336   9.175  13.957
  384W        W72798  40.533  24.224   3.293
  385W        W72799  32.038   0.379  12.967
  386W        W72800  18.126   6.775   2.288
  387W        W72801  36.046  32.945  12.965
  388W        W72802  35.073  30.137   3.810
  389W        W72803  37.895  11.364  14.406
  390W        W72804  18.087  12.669   4.304
  391W        W72805   8.846  21.225   5.321
  392W        W72806  39.335  18.198  12.864
  393W        W72807  21.655  17.216  14.984
  394W        W72808  36.017  20.127  10.549
  395W        W72809  10.802   6.846   2.743
  396W        W72810  21.676  19.204   2.187
  397W        W72811  42.929  15.185  11.082
  398W        W72812   8.325  26.114  11.503
  399W        W72813  16.088  14.130  13.812
  400W        W72814  10.768  24.020   4.195
  401W        W72815  29.651   8.211  12.956
  402W        W72816  12.192  18.617  13.511
  403W        W72817  30.907   9.835  11.552
  404W        W72818  39.554  29.551  12.485
  405W        W72819  20.697  39.523  10.927
  406W        W72820  21.572  42.334  13.952
  407W        W72821  28.467  10.161  13.388
  408W        W72822   4.206  10.674  13.815
  409W        W72823  26.468  17.579  12.422
  410W        W72824  26.183   5.242   4.778
  411W        W72825  20.193  23.103   3.295
  412W        W72826   7.694  23.685   5.307
  413W        W72827  26.138  34.925   1.867
  414W        W72828  19.144  16.187  14.837
  415W        W72829  22.150  10.207   0.359
  416W        W72830  43.856  18.275   3.324
  417W        W72831   0.763  41.940  12.825
  418W        W72832  29.922  41.915   4.327
  419W        W72833   3.711  23.597  10.054
  420W        W72834  11.673   5.298   3.244
  421W        W72835  15.641  44.982   2.296
  422W        W72836  39.916  12.814   0.939
  423W        W72837   7.247   0.465  13.529
  424W        W72838  18.075  37.908   0.799
  425W        W72839  17.575  24.634  10.620
  426W        W72840  35.506  15.205  12.859
  427W        W72841  24.062  38.905   2.758
  428W        W72842  20.653  14.123  14.444
  429W        W72843  18.752  13.681  14.339
  430W        W72844  24.691   6.182  12.075
  431W        W72845   0.264   6.191  13.962
  432W        W72846  44.777  27.966  10.953
  433W        W72847  41.523  20.257   2.353
  434W        W72848  38.523   4.285  12.475
  435W        W72849   1.343  17.561   0.473
  436W        W72850  43.943  27.544  12.044
  437W        W72851  13.653   1.388   3.723
  438W        W72852  18.101  33.082   0.397
  439W        W72853   0.948  10.382  10.091
  440W        W72854   5.778  11.270   2.817
  441W        W72855   2.784   6.240  11.060
  442W        W72856  10.332   7.310  12.070
  443W        W72857  15.267  18.217   0.301
  444W        W72858  20.247   5.878  12.533
  445W        W72859  24.550  19.232  12.999
  446W        W72860   3.798  18.742   2.227
  447W        W72861  20.710  38.519   2.412
  448W        W72862  12.356  21.206  12.424
  449W        W72863   3.238  29.531   2.673
  450W        W72864   5.795  29.487  13.939
  451W        W72865  35.004  31.953  10.069
  452W        W72866  43.344   5.243  12.959
  453W        W72867  33.047   1.423  14.343
  454W        W72868  25.987   9.756   0.940
  455W        W72869   9.711  34.528   3.650
  456W        W72870  15.178   5.207  14.301
  457W        W72871  38.924   5.241   2.749
  458W        W72872  19.698  21.601  11.873
  459W        W72873  22.060  36.076  11.105
  460W        W72874  38.443  11.322  11.437
  461W        W72875  19.147   3.338   0.290
  462W        W72876  23.718   1.890  14.457
  463W        W72877  36.443   4.907   5.147
  464W        W72878   8.704  22.517   3.242
  465W        W72879   4.855  15.719   4.221
  466W        W72880   3.802  11.349  10.503
  467W        W72881  22.042   4.847   0.768
  468W        W72882  41.348   8.725  10.456
  469W        W72883   7.773  16.721  11.584
  470W        W72884   7.772  25.040   2.316
  471W        W72885   9.182  20.544   4.810
  472W        W72886  17.150  40.963  11.127
  473W        W72887  40.922  37.864  14.446
  474W        W72888  25.471   8.863  12.917
  475W        W72889  44.450  18.692   1.358
  476W        W72890  30.649   6.370  10.406
  477W        W72891  12.136  36.405  12.993
  478W        W72892  41.330  16.299   3.712
  479W        W72893  10.267  20.144   2.778
  480W        W72894  44.970  34.374   1.361
  481W        W72895  43.438  33.486   2.702
  482W        W72896   9.749  13.763   1.305
  483W        W72897  23.122   0.881  14.002
  484W        W72898  30.419  40.984  13.007
  485W        W72899  25.963  42.933  10.584
  486W        W72900  14.711  12.774  12.398
  487W        W72901   2.284  32.426   4.194
  488W        W72902  19.250  13.235   1.802
  489W        W72903  31.582  19.644   3.681
  490W        W72904  25.659  22.119  14.977
  491W        W72905   0.398  43.004   1.267
  492W        W72906  30.139  23.581  10.967
  493W        W72907   9.354  30.641  11.994
  494W        W72908  44.882  13.826  11.947
  495W        W72909   8.315   1.411  12.520
  496W        W72910  42.374   5.757  10.588
  497W        W72911  22.572  19.555   5.083
  498W        W72912  28.154  31.921  14.450
  499W        W72913  10.295  21.235   1.310
  500W        W72914  17.761  20.028   4.692
  501W        W72915  21.166   9.227  13.853
  502W        W72916  27.593  36.085   3.698
  503W        W72917  19.634   8.274   0.470
  504W        W72918  24.991  15.241   2.279
  505W        W72919   1.921   4.775  11.077
  506W        W72920  14.757  21.656   3.211
  507W        W72921  18.137  17.270   4.658
  508W        W72922  31.438  21.134   2.288
  509W        W72923  23.169  35.100  11.873
  510W        W72924  32.993   1.263   1.818
  511W        W72925  21.026  24.061  11.960
  512W        W72926  16.637  24.178  10.519
  513W        W72927  40.533  16.181  10.599
  514W        W72928  17.268   8.282   4.689
  515W        W72929  11.215  14.699   2.386
  516W        W72930  33.462   9.864  14.492
  517W        W72931  35.384  11.219  14.360
  518W        W72932   3.897   8.724   0.427
  519W        W72933   0.259  28.456  13.048
  520W        W72934  34.449  16.719   3.306
  521W        W72935  44.911  33.520  13.019
  522W        W72936  23.153   4.849  10.092
  523W        W72937  11.721  23.573   4.682
  524W        W72938  15.261  16.679   0.852
  525W        W72939   3.310  40.864  11.974
  526W        W72940   4.254  43.358  14.770
  527W        W72941  10.264   1.434  14.370
  528W        W72942  17.121  33.518  10.526
  529W        W72943  33.507   9.837  14.994
  530W        W72944  32.903   4.839   2.375
  531W        W72945  44.009  31.025   3.700
  532W        W72946  31.942  27.175   2.281
  533W        W72947   6.312  20.621   4.642
  534W        W72948  10.825  42.937   3.269
  535W        W72949  29.140  38.376  10.582
  536W        W72950  41.915   0.432   1.836
  537W        W72951  32.894  36.949   4.242
  538W        W72952  25.120  29.918  13.806
  539W        W72953  32.955  23.535   4.119
  540W        W72954  21.610  16.140   2.763
  541W        W72955  44.983   4.434  12.508
  542W        W72956  30.478  28.032  13.939
  543W        W72957  24.064  32.514  11.978
  544W        W72958   3.433   7.296  14.781
  545W        W72959  19.739   8.873   2.857
  546W        W72960  26.016  20.053  10.467
  547W        W72961  34.510  20.038  14.929
  548W        W72962  43.771  22.666  13.428
  549W        W72963   4.803   4.943   0.901
  550W        W72964  37.992  33.381   4.186
  551W        W72965  41.923  17.202  14.949
  552W        W72966   4.900   7.399  12.001
  553W        W72967  14.810  10.172  12.010
  554W        W72968  41.411  39.820  13.361
  555W        W72969  43.926  10.190  10.470
  556W        W72970  10.686  44.908  13.514
  557W        W72971  11.259   1.324  10.511
  558W        W72972  25.534   5.706   2.817
  559W        W72973  14.692   9.855  11.862
  560W        W72974   7.742  36.890  12.418
  561W        W72975  10.249  27.525  14.829
  562W        W72976  37.410  36.986  13.813
  563W        W72977  22.146  34.384  11.473
  564W        W72978  12.784   3.933  13.822
  565W        W72979  16.734   6.215   1.906
  566W        W72980  21.254   5.876   0.403
  567W        W72981  32.495  41.847   4.786
  568W        W72982  12.624   6.690  12.992
  569W        W72983  40.329  19.226   3.386
  570W        W72984  25.183  26.979  12.090
  571W        W72985   5.404  26.497  10.061
  572W        W72986  18.553  26.523  13.985
  573W        W72987  42.337  33.598   2.856
  574W        W72988  12.836  33.584  13.885
  575W        W72989  43.901  21.608   0.480
  576W        W72990  44.756  34.520  13.398
  577W        W72991  28.576   9.814   0.368
  578W        W72992  22.720  38.909  13.442
  579W        W72993  30.948   3.223  12.375
  580W        W72994  29.563  20.600   4.753
  581W        W72995  43.879   4.790   2.246
  582W        W72996  26.010  14.800   4.327
  583W        W72997  32.937  35.854   2.778
  584W        W72998  17.267  17.612   1.833
  585W        W72999  24.527  40.820   4.711
  586W        W73000  23.042  17.669  12.390
  587W        W73001   5.825   0.265   2.327
  588W        W73002  28.511  32.126   4.189
  589W        W73003   8.225   1.293   0.843
  590W        W73004  30.642  39.926  14.858
  591W        W73005  22.173   4.726   1.902
  592W        W73006  35.434  10.140  10.616
  593W        W73007  42.281   4.817  14.882
  594W        W73008  40.808  26.616   2.182
  595W        W73009  37.452   8.178   3.813
  596W        W73010  27.687  23.507  14.445
  597W        W73011  17.204  37.525   5.255
  598W        W73012  29.112  33.887   4.202
  599W        W73013   3.359  35.952   3.334
  600W        W73014   3.387  36.891  10.547
  601W        W73015  35.394  34.379   5.178
  602W        W73016  27.577  28.970   4.775
  603W        W73017  19.175  39.545  11.998
  604W        W73018  33.065  44.283   2.308
  605W        W73019  26.482  32.467   1.931
  606W        W73020  15.174  34.592  14.856
  607W        W73021  38.042  10.248  11.076
  608W        W73022  27.152  31.120  11.566
  609W        W73023  44.316  24.698  10.598
  610W        W73024  30.139  32.468   2.892
  611W        W73025  31.573  24.608   3.193
  612W        W73026  28.963  37.084   2.277
  613W        W73027  25.549  33.024  12.915
  614W        W73028  25.505  42.024  14.011
  615W        W73029  28.991  31.406   0.267
  616W        W73030   6.205  10.663   0.788
  617W        W73031  21.678  38.368   3.149
  618W        W73032  32.065   4.923   0.460
  619W        W73033   0.982  21.519  10.419
  620W        W73034  28.606  17.079   1.418
  621W        W73035  16.142  26.696  12.565
  622W        W73036  15.777  22.067   2.300
  623W        W73037  34.073   0.460  10.629
  624W        W73038  25.541  38.879  10.570
  625W        W73039  13.831  21.146   4.158
  626W        W73040  43.918  28.136   2.666
  627W        W73041  12.259   7.395   0.756
  628W        W73042  16.082  41.030   1.378
  629W        W73043   2.265  42.481   3.753
  630W        W73044  36.434  29.554  12.828
  631W        W73045  22.517  19.055   3.206
  632W        W73046  18.693   1.845  13.870
  633W        W73047  33.974  32.497  12.828
  634W        W73048  11.860  15.277   0.949
  635W        W73049   9.193   8.723  11.414
  636W        W73050  23.613  13.782   1.396
  637W        W73051   7.215  31.140   2.848
  638W        W73052  41.810  31.550  13.467
  639W        W73053  35.460  31.094   1.298
  640W        W73054  19.237  28.034   1.816
  641W        W73055  34.006  35.396  14.486
  642W        W73056  43.973  37.572   4.127
  643W        W73057  34.901  17.237   4.695
  644W        W73058  17.558  31.015   3.841
  645W        W73059   8.389  41.862  13.389
  646W        W73060  44.404  32.487   1.782
  647W        W73061  23.035  16.202   5.596
  648W        W73062  40.968   4.305   1.269
  649W        W73063  15.190  10.724   1.367
  650W        W73064  27.480  27.080  11.029
  651W        W73065  38.386  30.034   1.912
  652W        W73066  44.008  44.419  10.486
  653W        W73067   3.880  24.036  13.326
  654W        W73068  20.600  17.715  11.870
  655W        W73069  10.679  24.695   2.888
  656W        W73070   9.248  16.774  14.990
  657W        W73071  10.776  24.713  10.962
  658W        W73072  29.929  36.546   3.160
  659W        W73073  43.312  15.281   4.222
  660W        W73074  35.400   5.713  11.465
  661W        W73075   3.405  24.656   1.843
  662W        W73076  38.939  16.073  11.424
  663W        W73077  34.033  12.616   0.870
  664W        W73078  24.481  42.858   4.243
  665W        W73079  24.566  34.505   0.290
  666W        W73080  20.158  42.013  10.460
  667W        W73081   5.286  34.604  11.125
  668W        W73082  29.640  12.254   2.203
  669W        W73083  44.965  12.696  14.960
  670W        W73084  24.489  40.829  12.495
  671W        W73085  15.700  17.287  12.360
  672W        W73086  35.570  32.391  14.946
  673W        W73087  19.700   7.366  13.539
  674W        W73088   6.233   0.335  10.419
  675W        W73089  42.878  43.360   2.766
  676W        W73090  30.570   7.236  14.967
  677W        W73091   9.678   0.967   4.163
  678W        W73092   3.766  27.451   0.931
  679W        W73093  31.904   1.865  11.054
  680W        W73094   1.771  25.707  14.463
  681W        W73095   3.376  16.673   1.263
  682W        W73096  24.134  29.504   3.162
  683W        W73097  31.914  12.335   4.241
  684W        W73098   8.278   1.844   1.742
  685W        W73099  40.535  43.939   0.944
  686W        W73100   2.791  14.686   2.234
  687W        W73101  38.051   8.405  10.927
  688W        W73102  10.731  40.885  12.556
  689W        W73103  17.749  43.996  10.965
  690W        W73104  23.017  29.938  12.866
  691W        W73105  35.426  13.109  11.923
  692W        W73106   8.320  13.207  13.840
  693W        W73107  20.746  24.099  12.430
  694W        W73108   3.222  11.232   4.163
  695W        W73109  44.286  35.404  10.905
  696W        W73110  26.990  23.565  12.977
  697W        W73111  18.101  44.766   3.703
  698W        W73112  17.085  43.863   3.305
  699W        W73113  13.766  14.302   3.241
  700W        W73114  44.869  33.006  12.842
  701W        W73115  16.246   6.733   0.794
  702W        W73116  14.787  29.025   1.808
  703W        W73117   0.252   6.293   2.870
  704W        W73118  20.750  40.811  11.588
  705W        W73119  13.764  33.937   2.398
  706W        W73120  19.742  41.787  12.370
  707W        W73121   4.267  10.368   4.816
  708W        W73122  40.857  11.153   2.810
  709W        W73123  11.644   9.754  10.992
  710W        W73124  18.094  32.631   3.150
  711W        W73125  12.354   6.380   1.235
  712W        W73126  40.876  39.962   1.247
  713W        W73127  35.026  17.699   2.354
  714W        W73128  19.637  27.656   4.222
  715W        W73129  15.173  42.797  10.587
  716W        W73130  40.357   5.870  13.874
  717W        W73131   5.222  40.851   2.841
  718W        W73132  28.549  22.088   4.290
  719W        W73133  30.545   6.290  12.380
  720W        W73134  13.625  25.533   0.796
  721W        W73135  14.805  36.930  13.442
  722W        W73136  21.713  31.954  12.026
  723W        W73137   6.186  38.028  14.468
  724W        W73138   6.692  16.228   0.935
  725W        W73139  29.549  32.546   4.657
  726W        W73140   7.818  27.527  13.009
  727W        W73141  25.195  17.658  11.040
  728W        W73142  29.540  27.120   2.701
  729W        W73143  41.859  11.725   4.201
  730W        W73144  35.048   6.815   4.688
  731W        W73145  30.485  28.635   4.254
  732W        W73146   4.849  18.664  10.957
  733W        W73147  32.431  24.995  11.009
  734W        W73148   5.836  16.264  10.453
  735W        W73149  15.755  35.391  13.467
  736W        W73150  33.096  39.322   4.292
  737W        W73151  32.415   7.844  10.433
  738W        W73152  44.375  39.325   1.723
  739W        W73153  11.803  27.002   1.929
  740W        W73154  31.642   9.263   4.812
  741W        W73155   9.228   7.682  12.424
  742W        W73156  16.632  11.628  14.855
  743W        W73157  24.141  12.205  10.591
  744W        W73158  39.896  41.431  12.894
  745W        W73159  20.195  18.551  14.484
  746W        W73160  15.248  25.516  13.836
  747W        W73161   7.711  35.390   1.388
  748W        W73162  25.495  41.456  11.491
  749W        W73163  34.916  28.137  10.489
  750W        W73164  20.122   0.989   4.246
  751W        W73165  37.944  30.915   1.848
  752W        W73166  39.363   2.309   2.901
  753W        W73167  12.135  30.072  10.508
  754W        W73168  32.932  10.241   4.157
  755W        W73169  21.581  35.438   4.783
  756W        W73170  33.602  35.063   2.828
  757W        W73171  12.775  44.764   0.465
  758W        W73172   2.382  12.231   4.217
  759W        W73173  19.102   8.749   0.459
  760W        W73174  12.746  43.905  11.102
  761W        W73175  17.294  16.731  13.985
  762W        W73176   2.315  20.585   3.220
  763W        W73177   5.363   2.461  12.896
  764W        W73178  27.045  36.500  13.442
  765W        W73179  15.256  15.315   0.430
  766W        W73180   2.382   1.829   1.270
  767W        W73181   7.409  38.416   4.246
  768W        W73182  37.944  22.135  14.030
  769W        W73183  15.160  41.400  11.470
  770W        W73184  39.928  19.067   1.848
  771W        W73185   6.218  16.295  14.937
  772W        W73186  35.972  43.936  12.499
  773W        W73187   4.211   5.778  10.935
  774W        W73188  21.667  35.504   0.348
  775W        W73189   9.770  32.998  13.537
  776W        W73190  11.360  37.464  13.309
  777W        W73191  18.094  13.143   3.744
  778W        W73192  18.557  42.415  13.927
  779W        W73193  20.756   6.744  10.556
  780W        W73194  20.641  20.556  13.917
  781W        W73195  41.953   8.395   1.750
  782W        W73196  37.007  27.672   4.142
  783W        W73197  44.813  11.727   4.343
  784W        W73198  17.647  16.671   2.268
  785W        W73199  44.992  40.878  14.997
  786W        W73200  15.238  36.513   2.294
  787W        W73201  26.459  41.449   2.365
  788W        W73202  36.875  26.987  10.510
  789W        W73203  40.491  11.193  12.086
  790W        W73204   6.806  11.181  14.461
  791W        W73205  44.783  23.528  12.482
  792W        W73206  33.928  33.891   3.148
  793W        W73207  19.218   0.432  13.950
  794W        W73208  20.046   6.876  13.937
  795W        W73209   5.728  27.025   0.809
  796W        W73210  12.194  13.796   2.718
  797W        W73211   7.289  39.404   2.707
  798W        W73212  37.961  44.009  11.963
  799W        W73213  26.128  15.306  13.487
  800W        W73214  43.898   0.418  13.901
  801W        W73215  31.118  31.976  14.937
  802W        W73216  28.639  13.310  13.993
  803W        W73217  40.959  25.593   1.812
  804W        W73218  12.715  40.868  11.521
  805W        W73219   3.226   3.446   1.926
  806W        W73220  26.955  23.168  13.386
  807W        W73221   6.796  14.602  12.456
  808W        W73222  15.723  21.635   1.325
  809W        W73223  25.491  41.864   2.397
  810W        W73224  21.131  34.977  14.771
  811W        W73225  21.548  29.996   4.675
  812W        W73226  24.157  38.049  11.905
  813W        W73227   1.358  27.639  11.454
  814W        W73228  40.548  24.169  11.930
  815W        W73229  22.709   5.216  10.603
  816W        W73230  21.244  30.935  10.514
  817W        W73231  22.710  31.127  11.095
  818W        W73232  23.607  19.101   4.735
  819W        W73233  17.625   1.317   0.887
  820W        W73234  26.105  23.620   1.859
  821W        W73235  13.162  13.760   0.341
  822W        W73236  35.084  38.537   1.302
  823W        W73237  33.063  18.789   3.635
  824W        W73238   1.821  43.497  10.483
  825W        W73239  44.761   0.950  10.036
  826W        W73240  28.458  34.990   2.192
  827W        W73241  32.577  41.425  14.468
  828W        W73242  43.311   1.959  14.445
  829W        W73243  43.810   6.786  12.874
  830W        W73244  21.661  44.872   0.362
  831W        W73245  29.612  28.060   3.865
  832W        W73246  34.930  35.419   2.278
  833W        W73247  20.668  38.011  14.305
  834W        W73248  44.265  27.625   0.404
  835W        W73249  15.690  30.012  14.484
  836W        W73250  44.853  19.770   3.150
  837W        W73251   4.773  27.190   1.260
  838W        W73252  11.756   9.301  10.994
  839W        W73253  41.372   7.345  11.125
  840W        W73254  42.284  42.940  11.883
  841W        W73255  12.820  38.000  13.523
  842W        W73256  11.843  43.406  12.450
  843W        W73257   4.371  18.565   3.693
  844W        W73258  18.712  43.420  10.538
  845W        W73259   1.791  26.075  10.076
  846W        W73260  16.080  23.044   3.150
  847W        W73261  17.726  43.480  10.497
  848W        W73262  10.758   6.875   0.389
  849W        W73263  18.567  18.206   3.641
  850W        W73264  34.982  20.089   1.276
  851W        W73265  40.974  29.067  11.604
  852W        W73266  42.363   1.770   0.289
  853W        W73267  10.853  42.014   0.419
  854W        W73268  19.101   0.913  12.964
  855W        W73269  21.555   5.837  12.056
  856W        W73270  39.318  24.117   1.780
  857W        W73271  10.294  18.281   9.971
  858W        W73272  16.243  38.524   2.674
  859W        W73273  38.329  12.634   2.328
  860W        W73274  28.134   4.355  10.541
  861W        W73275  44.421  10.326   4.195
  862W        W73276  18.196   4.356  13.927
  863W        W73277  24.024  35.542  10.905
  864W        W73278   9.271   5.784  12.985
  865W        W73279   9.858   3.286  11.452
  866W        W73280  24.703  30.952   1.332
  867W        W73281   2.757   2.306   3.215
  868W        W73282   0.911  31.463   2.682
  869W        W73283   8.291  26.116  12.416
  870W        W73284  13.175  30.611  11.898
  871W        W73285   1.973  15.684   0.915
  872W        W73286  33.476  42.336   1.408
  873W        W73287  43.464  16.204  14.915
  874W        W73288  44.276  33.502  10.897
  875W        W73289   9.338  21.691  12.029
  876W        W73290  32.133  25.046   0.734
  877W        W73291  15.811  35.103  13.510
  878W        W73292  33.980  24.082   3.830
  879W        W73293  18.776  21.518   1.778
  880W        W73294  25.131  12.681  14.438
  881W        W73295  10.255   4.431   3.701
  882W        W73296  30.081  24.075   2.714
  883W        W73297  15.774  36.588   1.873
  884W        W73298  20.092  33.989   2.374
  885W        W73299  28.966  19.749  12.987
  886W        W73300  41.313  37.049  11.492
  887W        W73301  32.519  27.014   4.285
  888W        W73302  41.800  24.665  11.967
  889W        W73303  19.131  38.526   1.380
  890W        W73304  22.068  35.427  11.533
  891W        W73305  13.763  24.067  11.485
  892W        W73306  29.467  10.230  12.390
  893W        W73307  11.774  35.379   1.782
  894W        W73308   8.835  29.644  14.930
  895W        W73309  25.006  28.438   2.419
  896W        W73310  38.937  27.498  13.000
  897W        W73311   2.919   9.162   1.793
  898W        W73312   9.829  15.726  12.957
  899W        W73313  25.029  20.251  13.338
  900W        W73314  12.773  38.070  12.836
  901W        W73315  31.109  43.270  13.059
  902W        W73316  24.077  25.137  11.376
  903W        W73317  32.601  32.892  14.929
  904W        W73318   6.200  42.464  13.809
  905W        W73319  44.817  25.677   3.323
  906W        W73320  24.492  21.692  14.976
  907W        W73321  36.508  19.779  12.953
  908W        W73322  18.642  41.860  10.428
  909W        W73323  13.222   7.352   9.961
  910W        W73324  27.664  19.266  12.973
  911W        W73325  10.804   5.730  11.057
  912W        W73326  33.528  21.230   0.417
  913W        W73327  38.038  12.181  14.834
  914W        W73328  27.546  37.544  12.509
  915W        W73329  21.604  44.877  11.515
  916W        W73330  25.095   7.841  11.424
  917W        W73331  39.882  24.535  10.986
  918W        W73332  29.666  42.032  10.439
  919W        W73333  21.190  19.607   2.286
  920W        W73334  29.481  44.466  13.985
  921W        W73335  23.705  22.076   3.153
  922W        W73336  10.222  37.402  10.039
  923W        W73337   7.872  43.880  14.460
  924W        W73338  22.555   7.267  13.503
  925W        W73339  44.466   5.357   2.331
  926W        W73340  39.830  13.780  11.593
  927W        W73341  26.480   0.423   1.851
  928W        W73342  10.765  22.577  11.035
  929W        W73343  17.610  39.853  11.980
  930W        W73344   5.826  33.506  10.448
  931W        W73345   0.979  37.046   1.315
  932W        W73346  18.710  32.897  11.952
  933W        W73347  16.744  14.322   0.445
  934W        W73348  40.375  28.503  10.985
  935W        W73349  32.577   3.807   0.361
  936W        W73350  13.267  19.760  10.155
  937W        W73351   8.695  26.162  11.956
  938W        W73352  12.685  36.975  13.849
  939W        W73353  22.703   6.846  11.594
  940W        W73354   9.264  37.495  10.447
  941W        W73355  14.758  29.045   2.706
  942W        W73356   5.416  19.596   4.654
  943W        W73357   6.394  29.956  13.347
  944W        W73358  35.103  44.879   0.866
  945W        W73359  14.659  37.862   0.920
  946W        W73360  15.124  33.405   2.271
  947W        W73361  35.521  39.359  13.992
  948W        W73362  17.608   2.246   2.244
  949W        W73363   5.417   0.982  13.837
  950W        W73364   3.733  44.286   4.662
  951W        W73365  28.472  40.511  11.011
  952W        W73366  19.692  29.468   0.894
  953W        W73367   3.746  16.308   3.704
  954W        W73368  31.111  43.936  11.950
  955W        W73369  12.770  33.034  10.930
  956W        W73370  31.596   2.395  13.056
  957W        W73371  35.564  22.999   0.809
  958W        W73372  25.035   0.340  14.935
  959W        W73373  33.525  23.093   5.624
  960W        W73374  21.591  27.537  10.595
  961W        W73375  40.950  16.090   1.349
  962W        W73376  39.982  37.974   2.399
  963W        W73377  15.123  19.182  13.845
  964W        W73378  40.808   5.827   0.740
  965W        W73379  27.639  22.604  13.324
  966W        W73380  26.520  30.627  12.001
  967W        W73381  24.697  28.950   0.804
  968W        W73382  30.970   4.231  13.977
  969W        W73383  11.155  18.153   3.177
  970W        W73384  32.064  19.092   0.436
  971W        W73385  22.508   3.403  10.538
  972W        W73386  37.434  36.980   0.376
  973W        W73387  30.078  35.069  11.093
  974W        W73388  15.761   1.419   2.860
  975W        W73389  39.052  21.580   3.719
  976W        W73390  17.697   8.721   2.777
  977W        W73391  28.995   7.235   1.436
  978W        W73392   7.830  10.748   4.291
  979W        W73393  17.294  11.691  14.392
  980W        W73394  10.277  13.621  13.535
  981W        W73395  38.026  26.020  12.867
  982W        W73396  34.425  11.289  10.541
  983W        W73397  17.066  31.029  10.437
  984W        W73398   2.792  14.697   5.671
  985W        W73399  34.476   9.274   1.280
  986W        W73400   0.263  43.306   0.328
  987W        W73401  44.336  43.883   0.321
  988W        W73402   4.718  44.770  13.536
  989W        W73403  19.107   1.398  11.891
  990W        W73404  37.475  36.076   2.312
  991W        W73405  28.180   8.398  14.420
  992W        W73406   2.410   5.750  14.952
  993W        W73407  26.080  30.608   3.656
  994W        W73408   6.398  37.053   3.789
  995W        W73409  40.419  28.069   2.894
  996W        W73410  24.107  41.845   3.846
  997W        W73411  33.587   4.825   4.835
  998W        W73412  36.347  35.881   5.144
  999W        W73413  23.020   0.851   0.789
 1000W        W73414  35.967   3.848   4.198
 1001W        W73415   1.364  28.604  11.422
 1002W        W73416  44.975   4.348  13.329
 1003W        W73417  44.819  31.113  13.902
 1004W        W73418   4.802  24.212  10.515
 1005W        W73419  26.140  33.962  13.827
 1006W        W73420  38.413  41.422  14.841
 1007W        W73421  27.587  36.536   3.344
 1008W        W73422  12.830  22.188  11.950
 1009W        W73423  36.553  20.599  11.042
 1010W        W73424  33.015  18.589  13.831
 1011W        W73425  41.955  28.587  10.541
 1012W        W73426  21.595  34.008  14.805
 1013W        W73427  22.128  28.945  11.947
 1014W        W73428  12.723   7.763  14.498
 1015W        W73429  15.126  13.628   3.183
 1016W        W73430  19.057  40.537  13.952
 1017W        W73431  33.972  21.155  11.059
 1018W        W73432  43.276  14.107  10.539
 1019W        W73433  43.969  44.436   4.629
 1020W        W73434  40.524   6.205   4.736
 1021W        W73435  39.819  18.757   0.424
 1022W        W73436  12.321  29.653  14.282
 1023W        W73437  31.123  44.904   3.667
 1024W        W73438  36.044  20.191   3.869
 1025W        W73439  18.289  31.569   0.332
 1026W        W73440  16.595  23.190  13.856
 1027W        W73441   3.910  36.443   3.205
 1028W        W73442   5.218  12.305   0.889
 1029W        W73443  41.006   0.403  12.901
 1030W        W73444  12.249  22.572   0.416
 1031W        W73445  26.490  11.194  13.041
 1032W        W73446  15.667  21.542  13.410
 1033W        W73447  19.111  19.156   0.397
 1034W        W73448  32.898  28.182   3.161
 1035W        W73449  35.419  17.580   4.747
 1036W        W73450  12.822   0.875  13.494
 1037W        W73451  20.573  33.459   2.402
 1038W        W73452  21.676  37.915  14.464
 1039W        W73453  25.993  21.062  12.857
 1040W        W73454  32.136  44.383  10.577
 1041W        W73455  37.433   6.265   4.671
 1042W        W73456   7.886  15.591  10.148
 1043W        W73457  43.470   6.361   9.961
 1044W        W73458  38.434   3.331  11.514
 1045W        W73459  15.619  10.346   5.285
 1046W        W73460  30.002   8.315   3.198
 1047W        W73461  37.934  43.011  12.912
 1048W        W73462  13.346  24.218  13.366
 1049W        W73463  44.302  23.676  12.397
 1050W        W73464  42.838  43.771  12.511
 1051W        W73465  25.155  17.110   5.317
 1052W        W73466  18.260   7.191  12.380
 1053W        W73467  13.351  23.582   4.618
 1054W        W73468   1.257  13.723  13.042
 1055W        W73469  15.757  12.674   0.458
 1056W        W73470  11.167  20.602  12.045
 1057W        W73471   7.670  37.532  13.874
 1058W        W73472   3.841  40.952   1.389
 1059W        W73473   1.331   0.900   3.798
 1060W        W73474  30.132  21.574  14.958
 1061W        W73475  44.374   4.328  13.926
 1062W        W73476  28.063  12.294  14.512
 1063W        W73477  17.129  21.261   3.682
 1064W        W73478  34.968  18.660  14.962
 1065W        W73479  18.139  43.287  12.997
 1066W        W73480  13.134   7.239  14.773
 1067W        W73481   3.709  23.719   2.830
 1068W        W73482  38.327  19.546   4.255
 1069W        W73483  41.031   5.881   4.824
 1070W        W73484  27.556  21.123   4.117
 1071W        W73485  14.669  13.173  14.396
 1072W        W73486  39.408  22.709  11.986
 1073W        W73487   7.869   5.430  14.318
 1074W        W73488  15.185  11.836  11.993
 1075W        W73489  19.135  20.238   0.267
 1076W        W73490  28.651  20.164  14.368
 1077W        W73491   7.682   8.398  13.515
 1078W        W73492   4.794  41.462  10.602
 1079W        W73493  20.070   0.337  13.386
 1080W        W73494   4.738  21.753   5.291
 1081W        W73495  15.780  34.076  14.372
 1082W        W73496  43.866  43.383  12.825
 1083W        W73497  31.595  31.486  10.497
 1084W        W73498  10.362  30.503   0.389
 1085W        W73499  43.863  22.590  12.946
 1086W        W73500   1.361  20.717   1.918
 1087W        W73501  29.477  25.009   3.247
 1088W        W73502  35.416  31.126  10.891
 1089W        W73503  41.995  23.564   1.920
 1090W        W73504  39.998  38.369   2.370
 1091W        W73505  29.602  18.112  12.927
 1092W        W73506  32.127  37.010  12.005
 1093W        W73507  28.050   4.894  10.012
 1094W        W73508  27.128  44.996  10.152
 1095W        W73509  39.841   2.354  10.926
 1096W        W73510   8.275   5.246   3.164
 1097W        W73511  17.240   1.971  14.906
 1098W        W73512  34.076   1.939   4.813
 1099W        W73513  34.905  42.397   2.371
 1100W        W73514  25.097  10.764  10.640
 1101W        W73515  22.552  10.652  14.836
 1102W        W73516  19.218   1.964   3.217
 1103W        W73517  10.181  10.139  12.537
 1104W        W73518  42.942  11.306  14.830
 1105W        W73519  27.033  17.091   4.637
 1106W        W73520   3.308  16.138   3.714
 1107W        W73521  25.586   9.319   3.329
 1108W        W73522  30.142  24.011   0.797
 1109W        W73523  34.040   4.209   4.217
 1110W        W73524   3.262  43.011  11.012
 1111W        W73525  36.004   3.439  12.083
 1112W        W73526  31.906  16.775   4.218
 1113W        W73527   2.282  32.976   0.447
 1114W        W73528   7.797  17.722   2.878
 1115W        W73529  25.214  34.399  13.922
 1116W        W73530  12.685  29.985  11.904
 1117W        W73531   2.252  21.108   1.782
 1118W        W73532  16.807   8.832   1.904
 1119W        W73533  26.684  14.800  14.294
 1120W        W73534  32.946   6.909   1.350
 1121W        W73535  22.614  44.352  12.950
 1122W        W73536  30.506   0.285  14.025
 1123W        W73537  43.926  44.398   2.187
 1124W        W73538   4.224  35.433   2.706
 1125W        W73539  12.621  11.737  13.360
 1126W        W73540  28.963   9.870  13.389
 1127W        W73541  40.515  36.519  12.575
 1128W        W73542  44.771  30.537  12.356
 1129W        W73543  15.771   8.738   5.162
 1130W        W73544  18.716  22.600   1.770
 1131W        W73545  14.793   2.803   1.750
 1132W        W73546  24.721  20.152  11.978
 1133W        W73547   5.268   7.751   3.333
 1134W        W73548  17.675  23.081   3.813
 1135W        W73549   8.659  16.076  14.338
 1136W        W73550  36.364  29.943  14.513
 1137W        W73551  40.959  17.159   4.338
 1138W        W73552  41.412  18.746  11.045
 1139W        W73553  43.316   7.758  14.771
 1140W        W73554  15.799  19.633  14.798
 1141W        W73555   2.908  16.203  12.092
 1142W        W73556  42.421  33.916  14.461
 1143W        W73557  32.629  43.961  12.578
 1144W        W73558  33.948  13.119  13.935
 1145W        W73559  24.696  12.226   3.654
 1146W        W73560  24.080  40.438  11.572
 1147W        W73561  27.160  29.137  11.402
 1148W        W73562   6.232  29.107  13.394
 1149W        W73563  27.657   8.265   3.801
 1150W        W73564   9.207  32.548   2.209
 1151W        W73565   8.179  18.616   1.768
 1152W        W73566   8.793   3.376  12.571
 1153W        W73567  20.201  18.627  12.384
 1154W        W73568  33.925  19.091   1.794
 1155W        W73569  42.792   0.446   4.834
 1156W        W73570  19.579  18.566  12.433
 1157W        W73571  23.663  20.635  10.944
 1158W        W73572  29.573   6.329  13.884
 1159W        W73573  43.014  30.437   2.714
 1160W        W73574  29.491  33.091   4.664
 1161W        W73575  27.145  22.183   3.757
 1162W        W73576   3.874  33.131   4.750
 1163W        W73577  39.503  23.111  12.417
 1164W        W73578  32.927   7.792  14.882
 1165W        W73579  23.012  15.583  10.638
 1166W        W73580  17.749   8.893  11.590
 1167W        W73581  10.755  36.491   4.238
 1168W        W73582  25.547  43.836   2.747
 1169W        W73583  12.650  14.135   4.670
 1170W        W73584   6.778   9.207   1.253
 1171W        W73585  21.527   6.843   1.255
 1172W        W73586  43.939   5.249   2.743
 1173W        W73587  28.960  35.088   4.767
 1174W        W73588  31.992  38.359  11.372
 1175W        W73589  14.730  41.389   3.166
 1176W        W73590   3.795  19.650   4.804
 1177W        W73591   1.847  14.810   4.704
 1178W        W73592  39.819   3.270   5.291
 1179W        W73593  14.702   6.387  10.557
 1180W        W73594  34.582  11.667  13.475
 1181W        W73595  43.310  22.194   1.362
 1182W        W73596  25.487  20.665  14.973
 1183W        W73597  31.022  38.426  12.939
 1184W        W73598  36.889  24.045  13.342
 1185W        W73599  33.035  44.873  11.958
 1186W        W73600  44.865  14.809   1.735
 1187W        W73601   2.820  41.834   1.279
 1188W        W73602  14.109   0.850  12.026
 1189W        W73603  21.063  30.100   1.775
 1190W        W73604  37.947   9.721  12.974
 1191W        W73605   3.247  32.518  11.087
 1192W        W73606  21.719  25.030  13.872
 1193W        W73607  32.981   3.370  14.856
 1194W        W73608  40.891   3.246  12.944
 1195W        W73609  15.701  14.258   1.863
 1196W        W73610  12.219   8.183   4.743
 1197W        W73611   2.304  36.058  13.332
 1198W        W73612  25.533   0.279  10.945
 1199W        W73613   8.691  10.712  14.782
 1200W        W73614  40.429  23.536   5.177
 1201W        W73615  42.775  42.910   3.684
 1202W        W73616  34.611  30.537  12.988
 1203W        W73617  15.110  42.482  12.496
 1204W        W73618  33.563  27.030   2.822
 1205W        W73619  28.049  36.544  13.535
 1206W        W73620  40.978  37.892   4.647
 1207W        W73621  10.245   6.694  12.472
 1208W        W73622  10.806   7.907  13.013
 1209W        W73623  29.508  33.595   1.295
 1210W        W73624  14.589  33.974  12.959
 1211W        W73625  28.566   1.360   0.827
 1212W        W73626   0.434  30.438  11.477
 1213W        W73627  16.666  25.068   2.837
 1214W        W73628  21.633  27.677  12.392
 1215W        W73629  15.769  43.341   3.241
 1216W        W73630  28.611  32.404  12.453
 1217W        W73631   1.758  32.632   3.269
 1218W        W73632  30.623  14.640   3.713
 1219W        W73633  37.967  33.573  12.368
 1220W        W73634  15.801  12.132  11.992
 1221W        W73635  28.001  28.999  11.393
 1222W        W73636  24.991  28.004   2.794
 1223W        W73637  31.911  28.575   1.883
 1224W        W73638  23.711  31.065  10.644
 1225W        W73639  38.004  20.194   3.740
 1226W        W73640  25.494  35.896   1.714
 1227W        W73641  22.554  15.221   4.290
 1228W        W73642  34.097  36.580   2.249
 1229W        W73643  43.924  15.320   0.800
 1230W        W73644  26.605  27.176   3.858
 1231W        W73645  21.232  20.156  10.417
 1232W        W73646   3.351  39.409  14.452
 1233W        W73647  21.559  27.016   2.738
 1234W        W73648  28.103  22.114  13.909
 1235W        W73649  22.028  19.613   0.432
 1236W        W73650  28.121   0.403  14.957
 1237W        W73651  36.527  25.042   0.796
 1238W        W73652   3.232  43.276   9.967
 1239W        W73653  35.990  37.405   4.825
 1240W        W73654  20.536  10.637  10.450
 1241W        W73655  21.639  44.939  11.964
 1242W        W73656  26.575  38.861  12.388
 1243W        W73657  31.068   7.402  13.483
 1244W        W73658  12.611  26.682  10.008
 1245W        W73659   2.888  34.379  10.996
 1246W        W73660  36.503  22.577   0.797
 1247W        W73661  19.745  36.845   0.739
 1248W        W73662  15.779   8.766  14.947
 1249W        W73663   5.382  24.194   3.653
 1250W        W73664  12.318  43.892   1.420
 1251W        W73665  15.174  37.984  11.069
 1252W        W73666   0.395  39.861   3.232
 1253W        W73667   5.218   6.878   3.241
 1254W        W73668  27.466  19.669   2.781
 1255W        W73669  34.997  37.578  11.103
 1256W        W73670   8.794   2.464  13.405
 1257W        W73671  42.815  12.809   0.259
 1258W        W73672   3.233  35.091   0.828
 1259W        W73673  38.063  43.436   4.754
 1260W        W73674  39.390  39.322  13.399
 1261W        W73675  35.070  37.044   0.841
 1262W        W73676   9.852  31.437  14.331
 1263W        W73677  28.046  43.922   2.336
 1264W        W73678  16.316   9.650   0.749
 1265W        W73679   4.273  22.080  11.878
 1266W        W73680  21.754  31.522  11.446
 1267W        W73681  14.157   5.230  11.063
 1268W        W73682  16.092   1.472  12.371
 1269W        W73683   9.328  34.480  12.474
 1270W        W73684  35.916  26.657  11.896
 1271W        W73685  42.321   7.406  13.532
 1272W        W73686  24.669  24.177  10.540
 1273W        W73687  35.046   3.896   4.138
 1274W        W73688  41.467   4.232  10.531
 1275W        W73689  43.288  31.139   1.447
 1276W        W73690   4.410  27.104   0.944
 1277W        W73691   9.241  24.018   3.839
 1278W        W73692  13.298  32.613   3.265
 1279W        W73693  40.404  19.692  12.362
 1280W        W73694  27.525   7.803   0.836
 1281W        W73695  14.814   3.326  11.897
 1282W        W73696  38.375  31.920  10.033
 1283W        W73697  20.742  34.010  10.555
 1284W        W73698   7.414  29.574   5.280
 1285W        W73699  25.986  20.767   3.752
 1286W        W73700  30.513   1.474   3.175
 1287W        W73701  14.190  19.156   3.282
 1288W        W73702  20.073  32.557   0.325
 1289W        W73703  41.336  20.730  13.833
 1290W        W73704   6.292  28.975  12.877
 1291W        W73705  30.466  28.460  14.010
 1292W        W73706  22.247  41.800  12.953
 1293W        W73707  38.840  28.052  14.451
 1294W        W73708  21.040  39.544  10.500
 1295W        W73709  38.863  42.940  11.596
 1296W        W73710  44.763  44.258  12.524
 1297W        W73711  23.227  10.669  12.831
 1298W        W73712  42.444  34.579  13.401
 1299W        W73713  39.931   3.375   3.249
 1300W        W73714   4.931  25.556  13.483
 1301W        W73715  16.280   9.832   2.769
 1302W        W73716  31.500  19.103  11.534
 1303W        W73717  10.241  14.641   3.726
 1304W        W73718  27.652  21.237  11.085
 1305W        W73719  18.730  36.492  12.454
 1306W        W73720  25.471  39.363  12.936
 1307W        W73721  34.926  35.083   3.357
 1308W        W73722  42.387   9.663   0.922
 1309W        W73723  29.461  35.569  12.487
 1310W        W73724   8.383  42.986  12.353
 1311W        W73725  37.495  17.680  14.388
 1312W        W73726  35.950  25.645  14.854
 1313W        W73727  32.630  17.655  12.870
 1314W        W73728  35.091  35.565  11.051
 1315W        W73729  16.667  15.727  14.419
 1316W        W73730  10.322  36.007  10.063
 1317W        W73731  34.561  19.204  11.375
 1318W        W73732  18.177   2.405  13.840
 1319W        W73733  31.567  30.997   1.748
 1320W        W73734  18.689  13.203   3.201
 1321W        W73735  33.436  13.307  13.848
 1322W        W73736  40.009  38.054  11.015
 1323W        W73737  11.680  11.819  13.313
 1324W        W73738  44.467  23.669  14.014
 1325W        W73739  39.319  25.966  11.414
 1326W        W73740  10.331  37.891   1.267
 1327W        W73741  33.389  28.566   0.477
 1328W        W73742  44.266   0.786   0.341
 1329W        W73743  20.126  16.572   0.387
 1330W        W73744  25.670  29.559   2.885
 1331W        W73745   5.787  19.594  14.336
 1332W        W73746  12.614  39.387  12.549
 1333W        W73747   2.722   4.444   4.321
 1334W        W73748  21.609  11.864  11.128
 1335W        W73749  18.734  16.213  12.036
 1336W        W73750  36.518  34.887   9.949
 1337W        W73751  35.977  24.087  13.042
 1338W        W73752   8.847  34.463  10.942
 1339W        W73753  31.040  18.687   3.802
 1340W        W73754  15.798  24.119   2.204
 1341W        W73755  20.680   2.797   3.760
 1342W        W73756  43.872  42.284   4.819
 1343W        W73757   1.390  15.089   2.686
 1344W        W73758  28.528  37.551  14.337
 1345W        W73759  10.246   4.378  12.542
 1346W        W73760  14.289  31.091  11.099
 1347W        W73761  25.694  40.453  13.868
 1348W        W73762  36.913  13.618   1.402
 1349W        W73763   9.225  29.106   0.753
 1350W        W73764  30.997  43.967   0.781
 1351W        W73765   2.912  38.994   0.337
 1352W        W73766  12.363  10.223  12.553
 1353W        W73767  10.763  35.380  10.600
 1354W        W73768  39.873  36.498   3.839
 1355W        W73769  30.424  26.199  11.108
 1356W        W73770   8.185  13.622  10.937
 1357W        W73771   3.332  38.872   3.309
 1358W        W73772   3.795  26.960  14.778
 1359W        W73773  37.581  33.537  10.043
 1360W        W73774   8.694  41.990   2.385
 1361W        W73775  31.073  15.712   0.409
 1362W        W73776   7.203   2.903  11.113
 1363W        W73777  40.868   2.784   0.383
 1364W        W73778  18.134   4.807   3.284
 1365W        W73779  36.093  39.830   1.766
 1366W        W73780  20.235  40.820  11.473
 1367W        W73781   4.226   0.975  14.408
 1368W        W73782  28.559   7.203  11.533
 1369W        W73783  40.939   6.428   4.161
 1370W        W73784  30.017  37.522  13.385
 1371W        W73785  22.158  35.403  14.878
 1372W        W73786   9.651  42.794   3.331
 1373W        W73787  27.556  19.678  12.549
 1374W        W73788  25.135  37.977  14.318
 1375W        W73789  35.950  27.978   1.723
 1376W        W73790  10.150  43.321  14.327
 1377W        W73791  30.630  38.903  12.514
 1378W        W73792  39.406   6.293   3.788
 1379W        W73793  24.510  23.128  14.897
 1380W        W73794   9.793  17.295  11.455
 1381W        W73795  38.461   8.837   0.346
 1382W        W73796   4.870  34.925   3.710
 1383W        W73797   3.340  30.630   1.390
 1384W        W73798   4.723  25.656  14.505
 1385W        W73799   0.336  37.547  12.847
 1386W        W73800   4.836   9.719   3.856
 1387W        W73801  14.220  41.827  11.122
 1388W        W73802  30.524   8.246   0.290
 1389W        W73803   6.748  29.066  13.395
 1390W        W73804  22.526  16.191  10.074
 1391W        W73805  34.610   3.304   0.852
 1392W        W73806  11.247  13.199   0.321
 1393W        W73807  22.126  39.864  10.614
 1394W        W73808  39.346  26.621   0.798
 1395W        W73809  23.621  18.213   9.656
 1396W        W73810  24.095  32.060  13.062
 1397W        W73811   4.760  22.506  12.573
 1398W        W73812   0.431  16.572  11.529
 1399W        W73813  40.938   2.468   0.891
 1400W        W73814  10.361  21.744   1.896
 1401W        W73815  27.613  29.944  12.029
 1402W        W73816  25.117  22.710  10.957
 1403W        W73817  36.935  38.513  10.977
 1404W        W73818  34.091  25.190   1.702
 1405W        W73819   7.172   6.217  14.382
 1406W        W73820  34.465  29.003  10.600
 1407W        W73821  15.797  33.474  11.064
 1408W        W73822   2.760  24.663  13.375
 1409W        W73823  34.593  43.936  10.439
 1410W        W73824  16.313  14.096  12.538
 1411W        W73825  34.426  42.920  13.398
 1412W        W73826  30.637  14.767   2.696
 1413W        W73827  35.464   3.942  11.049
 1414W        W73828  21.601   0.927   3.791
 1415W        W73829  37.987   4.277  12.867
 1416W        W73830  13.192  42.426  14.795
 1417W        W73831   3.419  30.085  12.455
 1418W        W73832   2.252  34.076  11.098
 1419W        W73833  33.061  40.954   2.311
 1420W        W73834  25.489  14.329   0.880
 1421W        W73835  17.715  25.709   4.242
 1422W        W73836  43.966  19.141  12.941
 1423W        W73837  34.003  42.937  11.500
 1424W        W73838  41.906  28.073  11.556
 1425W        W73839  27.632  33.513  13.388
 1426W        W73840  25.658  31.029   0.253
 1427W        W73841  12.172   5.831   0.364
 1428W        W73842  31.005  12.793   4.251
 1429W        W73843  40.359  32.028   0.306
 1430W        W73844   3.820   0.880  13.450
 1431W        W73845  28.652  15.682  13.809
 1432W        W73846  28.065  19.627  11.029
 1433W        W73847  11.129  26.475  12.823
 1434W        W73848  17.718   4.434  10.555
 1435W        W73849  23.573  16.762   4.334
 1436W        W73850   9.175  20.168   3.309
 1437W        W73851  43.890  25.529   1.835
 1438W        W73852   6.771   8.165  13.951
 1439W        W73853  13.799  40.003   1.388
 1440W        W73854  28.507  15.265  14.788
 1441W        W73855  27.591  42.980  10.080
 1442W        W73856  36.416   2.869   1.709
 1443W        W73857  13.640  42.794   1.855
 1444W        W73858   8.267  21.246  11.389
 1445W        W73859  38.333  22.628  14.029
 1446W        W73860   4.267  21.065   4.691
 1447W        W73861   7.733  29.941   2.216
 1448W        W73862  36.388  44.791   0.753
 1449W        W73863  44.892  40.470  12.957
 1450W        W73864   8.344  35.535  11.023
 1451W        W73865  17.076  44.972  10.958
 1452W        W73866   1.961  23.991   0.948
 1453W        W73867   4.387  42.998   0.787
 1454W        W73868  44.290  37.394  13.373
 1455W        W73869  28.027   9.289  12.057
 1456W        W73870  12.755  14.114   4.189
 1457W        W73871  33.458   1.354  12.459
 1458W        W73872  35.402  10.195   1.296
 1459W        W73873   2.964  33.047  13.436
 1460W        W73874  27.084   1.471  10.012
 1461W        W73875  33.908  36.877  13.418
 1462W        W73876  18.072  26.537  13.011
 1463W        W73877  39.890  18.103   1.874
 1464W        W73878  17.205  27.588  10.607
 1465W        W73879  14.753  18.681  12.020
 1466W        W73880  21.559  25.045  12.876
 1467W        W73881  12.737  43.276  10.442
 1468W        W73882  41.435  38.485   1.832
 1469W        W73883  20.177  35.533  10.931
 1470W        W73884   3.268   0.806  12.487
 1471W        W73885  16.162  30.073  14.971
 1472W        W73886  11.294  25.473  13.449
 1473W        W73887   7.757  19.572  11.944
 1474W        W73888  33.572  30.623  10.634
 1475W        W73889  22.674   6.285  13.425
 1476W        W73890   1.800  41.319  12.350
 1477W        W73891  43.793  21.191   3.867
 1478W        W73892  24.621  35.547  14.794
 1479W        W73893  25.137  21.679   2.326
 1480W        W73894  41.881  15.237  12.090
 1481W        W73895  12.848   2.282  14.445
 1482W        W73896  26.696  13.135   4.650
 1483W        W73897  33.949   9.265   2.311
 1484W        W73898  28.667  33.980   0.786
 1485W        W73899  43.934  37.027   2.684
 1486W        W73900  25.711  43.467  12.506
 1487W        W73901  14.734  12.217   4.672
 1488W        W73902  23.104  10.757   3.255
 1489W        W73903  16.223  23.030   0.384
 1490W        W73904  15.235  44.783  11.931
 1491W        W73905  44.865  32.626   1.324
 1492W        W73906   6.859  21.021  14.311
 1493W        W73907  29.956  18.112  12.903
 1494W        W73908  29.663  35.364   4.811
 1495W        W73909  36.374  35.068   5.734
 1496W        W73910  18.239  20.766   0.918
 1497W        W73911  25.008   2.268   1.449
 1498W        W73912  11.268  23.590  13.496
 1499W        W73913  12.692  27.683  14.431
 1500W        W73914  28.612  39.039   4.311
 1501W        W73915   9.807  32.129   2.753
 1502W        W73916  23.241   6.742  12.915
 1503W        W73917  42.922  34.550  12.888
 1504W        W73918  29.649  35.066  11.428
 1505W        W73919  14.258  28.588  11.373
 1506W        W73920   3.339  30.165   4.337
 1507W        W73921  38.004  24.204  12.971
 1508W        W73922  44.410  27.501  13.902
 1509W        W73923  20.091  36.501   0.840
 1510W        W73924  15.130  43.908  10.492
 1511W        W73925  30.442  13.839  10.546
 1512W        W73926   5.305  32.458  13.933
 1513W        W73927  20.629  13.297   1.438
 1514W        W73928  34.547  14.304   3.205
 1515W        W73929   3.399  19.251   2.681
 1516W        W73930  33.569  19.282   3.751
 1517W        W73931  14.108   2.399  10.951
 1518W        W73932  12.241  41.795  13.875
 1519W        W73933  33.484  14.724   3.859
 1520W        W73934   7.267  24.091  11.921
 1521W        W73935  11.856  23.041  13.050
 1522W        W73936  31.023  11.827  13.341
 1523W        W73937  21.021  14.745  10.569
 1524W        W73938  16.605  32.495   3.226
 1525W        W73939  17.628  19.550  12.007
 1526W        W73940  34.428  28.154   4.260
 1527W        W73941  40.525  11.643  11.534
 1528W        W73942  26.607   6.270   5.310
 1529W        W73943  34.881  25.009   0.871
 1530W        W73944  11.210  17.636  11.478
 1531W        W73945  12.678  19.188   2.286
 1532W        W73946   9.840  11.155  13.806
 1533W        W73947   0.969  18.626  13.042
 1534W        W73948  27.152  12.219   2.178
 1535W        W73949  44.482  33.423   5.173
 1536W        W73950  39.975   9.865   4.203
 1537W        W73951  26.515  13.829  11.491
 1538W        W73952   1.300  31.033  11.968
 1539W        W73953  14.157  21.607   4.736
 1540W        W73954  33.039  32.447   0.905
 1541W        W73955  41.366   2.380   3.371
 1542W        W73956  10.634   8.766  12.965
 1543W        W73957  17.559  16.736  11.435
 1544W        W73958  37.343   7.700   3.306
 1545W        W73959  13.248  10.854  12.954
 1546W        W73960   3.307   5.337  14.289
 1547W        W73961  16.785   5.242   0.828
 1548W        W73962  36.882  16.738  12.470
 1549W        W73963  23.572  13.129  14.317
 1550W        W73964  43.290   0.895   1.218
 1551W        W73965  15.647  14.290  11.554
 1552W        W73966  15.645  11.690  13.844
 1553W        W73967  14.726   3.215  11.060
 1554W        W73968  32.440  29.163  13.819
 1555W        W73969  29.455  21.653   1.426
 1556W        W73970  27.453  44.816   1.787
 1557W        W73971  21.218  35.988  13.375
 1558W        W73972  41.357  31.927   3.760
 1559W        W73973  26.132  31.508   3.328
 1560W        W73974   3.262   6.403  11.932
 1561W        W73975  22.093   7.375  10.566
 1562W        W73976  42.354   7.816  13.893
 1563W        W73977   4.741  18.694   3.636
 1564W        W73978  26.198  43.432   0.339
 1565W        W73979  31.087  29.452  14.276
 1566W        W73980   9.228  15.320  14.878
 1567W        W73981  12.161  13.678   4.280
 1568W        W73982   9.353  19.666   0.369
 1569W        W73983  21.227  38.370  11.400
 1570W        W73984  35.996  35.048  12.847
 1571W        W73985  44.496  26.534  10.537
 1572W        W73986  21.223  43.917   4.707
 1573W        W73987   3.325   2.360   4.286
 1574W        W73988   1.839  13.273  13.315
 1575W        W73989  20.703   4.348  13.803
 1576W        W73990  23.653  19.667  11.396
 1577W        W73991   8.174   8.663   3.637
 1578W        W73992  29.472  18.210   0.400
 1579W        W73993   4.820  22.728  11.472
 1580W        W73994  34.976  37.485  11.482
 1581W        W73995  14.240  35.597  14.011
 1582W        W73996  41.830  43.924  10.521
 1583W        W73997  23.116   3.280  10.939
 1584W        W73998   2.457  12.291   0.893
 1585W        W73999   9.848   4.302  10.575
 1586W        W74000  13.331  27.144  11.958
 1587W        W74001  24.534  13.713  14.399
 1588W        W74002  22.240  17.730   0.380
 1589W        W74003  35.479  12.252   0.470
 1590W        W74004  36.854   5.917   2.351
 1591W        W74005  29.069   2.249  11.865
 1592W        W74006  14.770  42.395   4.804
 1593W        W74007  42.941  39.914  14.881
 1594W        W74008  29.535  24.479   4.215
 1595W        W74009   7.387  21.187  14.276
 1596W        W74010  10.764  36.401  13.907
 1597W        W74011  37.979   0.302  14.489
 1598W        W74012  33.060   3.936   3.725
 1599W        W74013  30.944  22.068  10.423
 1600W        W74014  43.406   4.243   0.798
 1601W        W74015  35.564  23.605   2.876
 1602W        W74016  18.061   6.702   3.333
 1603W        W74017  34.975  12.171  14.863
 1604W        W74018  34.927   4.421  10.952
 1605W        W74019   5.692   2.326   3.213
 1606W        W74020  28.575  24.211   1.934
 1607W        W74021  15.780  25.137   5.311
 1608W        W74022   9.152  44.404   0.733
 1609W        W74023  28.446  16.189   1.315
 1610W        W74024  26.580   5.865   0.422
 1611W        W74025  43.385  44.980  13.500
 1612W        W74026   1.324  36.086   0.431
 1613W        W74027  44.470   4.811   1.891
 1614W        W74028  20.554  12.306  13.056
 1615W        W74029  13.260  11.671   4.721
 1616W        W74030  30.501  40.357  14.376
 1617W        W74031  21.089  15.094   1.368
 1618W        W74032  16.315  27.604   0.859
 1619W        W74033  39.946  19.569  14.478
 1620W        W74034  38.380   0.338   0.825
 1621W        W74035  42.922  39.928   1.312
 1622W        W74036  26.107  36.961  14.981
 1623W        W74037  42.965  38.918  13.486
 1624W        W74038  23.530  40.871  12.981
 1625W        W74039   5.912   2.463  10.495
 1626W        W74040  30.027   8.375  14.301
 1627W        W74041  17.615   4.929   4.798
 1628W        W74042   1.248  30.426  12.899
 1629W        W74043  33.432  41.312  13.466
 1630W        W74044  22.249  24.160  10.942
 1631W        W74045  41.521   4.943  12.057
 1632W        W74046  26.954   2.961  13.850
 1633W        W74047   6.244  30.633  11.504
 1634W        W74048  21.073  32.076   2.725
 1635W        W74049  28.048  10.330   2.384
 1636W        W74050  20.222   2.882   3.329
 1637W        W74051   3.720  19.598  13.028
 1638W        W74052  24.201  34.392  12.028
 1639W        W74053  13.301  43.010  14.336
 1640W        W74054  21.738  14.165   2.731
 1641W        W74055  20.256  27.009   1.339
 1642W        W74056  21.022  18.581   2.703
 1643W        W74057  26.031  34.935  13.859
 1644W        W74058  28.178  13.327  13.035
 1645W        W74059   1.836  23.084   3.860
 1646W        W74060  40.947   5.696  10.435
 1647W        W74061  43.355  34.891   2.228
 1648W        W74062  35.474  12.122  12.934
 1649W        W74063   5.396  12.359   1.758
 1650W        W74064  27.448  37.975   1.318
 1651W        W74065  19.643  36.401  12.427
 1652W        W74066  20.628  44.418   2.284
 1653W        W74067  21.072  33.550  12.011
 1654W        W74068  16.210  41.522   0.769
 1655W        W74069   6.257  30.564  12.400
 1656W        W74070   6.270   0.921   0.370
 1657W        W74071  19.602  18.138  14.798
 1658W        W74072   7.236  21.534  11.037
 1659W        W74073  26.150  37.977   1.241
 1660W        W74074  17.563  43.803   1.929
 1661W        W74075  14.779  43.329   1.709
 1662W        W74076  15.276  29.132  11.427
 1663W        W74077  21.070  15.624   1.873
 1664W        W74078   7.811  33.507   9.993
 1665W        W74079  42.922  12.275   0.774
 1666W        W74080   2.256  36.080   4.787
 1667W        W74081   3.442  18.584  14.344
 1668W        W74082  24.205  23.098   4.642
 1669W        W74083  32.134  13.135   1.229
 1670W        W74084  20.062   0.270   3.659
 1671W        W74085  15.218  35.414   4.631
 1672W        W74086  39.883  15.086   4.132
 1673W        W74087  44.455  34.918   1.846
 1674W        W74088  13.667  38.345   0.825
 1675W        W74089   5.860  42.976   2.762
 1676W        W74090  35.537  21.028  10.094
 1677W        W74091  10.315  41.395  12.078
 1678W        W74092  25.067  40.028  14.356
 1679W        W74093  30.418   9.226  11.940
 1680W        W74094  19.202  24.712  11.386
 1681W        W74095  28.121  38.966  14.345
 1682W        W74096   0.933  14.766  11.907
 1683W        W74097   4.823  27.180   1.778
 1684W        W74098   9.208  41.010  13.516
 1685W        W74099   8.749  34.068  11.992
 1686W        W74100   2.842   4.238   4.607
 1687W        W74101  14.186  13.299  11.580
 1688W        W74102  24.980   5.880   3.157
 1689W        W74103  42.926  10.738  10.488
 1690W        W74104  24.606   9.753   4.117
 1691W        W74105  19.756   4.308   1.360
 1692W        W74106   5.305  36.480   4.665
 1693W        W74107   3.368  29.613  11.529
 1694W        W74108  28.096   9.758  14.968
 1695W        W74109  40.458   8.314  11.508
 1696W        W74110   6.285   4.779   0.263
 1697W        W74111  32.008  16.306  11.865
 1698W        W74112  26.030  27.993  14.389
 1699W        W74113  20.103  42.378  13.473
 1700W        W74114  25.108  16.167   1.823
 1701W        W74115  23.054  22.604   2.815
 1702W        W74116  15.704  13.326  13.915
 1703W        W74117   8.268  16.147  10.508
 1704W        W74118  22.079  28.172   2.336
 1705W        W74119  33.998  12.221   3.344
 1706W        W74120  37.524  17.065  14.378
 1707W        W74121   8.762  41.864   0.423
 1708W        W74122  13.291  18.205  14.381
 1709W        W74123  41.948  41.890  14.893
 1710W        W74124   4.875   2.364  11.874
 1711W        W74125  12.302  28.620   1.443
 1712W        W74126  41.534  22.098   1.769
 1713W        W74127  29.936   6.846   0.421
 1714W        W74128  22.520  10.364   4.231
 1715W        W74129  17.305  14.752   4.628
 1716W        W74130  17.298  27.082   3.848
 1717W        W74131   8.695   6.243   2.867
 1718W        W74132  40.328   7.327  14.393
 1719W        W74133  38.950  15.100   0.273
 1720W        W74134  26.702  19.120   3.275
 1721W        W74135  15.732  15.165  12.937
 1722W        W74136  18.291  24.717   0.389
 1723W        W74137  25.560  26.052   4.256
 1724W        W74138  25.059  20.065   4.769
 1725W        W74139  36.501  30.135   0.853
 1726W        W74140  23.715  28.481   0.870
 1727W        W74141  29.029  34.585   1.934
 1728W        W74142   5.346  29.003   3.842
 1729W        W74143  19.045  26.985   1.426
 1730W        W74144  19.723  17.750   4.274
 1731W        W74145  36.498  38.476   4.176
 1732W        W74146  42.926   7.409  10.437
 1733W        W74147  33.049  30.068  12.006
 1734W        W74148  40.854  14.309   1.930
 1735W        W74149  42.409   2.319  11.400
 1736W        W74150  11.373  37.965  14.352
 1737W        W74151  16.672   9.212   4.709
 1738W        W74152   0.360  41.303   3.204
 1739W        W74153  27.471  36.458   3.780
 1740W        W74154  30.610   3.929  11.561
 1741W        W74155  14.830  38.519   4.825
 1742W        W74156  29.160  42.387  13.428
 1743W        W74157  31.530   2.449  13.849
 1744W        W74158  37.894  34.521   1.911
 1745W        W74159  22.105  38.529  14.296
 1746W        W74160  32.111  42.842   1.267
 1747W        W74161  15.700  25.127  10.435
 1748W        W74162  26.461   6.186   0.286
 1749W        W74163  37.403  41.870  11.581
 1750W        W74164  44.465  38.458   0.849
 1751W        W74165  17.199   7.854  11.927
 1752W        W74166   3.326  30.636   4.720
 1753W        W74167  23.727  15.099  11.048
 1754W        W74168  40.533  35.404   0.327
 1755W        W74169  26.139  19.741  10.641
 1756W        W74170   0.417  43.297   0.893
 1757W        W74171   3.245   6.740   3.219
 1758W        W74172   0.872  17.724   1.841
 1759W        W74173  30.426  28.024   0.410
 1760W        W74174  43.370  14.338   0.395
 1761W        W74175  24.045  21.248  12.019
 1762W        W74176  12.825  42.517  14.394
 1763W        W74177  11.170  30.459   4.121
 1764W        W74178  19.147  38.013  11.068
 1765W        W74179  33.948  33.508  13.351
 1766W        W74180  43.463  12.311   3.234
 1767W        W74181  16.290  31.049  11.002
 1768W        W74182   2.265  14.719  10.573
 1769W        W74183  19.615  28.467   0.258
 1770W        W74184  14.607  16.690   0.808
 1771W        W74185  36.361  23.042   0.961
 1772W        W74186   3.272  34.098  11.117
 1773W        W74187  17.182   8.764  10.127
 1774W        W74188   2.949   8.657   4.795
 1775W        W74189  36.991  37.548   1.408
 1776W        W74190  24.490  28.037  14.941
 1777W        W74191   8.686  27.054   2.298
 1778W        W74192  38.529  34.945  14.899
 1779W        W74193  10.229  35.458  10.917
 1780W        W74194  34.091  38.027  12.895
 1781W        W74195  38.570  26.135   3.749
 1782W        W74196  23.564  12.623  14.461
 1783W        W74197   8.170  20.261  12.450
 1784W        W74198  41.393  41.841   3.272
 1785W        W74199  24.507  26.671   2.667
 1786W        W74200   4.901   4.205  11.045
 1787W        W74201  25.066  32.636  10.439
 1788W        W74202   7.225  40.026   4.221
 1789W        W74203   1.304  43.780  10.559
 1790W        W74204   5.393  29.089   3.271
 1791W        W74205  22.077  14.112  10.528
 1792W        W74206  30.911  35.067  11.989
 1793W        W74207  23.731  37.028  13.973
 1794W        W74208  13.259  15.756   0.815
 1795W        W74209  12.789  40.869   3.263
 1796W        W74210  26.055  40.012   0.823
 1797W        W74211   5.363  13.650   0.733
 1798W        W74212  18.220   1.856   3.743
 1799W        W74213  30.580  40.357   3.775
 1800W        W74214   6.714  38.562  14.815
 1801W        W74215  21.130   2.769  10.513
 1802W        W74216   4.830  42.022  12.044
 1803W        W74217  16.780  11.838  11.934
 1804W        W74218  36.446  20.207   0.392
 1805W        W74219  35.027  15.307   2.236
 1806W        W74220  14.187  13.746   3.335
 1807W        W74221  37.396  35.560   0.340
 1808W        W74222  42.399  23.523   1.241
 1809W        W74223  41.796  38.854   1.888
 1810W        W74224  37.964   3.861  12.077
 1811W        W74225  38.873  28.981  14.788
 1812W        W74226  11.282  24.527   1.748
 1813W        W74227  10.635  11.667   0.852
 1814W        W74228  15.228  12.294   3.386
 1815W        W74229  36.467  12.785   0.397
 1816W        W74230  24.725  21.229   2.389
 1817W        W74231  31.914  18.261   2.360
 1818W        W74232   0.489  36.518   3.244
 1819W        W74233   5.775  14.781   1.441
 1820W        W74234   3.397  43.468  12.852
 1821W        W74235   6.921  41.479   1.733
 1822W        W74236   4.279   7.196  10.560
 1823W        W74237  41.955   7.294  10.555
 1824W        W74238  33.955  38.403  12.824
 1825W        W74239  42.978  33.438   2.704
 1826W        W74240  21.053  13.656   4.189
 1827W        W74241  38.918  36.909   2.816
 1828W        W74242  28.588  27.630   3.305
 1829W        W74243  36.411  26.018  14.323
 1830W        W74244  17.745  41.870  13.384
 1831W        W74245  11.314   0.944  13.494
 1832W        W74246  32.574  20.719  13.968
 1833W        W74247  32.402  44.811  14.394
 1834W        W74248   3.393  34.603   3.256
 1835W        W74249  26.581  36.866   3.798
 1836W        W74250  15.192   2.398  13.443
 1837W        W74251  41.815  22.225   4.274
 1838W        W74252  26.675   6.815   4.183
 1839W        W74253  21.260  22.546   5.128
 1840W        W74254  32.989  33.989  14.976
 1841W        W74255  41.480  17.222   3.182
 1842W        W74256   5.195  44.356   4.611
 1843W        W74257  10.328  22.072   9.943
 1844W        W74258  19.120  18.273  12.066
 1845W        W74259   6.325  19.042   0.777
 1846W        W74260  42.461  33.098  14.365
 1847W        W74261  33.477  31.569   2.291
 1848W        W74262  19.161  34.914  14.428
 1849W        W74263  27.137  39.975   2.246
 1850W        W74264  26.064  33.481   4.737
 1851W        W74265  39.030  37.499  12.436
 1852W        W74266  30.952  10.306  10.058
 1853W        W74267  35.430  43.369   0.465
 1854W        W74268  22.591   5.736   1.285
 1855W        W74269  18.122  19.177   3.303
 1856W        W74270  13.320  21.650  14.385
 1857W        W74271   0.330  44.377   3.257
 1858W        W74272  44.831  10.746   2.327
 1859W        W74273   6.902  27.022  13.950
 1860W        W74274  39.918  38.400   2.885
 1861W        W74275  18.775  16.654   4.707
 1862W        W74276  29.468  41.950   2.781
 1863W        W74277  37.896  13.621  13.807
 1864W        W74278  17.596  22.169   4.144
 1865W        W74279  30.509  19.266  12.838
 1866W        W74280  10.212  37.404  14.310
 1867W        W74281  24.668  20.754  11.451
 1868W        W74282  30.032  23.112  12.356
 1869W        W74283  16.184  42.358  13.438
 1870W        W74284  25.614   1.815  14.485
 1871W        W74285  38.956  26.970  12.830
 1872W        W74286  35.020  43.390   2.409
 1873W        W74287   7.186  16.200   1.818
 1874W        W74288   6.366  33.577  10.056
 1875W        W74289  38.325   4.724   2.384
 1876W        W74290  13.607   0.451  10.981
 1877W        W74291  25.213  33.997  14.284
 1878W        W74292  44.329  21.222  10.580
 1879W        W74293  10.658  39.923   4.139
 1880W        W74294  15.750  11.235   2.398
 1881W        W74295  15.140   7.359   1.246
 1882W        W74296   0.261   1.915  13.335
 1883W        W74297  18.248  36.383  14.971
 1884W        W74298  29.996  39.418   2.713
 1885W        W74299   8.203  20.579  12.417
 1886W        W74300   5.885  25.584  13.412
 1887W        W74301  37.973  29.597  14.010
 1888W        W74302  32.456  22.138   0.855
 1889W        W74303  20.763  25.010   2.733
 1890W        W74304  19.625  43.416   4.305
 1891W        W74305  11.862   3.309   9.970
 1892W        W74306  35.565  42.290   3.257
 1893W        W74307  29.949  32.137  14.895
 1894W        W74308  42.955  15.193  12.434
 1895W        W74309  36.505  36.877  11.460
 1896W        W74310   4.759  11.205  10.623
 1897W        W74311  39.918  27.954   0.406
 1898W        W74312  34.606  10.672  14.861
 1899W        W74313  12.320   4.880   3.856
 1900W        W74314  34.372  20.593   1.924
 1901W        W74315  42.358  41.805   4.140
 1902W        W74316  21.595   8.843  13.540
 1903W        W74317  38.893  40.303  13.836
 1904W        W74318  28.947  18.764  11.478
 1905W        W74319   3.892  25.014   1.837
 1906W        W74320  21.109   7.266   1.903
 1907W        W74321   1.743  30.978   2.303
 1908W        W74322  29.605  22.138   4.297
 1909W        W74323  39.019  20.592   4.668
 1910W        W74324   8.289   7.321   4.334
 1911W        W74325  18.744  43.433  13.810
 1912W        W74326  44.996  32.082  13.034
 1913W        W74327  26.646  20.093   4.601
 1914W        W74328  29.618  19.254   4.139
 1915W        W74329  34.020  28.611   1.285
 1916W        W74330  35.443  26.693   3.696
 1917W        W74331  14.097  27.513  10.626
 1918W        W74332  44.333  44.266  12.364
 1919W        W74333  26.616   7.754  13.823
 1920W        W74334  15.274  39.391   2.387
 1921W        W74335   9.660  11.722   1.439
 1922W        W74336  34.949  41.947   0.828
 1923W        W74337   4.405  36.542  12.522
 1924W        W74338  20.686   3.321  12.072
 1925W        W74339  32.574  42.810  12.437
 1926W        W74340   4.836   2.818  10.457
 1927W        W74341   5.234  12.339  14.858
 1928W        W74342  43.473  16.781  10.641
 1929W        W74343  22.578  25.038   3.286
 1930W        W74344   0.255  23.092   1.841
 1931W        W74345   7.848  38.873   3.339
 1932W        W74346  44.944  43.825  12.381
 1933W        W74347  35.880  28.123   2.762
 1934W        W74348  42.868  42.426   0.356
 1935W        W74349   0.320   0.854   4.709
 1936W        W74350   5.316  16.097  11.377
 1937W        W74351  31.591  38.026   3.241
 1938W        W74352  32.005  18.561   0.769
 1939W        W74353  37.036  38.439   0.314
 1940W        W74354  20.650   7.875  11.560
 1941W        W74355  18.634  14.748   4.133
 1942W        W74356   5.752   6.308   2.395
 1943W        W74357  34.069  17.612   2.339
 1944W        W74358   0.328   7.784  11.436
 1945W        W74359  23.540  35.981   0.911
 1946W        W74360  20.218   4.906   3.353
 1947W        W74361  19.151  31.133   2.757
 1948W        W74362  35.894  34.439   5.315
 1949W        W74363  10.275   9.317  11.584
 1950W        W74364  41.459  31.089  12.861
 1951W        W74365  22.556  15.610   1.350
 1952W        W74366  15.163  14.795  10.909
 1953W        W74367  29.560  36.384  13.967
 1954W        W74368  35.873  13.742  11.913
 1955W        W74369  35.488   4.718  11.881
 1956W        W74370   7.213  14.764   1.904
 1957W        W74371   1.351  38.955  12.986
 1958W        W74372  25.048   7.884  10.543
 1959W        W74373   4.723  38.401   4.775
 1960W        W74374  20.052  44.804   3.772
 1961W        W74375  26.548  27.098   0.913
 1962W        W74376  44.923  22.995   3.264
 1963W        W74377  40.541  37.403   3.285
 1964W        W74378   1.297  15.705  13.981
 1965W        W74379  16.590   5.350  13.013
 1966W        W74380  33.602   7.709  11.997
 1967W        W74381  26.569  36.350   3.734
 1968W        W74382  16.715  42.811   4.650
 1969W        W74383  16.200   5.751  13.968
 1970W        W74384  41.874  14.681   1.364
 1971W        W74385  19.064  26.147  10.921
 1972W        W74386  32.471  22.188  10.116
 1973W        W74387  43.346   5.338   4.775
 1974W        W74388  32.442  32.893   1.377
 1975W        W74389  13.163  44.455  12.497
 1976W        W74390   0.870   7.872  13.059
 1977W        W74391  43.345  31.989   2.806
 1978W        W74392  11.843  30.945  14.940
 1979W        W74393  19.608  44.947   3.350
 1980W        W74394  37.391  34.949   4.808
 1981W        W74395  42.856   7.728   1.701
 1982W        W74396  11.222  41.798   4.719
 1983W        W74397  17.133   4.830   4.246
 1984W        W74398  18.250  32.093   3.637
 1985W        W74399  38.985  31.633   3.181
 1986W        W74400  18.193  16.204   3.688
 1987W        W74401  25.119  13.194   1.249
 1988W        W74402   6.828  19.668  14.028
 1989W        W74403  43.799  17.797  10.604
 1990W        W74404  44.428  18.105  13.030
 1991W        W74405  12.191   3.271  13.055
 1992W        W74406  14.799   0.925  14.813
 1993W        W74407   0.320  38.989   3.231
 1994W        W74408  42.480  29.092  11.594
 1995W        W74409  36.013  21.161  11.591
 1996W        W74410  10.178   2.466   0.367
 1997W        W74411  12.669  22.530  10.412
 1998W        W74412  44.385  30.053  14.948
 1999W        W74413  44.984  24.060   3.789
 2000W        W74414  40.466  19.177  10.908
 2001W        W74415  17.767  38.902   4.220
 2002W        W74416   8.161  27.672  10.634
 2003W        W74417   6.200  18.782  10.917
 2004W        W74418  31.548  30.016  10.512
 2005W        W74419  42.921   3.715  13.016
 2006W        W74420  36.477  27.990   0.859
 2007W        W74421  25.158  28.041  11.570
 2008W        W74422   0.377  21.104  12.070
 2009W        W74423  12.315  35.409  14.432
 2010W        W74424  12.709   4.853  10.593
 2011W        W74425  44.274  12.168  11.411
 2012W        W74426  17.577  35.989  10.936
 2013W        W74427  29.656   0.400   3.258
 2014W        W74428  25.565  14.642  11.895
 2015W        W74429  16.766  16.689  13.522
 2016W        W74430  26.480  16.590  14.394
 2017W        W74431   1.361  29.519  14.015
 2018W        W74432  33.435  17.632   0.936
 2019W        W74433   4.214  15.232   3.740
 2020W        W74434  10.260  17.618   2.782
 2021W        W74435  20.711  16.178   0.832
 2022W        W74436  44.461  36.524  13.913
 2023W        W74437   4.372  18.073  12.343
 2024W        W74438  10.718  24.700  14.976
 2025W        W74439  30.548  33.396  14.299
 2026W        W74440  38.840  19.128   3.715
 2027W        W74441   6.212  30.455  11.870
 2028W        W74442  26.695  29.063  13.890
 2029W        W74443  10.365  37.075  11.041
 2030W        W74444   2.398  43.907  14.899
 2031W        W74445  36.379  36.388   4.666
 2032W        W74446  14.819  42.841   1.791
 2033W        W74447  30.478  27.476  11.531
 2034W        W74448   0.943  44.434   0.942
 2035W        W74449  44.870  40.031   2.226
 2036W        W74450   9.699  13.677  14.900
 2037W        W74451   2.238  27.104   3.240
 2038W        W74452   6.367  10.714  11.523
 2039W        W74453  20.615   2.233  13.892
 2040W        W74454   4.289  25.624  12.403
 2041W        W74455   8.712  36.370  14.885
 2042W        W74456  21.535   8.790   4.145
 2043W        W74457   7.879   9.250  14.817
 2044W        W74458  19.585   8.222   0.746
 2045W        W74459  25.660  28.633   1.858
 2046W        W74460  40.966  21.543  13.332
 2047W        W74461  27.100   5.320  13.055
 2048W        W74462  11.153  44.900   2.761
 2049W        W74463   7.806  20.750   4.224
 2050W        W74464   6.763   0.452   4.702
 2051W        W74465   4.364  44.359  11.120
 2052W        W74466  30.110  38.835  10.920
 2053W        W74467  34.080  43.347  11.601
 2054W        W74468   3.286  18.237   0.270
 2055W        W74469  14.718  17.617   5.681
 2056W        W74470  20.074   8.692  11.109
 2057W        W74471  31.602  43.910   1.249
 2058W        W74472  31.126   0.402  12.028
 2059W        W74473  41.524  25.997  11.931
 2060W        W74474   6.909  17.565   0.484
 2061W        W74475  28.962  25.565   0.894
 2062W        W74476   5.251   3.298  14.359
 2063W        W74477  20.543  24.509   0.372
 2064W        W74478   2.882   1.279   4.805
 2065W        W74479   2.456  13.701  10.979
 2066W        W74480  18.550  41.008  13.509
 2067W        W74481  29.016  26.564  10.431
 2068W        W74482   6.279  21.629  10.450
 2069W        W74483  36.964  12.212  12.945
 2070W        W74484  23.064  13.688  14.843
 2071W        W74485  36.411   6.744   2.671
 2072W        W74486  39.391  15.270  11.928
 2073W        W74487  15.577  31.499   4.828
 2074W        W74488  38.555  24.035  11.593
 2075W        W74489   7.276  31.980  12.896
 2076W        W74490  10.284  29.497   0.434
 2077W        W74491  12.178  13.332   1.323
 2078W        W74492  12.120  44.764  12.952
 2079W        W74493   3.914  33.620  14.976
 2080W        W74494  17.247   9.800  13.371
 2081W        W74495  17.725  22.552  14.890
 2082W        W74496  35.500   5.238  12.871
 2083W        W74497  36.391   6.368  13.308
 2084W        W74498  43.817  27.002  13.024
 2085W        W74499  43.315  39.929  12.016
 2086W        W74500  38.933  18.227   3.677
 2087W        W74501  37.500  43.389   0.912
 2088W        W74502  35.867  16.715  13.791
 2089W        W74503  36.947   9.858  14.785
 2090W        W74504  18.071   4.895   4.838
 2091W        W74505  17.675  27.062  12.563
 2092W        W74506   4.904  31.521   2.398
 2093W        W74507  18.605  36.031  13.921
 2094W        W74508  23.572  35.389  13.433
 2095W        W74509  23.661  30.963  12.435
 2096W        W74510   5.701  36.384  12.579
 2097W        W74511  26.974   7.412  14.348
 2098W        W74512  11.161  27.502  11.902
 2099W        W74513  42.429  27.180   1.371
 2100W        W74514   9.224   9.769   0.308
 2101W        W74515  31.569  42.347  14.430
 2102W        W74516  14.589  35.089   3.738
 2103W        W74517  20.093  22.206  14.309
 2104W        W74518   2.921  39.437  13.495
 2105W        W74519  17.771  44.807  10.533
 2106W        W74520  26.475  22.154   4.160
 2107W        W74521  19.172  19.263  13.338
 2108W        W74522  27.119  34.007  14.392
 2109W        W74523  44.472  15.310  12.877
 2110W        W74524  30.579  18.676   4.792
 2111W        W74525  28.494  30.568   1.329
 2112W        W74526   5.275   2.325   1.277
 2113W        W74527  32.578  26.167  12.438
 2114W        W74528  21.579  19.059   3.831
 2115W        W74529  32.142   2.449   5.120
 2116W        W74530  30.929   6.904   3.791
 2117W        W74531  24.682  10.175   3.757
 2118W        W74532  27.576   3.393   1.227
 2119W        W74533  23.696  36.567  13.964
 2120W        W74534  31.023  37.345  11.891
 2121W        W74535   8.391  24.500  13.386
 2122W        W74536  22.233  33.408  13.465
 2123W        W74537  32.441  36.396   0.932
 2124W        W74538  40.920  34.964   2.832
 2125W        W74539  13.277  34.575   1.836
 2126W        W74540  14.102  12.264  12.439
 2127W        W74541  22.672  30.067  14.906
 2128W        W74542   9.322  21.578  11.072
 2129W        W74543   3.404  14.295  11.942
 2130W        W74544   7.753  35.516  12.891
 2131W        W74545  11.224  43.842  11.427
 2132W        W74546   3.334  17.232   4.133
 2133W        W74547   1.878  40.327  12.545
 2134W        W74548  38.833  19.613   3.169
 2135W        W74549  22.688   3.331  13.001
 2136W        W74550   6.194  19.172   0.314
 2137W        W74551  28.114  12.793   1.744
 2138W        W74552  40.903  28.573   1.875
 2139W        W74553  33.495  21.611  11.971
 2140W        W74554  31.528  30.924  12.938
 2141W        W74555   0.307  33.585   4.306
 2142W        W74556  10.680  44.281   0.798
 2143W        W74557  37.847  33.875   3.691
 2144W        W74558  26.700  28.945   3.387
 2145W        W74559  18.704  13.610   1.220
 2146W        W74560  10.702  33.622   2.277
 2147W        W74561  44.377   8.890   4.789
 2148W        W74562  15.250   3.861  13.923
 2149W        W74563  15.815  39.940  12.982
 2150W        W74564  42.364   4.753   4.195
 2151W        W74565  11.852  18.567   1.447
 2152W        W74566  34.506  28.929   3.338
 2153W        W74567  26.504  35.077  12.877
 2154W        W74568  23.096  22.209   3.855
 2155W        W74569  17.706  32.495  11.436
 2156W        W74570   9.324   0.298   2.189
 2157W        W74571  21.570  41.381  13.047
 2158W        W74572  12.719  20.654   2.236
 2159W        W74573  32.082  32.627  12.984
 2160W        W74574  19.698   9.283   3.271
 2161W        W74575   2.951  25.989  14.390
 2162W        W74576  39.011   8.743  11.037
 2163W        W74577  37.483  12.301   0.897
 2164W        W74578   4.296  44.291  10.586
 2165W        W74579  42.315  20.546   2.852
 2166W        W74580  38.437  42.920   3.807
 2167W        W74581  36.013   6.258   2.704
 2168W        W74582   6.773  25.184  13.914
 2169W        W74583  38.824  37.070   1.892
 2170W        W74584  35.868  33.568  13.316
 2171W        W74585   7.173  26.630   0.287
 2172W        W74586  39.891  33.888  10.957
 2173W        W74587   4.740  16.616   1.354
 2174W        W74588   5.400  39.986  13.547
 2175W        W74589  19.697  44.781  13.471
 2176W        W74590  31.420  25.085   4.309
 2177W        W74591  15.771  39.017  13.391
 2178W        W74592  31.923  44.966   3.189
 2179W        W74593   6.407  37.561   4.136
 2180W        W74594  15.116  22.010  12.363
 2181W        W74595  40.030  25.602  10.409
 2182W        W74596  35.450  14.697   0.834
 2183W        W74597  41.966  44.834   3.678
 2184W        W74598  37.875   6.236   3.653
 2185W        W74599   5.385  10.146   2.716
 2186W        W74600  26.585  35.963  13.056
 2187W        W74601  16.759  24.193  12.406
 2188W        W74602   5.332   3.737  11.043
 2189W        W74603  22.039   8.358   3.333
 2190W        W74604   7.316  38.560   1.226
 2191W        W74605  23.000  19.160   4.619
 2192W        W74606   2.929  32.142  11.009
 2193W        W74607  24.043  33.061   3.863
 2194W        W74608  25.144  28.151   3.251
 2195W        W74609  43.880  37.506   2.796
 2196W        W74610  17.167  11.365   4.217
 2197W        W74611  20.523  33.046  12.839
 2198W        W74612   4.421   4.375   3.277
 2199W        W74613  40.545  37.519  13.793
 2200W        W74614   4.433  11.862  13.377
 2201W        W74615  32.432  14.607   2.810
 2202W        W74616  42.032  23.076   1.799
 2203W        W74617  10.662  22.243   2.329
 2204W        W74618  37.852   8.696   1.768
 2205W        W74619  21.214   8.200   4.227
 2206W        W74620  23.116  37.902   1.331
 2207W        W74621  30.565  22.020   2.825
 2208W        W74622  11.638  17.727   0.919
 2209W        W74623  37.078  38.333  10.637
 2210W        W74624  28.617  28.093  12.401
 2211W        W74625  17.787  15.627  10.414
 2212W        W74626  32.979  12.616   3.293
 2213W        W74627  13.658   4.916   1.349
 2214W        W74628  36.084  10.168  10.056
 2215W        W74629  30.539  28.171   3.287
 2216W        W74630   6.189   3.819  14.496
 2217W        W74631  16.292  35.359   2.251
 2218W        W74632  36.042  14.613  11.557
 2219W        W74633  24.489  44.889  12.978
 2220W        W74634  28.051   4.436  12.460
 2221W        W74635  39.532  17.070  11.568
 2222W        W74636  16.299  38.570  13.424
 2223W        W74637  17.663  32.589   0.860
 2224W        W74638  29.449   4.797  13.389
 2225W        W74639   8.175  27.097   2.868
 2226W        W74640  26.574   6.820  10.617
 2227W        W74641  15.648  14.610   5.208
 2228W        W74642  13.676  14.722   1.256
 2229W        W74643  23.171  39.979   1.856
 2230W        W74644   4.328   9.224   1.237
 2231W        W74645  21.563  42.028  13.018
 2232W        W74646   6.803   9.758   2.297
 2233W        W74647  31.149  16.178  11.051
 2234W        W74648  31.495  11.759  12.017
 2235W        W74649   2.843  40.514  10.058
 2236W        W74650  27.492   8.772   0.864
 2237W        W74651  28.174  38.913  10.124
 2238W        W74652  34.091  14.764  13.009
 2239W        W74653  44.860  16.782  11.936
 2240W        W74654  36.863  41.360   0.866
 2241W        W74655  16.595  19.216  12.888
 2242W        W74656   0.853  38.881  10.988
 2243W        W74657  26.516   6.770   4.697
 2244W        W74658  22.684   0.442   3.305
 2245W        W74659  24.074  42.904   3.178
 2246W        W74660  26.609  30.942  13.819
 2247W        W74661  29.005  26.566  12.480
 2248W        W74662  20.656  19.205   1.436
 2249W        W74663   9.774  38.033   4.217
 2250W        W74664   8.392  32.625   2.867
 2251W        W74665  14.748  41.443  12.997
 2252W        W74666   4.863  14.640   3.357
 2253W        W74667  40.367  22.198  12.972
 2254W        W74668  31.991  44.006  10.107
 2255W        W74669  24.722  13.251  13.858
 2256W        W74670  26.047  15.293   1.838
 2257W        W74671  11.259  44.289  12.355
 2258W        W74672  32.459   3.750  12.428
 2259W        W74673  33.015   9.845   3.193
 2260W        W74674  33.430  14.595  14.846
 2261W        W74675  21.604   1.784   0.942
 2262W        W74676  21.188  14.280   0.818
 2263W        W74677  11.373  15.319   2.384
 2264W        W74678  21.042  44.906   4.161
 2265W        W74679   0.471  12.167   4.812
 2266W        W74680  18.545   8.779   3.711
 2267W        W74681  33.597  39.935   0.820
 2268W        W74682  14.227  38.523   3.855
 2269W        W74683  31.608  36.416   4.154
 2270W        W74684  32.412   1.340  11.594
 2271W        W74685   9.287  26.551   9.978
 2272W        W74686  16.100  14.221  14.478
 2273W        W74687  39.814  39.972   2.890
 2274W        W74688   4.339   2.452   3.635
 2275W        W74689  33.081   6.217  11.884
 2276W        W74690  43.850  35.069  14.923
 2277W        W74691   3.895  12.639  12.892
 2278W        W74692  12.611  19.729  10.889
 2279W        W74693  25.575   0.494   0.888
 2280W        W74694  24.526  39.396  13.043
 2281W        W74695  31.044   6.239   4.292
 2282W        W74696  19.196  41.993  11.508
 2283W        W74697  37.474  42.426  14.515
 2284W        W74698  23.091   4.762  14.918
 2285W        W74699  36.480  16.302   2.699
 2286W        W74700  23.136  17.742   2.237
 2287W        W74701  33.585  10.867   9.936
 2288W        W74702  18.651  31.577   2.396
 2289W        W74703   7.754   0.864  11.029
 2290W        W74704  15.314  35.098   3.168
 2291W        W74705  16.078  18.196   2.714
 2292W        W74706  38.372  30.919   2.225
 2293W        W74707  40.958  30.118  13.829
 2294W        W74708  36.482  31.508  11.941
 2295W        W74709  16.577  36.879   0.251
 2296W        W74710  19.712   7.366  12.895
 2297W        W74711   5.736  18.723  11.973
 2298W        W74712  33.487  43.849   0.924
 2299W        W74713  36.882  16.291  14.913
 2300W        W74714  28.016  22.153   4.713
 2301W        W74715  26.105  29.640  14.319
 2302W        W74716  42.490  20.693  11.417
 2303W        W74717  17.693  37.401  11.587
 2304W        W74718  44.267  29.496   3.154
 2305W        W74719  16.754   3.453  13.463
 2306W        W74720  24.694   5.381   2.771
 2307W        W74721  10.751  39.437  11.594
 2308W        W74722  38.909  32.404   1.772
 2309W        W74723  41.831  19.764   3.311
 2310W        W74724  17.583  24.080  10.472
 2311W        W74725  29.956  42.479   3.821
 2312W        W74726  29.542  11.364   2.850
 2313W        W74727  14.169  11.166  12.061
 2314W        W74728  42.856   8.791   3.175
 2315W        W74729  11.841  19.042   0.309
 2316W        W74730  20.525  18.201   2.349
 2317W        W74731  28.022   0.286  13.023
 2318W        W74732  25.056  38.898  12.525
 2319W        W74733   7.677  28.644  14.020
 2320W        W74734  32.986   2.437   4.767
 2321W        W74735  13.811  36.592  11.462
 2322W        W74736  25.042   9.169  11.932
 2323W        W74737  29.508  14.760   4.230
 2324W        W74738  42.384  10.291   3.198
 2325W        W74739  11.360  38.070   2.670
 2326W        W74740  10.791  37.080  11.401
 2327W        W74741  35.076  18.663   4.768
 2328W        W74742  40.877  37.077  11.973
 2329W        W74743  23.504  36.962   1.895
 2330W        W74744   1.315  40.843  14.344
 2331W        W74745   8.663   4.357  12.014
 2332W        W74746   0.439  20.638   2.338
 2333W        W74747  33.451  19.238   3.186
 2334W        W74748   4.780   3.896   1.777
 2335W        W74749  36.071   9.347  14.778
 2336W        W74750  18.070  38.326  11.490
 2337W        W74751  37.480  43.842   4.599
 2338W        W74752  25.053  31.448   4.786
 2339W        W74753   6.819  34.425   3.367
 2340W        W74754  23.645  28.953   3.335
 2341W        W74755  11.365   0.435  13.998
 2342W        W74756  27.962  35.372   4.811
 2343W        W74757  42.400  22.196   2.186
 2344W        W74758  23.701  23.084  14.368
 2345W        W74759  13.226  24.051   4.701
 2346W        W74760  26.117  10.367   3.862
 2347W        W74761  27.024  18.124   2.349
 2348W        W74762   7.687   8.870  11.558
 2349W        W74763  44.295  10.844   3.178
 2350W        W74764   2.286  41.315  12.469
 2351W        W74765   5.717   3.445   4.772
 2352W        W74766  20.153   8.735   4.622
 2353W        W74767  35.411   7.179   3.193
 2354W        W74768  32.009  30.063  12.919
 2355W        W74769  14.684   8.811   1.854
 2356W        W74770  39.946   7.393   1.328
 2357W        W74771  14.261  25.114  12.554
 2358W        W74772  17.676  19.628   2.292
 2359W        W74773   3.351  26.014  13.398
 2360W        W74774  39.395  26.544   3.342
 2361W        W74775  24.604  16.186  10.085
 2362W        W74776  12.185  33.615   3.152
 2363W        W74777  33.939  36.415   3.812
 2364W        W74778  11.844  33.530   4.615
 2365W        W74779  17.620  38.548   2.310
 2366W        W74780  23.992  17.648   5.260
 2367W        W74781   5.867  44.483   3.771
 2368W        W74782   2.341  25.529   3.841
 2369W        W74783  23.679  12.331   2.282
 2370W        W74784  39.046  38.514  13.507
 2371W        W74785   4.758  39.932  13.383
 2372W        W74786  31.408  29.929  14.848
 2373W        W74787  26.056  39.495  12.467
 2374W        W74788   9.244  41.015  11.974
 2375W        W74789   3.816  27.124   1.423
 2376W        W74790  23.144  39.886  14.797
 2377W        W74791  42.010  16.280   1.846
 2378W        W74792  12.756   0.986   2.310
 2379W        W74793  32.423  15.729  10.594
 2380W        W74794  36.411   1.966  11.521
 2381W        W74795  41.881  30.977   2.757
 2382W        W74796   5.203  42.835   4.158
 2383W        W74797   5.864  28.104   0.260
 2384W        W74798  23.669  41.976   4.320
 2385W        W74799   0.278  12.217  14.933
 2386W        W74800  17.244   2.876  10.938
 2387W        W74801  13.232   7.878  14.404
 2388W        W74802  33.454  37.975   4.213
 2389W        W74803  34.960  27.169   4.351
 2390W        W74804  12.333  44.283   3.201
 2391W        W74805  42.452  11.192   4.641
 2392W        W74806  20.077  12.621   3.363
 2393W        W74807  28.576   9.235   3.845
 2394W        W74808  15.583   9.650   5.088
 2395W        W74809   6.694  13.273  10.987
 2396W        W74810  34.564   0.430   3.155
 2397W        W74811  28.929  23.126   3.357
 2398W        W74812  18.737   8.876  13.919
 2399W        W74813  38.339   6.728  10.580
 2400W        W74814  44.852  28.616   3.869
 2401W        W74815  25.565   1.397   2.273
 2402W        W74816  13.185  12.788   2.211
 2403W        W74817  14.773  34.508  14.940
 2404W        W74818  31.075  35.015   0.847
 2405W        W74819  39.046   2.365   1.391
 2406W        W74820  14.722  14.649  13.881
 2407W        W74821  22.046  30.029  11.450
 2408W        W74822  29.042  13.348  10.926
 2409W        W74823  22.149  12.192  14.919
 2410W        W74824  35.537  34.552   9.479
 2411W        W74825   2.783  23.195   0.415
 2412W        W74826  25.685  18.249  13.855
 2413W        W74827  24.507  22.514  10.403
 2414W        W74828  26.980   7.293   3.363
 2415W        W74829  32.895  34.904  12.484
 2416W        W74830  17.611  42.925  10.972
 2417W        W74831  35.547  29.126  10.528
 2418W        W74832  34.460  36.083  12.563
 2419W        W74833  35.068  37.511   1.220
 2420W        W74834  16.168   9.775   1.884
 2421W        W74835  16.309   8.733  11.441
 2422W        W74836   9.770  28.580   0.830
 2423W        W74837  18.131  15.816   3.362
 2424W        W74838  30.159  24.663  11.982
 2425W        W74839   4.361  11.142  12.023
 2426W        W74840  16.800  35.981  11.531
 2427W        W74841  37.035  38.866   1.892
 2428W        W74842  30.913  26.636   1.400
 2429W        W74843  31.125  44.986  12.843
 2430W        W74844  27.001   6.735   4.343
 2431W        W74845  20.653  21.063   2.822
 2432W        W74846  19.618  29.952  10.540
 2433W        W74847  18.587   8.164   3.662
 2434W        W74848  16.590  43.307  14.375
 2435W        W74849   5.849  18.114  12.341
 2436W        W74850   3.716  42.792   4.296
 2437W        W74851  34.442  23.697  10.534
 2438W        W74852   3.379  17.588  14.865
 2439W        W74853   2.336  17.211  14.889
 2440W        W74854  42.411  17.075   1.762
 2441W        W74855  23.208  32.916  11.014
 2442W        W74856  36.547  41.396   4.266
 2443W        W74857   7.756  22.240  11.111
 2444W        W74858  22.586  20.714  13.496
 2445W        W74859  20.136  11.169   1.338
 2446W        W74860  10.747  28.144   1.409
 2447W        W74861  36.449  16.275  10.523
 2448W        W74862  23.133  15.098  14.946
 2449W        W74863  31.036  31.417  13.456
 2450W        W74864  10.805  12.236   2.186
 2451W        W74865  25.017  18.155  11.055
 2452W        W74866   3.350   5.262  11.524
 2453W        W74867  25.584  25.137   0.799
 2454W        W74868  37.355  15.237  14.816
 2455W        W74869  12.121  41.523   4.670
 2456W        W74870  24.185  10.722   0.886
 2457W        W74871  18.654  44.365   5.161
 2458W        W74872  15.133  24.618   2.227
 2459W        W74873  22.603  43.458  11.917
 2460W        W74874  41.416  14.103   4.726
 2461W        W74875  20.692  30.555   2.839
 2462W        W74876  22.713   5.358   1.721
 2463W        W74877  38.931  12.641   2.754
 2464W        W74878  14.781  40.514  14.468
 2465W        W74879  35.389  20.761  14.787
 2466W        W74880  22.057  19.647  11.611
 2467W        W74881  30.022  14.750  12.027
 2468W        W74882  14.261  12.681   3.870
 2469W        W74883  12.666   5.211   1.785
 2470W        W74884  37.442   4.896   3.741
 2471W        W74885   5.219  44.424   2.800
 2472W        W74886  31.907   3.740  11.865
 2473W        W74887   2.430  35.870   1.213
 2474W        W74888  42.879  18.210   0.362
 2475W        W74889  33.605  34.498  11.060
 2476W        W74890  34.453   1.746  11.594
 2477W        W74891  14.830  32.903  11.102
 2478W        W74892   4.391   0.315  14.977
 2479W        W74893  27.976   3.724  10.443
 2480W        W74894  29.947  39.424  10.911
 2481W        W74895  18.145  10.872  12.560
 2482W        W74896  19.041  23.121   1.327
 2483W        W74897   8.380   2.400   1.372
 2484W        W74898  37.347  13.824  13.925
 2485W        W74899  29.036  31.441   2.411
 2486W        W74900  18.078  24.505   3.305
 2487W        W74901  11.672  36.895   2.780
 2488W        W74902  20.103  32.516   2.265
 2489W        W74903  29.094  23.994   2.788
 2490W        W74904  18.620  34.379  13.870
 2491W        W74905  25.076  41.810  13.058
 2492W        W74906  35.404  19.174  13.975
 2493W        W74907  36.387  27.989   4.330
 2494W        W74908  14.211  18.724   2.740
 2495W        W74909  20.752  33.005  11.478
 2496W        W74910  39.900  29.055  12.387
 2497W        W74911  24.694  33.555  12.023
 2498W        W74912  22.545  22.598  10.480
 2499W        W74913  19.176   9.151   1.707
 2500W        W74914  22.673  32.141   0.861
 2501W        W74915  30.082   0.924   0.795
 2502W        W74916  40.469  17.788   2.326
 2503W        W74917   5.800  32.392  11.059
 2504W        W74918   7.409  31.512   4.731
 2505W        W74919  23.229  33.436  10.480
 2506W        W74920   1.859   0.390  11.070
 2507W        W74921  29.583   7.794   4.255
 2508W        W74922  33.522  37.511  13.408
 2509W        W74923   2.781  38.843   2.800
 2510W        W74924  39.510  18.684  11.077
 2511W        W74925   3.714   3.950   1.902
 2512W        W74926  10.236  44.403  13.361
 2513W        W74927   5.843  37.436  13.473
 2514W        W74928  38.495   8.362   1.739
 2515W        W74929  13.699  15.220  13.387
 2516W        W74930  34.515  34.958   2.359
 2517W        W74931  17.671  11.836   0.820
 2518W        W74932  25.580   5.931   1.782
 2519W        W74933   1.481   4.233  11.931
 2520W        W74934  31.066   7.843   0.774
 2521W        W74935  31.594  13.108   0.948
 2522W        W74936  17.097  24.683  11.426
 2523W        W74937  44.824  37.852   1.369
 2524W        W74938  23.674  38.438   0.895
 2525W        W74939  21.583  35.470   3.742
 2526W        W74940  31.431  17.280  12.054
 2527W        W74941  16.262   4.927  13.061
 2528W        W74942  37.066   9.818   4.254
 2529W        W74943  31.458  29.499   3.797
 2530W        W74944  13.785   5.711  14.346
 2531W        W74945   5.310  26.525  10.434
 2532W        W74946  36.382   2.940  12.962
 2533W        W74947  24.497  30.420  11.104
 2534W        W74948  24.117  11.207   1.739
 2535W        W74949  23.512  23.711  14.796
 2536W        W74950   8.866  23.663   4.718
 2537W        W74951   6.424  40.026  11.387
 2538W        W74952  42.809  30.076  12.491
 2539W        W74953  24.077  21.109   0.850
 2540W        W74954  15.758  10.647   4.701
 2541W        W74955  32.570  10.783  12.477
 2542W        W74956   0.773  37.540  14.497
 2543W        W74957   4.840  39.483  11.431
 2544W        W74958   0.915   2.367   4.189
 2545W        W74959  17.104  36.094   1.240
 2546W        W74960  30.418  15.237  13.839
 2547W        W74961  34.062  15.768   4.314
 2548W        W74962  29.099   3.736   4.740
 2549W        W74963  33.550  13.721  14.853
 2550W        W74964  38.978  27.027   2.718
 2551W        W74965  33.544  25.186  10.524
 2552W        W74966  11.826   6.419  12.434
 2553W        W74967  12.660  11.197  13.971
 2554W        W74968  26.648   7.732  14.862
 2555W        W74969   7.893  34.570  14.913
 2556W        W74970  12.613  27.632   2.367
 2557W        W74971  43.331  14.748  14.905
 2558W        W74972  29.605  23.005  13.400
 2559W        W74973  12.136  24.037  11.467
 2560W        W74974  10.294  17.714  10.602
 2561W        W74975  44.934  39.057   3.203
 2562W        W74976  21.533   1.284  12.372
 2563W        W74977  21.042   7.188  13.916
 2564W        W74978  15.225   2.331   0.426
 2565W        W74979  25.633  42.930   3.630
 2566W        W74980   3.361   3.743  12.532
 2567W        W74981  43.432  12.614   3.773
 2568W        W74982  16.211   3.853   3.749
 2569W        W74983   5.370  40.464   9.617
 2570W        W74984  10.796  43.021  10.004
 2571W        W74985  23.100  21.609  14.425
 2572W        W74986  28.466  27.568   1.388
 2573W        W74987  30.444  29.127   4.647
 2574W        W74988  12.805   4.741   4.350
 2575W        W74989  14.221  33.919  13.036
 2576W        W74990  33.887  41.987   1.896
 2577W        W74991   1.734  21.576  11.061
 2578W        W74992  27.997  34.411  14.900
 2579W        W74993  20.238  20.149  12.551
 2580W        W74994  21.187  23.221   3.192
 2581W        W74995  31.950   4.239  10.630
 2582W        W74996  30.512  14.828   1.264
 2583W        W74997  37.984  29.996  13.460
 2584W        W74998  28.584   0.905   2.816
 2585W        W74999  24.221  12.137   4.823
 2586W        W75000  37.950   7.349  14.766
 2587W        W75001  21.208   3.323   0.449
 2588W        W75002   3.441  29.521   2.230
 2589W        W75003  22.521  18.788   1.272
 2590W        W75004  23.993  15.635   4.274
 2591W        W75005  12.210   5.339   4.699
 2592W        W75006  39.515  25.516  13.337
 2593W        W75007   6.757   1.363   1.369
 2594W        W75008  37.889   3.244   0.386
 2595W        W75009   5.733  36.039   0.907
 2596W        W75010  24.046  24.660  11.924
 2597W        W75011  17.668  33.885  12.078
 2598W        W75012  16.110  28.482  10.943
 2599W        W75013  13.254  17.800  11.011
 2600W        W75014  44.319  38.951  11.378
 2601W        W75015   1.832  35.510  13.885
 2602W        W75016  37.466  14.172  10.457
 2603W        W75017   6.920   9.662   3.357
 2604W        W75018  44.890  17.189  12.843
 2605W        W75019  22.606   8.361  14.440
 2606W        W75020   1.794   7.240  14.863
 2607W        W75021  42.391  42.329   3.331
 2608W        W75022  37.064   9.341  14.026
 2609W        W75023  42.784  23.157   2.761
 2610W        W75024  39.439  15.103  14.834
 2611W        W75025  30.993  41.908   3.162
 2612W        W75026   0.907  39.490   3.657
 2613W        W75027   4.744   9.846  11.605
 2614W        W75028  27.158  22.713  10.458
 2615W        W75029   8.681  35.490   0.290
 2616W        W75030  35.485  29.523   4.835
 2617W        W75031  19.081  23.682  10.947
 2618W        W75032   0.391   5.825  13.516
 2619W        W75033   2.811  19.646  12.355
 2620W        W75034  40.358  33.444  14.773
 2621W        W75035   5.322   3.351  11.891
 2622W        W75036   6.883   8.821  12.864
 2623W        W75037   4.826  27.083  14.289
 2624W        W75038  18.159  34.030  14.465
 2625W        W75039  15.749   7.805  14.983
 2626W        W75040  43.376   0.943   4.132
 2627W        W75041   1.347   8.769  13.312
 2628W        W75042  18.630  12.785   0.346
 2629W        W75043   4.261  10.278   3.196
 2630W        W75044  32.635  10.744   3.309
 2631W        W75045  26.663  11.330  14.361
 2632W        W75046  18.788  20.217  13.893
 2633W        W75047   8.832  19.192  11.935
 2634W        W75048  26.665  20.154   3.750
 2635W        W75049  17.061  15.776  11.531
 2636W        W75050  16.602  41.921   3.680
 2637W        W75051  38.352   2.772  13.475
 2638W        W75052  26.975  10.691   1.747
 2639W        W75053   2.835  36.507   0.770
 2640W        W75054   0.426  33.543   2.399
 2641W        W75055  25.624  14.644   4.777
 2642W        W75056  14.729  38.398  12.922
 2643W        W75057  36.559   4.710   0.275
 2644W        W75058   6.851  38.570  11.948
 2645W        W75059  13.700  33.403   1.363
 2646W        W75060  18.680  12.345   2.398
 2647W        W75061   3.768   7.395  11.916
 2648W        W75062  18.295  30.427  13.939
 2649W        W75063  38.346  22.656  12.968
 2650W        W75064  33.513   8.743  12.937
 2651W        W75065   0.901  36.546  10.452
 2652W        W75066  17.667   6.729   4.710
 2653W        W75067   0.444  36.590  13.001
 2654W        W75068  44.896  20.059  12.409
 2655W        W75069  19.253  43.812  10.636
 2656W        W75070  20.743  26.966  12.047
 2657W        W75071  12.291  21.639   1.711
 2658W        W75072  33.499  42.964  10.050
 2659W        W75073   7.679   5.723  14.925
 2660W        W75074  42.935  42.366   2.728
 2661W        W75075   5.294  40.392  11.461
 2662W        W75076   6.316  35.977  10.538
 2663W        W75077  27.951  33.933  14.784
 2664W        W75078   6.412  39.387   1.907
 2665W        W75079  12.132  32.110   0.936
 2666W        W75080  32.546  33.500  12.933
 2667W        W75081  27.680  22.075  12.391
 2668W        W75082  44.483  33.482   3.687
 2669W        W75083  23.145   7.707  14.470
 2670W        W75084  42.006   3.215   2.283
 2671W        W75085   9.222  36.881   3.785
 2672W        W75086   4.218  10.216  13.516
 2673W        W75087  37.866   7.381  12.021
 2674W        W75088  32.106   2.420   1.290
 2675W        W75089   3.916  12.614   1.881
 2676W        W75090  36.844  43.434   4.238
 2677W        W75091  22.650  12.348  10.609
 2678W        W75092   2.753  15.687   0.748
 2679W        W75093  10.361  26.656   9.923
 2680W        W75094  14.781  43.772   3.787
 2681W        W75095  33.519  15.639   0.747
 2682W        W75096  34.587  25.631  11.932
 2683W        W75097  26.484  42.375   2.385
 2684W        W75098  21.647  17.780  13.511
 2685W        W75099   9.885  25.507  12.571
 2686W        W75100  22.686  39.371  10.459
 2687W        W75101  27.494  27.669  10.438
 2688W        W75102  28.483  38.326   2.739
 2689W        W75103  17.756  15.771   4.627
 2690W        W75104  13.698  20.677   3.213
 2691W        W75105  31.469  10.685  11.514
 2692W        W75106  13.273  40.931   2.265
 2693W        W75107   9.829  33.968   0.726
 2694W        W75108  34.905  39.396   4.830
 2695W        W75109  42.368   9.233  11.016
 2696W        W75110  20.259  30.486  11.524
 2697W        W75111  32.111  22.123  14.837
 2698W        W75112   1.394  20.075   2.669
 2699W        W75113  13.650  17.558   4.115
 2700W        W75114  16.292  31.628   4.144
 2701W        W75115   7.397  12.731   4.196
 2702W        W75116   1.848   6.376   3.764
 2703W        W75117  36.534  21.213   0.395
 2704W        W75118   4.851  17.081  11.978
 2705W        W75119  28.968  26.563   4.653
 2706W        W75120   8.182  40.403  11.547
 2707W        W75121  32.403   7.826   2.889
 2708W        W75122  29.496  19.203  13.403
 2709W        W75123   6.328  14.688   3.181
 2710W        W75124  17.165  16.162   2.206
 2711W        W75125  36.949  19.090   2.822
 2712W        W75126  42.297  28.575   2.216
 2713W        W75127  18.169   5.274  10.453
 2714W        W75128  42.503  30.131  14.824
 2715W        W75129  31.532  22.091  12.009
 2716W        W75130  40.856  20.198   0.437
 2717W        W75131   2.415   7.719   0.878
 2718W        W75132  32.120  19.159   3.343
 2719W        W75133  41.483  24.571   1.283
 2720W        W75134  37.881  26.113   0.468
 2721W        W75135  44.454  21.026  10.116
 2722W        W75136  43.345  35.474   1.314
 2723W        W75137   8.232  10.302   1.437
 2724W        W75138  30.593  33.552   4.297
 2725W        W75139  24.704  40.513   3.360
 2726W        W75140  41.036  20.642  11.080
 2727W        W75141   5.362   3.733  13.988
 2728W        W75142  35.564  38.401  10.473
 2729W        W75143  16.603  12.161   0.733
 2730W        W75144  22.124  11.680  12.851
 2731W        W75145  10.704   6.859   2.268
 2732W        W75146  37.385   5.421  10.408
 2733W        W75147  34.508  33.072  10.548
 2734W        W75148  24.654  11.321  12.405
 2735W        W75149  28.005  19.189   0.850
 2736W        W75150  11.323  33.387   2.419
 2737W        W75151  30.656  39.910   4.716
 2738W        W75152   3.432  20.765   3.730
 2739W        W75153  24.486  28.077  11.946
 2740W        W75154   1.389  17.651   2.394
 2741W        W75155  30.586   9.268  10.465
 2742W        W75156  27.053   5.240   2.848
 2743W        W75157   9.354  33.499   4.643
 2744W        W75158   9.856  34.885  12.495
 2745W        W75159  31.007  27.147  12.451
 2746W        W75160  19.615  15.597   4.274
 2747W        W75161  42.527  31.429  13.378
 2748W        W75162  22.707  18.780   2.817
 2749W        W75163   2.253  21.252   3.183
 2750W        W75164  18.278  30.556  11.917
 2751W        W75165  17.194  36.956  11.965
 2752W        W75166  27.508  18.732   4.800
 2753W        W75167   8.195   4.780  11.863
 2754W        W75168  38.467   8.675   1.424
 2755W        W75169  40.354  32.632  12.889
 2756W        W75170  21.142  21.664   0.363
 2757W        W75171  11.171  37.404   5.246
 2758W        W75172   8.873  30.115   1.844
 2759W        W75173  40.421   4.817   4.733
 2760W        W75174  32.913  28.941  14.367
 2761W        W75175  14.112   4.886  14.475
 2762W        W75176  32.054  11.357  10.413
 2763W        W75177  27.170  22.539   1.754
 2764W        W75178   4.893  21.242  14.778
 2765W        W75179  37.557  38.541  12.902
 2766W        W75180  10.157  13.128   1.361
 2767W        W75181  42.904  24.058  10.449
 2768W        W75182  17.264  11.198   2.852
 2769W        W75183  38.941  39.842  10.411
 2770W        W75184  42.953  44.344   0.822
 2771W        W75185  20.585  15.614  14.808
 2772W        W75186  41.960   6.764   4.227
 2773W        W75187  22.062  20.065  12.013
 2774W        W75188  37.844  43.481   0.263
 2775W        W75189   9.187  33.511   2.335
 2776W        W75190   5.272  44.986   2.750
 2777W        W75191  12.629  20.128  13.425
 2778W        W75192  16.162  16.158  13.324
 2779W        W75193  40.030   7.802  14.513
 2780W        W75194  18.554   2.283  13.417
 2781W        W75195  38.456  17.204   2.414
 2782W        W75196  36.359   6.771  11.583
 2783W        W75197  42.487   9.808   3.296
 2784W        W75198   2.763  37.503  13.427
 2785W        W75199  30.002  34.422   2.369
 2786W        W75200  37.557   8.175   2.871
 2787W        W75201  34.525   4.430  14.304
 2788W        W75202  26.013   8.301  14.025
 2789W        W75203  34.905  17.170   0.791
 2790W        W75204  42.447  21.537   2.241
 2791W        W75205  38.072  14.680   0.483
 2792W        W75206  33.547  19.746  12.957
 2793W        W75207  21.253   2.269   0.356
 2794W        W75208  11.146  24.133  13.420
 2795W        W75209  26.647   9.671  14.966
 2796W        W75210   5.804  27.109   2.751
 2797W        W75211  30.949  31.933   4.605
 2798W        W75212   3.454  15.620   2.824
 2799W        W75213  41.933  39.025   0.268
 2800W        W75214  16.166  37.085  13.843
 2801W        W75215  40.041   7.909   1.701
 2802W        W75216  17.108  30.453   4.212
 2803W        W75217  18.641  36.028  13.063
 2804W        W75218  23.592   9.713   3.316
 2805W        W75219  35.862  15.173  13.445
 2806W        W75220  40.534  22.601   3.323
 2807W        W75221  23.588  12.197  12.364
 2808W        W75222   2.230  33.091  10.973
 2809W        W75223  38.406  17.668   3.250
 2810W        W75224   3.370  35.928   2.714
 2811W        W75225   3.268  44.945  11.899
 2812W        W75226  41.521  31.972  10.638
 2813W        W75227  23.212  29.544   0.947
 2814W        W75228   0.822  44.499  14.467
 2815W        W75229  44.265  21.019   0.955
 2816W        W75230  40.448   7.228  12.391
 2817W        W75231  27.967  31.009  10.998
 2818W        W75232  44.450   8.252   3.725
 2819W        W75233  12.756  42.447  10.534
 2820W        W75234  20.211  33.074   3.757
 2821W        W75235  21.588  34.514  12.555
 2822W        W75236  14.716  28.471   1.905
 2823W        W75237  21.661  34.060   0.441
 2824W        W75238   0.431  12.641   4.241
 2825W        W75239  12.813  25.699   2.672
 2826W        W75240  20.138  12.308  14.842
 2827W        W75241  38.378  43.997   4.329
 2828W        W75242  37.060  10.159   4.231
 2829W        W75243  36.458  41.808   2.683
 2830W        W75244   1.236  11.824  14.827
 2831W        W75245  39.384  12.791   4.763
 2832W        W75246  43.407  20.600   4.784
 2833W        W75247  37.066  19.560   2.783
 2834W        W75248  14.223   7.246  13.326
 2835W        W75249  44.371  12.274  14.361
 2836W        W75250   3.770   6.905  14.378
 2837W        W75251  34.391  16.156   2.812
 2838W        W75252  42.292   5.821   0.397
 2839W        W75253  26.197  38.438  11.379
 2840W        W75254  37.944  10.823   1.368
 2841W        W75255  37.534  18.131   4.764
 2842W        W75256  37.928   2.841  12.028
 2843W        W75257  13.174  31.563   2.238
 2844W        W75258   9.709  35.543  12.834
 2845W        W75259   9.235  40.853   0.422
 2846W        W75260  13.605   7.687   1.811
 2847W        W75261  26.532  28.524  12.485
 2848W        W75262  15.596  17.175  11.046
 2849W        W75263  43.467   8.684   1.352
 2850W        W75264   0.773  19.057   2.774
 2851W        W75265  18.053  32.018  13.424
 2852W        W75266  35.492  35.864  13.469
 2853W        W75267   1.439  10.209  14.515
 2854W        W75268  43.377  10.658   1.737
 2855W        W75269   4.397   6.801   4.617
 2856W        W75270   0.454   5.813  11.026
 2857W        W75271  15.706  44.499  13.530
 2858W        W75272  25.472  37.019   0.862
 2859W        W75273  22.028  22.521  13.381
 2860W        W75274  43.926  36.581  14.768
 2861W        W75275  40.996  40.518   4.262
 2862W        W75276  16.249  25.182  13.900
 2863W        W75277  34.393  27.086   2.188
 2864W        W75278  34.480   3.335   4.737
 2865W        W75279  27.627  10.674   0.815
 2866W        W75280  18.764  10.803   1.405
 2867W        W75281  37.837  40.320   2.766
 2868W        W75282  44.854   7.885  12.461
 2869W        W75283  35.434  41.040   3.222
 2870W        W75284  44.398   7.802  14.419
 2871W        W75285  33.424  16.308   4.330
 2872W        W75286  11.152  14.150   3.743
 2873W        W75287   7.386  39.538  12.913
 2874W        W75288   5.282  21.594  10.503
 2875W        W75289  19.741  27.463  13.323
 2876W        W75290   7.791  36.460  11.013
 2877W        W75291  43.823  25.494   3.351
 2878W        W75292  44.266  41.800   4.832
 2879W        W75293  42.971  41.311  12.501
 2880W        W75294  37.517   6.735   1.265
 2881W        W75295  10.213  42.956  11.110
 2882W        W75296  24.485  11.677  12.873
 2883W        W75297  14.790  30.950   2.841
 2884W        W75298   7.801  15.121   1.833
 2885W        W75299  11.729   8.388   3.851
 2886W        W75300  12.180  21.604   3.216
 2887W        W75301  27.562  13.335   1.814
 2888W        W75302   4.727  26.015  11.073
 2889W        W75303  12.316   9.342   3.154
 2890W        W75304  23.591  40.509  13.015
 2891W        W75305   2.466  28.465  11.491
 2892W        W75306  34.500  18.612  13.808
 2893W        W75307  36.919  13.288  10.555
 2894W        W75308  30.586  27.076   2.380
 2895W        W75309  32.569  14.104  13.537
 2896W        W75310  36.506  12.207  13.393
 2897W        W75311  44.376   7.193  14.381
 2898W        W75312  17.243   3.322  14.763
 2899W        W75313  38.961   1.262   2.378
 2900W        W75314   8.381  12.785   3.862
 2901W        W75315   2.739  37.423   0.293
 2902W        W75316  24.597  20.264  11.385
 2903W        W75317  22.708  12.256   3.350
 2904W        W75318  26.560   1.852   4.184
 2905W        W75319   7.228  37.955  11.403
 2906W        W75320  30.442  44.825  14.501
 2907W        W75321  30.489  32.589   4.782
 2908W        W75322  36.397   8.777  11.962
 2909W        W75323  25.048  21.026   2.207
 2910W        W75324  43.767   9.702   3.157
 2911W        W75325  36.495  39.842  13.537
 2912W        W75326  15.294  43.831  11.611
 2913W        W75327   4.753  44.415  11.394
 2914W        W75328   7.313   1.466   0.419
 2915W        W75329  44.294  14.219  12.407
 2916W        W75330   9.805  10.293  11.517
 2917W        W75331  29.943  43.974  11.507
 2918W        W75332  25.506  35.002  14.844
 2919W        W75333  33.446  22.218   5.276
 2920W        W75334  34.969  19.262  10.561
 2921W        W75335  28.150   9.203  11.054
 2922W        W75336  13.724   1.415  14.417
 2923W        W75337  29.651  19.231   4.823
 2924W        W75338  17.655  17.697   4.599
 2925W        W75339  42.492   0.969  12.864
 2926W        W75340  34.881  40.835  12.571
 2927W        W75341  40.436  42.966  12.534
 2928W        W75342  35.891  38.016  10.994
 2929W        W75343  36.986  36.069   1.718
 2930W        W75344  42.821   3.223   2.216
 2931W        W75345  26.662  42.960   1.286
 2932W        W75346  37.945  11.852  11.373
 2933W        W75347  20.181  25.706   2.406
 2934W        W75348  33.564   0.335   4.730
 2935W        W75349  31.451  20.049   3.168
 2936W        W75350  27.994  42.408  11.040
 2937W        W75351  28.557  21.630   2.756
 2938W        W75352  28.634  15.128   3.799
 2939W        W75353  35.382   0.950  10.544
 2940W        W75354  37.456  30.482   0.429
 2941W        W75355  18.170  37.854  14.912
 2942W        W75356  19.220  40.975   2.743
 2943W        W75357  18.713  42.505  12.868
 2944W        W75358   3.419   0.319  14.848
 2945W        W75359  24.193  21.107  11.114
 2946W        W75360   8.182   5.336   3.803
 2947W        W75361  25.105  16.799   0.294
 2948W        W75362  39.549  25.180   2.217
 2949W        W75363  43.764  40.821  10.441
 2950W        W75364  18.289  23.031   4.166
 2951W        W75365   7.262  26.679  12.473
 2952W        W75366   5.422   3.857   0.286
 2953W        W75367   2.297  19.051   0.791
 2954W        W75368  23.673  23.127  13.846
 2955W        W75369   9.867  26.028   2.199
 2956W        W75370  10.379   9.857   4.700
 2957W        W75371  29.592   6.307   3.329
 2958W        W75372  16.314   3.783  12.456
 2959W        W75373  38.057   4.221  12.494
 2960W        W75374  41.392  44.261  13.017
 2961W        W75375  43.921  12.200  13.469
 2962W        W75376  32.591  12.357   3.692
 2963W        W75377  21.031  33.083  11.595
 2964W        W75378  20.617  26.495   3.365
 2965W        W75379   5.791  11.837   4.231
 2966W        W75380   0.910  17.116   4.134
 2967W        W75381  38.075  38.866   1.225
 2968W        W75382  19.639  37.944  13.929
 2969W        W75383   9.171  18.654  14.383
 2970W        W75384  30.644  16.176   0.815
 2971W        W75385  38.987  44.411   1.340
 2972W        W75386  23.654  17.682  10.549
 2973W        W75387  20.269  11.801   3.832
 2974W        W75388  22.604  24.051   3.866
 2975W        W75389  30.628  26.090  14.319
 2976W        W75390  10.641  24.016  14.912
 2977W        W75391  34.111  10.231  13.967
 2978W        W75392  30.010   9.214   3.657
 2979W        W75393  23.171   4.326  13.032
 2980W        W75394  28.070   4.379  11.040
 2981W        W75395  44.264  15.606  12.070
 2982W        W75396  10.264   8.739  13.055
 2983W        W75397  17.300  34.399  10.992
 2984W        W75398   9.231  16.662  10.913
 2985W        W75399  25.027  36.857  14.445
 2986W        W75400  41.876   4.316   0.839
 2987W        W75401  29.598   4.356   2.178
 2988W        W75402   6.302  30.934   4.167
 2989W        W75403  14.296  36.436  12.860
 2990W        W75404  27.944  15.678   2.694
 2991W        W75405   0.787  37.568   0.285
 2992W        W75406  22.586  16.108   3.670
 2993W        W75407   6.244  39.496   2.894
 2994W        W75408   7.721  28.031  10.966
 2995W        W75409  18.151  36.093  11.914
 2996W        W75410  36.571  32.621   0.412
 2997W        W75411  32.044  19.238  13.891
 2998W        W75412  29.589   6.367   5.284
 2999W        W75413  35.469  24.095   0.743
 3000W        W75414  35.417  21.054  11.915
 3001W        W75415   4.806   0.371  13.372
 3002W        W75416  27.567   5.848  11.983
 3003W        W75417   6.258  26.461  13.408
 3004W        W75418   6.875  38.931   0.268
 3005W        W75419  29.131  13.626   0.310
 3006W        W75420  34.594  35.450  14.768
 3007W        W75421  31.028   6.312   1.696
 3008W        W75422  38.931  15.767   4.749
 3009W        W75423  36.381  28.586   0.850
 3010W        W75424  10.754  16.765  14.435
 3011W        W75425  16.188  40.987  12.448
 3012W        W75426  29.562  19.694   2.358
 3013W        W75427  36.872  41.980  11.486
 3014W        W75428  25.197   2.894  10.611
 3015W        W75429   9.391  22.522   0.341
 3016W        W75430  31.562  18.774   1.778
 3017W        W75431   7.290  27.982  14.992
 3018W        W75432   6.917  39.407  14.291
 3019W        W75433  35.507  15.116   1.275
 3020W        W75434  44.825  34.506  11.402
 3021W        W75435  39.990  32.628   2.731
 3022W        W75436  37.015  34.456  14.902
 3023W        W75437  23.129  43.450   1.221
 3024W        W75438   9.200  29.154   3.802
 3025W        W75439  37.411  43.462  10.504
 3026W        W75440  36.457  24.974  11.072
 3027W        W75441  24.611   9.740  13.453
 3028W        W75442  44.365  16.104  12.552
 3029W        W75443  13.823  29.644   4.677
 3030W        W75444   5.699  44.804   3.300
 3031W        W75445  40.843  37.489   3.798
 3032W        W75446   3.914  18.711   3.678
 3033W        W75447  39.389  26.483   3.810
 3034W        W75448  37.038   6.803  11.479
 3035W        W75449  33.496  34.515  13.804
 3036W        W75450   2.379  31.025  14.975
 3037W        W75451   3.952  11.311  12.004
 3038W        W75452   8.382  18.668  12.385
 3039W        W75453  29.509  26.694  14.447
 3040W        W75454  20.740  35.435   1.239
 3041W        W75455  13.104  38.919  12.039
 3042W        W75456   4.699  21.642  14.376
 3043W        W75457  29.577  41.965   4.297
 3044W        W75458   4.291  27.487   0.919
 3045W        W75459  30.505   1.835  14.500
 3046W        W75460  21.179  20.131  12.572
 3047W        W75461  23.549  41.868  14.863
 3048W        W75462   5.277  35.914   0.956
 3049W        W75463   3.823  29.169  10.503
 3050W        W75464  40.903  28.660   2.388
 3051W        W75465  40.868  17.268   1.335
 3052W        W75466  27.555  41.979   2.221
 3053W        W75467   5.269  26.977   3.210
 3054W        W75468  20.724  13.713  10.446
 3055W        W75469   4.779   3.350   3.361
 3056W        W75470   7.876  13.130  11.577
 3057W        W75471   2.957   5.424   3.668
 3058W        W75472  21.669   8.856   1.289
 3059W        W75473   9.829  33.002  12.897
 3060W        W75474   7.825   7.223  11.069
 3061W        W75475  39.985  32.620  12.827
 3062W        W75476  19.263   8.160   1.817
 3063W        W75477  27.572   9.855  10.528
 3064W        W75478   4.899  15.600   3.228
 3065W        W75479  17.167  38.031   2.408
 3066W        W75480   2.315  28.995   0.332
 3067W        W75481  36.470  15.286   1.242
 3068W        W75482   5.238  32.921  14.963
 3069W        W75483  22.509  21.037  11.958
 3070W        W75484  22.522  15.733   5.117
 3071W        W75485  32.897  18.706  14.392
 3072W        W75486  12.791   2.876  10.542
 3073W        W75487  36.899  27.058   4.293
 3074W        W75488  19.534   1.796  11.938
 3075W        W75489  30.008  36.456  13.328
 3076W        W75490  12.712   7.392  13.826
 3077W        W75491  31.945   9.257   2.398
 3078W        W75492  15.816  14.149   2.356
 3079W        W75493  42.957  18.206   2.902
 3080W        W75494  28.068  44.351  14.365
 3081W        W75495   9.709  12.218   0.831
 3082W        W75496   7.897  10.689   1.822
 3083W        W75497  10.727   3.388   5.090
 3084W        W75498  40.967  30.482  11.542
 3085W        W75499  27.182  11.805  14.343
 3086W        W75500  36.504  43.926   3.859
 3087W        W75501  11.165  12.728  10.441
 3088W        W75502  21.522  22.112  12.891
 3089W        W75503  12.224  19.615   0.875
 3090W        W75504  33.988  23.515   1.792
 3091W        W75505   7.236  28.526   1.708
 3092W        W75506   2.863  13.223  12.075
 3093W        W75507  39.999  32.005   0.842
 3094W        W75508  10.290  43.989   3.798
 3095W        W75509   4.251   8.376   0.899
 3096W        W75510  25.581  38.455   3.380
 3097W        W75511   2.863  16.188  13.373
 3098W        W75512  26.022   1.372  11.023
 3099W        W75513  11.811  25.988  14.809
 3100W        W75514  26.502   9.316   4.618
 3101W        W75515  17.194   3.335   1.320
 3102W        W75516  29.527  13.265  11.038
 3103W        W75517  10.768  34.086   2.236
 3104W        W75518  43.328  31.924  14.322
 3105W        W75519  25.630  41.952  13.464
 3106W        W75520  27.018  12.771   1.428
 3107W        W75521  12.847   3.349  14.480
 3108W        W75522   1.296  22.614  10.487
 3109W        W75523   6.910  41.505  13.995
 3110W        W75524  33.428  13.145  10.636
 3111W        W75525  37.033  40.994   2.708
 3112W        W75526  36.362  35.479  10.438
 3113W        W75527  24.119  33.947  13.895
 3114W        W75528  15.709  34.548   9.937
 3115W        W75529  36.531  28.633  13.916
 3116W        W75530   7.713   3.900  13.431
 3117W        W75531  25.708  34.968   4.235
 3118W        W75532  38.554  43.878   3.227
 3119W        W75533  38.896  27.547   2.759
 3120W        W75534  23.991  29.945  13.864
 3121W        W75535  12.264  10.191  12.913
 3122W        W75536  30.907   6.386  11.914
 3123W        W75537  19.615   3.905  11.424
 3124W        W75538  30.644  36.359  12.997
 3125W        W75539  27.632  12.793   3.711
 3126W        W75540  37.039  36.372   4.822
 3127W        W75541  39.023  27.535   4.644
 3128W        W75542  37.979  33.442  11.611
 3129W        W75543  41.493  35.420  11.942
 3130W        W75544  22.550   3.899   3.838
 3131W        W75545   9.153   5.278  13.429
 3132W        W75546   5.800  40.491  14.496
 3133W        W75547   4.877  25.981   9.927
 3134W        W75548   2.309  19.063   1.231
 3135W        W75549  31.044  41.030  13.319
 3136W        W75550   1.741   6.713  11.577
 3137W        W75551   3.341  28.472  12.470
 3138W        W75552  27.000  36.425   1.758
 3139W        W75553  11.735   1.375   0.371
 3140W        W75554  10.145  35.440  13.906
 3141W        W75555  36.957  24.005   1.333
 3142W        W75556  37.030  23.138   5.169
 3143W        W75557  32.905  42.945   2.781
 3144W        W75558  13.608  11.204   3.291
 3145W        W75559  16.125  12.315  14.858
 3146W        W75560  20.757   3.722   0.378
 3147W        W75561  34.104  30.457  14.991
 3148W        W75562  40.831  11.674   0.798
 3149W        W75563  16.716   2.434  10.910
 3150W        W75564  25.120  10.852   3.721
 3151W        W75565   5.386  27.955   3.766
 3152W        W75566  29.428  44.362   2.226
 3153W        W75567  25.995  33.938  14.888
 3154W        W75568  20.551  10.808   4.676
 3155W        W75569   4.425  30.459  14.966
 3156W        W75570  25.067   9.798   1.384
 3157W        W75571  39.005  24.717   0.407
 3158W        W75572  30.603  38.066  11.467
 3159W        W75573  31.595  15.665  13.866
 3160W        W75574  29.547  23.119  11.488
 3161W        W75575  36.863   1.908   0.948
 3162W        W75576  10.215  35.528  10.500
 3163W        W75577  21.111  11.840   3.831
 3164W        W75578  36.959  10.783   0.884
 3165W        W75579   4.776  23.058   2.340
 3166W        W75580  19.736  14.317  12.496
 3167W        W75581  10.182  40.884   4.604
 3168W        W75582  31.594   7.696   0.893
 3169W        W75583  26.617  33.462  13.815
 3170W        W75584  42.466  38.527  14.350
 3171W        W75585  22.507  29.637  12.475
 3172W        W75586   7.183  19.195  10.637
 3173W        W75587  25.540   7.410   3.830
 3174W        W75588  20.548  19.105   2.358
 3175W        W75589   3.340  40.960  14.918
 3176W        W75590  10.654  16.661   3.179
 3177W        W75591  26.084   2.298   3.244
 3178W        W75592  22.526   1.744  14.483
 3179W        W75593  39.991  19.648  11.530
 3180W        W75594  44.431  13.305  10.485
 3181W        W75595   6.241  17.638  10.507
 3182W        W75596  29.136  22.117   4.819
 3183W        W75597  41.844  16.205  10.437
 3184W        W75598  16.698   2.466   0.779
 3185W        W75599   2.279  34.965  12.557
 3186W        W75600  44.411   7.366  11.900
 3187W        W75601  21.246  29.576  12.371
 3188W        W75602  12.736  42.872   4.173
 3189W        W75603   0.273   6.303   4.712
 3190W        W75604  41.536  12.752  14.860
 3191W        W75605  43.943  11.778  10.943
 3192W        W75606  10.824  20.642  13.791
 3193W        W75607  17.682   8.178  13.494
 3194W        W75608   6.680  12.350  13.014
 3195W        W75609   8.693  33.503  12.509
 3196W        W75610  15.208   2.783   3.766
 3197W        W75611   2.747  14.222   0.868
 3198W        W75612  13.257   9.820  12.832
 3199W        W75613  24.099  35.504  10.413
 3200W        W75614  23.520  21.728  13.515
 3201W        W75615  39.018  18.185   3.213
 3202W        W75616  38.994  26.519   2.227
 3203W        W75617  26.687  21.067  11.880
 3204W        W75618  31.009  36.093  14.032
 3205W        W75619  36.954  24.118  12.397
 3206W        W75620   0.776  44.360   5.252
 3207W        W75621   3.408  31.599  10.536
 3208W        W75622   2.323   6.219   0.771
 3209W        W75623  33.007  15.112  12.085
 3210W        W75624  11.833  21.594   3.220
 3211W        W75625  16.232  36.869  14.778
 3212W        W75626   1.925  43.308  14.991
 3213W        W75627  40.833  25.710   4.229
 3214W        W75628  33.014  39.538   3.663
 3215W        W75629  36.576  43.474  13.965
 3216W        W75630   7.303  19.187   0.860
 3217W        W75631   5.744  38.359  11.916
 3218W        W75632  29.982  29.002   3.785
 3219W        W75633  35.415  40.999   4.254
 3220W        W75634  10.362  35.005   3.277
 3221W        W75635  14.313  14.159   4.145
 3222W        W75636  44.325   3.363  14.361
 3223W        W75637  22.734   1.417  14.785
 3224W        W75638  21.637  31.987   3.333
 3225W        W75639  39.875  24.197  11.983
 3226W        W75640  33.043  14.103   2.293
 3227W        W75641  19.605  40.439   3.318
 3228W        W75642  37.358  26.066  11.536
 3229W        W75643  28.508  22.245   1.278
 3230W        W75644   2.929  17.596  14.010
 3231W        W75645  34.413  17.728   0.365
 3232W        W75646  37.077  23.998  14.917
 3233W        W75647  31.646  24.719   0.891
 3234W        W75648   2.236  38.837  10.981
 3235W        W75649  28.612  20.138  10.572
 3236W        W75650  15.592  42.853   4.308
 3237W        W75651   7.817   6.214   5.306
 3238W        W75652  37.062  27.130  13.548
 3239W        W75653   6.248  38.939   2.408
 3240W        W75654  28.444  27.117   0.932
 3241W        W75655   0.274   6.342   3.777
 3242W        W75656   0.251   8.715  12.829
 3243W        W75657   5.900  16.299   1.823
 3244W        W75658   2.927   7.320  12.979
 3245W        W75659   5.252  34.584   3.669
 3246W        W75660  42.408  44.379   4.674
 3247W        W75661   1.961  33.964  13.469
 3248W        W75662   8.749  35.031  10.587
 3249W        W75663  41.400  28.658  10.566
 3250W        W75664   3.891  39.064  13.466
 3251W        W75665   7.834  34.396  12.063
 3252W        W75666  33.021  37.528   0.749
 3253W        W75667   9.342  42.510  11.504
 3254W        W75668  14.098  15.818  10.957
 3255W        W75669  10.694  34.548   1.805
 3256W        W75670  11.277  30.994  14.309
 3257W        W75671  37.505  25.022   3.337
 3258W        W75672  21.555   5.268   4.726
 3259W        W75673  37.868  30.617  12.456
 3260W        W75674   7.877   6.745   3.782
 3261W        W75675  17.775  10.859   3.857
 3262W        W75676   8.766   7.371  14.984
 3263W        W75677   1.470  32.464   0.338
 3264W        W75678  37.948  25.682  12.542
 3265W        W75679   1.770   2.340   2.255
 3266W        W75680  28.952   4.848   0.846
 3267W        W75681   6.258   4.702   1.927
 3268W        W75682  34.072  42.876  14.354
 3269W        W75683   1.766  39.871   0.319
 3270W        W75684  15.084  26.617   1.836
 3271W        W75685   5.730  38.549  14.336
 3272W        W75686  24.628  27.183  11.520
 3273W        W75687   3.845  11.791   4.320
 3274W        W75688  16.236   2.364   1.329
 3275W        W75689  20.137  17.279   4.274
 3276W        W75690   4.792  30.463  11.860
 3277W        W75691  24.120   0.361   4.729
 3278W        W75692  18.223   6.898  13.832
 3279W        W75693   2.905  16.752   1.800
 3280W        W75694  10.363  41.348  10.617
 3281W        W75695  34.582  21.714   0.435
 3282W        W75696  41.317  43.364   4.726
 3283W        W75697  34.933  32.139   4.760
 3284W        W75698  26.561  12.116  12.513
 3285W        W75699  40.835  22.058   3.864
 3286W        W75700   9.359  20.248   4.771
 3287W        W75701  29.159  37.523   3.316
 3288W        W75702  34.880   6.687  12.836
 3289W        W75703  44.394  17.714  12.380
 3290W        W75704   0.376  30.652  13.352
 3291W        W75705  40.985  25.659  14.854
 3292W        W75706  43.845  16.314   4.286
 3293W        W75707   8.798  35.929  10.457
 3294W        W75708  31.538  11.172  10.441
 3295W        W75709   6.248  26.654   5.187
 3296W        W75710   6.342  44.330   4.223
 3297W        W75711  10.268  22.071   1.348
 3298W        W75712  27.634  22.131   1.734
 3299W        W75713   5.723   9.868   0.370
 3300W        W75714  28.115   8.326   3.275
 3301W        W75715   5.253  22.157   0.810
 3302W        W75716  23.495  29.997  11.082
 3303W        W75717  13.645   8.217   5.629
 3304W        W75718  37.431  14.182  13.050
 3305W        W75719  43.298  38.469  11.973
 3306W        W75720  18.631  38.534   2.244
 3307W        W75721  35.501  43.301   2.407
 3308W        W75722  11.864  13.330   2.711
 3309W        W75723  20.598  42.992   3.297
 3310W        W75724  36.368  16.158  12.023
 3311W        W75725  30.067   0.453  10.516
 3312W        W75726  25.691  35.967  12.966
 3313W        W75727  12.362  29.482   4.224
 3314W        W75728  10.860  10.669   4.774
 3315W        W75729   1.843  27.038   0.757
 3316W        W75730  19.727  38.933  14.769
 3317W        W75731  17.176  35.555   3.341
 3318W        W75732  27.195  22.245   1.328
 3319W        W75733   5.251  31.040  12.896
 3320W        W75734  10.222  42.833  10.087
 3321W        W75735  23.129  26.152   4.648
 3322W        W75736  38.842  44.286  14.508
 3323W        W75737   3.288   2.383   2.398
 3324W        W75738  37.376  16.201   0.808
 3325W        W75739  22.554  11.718   1.221
 3326W        W75740  11.661  13.840  13.850
 3327W        W75741  25.564  22.641  13.851
 3328W        W75742  34.523  14.620  13.526
 3329W        W75743  13.161  29.000  13.404
 3330W        W75744   0.367  30.140   4.296
 3331W        W75745  28.681  17.071   1.817
 3332W        W75746  39.403  37.978  13.889
 3333W        W75747  32.114   9.662  12.909
 3334W        W75748  22.524   0.336  12.477
 3335W        W75749   2.937  25.985  12.998
 3336W        W75750  37.403   9.864  14.785
 3337W        W75751   4.893  16.677  10.045
 3338W        W75752   2.434   7.870  13.932
 3339W        W75753  28.642   1.805   3.301
 3340W        W75754  16.619  33.003   2.773
 3341W        W75755  40.003  31.626   4.612
 3342W        W75756   4.722  12.189   4.144
 3343W        W75757  29.052  32.127  11.013
 3344W        W75758  37.871   1.428  12.028
 3345W        W75759  18.586  34.607   3.717
 3346W        W75760  33.614  42.884  14.424
 3347W        W75761  32.545  26.967   3.343
 3348W        W75762  33.991  36.439   0.435
 3349W        W75763  41.859  35.515  10.576
 3350W        W75764   9.274  26.596   4.308
 3351W        W75765  15.285  27.560   0.775
 3352W        W75766  37.067  35.418   2.233
 3353W        W75767  24.548   7.816  11.073
 3354W        W75768  16.794  42.467   1.833
 3355W        W75769  23.036  44.956   2.795
 3356W        W75770  31.482  32.894   0.795
 3357W        W75771  18.190  20.041  14.333
 3358W        W75772  41.019  27.108  13.312
 3359W        W75773  23.591  27.008   0.890
 3360W        W75774  39.863  17.704  13.307
 3361W        W75775  43.458  29.632  12.462
 3362W        W75776   1.940   1.959  11.574
 3363W        W75777  32.439  32.436  13.928
 3364W        W75778  26.107  40.884  11.372
 3365W        W75779   1.971  21.085   1.916
 3366W        W75780  37.882  11.208  11.036
 3367W        W75781  12.271  16.118   3.674
 3368W        W75782   2.359  23.690  10.997
 3369W        W75783  19.550   5.699  12.930
 3370W        W75784  42.827   9.344  13.795
 3371W        W75785  17.157  31.066  13.324
 3372W        W75786  35.578  40.414   1.779
 3373W        W75787  36.070  29.124  12.413
 3374W        W75788  23.162   6.268   4.729
 3375W        W75789  30.492  41.308  14.354
 3376W        W75790  29.593  24.023  14.391
 3377W        W75791   2.869   4.759   3.376
 3378W        W75792  13.213  32.477  11.926
 3379W        W75793  33.542   6.258  14.330
 3380W        W75794  15.740  44.439  11.592
 3381W        W75795   4.834  14.608   4.607
 3382W        W75796  29.582  34.098   3.359
 3383W        W75797  42.316  33.045   1.793
 3384W        W75798  21.529  15.302  14.505
 3385W        W75799  27.095  10.248   0.921
 3386W        W75800  22.731   5.763  14.954
 3387W        W75801   6.880  25.019  12.445
 3388W        W75802  37.416  18.054  10.504
 3389W        W75803   1.858  18.228   0.903
 3390W        W75804  25.562  32.032   4.717
 3391W        W75805   7.182  29.659  11.051
 3392W        W75806  23.180  40.999   2.774
 3393W        W75807   6.305  21.523   4.744
 3394W        W75808  29.957  44.336   3.161
 3395W        W75809   4.882  32.079  14.804
 3396W        W75810   5.815  27.516   1.438
 3397W        W75811  34.558  34.117   0.964
 3398W        W75812  22.582  27.563  12.427
 3399W        W75813  39.003   5.314   1.736
 3400W        W75814  28.058  41.034  12.950
 3401W        W75815  25.524  32.025  10.902
 3402W        W75816   8.308  25.037  10.623
 3403W        W75817  43.424   0.296  11.522
 3404W        W75818  17.093  40.498  10.905
 3405W        W75819  38.427  33.595  11.611
 3406W        W75820  11.166  33.106  11.600
 3407W        W75821   7.871   6.353  14.301
 3408W        W75822  18.058  41.864   1.928
 3409W        W75823  33.598  42.840   2.228
 3410W        W75824  31.506  40.884   1.864
 3411W        W75825   3.762  23.698  11.536
 3412W        W75826  35.968  16.286   3.377
 3413W        W75827   0.900  20.170   1.717
 3414W        W75828  30.539  14.831   4.759
 3415W        W75829  29.044  37.489  12.529
 3416W        W75830   1.410  13.734   4.258
 3417W        W75831   1.865  10.336  12.450
 3418W        W75832  31.915  10.675   2.897
 3419W        W75833   4.835  33.604   1.747
 3420W        W75834  15.272   2.882   2.325
 3421W        W75835   0.476  20.728  11.401
 3422W        W75836  36.522   1.785   1.341
 3423W        W75837  35.541  42.347   2.236
 3424W        W75838  19.598   7.764  14.417
 3425W        W75839   6.714  26.007   3.785
 3426W        W75840   5.387  26.650   3.722
 3427W        W75841  10.635  38.837  11.423
 3428W        W75842  12.626  37.430  12.441
 3429W        W75843  25.652  43.908   3.346
 3430W        W75844  21.710   1.735   4.837
 3431W        W75845  26.655   3.443  14.867
 3432W        W75846   6.769  37.429  11.379
 3433W        W75847  43.904  10.633  14.278
 3434W        W75848  41.879  14.622  11.047
 3435W        W75849   3.880   0.963   0.433
 3436W        W75850  33.419  29.435   3.251
 3437W        W75851  21.093  29.587  14.896
 3438W        W75852  22.615  29.600  10.087
 3439W        W75853  17.714  27.111   3.282
 3440W        W75854   6.289   5.196  11.882
 3441W        W75855  27.501  29.531   4.132
 3442W        W75856  15.301  13.173   0.252
 3443W        W75857  12.645   9.312  12.381
 3444W        W75858  27.109  35.364   0.752
 3445W        W75859  22.610  21.185   0.319
 3446W        W75860  23.599  18.623   0.798
 3447W        W75861  12.773  40.915   4.622
 3448W        W75862  17.650  10.358  13.318
 3449W        W75863  12.636  35.517   4.812
 3450W        W75864  28.954  24.704  14.508
 3451W        W75865  21.590  18.664   0.759
 3452W        W75866  39.498  18.102  12.509
 3453W        W75867  26.466  18.575  11.457
 3454W        W75868  39.537  10.750  11.923
 3455W        W75869  21.686   8.308   4.311
 3456W        W75870  17.626  34.041  12.969
 3457W        W75871   1.387  15.133  14.949
 3458W        W75872  44.923  24.148  14.501
 3459W        W75873  27.055  21.131  11.458
 3460W        W75874  17.207  12.765  13.451
 3461W        W75875  17.155  12.727  10.486
 3462W        W75876  19.135  34.418   2.707
 3463W        W75877  41.888  12.285   1.874
 3464W        W75878  19.613  16.216   4.736
 3465W        W75879  40.832   3.735  13.805
 3466W        W75880  42.929  16.174   1.933
 3467W        W75881   1.850  19.077  10.987
 3468W        W75882  44.340  26.119  11.860
 3469W        W75883  18.706  35.499   0.430
 3470W        W75884  38.837  41.342   1.419
 3471W        W75885  20.116  10.828   0.338
 3472W        W75886  36.911  17.727   1.402
 3473W        W75887   9.290  13.345   4.346
 3474W        W75888  37.352  30.080  13.443
 3475W        W75889  14.232  15.222   3.781
 3476W        W75890  17.237  26.051   2.695
 3477W        W75891  40.889  30.071   2.709
 3478W        W75892  32.517   3.223  12.552
 3479W        W75893  10.833  22.673  12.075
 3480W        W75894  34.904  35.558  11.989
 3481W        W75895   1.936   5.412  14.499
 3482W        W75896  11.319  12.169  14.358
 3483W        W75897  29.463  40.053   0.308
 3484W        W75898  18.658  32.041  12.546
 3485W        W75899  43.972  38.473  11.511
 3486W        W75900  23.112  27.055   0.760
 3487W        W75901  34.073   2.445  10.491
 3488W        W75902  24.143  18.713   1.930
 3489W        W75903  39.967   7.357  10.626
 3490W        W75904  14.660   8.197  12.859
 3491W        W75905   7.278  42.287  13.026
 3492W        W75906   4.832   5.373  12.401
 3493W        W75907  16.674   2.793  10.951
 3494W        W75908   2.361   7.891  13.501
 3495W        W75909  44.481  20.041   3.355
 3496W        W75910   5.833  11.332  13.050
 3497W        W75911  24.036   1.275   0.279
 3498W        W75912  11.226   1.933   4.810
 3499W        W75913   4.791  26.205   0.261
 3500W        W75914  44.305  12.778  11.374
 3501W        W75915  26.532  20.745   2.713
 3502W        W75916  42.809   7.317   3.699
 3503W        W75917  41.528  11.770   4.264
 3504W        W75918  34.933  13.328   2.247
 3505W        W75919   0.474  40.495   4.139
 3506W        W75920   5.725  27.144  14.864
 3507W        W75921  17.185  34.413  14.868
 3508W        W75922  26.975   2.898  10.931
 3509W        W75923  26.968  24.175   3.660
 3510W        W75924  14.777   8.240   3.829
 3511W        W75925  28.022   7.898   3.292
 3512W        W75926  31.402  14.833  12.569
 3513W        W75927  18.292  12.790  10.507
 3514W        W75928  44.390  16.283   3.834
 3515W        W75929  39.957   3.728   2.806
 3516W        W75930  24.099  25.081  14.357
 3517W        W75931  16.082  41.467   4.347
 3518W        W75932   5.789  39.499   3.771
 3519W        W75933  25.525  36.552   1.695
 3520W        W75934   2.858  40.875   0.377
 3521W        W75935  34.531  18.115  12.087
 3522W        W75936  10.223   3.926   2.244
 3523W        W75937  43.780  14.757   0.873
 3524W        W75938   5.703  27.008   2.358
 3525W        W75939  29.468  44.434  14.957
 3526W        W75940  13.713  22.102  12.515
 3527W        W75941  19.653  35.997   1.429
 3528W        W75942   7.242  33.082  13.896
 3529W        W75943  30.969  39.560   0.835
 3530W        W75944  44.315  21.523   3.211
 3531W        W75945  42.903  11.303  12.502
 3532W        W75946  17.798  26.032  14.992
 3533W        W75947  42.358  27.992   1.870
 3534W        W75948  38.056   4.917   3.833
 3535W        W75949  29.611  40.972   4.314
 3536W        W75950  37.083   4.830  12.393
 3537W        W75951  22.648  37.500  12.901
 3538W        W75952   1.825   3.227  13.918
 3539W        W75953   8.336  35.395   0.401
 3540W        W75954   1.342  16.756  10.477
 3541W        W75955  10.865  16.695  10.575
 3542W        W75956   2.396   7.773   3.764
 3543W        W75957  31.991   7.358  12.574
 3544W        W75958  31.584  22.735  11.477
 3545W        W75959   0.457   8.318  10.977
 3546W        W75960  16.082   9.322   0.931
 3547W        W75961  19.061   8.672   2.873
 3548W        W75962   7.750  44.263   2.817
 3549W        W75963  27.059  37.579  12.450
 3550W        W75964  22.653  12.651   3.630
 3551W        W75965  18.638  33.590  13.529
 3552W        W75966  12.313  19.534   4.685
 3553W        W75967  29.652  13.606   1.416
 3554W        W75968  17.638  12.781   1.349
 3555W        W75969  38.053   8.375   2.720
 3556W        W75970  28.498  38.868   1.318
 3557W        W75971  31.137  15.801   5.203
 3558W        W75972  28.576  21.553  14.426
 3559W        W75973  37.442   6.246   2.321
 3560W        W75974   6.745  21.511   3.308
 3561W        W75975  29.939  24.205   4.186
 3562W        W75976  16.605  23.703   3.803
 3563W        W75977  21.672   0.856   4.747
 3564W        W75978  26.050  44.842  14.914
 3565W        W75979   2.934  10.635   0.918
 3566W        W75980  36.538  28.486  11.572
 3567W        W75981  41.948  35.442  12.900
 3568W        W75982  37.872  27.136  14.311
 3569W        W75983  33.509   8.308   0.388
 3570W        W75984   4.401  30.971   3.794
 3571W        W75985   8.728  43.370  11.058
 3572W        W75986  23.024   5.915  11.488
 3573W        W75987  39.864  13.670  11.976
 3574W        W75988  24.616  32.421   4.816
 3575W        W75989  28.663   9.803   1.409
 3576W        W75990  25.988  25.484   3.247
 3577W        W75991   6.372  26.610   1.289
 3578W        W75992   5.423  23.574   2.295
 3579W        W75993  35.463   5.200  13.486
 3580W        W75994  30.510  30.980  14.444
 3581W        W75995   8.718   7.227   3.284
 3582W        W75996   9.794  31.474   4.760
 3583W        W75997  41.888   2.267   1.448
 3584W        W75998  38.979   1.267  14.455
 3585W        W75999  35.010  13.286  14.770
 3586W        W76000   4.362  20.624  14.367
 3587W        W76001  28.544  26.694   2.416
 3588W        W76002  32.448  11.736  10.540
 3589W        W76003  16.254   5.789  11.109
 3590W        W76004  37.548  15.161  11.987
 3591W        W76005  43.837  36.037  14.339
 3592W        W76006  10.799  27.143  10.905
 3593W        W76007   9.689  24.515  14.847
 3594W        W76008  27.192   3.751   2.257
 3595W        W76009   6.398  24.670   3.359
 3596W        W76010   5.856  10.160  10.991
 3597W        W76011  10.313  31.530   0.901
 3598W        W76012  22.661  43.863   2.414
 3599W        W76013   7.312  21.524  14.826
 3600W        W76014  17.270  24.089  11.055
 3601W        W76015   2.880  13.108  13.412
 3602W        W76016   0.415   9.689   2.321
 3603W        W76017   4.760  35.922  11.586
 3604W        W76018   6.787   5.241   1.744
 3605W        W76019  10.178  43.871  11.392
 3606W        W76020  38.839  41.433   1.914
 3607W        W76021   1.849  40.421  11.487
 3608W        W76022  33.972  24.725  11.078
 3609W        W76023   9.241   2.788  11.045
 3610W        W76024   3.902  27.984   4.145
 3611W        W76025  33.942  29.951  14.894
 3612W        W76026  17.111  17.694  14.345
 3613W        W76027  11.711  26.009   2.765
 3614W        W76028  27.953  17.165   4.736
 3615W        W76029  30.974  32.485   3.296
 3616W        W76030   0.805  27.089   0.825
 3617W        W76031  18.067  44.442  10.631
 3618W        W76032  30.487  29.967   3.254
 3619W        W76033  27.573   5.765   3.800
 3620W        W76034  19.223   8.789   2.180
 3621W        W76035  31.624   2.873  13.803
 3622W        W76036  40.321   6.868   1.805
 3623W        W76037   7.728  28.160  13.050
 3624W        W76038  15.210   9.768  14.470
 3625W        W76039  33.445  38.339  12.845
 3626W        W76040  23.727  22.585   2.418
 3627W        W76041  41.800  32.994  11.858
 3628W        W76042  31.620  36.071   0.812
 3629W        W76043  10.812  28.084   3.243
 3630W        W76044   1.375  14.127  10.900
 3631W        W76045  15.251  22.686   1.432
 3632W        W76046  34.431  14.208  11.544
 3633W        W76047   5.726  42.506   3.375
 3634W        W76048  15.605  37.523   9.999
 3635W        W76049  33.542  34.398   3.322
 3636W        W76050  17.679   1.417   4.766
 3637W        W76051   9.381  35.552  13.956
 3638W        W76052  17.146  15.183  11.049
 3639W        W76053  20.258  13.749   2.755
 3640W        W76054  23.236  11.734   4.265
 3641W        W76055  42.485  21.078   2.354
 3642W        W76056  13.747  32.498   0.244
 3643W        W76057  23.041  12.212  14.307
 3644W        W76058  40.884  39.318  14.881
 3645W        W76059  19.548  12.337  14.775
 3646W        W76060   4.846  32.609   4.738
 3647W        W76061   8.175  33.876   2.412
 3648W        W76062  31.021   6.362   3.731
 3649W        W76063   2.935  39.005   2.392
 3650W        W76064  29.003  16.747   4.121
 3651W        W76065  23.629  41.299  14.401
 3652W        W76066  42.027  30.471   0.285
 3653W        W76067  43.400  13.736  14.832
 3654W        W76068  36.366  15.222  12.934
 3655W        W76069  14.151  25.474   4.784
 3656W        W76070  37.542  23.704  12.483
 3657W        W76071  24.058   1.314   0.806
 3658W        W76072   7.417  39.557  10.929
 3659W        W76073  38.844   5.290  13.874
 3660W        W76074  34.462  25.524  13.444
 3661W        W76075  36.577  21.155  10.484
 3662W        W76076  29.032  15.150   3.255
 3663W        W76077  41.342  41.345   3.751
 3664W        W76078  11.240  21.076  14.758
 3665W        W76079  26.082  12.331  14.386
 3666W        W76080  29.454   9.228  13.017
 3667W        W76081  34.385   3.866   3.261
 3668W        W76082  38.357   9.284   4.709
 3669W        W76083   2.452   6.805   0.320
 3670W        W76084  16.651  19.740   0.286
 3671W        W76085  12.305  21.716  10.501
 3672W        W76086  33.966  21.182   3.663
 3673W        W76087  20.665  40.371   2.363
 3674W        W76088  25.146   2.438  11.398
 3675W        W76089  18.122   0.339   2.370
 3676W        W76090  19.104  36.977  11.581
 3677W        W76091   8.290  30.096  12.421
 3678W        W76092  30.001  28.499   1.233
 3679W        W76093  39.875  33.107   0.742
 3680W        W76094  10.212  16.239   3.735
 3681W        W76095  38.490   6.886   0.727
 3682W        W76096  25.570  37.373   0.351
 3683W        W76097   8.195   1.472   1.802
 3684W        W76098  10.843  27.660   0.409
 3685W        W76099   8.722  11.181   3.207
 3686W        W76100  29.079   6.196  13.441
 3687W        W76101  35.471  25.592  11.411
 3688W        W76102  30.080  39.535  12.455
 3689W        W76103  30.938  19.183   3.387
 3690W        W76104  20.670  22.740  14.942
 3691W        W76105  21.037  24.167   3.689
 3692W        W76106  43.880   6.315   3.642
 3693W        W76107   1.969   6.782   3.854
 3694W        W76108   1.733  35.528   1.868
 3695W        W76109  42.776  37.406   9.938
 3696W        W76110  18.555  11.780   2.340
 3697W        W76111  19.113  30.968  11.124
 3698W        W76112  27.078  39.498   3.294
 3699W        W76113  15.728  36.063  10.992
 3700W        W76114  17.098  43.456  13.422
 3701W        W76115   7.384  41.977  11.435
 3702W        W76116  44.371  30.010  12.554
 3703W        W76117   2.442   3.875   4.218
 3704W        W76118  15.804  23.604   0.469
 3705W        W76119  40.476  39.458  13.904
 3706W        W76120  33.562  39.315   1.876
 3707W        W76121  15.093  37.510   3.343
 3708W        W76122  25.597  11.295  10.615
 3709W        W76123  35.859  26.588  14.391
 3710W        W76124  31.475  11.232  11.072
 3711W        W76125   8.313  39.896  13.958
 3712W        W76126  10.158  16.813   3.807
 3713W        W76127  43.800   0.386  11.523
 3714W        W76128  21.575  10.662  12.952
 3715W        W76129  10.724  23.523  13.064
 3716W        W76130  39.354   5.224   2.672
 3717W        W76131   2.358  14.606  14.005
 3718W        W76132   3.457   4.390  12.456
 3719W        W76133  30.556  23.712  14.016
 3720W        W76134  12.312  40.383  12.575
 3721W        W76135   4.839  41.303   2.882
 3722W        W76136   9.297  13.155   1.750
 3723W        W76137  36.581   7.336  10.642
 3724W        W76138  15.699  12.852  13.307
 3725W        W76139   6.885   5.310  14.909
 3726W        W76140  29.588  14.288  10.069
 3727W        W76141  16.285  16.586  10.495
 3728W        W76142  39.330  14.144   2.663
 3729W        W76143  26.189  43.286   0.791
 3730W        W76144  43.847  29.565   0.956
 3731W        W76145   3.821   4.223  11.460
 3732W        W76146  25.177   1.251  12.005
 3733W        W76147  19.176  39.946   2.268
 3734W        W76148  19.155  11.169   2.799
 3735W        W76149  21.249  34.875  13.344
 3736W        W76150  41.043  15.210   3.813
 3737W        W76151  29.655  19.697  11.962
 3738W        W76152  19.546  22.539   3.868
 3739W        W76153  31.411  43.840  12.483
 3740W        W76154  17.699  34.978   3.836
 3741W        W76155  33.025   0.248  13.935
 3742W        W76156  31.454  28.596   1.836
 3743W        W76157  15.154  44.971  14.513
 3744W        W76158   2.935  22.013  13.463
 3745W        W76159  34.993  34.439  10.007
 3746W        W76160   2.773   2.922  11.522
 3747W        W76161  18.214  33.390   3.862
 3748W        W76162  22.011   6.753   4.177
 3749W        W76163  42.513  25.174  10.566
 3750W        W76164  30.028  30.980  10.458
 3751W        W76165  12.852  28.096  14.877
 3752W        W76166  29.103  38.357  13.792
 3753W        W76167  14.096  20.250  12.572
 3754W        W76168  26.084   2.811   4.708
 3755W        W76169  15.281  40.528  11.936
 3756W        W76170  25.047  40.799   4.297
 3757W        W76171  42.350  43.405  12.511
 3758W        W76172  43.898  25.104   4.326
 3759W        W76173  26.160   2.768  11.947
 3760W        W76174  12.156  35.094  14.016
 3761W        W76175  29.986  14.619  12.526
 3762W        W76176  34.920  29.478  12.887
 3763W        W76177  41.486  39.877   1.702
 3764W        W76178   6.736  20.140   0.931
 3765W        W76179  33.522   1.412   2.395
 3766W        W76180  41.405   8.715  10.891
 3767W        W76181  29.529  28.607  14.929
 3768W        W76182  12.634   2.449  12.570
 3769W        W76183  31.639  12.690   0.816
 3770W        W76184  42.809  19.690  12.546
 3771W        W76185  21.056  22.530   1.226
 3772W        W76186  30.586   4.291   1.437
 3773W        W76187  28.614  22.200   2.732
 3774W        W76188  35.503  20.569   2.769
 3775W        W76189   2.396  41.789  13.996
 3776W        W76190   6.232  14.657   5.308
 3777W        W76191  28.459   5.806   1.321
 3778W        W76192  27.514  24.199   2.259
 3779W        W76193  30.625  39.386  13.470
 3780W        W76194  43.995  19.270  11.983
 3781W        W76195  27.475  21.548  14.280
 3782W        W76196  27.450   6.230   2.808
 3783W        W76197   2.292   0.345  11.512
 3784W        W76198  30.975  11.728   1.885
 3785W        W76199   5.916   1.414  12.535
 3786W        W76200  40.315  13.280   1.277
 3787W        W76201  27.456  38.902  14.400
 3788W        W76202  38.833  41.963   3.199
 3789W        W76203  28.633  26.644   4.767
 3790W        W76204  29.453  27.944  13.944
 3791W        W76205  29.555  33.093   1.784
 3792W        W76206  16.272  11.753   2.661
 3793W        W76207  11.165   9.342   4.252
 3794W        W76208  27.577  23.057   3.279
 3795W        W76209  25.053  11.787   2.401
 3796W        W76210  31.604  41.298  12.441
 3797W        W76211   3.945   1.451  14.002
 3798W        W76212  32.040   1.736   0.916
 3799W        W76213   0.396   0.429   1.702
 3800W        W76214  30.528  14.642   1.832
 3801W        W76215  37.432  17.076  11.606
 3802W        W76216  17.079  21.208  12.094
 3803W        W76217  30.056   3.432   2.691
 3804W        W76218  26.964  25.655  13.908
 3805W        W76219  14.596  27.956   4.773
 3806W        W76220  15.294  19.103  10.914
 3807W        W76221   2.737  30.448  10.631
 3808W        W76222  31.429  37.978  10.408
 3809W        W76223  12.780  21.653   0.265
 3810W        W76224  40.906  19.079  12.564
 3811W        W76225  23.031  17.061  11.514
 3812W        W76226   3.354  31.946   4.835
 3813W        W76227  21.029  34.105   3.150
 3814W        W76228  20.618  11.156  11.608
 3815W        W76229  16.721  27.959  12.070
 3816W        W76230  16.801  19.749   3.794
 3817W        W76231  14.703  28.639   3.372
 3818W        W76232  23.064  42.948   1.428
 3819W        W76233  16.777   8.699   0.445
 3820W        W76234  23.671  11.693  13.013
 3821W        W76235  14.824   6.688   0.874
 3822W        W76236  15.323   5.734  10.960
 3823W        W76237  13.306  38.071   3.803
 3824W        W76238   9.671  44.949  10.916
 3825W        W76239  13.711  26.135  11.503
 3826W        W76240   2.793  20.546  11.416
 3827W        W76241   5.352  40.887   2.242
 3828W        W76242   5.416  41.857   4.652
 3829W        W76243  16.780  20.638   0.922
 3830W        W76244  25.592  16.731   4.612
 3831W        W76245  40.412  16.197   0.956
 3832W        W76246  12.248   3.282   1.282
 3833W        W76247   0.814  36.570   1.871
 3834W        W76248  14.700  32.566  13.835
 3835W        W76249   2.425  20.270  11.534
 3836W        W76250   7.671  43.998  10.596
 3837W        W76251  32.093  41.884   4.191
 3838W        W76252  37.832   5.788   0.744
 3839W        W76253  44.881  44.791  11.921
 3840W        W76254  20.724   0.350  12.396
 3841W        W76255  18.544  35.880   0.286
 3842W        W76256  17.219  38.829   4.328
 3843W        W76257  22.720  20.652   2.722
 3844W        W76258  42.497  32.472   4.259
 3845W        W76259   4.276   3.450   0.274
 3846W        W76260  31.950  29.959   1.729
 3847W        W76261  38.342  33.956   2.316
 3848W        W76262  39.504  37.858  13.463
 3849W        W76263   9.290  34.024  12.533
 3850W        W76264   7.760  30.633   3.296
 3851W        W76265  21.714  36.557  11.557
 3852W        W76266   5.349  33.926   2.256
 3853W        W76267  34.507  26.034  13.816
 3854W        W76268   9.355  42.287  12.001
 3855W        W76269   6.676  32.534  12.344
 3856W        W76270  15.817  10.309  12.468
 3857W        W76271  37.019   0.835   1.244
 3858W        W76272  28.966  40.366   1.356
 3859W        W76273  13.679  18.179  10.535
 3860W        W76274  35.104  37.913  12.364
 3861W        W76275  29.509  43.836  14.487
 3862W        W76276  13.787  25.496   2.257
 3863W        W76277  44.416   4.803  14.027
 3864W        W76278   6.289  17.660   0.366
 3865W        W76279  28.178  35.855   3.339
 3866W        W76280  29.973  40.475   3.866
 3867W        W76281  23.697   8.669  13.374
 3868W        W76282  28.094   7.343   4.268
 3869W        W76283  25.617   4.302  14.881
 3870W        W76284  20.692  19.046   3.245
 3871W        W76285   4.239   6.310   4.307
 3872W        W76286  41.829  14.765   2.766
 3873W        W76287   6.903  28.535   1.359
 3874W        W76288  31.948  42.865  13.314
 3875W        W76289  16.203  11.296  12.979
 3876W        W76290  19.149  40.465   3.810
 3877W        W76291  16.603  32.894  10.933
 3878W        W76292   0.358   6.728  13.859
 3879W        W76293   0.942  17.580  14.439
 3880W        W76294   8.317  10.381   0.849
 3881W        W76295  30.570  26.659  12.422
 3882W        W76296  24.019  36.004  12.857
 3883W        W76297  41.824   7.884  10.505
 3884W        W76298  20.093  44.981  10.430
 3885W        W76299   6.896  41.828   0.740
 3886W        W76300  28.978   0.256   2.844
 3887W        W76301  36.952  18.789  14.500
 3888W        W76302   7.888  22.157   1.713
 3889W        W76303  27.568  35.426   2.393
 3890W        W76304  18.134   2.815   0.337
 3891W        W76305   9.765  23.650   4.643
 3892W        W76306  13.641  19.746  11.596
 3893W        W76307  18.629  25.619   2.903
 3894W        W76308  12.839  34.555  12.503
 3895W        W76309  40.000  38.002  13.510
 3896W        W76310  19.637  39.467  11.447
 3897W        W76311  40.017  35.551   4.222
 3898W        W76312  38.561  27.146  11.509
 3899W        W76313  25.586   7.386  12.432
 3900W        W76314  34.510  10.670   3.814
 3901W        W76315   8.212  21.132   3.319
 3902W        W76316  33.512   2.256  11.861
 3903W        W76317  35.002   5.695  12.391
 3904W        W76318  32.060  24.026  12.375
 3905W        W76319  29.487  43.283  14.395
 3906W        W76320   5.721  40.982   0.806
 3907W        W76321  29.486  11.833   4.826
 3908W        W76322  22.734   2.457   5.172
 3909W        W76323   5.837  41.485  10.618
 3910W        W76324   8.655  27.505   3.867
 3911W        W76325  43.805   9.888  11.373
 3912W        W76326   4.355  28.095   3.710
 3913W        W76327  42.456  29.631  13.524
 3914W        W76328  37.421   4.365  14.792
 3915W        W76329   5.208  11.360  12.376
 3916W        W76330  20.238  36.469  11.499
 3917W        W76331   2.280  10.344  14.318
 3918W        W76332  42.941  39.989   3.182
 3919W        W76333  26.617  34.027   3.653
 3920W        W76334  20.227  18.725  10.560
 3921W        W76335  38.039  19.552   1.870
 3922W        W76336   2.285  26.059   0.394
 3923W        W76337  37.033  19.728  11.082
 3924W        W76338   4.830   5.844  13.954
 3925W        W76339  32.474  13.796   0.731
 3926W        W76340  41.948  24.642   1.293
 3927W        W76341  33.531  30.488   2.882
 3928W        W76342   0.967   5.423   3.175
 3929W        W76343  22.220   7.202   1.400
 3930W        W76344   4.385   0.489   0.818
 3931W        W76345  28.129   4.274   2.348
 3932W        W76346  43.859  44.856   2.284
 3933W        W76347  33.552   7.694  12.919
 3934W        W76348  35.903  37.389   0.854
 3935W        W76349  31.915   8.729  14.792
 3936W        W76350  43.408  38.385   1.777
 3937W        W76351  24.576  15.642  13.389
 3938W        W76352  18.150  15.614   0.334
 3939W        W76353  32.003   6.684   2.230
 3940W        W76354  26.132  34.039   1.359
 3941W        W76355  14.718  13.664   3.181
 3942W        W76356  28.517  34.469   3.357
 3943W        W76357  13.693  10.657  13.906
 3944W        W76358  10.275  38.978   3.260
 3945W        W76359  42.284  31.444  12.075
 3946W        W76360  25.703  34.460   2.262
 3947W        W76361   4.417  33.061   1.920
 3948W        W76362  19.560  10.840   3.698
 3949W        W76363  29.033  35.377  14.951
 3950W        W76364  12.751  21.134  12.423
 3951W        W76365  39.847  19.235   3.822
 3952W        W76366   1.420  44.334  13.370
 3953W        W76367   3.388   4.381  14.010
 3954W        W76368  16.756  35.555  10.984
 3955W        W76369  36.045  25.145   4.125
 3956W        W76370  32.429   4.838  12.823
 3957W        W76371  18.278   5.906  12.359
 3958W        W76372   7.357  33.432  13.988
 3959W        W76373  29.091  19.097  12.398
 3960W        W76374  34.069  36.027  10.588
 3961W        W76375  17.755  44.899   4.601
 3962W        W76376  25.542  42.423   1.324
 3963W        W76377  32.573   9.178  10.530
 3964W        W76378  20.116  17.167   0.810
 3965W        W76379   3.927  14.314  14.289
 3966W        W76380   3.235   7.736  11.929
 3967W        W76381  22.736   4.244  14.988
 3968W        W76382  10.825  32.423   1.280
 3969W        W76383  33.605  31.956   1.763
 3970W        W76384  27.987  19.626  13.898
 3971W        W76385  26.074  27.005   4.692
 3972W        W76386   7.356  28.047   1.331
 3973W        W76387  10.272   5.762   0.300
 3974W        W76388  23.163  20.176  10.977
 3975W        W76389  35.002  19.156   1.915
 3976W        W76390   3.274   3.270  13.352
 3977W        W76391  37.507   1.260   4.117
 3978W        W76392  16.102  25.634   1.222
 3979W        W76393  41.529   6.345   4.176
 3980W        W76394   4.746  22.729   4.658
 3981W        W76395  12.230   7.881   1.784
 3982W        W76396  29.918  11.861   4.284
 3983W        W76397  43.920  22.546   2.879
 3984W        W76398   1.467  30.910   2.331
 3985W        W76399  21.251  10.199  10.912
 3986W        W76400   9.742  28.081   3.239
 3987W        W76401  38.490   7.824   0.268
 3988W        W76402  29.161  20.640   4.647
 3989W        W76403  13.606  13.284  10.973
 3990W        W76404  14.628   1.847  11.926
 3991W        W76405  29.089  32.505   1.318
 3992W        W76406  18.265  37.086   0.764
 3993W        W76407  33.914   1.870   0.911
 3994W        W76408  36.359  12.255  12.979
 3995W        W76409  43.459   3.816  13.870
 3996W        W76410   0.918  35.416  13.043
 3997W        W76411  11.708  22.175   1.698
 3998W        W76412  22.066  40.803  14.030
 3999W        W76413  39.338  44.419   3.847
 4000W        W76414  39.547  38.367   1.730
 4001W        W76415  18.653   1.324  11.444
 4002W        W76416  39.394   1.927  12.351
 4003W        W76417   7.837  17.676   2.178
 4004W        W76418  43.340  38.827  12.444
 4005W        W76419  32.065   6.787   0.766
 4006W        W76420  37.350  10.298   0.890
 4007W        W76421  22.542   3.329   3.740
 4008W        W76422  14.661  32.433  12.904
 4009W        W76423  10.303   9.653  11.045
 4010W        W76424  41.417   8.727  14.467
 4011W        W76425  41.001  31.463  12.445
 4012W        W76426  30.432  12.162  10.890
 4013W        W76427  34.544   7.226   4.806
 4014W        W76428  37.930  35.102  13.940
 4015W        W76429  40.876  37.544  11.952
 4016W        W76430  37.567  44.413  10.606
 4017W        W76431   5.435  39.333  14.797
 4018W        W76432  17.779  15.592   0.768
 4019W        W76433   9.368  42.488   0.965
 4020W        W76434  44.940   4.943  12.464
 4021W        W76435  35.436   5.696  13.528
 4022W        W76436  14.103  34.534  13.516
 4023W        W76437  17.763  37.467  14.442
 4024W        W76438  25.493   1.937   3.369
 4025W        W76439   4.224   8.835   4.186
 4026W        W76440  12.171  33.522   2.384
 4027W        W76441  12.736   2.343   4.115
 4028W        W76442  37.442   4.778  13.906
 4029W        W76443  17.303  40.892  13.418
 4030W        W76444  25.516  42.022   0.965
 4031W        W76445  22.609  24.697   0.289
 4032W        W76446   1.933  33.502   0.468
 4033W        W76447  32.526  18.129  12.828
 4034W        W76448  26.672  29.593  10.522
 4035W        W76449  33.398  16.799   4.816
 4036W        W76450   7.899  33.463  14.016
 4037W        W76451  17.086  36.049  13.352
 4038W        W76452  41.524  11.662   1.450
 4039W        W76453   9.321   9.304  14.816
 4040W        W76454  29.622  18.756  14.929
 4041W        W76455   3.274  15.230  11.925
 4042W        W76456  21.584   7.726   4.324
 4043W        W76457  24.111  38.423   0.731
 4044W        W76458  26.673  20.180  13.438
 4045W        W76459  44.857   6.327  11.384
 4046W        W76460   2.913  20.073  12.371
 4047W        W76461   4.918  42.917   2.266
 4048W        W76462  17.565   7.907  13.031
 4049W        W76463   0.368   6.851  14.974
 4050W        W76464  20.148  42.020   3.819
 4051W        W76465  26.209  20.663  10.956
 4052W        W76466  27.012  42.886   5.176
 4053W        W76467  32.098  39.043   0.901
 4054W        W76468  41.932  19.096  13.323
 4055W        W76469  39.532  23.614  10.439
 4056W        W76470  24.663  26.160   0.737
 4057W        W76471  15.159   3.258  13.875
 4058W        W76472  44.490  23.043  11.129
 4059W        W76473   9.674  29.561  12.484
 4060W        W76474  26.647  34.597   3.759
 4061W        W76475   1.939  12.770   3.245
 4062W        W76476   8.860  20.611  11.444
 4063W        W76477  32.103   6.905  13.316
 4064W        W76478   6.855  24.060  11.571
 4065W        W76479  33.108   9.654  13.996
 4066W        W76480  19.573  17.297  13.039
 4067W        W76481  44.456  32.603  11.463
 4068W        W76482  44.389  24.198  12.926
 4069W        W76483   1.301  27.648   2.779
 4070W        W76484   6.279  31.941   4.235
 4071W        W76485  24.109  12.237  13.850
 4072W        W76486  43.510   4.881   1.896
 4073W        W76487  27.009  20.561   3.785
 4074W        W76488  38.386  42.338   0.410
 4075W        W76489  43.392   2.259  11.387
 4076W        W76490   7.224  36.066  10.510
 4077W        W76491  32.035  22.086   4.601
 4078W        W76492  16.198  37.009   1.844
 4079W        W76493   7.737  29.659   1.269
 4080W        W76494  24.089  42.895   2.374
 4081W        W76495   1.401  22.589   0.304
 4082W        W76496  16.734   0.474   2.797
 4083W        W76497  24.560   0.364  13.394
 4084W        W76498   8.698  35.399  12.481
 4085W        W76499   2.413  39.456   3.187
 4086W        W76500   8.857   5.768   2.755
 4087W        W76501  30.643  16.203  13.902
 4088W        W76502  28.485  42.423   0.263
 4089W        W76503  20.075  24.181   4.188
 4090W        W76504   8.796   5.399  10.472
 4091W        W76505   6.920  37.019   3.775
 4092W        W76506  28.568  11.255   2.796
 4093W        W76507  43.815   6.281   1.758
 4094W        W76508  21.708  43.885   3.669
 4095W        W76509  24.661  36.385   0.306
 4096W        W76510   5.437  16.716   2.303
 4097W        W76511  41.483  44.776   3.333
 4098W        W76512   3.722  12.620  10.153
 4099W        W76513  17.101  23.507  10.045
 4100W        W76514   2.770  22.684  13.900
 4101W        W76515  39.320   6.920   2.230
 4102W        W76516  29.920  18.775  12.835
 4103W        W76517   4.374   0.772  12.374
 4104W        W76518  31.597  35.923  12.456
 4105W        W76519  24.623  10.861  14.023
 4106W        W76520  38.051   5.818   2.797
 4107W        W76521   6.696  20.107   1.824
 4108W        W76522  31.940  24.706  11.481
 4109W        W76523  24.625  40.043  11.059
 4110W        W76524  26.182  37.474   0.919
 4111W        W76525  44.956  32.481  11.375
 4112W        W76526   4.350  36.377   2.288
 4113W        W76527  16.774  43.479  13.397
 4114W        W76528   8.375  40.464  12.011
 4115W        W76529   1.471   5.307  10.919
 4116W        W76530  18.258  31.473   4.670
 4117W        W76531  10.667   9.272  13.834
 4118W        W76532   5.691  18.583   2.207
 4119W        W76533  31.599  30.427  13.037
 4120W        W76534   8.247  18.729   2.267
 4121W        W76535  36.571  40.993   0.261
 4122W        W76536  44.494  24.210  14.410
 4123W        W76537  31.073   5.233   1.756
 4124W        W76538  40.489  12.264  14.321
 4125W        W76539   0.893  24.718   0.327
 4126W        W76540  43.002  21.745  13.044
 4127W        W76541  15.258  27.109  11.933
 4128W        W76542  37.895  20.067   2.899
 4129W        W76543   4.732  14.641  11.084
 4130W        W76544  15.795  36.427  10.411
 4131W        W76545   5.330  13.709   4.323
 4132W        W76546   7.323  37.048  11.998
 4133W        W76547  24.024   7.180   0.432
 4134W        W76548  33.495  27.097   2.343
 4135W        W76549  19.565  44.320  12.009
 4136W        W76550   8.835   8.776  13.387
 4137W        W76551  37.525   7.728   1.834
 4138W        W76552  28.580  36.941   2.219
 4139W        W76553  25.705  25.575   4.725
 4140W        W76554  22.134  26.200  13.983
 4141W        W76555   9.210  24.196   1.351
 4142W        W76556  19.564  28.589   3.727
 4143W        W76557   7.865  10.803   3.810
 4144W        W76558   6.747  18.763   1.720
 4145W        W76559  32.506   0.903  11.594
 4146W        W76560  15.578   1.910   0.881
 4147W        W76561   7.668  15.712   0.391
 4148W        W76562  27.537   9.870  13.053
 4149W        W76563  25.216   5.906   4.616
 4150W        W76564  26.643  18.706   0.792
 4151W        W76565   5.388   0.289  12.862
 4152W        W76566  10.633  25.682   1.912
 4153W        W76567  38.968   6.903   4.337
 4154W        W76568  23.729   3.292  10.554
 4155W        W76569  18.256   5.416   1.866
 4156W        W76570  36.891   1.249  12.512
 4157W        W76571   5.206   9.844   0.778
 4158W        W76572   0.949  20.658  12.577
 4159W        W76573  22.089  44.421   3.183
 4160W        W76574  43.793  21.708  10.429
 4161W        W76575  30.623  19.256  13.412
 4162W        W76576  15.723  37.497   5.137
 4163W        W76577  27.445  29.593  12.055
 4164W        W76578   2.254  13.260  10.901
 4165W        W76579  29.473  35.889   3.257
 4166W        W76580  24.578  24.702  14.831
 4167W        W76581  10.646  18.240  10.541
 4168W        W76582  32.037  43.462   3.837
 4169W        W76583  17.592  16.736   1.271
 4170W        W76584  12.285  17.574  12.997
 4171W        W76585  39.463  13.768  12.031
 4172W        W76586   6.399  17.111  13.347
 4173W        W76587  11.358  17.697  12.350
 4174W        W76588  31.469  33.499  13.444
 4175W        W76589  11.712  18.598  12.390
 4176W        W76590  10.172  25.159   1.424
 4177W        W76591  33.960  12.710  12.339
 4178W        W76592  42.924   4.721   3.284
 4179W        W76593  41.394   7.787  11.508
 4180W        W76594   9.209  30.432   1.796
 4181W        W76595  34.519   0.880  13.807
 4182W        W76596  31.425   3.799   2.237
 4183W        W76597  37.495  25.136  12.363
 4184W        W76598  42.525   4.383   1.379
 4185W        W76599  38.987  19.736   4.656
 4186W        W76600   3.236  17.165   0.293
 4187W        W76601  17.558   8.229  13.841
 4188W        W76602  33.555  35.972  11.564
 4189W        W76603  18.157   8.709  13.003
 4190W        W76604  32.517  40.001  12.986
 4191W        W76605   3.438  30.158   4.758
 4192W        W76606  23.720  16.663   4.751
 4193W        W76607  24.611   1.925  10.480
 4194W        W76608  22.233  39.043  12.394
 4195W        W76609  10.724  35.019  14.819
 4196W        W76610  28.002  37.425  10.478
 4197W        W76611  41.992  40.812   3.150
 4198W        W76612   5.301  14.755   0.760
 4199W        W76613  12.338  35.873   3.649
 4200W        W76614  11.699   1.897  12.067
 4201W        W76615  21.521  15.751  12.550
 4202W        W76616  14.224   3.888   0.381
 4203W        W76617   0.940  15.667   1.213
 4204W        W76618  33.503  30.940  11.598
 4205W        W76619  41.811  41.863   3.779
 4206W        W76620  13.201  21.175  12.036
 4207W        W76621  29.097   2.961   1.439
 4208W        W76622   6.743  10.327   0.396
 4209W        W76623  12.289  40.806  10.628
 4210W        W76624   0.971  19.205   0.809
 4211W        W76625  30.582  26.072   0.377
 4212W        W76626  27.078  25.075   2.806
 4213W        W76627  29.969  32.526  13.841
 4214W        W76628  43.306  27.126   1.824
 4215W        W76629  34.559   7.736  11.042
 4216W        W76630   9.847  30.979   4.194
 4217W        W76631  21.159  17.247   1.434
 4218W        W76632  14.186  39.911   0.893
 4219W        W76633  29.455  29.617  12.988
 4220W        W76634  40.443  33.090  12.441
 4221W        W76635  18.125  27.650  12.070
 4222W        W76636  34.017  18.058   3.791
 4223W        W76637  39.853  31.918  13.495
 4224W        W76638  17.186  39.386   0.800
 4225W        W76639  30.131  26.019  11.901
 4226W        W76640  39.006  43.308  14.937
 4227W        W76641  24.071   9.666  14.354
 4228W        W76642  26.631  34.428  11.038
 4229W        W76643  32.049   6.836  11.586
 4230W        W76644  29.643   4.704   3.278
 4231W        W76645  41.958  11.785   2.897
 4232W        W76646  12.272  12.684   1.333
 4233W        W76647  24.564  34.609  14.465
 4234W        W76648   3.738  19.212  12.854
 4235W        W76649  37.524  35.019  10.052
 4236W        W76650  20.748  12.765  11.968
 4237W        W76651  20.755  42.503   0.741
 4238W        W76652  25.029  27.628  13.028
 4239W        W76653  25.971  44.411   4.740
 4240W        W76654   3.269  17.759  14.439
 4241W        W76655  39.540  14.627  10.454
 4242W        W76656  40.533  38.992   2.844
 4243W        W76657  18.245  24.725  12.022
 4244W        W76658   5.203   1.897   3.190
 4245W        W76659   8.284  39.522   0.761
 4246W        W76660  21.735  19.279  13.899
 4247W        W76661  43.865  16.094  11.922
 4248W        W76662  38.072  37.955  10.971
 4249W        W76663  31.461  32.968   1.228
 4250W        W76664  28.069  43.361   1.390
 4251W        W76665  35.853  34.995   0.929
 4252W        W76666  25.182  25.474   1.819
 4253W        W76667  30.031  29.128  13.513
 4254W        W76668  24.061   0.312   1.266
 4255W        W76669  18.294  13.617   3.385
 4256W        W76670   9.660  16.771   3.363
 4257W        W76671  10.173   6.712   3.758
 4258W        W76672  44.871  21.592  13.409
 4259W        W76673  15.204   2.788  14.960
 4260W        W76674  14.224  22.200  13.037
 4261W        W76675  44.907  16.744  14.027
 4262W        W76676  40.814  10.749  14.283
 4263W        W76677  31.552  41.921  12.906
 4264W        W76678   0.856   4.829   2.841
 4265W        W76679  41.812  37.343  13.438
 4266W        W76680  25.637  42.029   1.765
 4267W        W76681  39.941   6.697  14.971
 4268W        W76682   7.707  39.479   0.346
 4269W        W76683  15.287  35.473  14.371
 4270W        W76684   7.284  13.245   2.883
 4271W        W76685  18.728  27.175  13.930
 4272W        W76686  41.997   0.487   4.751
 4273W        W76687   8.806  10.859   3.818
 4274W        W76688   8.218  42.394   3.823
 4275W        W76689  42.441  43.330  13.443
 4276W        W76690  40.941  18.085  10.984
 4277W        W76691  37.018  32.040  13.020
 4278W        W76692  39.442  11.644   3.317
 4279W        W76693  10.319  29.933   3.723
 4280W        W76694  26.567  31.487   1.893
 4281W        W76695   5.318   1.477  13.492
 4282W        W76696  21.108  40.053   4.723
 4283W        W76697  28.180  34.578  10.435
 4284W        W76698   2.734  16.692  10.491
 4285W        W76699  15.206  10.263   4.601
 4286W        W76700  42.514  39.443   1.298
 4287W        W76701  37.914  13.266  13.509
 4288W        W76702   7.835  25.705   2.708
 4289W        W76703  40.387  12.809   1.790
 4290W        W76704  31.564  24.014   3.710
 4291W        W76705  16.296  10.159   1.293
 4292W        W76706  40.348   8.750  11.094
 4293W        W76707  33.622  14.724   0.964
 4294W        W76708  35.497  14.262  12.405
 4295W        W76709  11.825   3.276  13.955
 4296W        W76710  42.373  28.585   1.359
 4297W        W76711  29.053  17.182  10.472
 4298W        W76712  29.056  25.666  13.437
 4299W        W76713  30.940  20.676  13.356
 4300W        W76714   4.297  28.022  12.038
 4301W        W76715  25.146  21.532  14.385
 4302W        W76716   2.823  20.546  14.389
 4303W        W76717  27.573   6.339  11.433
 4304W        W76718  31.133  18.742  11.482
 4305W        W76719   1.324   5.365  12.517
 4306W        W76720  33.062   1.336  11.430
 4307W        W76721  39.049  18.774   4.133
 4308W        W76722  40.429  31.466  12.883
 4309W        W76723  27.074  31.435  10.951
 4310W        W76724  30.077   0.465  13.836
 4311W        W76725  12.657   1.913  12.467
 4312W        W76726  24.584  21.699   4.626
 4313W        W76727  32.513  30.600   5.207
 4314W        W76728  38.893  15.086  13.435
 4315W        W76729  21.529  11.308  14.299
 4316W        W76730   9.844  33.037  14.779
 4317W        W76731  32.913  27.969   4.341
 4318W        W76732  15.123  33.388  10.132
 4319W        W76733  34.114  39.436   3.280
 4320W        W76734   0.441   4.804   4.326
 4321W        W76735  11.176  29.101  10.505
 4322W        W76736  37.928  37.540  14.515
 4323W        W76737  36.012  12.344   3.662
 4324W        W76738  41.992   6.881   3.195
 4325W        W76739  15.615  25.467   4.141
 4326W        W76740  39.979  20.630   0.868
 4327W        W76741  32.628   5.808   4.137
 4328W        W76742  30.430  13.270   0.946
 4329W        W76743  29.500  10.656  11.080
 4330W        W76744  15.249  29.558  13.373
 4331W        W76745  27.512  41.370   3.188
 4332W        W76746  39.017   5.698   4.676
 4333W        W76747  21.246  38.521   4.164
 4334W        W76748  39.016  15.088   0.835
 4335W        W76749  35.522   4.757   5.147
 4336W        W76750   7.674  34.919   4.205
 4337W        W76751  21.050  35.985   2.374
 4338W        W76752  18.598   5.728  12.496
 4339W        W76753  29.063   3.792  13.318
 4340W        W76754  39.038  39.413   0.744
 4341W        W76755  43.771   5.326  14.912
 4342W        W76756  15.770   0.773   2.699
 4343W        W76757   3.414   8.391  13.899
 4344W        W76758  42.307  36.909  14.307
 4345W        W76759  18.054  36.415   0.772
 4346W        W76760  11.192   2.804  12.394
 4347W        W76761   2.366  26.073   2.869
 4348W        W76762   3.863  34.565  14.968
 4349W        W76763   3.726  39.417  13.349
 4350W        W76764  39.476  11.802   0.928
 4351W        W76765  32.466  27.088   0.827
 4352W        W76766  36.475  21.189  13.867
 4353W        W76767  37.926  17.767  12.961
 4354W        W76768  19.121  42.508  12.481
 4355W        W76769   7.386   0.439  11.927
 4356W        W76770  15.621  40.826  11.553
 4357W        W76771   2.243  26.953  12.454
 4358W        W76772  28.009  23.690  11.985
 4359W        W76773  33.587  42.429   2.196
 4360W        W76774   0.977   1.778   2.197
 4361W        W76775  31.937  17.684  14.860
 4362W        W76776   1.396   6.322   1.752
 4363W        W76777  14.754   1.355   2.836
 4364W        W76778   4.781  29.521  12.346
 4365W        W76779  36.014   6.361  12.535
 4366W        W76780  33.423  43.401   0.776
 4367W        W76781  41.938  36.501   0.432
 4368W        W76782  38.037  21.600  14.492
 4369W        W76783  34.054  19.565  13.542
 4370W        W76784  29.465   5.884  14.007
 4371W        W76785   0.428  22.519   1.907
 4372W        W76786  11.768  24.109  12.950
 4373W        W76787  30.144   7.669  13.984
 4374W        W76788  14.700  38.942  13.538
 4375W        W76789  44.410   4.873  14.287
 4376W        W76790  15.137  38.353   1.404
 4377W        W76791  37.977  39.863  14.798
 4378W        W76792  38.831  42.842  10.602
 4379W        W76793  12.327  36.443  12.012
 4380W        W76794   2.428  29.568  13.527
 4381W        W76795   6.189  31.964   1.720
 4382W        W76796  20.226  17.564   4.599
 4383W        W76797   8.868  19.682  13.409
 4384W        W76798   7.706  38.958   4.274
 4385W        W76799  33.427  16.091  13.028
 4386W        W76800  34.598  31.084   1.237
 4387W        W76801  44.297  24.159   3.675
 4388W        W76802  28.134   7.683  10.444
 4389W        W76803  42.441  44.498   2.760
 4390W        W76804  40.463  12.788  13.328
 4391W        W76805  22.092  23.708  13.007
 4392W        W76806  42.797   4.382   4.143
 4393W        W76807  32.590  34.087   3.251
 4394W        W76808  29.636   8.781  13.871
 4395W        W76809  26.206  29.493  12.092
 4396W        W76810  12.765  16.794  13.884
 4397W        W76811  11.357  12.211  12.864
 4398W        W76812  17.793  43.854   3.168
 4399W        W76813  38.845  41.824  14.405
 4400W        W76814  22.715  22.047   2.738
 4401W        W76815   0.855  27.169  14.018
 4402W        W76816  35.434  36.473  10.904
 4403W        W76817  38.445  24.217  12.480
 4404W        W76818  39.321  10.856   4.286
 4405W        W76819  44.874   9.303  13.431
 4406W        W76820  11.185  34.556   4.314
 4407W        W76821   4.708  17.769  14.758
 4408W        W76822  19.042  28.139  10.568
 4409W        W76823  26.167  42.847   3.831
 4410W        W76824  31.928  13.276   4.341
 4411W        W76825  32.457  17.731  11.932
 4412W        W76826  15.794  41.892  14.963
 4413W        W76827  21.688  23.710   1.789
 4414W        W76828  29.086  16.702   4.616
 4415W        W76829   0.966  12.853  10.527
 4416W        W76830  35.938   5.204   4.178
 4417W        W76831   9.801   9.718  14.815
 4418W        W76832  13.268  25.032  14.408
 4419W        W76833  11.295  36.574  12.535
 4420W        W76834   5.339  13.817   2.844
 4421W        W76835   4.374  25.631  14.353
 4422W        W76836   6.423  42.461   0.887
 4423W        W76837  44.965  38.422  10.575
 4424W        W76838  19.605  32.023   4.140
 4425W        W76839  41.993   5.740  13.823
 4426W        W76840  14.215   9.150  13.829
 4427W        W76841  28.186  12.181   2.322
 4428W        W76842  41.034  17.795  10.540
 4429W        W76843  11.645  39.056  10.569
 4430W        W76844  28.496  41.427   3.725
 4431W        W76845  16.304  21.226  13.548
 4432W        W76846  40.818  27.947  13.842
 4433W        W76847  38.028   4.815   1.401
 4434W        W76848  34.550  35.466  12.882
 4435W        W76849  27.455   5.881  14.305
 4436W        W76850  40.901  29.562   4.178
 4437W        W76851  18.748  22.103  13.967
 4438W        W76852   4.773  20.727   2.273
 4439W        W76853  26.552  34.478   0.928
 4440W        W76854  26.488   2.344   1.370
 4441W        W76855   3.336  25.636   5.637
 4442W        W76856   5.349  27.129  11.077
 4443W        W76857  12.341  25.587   0.956
 4444W        W76858   6.833  24.990   0.463
 4445W        W76859  40.525  11.135   1.896
 4446W        W76860  19.247  31.508   0.778
 4447W        W76861  31.153   3.911   4.789
 4448W        W76862  33.413  10.158   0.442
 4449W        W76863   7.703  22.066  12.488
 4450W        W76864   7.716   7.302  14.355
 4451W        W76865  21.661  19.603   1.429
 4452W        W76866   9.729  20.120  13.355
 4453W        W76867  28.134  19.563   4.224
 4454W        W76868  43.925  42.527  13.974
 4455W        W76869  30.623  22.500  12.495
 4456W        W76870  18.584  14.694   2.270
 4457W        W76871   1.378   8.265   0.474
 4458W        W76872  27.081  36.055   2.683
 4459W        W76873  31.959   3.914  14.421
 4460W        W76874  35.892  41.802  13.481
 4461W        W76875  11.726  40.891  10.608
 4462W        W76876   2.958   4.358   1.778
 4463W        W76877  26.054   1.363  12.414
 4464W        W76878  35.584   3.304   3.727
 4465W        W76879  21.664  37.473   4.748
 4466W        W76880  10.323  17.162   5.092
 4467W        W76881  18.107  14.297  13.398
 4468W        W76882  20.040  40.333  13.819
 4469W        W76883   6.776  43.454   4.224
 4470W        W76884  22.531  41.970   3.862
 4471W        W76885   2.805  33.015   4.304
 4472W        W76886  33.569  25.507  13.510
 4473W        W76887   4.371  25.601   3.200
 4474W        W76888  42.418  32.142   2.829
 4475W        W76889  39.876  10.810  12.045
 4476W        W76890   5.379  34.091   1.715
 4477W        W76891   6.787  23.234  13.371
 4478W        W76892  11.829  15.719  11.542
 4479W        W76893  11.353  28.119  14.468
 4480W        W76894   2.453  39.492   0.854
 4481W        W76895  23.603  41.417  12.452
 4482W        W76896  29.057  37.834   3.190
 4483W        W76897   3.384   8.335   3.857
 4484W        W76898  27.595  13.130   2.801
 4485W        W76899  28.936  24.654  11.541
 4486W        W76900  32.438  18.595  11.104
 4487W        W76901  33.024  41.974   0.861
 4488W        W76902  21.062  29.487  13.534
 4489W        W76903  37.069  25.090   0.813
 4490W        W76904  19.539  25.711  14.859
 4491W        W76905   7.245  14.785  14.961
 4492W        W76906  30.463  26.157  10.522
 4493W        W76907   1.460  18.125  12.360
 4494W        W76908  26.979  10.164  13.503
 4495W        W76909   9.377  39.352  11.860
 4496W        W76910  15.776   6.843   4.706
 4497W        W76911  42.840  35.554   2.667
 4498W        W76912   7.188  11.370  13.400
 4499W        W76913  21.648   3.852   4.236
 4500W        W76914  23.171   8.199   1.350
 4501W        W76915  16.693  41.396   4.302
 4502W        W76916  23.075  26.112  11.509
 4503W        W76917  16.798  44.467  13.423
 4504W        W76918  31.488  37.349  12.490
 4505W        W76919  11.715  25.186  12.003
 4506W        W76920   8.365  32.420  10.627
 4507W        W76921  36.472  12.219  11.048
 4508W        W76922  31.997  38.001  12.853
 4509W        W76923  44.485  15.218  11.455
 4510W        W76924  43.013   3.835   3.337
 4511W        W76925  14.747  25.143  10.636
 4512W        W76926  41.972  39.459   3.218
 4513W        W76927  10.209   7.850  13.517
 4514W        W76928  14.720  22.191  13.478
 4515W        W76929  40.427   7.759   2.231
 4516W        W76930   2.859  41.909   2.712
 4517W        W76931  21.144  22.032  12.431
 4518W        W76932  35.898  13.702   3.379
 4519W        W76933  23.709  29.502   3.704
 4520W        W76934  40.372  27.125   4.125
 4521W        W76935  41.420  25.474   3.216
 4522W        W76936  28.560  22.613   3.802
 4523W        W76937  41.977  26.674  10.561
 4524W        W76938  43.412   7.777  14.339
 4525W        W76939   6.732   7.320   3.206
 4526W        W76940  34.432  42.818  12.347
 4527W        W76941  37.051  36.020   5.268
 4528W        W76942  43.428  11.721  10.556
 4529W        W76943   5.914  43.905  11.415
 4530W        W76944  29.628  31.103  12.978
 4531W        W76945   7.689  26.074   0.323
 4532W        W76946  30.519  27.146   1.449
 4533W        W76947  15.721  42.961   3.847
 4534W        W76948  34.406   4.223   2.188
 4535W        W76949   4.361  21.113   1.793
 4536W        W76950  13.221  26.070   3.819
 4537W        W76951  42.850  33.567   1.911
 4538W        W76952  20.622  44.883  11.078
 4539W        W76953  26.017   3.356  10.626
 4540W        W76954   9.849  33.510   2.338
 4541W        W76955   9.778  37.886  14.374
 4542W        W76956  36.942  10.267  12.352
 4543W        W76957  13.130  20.204   1.815
 4544W        W76958  33.985  42.938   3.684
 4545W        W76959  20.266  31.087   2.768
 4546W        W76960  19.723  11.317   1.796
 4547W        W76961  44.350  33.512  11.567
 4548W        W76962   1.765  41.011  10.605
 4549W        W76963  18.691   5.344   0.303
 4550W        W76964   4.419   4.919   3.666
 4551W        W76965   0.412  28.122   4.718
 4552W        W76966   9.729  29.997  12.371
 4553W        W76967  39.816  36.451  11.876
 4554W        W76968  23.101  13.764   4.127
 4555W        W76969  28.987   0.745   1.399
 4556W        W76970   4.368  11.708  14.334
 4557W        W76971  31.546  18.118  13.336
 4558W        W76972  42.785  20.741  10.632
 4559W        W76973  39.365  24.493  10.925
 4560W        W76974  29.930  31.631   0.310
 4561W        W76975  36.883  24.598   4.722
 4562W        W76976  40.938  30.629   1.802
 4563W        W76977  44.825   7.198  13.504
 4564W        W76978  32.434  37.857  13.958
 4565W        W76979  11.677  17.155  13.503
 4566W        W76980  40.476  28.547   1.218
 4567W        W76981   2.939  21.556  10.559
 4568W        W76982  40.977  38.075   0.744
 4569W        W76983  42.412  28.027   1.255
 4570W        W76984  35.481  41.955  10.535
 4571W        W76985  29.096   2.426  11.001
 4572W        W76986  27.181  18.237  13.860
 4573W        W76987  18.291  12.160  12.888
 4574W        W76988  44.349  39.332   4.793
 4575W        W76989  32.438  27.006  14.306
 4576W        W76990   1.286  29.018   3.167
 4577W        W76991  23.163  32.961   1.773
 4578W        W76992   5.248  44.292  10.926
 4579W        W76993  20.066  43.402   4.829
 4580W        W76994  34.086  29.667   4.779
 4581W        W76995  19.114  43.294  14.388
 4582W        W76996  41.843  24.158  14.457
 4583W        W76997   1.948  19.534  14.459
 4584W        W76998   4.379  17.791   3.151
 4585W        W76999  30.513  28.129   0.832
 4586W        W77000  24.024  35.504  11.960
 4587W        W77001  38.886  31.118   4.273
 4588W        W77002  35.388   1.315  13.462
 4589W        W77003  18.137  18.731  13.836
 4590W        W77004  26.164  42.002  12.503
 4591W        W77005  17.184   7.386  11.540
 4592W        W77006  21.121   3.844  12.427
 4593W        W77007  28.473  10.320  14.426
 4594W        W77008  27.942  25.700   0.891
 4595W        W77009  34.378  33.066   4.200
 4596W        W77010  41.413  17.609  12.569
 4597W        W77011  17.648  33.046  13.518
 4598W        W77012  33.052  10.677  14.443
 4599W        W77013   0.462  34.471   3.290
 4600W        W77014  24.113  43.925   5.573
 4601W        W77015   7.354  31.403  14.896
 4602W        W77016  17.066  32.998   1.813
 4603W        W77017   0.759  16.130   4.192
 4604W        W77018   0.851  25.114  11.463
 4605W        W77019   4.806  16.318   3.232
 4606W        W77020  39.516  39.541   4.223
 4607W        W77021  38.850   4.711   2.233
 4608W        W77022  41.424   4.221  12.913
 4609W        W77023  39.057   5.847  11.870
 4610W        W77024   1.734  24.661  13.915
 4611W        W77025  38.369  17.592   3.828
 4612W        W77026  42.826  13.157   2.299
 4613W        W77027  31.990  16.260   2.813
 4614W        W77028  34.597  36.505  10.564
 4615W        W77029  17.195  39.012   3.747
 4616W        W77030  22.036  21.595   4.724
 4617W        W77031  20.274  21.652  13.928
 4618W        W77032  44.919  11.266   1.241
 4619W        W77033  25.214   4.310  11.411
 4620W        W77034  27.116  42.787   3.809
 4621W        W77035  21.683  24.082  14.866
 4622W        W77036  10.636  16.671  11.885
 4623W        W77037  28.459  10.230  11.939
 4624W        W77038  13.841  28.181   3.674
 4625W        W77039  25.498  43.291  12.068
 4626W        W77040  41.803  14.749  12.964
 4627W        W77041  26.951  31.631  13.961
 4628W        W77042  40.957  41.929   0.380
 4629W        W77043  36.002  16.596  12.363
 4630W        W77044   9.730  36.089  13.862
 4631W        W77045  35.426  36.554   3.758
 4632W        W77046  43.953  41.448  11.574
 4633W        W77047  28.165  20.573  13.845
 4634W        W77048  22.685  23.528  13.795
 4635W        W77049  41.910  32.117  10.496
 4636W        W77050  24.106   3.776  11.403
 4637W        W77051   5.232  19.688  12.932
 4638W        W77052  12.150   6.366  14.390
 4639W        W77053  30.981  38.467   0.899
 4640W        W77054  20.200  15.297  11.482
 4641W        W77055  18.736  29.992   4.158
 4642W        W77056   6.837  10.270  12.984
 4643W        W77057   5.920  25.217   1.725
 4644W        W77058   7.846  21.204   3.713
 4645W        W77059  16.273  40.862  10.531
 4646W        W77060   0.461  28.657   0.350
 4647W        W77061  37.536   0.255   0.440
 4648W        W77062  35.460  15.609  13.988
 4649W        W77063  39.470   0.370   3.722
 4650W        W77064  18.140  35.581   0.483
 4651W        W77065   3.349  29.134  14.774
 4652W        W77066  10.648  18.133   4.240
 4653W        W77067  29.128   4.326   3.819
 4654W        W77068  15.120  35.032  10.445
 4655W        W77069  17.618   6.781  12.494
 4656W        W77070  34.117  38.988  11.516
 4657W        W77071  18.577  36.454  11.509
 4658W        W77072   0.937  39.938   4.115
 4659W        W77073  20.611  29.452   2.790
 4660W        W77074  12.258  44.980   1.810
 4661W        W77075  41.968  10.832   2.417
 4662W        W77076  31.006  20.696  14.480
 4663W        W77077  29.942  21.559  12.944
 4664W        W77078  21.076   5.296   0.391
 4665W        W77079  38.960  28.037   3.761
 4666W        W77080  24.080   1.375   2.800
 4667W        W77081  30.520  26.016   4.613
 4668W        W77082   4.237  31.912   2.798
 4669W        W77083   7.269  23.157  14.782
 4670W        W77084  23.064  44.905  11.499
 4671W        W77085   8.388  36.058  11.986
 4672W        W77086  27.030  27.655   1.354
 4673W        W77087  41.035  34.615  11.981
 4674W        W77088  17.076  37.861  10.986
 4675W        W77089  42.375   9.844  10.435
 4676W        W77090  31.011   5.689  13.832
 4677W        W77091  27.555  35.075   0.390
 4678W        W77092   6.337  11.857  13.791
 4679W        W77093  28.039  21.701  12.042
 4680W        W77094  43.329  24.019  10.467
 4681W        W77095  10.789  25.164   4.283
 4682W        W77096  11.770  17.584  12.355
 4683W        W77097  15.139  22.049  13.841
 4684W        W77098  14.805  10.349  12.882
 4685W        W77099  33.920  27.074  11.537
 4686W        W77100  30.626  28.619   0.410
 4687W        W77101  29.145   3.434  10.100
 4688W        W77102   6.826  29.023  13.867
 4689W        W77103  19.764  25.144   0.741
 4690W        W77104  11.211  29.461   2.373
 4691W        W77105   5.364  40.949  10.941
 4692W        W77106  21.053  12.704  13.061
 4693W        W77107   4.246  29.021  12.841
 4694W        W77108   1.953  26.171  13.852
 4695W        W77109  22.221  42.316   1.381
 4696W        W77110  36.959  26.686  12.880
 4697W        W77111   0.261  13.771  12.874
 4698W        W77112  41.296  25.148  14.914
 4699W        W77113  17.131  24.581  14.494
 4700W        W77114  17.063  13.106   1.837
 4701W        W77115  27.965  26.684  11.058
 4702W        W77116  13.669  42.796  14.785
 4703W        W77117   1.336   4.237  12.430
 4704W        W77118   7.708  32.486   3.868
 4705W        W77119   9.390  44.767  12.503
 4706W        W77120  44.763   9.273  14.012
 4707W        W77121  26.007   0.758  11.869
 4708W        W77122  15.798   0.310   0.371
 4709W        W77123  30.074  27.673  11.555
 4710W        W77124   3.302  14.265   0.774
 4711W        W77125   9.317  21.210   3.241
 4712W        W77126  12.663  24.678   1.384
 4713W        W77127  27.675  10.799  12.469
 4714W        W77128   4.707  25.547  12.874
 4715W        W77129  26.999  25.516  11.872
 4716W        W77130  25.972  19.563   3.640
 4717W        W77131  29.163   0.893   4.780
 4718W        W77132  44.496   9.689  11.587
 4719W        W77133   1.791   4.375  12.029
 4720W        W77134  18.262  11.861  14.455
 4721W        W77135   7.193  12.259  10.916
 4722W        W77136  40.336  28.065  10.036
 4723W        W77137  24.190  31.988   5.197
 4724W        W77138   3.335  22.232   4.636
 4725W        W77139   3.428  26.953   2.355
 4726W        W77140  24.227  11.730  11.471
 4727W        W77141  35.071  11.756   3.375
 4728W        W77142  13.349  28.447  13.389
 4729W        W77143  21.588  11.318  13.957
 4730W        W77144  38.910  41.010   4.763
 4731W        W77145  39.342   5.893   0.749
 4732W        W77146  39.351  19.196   0.425
 4733W        W77147  10.715   9.185  14.998
 4734W        W77148  39.473  33.983   4.118
 4735W        W77149   7.199  16.248   3.640
 4736W        W77150  23.107  43.324   3.190
 4737W        W77151   5.930   6.895  11.057
 4738W        W77152  42.339  40.503  11.095
 4739W        W77153   5.764  25.713  13.042
 4740W        W77154  35.379  27.450   2.779
 4741W        W77155  29.113  31.956   4.140
 4742W        W77156  16.162  40.392  14.282
 4743W        W77157   4.321  26.657  11.600
 4744W        W77158  24.617  22.613   2.194
 4745W        W77159  22.643   7.178   2.701
 4746W        W77160  43.889  38.925  12.063
 4747W        W77161   5.317  36.509  14.349
 4748W        W77162   0.895  41.948   0.889
 4749W        W77163   6.814  17.181   2.289
 4750W        W77164  26.487  15.712  13.938
 4751W        W77165  23.153  14.671   1.261
 4752W        W77166  34.880  34.866   3.734
 4753W        W77167  13.194   4.730  10.475
 4754W        W77168  14.222  41.974  12.429
 4755W        W77169  41.415   2.948  10.427
 4756W        W77170  34.872  19.097  13.542
 4757W        W77171  16.711   5.237  14.912
 4758W        W77172  34.404  38.030  14.760
 4759W        W77173  37.377  39.325  11.541
 4760W        W77174  43.971  29.473   1.348
 4761W        W77175  14.276   8.774  11.099
 4762W        W77176  20.693   9.306   2.196
 4763W        W77177  24.168  44.438  14.505
 4764W        W77178  12.803   7.195  11.538
 4765W        W77179  39.832  18.108  11.878
 4766W        W77180  17.679  21.559   4.783
 4767W        W77181   8.246  25.132  11.598
 4768W        W77182  35.521  37.026   0.773
 4769W        W77183  31.564  22.015  13.894
 4770W        W77184  38.921  26.529  14.362
 4771W        W77185  14.706  23.686  14.275
 4772W        W77186  10.282  36.893   2.224
 4773W        W77187   1.282  32.033   4.692
 4774W        W77188  43.349  13.190   3.731
 4775W        W77189  34.430  15.580   2.183
 4776W        W77190  25.993  30.109  10.972
 4777W        W77191  14.152  11.840   5.281
 4778W        W77192  16.231  21.253   1.350
 4779W        W77193  19.170  11.663  13.843
 4780W        W77194  26.530  40.917   3.223
 4781W        W77195  29.635  41.363  13.342
 4782W        W77196  20.688  30.103   4.773
 4783W        W77197  31.011  39.365  11.011
 4784W        W77198  33.051  29.941  13.994
 4785W        W77199  31.123  24.019   3.735
 4786W        W77200  21.108   0.283  11.001
 4787W        W77201  41.899  25.076  13.934
 4788W        W77202  37.438  28.030   1.294
 4789W        W77203  25.608  30.077   4.179
 4790W        W77204   6.828  35.087  14.303
 4791W        W77205  23.989  39.843   1.747
 4792W        W77206  18.713  43.856  12.488
 4793W        W77207  40.497   5.428   0.353
 4794W        W77208  21.722  11.866   1.872
 4795W        W77209  30.551  22.235  11.932
 4796W        W77210   2.393  10.149   2.768
 4797W        W77211  38.886   4.813   4.324
 4798W        W77212  41.415  23.226  13.461
 4799W        W77213  29.964  10.291  12.530
 4800W        W77214   9.271   5.406   4.642
 4801W        W77215  16.276  40.928   0.911
 4802W        W77216  17.609  36.474  11.086
 4803W        W77217  31.598   4.314   0.761
 4804W        W77218  36.534   4.371   2.289
 4805W        W77219  32.415  23.163   2.777
 4806W        W77220   2.401  33.558   9.942
 4807W        W77221  29.995   6.890  11.079
 4808W        W77222  43.873  15.637  10.541
 4809W        W77223  27.075  29.094   3.321
 4810W        W77224   6.709  18.789  14.296
 4811W        W77225  31.083  33.992   1.696
 4812W        W77226  37.988  25.162  11.581
 4813W        W77227  40.347  14.766  12.554
 4814W        W77228  37.360  15.239  13.988
 4815W        W77229   0.825  41.523  10.410
 4816W        W77230  18.098  12.162   3.174
 4817W        W77231  35.487  30.078   0.418
 4818W        W77232  39.043  19.239   2.842
 4819W        W77233  28.660  43.310   2.673
 4820W        W77234  24.700  32.039  12.454
 4821W        W77235  16.705  33.023   4.786
 4822W        W77236  38.950  33.913  14.921
 4823W        W77237  14.684  29.043  13.979
 4824W        W77238   2.835  19.128  10.633
 4825W        W77239  19.726  24.583   3.362
 4826W        W77240  42.840  39.010  14.506
 4827W        W77241  25.047  35.472   1.322
 4828W        W77242  44.812  42.927   1.707
 4829W        W77243  40.864   2.824   4.294
 4830W        W77244  32.417  44.797   1.326
 4831W        W77245  12.729  20.726  10.537
 4832W        W77246  34.040  23.154   1.888
 4833W        W77247  28.436  19.655  12.500
 4834W        W77248  44.919  17.203   2.271
 4835W        W77249  20.762  42.492  14.898
 4836W        W77250  33.457   3.763   5.093
 4837W        W77251  34.011  23.587   2.704
 4838W        W77252  23.062  25.094  11.575
 4839W        W77253  24.615  33.105   0.950
 4840W        W77254  28.122   4.891  13.395
 4841W        W77255  37.914  13.659  14.298
 4842W        W77256  10.210   8.798   0.836
 4843W        W77257   7.857  24.976  11.994
 4844W        W77258  20.124   5.737   3.669
 4845W        W77259  38.397   4.770  11.114
 4846W        W77260  33.581  40.985  13.459
 4847W        W77261  42.385  26.526   0.455
 4848W        W77262   0.250  29.465   3.718
 4849W        W77263  11.705  34.006  13.022
 4850W        W77264  23.073   8.663  12.891
 4851W        W77265  13.261   7.217  12.036
 4852W        W77266  37.479   3.866   5.309
 4853W        W77267   8.794  26.686   4.116
 4854W        W77268   4.350  35.048  11.925
 4855W        W77269  15.097  41.034   0.941
 4856W        W77270  27.050   1.428   0.856
 4857W        W77271  10.838  43.395  14.900
 4858W        W77272  12.666   7.352   5.240
 4859W        W77273  27.048   6.756  12.391
 4860W        W77274   1.283  26.581   2.882
 4861W        W77275  13.646  38.889  12.988
 4862W        W77276   9.206  31.561   2.867
 4863W        W77277  43.891  33.993  11.592
 4864W        W77278  15.134  29.957  13.338
 4865W        W77279   2.352   3.283  10.908
 4866W        W77280   5.710  32.038  11.396
 4867W        W77281   8.856  16.291  12.361
 4868W        W77282  21.243  42.477   0.250
 4869W        W77283   4.766  33.538  12.952
 4870W        W77284  37.877  44.773  10.996
 4871W        W77285   9.654  44.803   1.377
 4872W        W77286  37.568  41.879  13.916
 4873W        W77287  12.296  31.098  12.873
 4874W        W77288  21.109  15.787  11.112
 4875W        W77289  44.893   3.787   4.136
 4876W        W77290  36.406  33.087   2.304
 4877W        W77291  42.796   4.304   3.685
 4878W        W77292  23.721   4.376  11.904
 4879W        W77293   0.476  42.839  10.471
 4880W        W77294  17.176  17.159  12.372
 4881W        W77295  26.652  24.717   2.228
 4882W        W77296  36.347  35.936  14.392
 4883W        W77297   4.343  20.089  13.896
 4884W        W77298  43.295  44.960  13.836
 4885W        W77299  34.912  18.248   2.676
 4886W        W77300  15.173  36.581   3.159
 4887W        W77301  39.842  43.884   4.123
 4888W        W77302   2.437   7.760  12.439
 4889W        W77303  24.526  21.579  11.456
 4890W        W77304   0.405   4.712  10.507
 4891W        W77305  19.697  44.323   1.880
 4892W        W77306   6.745  19.239  14.427
 4893W        W77307  32.551   0.746  11.065
 4894W        W77308   8.325  13.155   0.859
 4895W        W77309  36.051  29.516   2.704
 4896W        W77310  39.315  18.102   0.339
 4897W        W77311  37.364  41.479   0.837
 4898W        W77312  43.960  27.656   1.225
 4899W        W77313  18.163  33.923  12.049
 4900W        W77314  28.931  34.471  14.416
 4901W        W77315  12.849  31.904  14.466
 4902W        W77316   7.363   3.274  10.538
 4903W        W77317  11.703   8.223   9.950
 4904W        W77318  19.622  12.805   1.400
 4905W        W77319  21.043  15.130   9.958
 4906W        W77320  38.980   0.487   4.251
 4907W        W77321   7.328  18.269   1.307
 4908W        W77322   5.839  24.484  11.510
 4909W        W77323   6.358  40.948   0.781
 4910W        W77324   1.329  10.686   2.263
 4911W        W77325  10.733  27.653  13.481
 4912W        W77326  11.761   5.323  12.934
 4913W        W77327  12.266  18.231  12.560
 4914W        W77328  40.874  12.835  12.869
 4915W        W77329  14.802  36.488   1.255
 4916W        W77330  34.021   4.730  14.848
 4917W        W77331  44.848  40.826   1.419
 4918W        W77332   9.814  41.928   2.278
 4919W        W77333  33.518  31.133   3.268
 4920W        W77334  18.571  43.479  14.834
 4921W        W77335   4.426  34.538  11.506
 4922W        W77336   7.795   9.698   0.794
 4923W        W77337  29.521   8.250  11.984
 4924W        W77338   0.819   3.458   4.154
 4925W        W77339  10.796  28.043   0.761
 4926W        W77340  11.327  31.045  12.471
 4927W        W77341   4.295   3.904   1.834
 4928W        W77342  11.736  21.102  11.409
 4929W        W77343  30.457  20.587  14.963
 4930W        W77344  42.925  43.337  10.940
 4931W        W77345  23.081  14.258  13.798
 4932W        W77346  14.183  28.148  11.053
 4933W        W77347   9.860  20.062  12.853
 4934W        W77348   1.870  13.704  10.404
 4935W        W77349  44.919  10.807   4.118
 4936W        W77350  30.113  29.942   1.420
 4937W        W77351  25.524  28.997   2.789
 4938W        W77352   0.459  21.067   2.694
 4939W        W77353  39.524  27.109  13.949
 4940W        W77354  21.587  29.170  13.043
 4941W        W77355   4.898  42.494   1.219
 4942W        W77356  20.185  15.139  10.911
 4943W        W77357  24.100  12.695  14.468
 4944W        W77358  10.833  27.995   2.305
 4945W        W77359   7.862   4.319  14.915
 4946W        W77360   7.266   7.238  14.391
 4947W        W77361  35.013  10.212  11.027
 4948W        W77362  44.323  40.997   3.346
 4949W        W77363  24.229  13.731  10.604
 4950W        W77364  37.527  41.893  10.636
 4951W        W77365  33.488  29.151  12.859
 4952W        W77366  35.575  29.638  10.505
 4953W        W77367  10.852   6.698  14.463
 4954W        W77368  28.441   2.739   3.306
 4955W        W77369  22.176   8.855  13.825
 4956W        W77370  22.064   0.798  13.521
 4957W        W77371  30.543  15.733  13.417
 4958W        W77372   7.816  41.946   0.249
 4959W        W77373  35.595  43.937  13.792
 4960W        W77374  36.907  32.538   4.650
 4961W        W77375  40.858  28.579  10.943
 4962W        W77376   9.379  11.205   2.187
 4963W        W77377  36.506  15.089   0.873
 4964W        W77378  21.230  35.870  14.369
 4965W        W77379  28.522  44.319  13.791
 4966W        W77380   3.366  42.851  14.275
 4967W        W77381  32.479   8.275  14.421
 4968W        W77382  37.494  39.459  10.424
 4969W        W77383  17.579  36.544  14.456
 4970W        W77384  35.038  32.460   1.897
 4971W        W77385  28.438   5.766  13.383
 4972W        W77386  12.175  18.266   1.899
 4973W        W77387  15.598   6.229   3.276
 4974W        W77388   8.332   8.873  11.486
 4975W        W77389   3.340  38.332  13.853
 4976W        W77390  30.973  13.296  11.447
 4977W        W77391  25.603  35.936   0.431
 4978W        W77392  13.708   2.345  14.444
 4979W        W77393  43.983   0.777  13.818
 4980W        W77394   0.748  28.112  11.005
 4981W        W77395  14.195   5.720  10.151
 4982W        W77396  37.841   6.756  13.828
 4983W        W77397  12.815  29.605   3.254
 4984W        W77398   6.692  12.617   4.246
 4985W        W77399  34.388  21.692   5.081
 4986W        W77400  22.530  40.025  12.550
 4987W        W77401  32.029  39.442  12.529
 4988W        W77402  19.251  10.342  12.906
 4989W        W77403  20.178  38.854  12.560
 4990W        W77404  13.181  12.169  13.960
 4991W        W77405  40.420  40.453   0.890
 4992W        W77406   4.741  25.095  12.371
 4993W        W77407  14.761  31.100   0.450
 4994W        W77408  11.701  17.646  14.905
 4995W        W77409  22.508  15.729  11.944
 4996W        W77410  27.026  36.519  14.386
 4997W        W77411  30.045  24.605   0.379
 4998W        W77412  44.005  34.870   2.676
 4999W        W77413  41.403  30.095  10.941
 5000W        W77414  42.430  24.609   2.252
 5001W        W77415  12.323   5.934  13.917
 5002W        W77416  27.143  14.796  11.046
 5003W        W77417  43.994   7.815   1.876
 5004W        W77418  34.507  34.914  12.475
 5005W        W77419  39.934  27.658   3.809
 5006W        W77420  34.993  33.460  14.301
 5007W        W77421  23.577  11.755   3.696
 5008W        W77422  38.973  37.940   4.749
 5009W        W77423   2.766  38.024   0.306
 5010W        W77424   8.846  26.543  12.824
 5011W        W77425  17.756  42.314   1.388
 5012W        W77426  24.559  30.595   2.406
 5013W        W77427   0.867  32.061   3.202
 5014W        W77428  30.586  24.702  10.423
 5015W        W77429  18.122  39.329  14.969
 5016W        W77430   6.188  22.677   5.260
 5017W        W77431  33.005  24.149   2.226
 5018W        W77432   9.224  23.004   0.243
 5019W        W77433  26.016  36.456   3.314
 5020W        W77434  14.169  25.144   0.744
 5021W        W77435  21.733  42.019  13.340
 5022W        W77436  38.372  15.668  11.536
 5023W        W77437  17.242  34.115   1.422
 5024W        W77438  23.180  13.292  10.614
 5025W        W77439  19.581   0.487   4.349
 5026W        W77440  35.026  43.921  14.943
 5027W        W77441  29.958  29.631   3.193
 5028W        W77442  26.510  30.511  10.444
 5029W        W77443  31.645  27.558  13.881
 5030W        W77444  14.691  44.756   0.746
 5031W        W77445  36.521  36.950  11.076
 5032W        W77446   8.768  26.687  12.024
 5033W        W77447  41.507  41.890  10.604
 5034W        W77448  13.335   7.688  10.013
 5035W        W77449  43.307   9.831  10.989
 5036W        W77450   9.264  42.301   1.216
 5037W        W77451   1.349  11.182  10.424
 5038W        W77452  17.063   8.804   5.218
 5039W        W77453  39.320   3.222  14.944
 5040W        W77454  29.641  37.381  14.942
 5041W        W77455  43.781  25.164  12.059
 5042W        W77456  23.240  12.277   4.650
 5043W        W77457  41.880   2.726   4.349
 5044W        W77458   8.888   7.231  13.805
 5045W        W77459  13.836   4.721  13.835
 5046W        W77460   9.847  12.610  10.499
 5047W        W77461   7.865  10.733   0.894
 5048W        W77462  29.470   1.323  14.783
 5049W        W77463  14.291  15.150   4.138
 5050W        W77464  16.755  22.050  10.603
 5051W        W77465  38.361   9.679   2.344
 5052W        W77466   8.827  43.479   5.292
 5053W        W77467  40.535  36.927   1.886
 5054W        W77468  27.108   8.363   4.318
 5055W        W77469   0.332  30.537   2.875
 5056W        W77470  19.268  37.567   3.153
 5057W        W77471   3.856  14.171  10.935
 5058W        W77472  23.178  14.599  14.316
 5059W        W77473  24.054  10.829   3.704
 5060W        W77474  40.829  44.275   3.253
 5061W        W77475  10.689   9.735  13.323
 5062W        W77476   8.737   1.795   2.217
 5063W        W77477   5.702   3.296   0.813
 5064W        W77478   9.176  22.031   2.371
 5065W        W77479  16.216  18.252  10.094
 5066W        W77480  31.982  43.831   1.904
 5067W        W77481  20.163  16.137   4.692
 5068W        W77482  29.540   0.330  13.012
 5069W        W77483  33.431  37.419  11.907
 5070W        W77484   2.260   3.284  13.989
 5071W        W77485  27.948   6.838  14.863
 5072W        W77486  34.905  41.905  13.830
 5073W        W77487  35.364   4.332  13.370
 5074W        W77488  25.639  26.598  14.514
 5075W        W77489  11.713   0.488  11.910
 5076W        W77490  10.240   3.737   4.241
 5077W        W77491  31.581  39.816  14.506
 5078W        W77492  19.776  32.521   0.759
 5079W        W77493   1.858   4.366   0.303
 5080W        W77494  40.892  18.080  12.882
 5081W        W77495  27.188  29.531   4.285
 5082W        W77496   3.887  38.891  14.420
 5083W        W77497  28.554   7.821  14.344
 5084W        W77498  12.120  17.648   2.370
 5085W        W77499   1.842   9.269   4.604
 5086W        W77500  41.787  33.406   1.338
 5087W        W77501  34.084  26.010   3.769
 5088W        W77502  17.255  35.540  11.018
 5089W        W77503  13.260  25.209   5.134
 5090W        W77504  13.675   4.341  14.806
 5091W        W77505  15.819  28.120   1.918
 5092W        W77506   1.293  23.708  11.594
 5093W        W77507  37.047  14.737   0.384
 5094W        W77508  18.250   2.901   1.780
 5095W        W77509  33.957  41.449  13.970
 5096W        W77510  38.007  23.116   2.335
 5097W        W77511  34.418   4.424  11.476
 5098W        W77512  34.973  20.139  11.429
 5099W        W77513   7.750  39.954  13.936
 5100W        W77514  12.117  22.692   2.699
 5101W        W77515  21.064  20.604   1.252
 5102W        W77516  28.107   1.369   4.805
 5103W        W77517   0.491  27.660  12.074
 5104W        W77518  22.028  31.900  13.403
 5105W        W77519  11.857  30.571  13.518
 5106W        W77520   9.772  28.449  13.860
 5107W        W77521  26.597  29.135   0.347
 5108W        W77522  28.022   3.407   1.392
 5109W        W77523  33.451  27.989  12.928
 5110W        W77524  42.467  21.085   1.716
 5111W        W77525  40.401  35.504  10.640
 5112W        W77526  20.113  27.478   3.222
 5113W        W77527  31.023   6.805  11.950
 5114W        W77528  37.510  24.164   2.799
 5115W        W77529   6.321  42.850  10.617
 5116W        W77530  31.900  10.777   0.746
 5117W        W77531  20.741  28.004  11.038
 5118W        W77532   9.652  26.978   3.693
 5119W        W77533  17.279  23.045   2.321
 5120W        W77534  22.231  11.824  12.421
 5121W        W77535   1.270  13.152   3.198
 5122W        W77536  10.261   4.427  11.886
 5123W        W77537   6.247  22.146  12.010
 5124W        W77538  19.163  33.903  11.049
 5125W        W77539   0.816   4.883  14.898
 5126W        W77540  36.964  17.683   4.713
 5127W        W77541   9.365  38.847   2.667
 5128W        W77542   6.769   9.801  13.952
 5129W        W77543  15.721  31.542  14.344
 5130W        W77544  28.481  42.888  13.470
 5131W        W77545   0.425  37.023  12.022
 5132W        W77546  19.562  20.755  12.452
 5133W        W77547   8.831  11.755  13.318
 5134W        W77548   7.802   2.932   1.893
 5135W        W77549  20.561   4.423  12.349
 5136W        W77550  12.690   0.440   2.384
 5137W        W77551  21.166   2.262   3.685
 5138W        W77552  36.587   6.381  10.986
 5139W        W77553  41.801  16.570  13.031
 5140W        W77554  28.552  43.401   4.808
 5141W        W77555  21.519  12.272  14.914
 5142W        W77556  11.867  42.876   3.678
 5143W        W77557   2.849  43.333   2.702
 5144W        W77558  38.365  27.573  12.059
 5145W        W77559  44.791  30.438   2.856
 5146W        W77560   4.921  17.684   1.341
 5147W        W77561  36.468   1.448   0.879
 5148W        W77562  39.935   6.721  11.594
 5149W        W77563  12.755  41.802   1.899
 5150W        W77564  42.809  14.189   0.740
 5151W        W77565  18.707  43.448   1.247
 5152W        W77566  37.580  44.813  13.476
 5153W        W77567   5.860  26.160   4.600
 5154W        W77568   0.409   3.436  12.577
 5155W        W77569   7.203   5.276  14.993
 5156W        W77570  40.979  25.661   1.252
 5157W        W77571  43.008  26.599  11.557
 5158W        W77572  28.478   1.796  12.504
 5159W        W77573   1.776  11.161  10.410
 5160W        W77574  30.091   3.713  11.010
 5161W        W77575  23.990  16.215   3.322
 5162W        W77576  10.207  44.343   1.884
 5163W        W77577   5.886  28.096   0.890
 5164W        W77578  28.938   8.750  14.936
 5165W        W77579  19.039   5.817  14.984
 5166W        W77580  37.835   9.235  11.864
 5167W        W77581  30.474  22.584  13.944
 5168W        W77582  43.514  32.962   3.271
 5169W        W77583  15.760   9.847   3.820
 5170W        W77584  15.724   1.333   1.441
 5171W        W77585  31.029  37.938  11.424
 5172W        W77586  14.749  27.588   4.167
 5173W        W77587  17.119  34.389  10.588
 5174W        W77588  10.324  21.630   3.722
 5175W        W77589  16.174  15.663   3.385
 5176W        W77590  33.439  35.956   0.402
 5177W        W77591  20.575  37.849  13.838
 5178W        W77592  17.586   4.772   2.691
 5179W        W77593   6.755  19.194   1.375
 5180W        W77594  42.975  27.575   4.734
 5181W        W77595  29.919  40.456  12.528
 5182W        W77596  32.924   8.303   0.396
 5183W        W77597  25.517  19.635   3.650
 5184W        W77598  19.148  42.522   2.704
 5185W        W77599  17.253   7.886   4.661
 5186W        W77600  43.774  34.057   1.360
 5187W        W77601  34.542  27.615  11.957
 5188W        W77602  16.312  33.929   3.722
 5189W        W77603  10.870  16.740   4.742
 5190W        W77604  19.681   9.721  11.599
 5191W        W77605   8.258  23.643   0.321
 5192W        W77606  22.724  29.145  14.490
 5193W        W77607  29.535  22.170  10.601
 5194W        W77608   3.823  37.409   1.744
 5195W        W77609  36.969  29.494  13.877
 5196W        W77610   7.186  27.135  11.439
 5197W        W77611  29.104  40.444   2.792
 5198W        W77612  13.343  21.215   2.268
 5199W        W77613  43.827   4.796  11.890
 5200W        W77614  17.785  26.009  14.393
 5201W        W77615  12.317  43.384  11.512
 5202W        W77616  30.413  34.388   0.250
 5203W        W77617  25.130  38.373   4.788
 5204W        W77618  28.655   2.917   3.845
 5205W        W77619  42.332   9.245   3.741
 5206W        W77620  22.706   1.798   2.721
 5207W        W77621  43.466  37.481  10.414
 5208W        W77622  41.514  32.425  13.527
 5209W        W77623  38.027  18.279  11.946
 5210W        W77624   7.246  16.596   2.759
 5211W        W77625  21.172   9.779   0.463
 5212W        W77626  25.149  20.271   3.742
 5213W        W77627   4.761   8.788   4.753
 5214W        W77628  12.147  39.873  12.385
 5215W        W77629   6.827  25.195  11.533
 5216W        W77630   9.278  42.900  12.394
 5217W        W77631  29.442   1.736  13.449
 5218W        W77632  19.096   0.871   1.694
 5219W        W77633  14.341   3.891   3.745
 5220W        W77634   8.700  43.878  14.022
 5221W        W77635  17.569  41.521   1.257
 5222W        W77636  44.499  23.113   2.719
 5223W        W77637  10.805  12.690  14.902
 5224W        W77638  44.424  17.768  13.941
 5225W        W77639  27.599  41.395  14.293
 5226W        W77640   6.307  27.521   5.315
 5227W        W77641  39.001  11.697  11.062
 5228W        W77642   1.283  14.224   0.431
 5229W        W77643  42.892   7.256  14.865
 5230W        W77644   3.772   3.425  14.417
 5231W        W77645  44.484  22.619  12.437
 5232W        W77646   2.922  39.512   0.258
 5233W        W77647  22.533   6.403   4.287
 5234W        W77648  34.554   8.744  13.879
 5235W        W77649  13.680  19.770   1.414
 5236W        W77650  38.881   0.470   0.284
 5237W        W77651  28.504  27.115   1.309
 5238W        W77652   8.393  35.981   2.231
 5239W        W77653  33.108  31.906   0.770
 5240W        W77654  43.906  17.582  11.891
 5241W        W77655  31.488  19.707   2.795
 5242W        W77656  16.300   6.369   1.357
 5243W        W77657  44.268  34.048   0.749
 5244W        W77658  13.168  27.123   3.706
 5245W        W77659  27.949  16.770   2.413
 5246W        W77660   4.826  16.664  13.483
 5247W        W77661  16.645   6.676  14.392
 5248W        W77662   1.244  44.475   0.250
 5249W        W77663  18.248  12.212  12.408
 5250W        W77664  39.425   3.290   1.903
 5251W        W77665   6.280  13.243   0.468
 5252W        W77666   8.221  19.103   2.195
 5253W        W77667  35.027  16.595  11.488
 5254W        W77668  14.312   2.960  14.417
 5255W        W77669  21.576   0.916  14.369
 5256W        W77670   1.777  31.952  10.462
 5257W        W77671  19.671  38.920   2.756
 5258W        W77672   5.801   5.767  12.996
 5259W        W77673  27.056  40.959   3.175
 5260W        W77674  17.125  21.609   0.795
 5261W        W77675  31.997  14.810   0.268
 5262W        W77676   0.481  36.940  14.414
 5263W        W77677  16.571  26.191  10.902
 5264W        W77678  10.697  39.532   4.827
 5265W        W77679  40.352  33.479   4.666
 5266W        W77680  19.666  39.824   4.177
 5267W        W77681   5.930   5.409   3.853
 5268W        W77682  43.800  10.779   0.245
 5269W        W77683   2.363  37.055   4.169
 5270W        W77684   6.834  14.284   2.262
 5271W        W77685  42.852  19.684   0.928
 5272W        W77686   1.775  30.578   3.281
 5273W        W77687  30.989  33.447  13.819
 5274W        W77688  24.221  34.563   2.853
 5275W        W77689  23.007  13.785  12.959
 5276W        W77690  16.603  36.957  11.007
 5277W        W77691  43.884  35.870   4.605
 5278W        W77692  43.298  21.084  12.090
 5279W        W77693   4.400  43.766   2.265
 5280W        W77694   4.802  39.511   2.675
 5281W        W77695  26.629   7.786  10.567
 5282W        W77696  37.408   7.875   4.157
 5283W        W77697  18.270  26.203  10.911
 5284W        W77698  40.920  33.536  12.026
 5285W        W77699  36.087  43.998   3.339
 5286W        W77700  27.637  36.542   4.787
 5287W        W77701  44.267  27.461   2.225
 5288W        W77702  27.492  27.124   0.352
 5289W        W77703  22.740   4.314  12.833
 5290W        W77704  37.505  25.597  12.419
 5291W        W77705   7.816  29.593  12.898
 5292W        W77706  30.460  13.349   1.262
 5293W        W77707  27.945   5.898   1.848
 5294W        W77708   1.282  18.220   1.250
 5295W        W77709   7.767  39.875   1.291
 5296W        W77710  37.472  33.553  14.900
 5297W        W77711  34.473  34.924  13.472
 5298W        W77712   5.387  20.655  11.452
 5299W        W77713  19.581   2.967   3.671
 5300W        W77714   7.365  20.580   1.320
 5301W        W77715   7.826  42.398   1.766
 5302W        W77716  23.521  13.687  10.889
 5303W        W77717  42.978  10.822   2.402
 5304W        W77718  39.837  25.570   3.728
 5305W        W77719   0.301  19.169  11.087
 5306W        W77720  11.232  14.650   4.192
 5307W        W77721  35.012   2.800   0.737
 5308W        W77722   3.373  39.508  12.492
 5309W        W77723  14.125   5.297  13.380
 5310W        W77724  13.692  19.090  11.558
 5311W        W77725   8.192  28.677   1.803
 5312W        W77726  27.534  32.543  11.100
 5313W        W77727  21.151  25.688   1.714
 5314W        W77728  10.796  12.659  12.043
 5315W        W77729   3.303  24.707  14.367
 5316W        W77730  26.590  20.055   5.227
 5317W        W77731   0.788  44.487   4.253
 5318W        W77732  44.361  24.612   3.155
 5319W        W77733  28.529  29.459  12.836
 5320W        W77734  38.966  37.412   4.205
 5321W        W77735  27.173   1.900   1.695
 5322W        W77736   0.339  19.141  13.407
 5323W        W77737  25.534  36.495  13.942
 5324W        W77738  33.042   5.763   3.766
 5325W        W77739   4.285  20.166   2.283
 5326W        W77740   0.775   5.273   2.797
 5327W        W77741  40.981  26.664   4.647
 5328W        W77742  44.498   7.907   1.902
 5329W        W77743  10.761   0.443   0.417
 5330W        W77744   8.293   7.376  10.587
 5331W        W77745   3.216  26.050   0.367
 5332W        W77746  26.650  11.643  13.845
 5333W        W77747  36.463  29.601   3.310
 5334W        W77748   2.469  29.655  11.894
 5335W        W77749  37.917  30.981  11.067
 5336W        W77750  28.507  16.606  13.416
 5337W        W77751  31.024  38.010   0.477
 5338W        W77752  15.769   7.413   3.313
 5339W        W77753  34.522  26.587   3.637
 5340W        W77754  32.097  29.628  14.008
 5341W        W77755  23.021  39.521  14.382
 5342W        W77756  33.064  15.761   3.632
 5343W        W77757  21.194  37.037  11.576
 5344W        W77758  24.012   6.787   3.866
 5345W        W77759  12.119  17.271   3.357
 5346W        W77760  12.707  17.199  12.891
 5347W        W77761  11.253  38.852  14.006
 5348W        W77762  38.496  25.155   0.727
 5349W        W77763  18.053  16.218   0.938
 5350W        W77764  11.697   3.807  13.482
 5351W        W77765  17.755  43.008   4.120
 5352W        W77766  13.779  21.110   3.761
 5353W        W77767  14.116   1.410  14.822
 5354W        W77768  36.077  14.106   4.158
 5355W        W77769   7.768  18.596  10.930
 5356W        W77770   3.229  29.038   0.790
 5357W        W77771  36.899  20.201   0.383
 5358W        W77772  22.999  30.915  12.845
 5359W        W77773   9.383   3.411  11.040
 5360W        W77774  13.173  35.036  12.393
 5361W        W77775   7.368  24.077   1.857
 5362W        W77776  21.690   8.273   1.234
 5363W        W77777  36.462  30.581   1.224
 5364W        W77778  11.365  27.091   2.312
 5365W        W77779  11.331   7.384  13.332
 5366W        W77780  42.459  14.109  14.988
 5367W        W77781  40.940  29.036   1.931
 5368W        W77782  36.558  41.458  10.040
 5369W        W77783  32.899  18.231  13.493
 5370W        W77784   9.365  36.021   0.752
 5371W        W77785  44.492  44.982  10.912
 5372W        W77786   7.911   6.233   2.900
 5373W        W77787  29.055  37.500   5.302
 5374W        W77788   1.874  15.208   3.176
 5375W        W77789   0.821  10.367   2.672
 5376W        W77790  43.330  19.571   0.393
 5377W        W77791  30.031  39.537   4.656
 5378W        W77792  30.146  21.128   0.328
 5379W        W77793  23.150  21.096   3.862
 5380W        W77794  13.223  37.546   5.211
 5381W        W77795   3.848  18.086  13.988
 5382W        W77796  28.169  25.140   1.313
 5383W        W77797  22.717   8.327  12.354
 5384W        W77798  34.009  38.898  10.121
 5385W        W77799  24.197  19.551   1.434
 5386W        W77800   6.403  19.755   1.726
 5387W        W77801  42.024  25.030  14.927
 5388W        W77802  26.043   6.919   3.687
 5389W        W77803  29.018  14.589   0.839
 5390W        W77804  24.029  19.179   1.794
 5391W        W77805   6.777  37.035   1.887
 5392W        W77806  41.002   4.872   2.754
 5393W        W77807  30.653  30.426  14.021
 5394W        W77808  25.648  10.327   3.359
 5395W        W77809  38.448  39.051  12.453
 5396W        W77810   5.391  26.504  12.853
 5397W        W77811   3.349   4.270   3.716
 5398W        W77812   2.962  40.955   3.367
 5399W        W77813  13.179  11.729   5.281
 5400W        W77814  31.643  30.923   1.226
 5401W        W77815  25.484  33.583   3.223
 5402W        W77816  20.213  22.032  11.099
 5403W        W77817  31.505  20.758  12.474
 5404W        W77818  39.403  23.118   3.268
 5405W        W77819  27.511  11.297   0.764
 5406W        W77820  28.129   6.379  11.406
 5407W        W77821  16.238  25.644   0.729
 5408W        W77822  34.044   6.748   1.241
 5409W        W77823  14.689  37.441   1.869
 5410W        W77824  12.154   7.223  10.609
 5411W        W77825  23.544  30.491   2.754
 5412W        W77826  21.144   7.738   0.770
 5413W        W77827  42.954  42.408  14.873
 5414W        W77828   3.349  21.240  11.549
 5415W        W77829  17.647  29.642   2.387
 5416W        W77830  16.233  41.400   1.761
 5417W        W77831  39.948  33.521  11.909
 5418W        W77832  33.008  33.538  14.507
 5419W        W77833   1.292  35.384  13.506
 5420W        W77834  10.242  39.040   3.681
 5421W        W77835   2.910  43.424   1.359
 5422W        W77836  38.551  27.044  10.441
 5423W        W77837  16.213   0.784   2.306
 5424W        W77838  31.988  25.665  12.833
 5425W        W77839   0.279  12.770   1.326
 5426W        W77840  31.583   0.299  12.824
 5427W        W77841  20.126  14.623   2.901
 5428W        W77842   0.319  37.833   1.237
 5429W        W77843  25.021  37.454  13.019
 5430W        W77844  10.783  36.498  12.042
 5431W        W77845  36.891  28.478   0.761
 5432W        W77846  35.028  21.531  13.984
 5433W        W77847  22.721  16.772   4.172
 5434W        W77848  32.425  15.140   4.617
 5435W        W77849   7.382  30.982  13.944
 5436W        W77850   7.283  32.487  11.419
 5437W        W77851  15.090  34.995  14.958
 5438W        W77852   4.732  23.652  12.028
 5439W        W77853   5.774  25.177  14.424
 5440W        W77854   4.320  25.082  14.346
 5441W        W77855  20.733   5.707  10.497
 5442W        W77856  16.660  12.853   2.704
 5443W        W77857  13.143  42.874  10.955
 5444W        W77858  28.981  18.604  13.967
 5445W        W77859  33.539  11.190  12.351
 5446W        W77860  15.680  18.149   1.807
 5447W        W77861  27.048  25.699   1.885
 5448W        W77862  41.504  21.645   4.668
 5449W        W77863  43.972  11.303  14.022
 5450W        W77864  37.054  28.662  13.308
 5451W        W77865  38.398   9.743   0.739
 5452W        W77866  32.926  15.747   1.338
 5453W        W77867   7.799  14.834   0.951
 5454W        W77868  36.570   7.297  12.886
 5455W        W77869   9.389   1.833   3.681
 5456W        W77870  31.449   0.339  12.476
 5457W        W77871  13.753  40.501  11.882
 5458W        W77872   2.964   9.232   1.383
 5459W        W77873  15.103  22.996   3.177
 5460W        W77874   7.323  35.370   1.855
 5461W        W77875  42.002  39.926   1.698
 5462W        W77876   0.386  22.028   3.743
 5463W        W77877  20.092  18.651   2.376
 5464W        W77878  42.823  25.218   1.429
 5465W        W77879  29.611  35.937  12.916
 5466W        W77880  12.202  38.891   2.275
 5467W        W77881  17.801  42.334   4.136
 5468W        W77882  31.458  34.006   4.350
 5469W        W77883  20.690  31.603  11.879
 5470W        W77884   9.305  23.142  13.835
 5471W        W77885  27.629  19.551  10.981
 5472W        W77886   6.854  12.629   0.421
 5473W        W77887  23.680  43.889   4.642
 5474W        W77888  14.710   1.811   9.999
 5475W        W77889  39.560  13.185   2.903
 5476W        W77890  35.973  29.148   0.834
 5477W        W77891  34.434  28.110   3.379
 5478W        W77892  39.846  19.172   3.299
 5479W        W77893  31.038  14.743   0.765
 5480W        W77894  18.707   6.410   3.772
 5481W        W77895  14.104  12.660  13.350
 5482W        W77896  29.476  34.397  10.076
 5483W        W77897  43.852  24.025  12.580
 5484W        W77898  34.400  30.488   4.178
 5485W        W77899  12.233  17.653  10.616
 5486W        W77900  18.779  42.839   5.235
 5487W        W77901  20.227   8.889   0.727
 5488W        W77902   1.443   2.824   4.278
 5489W        W77903  23.083  28.504   3.384
 5490W        W77904  30.573   4.313  13.004
 5491W        W77905  42.846  20.577   0.386
 5492W        W77906   5.204  13.109   3.357
 5493W        W77907  37.491  33.387  14.339
 5494W        W77908  40.819  13.754   0.455
 5495W        W77909  22.706  14.185  12.824
 5496W        W77910  35.940   4.449  12.032
 5497W        W77911   1.312  27.974  13.807
 5498W        W77912   9.655  39.505  10.622
 5499W        W77913  18.168  24.585  14.836
 5500W        W77914  19.275  37.358   1.416
 5501W        W77915   9.379  17.267  14.786
 5502W        W77916  34.909  13.766  10.404
 5503W        W77917  11.713  26.573  13.815
 5504W        W77918   6.259   2.777  13.326
 5505W        W77919   8.778  33.501   2.863
 5506W        W77920  36.455   3.853  14.898
 5507W        W77921  38.925  35.362  14.946
 5508W        W77922  32.510   3.268   0.875
 5509W        W77923   4.826  29.982  11.097
 5510W        W77924  20.164   2.850  10.554
 5511W        W77925  17.628  39.472  12.906
 5512W        W77926   4.867  34.101   3.868
 5513W        W77927   7.304  36.086  12.489
 5514W        W77928  40.997  43.384   1.431
 5515W        W77929  32.065  44.836  14.981
 5516W        W77930  34.115  24.674   0.799
 5517W        W77931  21.114   1.892  13.982
 5518W        W77932  26.180   0.402  11.491
 5519W        W77933  13.240  21.758  12.446
 5520W        W77934   1.364  17.133   1.334
 5521W        W77935   6.774  23.541   3.660
 5522W        W77936  34.916  10.665  14.794
 5523W        W77937   9.285   6.759   0.257
 5524W        W77938   1.372   5.825  12.044
 5525W        W77939  34.508  42.961  10.551
 5526W        W77940   7.699  23.123   0.475
 5527W        W77941  18.613   5.822   4.786
 5528W        W77942  15.189  22.587   4.237
 5529W        W77943   6.820   2.351   2.839
 5530W        W77944   4.921   1.328   1.737
 5531W        W77945   8.368  11.866  13.989
 5532W        W77946   4.817   5.718   1.299
 5533W        W77947  35.503  37.575   3.785
 5534W        W77948  33.587  37.519   4.121
 5535W        W77949  32.929  28.501  11.979
 5536W        W77950  26.563  17.107   0.838
 5537W        W77951  35.100  11.177   2.344
 5538W        W77952  21.574  41.921  12.514
 5539W        W77953  39.336   0.943   4.335
 5540W        W77954  17.286  19.726  10.945
 5541W        W77955  15.668   3.414   5.293
 5542W        W77956  43.772  39.863   3.345
 5543W        W77957  10.158   9.714  14.877
 5544W        W77958  43.839  43.343  12.046
 5545W        W77959  25.663  29.666  10.044
 5546W        W77960   1.268  30.991  11.025
 5547W        W77961  41.430   3.801   4.118
 5548W        W77962  17.073  31.597  13.000
 5549W        W77963  12.218  17.063   0.780
 5550W        W77964  15.682  21.634   0.349
 5551W        W77965  12.633  41.793  11.401
 5552W        W77966  30.621  23.639  12.988
 5553W        W77967  32.509  44.465   1.781
 5554W        W77968  10.350  44.941   4.718
 5555W        W77969  34.987  28.513   4.184
 5556W        W77970  27.587   9.654   1.397
 5557W        W77971  43.412   3.731  10.964
 5558W        W77972  42.398  22.697   0.730
 5559W        W77973  35.556  23.680  14.357
 5560W        W77974   3.430  40.331  11.931
 5561W        W77975  15.221  27.651   4.330
 5562W        W77976  38.030  26.676  13.526
 5563W        W77977  44.316  23.193  13.891
 5564W        W77978  20.575  13.683   0.813
 5565W        W77979  35.450  14.615   1.875
 5566W        W77980  23.047   0.480   4.801
 5567W        W77981   7.850  16.804  10.408
 5568W        W77982  44.826  22.219   4.638
 5569W        W77983  24.015  31.019   3.770
 5570W        W77984  33.980   8.189   4.703
 5571W        W77985  13.802   1.899  11.421
 5572W        W77986  43.000  10.346   2.263
 5573W        W77987   0.744   5.308  13.546
 5574W        W77988  31.935   0.455   5.178
 5575W        W77989  19.740  22.513  12.535
 5576W        W77990  28.975  44.455  14.377
 5577W        W77991  37.492  20.154   0.793
 5578W        W77992  38.348   5.400  13.038
 5579W        W77993  36.413  44.464   3.253
 5580W        W77994  18.133  36.558   1.334
 5581W        W77995  23.204   7.688  14.885
 5582W        W77996  33.519  28.492  14.349
 5583W        W77997   6.807  14.205   1.288
 5584W        W77998  29.594  24.153   0.417
 5585W        W77999  40.982  39.995  11.599
 5586W        W78000  13.324  15.327   4.333
 5587W        W78001  13.141  25.070   3.818
 5588W        W78002  43.276  12.845  10.512
 5589W        W78003  33.436  42.519  12.556
 5590W        W78004  38.382   5.439  13.346
 5591W        W78005  29.148  16.617  12.484
 5592W        W78006   3.871  28.170   1.287
 5593W        W78007  42.510  40.862   4.728
 5594W        W78008  34.501  10.340   3.279
 5595W        W78009  21.718  22.238  11.101
 5596W        W78010  35.984  19.750  13.064
 5597W        W78011  12.652  26.688  10.974
 5598W        W78012   0.788  11.722  12.502
 5599W        W78013  33.556   3.390   4.752
 5600W        W78014  44.261  42.411  12.950
 5601W        W78015  12.759  16.090   2.240
 5602W        W78016  12.736  16.312   3.222
 5603W        W78017  43.865  21.740  11.034
 5604W        W78018  36.547  23.176   5.267
 5605W        W78019  25.667  15.649  14.382
 5606W        W78020   4.821  24.036   0.417
 5607W        W78021  14.781  24.056  13.978
 5608W        W78022  21.188  16.763   9.929
 5609W        W78023  35.453  14.252  12.015
 5610W        W78024   4.407  14.227  12.881
 5611W        W78025  43.953  23.583   2.767
 5612W        W78026  16.222  44.806  12.543
 5613W        W78027   9.795  40.494   0.836
 5614W        W78028  42.862   4.742  12.428
 5615W        W78029  10.684   7.841   3.820
 5616W        W78030  10.650  25.487  14.885
 5617W        W78031   2.255  39.498  12.373
 5618W        W78032  15.583  21.666   1.800
 5619W        W78033  41.462  34.493  11.419
 5620W        W78034  30.092   6.306  10.535
 5621W        W78035   6.184  16.157   1.877
 5622W        W78036  19.122   1.973   4.199
 5623W        W78037  37.580   1.844  11.092
 5624W        W78038  20.546   2.751  14.301
 5625W        W78039  14.769   4.427   2.223
 5626W        W78040  18.098  32.435   2.787
 5627W        W78041  37.922  40.448  12.069
 5628W        W78042  44.839  35.368   4.790
 5629W        W78043  24.219  20.618   3.250
 5630W        W78044  40.013  44.364   2.187
 5631W        W78045  32.475  21.078  12.042
 5632W        W78046  17.596  19.282   1.229
 5633W        W78047  17.067  34.601   2.318
 5634W        W78048   9.651  40.467   0.279
 5635W        W78049  37.004   3.885   3.811
 5636W        W78050   9.380   2.257   1.311
 5637W        W78051  22.996  15.789   1.908
 5638W        W78052  43.315   6.832  12.968
 5639W        W78053  41.504  39.042   4.622
 5640W        W78054  30.577   7.806  12.427
 5641W        W78055  17.799  12.643   0.886
 5642W        W78056  19.210  30.907  13.849
 5643W        W78057  29.489  29.557   0.408
 5644W        W78058   5.720   2.780  12.838
 5645W        W78059  24.660  22.044  12.904
 5646W        W78060  17.103  42.453   0.349
 5647W        W78061   0.436   8.873   1.842
 5648W        W78062   8.198  21.100   1.871
 5649W        W78063   0.479  35.431  11.992
 5650W        W78064  26.965  21.677  14.297
 5651W        W78065  14.669  44.325   3.321
 5652W        W78066  27.108   0.388   1.832
 5653W        W78067  24.189   7.401   0.855
 5654W        W78068   7.374  39.350   1.771
 5655W        W78069  28.081  22.612  10.640
 5656W        W78070   4.865  30.649  11.612
 5657W        W78071  32.503  12.758   5.264
 5658W        W78072   9.782  17.097   0.897
 5659W        W78073  32.099  42.839  14.915
 5660W        W78074  19.673  28.565  14.966
 5661W        W78075   7.801  28.161   3.857
 5662W        W78076  41.879  38.338  12.519
 5663W        W78077  27.147   0.838   3.229
 5664W        W78078   4.268  12.835  10.438
 5665W        W78079  39.422   5.739  14.842
 5666W        W78080  34.115  43.924  12.972
 5667W        W78081  24.623  20.261   1.248
 5668W        W78082  14.698  36.543  11.944
 5669W        W78083  32.067  15.132  10.065
 5670W        W78084  41.380  31.127   1.833
 5671W        W78085   9.259  18.174  11.437
 5672W        W78086  29.129  37.459   2.246
 5673W        W78087  14.814  19.185   2.873
 5674W        W78088  33.906   5.773  14.917
 5675W        W78089  12.702  33.604   2.714
 5676W        W78090  18.652  29.474  12.858
 5677W        W78091  41.809  16.147   2.215
 5678W        W78092  23.731  16.626   3.362
 5679W        W78093   3.251   0.951  14.910
 5680W        W78094  26.637  23.536  11.591
 5681W        W78095  35.956  32.424   2.746
 5682W        W78096  38.030  18.242  10.545
 5683W        W78097  33.908  19.118   4.822
 5684W        W78098  15.696   1.481  11.522
 5685W        W78099  38.935   3.353   4.790
 5686W        W78100  36.389   3.956   3.275
 5687W        W78101   7.177   0.930  10.426
 5688W        W78102   4.794  33.907   5.270
 5689W        W78103  27.573  31.026  14.909
 5690W        W78104  40.917  35.974  12.448
 5691W        W78105  33.879  34.009  14.393
 5692W        W78106  24.214   7.354   2.683
 5693W        W78107  37.554   5.312   3.304
 5694W        W78108  33.392  15.782  12.841
 5695W        W78109  28.047   9.171   3.754
 5696W        W78110  22.182   0.978   1.363
 5697W        W78111  14.817  30.588   2.672
 5698W        W78112   8.319  19.203  10.912
 5699W        W78113  19.081  28.623   4.708
 5700W        W78114  23.507  39.541  10.604
 5701W        W78115  17.633  31.013   2.321
 5702W        W78116  40.391  23.686  14.837
 5703W        W78117  24.032  16.093  13.964
 5704W        W78118  17.649   1.295  10.621
 5705W        W78119   1.856  36.957   2.318
 5706W        W78120  35.047  43.323  14.413
 5707W        W78121  24.033  22.678   4.202
 5708W        W78122  42.321  25.661   2.877
 5709W        W78123   2.868  21.612   3.723
 5710W        W78124  15.606   2.950  10.432
 5711W        W78125   2.954   0.431   1.267
 5712W        W78126  33.554   1.859  11.499
 5713W        W78127  40.927  19.773   2.241
 5714W        W78128   1.843  32.085   0.792
 5715W        W78129  38.510  14.309   2.814
 5716W        W78130  21.512  32.561   4.130
 5717W        W78131  43.890   9.377  14.939
 5718W        W78132   9.881  40.854  10.920
 5719W        W78133  16.221  42.494  13.971
 5720W        W78134  22.098  12.314   1.920
 5721W        W78135  18.690  12.690   0.869
 5722W        W78136  38.515  33.965   1.340
 5723W        W78137   7.782  22.518  11.537
 5724W        W78138  41.805  36.401   0.833
 5725W        W78139  23.170   1.900  11.092
 5726W        W78140  33.920  30.036  12.427
 5727W        W78141   2.956  35.987  11.417
 5728W        W78142  28.539  29.107  14.770
 5729W        W78143   1.481  36.950   1.907
 5730W        W78144   6.693  16.725  12.568
 5731W        W78145  30.927  38.357   4.263
 5732W        W78146  26.971   9.873   3.642
 5733W        W78147  44.988  36.947  11.029
 5734W        W78148  35.008  28.109   4.838
 5735W        W78149   4.725  27.656  13.987
 5736W        W78150   4.345  15.092   1.918
 5737W        W78151   5.199  25.703  10.973
 5738W        W78152  25.140  26.169  14.338
 5739W        W78153  22.011  24.559   3.166
 5740W        W78154  33.986   9.294  12.420
 5741W        W78155   9.211  16.223   2.323
 5742W        W78156  26.201  33.110   1.730
 5743W        W78157  36.451  29.137   2.204
 5744W        W78158  26.681  11.852   0.886
 5745W        W78159  34.394   1.358   0.389
 5746W        W78160  30.471  40.965   3.653
 5747W        W78161  33.903  37.833   3.325
 5748W        W78162  19.266  24.688  14.361
 5749W        W78163  28.077  14.608  14.810
 5750W        W78164  17.127  18.119  10.147
 5751W        W78165  40.022   7.739   2.757
 5752W        W78166   1.886  29.510  11.885
 5753W        W78167   7.812  38.006   3.353
 5754W        W78168  21.186  38.907   1.804
 5755W        W78169   3.893  29.004  12.851
 5756W        W78170  27.006  24.177  13.514
 5757W        W78171  18.271  15.107   1.438
 5758W        W78172  25.063   9.771   1.833
 5759W        W78173  42.794   3.725   2.343
 5760W        W78174  35.366   2.442   3.350
 5761W        W78175  35.543   1.407  11.918
 5762W        W78176   6.879  38.544  12.506
 5763W        W78177  18.073   5.233  13.483
 5764W        W78178  15.101  36.466  12.516
 5765W        W78179  21.161  14.762  13.914
 5766W        W78180   2.944  42.313   0.407
 5767W        W78181  22.068  22.202   0.799
 5768W        W78182  30.003  30.549  14.384
 5769W        W78183  41.330  35.465  11.532
 5770W        W78184  37.506   0.386   4.789
 5771W        W78185  19.141  26.616  10.968
 5772W        W78186  10.644  17.648  11.490
 5773W        W78187  41.441  10.314  11.950
 5774W        W78188   7.356  28.644  12.542
 5775W        W78189  32.907  38.432  14.779
 5776W        W78190  14.284   9.847   3.297
 5777W        W78191  13.231  22.685  12.359
 5778W        W78192  24.993   2.899  11.079
 5779W        W78193   3.283  34.535  13.379
 5780W        W78194  26.112  30.976   0.394
 5781W        W78195  44.770  23.053  11.931
 5782W        W78196  32.993  25.212   3.675
 5783W        W78197   6.794   7.299  12.859
 5784W        W78198   3.413  18.250   2.272
 5785W        W78199  31.940  34.568   1.314
 5786W        W78200  27.036  36.575   2.331
 5787W        W78201  33.898   6.249  10.904
 5788W        W78202  12.298  36.849   2.855
 5789W        W78203  10.149  22.157   2.280
 5790W        W78204  15.093   0.406  13.343
 5791W        W78205  28.489  42.821   3.280
 5792W        W78206   0.469   9.156  10.593
 5793W        W78207  23.706   1.426   5.302
 5794W        W78208  37.883  23.597   4.141
 5795W        W78209  18.776  36.063  14.891
 5796W        W78210  34.371  30.433   4.747
 5797W        W78211  26.619  44.467  14.961
 5798W        W78212  12.853   4.869   1.442
 5799W        W78213  29.429  37.466   4.119
 5800W        W78214  39.914  36.569   1.334
 5801W        W78215   3.797  35.000  12.827
 5802W        W78216  25.063  12.661  11.894
 5803W        W78217   7.366  26.581  12.001
 5804W        W78218  43.406  25.039  10.643
 5805W        W78219  44.320  23.620  11.026
 5806W        W78220   3.277  43.339  11.473
 5807W        W78221  15.786  13.172   3.275
 5808W        W78222  27.146  17.680   1.323
 5809W        W78223  30.962  43.289   0.822
 5810W        W78224  14.801  38.474  14.384
 5811W        W78225  35.473   2.325  14.295
 5812W        W78226   5.706  32.928  10.996
 5813W        W78227  43.369  32.975   2.323
 5814W        W78228  16.774   9.313  11.462
 5815W        W78229  30.485  19.142   1.261
 5816W        W78230  27.636  18.118   0.868
 5817W        W78231   0.897  13.232  10.637
 5818W        W78232   8.330  29.631   0.739
 5819W        W78233  17.776  23.042   2.220
 5820W        W78234  18.698  22.576   2.834
 5821W        W78235   4.323  26.014   2.709
 5822W        W78236   3.794  15.311  11.985
 5823W        W78237  28.472  16.272   2.688
 5824W        W78238  36.046  40.887   0.392
 5825W        W78239  14.669  16.268  11.448
 5826W        W78240  33.085  41.509   1.776
 5827W        W78241  31.585  37.421   0.951
 5828W        W78242   3.227   8.372  10.626
 5829W        W78243   6.753   3.269   4.789
 5830W        W78244  25.087  41.008   2.709
 5831W        W78245  23.525  10.848  14.862
 5832W        W78246  41.448   1.896  12.091
 5833W        W78247  13.181  24.158  14.892
 5834W        W78248  44.910  43.472   2.205
 5835W        W78249   7.243  44.002   1.821
 5836W        W78250  19.755  12.201   2.272
 5837W        W78251   2.252  24.542   1.315
 5838W        W78252   5.338   5.708  13.518
 5839W        W78253   1.753  41.317   1.859
 5840W        W78254  11.165  25.556   1.822
 5841W        W78255  39.012  42.951   0.348
 5842W        W78256  20.659  29.572  10.414
 5843W        W78257   1.851  40.925  11.515
 5844W        W78258  37.427  15.675  13.954
 5845W        W78259  17.644  28.133   0.418
 5846W        W78260  28.557  23.538   2.781
 5847W        W78261  13.325   0.474  14.027
 5848W        W78262  23.108  20.568  11.991
 5849W        W78263  16.207   7.895  13.377
 5850W        W78264  26.186   6.885  14.001
 5851W        W78265  22.045   5.819   4.761
 5852W        W78266  11.180  32.511  13.945
 5853W        W78267  27.172  26.140   3.216
 5854W        W78268  28.671   5.866   4.775
 5855W        W78269  20.075   2.816  12.005
 5856W        W78270  12.848  24.124  14.019
 5857W        W78271   6.826   3.221   5.121
 5858W        W78272  39.366   4.820  13.491
 5859W        W78273  22.711  28.027   0.333
 5860W        W78274  21.634  44.454  11.574
 5861W        W78275   1.945  43.406   0.863
 5862W        W78276  37.064  10.376  13.052
 5863W        W78277  26.084  34.411  12.558
 5864W        W78278  28.472  26.199  13.451
 5865W        W78279  42.020  18.179  11.470
 5866W        W78280  29.561  15.603  10.487
 5867W        W78281   0.264  37.895   2.300
 5868W        W78282  29.164  38.921  11.548
 5869W        W78283   7.682  11.253  13.878
 5870W        W78284  36.497  13.169   3.734
 5871W        W78285  17.657  13.614   2.318
 5872W        W78286  17.569  30.637   0.749
 5873W        W78287  10.677   4.273   2.303
 5874W        W78288  13.169  11.288   4.189
 5875W        W78289   0.784  31.646  13.534
 5876W        W78290  15.622  19.668   2.380
 5877W        W78291  36.929  27.669   4.652
 5878W        W78292   0.340  28.997   0.819
 5879W        W78293  35.482   0.379  14.501
 5880W        W78294   1.856  17.771  10.924
 5881W        W78295  39.970  14.283  12.948
 5882W        W78296  38.353  42.787   3.327
 5883W        W78297  26.050  38.445   2.682
 5884W        W78298  33.080  22.071   0.289
 5885W        W78299   4.784  13.232   4.125
 5886W        W78300   2.358  36.516  13.022
 5887W        W78301  38.359  40.504  11.478
 5888W        W78302   5.263  18.572   2.855
 5889W        W78303  30.096  28.977  10.603
 5890W        W78304   5.206  18.644  11.544
 5891W        W78305  34.597  27.060  11.506
 5892W        W78306  17.557  30.523  12.354
 5893W        W78307  41.852   1.788  13.482
 5894W        W78308  20.051  29.634   1.768
 5895W        W78309   9.289  21.232   3.853
 5896W        W78310  22.137  19.114  12.429
 5897W        W78311  14.792  13.212   3.239
 5898W        W78312  27.485   3.271   4.234
 5899W        W78313   2.839  33.129   4.747
 5900W        W78314  12.283  33.046   3.773
 5901W        W78315   6.760  21.657   4.825
 5902W        W78316  21.076  24.039   4.731
 5903W        W78317  23.112  11.815   2.388
 5904W        W78318   4.861  20.737  14.495
 5905W        W78319  25.563   9.367  11.607
 5906W        W78320   1.880  15.758   0.380
 5907W        W78321   9.822  41.935  10.606
 5908W        W78322  20.696  44.397   5.234
 5909W        W78323  39.842   4.887  12.883
 5910W        W78324  36.986  12.808  10.569
 5911W        W78325   2.229  34.085   1.868
 5912W        W78326  17.687   3.335  12.933
 5913W        W78327  14.325  32.962  14.837
 5914W        W78328   7.249   4.736   3.638
 5915W        W78329  10.314  43.977  14.784
 5916W        W78330   2.813  22.023   4.149
 5917W        W78331  24.723  16.188   1.295
 5918W        W78332  22.084  30.491   3.217
 5919W        W78333   5.315  18.120  14.373
 5920W        W78334  20.764  42.990  11.948
 5921W        W78335  20.670   1.457   2.761
 5922W        W78336  21.555   8.889  14.475
 5923W        W78337  24.012  32.531  13.853
 5924W        W78338  16.200  22.535   0.301
 5925W        W78339  28.057   8.849   4.331
 5926W        W78340   2.231   4.753  12.359
 5927W        W78341   8.398  35.108  14.509
 5928W        W78342  40.486  35.397  13.307
 5929W        W78343  33.381   2.796   1.349
 5930W        W78344  36.490   8.871   4.352
 5931W        W78345  20.155  36.457  12.569
 5932W        W78346  44.504  10.802  13.437
 5933W        W78347   7.878  39.532   2.349
 5934W        W78348  32.073  12.610   1.323
 5935W        W78349  26.093  42.877  13.434
 5936W        W78350  43.841   9.211  12.462
 5937W        W78351  24.069  14.335   2.804
 5938W        W78352   2.357  42.844   4.344
 5939W        W78353  12.714  22.223   1.245
 5940W        W78354  27.675  16.696   2.763
 5941W        W78355  43.449  23.074  12.380
 5942W        W78356   4.770  27.529  10.103
 5943W        W78357  24.032  41.428   2.278
 5944W        W78358  31.570  18.778  14.371
 5945W        W78359  43.338   1.453   1.253
 5946W        W78360  31.131   1.817   4.332
 5947W        W78361   4.851  40.465  11.525
 5948W        W78362  21.109  14.761  12.041
 5949W        W78363  16.765  13.746   3.350
 5950W        W78364   9.302   6.707   1.911
 5951W        W78365  15.245  40.447   1.393
 5952W        W78366  42.422  39.432   0.769
 5953W        W78367   9.682  13.829   4.121
 5954W        W78368  40.899  29.634  13.456
 5955W        W78369  18.110  33.077   4.143
 5956W        W78370  16.303  38.539  12.549
 5957W        W78371   8.171  44.861   3.629
 5958W        W78372  12.190  30.113  13.985
 5959W        W78373  32.962  33.124  13.355
 5960W        W78374  35.563   9.851  12.989
 5961W        W78375   8.379   9.855   1.860
 5962W        W78376  40.890  37.338   1.296
 5963W        W78377   6.763  14.279  14.830
 5964W        W78378   0.299  39.494   1.259
 5965W        W78379  13.806  20.735   0.400
 5966W        W78380  19.234  43.479   2.835
 5967W        W78381  20.072  38.013  13.858
 5968W        W78382  42.423  31.976   1.381
 5969W        W78383  29.604  10.870  13.396
 5970W        W78384  20.271  23.659  13.058
 5971W        W78385  31.019  16.132  14.873
 5972W        W78386  31.018  13.778   4.779
 5973W        W78387  34.504  35.434  12.566
 5974W        W78388  27.478  13.845  11.612
 5975W        W78389  44.822  12.154  12.989
 5976W        W78390   8.381  31.557  10.971
 5977W        W78391  29.990   6.309  14.016
 5978W        W78392  38.902   3.372   2.829
 5979W        W78393  14.309  30.534  10.977
 5980W        W78394   2.733   9.170   3.659
 5981W        W78395  35.032  33.074  10.499
 5982W        W78396  11.246   1.443   0.918
 5983W        W78397  26.585  36.069   4.691
 5984W        W78398  42.008  44.841  12.825
 5985W        W78399   2.836  21.244  13.815
 5986W        W78400  37.840  14.333  11.870
 5987W        W78401  33.884   2.845  10.613
 5988W        W78402  25.487  14.171  14.822
 5989W        W78403  29.593  29.478   4.653
 5990W        W78404  27.138   0.857  14.880
 5991W        W78405  15.705   9.378  13.837
 5992W        W78406  20.252  16.150   3.227
 5993W        W78407   1.289  34.608  11.961
 5994W        W78408  35.064  33.408  12.950
 5995W        W78409  27.517  24.020   4.235
 5996W        W78410  44.503  20.630  10.945
 5997W        W78411  26.968  39.450   0.436
 5998W        W78412  20.190  26.570  13.525
 5999W        W78413  33.608  18.595  12.978
 6000W        W78414  30.491  19.179  11.446
 6001W        W78415  25.705  39.827  12.490
 6002W        W78416   1.962  24.180   4.160
 6003W        W78417  14.224  23.592  11.496
 6004W        W78418   5.367   0.378   3.341
 6005W        W78419  12.842  33.005  10.493
 6006W        W78420  18.212   1.930  14.765
 6007W        W78421  25.198  10.767   3.311
 6008W        W78422   6.401  19.165  10.490
 6009W        W78423  19.744  29.160  13.318
 6010W        W78424  33.963  35.944  14.497
 6011W        W78425  40.313  28.005  13.309
 6012W        W78426   7.220  27.063  11.058
 6013W        W78427  38.870  34.112   0.819
 6014W        W78428  10.742   6.688   1.351
 6015W        W78429  29.605   1.758   1.725
 6016W        W78430  15.694  30.942   2.212
 6017W        W78431  35.533  28.121  12.455
 6018W        W78432  16.220   9.728   4.239
 6019W        W78433   5.691  25.484  11.605
 6020W        W78434   7.361   0.374  11.423
 6021W        W78435  43.782   2.412  14.502
 6022W        W78436  15.630  17.091  13.495
 6023W        W78437  41.504  27.073  11.484
 6024W        W78438   6.809  39.482  12.967
 6025W        W78439  11.226   3.863   4.788
 6026W        W78440  20.102  11.766   2.236
 6027W        W78441  25.068  33.482  12.057
 6028W        W78442   8.752   8.846  14.980
 6029W        W78443  39.829   1.254  13.413
 6030W        W78444  44.767  26.569  14.453
 6031W        W78445  17.556  30.115   4.326
 6032W        W78446  39.376  22.627  13.969
 6033W        W78447  23.513  17.249   0.347
 6034W        W78448  25.487  41.402  11.062
 6035W        W78449  14.109   8.704   0.357
 6036W        W78450  34.067  34.006  11.597
 6037W        W78451  29.155   6.345  13.034
 6038W        W78452  44.418  21.552  13.486
 6039W        W78453  38.410  34.966  13.457
 6040W        W78454  14.285   4.901  12.030
 6041W        W78455  20.537  16.698  11.393
 6042W        W78456  23.538  29.158  13.502
 6043W        W78457  20.258  21.189  10.407
 6044W        W78458   9.369  22.203   1.284
 6045W        W78459  38.401  38.329   0.340
 6046W        W78460  17.251  30.002   0.309
 6047W        W78461  30.648  22.625  14.979
 6048W        W78462   2.259  26.552  11.431
 6049W        W78463  14.800  22.656  11.492
 6050W        W78464  33.613   8.179   1.430
 6051W        W78465  36.464  39.512  10.406
 6052W        W78466  42.860  13.270  13.546
 6053W        W78467  20.574  16.763   2.710
 6054W        W78468  14.249  18.232   4.163
 6055W        W78469  39.531   2.744  12.420
 6056W        W78470   3.839   7.730  12.823
 6057W        W78471  38.932  37.836   0.445
 6058W        W78472  30.009  44.922   3.216
 6059W        W78473   0.945  20.701   4.258
 6060W        W78474  21.069  10.693   3.652
 6061W        W78475  39.384  28.931  10.475
 6062W        W78476  25.182  13.603   4.259
 6063W        W78477   2.256  44.779   0.374
 6064W        W78478  33.419  23.159   0.363
 6065W        W78479  32.121  32.402  14.391
 6066W        W78480  18.266  31.591   1.723
 6067W        W78481  16.178  13.339   2.360
 6068W        W78482  35.483  11.137   0.301
 6069W        W78483  19.256  39.858   3.841
 6070W        W78484   2.457  24.057   1.912
 6071W        W78485  13.319   1.292   2.796
 6072W        W78486  28.641   5.884   0.269
 6073W        W78487   6.853  37.854   1.874
 6074W        W78488   2.722  25.132   4.755
 6075W        W78489  41.368  18.632  12.078
 6076W        W78490  44.259  37.536   4.638
 6077W        W78491  10.186   5.324   3.203
 6078W        W78492  33.016  17.275   0.398
 6079W        W78493  38.472  42.820   2.702
 6080W        W78494  44.405  38.031  11.484
 6081W        W78495  39.008  22.716   3.795
 6082W        W78496  20.171  26.660   3.207
 6083W        W78497   4.769  26.562   0.266
 6084W        W78498   4.930  27.076   4.825
 6085W        W78499  14.218   4.871   1.725
 6086W        W78500  22.675  20.525   1.917
 6087W        W78501  43.973  29.475  10.995
 6088W        W78502  16.592  32.945   1.298
 6089W        W78503  32.103  21.685  12.940
 6090W        W78504  11.799  21.634  11.531
 6091W        W78505  16.797   3.431   2.752
 6092W        W78506  42.437  35.449  12.381
 6093W        W78507  29.470  12.250  11.017
 6094W        W78508   5.223   5.387   1.348
 6095W        W78509  32.573  29.447   0.308
 6096W        W78510  18.247  17.602  11.103
 6097W        W78511   9.157  44.409   1.422
 6098W        W78512   4.326  43.826   0.288
 6099W        W78513  39.337  42.822  13.360
 6100W        W78514   6.719  26.512  14.865
 6101W        W78515  29.478  12.295   3.306
 6102W        W78516   1.854  14.199  11.916
 6103W        W78517   7.745  29.139  12.932
 6104W        W78518   5.417   4.709   0.873
 6105W        W78519  25.986   5.861   2.767
 6106W        W78520   4.235   3.397   2.881
 6107W        W78521  18.715  33.090   3.179
 6108W        W78522   9.674  27.955   0.749
 6109W        W78523  32.101  27.632   1.369
 6110W        W78524  31.451  30.015  11.589
 6111W        W78525  28.534  10.266   3.245
 6112W        W78526  16.729   5.844  14.412
 6113W        W78527   8.871   4.825   4.243
 6114W        W78528  19.692  42.002   4.765
 6115W        W78529  28.539  35.488   1.783
 6116W        W78530  11.170  23.660   0.356
 6117W        W78531  15.283  37.467   1.330
 6118W        W78532  15.618  27.651  14.451
 6119W        W78533  17.300  22.536  12.976
 6120W        W78534  34.445   3.285   3.261
 6121W        W78535  13.314  36.416  13.329
 6122W        W78536  17.764  14.217  13.391
 6123W        W78537   8.854  24.024  13.064
 6124W        W78538  36.046  26.041  10.548
 6125W        W78539  15.142  14.173  10.931
 6126W        W78540  14.743  20.211   4.235
 6127W        W78541  12.235  15.317  14.370
 6128W        W78542  16.302   0.864  14.293
 6129W        W78543   1.758  40.916   1.431
 6130W        W78544  22.090  18.597  10.895
 6131W        W78545  27.529  42.807   2.292
 6132W        W78546   4.292  32.452  10.438
 6133W        W78547  29.097  16.124  13.424
 6134W        W78548  36.852   9.258  14.386
 6135W        W78549  12.149  42.927   2.679
 6136W        W78550   4.361   3.439   4.213
 6137W        W78551  37.906  25.115   1.785
 6138W        W78552  18.759  42.332   2.729
 6139W        W78553  31.923  16.135   3.354
 6140W        W78554  14.631  31.607   1.854
 6141W        W78555  14.204  28.943   3.754
 6142W        W78556  27.142  21.724   4.195
 6143W        W78557  27.031  44.412  11.878
 6144W        W78558  41.809  22.690   1.910
 6145W        W78559   2.929  27.074   5.260
 6146W        W78560  21.209  18.288   1.932
 6147W        W78561   4.407  18.112   1.271
 6148W        W78562  13.846  12.804  11.395
 6149W        W78563  30.499  22.068  11.385
 6150W        W78564  16.293  13.296   1.393
 6151W        W78565  24.651   1.832   3.324
 6152W        W78566  21.702  22.509  10.925
 6153W        W78567  17.105  14.188   0.896
 6154W        W78568  23.054  36.869   4.744
 6155W        W78569  37.443  13.680   1.697
 6156W        W78570  30.101  30.988  13.329
 6157W        W78571  17.109  16.806   2.860
 6158W        W78572  32.477  12.292   1.872
 6159W        W78573  30.033  21.246   2.260
 6160W        W78574  32.058   9.201  13.902
 6161W        W78575  29.501  14.775  14.832
 6162W        W78576  16.092  42.889   3.271
 6163W        W78577   2.398  23.033  14.296
 6164W        W78578  43.828  43.341   2.893
 6165W        W78579  13.306   8.220  11.870
 6166W        W78580  19.696  23.599  12.940
 6167W        W78581  24.094   7.195   4.756
 6168W        W78582  44.921  34.050  13.972
 6169W        W78583  32.491  40.452  10.003
 6170W        W78584  40.982  18.144  14.894
 6171W        W78585  29.454  44.312   9.970
 6172W        W78586   2.365  43.913  12.420
 6173W        W78587  19.547  24.060  10.931
 6174W        W78588  14.177   7.836   2.326
 6175W        W78589  16.149  13.649   1.912
 6176W        W78590   5.778  20.163   4.243
 6177W        W78591  42.945  29.956  11.526
 6178W        W78592   2.755  37.083   3.802
 6179W        W78593  23.013   4.843   0.916
 6180W        W78594   0.878   2.818   1.219
 6181W        W78595  43.289  36.953   4.213
 6182W        W78596   6.789  14.208   4.118
 6183W        W78597  14.638   7.381   3.644
 6184W        W78598  22.699  19.228  13.322
 6185W        W78599  34.571  17.615   1.441
 6186W        W78600   7.289   4.381   3.843
 6187W        W78601   8.342  40.983   2.339
 6188W        W78602  29.586  24.575  12.960
 6189W        W78603  19.623   7.734  12.953
 6190W        W78604  26.958  20.677   3.338
 6191W        W78605  15.265   5.933  11.452
 6192W        W78606   0.920  17.108   0.779
 6193W        W78607  40.042  34.065  14.355
 6194W        W78608  31.574   9.703  11.470
 6195W        W78609  26.609  37.065   2.322
 6196W        W78610  10.315  17.700  13.913
 6197W        W78611  37.904  29.435   2.361
 6198W        W78612  22.100  12.832  12.491
 6199W        W78613  14.323  10.351  12.394
 6200W        W78614  44.006  30.030   3.361
 6201W        W78615  12.159  14.207   2.330
 6202W        W78616  27.992  20.176   2.698
 6203W        W78617  27.032  14.188  13.884
 6204W        W78618  28.089  29.070   2.332
 6205W        W78619  31.114  17.253  13.038
 6206W        W78620   9.890  37.541  14.784
 6207W        W78621  26.171  26.619   0.742
 6208W        W78622  17.680   2.929  14.414
 6209W        W78623  28.122   4.290   4.223
 6210W        W78624  15.808   8.741  13.908
 6211W        W78625  42.357  21.075   0.954
 6212W        W78626  38.828  40.528  11.127
 6213W        W78627   6.227  36.937   2.752
 6214W        W78628  17.744  15.679   4.235
 6215W        W78629  19.130  33.080   3.854
 6216W        W78630  41.951   0.919   2.728
 6217W        W78631  33.042  26.099   0.296
 6218W        W78632  23.559   7.343   3.776
 6219W        W78633  17.175  18.091   2.207
 6220W        W78634   9.784  16.285  12.395
 6221W        W78635  40.877   3.314   0.937
 6222W        W78636  16.163  22.153  10.965
 6223W        W78637   3.328   7.681  12.974
 6224W        W78638   5.290  25.662  14.895
 6225W        W78639  37.386  44.860  12.097
 6226W        W78640  37.342  10.166   1.417
 6227W        W78641  43.326  10.225  11.918
 6228W        W78642  32.589  18.746  11.895
 6229W        W78643   6.400   3.404  14.327
 6230W        W78644  13.311   4.301  13.428
 6231W        W78645  17.067   7.793  14.463
 6232W        W78646  42.945  27.510  11.545
 6233W        W78647  15.770   1.892  11.029
 6234W        W78648  14.830  15.753  12.923
 6235W        W78649  11.350  30.967   3.853
 6236W        W78650  12.763  17.087   1.373
 6237W        W78651  29.542   4.932  11.075
 6238W        W78652  13.734  20.621  12.341
 6239W        W78653  23.706  31.568  14.464
 6240W        W78654   4.329  30.024  11.534
 6241W        W78655  42.410  12.791  14.325
 6242W        W78656  39.531  42.395  10.994
 6243W        W78657  26.636  14.143   2.232
 6244W        W78658  33.043  23.696  14.924
 6245W        W78659  42.382   3.758   3.157
 6246W        W78660  40.893   6.414   1.861
 6247W        W78661  37.963  32.132   3.250
 6248W        W78662  14.167   9.154   2.243
 6249W        W78663  34.584  34.113   4.151
 6250W        W78664  30.460   0.370  14.357
 6251W        W78665  38.495  10.246   2.854
 6252W        W78666  10.722  29.011   4.225
 6253W        W78667   5.259  33.538   2.294
 6254W        W78668   2.442  22.995  13.539
 6255W        W78669  28.598  33.110   0.749
 6256W        W78670  27.049  30.119   0.882
 6257W        W78671  34.941  34.444  13.908
 6258W        W78672  43.832   8.859  12.388
 6259W        W78673  15.083  43.936   1.705
 6260W        W78674   0.870  15.300   2.847
 6261W        W78675  37.506  43.446  12.059
 6262W        W78676  18.786  41.423   5.184
 6263W        W78677   9.732   6.253   1.924
 6264W        W78678  16.208  18.656   1.277
 6265W        W78679  26.071  11.235   1.781
 6266W        W78680   1.312   7.244   4.735
 6267W        W78681  21.521  40.990   4.152
 6268W        W78682   9.201  16.790  13.429
 6269W        W78683  39.904  27.096   3.842
 6270W        W78684   9.153  13.716   3.731
 6271W        W78685  36.961  23.026   9.547
 6272W        W78686  43.954  14.097   3.177
 6273W        W78687  43.849  20.757  11.897
 6274W        W78688  36.863  37.045   1.291
 6275W        W78689  38.550  14.768   3.825
 6276W        W78690  44.420  36.952  12.965
 6277W        W78691  11.667  31.106  13.363
 6278W        W78692  40.930  34.465   1.774
 6279W        W78693  11.744  39.534   2.208
 6280W        W78694  33.417  39.842   3.739
 6281W        W78695  42.898  27.088   1.761
 6282W        W78696   1.827  32.894   3.861
 6283W        W78697   7.298  35.556   4.272
 6284W        W78698  18.247   6.868   1.921
 6285W        W78699  35.451  41.937   4.822
 6286W        W78700  28.993   7.795  11.902
 6287W        W78701  38.061  10.275  14.329
 6288W        W78702  13.150  18.238   4.765
 6289W        W78703   6.883   2.429  10.981
 6290W        W78704  28.125  28.153   4.171
 6291W        W78705  33.469  33.568  12.477
 6292W        W78706  38.971   1.814  10.991
 6293W        W78707  29.942  19.284  10.967
 6294W        W78708  15.707  15.583  10.470
 6295W        W78709  35.046  34.888   1.910
 6296W        W78710   1.899  42.801   2.275
 6297W        W78711  19.707   6.358  10.514
 6298W        W78712   0.378  20.099  14.378
 6299W        W78713  33.425  11.765  14.977
 6300W        W78714  42.370  27.001  12.927
 6301W        W78715  43.323  24.567   3.277
 6302W        W78716  30.983  15.098  11.529
 6303W        W78717  21.618  37.949   4.811
 6304W        W78718  40.001  11.650   4.229
 6305W        W78719  25.093  20.080   1.709
 6306W        W78720  41.396   0.342   3.743
 6307W        W78721  43.002  30.419   0.441
 6308W        W78722  14.226  20.711  11.542
 6309W        W78723  25.988   0.913   4.242
 6310W        W78724  41.789  12.728  13.338
 6311W        W78725  27.059   1.840  11.554
 6312W        W78726  15.607  22.144  11.411
 6313W        W78727  33.399  25.990  14.374
 6314W        W78728  40.958  40.458   4.637
 6315W        W78729  12.219   1.363   3.216
 6316W        W78730  12.637  15.145  10.500
 6317W        W78731   6.781  34.997  13.482
 6318W        W78732  32.483  32.625   2.314
 6319W        W78733  30.540   3.306  13.410
 6320W        W78734  12.766  26.982  11.491
 6321W        W78735  44.381   6.884   0.832
 6322W        W78736   8.819  29.490  11.487
 6323W        W78737  17.624  29.655   2.874
 6324W        W78738  43.792  32.885   1.385
 6325W        W78739  37.531  18.668  13.030
 6326W        W78740  40.349  31.899   5.116
 6327W        W78741  17.759   6.285   1.917
 6328W        W78742   5.264  15.759  10.088
 6329W        W78743  14.257  32.086  13.019
 6330W        W78744  14.105  33.960   0.472
 6331W        W78745  11.735   3.233  10.990
 6332W        W78746  38.953   7.761  11.569
 6333W        W78747  27.193   5.231   0.455
 6334W        W78748  43.935  36.041   4.144
 6335W        W78749  34.548  36.405  11.569
 6336W        W78750  21.735  19.780   4.784
 6337W        W78751  18.222  37.437  14.811
 6338W        W78752  27.572  38.339   1.340
 6339W        W78753  28.968   8.823   3.244
 6340W        W78754   2.391  40.963   4.691
 6341W        W78755  13.802  42.029   0.929
 6342W        W78756   1.363  43.342   1.694
 6343W        W78757  35.089   7.379  13.469
 6344W        W78758   3.215  42.522  13.430
 6345W        W78759  40.830   2.328  11.547
 6346W        W78760   3.244   5.827   0.248
 6347W        W78761  19.655  10.655  14.001
 6348W        W78762  27.150   1.407  10.452
 6349W        W78763  18.177  28.997  11.983
 6350W        W78764   8.269   3.448   3.187
 6351W        W78765  18.570   0.306   0.388
 6352W        W78766  13.787  22.586  11.495
 6353W        W78767  30.937  44.884  13.894
 6354W        W78768   3.822   3.731   4.342
 6355W        W78769  25.477  11.308  11.436
 6356W        W78770  32.913  26.134   4.186
 6357W        W78771  18.676  26.519   3.786
 6358W        W78772  34.870  24.204   2.684
 6359W        W78773  13.318   0.416  14.849
 6360W        W78774  17.650  10.667  14.408
 6361W        W78775   5.249  15.096   5.586
 6362W        W78776  43.385  32.445  13.398
 6363W        W78777  35.065  32.042   0.770
 6364W        W78778  24.696   4.213  12.926
 6365W        W78779  30.998  10.292  12.956
 6366W        W78780  12.360  40.884   2.220
 6367W        W78781  32.960  25.519   4.741
 6368W        W78782   3.867   9.747   3.193
 6369W        W78783  32.895   6.252  12.569
 6370W        W78784  33.447   5.764  11.904
 6371W        W78785  39.536   3.227   2.764
 6372W        W78786  33.967  17.718  11.027
 6373W        W78787   4.434  32.430   4.208
 6374W        W78788  14.762  21.652   0.286
 6375W        W78789  40.797  23.562   0.292
 6376W        W78790  15.122  30.090  14.788
 6377W        W78791  32.060   0.747   0.923
 6378W        W78792  44.403  11.652  13.348
 6379W        W78793  21.669  31.946   4.684
 6380W        W78794  19.253  40.829  12.382
 6381W        W78795  38.451  23.188  13.877
 6382W        W78796   9.663  33.401  14.417
 6383W        W78797  21.211  13.706  14.975
 6384W        W78798  20.197  34.895   3.644
 6385W        W78799  29.528  25.979   0.373
 6386W        W78800  20.148  25.058   2.247
 6387W        W78801  40.549  18.286  11.980
 6388W        W78802   7.389  14.593   2.706
 6389W        W78803  14.157  37.365  10.989
 6390W        W78804  31.069   3.270  10.544
 6391W        W78805   3.769  15.751   4.653
 6392W        W78806  44.267  38.996   1.341
 6393W        W78807  39.959  28.935   4.260
 6394W        W78808   2.307   9.377   0.940
 6395W        W78809  29.478  12.704   3.287
 6396W        W78810  10.865  34.589   2.349
 6397W        W78811  26.679  21.256   1.738
 6398W        W78812  26.103  38.526  14.371
 6399W        W78813   8.710  36.997  10.570
 6400W        W78814  24.638   1.949   5.586
 6401W        W78815  16.274  25.983  10.612
 6402W        W78816   9.742  23.654   2.698
 6403W        W78817  23.148  20.738  14.363
 6404W        W78818  25.039   9.237   3.870
 6405W        W78819   3.256  23.636  13.507
 6406W        W78820  35.947  13.772   2.734
 6407W        W78821  35.905  29.589   4.818
 6408W        W78822  42.492  30.465  13.904
 6409W        W78823  16.690  15.586   2.281
 6410W        W78824  37.928   8.724   4.605
 6411W        W78825   3.338  41.918  12.373
 6412W        W78826   0.889  18.771  14.964
 6413W        W78827  26.683  23.501  12.986
 6414W        W78828  36.024  23.090   4.246
 6415W        W78829  24.672   2.868   3.364
 6416W        W78830  19.627  20.099   2.813
 6417W        W78831   1.767  25.569   4.139
 6418W        W78832   1.734  27.481   1.715
 6419W        W78833  36.874  37.499   2.284
 6420W        W78834  23.145   6.758   4.224
 6421W        W78835  24.574  24.041  13.967
 6422W        W78836   6.702  19.662  13.004
 6423W        W78837  17.666   7.410   0.360
 6424W        W78838   6.217  11.817   1.748
 6425W        W78839   4.909  26.501  11.373
 6426W        W78840  26.559  38.432   4.338
 6427W        W78841  42.460  18.121  11.554
 6428W        W78842  27.604  25.487  14.000
 6429W        W78843  22.663  19.118  10.597
 6430W        W78844  20.102  43.464   0.798
 6431W        W78845  13.739  31.502   0.808
 6432W        W78846  36.557   4.738   0.884
 6433W        W78847  15.302   1.321  12.504
 6434W        W78848  29.164   3.894  11.087
 6435W        W78849  14.794  42.794  12.883
 6436W        W78850  14.160   5.351  12.574
 6437W        W78851  26.069  32.548  14.886
 6438W        W78852   8.842  27.512  11.532
 6439W        W78853  33.405  38.934  10.576
 6440W        W78854  32.943  43.297   3.802
 6441W        W78855  27.498  11.318   1.266
 6442W        W78856   0.871   6.311   3.222
 6443W        W78857  26.475   1.380  13.440
 6444W        W78858  35.016  15.218   0.881
 6445W        W78859  34.569  41.894  10.907
 6446W        W78860   7.401  44.921  12.483
 6447W        W78861  28.057  10.785  13.882
 6448W        W78862  11.208  29.535  10.988
 6449W        W78863   4.733  36.448   4.724
 6450W        W78864  44.366   4.448   1.872
 6451W        W78865  41.436  27.095   1.823
 6452W        W78866  12.758  41.961   2.667
 6453W        W78867  25.547  20.054  12.348
 6454W        W78868  29.473  20.171   3.850
 6455W        W78869   5.311  22.127   2.379
 6456W        W78870  13.288  44.442  14.794
 6457W        W78871  40.397   1.433   4.674
 6458W        W78872  26.484  13.227  13.863
 6459W        W78873  33.924  30.560   4.731
 6460W        W78874  33.120  39.832   2.800
 6461W        W78875  29.996  10.332  13.503
 6462W        W78876  20.734  35.486  13.835
 6463W        W78877  34.470  24.121  14.957
 6464W        W78878  39.950  30.063  10.484
 6465W        W78879  40.357  36.549   1.867
 6466W        W78880  25.051  39.018  10.441
 6467W        W78881  34.012  19.133  11.393
 6468W        W78882  40.394   7.356   0.741
 6469W        W78883  42.845  44.789  12.383
 6470W        W78884  11.840  28.072   1.404
 6471W        W78885  11.816  22.206   4.833
 6472W        W78886  34.540  10.350  11.543
 6473W        W78887  16.256  17.774  12.045
 6474W        W78888  16.769  33.498   4.803
 6475W        W78889  32.051  32.546   3.210
 6476W        W78890  14.131  10.723   3.165
 6477W        W78891   2.736  32.407   3.189
 6478W        W78892  24.517  11.188   4.705
 6479W        W78893  35.937  16.220   3.729
 6480W        W78894  37.498  13.676  10.571
 6481W        W78895  16.730   6.849  13.010
 6482W        W78896  16.628  12.168   3.754
 6483W        W78897  31.912   5.822   2.854
 6484W        W78898   3.914  30.470   3.787
 6485W        W78899  31.017   2.900  11.965
 6486W        W78900  12.633  30.557  12.835
 6487W        W78901  24.623  40.048  14.428
 6488W        W78902  12.696  35.972   2.233
 6489W        W78903  26.659  43.900   4.242
 6490W        W78904   1.425  42.398  10.631
 6491W        W78905  25.590  15.599   3.250
 6492W        W78906  38.368  22.606  11.558
 6493W        W78907   2.919  31.141   3.850
 6494W        W78908   1.289  36.509   2.767
 6495W        W78909  29.123   0.777  11.374
 6496W        W78910  40.373  27.628   0.902
 6497W        W78911  10.210  13.232   0.439
 6498W        W78912  39.537  18.295  14.887
 6499W        W78913  40.450  33.525   0.885
 6500W        W78914  16.675  28.975   1.869
 6501W        W78915  17.700  31.621   2.809
 6502W        W78916  40.544  35.096   3.317
 6503W        W78917  43.861  31.573  11.458
 6504W        W78918  31.073  22.742   5.186
 6505W        W78919  26.101  36.024   3.656
 6506W        W78920  13.107  36.579  14.032
 6507W        W78921  37.068  32.007  12.419
 6508W        W78922  44.430  10.347   5.113
 6509W        W78923  40.027  28.531  14.874
 6510W        W78924  12.314  28.494  14.884
 6511W        W78925  13.197  35.930   2.242
 6512W        W78926   9.693  14.727  10.618
 6513W        W78927  40.458  37.058  12.360
 6514W        W78928  14.747  15.261   3.204
 6515W        W78929  29.938  43.382   2.689
 6516W        W78930   3.416  26.090  14.915
 6517W        W78931  13.242  25.662   2.396
 6518W        W78932  44.391  39.396  13.539
 6519W        W78933  12.615  17.704  10.889
 6520W        W78934   4.410  12.323   5.570
 6521W        W78935   9.314   8.341   2.817
 6522W        W78936   8.366  44.330   3.809
 6523W        W78937   2.344  22.093   3.218
 6524W        W78938  13.261   5.730   0.892
 6525W        W78939  27.088   5.384  14.491
 6526W        W78940  26.483   5.927  12.351
 6527W        W78941  25.634  17.299  12.499
 6528W        W78942  15.642   0.856  14.016
 6529W        W78943  16.762  19.076   0.435
 6530W        W78944   5.801  28.085   3.682
 6531W        W78945  11.859   5.351   1.816
 6532W        W78946  17.749  18.758  12.852
 6533W        W78947   4.286  17.213   2.273
 6534W        W78948  22.131  41.031  10.452
 6535W        W78949  13.182  42.483   3.788
 6536W        W78950  24.160  22.044  11.947
 6537W        W78951  21.242  28.659  11.566
 6538W        W78952  35.480   5.258   1.373
 6539W        W78953  29.057  32.549   4.696
 6540W        W78954  43.869  25.025   1.898
 6541W        W78955  11.647  18.154  10.015
 6542W        W78956  18.284   7.404   0.354
 6543W        W78957  39.008  44.807   2.883
 6544W        W78958   3.883  25.509   3.692
 6545W        W78959  36.007   0.484  14.379
 6546W        W78960  40.506   3.369   3.705
 6547W        W78961   0.427   1.421  11.581
 6548W        W78962  11.295  34.450  12.939
 6549W        W78963   9.356   7.244   5.310
 6550W        W78964  41.342   5.764  11.542
 6551W        W78965  26.003  16.188  13.801
 6552W        W78966  21.142   5.426   4.322
 6553W        W78967   2.251  12.170  14.313
 6554W        W78968  11.163  13.672  10.527
 6555W        W78969  27.575  34.094   2.761
 6556W        W78970  44.340  37.840  14.976
 6557W        W78971  37.448  36.386  11.905
 6558W        W78972   2.750   4.316  12.445
 6559W        W78973  39.998  24.026   4.309
 6560W        W78974  43.329  30.042  10.569
 6561W        W78975  21.550  32.443   0.845
 6562W        W78976   2.237  33.539  13.793
 6563W        W78977   3.247  40.034   9.974
 6564W        W78978  35.929  22.040   2.181
 6565W        W78979  12.819  38.924   4.225
 6566W        W78980  23.590   3.902  10.911
 6567W        W78981  14.699  23.691  10.593
 6568W        W78982  32.097  41.448  12.905
 6569W        W78983  30.531  39.535  10.475
 6570W        W78984  44.481   9.695   0.323
 6571W        W78985  11.345   9.153   2.752
 6572W        W78986  27.196   7.229  11.584
 6573W        W78987  33.546  15.728  13.873
 6574W        W78988  11.357  11.670   0.852
 6575W        W78989  42.956  22.609   0.943
 6576W        W78990   9.359   8.242   3.757
 6577W        W78991  37.942  23.132   1.445
 6578W        W78992   3.856   9.224  12.856
 6579W        W78993  10.342  16.183  12.417
 6580W        W78994  13.683  21.710  14.448
 6581W        W78995  23.523  25.586   2.757
 6582W        W78996  23.199  33.980  11.548
 6583W        W78997  39.003  24.723   4.342
 6584W        W78998  17.733  44.309   0.253
 6585W        W78999  34.063  18.745  14.882
 6586W        W79000   4.830   1.974   5.166
 6587W        W79001  39.433   1.968  11.046
 6588W        W79002  17.643  43.999   0.475
 6589W        W79003   5.246  11.314  10.619
 6590W        W79004   3.345  26.690   3.332
 6591W        W79005  33.491  11.676   3.817
 6592W        W79006  27.677  20.537  10.454
 6593W        W79007  27.446  37.393  14.386
 6594W        W79008  25.608  40.373  11.072
 6595W        W79009  19.056  35.064   2.220
 6596W        W79010  33.519  20.260   0.783
 6597W        W79011  14.298  10.635  12.375
 6598W        W79012  30.985   1.238   3.850
 6599W        W79013  12.270  41.888  14.467
 6600W        W79014  22.670  35.963  10.547
 6601W        W79015  16.316  20.130  13.398
 6602W        W79016  40.899   3.760   2.288
 6603W        W79017  33.986  20.730   3.679
 6604W        W79018  32.930  18.185   0.303
 6605W        W79019  17.246  41.500   1.888
 6606W        W79020   1.322   8.192  13.916
 6607W        W79021  41.515  22.995   2.195
 6608W        W79022   6.746  37.389  12.941
 6609W        W79023  15.802  39.352  10.621
 6610W        W79024  18.790   1.299  13.803
 6611W        W79025   3.319  26.075   4.317
 6612W        W79026  11.364   8.336  12.400
 6613W        W79027   0.986   2.752   3.825
 6614W        W79028  10.197  35.011  13.510
 6615W        W79029   3.729  28.003   0.414
 6616W        W79030  10.676  28.956   4.721
 6617W        W79031   1.341  29.493  11.914
 6618W        W79032  19.750  36.915  11.458
 6619W        W79033   9.160  12.193   4.764
 6620W        W79034  28.669  37.017  12.937
 6621W        W79035  20.686   1.245  10.565
 6622W        W79036  27.562   4.897   1.445
 6623W        W79037  18.261  42.421  13.994
 6624W        W79038  13.347  39.869   4.800
 6625W        W79039  19.757   4.921   0.871
 6626W        W79040   4.395  33.521   4.732
 6627W        W79041  32.119   5.908  11.013
 6628W        W79042   1.793  18.251  12.497
 6629W        W79043  10.266  23.532   2.278
 6630W        W79044  12.345   6.751  10.503
 6631W        W79045  35.393  24.647  11.909
 6632W        W79046  28.553  14.210   2.328
 6633W        W79047  43.347  23.541   0.777
 6634W        W79048  18.643  23.655   4.744
 6635W        W79049   3.824  21.626  14.421
 6636W        W79050   6.233   6.708  14.304
 6637W        W79051  19.062  34.889  14.876
 6638W        W79052  13.328  10.165   1.758
 6639W        W79053  37.372  39.355   2.378
 6640W        W79054  34.935  28.450  12.032
 6641W        W79055   6.381   7.236  10.969
 6642W        W79056  37.858  30.127  12.497
 6643W        W79057  39.906   2.926  12.024
 6644W        W79058   9.749  24.542   4.617
 6645W        W79059   7.217  15.711  14.456
 6646W        W79060  21.193  10.363   5.279
 6647W        W79061   3.240  12.360  11.606
 6648W        W79062  14.778  27.132  14.762
 6649W        W79063  10.199  44.363  14.925
 6650W        W79064  29.533   6.696   3.791
 6651W        W79065   8.162  17.063   3.750
 6652W        W79066  24.009  25.548   3.701
 6653W        W79067  44.454  13.223  12.516
 6654W        W79068  29.599  36.038   0.825
 6655W        W79069  29.103  31.448   1.929
 6656W        W79070  16.773  35.879  12.566
 6657W        W79071  33.917  11.343  14.368
 6658W        W79072  31.933  29.971  11.951
 6659W        W79073  32.477  10.189  11.505
 6660W        W79074  28.530  24.018  10.601
 6661W        W79075  13.171  14.265   9.992
 6662W        W79076   1.752  22.589   0.381
 6663W        W79077   8.175  32.407   2.400
 6664W        W79078  30.141  32.930   0.250
 6665W        W79079  25.587   8.799  14.025
 6666W        W79080   9.351  35.876   4.122
 6667W        W79081  18.100  42.517   4.242
 6668W        W79082  43.362  35.852   4.640
 6669W        W79083  14.191  36.539   3.256
 6670W        W79084  30.062  20.653  13.440
 6671W        W79085  30.616  43.943   4.147
 6672W        W79086  33.400  36.510  13.468
 6673W        W79087  41.352  41.882  12.090
 6674W        W79088  21.587  40.452   3.289
 6675W        W79089  15.315   8.749   1.867
 6676W        W79090   4.276  14.316   3.188
 6677W        W79091  33.419   0.797  10.946
 6678W        W79092  36.078   3.245  14.017
 6679W        W79093  30.911  25.707  12.908
 6680W        W79094  19.537   3.739   1.849
 6681W        W79095   4.876  34.507   1.292
 6682W        W79096  32.009  14.710  11.923
 6683W        W79097  10.366  24.575  10.914
 6684W        W79098   9.319  27.054   0.357
 6685W        W79099  10.825  12.722   1.829
 6686W        W79100   6.709   9.686  10.470
 6687W        W79101  17.747   2.823   4.305
 6688W        W79102  39.026   0.805   3.787
 6689W        W79103  11.631  40.432   4.756
 6690W        W79104  29.090  42.511  10.897
 6691W        W79105  29.431  17.711  11.081
 6692W        W79106  35.876   9.390   2.260
 6693W        W79107   7.215  22.011   0.883
 6694W        W79108  32.613  31.624   1.401
 6695W        W79109  14.302  21.086  12.883
 6696W        W79110  37.383   9.332  11.028
 6697W        W79111  43.921  11.675   2.265
 6698W        W79112  18.181  22.663   4.806
 6699W        W79113  22.072  17.267  12.866
 6700W        W79114   8.895  44.505   3.207
 6701W        W79115  30.563  25.022   4.215
 6702W        W79116  11.219  35.089  14.314
 6703W        W79117  22.530   5.786   2.779
 6704W        W79118  17.160   6.203   3.363
 6705W        W79119  39.451   6.766  12.561
 6706W        W79120  33.128   2.444   3.732
 6707W        W79121  19.555  22.581  11.946
 6708W        W79122  20.244  22.532   1.214
 6709W        W79123  32.551  44.296   4.284
 6710W        W79124  23.557   5.246  13.466
 6711W        W79125  35.588  29.000   3.632
 6712W        W79126  44.408  42.364   3.752
 6713W        W79127   0.354  37.922   3.286
 6714W        W79128  15.680  42.479  11.116
 6715W        W79129   5.700  19.055   2.866
 6716W        W79130  12.637  43.856  10.607
 6717W        W79131  21.154  44.504  10.417
 6718W        W79132  15.725  38.074   2.274
 6719W        W79133  41.298  34.612  14.785
 6720W        W79134  34.517   0.404   1.881
 6721W        W79135  29.140  16.309  13.956
 6722W        W79136  43.410  27.692  14.856
 6723W        W79137  37.504   1.439  11.089
 6724W        W79138   5.886  14.708  13.029
 6725W        W79139  32.064  13.333  12.926
 6726W        W79140  23.646  33.617  14.401
 6727W        W79141  23.063  25.025   1.348
 6728W        W79142  44.388  33.591   2.377
 6729W        W79143  35.984  39.497   2.344
 6730W        W79144   5.359  22.164  13.057
 6731W        W79145  39.888   6.859  12.400
 6732W        W79146  23.228   2.942  14.314
 6733W        W79147  18.720   0.336   9.668
 6734W        W79148   9.780  38.384   3.865
 6735W        W79149  16.813  36.401   2.710
 6736W        W79150   6.399   4.793   0.908
 6737W        W79151  24.045  38.072   2.835
 6738W        W79152   5.263   6.293   4.801
 6739W        W79153  31.058  10.658   0.893
 6740W        W79154   0.817  34.872   4.731
 6741W        W79155  26.952  17.280  11.118
 6742W        W79156  40.954  35.419  11.388
 6743W        W79157   5.371  25.101  13.928
 6744W        W79158  44.755  15.602  14.352
 6745W        W79159  30.012  13.229   0.821
 6746W        W79160  15.628   4.903  12.945
 6747W        W79161  24.084  31.914   1.388
 6748W        W79162  29.124  22.561   1.779
 6749W        W79163   3.248  30.073  11.544
 6750W        W79164  39.482   2.382  12.550
 6751W        W79165   2.272  23.117  14.869
 6752W        W79166  44.812  14.661  11.889
 6753W        W79167  39.027  22.670   0.776
 6754W        W79168  11.306  38.888  13.043
 6755W        W79169   2.817  15.741  12.919
 6756W        W79170  40.965  13.661   4.831
 6757W        W79171  17.101  30.983  11.043
 6758W        W79172  43.390  30.412   0.787
 6759W        W79173   7.324  15.716   4.648
 6760W        W79174  42.331  44.949   1.796
 6761W        W79175  16.627  27.581   1.732
 6762W        W79176  44.902   9.828  13.889
 6763W        W79177   1.761  13.176   3.800
 6764W        W79178   1.411  34.459  13.320
 6765W        W79179   8.719  15.271   0.243
 6766W        W79180   6.251  17.080  14.009
 6767W        W79181  15.623  10.846   0.749
 6768W        W79182  18.615   6.692   2.415
 6769W        W79183  12.657  34.984  12.497
 6770W        W79184  38.862  39.851   1.773
 6771W        W79185   7.265  34.009   4.221
 6772W        W79186  43.336  20.539  14.453
 6773W        W79187  37.427  29.427  11.514
 6774W        W79188  37.398  35.032   0.425
 6775W        W79189   9.237  10.283  11.931
 6776W        W79190  31.424  29.669   4.695
 6777W        W79191   0.359  10.754  14.926
 6778W        W79192  21.680  15.784  11.114
 6779W        W79193  27.518  33.977   4.218
 6780W        W79194  44.314  20.576   2.846
 6781W        W79195  16.223  38.951   3.738
 6782W        W79196  10.760   2.436   1.836
 6783W        W79197   3.864  31.931  14.312
 6784W        W79198  30.653  41.419  13.998
 6785W        W79199   3.747   2.780  10.455
 6786W        W79200  19.122  38.913  10.619
 6787W        W79201  12.291   2.801   3.273
 6788W        W79202  12.750   5.773   1.833
 6789W        W79203  31.514  25.077   2.220
 6790W        W79204  24.098  39.411  12.915
 6791W        W79205  11.778   1.742   0.395
 6792W        W79206  24.985  25.503   1.429
 6793W        W79207  20.126  42.453   3.731
 6794W        W79208  43.967  18.724   4.626
 6795W        W79209  39.462  21.620   2.673
 6796W        W79210   3.310  31.611   4.779
 6797W        W79211   1.799  36.509  14.935
 6798W        W79212   7.407  40.015   3.661
 6799W        W79213  24.494   6.264   4.299
 6800W        W79214  14.102  41.305   4.332
 6801W        W79215  42.444  20.118  13.332
 6802W        W79216   3.373  26.105   3.271
 6803W        W79217   0.766  19.661  12.535
 6804W        W79218  14.834   9.792   1.322
 6805W        W79219  41.472  19.684  11.063
 6806W        W79220   0.897  29.983  14.416
 6807W        W79221  43.821  26.487  10.074
 6808W        W79222  11.207  42.338   0.753
 6809W        W79223  33.587  41.970   1.712
 6810W        W79224  22.642  11.269  11.014
 6811W        W79225  16.126  38.487   4.748
 6812W        W79226  30.585   8.366  10.450
 6813W        W79227  30.929   6.284   5.106
 6814W        W79228  22.119   5.925  14.857
 6815W        W79229  34.999  42.790   3.359
 6816W        W79230  29.429  32.957   0.363
 6817W        W79231  43.293  42.030  14.878
 6818W        W79232  32.443   3.803   3.850
 6819W        W79233   1.790  29.098   1.283
 6820W        W79234  37.012  32.468   0.459
 6821W        W79235  27.692  25.638   3.310
 6822W        W79236  40.317  15.206  10.893
 6823W        W79237   8.397  33.441   1.353
 6824W        W79238   5.871  34.009   2.792
 6825W        W79239  28.104  44.297  11.014
 6826W        W79240   4.445   0.457  12.507
 6827W        W79241  30.459  38.936   4.351
 6828W        W79242  30.076  36.938  10.944
 6829W        W79243   1.284  24.647   0.750
 6830W        W79244  12.830   6.899  11.001
 6831W        W79245  31.031  22.203   1.396
 6832W        W79246   2.777  15.626  12.021
 6833W        W79247  13.154  36.931   1.921
 6834W        W79248  28.138  37.553   1.829
 6835W        W79249   6.727   7.670  11.609
 6836W        W79250  42.513   0.279   3.166
 6837W        W79251  19.679   4.236  13.985
 6838W        W79252  35.445  10.799   0.286
 6839W        W79253  44.907  41.813  14.516
 6840W        W79254  19.113  44.762   3.773
 6841W        W79255  19.640  21.025   2.233
 6842W        W79256  39.372  38.525   2.305
 6843W        W79257  18.585  40.341   0.958
 6844W        W79258  11.797  15.241   1.381
 6845W        W79259  25.514  43.822   0.328
 6846W        W79260  30.148   8.757   3.632
 6847W        W79261   4.361  17.717   1.326
 6848W        W79262  36.455  17.609   4.781
 6849W        W79263  18.197  29.999   3.707
 6850W        W79264  23.628   6.795  11.014
 6851W        W79265   5.690   8.891  13.876
 6852W        W79266  20.591  44.457  13.820
 6853W        W79267  27.966   5.709   4.611
 6854W        W79268  14.333  40.866   2.702
 6855W        W79269  41.327  21.160   1.801
 6856W        W79270  15.619  35.375  14.954
 6857W        W79271  30.026  41.488  11.883
 6858W        W79272   4.915  28.576   5.605
 6859W        W79273  42.397  37.473   0.338
 6860W        W79274  29.014  14.596   3.666
 6861W        W79275   4.264   2.237  12.444
 6862W        W79276  36.008  44.329   1.697
 6863W        W79277  23.114  13.114  13.853
 6864W        W79278  20.636  12.775  13.967
 6865W        W79279  44.444  30.561   3.820
 6866W        W79280   5.873  32.562  13.004
 6867W        W79281  14.650   2.349   1.760
 6868W        W79282  30.436  11.146  11.893
 6869W        W79283  30.653  28.117   2.811
 6870W        W79284   9.261   5.256  12.025
 6871W        W79285  15.639   3.314  13.368
 6872W        W79286  38.465  22.139  11.528
 6873W        W79287  42.943  15.630   1.902
 6874W        W79288  33.097  22.108   2.259
 6875W        W79289   8.331   7.688   4.171
 6876W        W79290   2.382  14.669   3.354
 6877W        W79291  32.492   7.412   4.239
 6878W        W79292  15.709  33.032  14.467
 6879W        W79293  16.171  12.742  13.059
 6880W        W79294  40.862  32.974  12.872
 6881W        W79295  19.688  22.205  11.394
 6882W        W79296  32.026  21.669  11.980
 6883W        W79297   8.806  35.421  13.530
 6884W        W79298  19.671  13.338  10.441
 6885W        W79299  28.050   6.767  12.997
 6886W        W79300  31.068  13.246  10.460
 6887W        W79301  18.774  34.385   2.738
 6888W        W79302  25.530   0.268   4.248
 6889W        W79303  41.511  21.563  10.527
 6890W        W79304   5.247  37.990   4.307
 6891W        W79305  19.581  12.212  13.420
 6892W        W79306  22.504  25.537  11.540
 6893W        W79307   1.476  44.948  11.415
 6894W        W79308  19.548  42.889  14.430
 6895W        W79309  15.094  19.066  14.327
 6896W        W79310  13.703  37.404   1.305
 6897W        W79311  40.807  21.236  10.431
 6898W        W79312  44.782  32.976  13.798
 6899W        W79313  25.009  24.559  11.401
 6900W        W79314  23.706  30.136  12.051
 6901W        W79315  40.543  10.255   0.937
 6902W        W79316  13.676  11.641   2.887
 6903W        W79317  20.590  24.539   2.734
 6904W        W79318  24.723  28.098  10.413
 6905W        W79319  23.624   8.351   1.716
 6906W        W79320  25.487  44.794  11.504
 6907W        W79321  24.113  38.497  13.364
 6908W        W79322  41.422  11.801   2.410
 6909W        W79323  39.008  21.606   1.729
 6910W        W79324  37.419  31.986  12.055
 6911W        W79325  38.047  31.107  10.637
 6912W        W79326  15.211   1.823   2.198
 6913W        W79327  24.090  38.019  11.612
 6914W        W79328  33.035  42.337   3.698
 6915W        W79329  18.558   4.342   2.822
 6916W        W79330  44.910  42.959  10.534
 6917W        W79331  27.490   3.345   3.770
 6918W        W79332   8.301  29.079  12.040
 6919W        W79333  36.461  35.568   3.699
 6920W        W79334   3.357  36.569  12.832
 6921W        W79335  11.866  12.613  14.949
 6922W        W79336   6.420  13.840  12.577
 6923W        W79337  10.781  34.092  11.533
 6924W        W79338   5.369  40.907   3.372
 6925W        W79339  44.347   2.367   1.387
 6926W        W79340  21.582   9.786  10.961
 6927W        W79341  24.054   4.295  12.836
 6928W        W79342   4.818   1.802  10.528
 6929W        W79343  37.489  20.645   2.262
 6930W        W79344   4.918  18.078  14.329
 6931W        W79345   0.475  39.918  10.903
 6932W        W79346   9.678  25.529  14.852
 6933W        W79347  43.800   1.954   0.844
 6934W        W79348  36.037  34.109   1.695
 6935W        W79349  25.077  19.540  11.981
 6936W        W79350   0.847  19.066  11.549
 6937W        W79351  29.429   3.893  11.898
 6938W        W79352  29.495  27.562  12.376
 6939W        W79353  23.725  32.526  14.867
 6940W        W79354  23.124  31.455   2.211
 6941W        W79355   7.407  12.197   4.741
 6942W        W79356  38.563   1.779  13.463
 6943W        W79357   1.446  41.521  11.867
 6944W        W79358  17.658  40.012   2.209
 6945W        W79359  34.539   4.770   2.812
 6946W        W79360  17.156  23.714  12.981
 6947W        W79361  31.565  16.618   1.360
 6948W        W79362   1.421  18.621   1.720
 6949W        W79363  24.555  33.611  13.019
 6950W        W79364  31.454  25.507  11.594
 6951W        W79365  32.989   8.735  11.424
 6952W        W79366  22.626  20.681   2.240
 6953W        W79367   3.944   0.312  10.893
 6954W        W79368  36.071  41.293   3.155
 6955W        W79369   2.324  33.433   3.372
 6956W        W79370  37.994  22.225   4.338
 6957W        W79371  13.109  19.120   5.281
 6958W        W79372  44.312  43.966   2.325
 6959W        W79373  27.607   1.853  14.386
 6960W        W79374   9.778  34.417  13.538
 6961W        W79375  26.057  22.612   3.738
 6962W        W79376  16.649   3.938   2.841
 6963W        W79377  17.284   9.351  10.995
 6964W        W79378  13.762  25.052  11.554
 6965W        W79379  34.463  27.059  14.511
 6966W        W79380  22.746   9.667   1.271
 6967W        W79381   8.180  32.443  13.056
 6968W        W79382  26.486   7.255  11.573
 6969W        W79383  29.122  44.809  11.954
 6970W        W79384   6.321  34.981  13.329
 6971W        W79385  30.110  26.204   1.278
 6972W        W79386  12.276  29.157   1.401
 6973W        W79387  25.503  39.914   4.653
 6974W        W79388  27.005   1.862  10.610
 6975W        W79389  37.012  15.113  10.531
 6976W        W79390  34.601  12.174  11.046
 6977W        W79391  33.457  28.009   5.167
 6978W        W79392   3.725  16.733   2.309
 6979W        W79393  22.108  39.386  14.496
 6980W        W79394  35.464  23.573   0.268
 6981W        W79395   6.725   2.274  13.979
 6982W        W79396  24.703   9.691  14.460
 6983W        W79397  25.095  18.214   3.186
 6984W        W79398   5.854  43.865  12.433
 6985W        W79399   5.732  39.475   0.781
 6986W        W79400  10.786  42.371  12.905
 6987W        W79401  40.907  24.590  10.543
 6988W        W79402  12.307  36.449   3.361
 6989W        W79403  15.195   3.866   3.827
 6990W        W79404   8.286  29.121   2.710
 6991W        W79405  15.591  34.565  13.802
 6992W        W79406  28.528  21.198   0.446
 6993W        W79407  44.876  24.515  14.853
 6994W        W79408   6.856  12.615   3.208
 6995W        W79409  42.448  40.479   0.272
 6996W        W79410  29.525   8.888   1.251
 6997W        W79411   8.872  40.510   1.791
 6998W        W79412   8.237  20.104  10.432
 6999W        W79413   2.907  10.243   1.775
 7000W        W79414  19.543  35.916  12.014
 7001W        W79415   5.250  26.682   5.269
 7002W        W79416   4.224  17.078  14.874
 7003W        W79417   6.359  30.057   3.783
 7004W        W79418  13.265  35.442  10.606
 7005W        W79419  33.471  20.181  14.861
 7006W        W79420  30.515  22.236  12.484
 7007W        W79421  17.680  41.951   1.296
 7008W        W79422  31.964   2.894  10.437
 7009W        W79423   8.358  34.890   1.704
 7010W        W79424  19.590  15.105  10.567
 7011W        W79425  40.510  44.869   3.327
 7012W        W79426  21.532  24.707   3.705
 7013W        W79427  43.283  20.209  13.975
 7014W        W79428  30.094  27.941   0.882
 7015W        W79429  13.343  23.503   4.248
 7016W        W79430  32.522   8.880   1.286
 7017W        W79431  20.567  16.257   2.400
 7018W        W79432  26.701  19.084   0.946
 7019W        W79433  20.202  41.309   4.114
 7020W        W79434  10.350  10.744   1.807
 7021W        W79435  35.451  40.547  14.319
 7022W        W79436  22.531  18.263   1.372
 7023W        W79437  43.412   3.375   3.363
 7024W        W79438  23.160  43.323   0.889
 7025W        W79439  31.494   1.975  13.416
 7026W        W79440   1.956  39.887  11.106
 7027W        W79441  35.010  41.801  10.541
 7028W        W79442  36.945   2.838   0.433
 7029W        W79443  34.075   6.798   3.265
 7030W        W79444  18.784  10.666   3.725
 7031W        W79445  44.771   8.191  13.795
 7032W        W79446   1.476  44.384   4.184
 7033W        W79447  31.429  39.869   1.301
 7034W        W79448  37.475   4.698  11.938
 7035W        W79449  14.333  38.845  13.399
 7036W        W79450  18.686  30.045  13.882
 7037W        W79451  18.712  39.059  11.561
 7038W        W79452   8.779  36.581   3.232
 7039W        W79453  22.995  23.044   0.754
 7040W        W79454  13.196  13.249   4.706
 7041W        W79455   0.758   5.328   1.900
 7042W        W79456   3.230  30.037   1.364
 7043W        W79457   8.260  25.634  12.984
 7044W        W79458  16.119  36.370   1.774
 7045W        W79459  22.515   3.811   1.449
 7046W        W79460  15.587   9.346  11.548
 7047W        W79461   8.755  42.380   3.765
 7048W        W79462   7.842   7.847   3.220
 7049W        W79463  36.454  36.961   3.747
 7050W        W79464   2.294  24.614  13.516
 7051W        W79465  44.956  39.354  12.049
 7052W        W79466  27.047   1.432   9.605
 7053W        W79467  27.666  10.311  14.397
 7054W        W79468  28.934  40.833  13.011
 7055W        W79469   1.774  37.050  11.971
 7056W        W79470  24.589  28.083  10.951
 7057W        W79471   3.239  39.411  10.011
 7058W        W79472  26.695   9.237   1.769
 7059W        W79473  39.383  43.947   4.660
 7060W        W79474  27.450  12.212  10.477
 7061W        W79475  33.479  24.077  10.534
 7062W        W79476  18.156  13.119   0.459
 7063W        W79477   2.466  31.094   4.269
 7064W        W79478  32.138  33.591  11.972
 7065W        W79479  18.261   1.971  11.975
 7066W        W79480  41.416  31.110   0.897
 7067W        W79481  28.040  25.612   3.742
 7068W        W79482  15.150  26.518  10.618
 7069W        W79483   2.272  37.545  14.920
 7070W        W79484  16.283  32.131   0.818
 7071W        W79485  29.449  22.730  12.832
 7072W        W79486  31.118   3.227  10.128
 7073W        W79487   9.286  21.138  10.426
 7074W        W79488  21.583  33.589  11.897
 7075W        W79489  23.200   0.339  12.377
 7076W        W79490  39.989  12.815  11.966
 7077W        W79491  28.613  11.804   1.226
 7078W        W79492   5.386  33.070  12.068
 7079W        W79493  15.803  29.636   1.715
 7080W        W79494  12.230  32.599  12.887
 7081W        W79495  38.510  18.552   4.782
 7082W        W79496  44.987   0.818   1.306
 7083W        W79497  30.908  26.043  11.061
 7084W        W79498  44.484   3.234  12.367
 7085W        W79499  41.469  29.618   1.242
 7086W        W79500  21.687  30.948  10.416
 7087W        W79501  38.372  26.471  12.426
 7088W        W79502  31.137  18.253   3.377
 7089W        W79503   0.797   0.870   5.091
 7090W        W79504   3.802  28.633   2.292
 7091W        W79505  14.829  27.143   2.235
 7092W        W79506  37.016  20.097   1.871
 7093W        W79507  40.971  41.973   2.824
 7094W        W79508   5.330  18.575   4.145
 7095W        W79509   4.902  31.100  10.631
 7096W        W79510   4.711   8.371  13.904
 7097W        W79511   0.384  18.085   4.746
 7098W        W79512   7.755   1.916   2.267
 7099W        W79513   5.412  44.914   0.741
 7100W        W79514  20.550   2.232   3.840
 7101W        W79515   9.741  32.005   3.297
 7102W        W79516  42.394  38.938   0.389
 7103W        W79517  40.412  26.590   2.367
 7104W        W79518  22.612  36.355  10.641
 7105W        W79519  10.731   6.388   4.159
 7106W        W79520  33.105  22.026   1.451
 7107W        W79521   1.404   7.242  13.872
 7108W        W79522  43.386  33.585  10.552
 7109W        W79523  38.475   2.280   3.834
 7110W        W79524  28.949   5.210  12.890
 7111W        W79525   8.319   2.765  14.278
 7112W        W79526  26.703  22.730   2.414
 7113W        W79527  25.670  16.316   0.902
 7114W        W79528  34.589  38.023   2.748
 7115W        W79529  41.830  19.668   4.674
 7116W        W79530  29.657  17.143   4.736
 7117W        W79531  15.821   8.290  13.522
 7118W        W79532  10.384  29.088  14.958
 7119W        W79533  27.167   8.733   1.280
 7120W        W79534   2.321  16.101  11.106
 7121W        W79535  39.490  36.970   4.318
 7122W        W79536  17.670  10.673  10.606
 7123W        W79537   0.855  37.371   3.761
 7124W        W79538  30.617  12.774  10.900
 7125W        W79539  42.383  16.241  12.528
 7126W        W79540  11.804  21.629  11.928
 7127W        W79541  30.488  19.569   0.443
 7128W        W79542   9.290  27.656  14.284
 7129W        W79543  19.172  38.389  14.017
 7130W        W79544  40.948  15.759   2.200
 7131W        W79545  34.565  24.114   0.351
 7132W        W79546   1.406  19.277  14.356
 7133W        W79547  35.468  31.645   3.159
 7134W        W79548  44.767  42.416  12.579
 7135W        W79549  41.986  18.202  12.074
 7136W        W79550  37.848  29.981   1.716
 7137W        W79551  41.021  32.008  13.927
 7138W        W79552  14.680  22.548   0.900
 7139W        W79553  28.107   7.373  10.643
 7140W        W79554  10.721  43.915  10.975
 7141W        W79555  35.971  29.515  10.535
 7142W        W79556  43.868  41.824   0.859
 7143W        W79557   6.743  15.820  12.852
 7144W        W79558  15.578  32.004   3.156
 7145W        W79559   4.943  17.735   0.774
 7146W        W79560   4.423  18.664  11.123
 7147W        W79561   1.789   7.733  11.410
 7148W        W79562  25.972   4.710   4.722
 7149W        W79563   1.771  44.404   0.749
 7150W        W79564  27.023  35.927   1.765
 7151W        W79565  30.963   3.357  12.977
 7152W        W79566  34.103  33.509  11.473
 7153W        W79567  38.453  23.647   2.242
 7154W        W79568  42.805   0.278  11.465
 7155W        W79569  19.231  28.460  13.484
 7156W        W79570  16.112  24.619  14.922
 7157W        W79571  11.798   3.217   1.915
 7158W        W79572  32.527  42.964   2.853
 7159W        W79573  15.745  11.191  12.480
 7160W        W79574  32.115  41.330   2.717
 7161W        W79575  17.230   7.877  12.826
 7162W        W79576   2.724  41.880   3.150
 7163W        W79577   0.790   3.738   2.720
 7164W        W79578  23.491  25.088  13.524
 7165W        W79579  16.581   2.317  14.820
 7166W        W79580  22.658  37.504   1.342
 7167W        W79581   2.953  41.354  12.502
 7168W        W79582  20.077  11.372   4.244
 7169W        W79583  40.503  17.130  10.636
 7170W        W79584   7.394   5.888   0.423
 7171W        W79585  29.949  13.774  10.900
 7172W        W79586   3.240   1.907  12.059
 7173W        W79587  14.100  27.159   1.771
 7174W        W79588  44.954  16.267   3.368
 7175W        W79589  13.674  15.579   3.718
 7176W        W79590  27.952   0.900  13.822
 7177W        W79591   5.243  10.163   4.244
 7178W        W79592  36.031  27.599  14.881
 7179W        W79593  33.379  37.983   1.705
 7180W        W79594   5.864  13.732  12.350
 7181W        W79595  30.516  26.623  11.598
 7182W        W79596  24.588   4.922   2.186
 7183W        W79597  22.030  19.213   4.265
 7184W        W79598  31.025  33.563   4.265
 7185W        W79599   7.905  10.278   2.831
 7186W        W79600  44.277  41.025  13.064
 7187W        W79601  11.264  12.800   3.357
 7188W        W79602  12.758   6.318   5.196
 7189W        W79603  31.924  16.247  12.482
 7190W        W79604  33.550  44.425  13.868
 7191W        W79605   6.387  33.058   2.728
 7192W        W79606   5.430   2.333   2.786
 7193W        W79607  31.083  41.364   3.347
 7194W        W79608  44.995  24.643  13.848
 7195W        W79609   8.341   9.861   4.679
 7196W        W79610  37.082  41.888  10.941
 7197W        W79611   1.736   2.816   3.176
 7198W        W79612  12.254  35.959  12.885
 7199W        W79613  12.621   5.832  10.468
 7200W        W79614  32.527  11.790   0.374
 7201W        W79615   8.700  40.316   4.289
 7202W        W79616   3.332   9.727   3.208
 7203W        W79617  13.632  26.159   3.695
 7204W        W79618   1.888   7.754   4.737
 7205W        W79619  18.610  32.125  14.951
 7206W        W79620  14.160  25.103   2.681
 7207W        W79621  35.874  27.690  12.536
 7208W        W79622   6.777  19.202  10.900
 7209W        W79623  33.921  31.092   0.925
 7210W        W79624  34.921   8.801  13.909
 7211W        W79625  44.814   9.196   2.411
 7212W        W79626  22.544   5.346  14.819
 7213W        W79627   1.450  40.437   2.804
 7214W        W79628  27.446   9.227  13.950
 7215W        W79629  31.127  30.522   2.798
 7216W        W79630  24.574   5.765   2.832
 7217W        W79631  12.266  43.970   0.884
 7218W        W79632   3.752   5.749  14.467
 7219W        W79633  18.189   4.378  11.420
 7220W        W79634  13.810  20.652  11.554
 7221W        W79635  20.574  39.549   1.301
 7222W        W79636  28.031  12.139   0.851
 7223W        W79637  40.340   6.875  14.443
 7224W        W79638  27.657  29.520   1.835
 7225W        W79639  29.942  34.602   4.333
 7226W        W79640  13.767   6.295   4.188
 7227W        W79641   1.937  37.412   3.288
 7228W        W79642  12.156  21.659   3.669
 7229W        W79643  38.354  23.225   2.761
 7230W        W79644  16.201  41.946   1.333
 7231W        W79645  26.554  31.997   2.380
 7232W        W79646  14.107   4.209  11.901
 7233W        W79647  25.118   5.399  13.508
 7234W        W79648  25.692   2.403   1.827
 7235W        W79649  42.473  23.160  12.491
 7236W        W79650  42.778   6.196   1.786
 7237W        W79651  43.484  43.004  13.466
 7238W        W79652  37.452  41.510   2.804
 7239W        W79653  41.408  20.657   4.160
 7240W        W79654   2.942  20.708  14.823
 7241W        W79655  32.543   7.381  14.907
 7242W        W79656  23.126  38.388   4.791
 7243W        W79657   2.904  41.385  13.027
 7244W        W79658  15.603   3.737  13.992
 7245W        W79659   4.326  37.931  10.482
 7246W        W79660  44.849  40.973   1.859
 7247W        W79661  11.782  27.480   3.758
 7248W        W79662  24.597  21.751   2.190
 7249W        W79663  40.808  31.992   0.903
 7250W        W79664  22.608  33.516   5.314
 7251W        W79665   3.270  13.218  14.980
 7252W        W79666   4.782   6.216   0.892
 7253W        W79667  27.087  36.945  14.808
 7254W        W79668  38.329  38.062   3.700
 7255W        W79669  16.112  13.243  13.485
 7256W        W79670  29.529   4.336  14.410
 7257W        W79671  38.994  21.569   2.765
 7258W        W79672   4.744  32.491  11.451
 7259W        W79673   1.476  30.524   3.681
 7260W        W79674  38.475   9.846  10.512
 7261W        W79675  16.077  11.822  14.915
 7262W        W79676  29.133   6.394   0.907
 7263W        W79677  16.261  19.126  14.507
 7264W        W79678  15.154  21.165   4.716
 7265W        W79679  29.019  12.134   4.191
 7266W        W79680  31.121  39.993   2.823
 7267W        W79681   1.844   6.705   2.219
 7268W        W79682  14.257  42.837  14.362
 7269W        W79683  18.188  43.801   1.737
 7270W        W79684  37.418  22.015   0.357
 7271W        W79685   6.900  25.095  14.291
 7272W        W79686  13.165  33.917   2.800
 7273W        W79687   5.862  33.024  12.053
 7274W        W79688  32.426  16.766  12.004
 7275W        W79689  43.783  24.549  14.766
 7276W        W79690  18.255  39.524   0.368
 7277W        W79691  35.420  36.384   2.860
 7278W        W79692   3.799  18.726  11.442
 7279W        W79693  38.009  32.451   2.186
 7280W        W79694  33.009   7.268  10.422
 7281W        W79695   2.804   3.842  11.065
 7282W        W79696  11.712   2.374   2.854
 7283W        W79697  32.567  20.060   0.805
 7284W        W79698  36.989  39.318  13.372
 7285W        W79699  26.457   9.380   3.779
 7286W        W79700  14.109   5.245   1.723
 7287W        W79701  26.519  31.509   3.209
 7288W        W79702  31.524  35.103   2.881
 7289W        W79703  14.817  14.639  10.475
 7290W        W79704  28.669  15.149  13.054
 7291W        W79705  42.980  29.996   1.726
 7292W        W79706  36.988  33.054   1.424
 7293W        W79707  14.288  37.401  11.571
 7294W        W79708  15.148  34.115  13.416
 7295W        W79709   5.785  36.091   4.626
 7296W        W79710  37.050  35.867   9.580
 7297W        W79711  23.690   8.676  12.874
 7298W        W79712   1.820  44.329   2.845
 7299W        W79713  27.450   0.973   3.151
 7300W        W79714  31.969  14.768   1.777
 7301W        W79715   4.855  11.236  13.027
 7302W        W79716  19.705  43.850   4.243
 7303W        W79717  31.068  23.993   1.712
 7304W        W79718  42.030   0.969   2.198
 7305W        W79719  10.706  43.011   3.755
 7306W        W79720  16.194  28.672  13.055
 7307W        W79721  34.035  31.973   4.259
 7308W        W79722   0.801  11.303  11.442
 7309W        W79723  19.708  39.346  12.083
 7310W        W79724  39.889  10.315  11.065
 7311W        W79725  31.122  10.337   0.292
 7312W        W79726  25.168  35.006   2.264
 7313W        W79727  37.011   9.708   1.271
 7314W        W79728  19.703  34.457   4.219
 7315W        W79729   0.339  41.421  10.540
 7316W        W79730   6.702   0.343  10.455
 7317W        W79731   7.416   0.412  12.540
 7318W        W79732  37.345  27.131   1.334
 7319W        W79733  37.968  18.767   3.189
 7320W        W79734  31.937  25.502  11.091
 7321W        W79735  43.366  17.630  12.374
 7322W        W79736  15.143  37.908  14.430
 7323W        W79737   5.932  35.972  13.978
 7324W        W79738  13.320  11.719   2.825
 7325W        W79739  22.734  21.257   1.881
 7326W        W79740  17.211   0.372   3.704
 7327W        W79741  13.822  29.107  12.531
 7328W        W79742  26.996  20.662   2.662
 7329W        W79743  40.828  30.953   0.755
 7330W        W79744  25.082  30.980  13.848
 7331W        W79745   0.974   0.773   0.958
 7332W        W79746  10.633  22.675  10.434
 7333W        W79747  35.992   5.226   2.699
 7334W        W79748  35.071  22.014  14.833
 7335W        W79749  10.327  25.197  12.925
 7336W        W79750  38.056  34.939  11.052
 7337W        W79751   5.827  11.739   1.412
 7338W        W79752  38.938  39.460  11.422
 7339W        W79753  42.005   9.281   4.768
 7340W        W79754  14.102  13.236  14.992
 7341W        W79755  31.908  40.459   3.237
 7342W        W79756  44.817  24.040  12.469
 7343W        W79757   2.358  10.166  11.964
 7344W        W79758  40.861  44.923   4.831
 7345W        W79759  24.096  26.192   2.861
 7346W        W79760  37.396  20.676  13.475
 7347W        W79761  38.343  23.709   0.813
 7348W        W79762   3.764  40.366  14.278
 7349W        W79763  26.956  25.161  14.436
 7350W        W79764  10.811  14.778  14.983
 7351W        W79765  16.779  10.839  11.604
 7352W        W79766   6.765  43.865   2.805
 7353W        W79767  26.189   2.812   2.337
 7354W        W79768  16.583  17.209  13.425
 7355W        W79769  20.768  40.340   4.137
 7356W        W79770   5.195  36.400  11.963
 7357W        W79771  30.156  40.332   1.396
 7358W        W79772  39.508  21.115  10.448
 7359W        W79773  24.223   1.415  11.071
 7360W        W79774  38.076  30.628   2.662
 7361W        W79775   0.438   5.388  12.937
 7362W        W79776  27.612  33.542  12.835
 7363W        W79777  32.130  42.876  10.938
 7364W        W79778   8.746  40.515   0.352
 7365W        W79779   7.340  13.244   0.953
 7366W        W79780  29.051  36.934  13.354
 7367W        W79781  31.532  18.785   0.456
 7368W        W79782   8.706  31.019   3.197
 7369W        W79783  44.413  39.409  12.045
 7370W        W79784  38.935  31.638  14.947
 7371W        W79785   9.154   1.478   1.353
 7372W        W79786  14.114  34.511   2.732
 7373W        W79787  29.079  19.056  13.360
 7374W        W79788  29.518  28.035  12.363
 7375W        W79789  26.164  20.623  13.458
 7376W        W79790  20.229  16.643  11.010
 7377W        W79791  36.547  19.731   4.625
 7378W        W79792   3.743  40.948  11.997
 7379W        W79793  11.705   8.890   1.352
 7380W        W79794  39.930  23.125   4.139
 7381W        W79795  17.276  11.207  13.846
 7382W        W79796  25.050   7.348  10.438
 7383W        W79797  31.120   2.338  13.792
 7384W        W79798  25.487   1.863  10.117
 7385W        W79799  22.580  36.543  13.875
 7386W        W79800  44.500   2.733  11.577
 7387W        W79801  42.933   7.677  11.090
 7388W        W79802  11.209   6.763  12.525
 7389W        W79803  31.011  26.040  13.372
 7390W        W79804  19.753   7.896   1.926
 7391W        W79805  16.605  19.092   2.712
 7392W        W79806  37.033   8.359   2.845
 7393W        W79807  14.663   9.664   9.624
 7394W        W79808   2.753  39.481   3.799
 7395W        W79809  13.665  10.772  14.493
 7396W        W79810   4.772  28.041   0.766
 7397W        W79811   3.916  41.928   1.768
 7398W        W79812  39.537  31.021   2.739
 7399W        W79813   7.343  10.670   4.344
 7400W        W79814   0.782  23.090  10.552
 7401W        W79815  36.383  13.149  14.410
 7402W        W79816  23.511  24.211  14.395
 7403W        W79817  13.612  16.698  11.098
 7404W        W79818  30.135  39.451   0.296
 7405W        W79819  39.470  34.571   3.382
 7406W        W79820   0.865  34.429  14.383
 7407W        W79821   1.821  44.809  11.045
 7408W        W79822  24.558   5.738  14.304
 7409W        W79823  22.235   9.184   0.732
 7410W        W79824  13.215  36.358  12.905
 7411W        W79825  24.201   0.790  12.059
 7412W        W79826  24.533   8.362  11.056
 7413W        W79827  34.920  28.446   1.293
 7414W        W79828  18.261  32.091  13.943
 7415W        W79829  20.633  34.416  11.984
 7416W        W79830  41.402  44.971  14.787
 7417W        W79831  40.329  40.861   4.119
 7418W        W79832   1.349  25.992  11.082
 7419W        W79833  34.522  27.455   1.727
 7420W        W79834  10.265   9.342  12.980
 7421W        W79835  23.047  31.959   4.626
 7422W        W79836  15.656   9.835  10.005
 7423W        W79837  28.483  40.030   4.784
 7424W        W79838  38.416  22.222  10.899
 7425W        W79839  15.585  11.353   4.128
 7426W        W79840  31.903  22.632  10.036
 7427W        W79841   8.315  18.224   0.946
 7428W        W79842   1.470  29.140  14.983
 7429W        W79843  21.616  14.767   4.640
 7430W        W79844  40.023  44.829  10.541
 7431W        W79845  10.370  11.735   3.777
 7432W        W79846  36.949  14.730  11.063
 7433W        W79847  15.670  16.613   3.384
 7434W        W79848   9.283  42.518  13.033
 7435W        W79849  10.207   9.729  12.052
 7436W        W79850  38.003  37.399   0.726
 7437W        W79851  44.898  24.512   3.285
 7438W        W79852  33.062  40.433  13.965
 7439W        W79853  27.663  41.827  14.771
 7440W        W79854  36.509  35.467   2.412
 7441W        W79855  34.009  40.801   0.929
 7442W        W79856  38.338   7.348   2.243
 7443W        W79857  22.072   7.690   4.240
 7444W        W79858  32.593  14.160   0.316
 7445W        W79859  37.385  19.189  13.057
 7446W        W79860  13.715  13.808   4.228
 7447W        W79861   9.849  37.999  11.127
 7448W        W79862  39.851  39.467   3.747
 7449W        W79863  37.865  30.021  13.060
 7450W        W79864  28.661   2.471  13.402
 7451W        W79865  19.066  42.322   4.717
 7452W        W79866  36.556  19.604   0.890
 7453W        W79867   8.327  13.669   4.826
 7454W        W79868  44.384  22.562   0.349
 7455W        W79869   8.381  35.531  11.490
 7456W        W79870  38.543  30.494  12.425
 7457W        W79871   3.232   4.822  13.873
 7458W        W79872  20.082   7.769   0.947
 7459W        W79873  33.443  17.121   5.280
 7460W        W79874  29.448   9.643   0.250
 7461W        W79875  35.860  14.606   3.721
 7462W        W79876  43.445  36.878  13.971
 7463W        W79877   6.694  22.622  11.072
 7464W        W79878  44.768  44.502   4.644
 7465W        W79879  32.980   6.398   4.735
 7466W        W79880   4.819  19.144  13.373
 7467W        W79881   2.900   7.284  13.942
 7468W        W79882  11.775   9.747   0.832
 7469W        W79883   2.427  21.105  14.318
 7470W        W79884  28.962  36.860  13.036
 7471W        W79885  24.062   2.389   4.614
 7472W        W79886  17.653  21.041  14.028
 7473W        W79887   0.853  22.544   0.351
 7474W        W79888  43.320  13.175  14.911
 7475W        W79889   3.401  33.407   4.314
 7476W        W79890   1.791   7.255  13.858
 7477W        W79891   5.709  26.973   0.333
 7478W        W79892  11.282  11.868   1.776
 7479W        W79893  33.947   0.479   0.895
 7480W        W79894  37.921   3.430  13.515
 7481W        W79895  43.499  30.642   4.659
 7482W        W79896   2.822   2.434   2.276
 7483W        W79897   3.307  11.211   0.790
 7484W        W79898  27.595  16.219   2.679
 7485W        W79899  26.606   0.393   0.828
 7486W        W79900   5.702  23.148   2.411
 7487W        W79901  36.926   7.835   3.363
 7488W        W79902  21.018  16.181   3.765
 7489W        W79903  25.468  37.545   2.830
 7490W        W79904  34.576  19.689   1.415
 7491W        W79905   1.251  41.909   2.813
 7492W        W79906  36.559  14.244  12.852
 7493W        W79907   8.887  35.372  11.890
 7494W        W79908  30.538   3.722  14.410
 7495W        W79909  15.170  23.114   2.216
 7496W        W79910   6.906  30.086  12.495
 7497W        W79911   1.352   2.408   3.755
 7498W        W79912   1.239  41.328  14.297
 7499W        W79913   3.302  39.924   0.831
 7500W        W79914  13.657  17.127  11.984
 7501W        W79915  16.232  11.677  13.919
 7502W        W79916   7.177  42.921   0.834
 7503W        W79917  17.593  28.129  11.507
 7504W        W79918  17.668  33.468  13.465
 7505W        W79919  32.901   6.825  10.435
 7506W        W79920  40.337  14.696   0.269
 7507W        W79921  28.570  17.234   0.468
 7508W        W79922  11.862  13.677  13.540
 7509W        W79923  34.368  41.877  13.402
 7510W        W79924  34.894  40.852  10.565
 7511W        W79925  40.540  32.514  12.376
 7512W        W79926  28.177  38.901  12.545
 7513W        W79927  16.772  17.190   1.861
 7514W        W79928   0.747  36.896   3.148
 7515W        W79929  24.635   9.871  11.444
 7516W        W79930  38.411  10.153  14.881
 7517W        W79931   8.216  42.015   0.324
 7518W        W79932  44.763   7.198  12.899
 7519W        W79933  32.409   3.820  12.061
 7520W        W79934  17.182  43.783   2.416
 7521W        W79935  41.931  42.447   2.845
 7522W        W79936  34.481  35.002   0.308
 7523W        W79937  20.625  22.543  12.545
 7524W        W79938  15.681  33.913  11.536
 7525W        W79939  24.663  36.969  10.982
 7526W        W79940  11.256  28.445  11.122
 7527W        W79941  44.324  30.643  10.527
 7528W        W79942   1.458  28.478  12.917
 7529W        W79943  41.389  28.068   4.252
 7530W        W79944   1.289  19.720   3.862
 7531W        W79945  37.432  44.938   0.799
 7532W        W79946  26.013  18.658   4.287
 7533W        W79947  38.875  30.991   0.414
 7534W        W79948  23.047  24.086   2.249
 7535W        W79949   0.968  42.815  10.914
 7536W        W79950   2.290  40.040   0.922
 7537W        W79951  13.251  44.376   3.210
 7538W        W79952   8.282  31.997   3.779
 7539W        W79953   7.798  18.668  14.423
 7540W        W79954  15.680  20.765  12.347
 7541W        W79955  15.686  33.504  14.441
 7542W        W79956   7.756  37.919   4.267
 7543W        W79957  17.284  41.042  12.831
 7544W        W79958  20.058  29.631   3.336
 7545W        W79959  16.592  33.059   0.737
 7546W        W79960  24.110  31.079   0.746
 7547W        W79961  30.112  24.537  10.486
 7548W        W79962  28.549   2.406   2.188
 7549W        W79963  38.530  28.482  12.384
 7550W        W79964   9.287  14.639  11.080
 7551W        W79965  43.826   9.796  12.345
 7552W        W79966  26.037  35.494  12.096
 7553W        W79967  24.533  27.484   1.764
 7554W        W79968  26.166  22.223   2.400
 7555W        W79969  40.471   3.923   2.413
 7556W        W79970   8.234  43.413  14.017
 7557W        W79971   8.288  44.993   4.337
 7558W        W79972  41.848  22.698   1.286
 7559W        W79973  19.192  37.475  14.398
 7560W        W79974   1.285   6.386  13.999
 7561W        W79975  15.227   0.403   3.714
 7562W        W79976  42.843  43.278   1.268
 7563W        W79977  14.774   5.868  12.490
 7564W        W79978  29.669   2.415   2.707
 7565W        W79979   0.438  19.650   0.334
 7566W        W79980  44.309   2.931  10.501
 7567W        W79981  27.629  24.511  14.793
 7568W        W79982  19.213   6.774   3.661
 7569W        W79983  12.238   6.804   0.458
 7570W        W79984  38.431  22.046  13.002
 7571W        W79985  29.508   3.813   2.799
 7572W        W79986   7.278  22.507   4.747
 7573W        W79987  14.097   2.891   4.763
 7574W        W79988  41.498  15.782   1.261
 7575W        W79989   8.332  10.365  12.435
 7576W        W79990  32.433  24.536   4.336
 7577W        W79991  28.619   2.448   1.258
 7578W        W79992  16.801  44.770  12.078
 7579W        W79993   2.895   6.266   3.797
 7580W        W79994  38.408  12.778   3.655
 7581W        W79995  21.728  13.822   0.297
 7582W        W79996  29.068  15.089   1.341
 7583W        W79997   9.725   1.243  13.793
 7584W        W79998  36.868  24.711   2.664
 7585W        W79999  40.890  17.151  11.504
 7586W        W80000  24.050  17.592  13.346
 7587W        W80001   9.317  44.916   4.758
 7588W        W80002  30.991  44.397  13.869
 7589W        W80003   8.700  44.411   2.768
 7590W        W80004  39.389  21.572  12.568
 7591W        W80005  37.494  15.205  14.492
 7592W        W80006  25.526  12.851  13.374
 7593W        W80007  28.618  40.515  13.344
 7594W        W80008  36.868  13.159  14.762
 7595W        W80009  27.048  10.725   3.666
 7596W        W80010  17.298  24.718  10.433
 7597W        W80011  15.659   4.248  12.371
 7598W        W80012   9.340  27.990   9.931
 7599W        W80013  24.489  41.833   4.727
 7600W        W80014  28.487   9.723  13.049
 7601W        W80015  12.234  15.634   0.806
 7602W        W80016  43.949  35.894  12.505
 7603W        W80017  34.615   3.910   2.672
 7604W        W80018   1.332  20.617   0.905
 7605W        W80019  37.076   9.192   3.146
 7606W        W80020  28.467  12.119  13.328
 7607W        W80021  18.260  25.143   4.200
 7608W        W80022  20.597  22.700   4.327
 7609W        W80023   2.429  42.355   2.804
 7610W        W80024   0.476  28.973  13.944
 7611W        W80025   4.872   5.255  11.977
 7612W        W80026  22.606  29.098   3.770
 7613W        W80027  29.516  23.196   4.811
 7614W        W80028  22.741  16.610  13.369
 7615W        W80029  26.208  37.970   0.856
 7616W        W80030  10.281   6.259  11.430
 7617W        W80031  31.150   1.946   0.463
 7618W        W80032  35.076  28.456  11.395
 7619W        W80033   1.311  21.586   3.212
 7620W        W80034  29.633  33.921  12.026
 7621W        W80035  10.212  28.931   0.914
 7622W        W80036  19.212  41.516   2.238
 7623W        W80037  44.373  43.998   3.369
 7624W        W80038  15.107   8.781   1.295
 7625W        W80039   6.314  17.602  11.537
 7626W        W80040   6.808  33.007  11.555
 7627W        W80041  27.655  11.351  12.554
 7628W        W80042  21.087  25.626  11.002
 7629W        W80043  10.349  36.592  14.366
 7630W        W80044   2.455  10.216   2.317
 7631W        W80045  35.018  37.406  12.579
 7632W        W80046  22.234   9.380  14.503
 7633W        W80047  29.130   3.932  13.874
 7634W        W80048  44.363  22.079  10.908
 7635W        W80049  21.067  37.527  12.003
 7636W        W80050  30.496  30.988   4.198
 7637W        W80051  40.321  38.855   4.158
 7638W        W80052  34.471  30.070   3.300
 7639W        W80053  35.863  19.779   4.837
 7640W        W80054  14.184   9.703  11.407
 7641W        W80055  23.609  10.147   1.833
 7642W        W80056  21.741   2.775  14.432
 7643W        W80057  21.618  14.825  13.978
 7644W        W80058  42.931   0.801   0.269
 7645W        W80059  30.120  13.305  14.795
 7646W        W80060  34.978   5.309   3.821
 7647W        W80061  20.130   5.216   2.184
 7648W        W80062  17.730  16.585   3.170
 7649W        W80063  16.126   2.919  14.988
 7650W        W80064  19.061  19.547   1.806
 7651W        W80065  25.025  33.874   2.389
 7652W        W80066  35.488   4.210   0.752
 7653W        W80067  34.891   7.700  12.862
 7654W        W80068  39.849  28.024  12.075
 7655W        W80069  19.278  36.414   2.339
 7656W        W80070  38.376   0.980   1.259
 7657W        W80071  41.468  35.407   3.757
 7658W        W80072  36.363  37.476  12.365
 7659W        W80073  29.045  25.159   1.912
 7660W        W80074   0.431  27.540  11.491
 7661W        W80075  40.317  26.035  11.023
 7662W        W80076  25.065  20.688   0.924
 7663W        W80077  17.154  33.444   5.122
 7664W        W80078   3.843  35.854   2.891
 7665W        W80079  17.700  25.163   0.832
 7666W        W80080  23.510  13.259   2.765
 7667W        W80081  23.102  26.202  10.474
 7668W        W80082  24.010  38.966  10.111
 7669W        W80083  22.513  16.233  12.078
 7670W        W80084  41.352  34.575   3.295
 7671W        W80085  18.603   8.299   4.709
 7672W        W80086  12.173   1.808  13.437
 7673W        W80087  21.736  13.690  10.572
 7674W        W80088  39.333  30.428   0.242
 7675W        W80089  33.551  34.409   0.809
 7676W        W80090   7.278  20.704   2.828
 7677W        W80091  13.697  43.019   2.402
 7678W        W80092   2.422  27.155   4.171
 7679W        W80093  32.989  22.106  13.548
 7680W        W80094  15.789   3.785  14.785
 7681W        W80095  11.843  43.931  11.583
 7682W        W80096  44.260  10.353   1.359
 7683W        W80097  11.140  19.751  11.000
 7684W        W80098  27.635   7.247   2.361
 7685W        W80099  23.534  33.060   0.359
 7686W        W80100  34.409  22.157   0.298
 7687W        W80101  21.185  31.552   4.733
 7688W        W80102   7.765  42.404  14.985
 7689W        W80103  34.491  16.632  13.464
 7690W        W80104  12.360  30.620  14.787
 7691W        W80105  24.704  19.682   4.244
 7692W        W80106   8.657   1.341   3.317
 7693W        W80107  22.015  43.996   0.735
 7694W        W80108  41.365  27.650   0.755
 7695W        W80109  18.577   1.803  11.914
 7696W        W80110  20.546  44.346   0.247
 7697W        W80111  16.261  15.087  14.387
 7698W        W80112  25.498  33.921  13.352
 7699W        W80113   5.349  40.855  13.328
 7700W        W80114  39.438  24.994   5.100
 7701W        W80115  39.318   1.849  13.322
 7702W        W80116  22.735  25.156  11.103
 7703W        W80117  33.516  31.643   1.288
 7704W        W80118   7.886   1.789  10.561
 7705W        W80119  15.164  29.560  13.990
 7706W        W80120  26.697   6.681  12.564
 7707W        W80121  28.109   7.197   4.738
 7708W        W80122  36.903   0.469  11.034
 7709W        W80123  36.483  29.443  12.488
 7710W        W80124  15.273  43.344  14.410
 7711W        W80125  38.935  40.951   3.748
 7712W        W80126  36.548  41.971   4.678
 7713W        W80127  29.134  19.752   0.895
 7714W        W80128  13.274  32.418  14.949
 7715W        W80129  43.417   8.833  10.967
 7716W        W80130  12.134  27.957  10.898
 7717W        W80131   8.746  34.451   2.761
 7718W        W80132  30.992  21.656   1.782
 7719W        W80133  41.995   2.876   3.379
 7720W        W80134  37.529   1.297  11.596
 7721W        W80135  42.422  21.632  12.369
 7722W        W80136  28.472  15.688   2.734
 7723W        W80137   6.775  38.970   0.790
 7724W        W80138  32.978  17.714  12.559
 7725W        W80139  44.780  41.514  13.510
 7726W        W80140   7.709  23.721  14.350
 7727W        W80141  14.778  43.989   0.826
 7728W        W80142   5.317  10.328   0.271
 7729W        W80143  33.965  20.733  12.002
 7730W        W80144  25.623  12.705   2.752
 7731W        W80145  39.932  33.597  12.457
 7732W        W80146  36.386   5.364   1.870
 7733W        W80147   6.406  13.828  12.077
 7734W        W80148  33.035   5.296  11.092
 7735W        W80149   8.690   7.180   4.222
 7736W        W80150  28.591   7.721   4.601
 7737W        W80151   0.792  41.398   0.463
 7738W        W80152  24.562  41.318  11.071
 7739W        W80153  12.191  38.072  13.943
 7740W        W80154   7.887  36.396   2.307
 7741W        W80155   5.252  23.229  10.553
 7742W        W80156  44.397  29.972   1.354
 7743W        W80157  19.156  11.235  14.335
 7744W        W80158  23.221   3.805  11.003
 7745W        W80159  19.665   7.808   1.355
 7746W        W80160  38.962   4.818  11.878
 7747W        W80161  30.969  19.191   0.307
 7748W        W80162  17.634  18.225   2.277
 7749W        W80163  29.111  33.464  12.971
 7750W        W80164   6.718  41.823  13.880
 7751W        W80165  28.576   2.757   1.224
 7752W        W80166   8.803  18.714  11.118
 7753W        W80167  34.503  34.890   3.751
 7754W        W80168  39.386  29.545   2.234
 7755W        W80169  24.605  22.577  13.479
 7756W        W80170  40.929  10.702   4.296
 7757W        W80171  36.866  25.999  10.602
 7758W        W80172  30.996  42.859  10.082
 7759W        W80173  39.425  33.592   4.654
 7760W        W80174   7.715  36.462   0.790
 7761W        W80175   0.399  16.687   3.648
 7762W        W80176  18.181  16.699  13.336
 7763W        W80177   6.290  20.258  11.866
 7764W        W80178  38.006  32.027  11.489
 7765W        W80179  28.060   6.311  13.950
 7766W        W80180  35.401  28.500   2.349
 7767W        W80181  16.119  27.163   1.267
 7768W        W80182  39.923   1.404  11.057
 7769W        W80183  10.314  14.637   0.731
 7770W        W80184  14.685  26.636  13.472
 7771W        W80185  29.481   7.330   2.894
 7772W        W80186  22.230   1.867  11.566
 7773W        W80187  13.233  15.591  11.939
 7774W        W80188  29.096  24.172  13.837
 7775W        W80189   6.336  19.245   2.715
 7776W        W80190  33.436  20.654   2.709
 7777W        W80191  21.048   4.205   0.297
 7778W        W80192  34.031   6.905   0.404
 7779W        W80193   5.398   7.318  14.460
 7780W        W80194  41.907   4.440  10.966
 7781W        W80195  22.150  22.106   0.414
 7782W        W80196   0.926  20.097   2.375
 7783W        W80197  23.666  25.686  12.548
 7784W        W80198  27.448  25.068   4.240
 7785W        W80199  27.557  17.648  11.994
 7786W        W80200   9.644  24.509  13.357
 7787W        W80201  12.853  24.510  13.372
 7788W        W80202  39.901   4.450  12.004
 7789W        W80203  44.799  31.008   3.234
 7790W        W80204  23.092  17.280  13.994
 7791W        W80205  36.915  38.037   0.799
 7792W        W80206  18.741   0.391   5.775
 7793W        W80207   4.314  44.458   2.840
 7794W        W80208  26.610  24.576  11.464
 7795W        W80209  22.713  20.079   2.698
 7796W        W80210   2.916  20.574   4.243
 7797W        W80211  12.823  37.969   4.640
 7798W        W80212   6.339  26.626  12.543
 7799W        W80213   4.887  14.721   3.863
 7800W        W80214  23.662  15.779   5.085
 7801W        W80215  15.744  12.741   4.766
 7802W        W80216  18.584   1.741   5.303
 7803W        W80217  39.052   2.767  14.910
 7804W        W80218  37.571  30.003   4.756
 7805W        W80219  20.721   8.790  14.017
 7806W        W80220  12.151   6.743   3.205
 7807W        W80221   2.379  43.864   2.205
 7808W        W80222  16.609  35.998   0.428
 7809W        W80223  15.290  29.064  10.640
 7810W        W80224  30.042  20.656   1.336
 7811W        W80225  31.426   5.218   2.223
 7812W        W80226  34.549  16.236   0.452
 7813W        W80227  41.302  36.400  14.414
 7814W        W80228   6.306  27.986   1.269
 7815W        W80229  25.056  15.706   3.197
 7816W        W80230  24.709   0.357  13.954
 7817W        W80231  19.260  32.538  11.104
 7818W        W80232  38.823   5.298   2.238
 7819W        W80233  37.865  34.063  14.991
 7820W        W80234  42.976  16.667  11.030
 7821W        W80235  13.208  24.638   0.421
 7822W        W80236   1.263  20.078   3.772
 7823W        W80237  36.897  27.565  10.923
 7824W        W80238  35.429  44.300  10.563
 7825W        W80239  35.071  39.351   1.743
 7826W        W80240  42.446  12.333  13.489
 7827W        W80241  42.913   5.703   0.890
 7828W        W80242   3.249   1.826   1.440
 7829W        W80243  25.495   7.769  12.867
 7830W        W80244  40.503  10.732  14.818
 7831W        W80245  12.137  12.705   0.830
 7832W        W80246   1.238  34.959   4.237
 7833W        W80247  37.375  12.209  13.324
 7834W        W80248  34.379  43.825   3.307
 7835W        W80249   2.281   8.167  14.390
 7836W        W80250  37.924  33.964  10.997
 7837W        W80251  41.915  34.867   0.397
 7838W        W80252  34.497  23.660   2.804
 7839W        W80253   5.284   5.908  13.857
 7840W        W80254  14.820  37.464   4.203
 7841W        W80255   9.803  31.901  14.011
 7842W        W80256  40.929  17.277  13.368
 7843W        W80257  31.013  15.264  12.495
 7844W        W80258  25.998  35.053  12.359
 7845W        W80259  27.632  36.936   1.792
 7846W        W80260  43.425   7.711  13.008
 7847W        W80261   4.208  12.297   2.694
 7848W        W80262   9.320  34.978  11.889
 7849W        W80263   2.308  21.677  14.957
 7850W        W80264  38.505   6.745  11.074
 7851W        W80265  36.014  17.564  11.388
 7852W        W80266  10.733  36.019  12.399
 7853W        W80267   5.358   7.878   0.960
 7854W        W80268   7.736  14.692  11.530
 7855W        W80269  43.012  34.537   3.747
 7856W        W80270  41.888   5.383  11.957
 7857W        W80271   6.229  19.544   3.752
 7858W        W80272  31.147  29.090   3.695
 7859W        W80273  39.440  37.363  12.545
 7860W        W80274  28.563  37.415   0.895
 7861W        W80275  42.954  26.533   2.841
 7862W        W80276   2.247   0.886  11.868
 7863W        W80277  17.689  37.961   4.806
 7864W        W80278  27.568   3.888   0.912
 7865W        W80279  25.661  14.184   2.214
 7866W        W80280  33.020  13.748  12.516
 7867W        W80281   8.312   5.298  13.515
 7868W        W80282  40.850   5.375  14.288
 7869W        W80283   5.381  18.688  10.528
 7870W        W80284   3.394   5.810  14.314
 7871W        W80285  10.297  12.665  11.964
 7872W        W80286  11.709  24.546   3.847
 7873W        W80287  12.748  42.999   3.191
 7874W        W80288  29.922  33.002   4.832
 7875W        W80289  28.933  13.157  12.533
 7876W        W80290  22.080  32.076   4.220
 7877W        W80291  42.522  31.991   0.295
 7878W        W80292   9.310  41.440   3.222
 7879W        W80293  32.431   4.808   1.432
 7880W        W80294  29.069  16.191  10.460
 7881W        W80295   1.386  18.054  13.925
 7882W        W80296  32.430  34.953   4.337
 7883W        W80297  14.811  44.784   4.133
 7884W        W80298   4.920  33.490   5.236
 7885W        W80299  10.335  35.573   1.842
 7886W        W80300  21.169  10.192   3.286
 7887W        W80301  10.742  14.148   2.874
 7888W        W80302  12.664  28.499   0.376
 7889W        W80303   4.376  23.652   2.386
 7890W        W80304   2.916  14.776   1.398
 7891W        W80305  30.039  35.082   3.385
 7892W        W80306   4.309  32.956  11.884
 7893W        W80307   1.455  34.922   0.965
 7894W        W80308   4.267  24.057  13.320
 7895W        W80309   0.377  11.332  10.457
 7896W        W80310  40.008  44.290  11.967
 7897W        W80311  22.156   2.735   1.398
 7898W        W80312  36.536  44.442  10.497
 7899W        W80313  20.714  37.080  12.520
 7900W        W80314  33.499  42.527   4.781
 7901W        W80315  36.388  32.459   3.832
 7902W        W80316  10.651  44.909   2.320
 7903W        W80317   0.377  33.561   0.841
 7904W        W80318  11.657  13.308  13.333
 7905W        W80319  12.615  23.689   1.394
 7906W        W80320  37.426   1.749   2.839
 7907W        W80321   6.215  29.631  11.578
 7908W        W80322  16.137  33.110   4.725
 7909W        W80323  39.056  22.122   5.243
 7910W        W80324   6.871  35.580   4.748
 7911W        W80325  16.116   1.969  12.459
 7912W        W80326  41.526   2.463   2.774
 7913W        W80327   1.904   1.426  12.977
 7914W        W80328  15.729  11.845  12.500
 7915W        W80329  15.265   9.182  14.305
 7916W        W80330  13.332  33.537   3.286
 7917W        W80331  36.845   1.266  13.481
 7918W        W80332  17.649  28.078  10.560
 7919W        W80333   6.794  17.773   0.917
 7920W        W80334  32.938  12.735  13.343
 7921W        W80335  15.221  17.089   3.380
 7922W        W80336   5.303  39.949  12.870
 7923W        W80337  22.042  39.816  11.482
 7924W        W80338  15.130  32.625   0.741
 7925W        W80339  32.468  24.625  13.995
 7926W        W80340  10.768   2.286   0.933
 7927W        W80341   5.264  38.075  10.547
 7928W        W80342  12.654   6.300  10.521
 7929W        W80343  31.557  15.158  11.068
 7930W        W80344  13.735  21.103  10.412
 7931W        W80345  15.202  32.617   1.812
 7932W        W80346  34.914  18.132  14.010
 7933W        W80347  24.071  12.123   2.718
 7934W        W80348  16.643  29.936   1.765
 7935W        W80349  42.386  24.639   3.751
 7936W        W80350   1.359   5.436  11.984
 7937W        W80351  43.924  15.782  14.310
 7938W        W80352  14.703  35.873   4.664
 7939W        W80353  37.858  32.426  14.763
 7940W        W80354  30.631   4.416  14.843
 7941W        W80355  37.862  31.061   0.247
 7942W        W80356  17.614  32.469  10.520
 7943W        W80357  15.633  26.613  11.117
 7944W        W80358  40.343  13.803   1.877
 7945W        W80359  14.639  24.612   1.707
 7946W        W80360   8.811   0.472   2.668
 7947W        W80361  27.680  30.517   0.896
 7948W        W80362  40.489  29.456   0.850
 7949W        W80363  39.421  16.298   0.739
 7950W        W80364  40.853  28.083   1.407
 7951W        W80365  23.235  21.074  14.280
 7952W        W80366  44.326   9.268  10.591
 7953W        W80367   1.944   0.392  13.386
 7954W        W80368  30.016   2.427  13.995
 7955W        W80369  33.557  14.653  13.852
 7956W        W80370   5.715  10.664   4.308
 7957W        W80371   6.268   6.813   0.480
 7958W        W80372   2.300   5.913   4.139
 7959W        W80373   2.794  27.979  12.927
 7960W        W80374  31.617  19.614  13.898
 7961W        W80375  43.332  37.340   2.207
 7962W        W80376   0.423   2.264   4.182
 7963W        W80377  16.214  18.231   3.292
 7964W        W80378  35.875  27.167  12.425
 7965W        W80379  34.957  10.312  14.905
 7966W        W80380  24.170  43.841  13.452
 7967W        W80381  31.012  15.199  11.014
 7968W        W80382   8.690   8.228   3.267
 7969W        W80383  11.767  15.219  10.536
 7970W        W80384   6.766   8.290  10.513
 7971W        W80385  28.579  15.712  12.015
 7972W        W80386   0.435   7.896   3.272
 7973W        W80387  31.032  12.787  13.405
 7974W        W80388  13.727  27.494  12.069
 7975W        W80389  14.704   5.830   2.221
 7976W        W80390  33.451  27.618   3.776
 7977W        W80391  28.587  10.841   2.882
 7978W        W80392   9.246  40.332   0.301
 7979W        W80393  19.682  11.154   2.679
 7980W        W80394   5.251  22.093  12.420
 7981W        W80395   5.704  15.771   1.365
 7982W        W80396  44.339  44.843   1.702
 7983W        W80397  36.366  40.920   0.731
 7984W        W80398  35.049  18.202  11.398
 7985W        W80399  10.141  22.523   0.361
 7986W        W80400  24.023   8.787   0.300
 7987W        W80401  12.305  19.136  14.373
 7988W        W80402  26.177  30.506  14.777
 7989W        W80403  11.793   1.404   4.227
 7990W        W80404  21.100  43.409  13.834
 7991W        W80405  33.392  15.632   5.280
 7992W        W80406   8.254  24.019   4.237
 7993W        W80407   8.833  34.386   1.418
 7994W        W80408  32.575   7.831   4.821
 7995W        W80409  28.621  39.809  13.791
 7996W        W80410   9.660  43.803   3.276
 7997W        W80411  41.986   9.715  12.923
 7998W        W80412   7.792   8.281   1.346
 7999W        W80413  40.473  40.964  11.484
 8000W        W80414  24.553  23.540   2.179
 8001W        W80415  24.054  42.306  13.487
 8002W        W80416   0.756  25.527  14.317
 8003W        W80417  18.604   6.805  10.551
 8004W        W80418  15.640  43.411  11.447
 8005W        W80419  13.663  39.497  14.441
 8006W        W80420  24.499  15.624   5.246
 8007W        W80421  33.914  26.505   0.350
 8008W        W80422  42.962  28.534   4.599
 8009W        W80423  22.674  21.754  11.056
 8010W        W80424  37.338  23.152   2.831
 8011W        W80425   8.163  24.562  11.036
 8012W        W80426  24.212  38.394  14.376
 8013W        W80427   5.346  33.397  13.807
 8014W        W80428  30.924  31.581   3.819
 8015W        W80429   0.266  11.780   4.641
 8016W        W80430  14.728  13.235   0.805
 8017W        W80431  24.078  16.756   1.278
 8018W        W80432  17.076  13.732   2.356
 8019W        W80433  28.019  13.723  14.470
 8020W        W80434  25.218  17.261  14.890
 8021W        W80435  18.213  22.547   4.243
 8022W        W80436  41.810  12.682  10.608
 8023W        W80437  26.699   0.419   3.255
 8024W        W80438  30.641  10.194   0.894
 8025W        W80439  33.991   0.888  11.940
 8026W        W80440  17.101  18.650  11.443
 8027W        W80441  38.334  32.062  13.365
 8028W        W80442   3.345   1.736   3.697
 8029W        W80443  12.723  42.445  13.064
 8030W        W80444   7.411  28.541   3.213
 8031W        W80445   1.867   5.321   3.341
 8032W        W80446  34.436  20.120   4.617
 8033W        W80447  28.659  22.656  11.415
 8034W        W80448  34.585  32.996  11.902
 8035W        W80449  26.614  29.596   1.895
 8036W        W80450  30.627  17.277   2.248
 8037W        W80451  11.772  36.470   0.408
 8038W        W80452  24.209  30.582   3.302
 8039W        W80453   3.323  22.526  10.625
 8040W        W80454   1.837   5.419   1.828
 8041W        W80455   5.831  33.580   2.367
 8042W        W80456  11.708   0.925   0.314
 8043W        W80457  32.526  10.292   3.162
 8044W        W80458  18.722  34.926   4.788
 8045W        W80459   2.941  36.379  14.288
 8046W        W80460  22.523  27.060  10.970
 8047W        W80461  24.006   1.440   1.924
 8048W        W80462  10.821  23.046   2.679
 8049W        W80463  31.901  38.400   3.307
 8050W        W80464   6.279  39.378  12.418
 8051W        W80465   6.223  23.042   2.751
 8052W        W80466  43.454  11.128  11.864
 8053W        W80467  30.622  11.668   3.767
 8054W        W80468  24.658  31.992   3.698
 8055W        W80469   2.745  17.681  12.024
 8056W        W80470  10.799   1.794   0.484
 8057W        W80471   5.263  10.138  11.121
 8058W        W80472  23.498  33.917  10.920
 8059W        W80473   6.260  12.744   4.829
 8060W        W80474  12.799  11.313  13.547
 8061W        W80475  14.255   5.825  13.359
 8062W        W80476   1.944  13.780  13.007
 8063W        W80477  23.116   9.355   4.132
 8064W        W80478  32.986   7.214  12.986
 8065W        W80479  19.146  44.332  14.002
 8066W        W80480  12.160  12.298   3.822
 8067W        W80481  26.541  21.585   0.360
 8068W        W80482  34.462  11.136  12.384
 8069W        W80483   3.353  22.627  14.481
 8070W        W80484  26.013   2.949   4.147
 8071W        W80485  20.235  30.910   2.302
 8072W        W80486   5.872   0.926   2.224
 8073W        W80487   0.953   1.404   4.325
 8074W        W80488  12.162  44.876  11.919
 8075W        W80489  14.793  32.431  10.419
 8076W        W80490   0.357  31.932   2.800
 8077W        W80491   6.267   8.790   5.158
 8078W        W80492   1.774  27.648  12.963
 8079W        W80493  32.094   3.226  14.024
 8080W        W80494  38.903   2.239   0.434
 8081W        W80495   0.912  31.018   3.836
 8082W        W80496  25.675  44.385   4.247
 8083W        W80497  35.041  29.950  10.508
 8084W        W80498  18.135  21.548   0.909
 8085W        W80499  18.581  14.203  13.853
 8086W        W80500  27.112  35.941   3.209
 8087W        W80501   4.903  42.997  10.607
 8088W        W80502   6.203  43.830  11.587
 8089W        W80503  21.137  22.156  13.842
 8090W        W80504  17.705   7.266  12.526
 8091W        W80505   4.721  43.302   1.725
 8092W        W80506  26.042  32.563  13.507
 8093W        W80507  30.127  28.939   0.894
 8094W        W80508  39.393  16.268  14.009
 8095W        W80509  19.671   0.984  11.499
 8096W        W80510  14.329  11.359  10.923
 8097W        W80511   6.288   2.725   1.235
 8098W        W80512  44.921  28.537   0.935
 8099W        W80513  10.843   9.257   4.244
 8100W        W80514  13.190  26.675  11.034
 8101W        W80515  20.215  26.631   0.343
 8102W        W80516   5.715  44.356  12.377
 8103W        W80517   8.719  12.712  11.086
 8104W        W80518  28.657  35.437   0.353
 8105W        W80519  29.547  26.613  11.984
 8106W        W80520  34.926   4.428  14.390
 8107W        W80521  38.839  43.877  11.398
 8108W        W80522   2.271  29.519  10.469
 8109W        W80523  19.680  26.647   2.188
 8110W        W80524   0.896  31.106   1.887
 8111W        W80525   7.675  25.567  14.797
 8112W        W80526   4.371  10.381  12.522
 8113W        W80527  36.847   2.365  14.394
 8114W        W80528  32.412  36.969  11.431
 8115W        W80529   6.802  26.561   2.704
 8116W        W80530  16.758  43.806  12.410
 8117W        W80531  41.342  25.081  11.044
 8118W        W80532  15.135   1.752  14.305
 8119W        W80533  14.262   9.173   3.358
 8120W        W80534  24.982  18.666   9.931
 8121W        W80535  23.146  36.059   4.614
 8122W        W80536  41.345   7.391  14.443
 8123W        W80537   7.895  41.875  11.979
 8124W        W80538  25.974  28.181   0.415
 8125W        W80539   7.847  42.439   1.305
 8126W        W80540  17.300   6.796   3.682
 8127W        W80541   9.688  12.254  11.460
 8128W        W80542  35.082  36.061   0.266
 8129W        W80543  36.886  32.531  13.470
 8130W        W80544  29.581  19.175  12.004
 8131W        W80545  36.593  36.036  10.064
 8132W        W80546  34.945   4.330  12.361
 8133W        W80547  11.798   3.913   1.801
 8134W        W80548   6.913  29.566   3.647
 8135W        W80549   4.854  27.018   0.921
 8136W        W80550   8.261   6.683   4.235
 8137W        W80551  40.945  41.514   1.451
 8138W        W80552  39.889  14.159   1.899
 8139W        W80553  41.489  27.639   1.247
 8140W        W80554  21.555  11.708  12.034
 8141W        W80555  27.982  35.107   3.756
 8142W        W80556  21.552  11.742   4.126
 8143W        W80557  20.746   7.339   1.220
 8144W        W80558   7.283   3.884  11.441
 8145W        W80559   6.308  32.891  11.095
 8146W        W80560  40.828   4.934  11.429
 8147W        W80561  19.203  24.196   1.920
 8148W        W80562  35.597  23.723  13.444
 8149W        W80563  32.090  19.090   1.364
 8150W        W80564   7.307  30.152  12.039
 8151W        W80565  40.976  27.672   1.916
 8152W        W80566  33.606  38.383  10.642
 8153W        W80567  18.229   5.932   1.704
 8154W        W80568   1.417  33.889  13.834
 8155W        W80569  18.105   3.906  11.587
 8156W        W80570  43.301  30.440   9.933
 8157W        W80571  25.041   8.774   3.149
 8158W        W80572  16.591  11.819   2.278
 8159W        W80573  22.206  33.908   1.289
 8160W        W80574  34.452  31.105  10.938
 8161W        W80575  40.907  13.603   2.333
 8162W        W80576  23.630  29.479  14.480
 8163W        W80577  26.963  11.355   2.254
 8164W        W80578  31.530  15.119  11.491
 8165W        W80579  23.490  41.305   4.130
 8166W        W80580   8.676  40.406  10.521
 8167W        W80581  41.417  39.529   4.715
 8168W        W80582  38.453  19.644   0.900
 8169W        W80583  16.156  18.147   2.329
 8170W        W80584  33.000  21.559   5.249
 8171W        W80585   9.178   0.347  13.468
 8172W        W80586  42.320  11.706   3.830
 8173W        W80587  42.875  12.663  14.470
 8174W        W80588  11.172  29.162  12.345
 8175W        W80589  19.707  44.799   2.758
 8176W        W80590  36.450   3.815  12.423
 8177W        W80591  14.597   4.741   3.761
 8178W        W80592   8.741  24.581  13.311
 8179W        W80593   2.896  44.867  10.913
 8180W        W80594  27.527  22.132   2.231
 8181W        W80595  19.780  21.154   0.269
 8182W        W80596  44.449   4.736   2.303
 8183W        W80597  25.493  25.125  12.016
 8184W        W80598   1.944  17.638  14.934
 8185W        W80599  36.589  12.615   3.305
 8186W        W80600  40.040   0.849  10.610
 8187W        W80601  41.408   8.172  11.089
 8188W        W80602  36.414   0.265  10.460
 8189W        W80603   1.811  32.457  14.476
 8190W        W80604   0.472   6.853   3.342
 8191W        W80605  33.106  25.215   0.374
 8192W        W80606  21.530   1.905  14.852
 8193W        W80607  41.966  12.225  11.523
 8194W        W80608  19.109  30.579  11.057
 8195W        W80609   3.242  43.939   4.653
 8196W        W80610  13.802  26.192  13.547
 8197W        W80611   2.922  43.894   4.205
 8198W        W80612   9.172  31.495   0.957
 8199W        W80613  32.123   3.364   3.258
 8200W        W80614  20.233  38.516  12.823
 8201W        W80615   7.299   8.228  11.950
 8202W        W80616  18.059   2.455  14.321
 8203W        W80617  32.447   3.392  12.083
 8204W        W80618   0.901  37.352  10.550
 8205W        W80619  21.516  30.475  13.064
 8206W        W80620  34.558  16.653  14.343
 8207W        W80621  36.964  33.036  10.912
 8208W        W80622  31.484  10.769  13.986
 8209W        W80623  17.287   0.255   2.900
 8210W        W80624   0.442  22.215  13.064
 8211W        W80625  33.585  44.802  14.505
 8212W        W80626  15.273  27.165  10.462
 8213W        W80627  43.835   6.265  14.910
 8214W        W80628  24.681  24.162  14.921
 8215W        W80629  33.618   6.402   3.787
 8216W        W80630   3.227  36.534   1.881
 8217W        W80631  20.136   9.379  13.515
 8218W        W80632  26.184  12.621   0.883
 8219W        W80633  23.179   4.340   2.266
 8220W        W80634  30.420  29.580  14.490
 8221W        W80635  11.362  41.462   0.967
 8222W        W80636  22.621   2.812  10.563
 8223W        W80637  44.429  35.977   0.881
 8224W        W80638   6.735  18.704  11.394
 8225W        W80639   7.843  23.006   3.809
 8226W        W80640  22.711  14.206  12.385
 8227W        W80641  30.992   0.932  13.361
 8228W        W80642  12.228  20.143  11.122
 8229W        W80643   6.371  43.448  10.934
 8230W        W80644  31.408  40.457  11.598
 8231W        W80645  10.351  26.038  11.982
 8232W        W80646   2.967  38.498   1.416
 8233W        W80647  21.649   3.391  14.282
 8234W        W80648  43.479  15.696  13.545
 8235W        W80649  21.047  32.904  12.422
 8236W        W80650  34.102  28.493  14.845
 8237W        W80651  15.188  15.673  11.490
 8238W        W80652  30.086   0.746  10.572
 8239W        W80653  12.849  34.419   2.892
 8240W        W80654  35.599  26.563   0.749
 8241W        W80655  34.951  43.397  14.989
 8242W        W80656  35.522  30.908  14.959
 8243W        W80657   5.769   9.187   4.674
 8244W        W80658  31.598  38.413  14.906
 8245W        W80659  19.040   6.798   1.835
 8246W        W80660   5.757   3.737   3.301
 8247W        W80661   6.885  32.447  11.411
 8248W        W80662  33.999  40.362   0.258
 8249W        W80663  17.799  29.093   4.803
 8250W        W80664  22.162  40.482   2.879
 8251W        W80665  14.261   6.187   0.792
 8252W        W80666  16.136   4.442   1.905
 8253W        W80667  25.967  24.989   0.868
 8254W        W80668   3.716  24.582   1.233
 8255W        W80669  21.652  13.611   2.262
 8256W        W80670  20.076  31.601  13.351
 8257W        W80671   8.754  33.425   5.275
 8258W        W80672  31.029  12.692  13.837
 8259W        W80673  29.651  39.537   3.217
 8260W        W80674  18.676  12.613  14.880
 8261W        W80675  35.016  40.506  13.547
 8262W        W80676  18.212   7.846   3.735
 8263W        W80677  30.530  26.092   3.201
 8264W        W80678  30.561   4.899   4.681
 8265W        W80679  16.144  12.805  12.470
 8266W        W80680   9.211  17.743   0.422
 8267W        W80681  35.482  25.183   1.714
 8268W        W80682  29.505  11.643  12.847
 8269W        W80683  29.135  13.814   4.270
 8270W        W80684   3.950  26.603  12.553
 8271W        W80685   1.732  29.670  11.476
 8272W        W80686  44.301   4.924   4.753
 8273W        W80687  19.725  44.294   1.398
 8274W        W80688   0.873  30.126  12.861
 8275W        W80689  43.892  26.199  10.966
 8276W        W80690  19.060   8.740   3.719
 8277W        W80691  24.622  36.996  12.375
 8278W        W80692  27.946  30.616   5.126
 8279W        W80693  35.579  42.875   1.428
 8280W        W80694  36.879  23.556   2.761
 8281W        W80695   7.901  41.431   3.329
 8282W        W80696  39.839  23.066  14.994
 8283W        W80697  11.211  31.091   2.355
 8284W        W80698  38.906   3.442   2.328
 8285W        W80699   8.769  12.686   4.657
 8286W        W80700  11.247  41.806  12.981
 8287W        W80701  37.933  21.171  14.862
 8288W        W80702   1.310  37.376   3.381
 8289W        W80703  21.641  37.987  12.401
 8290W        W80704   8.775  16.780   4.834
 8291W        W80705  35.588  19.165   1.817
 8292W        W80706  14.096   5.761  10.639
 8293W        W80707   9.235   9.297  14.456
 8294W        W80708   3.833  33.541   2.693
 8295W        W80709  33.497  33.505   4.705
 8296W        W80710  37.392  10.350  14.488
 8297W        W80711  11.351  17.112  12.909
 8298W        W80712  14.231  21.672  14.848
 8299W        W80713  24.200  30.606  14.762
 8300W        W80714  34.503  31.602  12.842
 8301W        W80715  44.443  14.289  10.580
 8302W        W80716  24.226   8.165  14.457
 8303W        W80717  40.494  25.149   1.269
 8304W        W80718  28.525  40.400   1.215
 8305W        W80719  42.524  14.761   2.812
 8306W        W80720  29.122  28.493  12.398
 8307W        W80721  20.203  34.424   4.298
 8308W        W80722  17.746  13.655   3.715
 8309W        W80723  14.255  10.844  13.940
 8310W        W80724  26.579  32.400  11.872
 8311W        W80725   9.187  11.685   3.799
 8312W        W80726  21.185   7.305   0.960
 8313W        W80727  42.912  40.397  14.871
 8314W        W80728  17.228  30.649   1.776
 8315W        W80729  23.054  40.422  14.479
 8316W        W80730   9.649  26.964  10.631
 8317W        W80731   2.926  35.034  11.403
 8318W        W80732  22.108   9.163  12.554
 8319W        W80733   4.760   2.270   5.128
 8320W        W80734  29.581  10.306   1.876
 8321W        W80735   4.749  33.936   2.862
 8322W        W80736  12.765  27.563   0.448
 8323W        W80737  17.736   3.903   3.831
 8324W        W80738   9.277  42.343   3.678
 8325W        W80739  14.803  17.150  13.915
 8326W        W80740  10.823  21.684   0.820
 8327W        W80741  32.551  43.856  13.828
 8328W        W80742   4.843  19.652  12.896
 8329W        W80743  31.460  38.355  11.371
 8330W        W80744   0.323  11.149  14.879
 8331W        W80745  31.152  17.103   2.691
 8332W        W80746   7.836  13.311  12.047
 8333W        W80747   2.368  25.684  12.556
 8334W        W80748  44.962  16.076  13.526
 8335W        W80749  30.436  16.646   3.708
 8336W        W80750  13.132  39.922  11.608
 8337W        W80751  32.002   9.809   3.296
 8338W        W80752  39.964  42.406  13.023
 8339W        W80753  17.168  30.473   3.302
 8340W        W80754  27.048  31.424   4.288
 8341W        W80755  27.554   5.364  11.443
 8342W        W80756  26.641  38.025   2.215
 8343W        W80757  12.612  36.395   1.903
 8344W        W80758  38.884   5.844   2.213
 8345W        W80759  24.033  30.986  10.521
 8346W        W80760  43.415  25.111   4.327
 8347W        W80761  37.048  24.086   2.760
 8348W        W80762  10.652   5.817   0.759
 8349W        W80763  42.921  13.115   1.802
 8350W        W80764  21.724  31.950   3.722
 8351W        W80765  24.130  15.794  14.776
 8352W        W80766   8.785  20.255  14.934
 8353W        W80767  12.777   8.788   1.747
 8354W        W80768   9.212  44.296  11.969
 8355W        W80769  40.456   8.814  13.370
 8356W        W80770  29.168  21.676   2.751
 8357W        W80771  25.514  37.387  10.894
 8358W        W80772  34.463  19.569  11.096
 8359W        W80773  30.040  30.627  14.980
 8360W        W80774  18.167  35.031   3.710
 8361W        W80775  12.209  14.338   3.659
 8362W        W80776  44.978  20.271  12.959
 8363W        W80777  24.683   0.285   5.251
 8364W        W80778  38.989   8.350  12.464
 8365W        W80779  39.365  42.800   3.868
 8366W        W80780  33.423  31.510  10.959
 8367W        W80781  14.741  25.088   3.372
 8368W        W80782  32.605  32.099  14.014
 8369W        W80783   1.428   4.372   3.668
 8370W        W80784   0.903   6.788   1.388
 8371W        W80785  21.715  13.615   4.129
 8372W        W80786  36.862   8.369  12.406
 8373W        W80787  21.212  24.496  13.856
 8374W        W80788   8.398  34.369   3.835
 8375W        W80789  19.165  24.526   1.386
 8376W        W80790  34.579  41.982   4.757
 8377W        W80791  26.967  42.337   1.905
 8378W        W80792   4.398  12.711  12.514
 8379W        W80793  24.659  37.571  14.811
 8380W        W80794  38.960  42.309  11.071
 8381W        W80795  29.974  19.639  12.027
 8382W        W80796   6.387   1.754  12.479
 8383W        W80797  32.981  16.632  11.942
 8384W        W80798  17.797  41.354   0.341
 8385W        W80799   3.856  18.194  13.046
 8386W        W80800  31.580  43.477   2.341
 8387W        W80801  25.489   0.823   2.742
 8388W        W80802  30.092  12.741   1.820
 8389W        W80803  24.603   9.865  13.968
 8390W        W80804  17.788  11.354   1.438
 8391W        W80805  32.571  37.460   1.774
 8392W        W80806  17.211   0.420  12.550
 8393W        W80807  10.257   3.942   0.871
 8394W        W80808  19.587  25.671   2.357
 8395W        W80809  29.535   7.364   1.935
 8396W        W80810  16.136  32.096   0.480
 8397W        W80811  43.870  12.224   3.731
 8398W        W80812  32.545  19.777   0.774
 8399W        W80813  27.018  28.033   2.348
 8400W        W80814  13.802  24.556   3.650
 8401W        W80815   9.191  44.999   3.725
 8402W        W80816  40.513   2.911  11.430
 8403W        W80817   6.686  24.211  12.063
 8404W        W80818   2.941   9.200  12.855
 8405W        W80819  30.143   6.878   1.371
 8406W        W80820  36.536  24.211  13.322
 8407W        W80821  38.068  35.383  11.071
 8408W        W80822   8.355  17.601  11.520
 8409W        W80823  19.554  36.502   3.849
 8410W        W80824  33.979  41.322  12.084
 8411W        W80825  41.882  29.426  12.008
 8412W        W80826  38.968  33.081   4.809
 8413W        W80827  23.656  19.267  13.933
 8414W        W80828  18.789  28.948  11.496
 8415W        W80829  16.701  21.511  11.929
 8416W        W80830   4.764  12.336   2.305
 8417W        W80831   3.371  33.429  12.437
 8418W        W80832   7.351  28.044  12.046
 8419W        W80833  42.286  38.981   3.719
 8420W        W80834  17.800  39.944   1.370
 8421W        W80835  22.175  37.536   1.695
 8422W        W80836  34.570  41.803  12.842
 8423W        W80837   6.747   1.289   2.801
 8424W        W80838  23.104  16.798   5.194
 8425W        W80839  36.991  26.683   1.373
 8426W        W80840  28.049  20.186  11.972
 8427W        W80841  22.638  34.485   2.310
 8428W        W80842   0.443   3.291   4.619
 8429W        W80843  26.485  16.194   3.378
 8430W        W80844  23.111  37.006   2.263
 8431W        W80845  25.574   1.426  13.479
 8432W        W80846  20.581  34.408  11.567
 8433W        W80847  18.716  23.143   1.303
 8434W        W80848  26.550   0.816   4.675
 8435W        W80849   0.873  20.144  10.592
 8436W        W80850  31.954  41.881  10.449
 8437W        W80851   4.339   6.743   0.916
 8438W        W80852  27.514  28.513  13.430
 8439W        W80853   9.252  13.351   0.863
 8440W        W80854  16.310  34.448   0.381
 8441W        W80855  42.458   6.855  13.342
 8442W        W80856   4.239  31.515   0.743
 8443W        W80857  36.915  24.717   2.278
 8444W        W80858  36.572  32.064  14.017
 8445W        W80859  23.564  30.059   3.181
 8446W        W80860  33.926  16.616  14.371
 8447W        W80861  13.622  30.919  11.529
 8448W        W80862  30.113  17.652  14.321
 8449W        W80863  37.556  28.620  13.443
 8450W        W80864  23.649  28.170   1.373
 8451W        W80865  21.021  37.023   0.245
 8452W        W80866  26.511  10.873  12.431
 8453W        W80867  18.206  21.515   2.399
 8454W        W80868  40.050  39.528   0.335
 8455W        W80869  30.572  17.573   0.368
 8456W        W80870   5.423  10.235  10.065
 8457W        W80871  22.740  37.071   1.782
 8458W        W80872  26.048  39.865  14.762
 8459W        W80873  35.516  39.460  12.562
 8460W        W80874  39.447   7.686   3.675
 8461W        W80875   8.817  39.957  14.005
 8462W        W80876  11.770  28.448   0.790
 8463W        W80877  35.939   7.344  11.466
 8464W        W80878  33.542  18.601   2.284
 8465W        W80879  29.656  44.448   0.809
 8466W        W80880   4.390  42.025  14.852
 8467W        W80881  40.492  13.240   2.229
 8468W        W80882  41.501  15.168   0.427
 8469W        W80883   3.215   3.840   0.807
 8470W        W80884   1.909  26.668   2.241
 8471W        W80885  32.925  23.122  12.561
 8472W        W80886  23.703   4.243  14.446
 8473W        W80887  10.371  20.243  11.544
 8474W        W80888  11.264  28.518   2.666
 8475W        W80889   7.811  37.926   3.855
 8476W        W80890   1.395  37.019   2.892
 8477W        W80891  41.014  20.579  12.937
 8478W        W80892  15.194  25.554   0.948
 8479W        W80893  16.205  19.276   3.274
 8480W        W80894  41.789  32.535  13.814
 8481W        W80895   1.344  27.952  12.018
 8482W        W80896   1.460   2.472  12.986
 8483W        W80897   1.940  21.158  11.480
 8484W        W80898  41.911  39.864   4.124
 8485W        W80899  30.930   8.861  10.019
 8486W        W80900  15.176  31.118  10.628
 8487W        W80901  12.840  36.963   1.383
 8488W        W80902  20.247  44.906   5.707
 8489W        W80903   6.737  20.095   0.250
 8490W        W80904  37.406   8.776  14.775
 8491W        W80905  24.718   6.742   1.786
 8492W        W80906   5.260  28.442  11.442
 8493W        W80907   8.692  25.971   1.325
 8494W        W80908  32.050  11.309  12.908
 8495W        W80909   3.736   0.431   0.834
 8496W        W80910  16.134   3.382   3.151
 8497W        W80911  25.472  28.596  12.515
 8498W        W80912  15.151  12.738  10.642
 8499W        W80913  13.280  42.836   4.598
 8500W        W80914   3.917  19.754   4.225
 8501W        W80915  27.943  28.160  13.927
 8502W        W80916  37.969   8.717   3.359
 8503W        W80917  32.425   2.833   0.268
 8504W        W80918  18.693   5.752  13.040
 8505W        W80919  27.084  11.288   4.687
 8506W        W80920   0.967   4.894   1.387
 8507W        W80921  40.314  28.978   3.365
 8508W        W80922   1.323  33.068  14.008
 8509W        W80923   1.873  11.661  14.813
 8510W        W80924  23.147  13.735  11.900
 8511W        W80925  39.048   3.404  10.532
 8512W        W80926  20.652  11.137  10.424
 8513W        W80927  28.658   6.857   4.781
 8514W        W80928  19.724  39.331   2.870
 8515W        W80929  24.004  40.814   0.255
 8516W        W80930  23.720  29.124   4.737
 8517W        W80931  26.611  42.954   1.870
 8518W        W80932  33.077  21.668   9.495
 8519W        W80933   3.902  19.205   4.664
 8520W        W80934   1.789   8.732   3.771
 8521W        W80935  19.100  25.102   0.920
 8522W        W80936  28.480  32.435  12.921
 8523W        W80937  15.142  17.732   1.821
 8524W        W80938   8.754  25.576  12.461
 8525W        W80939  37.842   1.917  14.026
 8526W        W80940  35.577  42.819  12.972
 8527W        W80941  19.267  22.712  14.941
 8528W        W80942  25.046  23.611  10.496
 8529W        W80943   1.393  27.168   0.758
 8530W        W80944  35.466  24.546   1.766
 8531W        W80945  25.654  16.625   1.931
 8532W        W80946  21.108  34.430  10.024
 8533W        W80947   1.893  44.346   5.240
 8534W        W80948  30.075  31.544  12.069
 8535W        W80949  10.669  34.109   1.702
 8536W        W80950  15.196   4.857   3.238
 8537W        W80951  23.666   5.810   1.898
 8538W        W80952  11.789  29.592   4.735
 8539W        W80953  36.057  10.760   3.739
 8540W        W80954  13.201  26.066  14.416
 8541W        W80955  27.524  25.984   1.313
 8542W        W80956  39.923  29.639  12.059
 8543W        W80957  25.219  34.022  11.919
 8544W        W80958  20.112  26.025   1.309
 8545W        W80959  31.646  25.577   4.678
 8546W        W80960  40.464  21.078  11.082
 8547W        W80961  25.187  28.997   0.741
 8548W        W80962  17.176  30.415   0.847
 8549W        W80963  13.313  39.318  13.967
 8550W        W80964   0.347  24.589   4.312
 8551W        W80965  12.244  34.513  12.020
 8552W        W80966  12.657  25.587  12.836
 8553W        W80967  41.789   8.213   3.210
 8554W        W80968  19.238   7.336   1.872
 8555W        W80969  13.710  15.222  11.435
 8556W        W80970  34.091  44.423   0.343
 8557W        W80971  11.849  42.975   4.762
 8558W        W80972   4.271  21.249  12.826
 8559W        W80973  19.575  29.518  14.853
 8560W        W80974  23.106  12.652  14.797
 8561W        W80975  16.181  41.482  11.450
 8562W        W80976   7.720  28.174  11.611
 8563W        W80977  28.553  35.003  12.475
 8564W        W80978   3.369  38.913  10.510
 8565W        W80979  39.438  31.929  14.967
 8566W        W80980   8.356  16.247  13.964
 8567W        W80981  29.650  33.619  13.829
 8568W        W80982  31.404   0.915   0.310
 8569W        W80983  10.812  26.633  10.580
 8570W        W80984  20.040  15.743  13.394
 8571W        W80985  24.649  30.101   2.285
 8572W        W80986  23.208  12.768  11.005
 8573W        W80987   1.474  12.655  11.976
 8574W        W80988   4.771  29.485  14.773
 8575W        W80989  33.912  26.586  12.974
 8576W        W80990  40.001  17.134  11.918
 8577W        W80991  41.479  19.262  14.357
 8578W        W80992  25.040  36.439  10.594
 8579W        W80993  43.013  27.658  13.890
 8580W        W80994  23.992  15.766   1.216
 8581W        W80995  43.914   3.854  10.596
 8582W        W80996  24.051  15.684  14.017
 8583W        W80997   5.202  16.719   2.796
 8584W        W80998  12.211  36.932  12.921
 8585W        W80999  13.178   8.745  14.852
 8586W        W81000   3.242  32.511  12.398
 8587W        W81001  44.993  32.619  13.825
 8588W        W81002  10.174   2.847  14.000
 8589W        W81003  24.012  18.153  13.389
 8590W        W81004   2.255  24.014  11.038
 8591W        W81005  14.746  25.705  12.891
 8592W        W81006  40.375  21.649   4.724
 8593W        W81007   8.894  30.603  12.090
 8594W        W81008  36.940   1.913   2.898
 8595W        W81009  14.612  35.924   3.268
 8596W        W81010  15.814  34.553   1.434
 8597W        W81011  40.391  21.569  13.517
 8598W        W81012  35.407   9.785   2.807
 8599W        W81013   2.303  16.707   4.187
 8600W        W81014   4.400  15.628   9.934
 8601W        W81015   4.289  36.458  13.475
 8602W        W81016   6.770   5.767  14.384
 8603W        W81017  29.504  23.097  12.466
 8604W        W81018   6.695  15.710  14.801
 8605W        W81019   8.856  28.971   2.358
 8606W        W81020  41.366   2.788   1.306
 8607W        W81021  23.579  34.573   1.894
 8608W        W81022  20.172  33.902   1.278
 8609W        W81023   2.311   9.832  14.287
 8610W        W81024  16.222  32.534   2.266
 8611W        W81025   1.476  14.115  12.446
 8612W        W81026  37.904   6.330   1.899
 8613W        W81027  24.100  20.271  12.348
 8614W        W81028  18.705  36.023   1.906
 8615W        W81029  35.488  36.073  11.014
 8616W        W81030   9.844   8.892   4.790
 8617W        W81031  27.061  34.055  13.479
 8618W        W81032  36.449  26.199   2.673
 8619W        W81033  25.200  28.550  14.906
 8620W        W81034  12.730  21.570  10.604
 8621W        W81035  35.087   8.323  10.582
 8622W        W81036  37.012  40.844  10.417
 8623W        W81037  33.070   2.240   0.893
 8624W        W81038   2.302  21.578   2.300
 8625W        W81039  24.165  22.562  13.484
 8626W        W81040  27.111   4.313   2.313
 8627W        W81041  15.282  37.473   2.348
 8628W        W81042  23.119  12.742   3.342
 8629W        W81043   9.837  36.086   1.362
 8630W        W81044  30.007  38.004   1.755
 8631W        W81045  27.180  26.647  13.348
 8632W        W81046  32.498   0.861   2.790
 8633W        W81047   1.352  34.930  10.620
 8634W        W81048  38.368  22.618  14.949
 8635W        W81049  21.082  36.893  10.911
 8636W        W81050  12.641  29.173   2.825
 8637W        W81051   2.237   7.826   1.713
 8638W        W81052  13.669  44.001  12.950
 8639W        W81053  14.186  29.631   0.874
 8640W        W81054  44.285  11.154  13.999
 8641W        W81055   0.397  22.215   3.156
 8642W        W81056  21.072   4.702   1.760
 8643W        W81057  40.930  41.493   3.358
 8644W        W81058  15.762   3.331   1.757
 8645W        W81059   2.241  38.001  12.878
 8646W        W81060  37.898  21.748   3.763
 8647W        W81061  25.628  41.803  11.441
 8648W        W81062   3.760   9.154   4.229
 8649W        W81063  26.059  20.132  11.436
 8650W        W81064  36.095  26.475  13.350
 8651W        W81065  41.488   5.722   0.775
 8652W        W81066  43.509  27.525  14.354
 8653W        W81067  30.999  41.910  11.548
 8654W        W81068  22.179   7.281   4.720
 8655W        W81069   9.279   1.782  10.904
 8656W        W81070  39.046  23.711  13.949
 8657W        W81071  18.147  42.498  11.957
 8658W        W81072   8.340  31.963   1.759
 8659W        W81073   0.832  43.964   3.776
 8660W        W81074  19.658  29.633  13.479
 8661W        W81075   8.698  35.855  11.989
 8662W        W81076  39.421  12.257  12.025
 8663W        W81077  30.050  27.523  14.470
 8664W        W81078  40.985  37.457   1.929
 8665W        W81079  18.153   7.376   1.291
 8666W        W81080  34.561   2.438   2.766
 8667W        W81081   8.308  44.291   1.373
 8668W        W81082  32.129  29.166   0.354
 8669W        W81083  41.528  31.505  11.466
 8670W        W81084  30.939  29.634   0.793
 8671W        W81085  33.586  29.664  13.926
 8672W        W81086   3.884   0.943   0.945
 8673W        W81087  38.832  29.533  11.053
 8674W        W81088  41.832  16.228   4.736
 8675W        W81089  28.578  25.049  11.458
 8676W        W81090  35.573  43.946  11.086
 8677W        W81091  40.913  36.385   1.935
 8678W        W81092  22.589  21.577  10.048
 8679W        W81093  40.351  26.190   1.334
 8680W        W81094  35.077  19.081   2.360
 8681W        W81095   5.751  12.348   3.699
 8682W        W81096  19.678   2.266   2.891
 8683W        W81097   2.750  17.561  14.357
 8684W        W81098   7.803  14.743   3.756
 8685W        W81099   8.881  40.380   3.759
 8686W        W81100  22.119   0.782  14.419
 8687W        W81101  24.479  10.245   1.813
 8688W        W81102  17.081   1.801   4.132
 8689W        W81103  22.068  41.902   3.311
 8690W        W81104  39.358  22.225   1.284
 8691W        W81105  11.279  20.241   4.832
 8692W        W81106  28.561  29.963   0.409
 8693W        W81107  41.831  37.860   4.706
 8694W        W81108  15.697  20.143  11.913
 8695W        W81109  36.405  41.533   1.373
 8696W        W81110  13.105  31.087   3.191
 8697W        W81111  26.581  19.722  14.411
 8698W        W81112  41.452  32.058  13.545
 8699W        W81113  43.374  37.870   0.364
 8700W        W81114  37.561  32.607   4.187
 8701W        W81115  34.462  29.970  14.905
 8702W        W81116  38.077  32.081  12.370
 8703W        W81117  28.954  42.854   0.811
 8704W        W81118  34.943  33.512  14.789
 8705W        W81119   7.271  31.923  12.550
 8706W        W81120  37.979  10.172   4.156
 8707W        W81121  11.833   2.282  12.837
 8708W        W81122   6.182   2.283   3.802
 8709W        W81123   6.244  20.715  12.916
 8710W        W81124  18.223  40.835   4.631
 8711W        W81125   7.277  34.095   3.216
 8712W        W81126  43.868  29.514  10.502
 8713W        W81127  41.895  22.548  10.038
 8714W        W81128  32.065  11.130   3.379
 8715W        W81129   2.262  38.928   5.207
 8716W        W81130   5.317   6.785  11.493
 8717W        W81131  13.646  14.668  11.520
 8718W        W81132   4.789  42.395   2.398
 8719W        W81133  44.878  10.264   4.170
 8720W        W81134  16.264  24.985  11.877
 8721W        W81135  13.242   7.178  12.417
 8722W        W81136  38.896   3.336  12.396
 8723W        W81137  30.035  34.003  12.502
 8724W        W81138  23.580   0.293   5.187
 8725W        W81139  25.709  23.064  11.375
 8726W        W81140  10.680  42.324   3.797
 8727W        W81141  15.719  25.539  14.973
 8728W        W81142   2.364  22.119  12.467
 8729W        W81143  29.013  15.678  13.352
 8730W        W81144  36.089   5.778  13.064
 8731W        W81145  24.528  40.500   3.657
 8732W        W81146  41.859   7.410   1.442
 8733W        W81147  42.016   2.417   2.407
 8734W        W81148  31.002  25.095  12.917
 8735W        W81149  41.971  34.872  13.353
 8736W        W81150  26.495  24.539   1.923
 8737W        W81151  40.382  24.723  13.890
 8738W        W81152  30.583  38.933   1.757
 8739W        W81153  41.961  30.944  11.957
 8740W        W81154  41.814  39.316  14.360
 8741W        W81155   3.317  44.259  10.067
 8742W        W81156  32.532  36.371  11.949
 8743W        W81157  35.081  22.140  12.355
 8744W        W81158   2.431  21.037  12.082
 8745W        W81159  35.433  26.601  11.890
 8746W        W81160  11.303  19.714   1.827
 8747W        W81161   3.416  33.592   3.685
 8748W        W81162  41.443   4.301  14.336
 8749W        W81163   5.881  33.583  10.915
 8750W        W81164   1.859  24.040   2.330
 8751W        W81165  11.650  24.648   1.235
 8752W        W81166  13.708   1.794  14.874
 8753W        W81167  24.207  31.412   1.229
 8754W        W81168  13.209  20.596  12.981
 8755W        W81169  39.920  37.858  12.959
 8756W        W81170  30.466  17.565  14.904
 8757W        W81171  20.126  11.668  11.531
 8758W        W81172  30.030   3.752  12.931
 8759W        W81173  40.978  37.478  14.027
 8760W        W81174  39.462  22.017   0.303
 8761W        W81175  24.070  12.775   0.328
 8762W        W81176   5.806  16.109   0.406
 8763W        W81177  10.217   0.361   4.837
 8764W        W81178  19.655   3.228   2.827
 8765W        W81179  39.911  31.628  11.057
 8766W        W81180  25.004  13.269  14.773
 8767W        W81181  33.890   3.359   5.249
 8768W        W81182  15.204  13.660  12.887
 8769W        W81183  34.587  22.067  12.572
 8770W        W81184  37.580  16.726   4.328
 8771W        W81185   4.900  41.335  11.926
 8772W        W81186  17.282  26.173   1.882
 8773W        W81187  16.799  33.918   0.359
 8774W        W81188   3.378  39.053   0.364
 8775W        W81189  41.395  35.430  10.626
 8776W        W81190  39.863   0.310  14.926
 8777W        W81191   7.688  12.314   2.194
 8778W        W81192  36.477   5.865   4.757
 8779W        W81193   2.884  11.766  11.944
 8780W        W81194  19.189  16.650  13.934
 8781W        W81195  14.275   8.388   3.645
 8782W        W81196  32.440   8.788   2.871
 8783W        W81197  37.405  10.801  13.843
 8784W        W81198  36.851   1.237   4.332
 8785W        W81199  13.840  11.147   2.771
 8786W        W81200  37.452  11.217  12.398
 8787W        W81201  10.684  21.254   2.211
 8788W        W81202  40.952   7.861  14.493
 8789W        W81203  14.648   4.445   4.349
 8790W        W81204   4.414   7.832   0.399
 8791W        W81205   6.839  27.942   2.902
 8792W        W81206  11.191  44.762   0.267
 8793W        W81207   3.385  39.872  14.997
 8794W        W81208  15.178  14.630   4.284
 8795W        W81209  30.654  19.709   1.742
 8796W        W81210   3.341  23.715  14.475
 8797W        W81211  30.005  25.172  14.484
 8798W        W81212  14.098  13.172  14.023
 8799W        W81213  38.356  11.666   3.163
 8800W        W81214  42.031  33.395   4.815
 8801W        W81215   5.726  34.536  12.903
 8802W        W81216  11.307  27.952  12.011
 8803W        W81217  34.875  22.190   2.378
 8804W        W81218   5.714  40.850  12.925
 8805W        W81219  29.424  15.214  14.898
 8806W        W81220  31.638  35.036   0.271
 8807W        W81221  15.792  41.302  10.516
 8808W        W81222  26.471  19.245  10.560
 8809W        W81223  37.459  16.810  12.930
 8810W        W81224  37.924  20.640   1.890
 8811W        W81225  28.549  19.089   2.666
 8812W        W81226   3.373  30.944  11.574
 8813W        W81227   5.746  38.542   0.767
 8814W        W81228  25.003   0.925  12.481
 8815W        W81229  18.601  42.369   0.445
 8816W        W81230  29.026  11.754   1.373
 8817W        W81231  34.393   5.272   3.244
 8818W        W81232  37.944  28.084  12.529
 8819W        W81233   7.847  33.054   0.886
 8820W        W81234  14.094   8.721  13.437
 8821W        W81235  31.928  42.805   4.616
 8822W        W81236  44.991  34.109   2.702
 8823W        W81237   0.851  30.077   2.790
 8824W        W81238   4.403   5.833  12.345
 8825W        W81239  28.543  22.232  13.365
 8826W        W81240  18.259  24.980  14.277
 8827W        W81241  34.481  34.506   0.464
 8828W        W81242  21.167  16.576   4.796
 8829W        W81243  27.528  11.718   3.300
 8830W        W81244  15.098  20.757  12.426
 8831W        W81245  26.578  32.934  10.969
 8832W        W81246  42.820  10.790   3.783
 8833W        W81247   1.341  16.793  11.536
 8834W        W81248  24.050  36.007   1.307
 8835W        W81249  34.596  14.266  12.937
 8836W        W81250   5.322  35.061  14.788
 8837W        W81251   4.261   2.795   2.333
 8838W        W81252  41.357  19.770  11.390
 8839W        W81253  18.174  42.928  10.017
 8840W        W81254  27.637  32.030  10.561
 8841W        W81255  40.463  32.087  12.076
 8842W        W81256   3.394   1.480   4.231
 8843W        W81257  32.963  16.663   0.285
 8844W        W81258  25.470  14.279  12.438
 8845W        W81259  42.314   2.805  11.461
 8846W        W81260  44.944  12.306  13.811
 8847W        W81261  37.868  33.105  12.396
 8848W        W81262   0.851  19.176  10.490
 8849W        W81263  40.535  28.439  13.870
 8850W        W81264  43.821  41.403  14.958
 8851W        W81265   6.781  22.082   2.818
 8852W        W81266  32.579   5.754  13.331
 8853W        W81267   1.866  11.777   0.790
 8854W        W81268  40.382  30.645  11.519
 8855W        W81269  12.810   4.397   3.279
 8856W        W81270   5.788  12.359  11.035
 8857W        W81271  27.450   9.166  11.076
 8858W        W81272   2.433  15.671  10.891
 8859W        W81273  21.109  12.116   4.334
 8860W        W81274  17.708   6.259   1.210
 8861W        W81275  15.108  31.145  11.956
 8862W        W81276  33.516   3.409   2.812
 8863W        W81277  11.684   0.830   0.737
 8864W        W81278  27.610   4.820  12.877
 8865W        W81279  10.839  17.659  14.451
 8866W        W81280  36.981  32.987  13.945
 8867W        W81281   8.869  39.951   0.817
 8868W        W81282  24.193  31.625   3.189
 8869W        W81283  36.498  11.673   4.308
 8870W        W81284  30.532   7.795   1.782
 8871W        W81285   7.342  35.395   0.398
 8872W        W81286  27.448  31.457   2.209
 8873W        W81287  32.501  24.118   3.658
 8874W        W81288  26.014   2.232  11.582
 8875W        W81289  24.153  33.089   4.256
 8876W        W81290   4.897  38.849  14.945
 8877W        W81291  31.108  41.525  12.946
 8878W        W81292  44.468  19.754   1.872
 8879W        W81293  23.499  21.050   1.902
 8880W        W81294  19.252   8.350  11.511
 8881W        W81295  26.082  26.006   0.429
 8882W        W81296  37.875  36.364  11.967
 8883W        W81297  22.160   8.286  13.455
 8884W        W81298  44.936  19.230  12.398
 8885W        W81299  28.589   5.804  14.931
 8886W        W81300  29.024  41.320  13.409
 8887W        W81301  39.966  36.007   2.305
 8888W        W81302   5.369  19.205   0.296
 8889W        W81303   6.813  31.462   2.181
 8890W        W81304  25.573  24.083   3.159
 8891W        W81305  17.073  38.546   0.904
 8892W        W81306  40.391  32.495  11.967
 8893W        W81307   9.329  30.625  11.391
 8894W        W81308  23.232  14.178   0.475
 8895W        W81309   0.489  20.077   0.285
 8896W        W81310  17.767  40.337   0.882
 8897W        W81311   1.308  39.431   2.672
 8898W        W81312  42.392  14.757  14.786
 8899W        W81313  22.547   0.875  12.957
 8900W        W81314   1.901  44.785  14.824
 8901W        W81315  12.753   7.667   2.357
 8902W        W81316  36.845   3.726   2.277
 8903W        W81317  19.230  36.894   3.668
 8904W        W81318  38.901  21.171   2.224
 8905W        W81319  26.159  25.098  10.487
 8906W        W81320  20.560  32.114  12.035
 8907W        W81321  30.060   9.234  10.557
 8908W        W81322  32.593   8.797   4.337
 8909W        W81323  11.688  34.048   2.198
 8910W        W81324   5.896   2.752   4.823
 8911W        W81325  28.680   7.863   1.822
 8912W        W81326  34.497   7.790  14.942
 8913W        W81327  14.761  44.322   2.773
 8914W        W81328   3.750   1.478   4.162
 8915W        W81329   6.195  16.170  13.009
 8916W        W81330  19.630  36.387  14.383
 8917W        W81331  16.307  20.029   3.694
 8918W        W81332  37.566  23.643   0.352
 8919W        W81333  39.422   0.951   3.713
 8920W        W81334  38.344   3.935   1.926
 8921W        W81335  21.138  25.618   4.795
 8922W        W81336  38.518  35.557   5.106
 8923W        W81337  18.644  31.569  14.368
 8924W        W81338  38.554  13.231  12.465
 8925W        W81339  33.396  27.166  10.944
 8926W        W81340  26.180  12.755  12.394
 8927W        W81341  36.923   9.314   4.762
 8928W        W81342   2.379  36.909   3.300
 8929W        W81343  35.382  39.937   2.348
 8930W        W81344  24.225  14.608   1.760
 8931W        W81345   5.723  13.117  12.827
 8932W        W81346  44.832  11.190  10.999
 8933W        W81347   2.244  16.193   4.632
 8934W        W81348  31.528  35.003  14.355
 8935W        W81349  11.337  26.003   0.825
 8936W        W81350  12.183   0.985   1.757
 8937W        W81351  14.198  13.214   3.781
 8938W        W81352  29.920  13.793  12.446
 8939W        W81353  37.426  28.022  11.895
 8940W        W81354  23.129  27.662   2.699
 8941W        W81355  14.834  19.750  12.530
 8942W        W81356  32.434  29.048  14.948
 8943W        W81357  22.542  26.474  14.912
 8944W        W81358  23.025  26.056  11.032
 8945W        W81359  27.446  32.596  12.462
 8946W        W81360   4.444   2.883  14.354
 8947W        W81361  16.244  25.633   0.302
 8948W        W81362  28.078  39.002  13.535
 8949W        W81363  23.720   8.269   3.818
 8950W        W81364   5.317  27.041  13.523
 8951W        W81365  43.366  19.760  11.601
 8952W        W81366  35.504  13.668   0.766
 8953W        W81367  21.660  19.057   2.828
 8954W        W81368  13.719  26.674  13.474
 8955W        W81369  26.072  41.037  12.483
 8956W        W81370  42.513  28.126  11.009
 8957W        W81371   4.872  42.031   3.739
 8958W        W81372   3.777  12.297  14.463
 8959W        W81373  31.581  27.948  13.540
 8960W        W81374   9.275  35.368   3.198
 8961W        W81375  21.518   6.265  12.536
 8962W        W81376  21.124  37.393   4.198
 8963W        W81377  27.175  14.815   2.297
 8964W        W81378  30.922  26.468  14.985
 8965W        W81379  29.978   3.262  10.419
 8966W        W81380  30.135  34.095  14.981
 8967W        W81381  26.567   6.234   0.809
 8968W        W81382   2.805  19.569  11.990
 8969W        W81383  35.410  15.734  12.417
 8970W        W81384  42.499  23.106   3.346
 8971W        W81385   2.267  11.700   4.663
 8972W        W81386  35.402  24.484   4.249
 8973W        W81387  30.953  21.246  11.891
 8974W        W81388  12.143  35.998   1.718
 8975W        W81389   4.914  36.062  10.519
 8976W        W81390  15.106  20.161  10.503
 8977W        W81391  31.134  42.927   3.797
 8978W        W81392  42.854   6.882  13.515
 8979W        W81393  27.964  27.040   3.640
 8980W        W81394  25.668  39.447  12.581
 8981W        W81395  11.651  16.629   4.619
 8982W        W81396  24.616  10.814   3.784
 8983W        W81397  20.651  28.444   3.211
 8984W        W81398  22.643  17.187   5.273
 8985W        W81399   8.292  40.474  13.865
 8986W        W81400  22.023  28.674   3.701
 8987W        W81401  38.437  16.614   3.383
 8988W        W81402  37.519  41.901   0.830
 8989W        W81403  10.640  25.647  11.920
 8990W        W81404  35.885  35.586  13.853
 8991W        W81405  42.782   3.912   2.796
 8992W        W81406  23.735  44.778   1.367
 8993W        W81407  40.874  18.094  13.862
 8994W        W81408   4.257  18.109   3.791
 8995W        W81409  21.110  21.665  14.992
 8996W        W81410  20.216  28.068   1.766
 8997W        W81411  21.077  33.881  12.367
 8998W        W81412  10.237  40.449  12.556
 8999W        W81413  23.080  20.134   4.217
 9000W        W81414  24.200  35.931  11.945
 9001W        W81415  22.192  29.153   3.278
 9002W        W81416  25.491  19.268  11.934
 9003W        W81417  25.071  39.471  13.509
 9004W        W81418  14.261  39.897   4.685
 9005W        W81419  34.879  40.476   4.718
 9006W        W81420  39.028   1.355   3.869
 9007W        W81421  14.627  44.821  12.413
 9008W        W81422  37.903  39.335  10.622
 9009W        W81423   0.794   2.762   0.885
 9010W        W81424  16.255  18.582  14.304
 9011W        W81425   1.434  31.129  13.812
 9012W        W81426  35.487  22.060  10.924
 9013W        W81427  27.065   0.793  12.964
 9014W        W81428  19.656   2.343   2.195
 9015W        W81429  20.041  26.190   3.160
 9016W        W81430  22.162  10.722   1.405
 9017W        W81431  27.015  34.374   1.926
 9018W        W81432  20.543   6.277   4.818
 9019W        W81433  43.513   7.865   3.301
 9020W        W81434  26.570  28.545   3.641
 9021W        W81435  15.749  28.167  14.492
 9022W        W81436  13.688  15.679   0.420
 9023W        W81437  20.124  41.011  12.414
 9024W        W81438  32.110   6.920  11.927
 9025W        W81439   3.254  13.327  11.400
 9026W        W81440   3.913  30.163   0.958
 9027W        W81441  14.213  23.178   2.324
 9028W        W81442  31.526  40.926   0.280
 9029W        W81443  42.827  19.771   3.203
 9030W        W81444  21.528  18.573  11.584
 9031W        W81445   5.235  30.991  11.872
 9032W        W81446  30.604  11.666  12.357
 9033W        W81447   4.247  20.195   1.914
 9034W        W81448  15.198   0.479   3.351
 9035W        W81449  38.061  40.812  13.016
 9036W        W81450   4.374   6.276  14.956
 9037W        W81451  42.934  13.724   1.703
 9038W        W81452  36.986  29.511  14.472
 9039W        W81453  25.211  22.068  13.914
 9040W        W81454  22.128  16.202  11.555
 9041W        W81455  41.818  44.469  11.006
 9042W        W81456  25.600  14.320  14.332
 9043W        W81457  28.141  41.390  14.464
 9044W        W81458  36.522   6.786   2.392
 9045W        W81459  20.029  32.891   1.887
 9046W        W81460  13.340   2.759  15.000
 9047W        W81461  16.776  36.477  12.481
 9048W        W81462  11.160  21.693  14.764
 9049W        W81463  33.036   8.353   1.894
 9050W        W81464   5.719  13.309   1.838
 9051W        W81465   9.821  31.631  13.981
 9052W        W81466  12.699  32.934   0.946
 9053W        W81467   2.446  32.401  11.607
 9054W        W81468  24.639  18.236  12.933
 9055W        W81469  30.914  18.288   0.394
 9056W        W81470   0.905  25.170   0.834
 9057W        W81471  10.247   4.214   3.343
 9058W        W81472  18.239  11.756  12.851
 9059W        W81473   3.218  36.904   2.667
 9060W        W81474   4.720  18.123  10.411
 9061W        W81475   7.880  44.870  12.834
 9062W        W81476  33.974  21.158   3.255
 9063W        W81477  31.537  13.697  13.395
 9064W        W81478  37.416  23.617   9.979
 9065W        W81479  22.558  33.421  11.440
 9066W        W81480  14.605  36.847   0.770
 9067W        W81481  34.022  41.382   1.853
 9068W        W81482  44.445  41.990  14.309
 9069W        W81483  25.150  11.655   0.824
 9070W        W81484  25.206  38.375  12.061
 9071W        W81485  35.382  16.196   4.313
 9072W        W81486  16.709   6.387  12.507
 9073W        W81487   0.253  18.051   1.806
 9074W        W81488  29.974  22.521  11.436
 9075W        W81489  41.295  44.317   0.314
 9076W        W81490  18.116  37.391  12.010
 9077W        W81491   3.333   0.917   2.684
 9078W        W81492  43.985  22.735  14.495
 9079W        W81493  36.917  18.235  10.432
 9080W        W81494  24.088   5.812   1.723
 9081W        W81495  42.893  23.110   0.260
 9082W        W81496  27.591  37.055  10.949
 9083W        W81497  32.140  19.141  13.454
 9084W        W81498   3.438  40.410   0.739
 9085W        W81499  37.936  21.671   2.320
 9086W        W81500  20.225   8.349   3.154
 9087W        W81501  43.972  16.667   2.324
 9088W        W81502  14.338  17.076   2.284
 9089W        W81503  17.095  38.561  12.351
 9090W        W81504  31.088  27.557   1.314
 9091W        W81505  38.338  44.932  11.003
 9092W        W81506  30.489  27.644   2.847
 9093W        W81507   1.775  22.525   3.719
 9094W        W81508  14.165  30.946  14.372
 9095W        W81509   1.945  28.449   4.263
 9096W        W81510   8.261  14.610   2.364
 9097W        W81511  44.260  39.932   2.823
 9098W        W81512   4.793  18.597  12.576
 9099W        W81513  24.009  41.022  14.772
 9100W        W81514  29.450  43.916   4.732
 9101W        W81515  34.054  19.754   2.663
 9102W        W81516   0.807  16.084  14.776
 9103W        W81517   3.448  41.867   4.193
 9104W        W81518  44.260  19.541  14.511
 9105W        W81519  42.308   6.735  14.897
 9106W        W81520  23.552  40.951   3.634
 9107W        W81521  31.406  28.085   3.266
 9108W        W81522  32.430  42.983   0.821
 9109W        W81523  36.073   2.924   4.151
 9110W        W81524  38.001  34.952   1.768
 9111W        W81525  40.451  20.671  11.986
 9112W        W81526  13.163  33.889  10.917
 9113W        W81527   3.765   1.746   2.682
 9114W        W81528  20.108  44.905  10.988
 9115W        W81529  35.033   3.906   3.156
 9116W        W81530  22.089  23.681  11.377
 9117W        W81531  14.221  26.976   0.849
 9118W        W81532  30.520  43.380   4.300
 9119W        W81533   1.852  29.573  14.005
 9120W        W81534  14.279   9.664  12.067
 9121W        W81535  18.683  22.203  11.933
 9122W        W81536  22.020  31.110  11.954
 9123W        W81537  26.476   2.965   0.467
 9124W        W81538  35.546  20.525  13.417
 9125W        W81539  32.006  32.614  12.089
 9126W        W81540  34.540   2.319  14.452
 9127W        W81541   8.258  29.090   0.248
 9128W        W81542   4.893  20.747  12.398
 9129W        W81543  27.158  39.992  13.482
 9130W        W81544  10.379  34.046  14.778
 9131W        W81545   7.343  21.121   4.780
 9132W        W81546   7.397  37.388   4.217
 9133W        W81547  26.197  31.521   4.192
 9134W        W81548  35.558  20.542   4.602
 9135W        W81549  38.870  33.888  14.356
 9136W        W81550   0.887  26.951  13.541
 9137W        W81551  40.952  20.524  14.425
 9138W        W81552  11.814  41.417  11.980
 9139W        W81553  23.061  30.511   3.786
 9140W        W81554   5.194  33.470  11.098
 9141W        W81555   2.767  10.297  11.951
 9142W        W81556   3.235  13.294  12.448
 9143W        W81557  21.259  44.892   2.838
 9144W        W81558   2.921  13.340  12.961
 9145W        W81559  22.722  12.804   0.323
 9146W        W81560   1.382  23.229   1.877
 9147W        W81561  39.941  22.129  12.056
 9148W        W81562  25.216   4.308  11.980
 9149W        W81563  40.925  22.224   1.871
 9150W        W81564  21.213  25.051  11.111
 9151W        W81565  17.584  27.486  13.818
 9152W        W81566   0.444  38.918   4.124
 9153W        W81567  39.942   7.388  12.958
 9154W        W81568   8.700  25.658   4.268
 9155W        W81569  41.441  41.790  12.545
 9156W        W81570   6.366  39.004  10.534
 9157W        W81571  16.796  24.641   2.898
 9158W        W81572  24.121  22.080   0.408
 9159W        W81573  26.994   4.272   3.830
 9160W        W81574  12.265   3.247  14.766
 9161W        W81575  27.522  13.135  13.366
 9162W        W81576  22.147   1.834  14.485
 9163W        W81577  10.354  31.112  13.859
 9164W        W81578  32.438   8.687   4.640
 9165W        W81579  22.583  11.647   3.772
 9166W        W81580   2.940  17.167  13.903
 9167W        W81581  14.193  16.097  11.925
 9168W        W81582  43.358  15.813  12.990
 9169W        W81583  39.042   0.383  14.420
 9170W        W81584  37.531   5.881   4.659
 9171W        W81585   0.489  19.282   0.956
 9172W        W81586  32.006  11.627   2.274
 9173W        W81587  29.613  12.261  14.814
 9174W        W81588  26.540  31.139  10.948
 9175W        W81589  26.702   1.888   3.645
 9176W        W81590  25.596  28.984  10.503
 9177W        W81591  34.072  30.084  13.414
 9178W        W81592  37.863  21.599   1.818
 9179W        W81593  15.293  41.452  10.579
 9180W        W81594  16.303  36.907  10.609
 9181W        W81595  17.642  43.327  12.070
 9182W        W81596   8.851  13.826   1.331
 9183W        W81597  16.150  19.153   2.747
 9184W        W81598  10.721  36.088  13.388
 9185W        W81599   4.807  30.092  10.416
 9186W        W81600  42.508  10.309   0.362
 9187W        W81601  19.203  12.219  14.935
 9188W        W81602  25.097  39.399   3.814
 9189W        W81603  27.515  10.314   4.700
 9190W        W81604  30.562   2.409   0.807
 9191W        W81605  11.658   6.817   1.368
 9192W        W81606   6.426   4.244   2.878
 9193W        W81607  12.674  42.979  12.543
 9194W        W81608  28.020  17.117   2.806
 9195W        W81609  25.626  37.391   1.230
 9196W        W81610  31.909  26.155   4.226
 9197W        W81611   9.241  10.347  12.455
 9198W        W81612  19.723  18.288  11.904
 9199W        W81613   4.291  12.639  11.962
 9200W        W81614  26.681  41.854  12.483
 9201W        W81615  16.273  42.336  12.089
 9202W        W81616  33.603   8.321   1.846
 9203W        W81617  19.722   3.319  11.912
 9204W        W81618  36.476   8.890  14.772
 9205W        W81619   3.893  35.482   1.916
 9206W        W81620  18.741   3.433  12.081
 9207W        W81621  42.509  40.426  10.621
 9208W        W81622  17.585  11.204  13.797
 9209W        W81623  38.884  10.664  12.915
 9210W        W81624  39.491  11.759   4.314
 9211W        W81625  22.186  22.053   2.375
 9212W        W81626  43.452  25.613   1.320
 9213W        W81627   9.363  10.233   2.189
 9214W        W81628   0.960  36.008  11.412
 9215W        W81629  32.462  30.594  11.102
 9216W        W81630  44.841   2.383  12.006
 9217W        W81631   0.805  42.936   0.426
 9218W        W81632   4.847  43.995  10.013
 9219W        W81633  37.485  40.527  14.958
 9220W        W81634  23.099  40.515   4.309
 9221W        W81635  40.943  12.206  13.464
 9222W        W81636  11.760  14.620  10.917
 9223W        W81637  13.219  24.664  10.489
 9224W        W81638  28.037  36.004   4.316
 9225W        W81639  15.654  30.545   2.364
 9226W        W81640  35.385  44.504   4.625
 9227W        W81641  26.700  20.255  10.478
 9228W        W81642  27.526   0.877   3.818
 9229W        W81643   1.758  36.569   0.343
 9230W        W81644  22.573  14.110   0.285
 9231W        W81645  44.848   8.817   3.282
 9232W        W81646   1.912  27.601  11.445
 9233W        W81647  19.199  41.886   4.183
 9234W        W81648  41.842  10.221  14.358
 9235W        W81649   1.931  14.310  12.479
 9236W        W81650  12.158  21.752   2.338
 9237W        W81651  44.302  38.043  14.287
 9238W        W81652  30.054   3.746   2.294
 9239W        W81653   7.893  30.967   2.308
 9240W        W81654  15.130  24.139  10.602
 9241W        W81655  11.681  29.568  13.417
 9242W        W81656   1.732  17.153   2.208
 9243W        W81657  20.623   0.851  12.026
 9244W        W81658  37.369  31.913   1.731
 9245W        W81659  32.960  23.564  11.075
 9246W        W81660  40.967  37.924   2.266
 9247W        W81661  38.923  19.256   4.295
 9248W        W81662  36.878  10.226  13.546
 9249W        W81663  18.725  35.422   2.399
 9250W        W81664   3.270  15.759   5.212
 9251W        W81665  32.488  14.810  12.010
 9252W        W81666  30.998  43.900   4.644
 9253W        W81667  26.676  24.552  14.828
 9254W        W81668   7.407   3.217  11.452
 9255W        W81669  32.029  19.059  10.438
 9256W        W81670   3.293  18.613   0.880
 9257W        W81671  43.276  23.038   4.353
 9258W        W81672  30.966   1.762   3.306
 9259W        W81673  16.205   5.252  13.921
 9260W        W81674  13.777  42.779  14.032
 9261W        W81675  41.490   4.935   3.279
 9262W        W81676  11.798  29.995   2.411
 9263W        W81677  16.254  14.110   0.365
 9264W        W81678  33.016  41.859   1.365
 9265W        W81679   2.855   5.314   0.379
 9266W        W81680   1.822  18.577   4.790
 9267W        W81681  36.420  31.066   3.805
 9268W        W81682  24.127  25.667  13.015
 9269W        W81683  30.953  28.037  11.925
 9270W        W81684  35.365  30.627  10.471
 9271W        W81685  14.659  33.004  12.879
 9272W        W81686  41.948  24.093  13.866
 9273W        W81687   3.461  24.216   1.892
 9274W        W81688  36.930  31.637   4.244
 9275W        W81689  29.439  31.930   5.162
 9276W        W81690  13.727  33.103   3.371
 9277W        W81691   7.199  18.684  12.865
 9278W        W81692  11.339  23.613  12.357
 9279W        W81693  26.054  41.493   4.676
 9280W        W81694  41.390  28.485   1.732
 9281W        W81695  17.623  28.650   1.271
 9282W        W81696  26.685  31.026   3.828
 9283W        W81697  12.667  13.206   3.305
 9284W        W81698   1.316  27.453  11.023
 9285W        W81699   5.288   1.299  12.540
 9286W        W81700  37.855  37.484  12.029
 9287W        W81701   3.938  25.971   2.414
 9288W        W81702  14.206   2.833   1.371
 9289W        W81703  29.654  40.546  12.508
 9290W        W81704   4.344  26.099  13.367
 9291W        W81705  20.161  44.960   5.098
 9292W        W81706  22.220  42.401  10.996
 9293W        W81707  17.623  24.674   3.853
 9294W        W81708  11.633  43.307  13.970
 9295W        W81709   4.275  12.327   4.247
 9296W        W81710  27.685  23.138  13.530
 9297W        W81711  41.855  21.721   3.755
 9298W        W81712  24.490  33.954  13.447
 9299W        W81713  25.021  27.586   2.677
 9300W        W81714   1.951  16.631   0.862
 9301W        W81715  30.642  26.208   2.349
 9302W        W81716  34.896  32.526  11.941
 9303W        W81717  40.471  42.812   3.858
 9304W        W81718  30.451  33.439   5.111
 9305W        W81719  22.680  28.592   1.383
 9306W        W81720  37.836  35.084   9.978
 9307W        W81721  11.205  40.964   1.735
 9308W        W81722  40.450  18.194   5.098
 9309W        W81723  42.336   2.888  14.482
 9310W        W81724  12.679   8.375  13.904
 9311W        W81725  41.465   7.691  13.902
 9312W        W81726  25.100  15.088   4.170
 9313W        W81727  18.631  12.154  10.906
 9314W        W81728  38.427  11.794  11.530
 9315W        W81729   5.865  16.698   4.249
 9316W        W81730   2.419  34.564  10.641
 9317W        W81731  17.584  42.806  10.516
 9318W        W81732   8.745  39.857   4.803
 9319W        W81733  38.377   2.297  12.554
 9320W        W81734  43.985   3.417   4.754
 9321W        W81735  15.701   0.356  11.933
 9322W        W81736  33.537   7.906  13.814
 9323W        W81737  37.862  22.217  13.050
 9324W        W81738   7.830  20.224  10.584
 9325W        W81739   3.937  28.569  11.609
 9326W        W81740  25.129  16.307  12.876
 9327W        W81741  23.701   4.443   3.662
 9328W        W81742  28.017   4.269  14.917
 9329W        W81743  36.424  33.384  11.917
 9330W        W81744  14.830  28.580  13.394
 9331W        W81745  43.434   0.914  13.458
 9332W        W81746  42.016   8.333   0.338
 9333W        W81747  34.403  15.224  11.549
 9334W        W81748  41.388  24.172  14.017
 9335W        W81749   9.281  33.044  12.431
 9336W        W81750  42.457  15.164  13.038
 9337W        W81751  35.357  28.441   3.160
 9338W        W81752  14.708   6.912   2.312
 9339W        W81753  15.665  18.786  13.043
 9340W        W81754  31.055  28.677  14.772
 9341W        W81755  42.847  23.690   0.321
 9342W        W81756  24.197  41.876   4.813
 9343W        W81757  39.522  28.035  13.542
 9344W        W81758  13.815  14.779  12.028
 9345W        W81759  23.578   4.936   0.854
 9346W        W81760  21.229  30.631   3.728
 9347W        W81761  39.362  30.147  13.471
 9348W        W81762  42.906  16.159  13.453
 9349W        W81763  20.188  15.623   0.736
 9350W        W81764  38.912   6.287  14.971
 9351W        W81765   3.339   1.397   3.774
 9352W        W81766   1.916  28.455   4.624
 9353W        W81767  42.027  40.545   0.867
 9354W        W81768  28.994  21.118  12.011
 9355W        W81769  34.418  38.896  10.577
 9356W        W81770  28.522  36.433   3.332
 9357W        W81771  39.874   2.284  13.392
 9358W        W81772  26.170  17.767   5.158
 9359W        W81773  36.092  17.614   0.919
 9360W        W81774   1.446  42.414  11.447
 9361W        W81775  12.818  34.501  13.395
 9362W        W81776  13.780  21.658   3.297
 9363W        W81777  19.048  35.910   0.382
 9364W        W81778  20.166  15.237   0.757
 9365W        W81779   8.381  39.821   3.727
 9366W        W81780  12.616  31.909   1.877
 9367W        W81781   1.408  22.215  14.415
 9368W        W81782  23.505  31.599   0.301
 9369W        W81783  23.065  38.835   0.939
 9370W        W81784  30.920  38.943  10.984
 9371W        W81785   6.400  33.057   0.905
 9372W        W81786  31.429  20.117   1.752
 9373W        W81787  14.261  38.882  14.350
 9374W        W81788  12.209  10.330   0.850
 9375W        W81789  40.370  27.495  11.379
 9376W        W81790  24.707  26.572  12.390
 9377W        W81791  14.708   4.802  11.580
 9378W        W81792  44.337   7.901  12.480
 9379W        W81793   6.216  32.104  13.380
 9380W        W81794   4.344  40.376  14.292
 9381W        W81795  16.688  22.175  12.969
 9382W        W81796   7.383  23.532  10.596
 9383W        W81797  39.428  35.458  10.460
 9384W        W81798   8.393  21.041   4.675
 9385W        W81799  21.153  40.441   4.715
 9386W        W81800  23.494  24.502  11.900
 9387W        W81801   5.268  26.633   1.752
 9388W        W81802   6.193  15.283  12.824
 9389W        W81803  21.075   8.211  12.441
 9390W        W81804  22.549  37.832   3.238
 9391W        W81805   1.316  11.828   2.290
 9392W        W81806  35.894  37.564   2.294
 9393W        W81807  12.719  43.428   1.752
 9394W        W81808  25.157   0.850   1.266
 9395W        W81809  17.273  38.068   3.293
 9396W        W81810  34.871   6.288  12.914
 9397W        W81811  34.564  35.476  13.943
 9398W        W81812  18.685  44.792   0.930
 9399W        W81813  44.501  23.077   4.626
 9400W        W81814  40.365  43.897   0.250
 9401W        W81815  31.994  32.991   2.231
 9402W        W81816   7.199  16.076  12.414
 9403W        W81817  25.579  10.802  10.952
 9404W        W81818  27.164   3.935   4.806
 9405W        W81819  26.018  16.273   0.928
 9406W        W81820  17.625  18.697   2.275
 9407W        W81821  36.080  39.486  14.351
 9408W        W81822   4.739  14.833  13.929
 9409W        W81823   5.390  44.348   4.146
 9410W        W81824  33.625  22.089   0.481
 9411W        W81825  11.626  33.901  12.515
 9412W        W81826  22.241  32.608   4.225
 9413W        W81827  34.039  18.605   2.360
 9414W        W81828  27.630   4.343  13.401
 9415W        W81829  10.298  34.996  14.980
 9416W        W81830  25.635  35.063   1.362
 9417W        W81831  37.983  41.826  12.384
 9418W        W81832  15.204  32.980  10.992
 9419W        W81833  17.282  22.109  13.463
 9420W        W81834  16.230   4.727  14.788
 9421W        W81835  16.636  41.430  13.501
 9422W        W81836  12.357  24.206  12.438
 9423W        W81837  16.622  12.306  12.572
 9424W        W81838  23.088   2.725   2.865
 9425W        W81839  37.397  10.285   3.869
 9426W        W81840   2.373  11.834  14.463
 9427W        W81841  30.487  27.113   3.697
 9428W        W81842  21.145  29.569   3.706
 9429W        W81843  27.973  37.846  11.386
 9430W        W81844  29.064  32.925   4.137
 9431W        W81845  32.989  23.553  11.967
 9432W        W81846  27.686  13.327  14.014
 9433W        W81847  26.132  36.429   2.867
 9434W        W81848  10.198  32.029   1.775
 9435W        W81849  26.158   1.320   3.215
 9436W        W81850   0.828  25.120   5.175
 9437W        W81851   4.387  12.626  11.495
 9438W        W81852  31.457  24.977  11.120
 9439W        W81853  31.148  23.511   0.395
 9440W        W81854   7.198  26.196  13.384
 9441W        W81855  25.513  17.590   0.383
 9442W        W81856  23.602  38.444   1.248
 9443W        W81857  12.798  30.080   2.828
 9444W        W81858  39.969  32.030   1.817
 9445W        W81859  14.170  18.554  11.126
 9446W        W81860  12.824  28.539   3.199
 9447W        W81861  18.186  42.287   3.741
 9448W        W81862  16.633   9.703   4.667
 9449W        W81863   7.374  26.686   2.775
 9450W        W81864   8.287  38.502   3.193
 9451W        W81865   2.912   2.805   2.281
 9452W        W81866  31.526   8.167   0.835
 9453W        W81867   4.242  13.349   0.386
 9454W        W81868  29.065  22.143   2.346
 9455W        W81869  15.647  18.151   3.777
 9456W        W81870  27.678   5.288  10.988
 9457W        W81871  29.502  16.304   2.240
 9458W        W81872  44.762  16.185   3.856
 9459W        W81873  41.409  19.173  11.862
 9460W        W81874   4.265  37.497  14.497
 9461W        W81875  15.201  13.169   1.883
 9462W        W81876  31.916  21.565   0.271
 9463W        W81877  32.533  37.483  13.885
 9464W        W81878  18.700   0.389   3.685
 9465W        W81879  41.996  34.534   4.324
 9466W        W81880  13.197  22.053  12.390
 9467W        W81881  25.219  38.466   0.350
 9468W        W81882  30.478  17.139  10.574
 9469W        W81883  44.446  32.085   3.769
 9470W        W81884  18.765  27.591  13.503
 9471W        W81885  15.815  23.016   4.254
 9472W        W81886  10.226  11.752   2.209
 9473W        W81887  14.633   0.424   4.351
 9474W        W81888  10.809  22.612  12.867
 9475W        W81889  11.787  15.674   3.813
 9476W        W81890   2.444  37.040  13.529
 9477W        W81891  25.019   5.331  11.040
 9478W        W81892   6.358  31.429   4.601
 9479W        W81893  22.568   5.277   2.331
 9480W        W81894  35.052  34.556  12.869
 9481W        W81895  17.630  20.090  12.503
 9482W        W81896  37.938  26.481  14.761
 9483W        W81897  32.425  13.228  10.405
 9484W        W81898  32.946  36.935  11.004
 9485W        W81899  37.412  36.491  12.980
 9486W        W81900  40.933  23.192   1.262
 9487W        W81901  28.019  14.731   1.262
 9488W        W81902   0.871  32.508   0.727
 9489W        W81903  29.644  35.983  14.976
 9490W        W81904  11.732  29.506  12.969
 9491W        W81905  20.103  10.325  14.946
 9492W        W81906  36.967  11.746  14.305
 9493W        W81907  39.417  14.299  11.428
 9494W        W81908   9.297   5.224   0.408
 9495W        W81909   6.825  18.284  13.011
 9496W        W81910  14.339  35.381  13.393
 9497W        W81911  26.098  12.623   3.270
 9498W        W81912  26.008  17.801  10.424
 9499W        W81913   8.735   6.793   4.643
 9500W        W81914  44.001   4.346  13.439
 9501W        W81915   5.772  26.025  11.881
 9502W        W81916  18.272  32.079  12.924
 9503W        W81917   5.391  35.428   2.195
 9504W        W81918  11.786   5.696  10.129
 9505W        W81919  37.027  37.062   3.677
 9506W        W81920  16.780  14.198  12.552
 9507W        W81921  13.827  13.812   4.689
 9508W        W81922  42.316  22.663   1.887
 9509W        W81923  21.671  44.455   1.815
 9510W        W81924  23.043  22.008  14.932
 9511W        W81925  35.414   1.870  13.874
 9512W        W81926  29.090   5.235  10.471
 9513W        W81927  28.054   1.960  13.831
 9514W        W81928  39.010  36.034   1.275
 9515W        W81929  41.924  25.121  14.285
 9516W        W81930  29.012  25.653  10.513
 9517W        W81931  38.960   2.918  12.973
 9518W        W81932   2.385  26.596  13.805
 9519W        W81933   6.403  15.234   1.246
 9520W        W81934   8.309  42.463  14.876
 9521W        W81935  11.781  10.187   0.807
 9522W        W81936  25.982  34.529  10.934
 9523W        W81937  29.614  25.040   3.832
 9524W        W81938  23.545  18.182  12.401
 9525W        W81939  20.157  39.408  14.355
 9526W        W81940  21.202   1.864  10.984
 9527W        W81941  22.522   9.674   0.315
 9528W        W81942   5.436  38.936  12.537
 9529W        W81943  16.694  29.949   0.765
 9530W        W81944   3.781   0.318   3.287
 9531W        W81945   2.870  13.627   2.725
 9532W        W81946  18.729  13.238   2.270
 9533W        W81947   2.808   3.374   2.700
 9534W        W81948  25.616   7.363   1.885
 9535W        W81949  17.153  28.497  14.277
 9536W        W81950   3.418  14.126  11.442
 9537W        W81951  24.108  30.161   4.717
 9538W        W81952  32.946  33.051   3.302
 9539W        W81953  19.649  28.671   4.755
 9540W        W81954   4.813  13.225   4.618
 9541W        W81955  20.693  25.190  10.613
 9542W        W81956  25.174  41.378   2.329
 9543W        W81957  23.674  40.354   1.898
 9544W        W81958  24.670   0.893  13.473
 9545W        W81959  44.833  15.164  13.544
 9546W        W81960   1.939  16.226   2.335
 9547W        W81961  43.431  32.901   2.765
 9548W        W81962  34.119  17.088   2.693
 9549W        W81963  17.801  36.509   1.910
 9550W        W81964  12.123  44.997  13.909
 9551W        W81965  40.359  23.220   3.320
 9552W        W81966  33.626  41.033   3.352
 9553W        W81967   3.240  44.258  11.045
 9554W        W81968  14.241  33.425  10.630
 9555W        W81969  32.630   0.267   0.450
 9556W        W81970   5.370  28.016  14.000
 9557W        W81971  22.168  31.954   3.744
 9558W        W81972  22.593  17.176  14.015
 9559W        W81973   0.430  15.086   1.326
 9560W        W81974   7.674  18.189  11.111
 9561W        W81975  34.435   5.799  12.020
 9562W        W81976  21.143  10.834   1.274
 9563W        W81977   7.412   1.851   1.747
 9564W        W81978  30.541  31.451  11.483
 9565W        W81979  39.554  41.814   4.349
 9566W        W81980  25.181  24.662   4.660
 9567W        W81981  21.554   5.395   0.774
 9568W        W81982  29.667  15.641   0.788
 9569W        W81983  19.128   5.753  14.276
 9570W        W81984   5.782  43.318  13.995
 9571W        W81985  26.681  34.424  11.911
 9572W        W81986  29.627  31.101  11.486
 9573W        W81987  15.282  23.553  14.484
 9574W        W81988  41.522   9.271   2.694
 9575W        W81989  34.377  28.657  11.591
 9576W        W81990   8.695  28.158   5.305
 9577W        W81991   2.748  20.664  12.896
 9578W        W81992  38.912  42.403  12.849
 9579W        W81993  19.641  31.492   1.712
 9580W        W81994  26.695  40.462   3.303
 9581W        W81995  22.686   5.213   2.878
 9582W        W81996  39.488  17.652  11.983
 9583W        W81997   7.229  30.451  14.889
 9584W        W81998  23.580   0.439  10.499
 9585W        W81999  38.441  33.570   3.718
 9586W        W82000  10.310  33.521  10.510
 9587W        W82001  39.446  22.021  11.881
 9588W        W82002  24.517  31.432  14.031
 9589W        W82003   5.315  25.014  10.455
 9590W        W82004   7.761  43.841   4.335
 9591W        W82005  27.107  15.095   2.257
 9592W        W82006  18.261  43.327  11.439
 9593W        W82007  30.139  12.796  14.287
 9594W        W82008   8.281   2.720  14.765
 9595W        W82009   1.833  11.313   1.268
 9596W        W82010  41.860  20.723   0.830
 9597W        W82011  11.168   3.823  11.101
 9598W        W82012   1.244   0.822   1.766
 9599W        W82013  18.152   2.803   4.345
 9600W        W82014  39.848  10.717   0.243
 9601W        W82015  13.629  41.823  12.048
 9602W        W82016  27.572  38.933   3.696
 9603W        W82017  27.607  35.533  11.487
 9604W        W82018  19.061  32.429   2.887
 9605W        W82019   6.393  10.651   4.661
 9606W        W82020  36.410  11.673   0.318
 9607W        W82021  27.482  17.564   0.933
 9608W        W82022  17.799  44.343   9.989
 9609W        W82023  13.653  13.155   0.925
 9610W        W82024  44.390  27.108   2.862
 9611W        W82025   3.427   7.909   3.721
 9612W        W82026   8.731  37.540  11.871
 9613W        W82027  43.959   4.224  13.883
 9614W        W82028   8.711  20.749  14.932
 9615W        W82029  41.021  21.651  13.955
 9616W        W82030  18.594   8.713   2.802
 9617W        W82031   0.291   4.756   2.221
 9618W        W82032  27.996  12.646   0.389
 9619W        W82033  12.751   0.460  12.071
 9620W        W82034  33.929  22.250   2.255
 9621W        W82035  42.988  23.712  12.379
 9622W        W82036  16.775  38.499  12.430
 9623W        W82037   3.894   6.366  12.439
 9624W        W82038  32.961  31.538   0.736
 9625W        W82039  30.954  10.181   1.430
 9626W        W82040  16.790   2.411  10.432
 9627W        W82041  12.128  43.412  12.547
 9628W        W82042  37.029   1.969   3.639
 9629W        W82043  18.235   6.694   0.410
 9630W        W82044  40.447  39.034  13.053
 9631W        W82045  25.019  38.866  11.588
 9632W        W82046   8.895  41.490   1.379
 9633W        W82047  15.301   0.306  12.874
 9634W        W82048  21.616   1.923   0.466
 9635W        W82049  22.038   2.850  14.417
 9636W        W82050   4.753  31.990   9.965
 9637W        W82051  35.045  30.593  14.908
 9638W        W82052  32.454  33.562  10.476
 9639W        W82053  15.205  23.138   0.834
 9640W        W82054   7.732  18.746   4.346
 9641W        W82055  16.720  27.010  13.966
 9642W        W82056  31.514  38.871  15.000
 9643W        W82057  24.013   6.327  14.804
 9644W        W82058  33.408  10.725  12.996
 9645W        W82059  15.712  19.189  14.908
 9646W        W82060   7.213   9.673  13.452
 9647W        W82061   7.909  30.922  12.928
 9648W        W82062  38.919  31.530  11.606
 9649W        W82063  43.365   5.390   2.892
 9650W        W82064   5.374  15.730   5.273
 9651W        W82065   6.209  10.189  14.972
 9652W        W82066  34.405  39.335   4.127
 9653W        W82067  37.362  14.636  10.577
 9654W        W82068  36.982  18.642   1.419
 9655W        W82069  18.546  23.137   2.308
 9656W        W82070   9.319  33.493   2.748
 9657W        W82071  29.141  22.075  13.353
 9658W        W82072  23.586  19.560  10.440
 9659W        W82073  41.374   7.759  13.030
 9660W        W82074  35.012  33.044   2.686
 9661W        W82075  14.683  24.618  13.849
 9662W        W82076  23.569  21.135   2.702
 9663W        W82077  27.684  12.274  14.964
 9664W        W82078   4.422   5.861   4.348
 9665W        W82079  21.075  24.540  11.948
 9666W        W82080  13.128  14.640   2.179
 9667W        W82081  42.961  40.533   4.313
 9668W        W82082  37.354  14.744  13.481
 9669W        W82083  41.322  24.006   1.364
 9670W        W82084  27.452   7.734   0.339
 9671W        W82085  30.427   5.332   2.251
 9672W        W82086  13.223  12.239  11.424
 9673W        W82087  13.323   9.802   0.751
 9674W        W82088  43.402  18.203   0.843
 9675W        W82089  44.918   3.767  11.586
 9676W        W82090  18.289  36.859   4.706
 9677W        W82091  18.165  39.879   2.215
 9678W        W82092  28.514  43.789   0.426
 9679W        W82093  34.445   1.760  10.442
 9680W        W82094  14.252  33.393  14.497
 9681W        W82095   0.796   0.820   4.784
 9682W        W82096  41.898  29.152   1.414
 9683W        W82097  10.862   5.411  12.069
 9684W        W82098   4.775  24.577  12.020
 9685W        W82099  43.348   2.958  11.583
 9686W        W82100  41.966  36.497  10.979
 9687W        W82101  23.680  31.623  11.073
 9688W        W82102   9.780   5.395   0.766
 9689W        W82103   1.243  32.891  10.573
 9690W        W82104  34.036  35.994  13.994
 9691W        W82105   4.918  26.139   1.399
 9692W        W82106   4.321   9.189  10.941
 9693W        W82107   4.756  36.413  13.321
 9694W        W82108  21.138  15.156   2.816
 9695W        W82109  16.798  18.774  12.858
 9696W        W82110  36.459  23.613  13.372
 9697W        W82111  20.675  43.955  10.934
 9698W        W82112  25.153  28.157   4.248
 9699W        W82113   6.837   9.820   4.800
 9700W        W82114  25.642  29.554  14.851
 9701W        W82115  19.687  27.643  14.371
 9702W        W82116  44.776  24.612  14.494
 9703W        W82117  10.652  11.628  10.034
 9704W        W82118   6.884   7.355  13.418
 9705W        W82119  22.135   6.883  13.529
 9706W        W82120  22.613  30.979  12.510
 9707W        W82121   8.217   0.480   0.875
 9708W        W82122   3.941   8.666  12.938
 9709W        W82123  43.276  28.448  12.993
 9710W        W82124  38.856  41.390   2.900
 9711W        W82125  36.947  13.335  11.919
 9712W        W82126  29.137  34.534   3.789
 9713W        W82127  36.864  38.868   1.295
 9714W        W82128  32.991  27.447  11.988
 9715W        W82129   2.316  21.021   1.258
 9716W        W82130  23.987  11.797  12.510
 9717W        W82131  16.775  35.948  14.956
 9718W        W82132   2.253  29.948   3.231
 9719W        W82133  33.126   6.216  13.977
 9720W        W82134  40.934  23.716   4.274
 9721W        W82135  22.036  39.061  11.013
 9722W        W82136  43.992  21.213   1.818
 9723W        W82137  10.665  15.274  12.390
 9724W        W82138  12.216  28.519   4.186
 9725W        W82139  38.981  21.243   4.806
 9726W        W82140  26.057  42.384   2.769
 9727W        W82141  23.122  27.562  14.477
 9728W        W82142  26.062  14.835  11.392
 9729W        W82143  18.778  18.770  12.579
 9730W        W82144   5.246  23.178  14.857
 9731W        W82145  28.014  24.508  12.828
 9732W        W82146  11.626  34.420   1.923
 9733W        W82147   1.898  39.939  11.535
 9734W        W82148  24.147  33.041   3.307
 9735W        W82149  12.669  10.842  13.868
 9736W        W82150   7.276  22.587   2.235
 9737W        W82151  13.632   2.920  13.518
 9738W        W82152  31.098  22.673  13.510
 9739W        W82153  34.573  16.648  12.386
 9740W        W82154  13.335  17.222  14.323
 9741W        W82155  32.554  28.102   4.202
 9742W        W82156   2.378  19.538  12.833
 9743W        W82157   1.937  21.215   0.479
 9744W        W82158   1.816   8.727  14.974
 9745W        W82159  35.925   0.346   1.812
 9746W        W82160  37.881  33.397  10.939
 9747W        W82161  13.199  23.026  12.361
 9748W        W82162  14.706   3.233  10.595
 9749W        W82163  14.624  16.788  12.944
 9750W        W82164  29.077  38.819  13.954
 9751W        W82165  26.614  25.498  13.881
 9752W        W82166   4.386   1.910  14.782
 9753W        W82167   9.340  37.033  11.040
 9754W        W82168  22.183  35.037   0.382
 9755W        W82169  34.424   0.361  12.009
 9756W        W82170  37.918  18.217  14.921
 9757W        W82171  16.109  38.029   1.805
 9758W        W82172  24.195   0.472  14.000
 9759W        W82173  35.085   7.676  14.860
 9760W        W82174  32.890  13.706  11.510
 9761W        W82175  33.941  19.159  12.895
 9762W        W82176  39.921   9.362   1.725
 9763W        W82177  28.070  28.040   2.397
 9764W        W82178  10.792  27.640  10.534
 9765W        W82179  19.559  17.703   3.773
 9766W        W82180  14.139  31.907  13.922
 9767W        W82181   2.293  41.477   0.323
 9768W        W82182  19.242  11.846   1.412
 9769W        W82183  36.034   4.746   0.266
 9770W        W82184  21.749   5.237   3.203
 9771W        W82185  34.981  13.702   3.714
 9772W        W82186  33.520   1.775   2.795
 9773W        W82187  30.974  18.632  14.019
 9774W        W82188   3.241  37.485  13.348
 9775W        W82189  21.224  17.623   4.806
 9776W        W82190  31.076  18.150  12.482
 9777W        W82191  33.972  37.851   1.792
 9778W        W82192  38.552   9.161   0.283
 9779W        W82193  19.684   6.338  13.403
 9780W        W82194  41.316   9.710   3.860
 9781W        W82195  22.668   9.257  10.448
 9782W        W82196  12.161  41.904  11.065
 9783W        W82197  26.560  11.671  14.474
 9784W        W82198  22.020   7.756  12.908
 9785W        W82199   0.477  24.070  11.392
 9786W        W82200  41.832   9.188  13.922
 9787W        W82201  11.347  31.479  13.800
 9788W        W82202  11.763  29.524  11.542
 9789W        W82203   6.266  28.586   1.696
 9790W        W82204  13.350  14.144   3.276
 9791W        W82205   2.400   1.451  13.965
 9792W        W82206   6.219  40.327   3.361
 9793W        W82207  11.246  13.184  14.799
 9794W        W82208   4.286  26.638  10.611
 9795W        W82209  24.993  34.430  11.444
 9796W        W82210  30.049  42.002   3.332
 9797W        W82211  44.957  29.504   4.245
 9798W        W82212  42.995  31.541   4.831
 9799W        W82213   3.354  23.604   0.812
 9800W        W82214   6.210  36.534   4.313
 9801W        W82215  38.996   7.372   4.226
 9802W        W82216  16.677  30.583  11.079
 9803W        W82217  24.531  22.191  14.927
 9804W        W82218  24.516  20.106   0.850
 9805W        W82219  40.920  14.641   3.162
 9806W        W82220  16.102  23.999   3.202
 9807W        W82221   7.202  29.625   1.412
 9808W        W82222  42.958  34.070  11.524
 9809W        W82223  35.499  34.368   3.849
 9810W        W82224  33.964  29.923  12.937
 9811W        W82225  37.451   2.781   1.804
 9812W        W82226  32.039   3.277  11.605
 9813W        W82227   3.368  12.259   1.228
 9814W        W82228  14.610   3.864   3.808
 9815W        W82229  10.807  35.861   1.280
 9816W        W82230  11.307  37.947  11.937
 9817W        W82231   0.858  43.472   2.278
 9818W        W82232  27.674  12.742   0.255
 9819W        W82233   8.291  28.542   4.166
 9820W        W82234   2.390  38.352  10.986
 9821W        W82235  43.918  41.453   3.814
 9822W        W82236  16.151  40.363  12.865
 9823W        W82237  35.880  35.373   0.896
 9824W        W82238  26.124   8.224   1.406
 9825W        W82239  19.276  31.426  13.310
 9826W        W82240  11.226  24.197  13.935
 9827W        W82241   9.234   8.674   2.352
 9828W        W82242  28.029  18.767   3.799
 9829W        W82243   6.921  23.654  11.402
 9830W        W82244  35.033  40.003   9.990
 9831W        W82245  31.618  35.894   4.202
 9832W        W82246  11.655  42.324   1.382
 9833W        W82247  15.210  40.454   1.702
 9834W        W82248  20.661   8.198   0.279
 9835W        W82249  42.890  21.061   1.246
 9836W        W82250   6.237  13.181  12.017
 9837W        W82251   8.811   4.419   1.733
 9838W        W82252  25.600   0.972  12.924
 9839W        W82253  24.482  21.127  14.843
 9840W        W82254  34.495   1.385  13.358
 9841W        W82255  29.582   5.356   4.709
 9842W        W82256  33.128  33.580   2.834
 9843W        W82257  14.160  33.505   1.754
 9844W        W82258   8.327  15.769   4.629
 9845W        W82259   3.908  27.492  14.943
 9846W        W82260   2.346  32.120  13.328
 9847W        W82261  16.585  22.741   3.146
 9848W        W82262   7.680  28.502   0.436
 9849W        W82263  44.837  13.143  13.872
 9850W        W82264  22.060   3.363  10.934
 9851W        W82265  31.478  36.057  13.990
 9852W        W82266   7.865  41.402   1.748
 9853W        W82267  21.025  23.165  13.851
 9854W        W82268  23.617  39.352   3.374
 9855W        W82269  38.417  21.144   0.358
 9856W        W82270  41.424   3.802   1.388
 9857W        W82271  19.126   9.740  14.465
 9858W        W82272   9.783   5.421   2.313
 9859W        W82273  37.900   3.859  12.576
 9860W        W82274  43.377  18.658   0.843
 9861W        W82275   5.290   7.287   4.192
 9862W        W82276  41.983  35.401   4.615
 9863W        W82277  14.264  37.061  13.529
 9864W        W82278   6.712   0.414  14.991
 9865W        W82279  21.717  12.736  14.822
 9866W        W82280  17.246  42.494  11.009
 9867W        W82281  24.596  15.295  12.518
 9868W        W82282  14.191  15.326  13.822
 9869W        W82283   5.406  35.369  12.980
 9870W        W82284  24.115  31.637  10.890
 9871W        W82285  43.839   4.763  10.468
 9872W        W82286  22.997  35.899   3.701
 9873W        W82287  42.515  35.913   4.143
 9874W        W82288  11.337  40.314   3.154
 9875W        W82289  37.840  22.648  13.061
 9876W        W82290  11.266  42.959   1.258
 9877W        W82291   2.732  13.273  10.039
 9878W        W82292  17.219   1.429  14.844
 9879W        W82293  33.115   8.686   3.358
 9880W        W82294  14.293   8.890   5.722
 9881W        W82295  17.166  14.134   1.867
 9882W        W82296  17.799  24.981  12.911
 9883W        W82297  38.483  13.137   0.741
 9884W        W82298  19.162  34.578   2.267
 9885W        W82299  15.184   8.284  12.042
 9886W        W82300  11.173  33.530   3.862
 9887W        W82301  13.644  31.585  14.786
 9888W        W82302  25.997   8.354  10.510
 9889W        W82303  20.032  23.122  14.488
 9890W        W82304  14.613  30.928  12.893
 9891W        W82305  35.472   1.276  14.886
 9892W        W82306  25.082  41.986   2.722
 9893W        W82307   6.192  28.155   3.689
 9894W        W82308   5.323  28.139   4.742
 9895W        W82309  29.441  28.080  11.866
 9896W        W82310  15.722  15.289  10.597
 9897W        W82311  19.583  39.884   2.839
 9898W        W82312  38.995  34.409   9.920
 9899W        W82313   3.437  34.934   1.359
 9900W        W82314  26.000  35.854   2.317
 9901W        W82315  18.133  21.573  11.932
 9902W        W82316  12.830  43.344   0.902
 9903W        W82317   7.390  39.951  12.851
 9904W        W82318  19.112   0.478   1.813
 9905W        W82319   2.940   5.384   0.769
 9906W        W82320  13.243   4.276   1.254
 9907W        W82321  18.642   3.754  14.340
 9908W        W82322  10.813   2.303  13.417
 9909W        W82323   5.319  13.110  12.951
 9910W        W82324  28.465  14.591   1.337
 9911W        W82325  24.018  22.023   3.192
 9912W        W82326  12.633  18.680   5.258
 9913W        W82327  30.498  11.215   4.295
 9914W        W82328  32.028   0.450   0.354
 9915W        W82329   8.239  39.989   2.768
 9916W        W82330  42.011  37.068  11.890
 9917W        W82331  12.211  38.439  14.327
 9918W        W82332  29.522   6.904   1.416
 9919W        W82333  40.833  14.662   0.306
 9920W        W82334  18.273   9.802  11.381
 9921W        W82335  44.469  23.144   0.935
 9922W        W82336   2.943  23.563   0.344
 9923W        W82337  32.553  29.054   4.222
 9924W        W82338  16.568  31.978  10.917
 9925W        W82339  43.401   5.272  14.470
 9926W        W82340  16.570  21.704   2.409
 9927W        W82341  23.497  44.318   4.354
 9928W        W82342  10.716  10.214   2.791
 9929W        W82343  32.401  23.514   0.840
 9930W        W82344   5.857  41.981   9.534
 9931W        W82345  33.006  40.053   4.173
 9932W        W82346  36.494  15.153   4.214
 9933W        W82347  40.351  24.161   2.368
 9934W        W82348  28.966  23.023  13.059
 9935W        W82349  42.003  29.956  11.558
 9936W        W82350  14.287  25.680  14.016
 9937W        W82351   0.489  17.188  11.382
 9938W        W82352  27.078  17.294  14.951
 9939W        W82353   5.873  30.122  12.953
 9940W        W82354  29.547  41.896   0.865
 9941W        W82355  30.596   7.747   3.349
 9942W        W82356   5.861   3.346   2.237
 9943W        W82357  22.175  11.637   0.937
 9944W        W82358  39.029  30.150  11.532
 9945W        W82359  33.089   2.788   4.683
 9946W        W82360  30.121  35.961  12.091
 9947W        W82361  30.962  13.269   0.728
 9948W        W82362  25.544  42.287   2.765
 9949W        W82363  17.094  22.091   1.320
 9950W        W82364   9.646  18.241   4.776
 9951W        W82365  12.316  19.236   0.874
 9952W        W82366  13.725  10.650  10.571
 9953W        W82367  27.692  35.861   3.384
 9954W        W82368  18.073   8.736   1.928
 9955W        W82369  39.403  35.602   1.913
 9956W        W82370   6.225   5.797  10.566
 9957W        W82371  25.536  18.153  12.372
 9958W        W82372  42.996  16.281  12.093
 9959W        W82373   8.868  29.497  13.995
 9960W        W82374  13.266   2.813  12.891
 9961W        W82375  33.436  29.633  10.541
 9962W        W82376   6.787  14.188  12.421
 9963W        W82377  10.350  44.427  10.551
 9964W        W82378  41.019  19.774   3.662
 9965W        W82379  24.190  41.963  11.032
 9966W        W82380  29.139  36.909  11.378
 9967W        W82381  28.010  16.705   1.376
 9968W        W82382   8.370  15.085  12.889
 9969W        W82383   3.317   2.886   3.855
 9970W        W82384   0.921  35.426   4.701
 9971W        W82385  32.577  25.196   0.277
 9972W        W82386  13.310  15.762  12.548
 9973W        W82387  24.680   9.382  11.439
 9974W        W82388  30.630  44.916  13.872
 9975W        W82389  33.916  27.454  12.942
 9976W        W82390  10.235  14.664  11.453
 9977W        W82391  32.507  39.354  10.627
 9978W        W82392  32.943   7.253  13.377
 9979W        W82393  39.973   4.829  11.523
 9980W        W82394  12.612  14.659   0.331
 9981W        W82395   2.909  43.355   3.740
 9982W        W82396  39.927  11.202  12.483
 9983W        W82397  22.674  26.582  10.960
 9984W        W82398  10.733  18.092  13.829
 9985W        W82399   9.724  30.455   0.323
 9986W        W82400  41.417  39.827  12.027
 9987W        W82401  34.098   4.870   4.664
 9988W        W82402   2.842  39.019   1.793
 9989W        W82403  43.889   4.290   3.747
 9990W        W82404  23.568  26.569  13.461
 9991W        W82405  25.684  37.357  12.856
 9992W        W82406  10.768  44.405   2.352
 9993W        W82407  12.314  12.229  13.503
 9994W        W82408  41.993   1.241   3.798
 9995W        W82409  36.508  25.157   4.633
 9996W        W82410  26.128  20.189   1.311
 9997W        W82411   1.740  34.903   2.782
 9998W        W82412  42.378  38.912   3.335
 9999W        W82413  35.494  31.940   0.378
10000W        W82414   6.318  31.148  10.495
10001W        W82415  27.194   7.179   1.436
10002W        W82416  34.913  38.928   1.266
10003W        W82417  23.580  22.595  13.515
10004W        W82418  24.718  29.931  13.494
10005W        W82419  24.988  11.157  13.321
10006W        W82420   1.797  26.482   9.495
10007W        W82421  19.657  26.549  14.292
10008W        W82422  26.970  21.548   1.814
10009W        W82423  42.932  24.985  14.890
10010W        W82424   5.784   7.210  11.894
10011W        W82425  41.794  28.464  11.926
10012W        W82426  25.007  39.018  12.942
10013W        W82427  15.122  44.866  13.946
10014W        W82428  39.918  40.392  14.960
10015W        W82429  12.702  26.602   2.397
10016W        W82430  30.555  29.103   0.873
10017W        W82431   0.489   7.851  14.340
10018W        W82432  37.453   3.368  12.426
10019W        W82433  37.518  35.963   0.777
10020W        W82434   4.924  20.184   4.251
10021W        W82435  25.991   0.876  12.547
10022W        W82436   6.310  12.342   1.886
10023W        W82437  16.670  16.654  11.057
10024W        W82438  21.157  17.250   0.872
10025W        W82439  17.767   1.891  12.049
10026W        W82440  43.963  33.906   0.870
10027W        W82441   1.416   0.901  10.559
10028W        W82442  31.065  24.590   4.816
10029W        W82443  25.684  36.948  11.912
10030W        W82444  11.309  41.931   2.298
10031W        W82445  11.689   6.257   1.747
10032W        W82446  27.021  38.070   4.151
10033W        W82447  25.522   9.778   0.903
10034W        W82448  19.658   4.892  13.414
10035W        W82449   4.246   4.869  13.960
10036W        W82450  36.427   4.885   2.729
10037W        W82451  21.023  32.565  12.060
10038W        W82452   9.783  12.839   2.662
10039W        W82453  37.881  34.006  14.022
10040W        W82454  25.055   1.314   1.325
10041W        W82455   9.333  32.091  10.557
10042W        W82456  34.082   2.767  12.877
10043W        W82457  27.119   8.700   0.473
10044W        W82458   1.854  28.509   2.409
10045W        W82459  15.162   2.420   3.239
10046W        W82460  12.719  44.926   4.131
10047W        W82461  13.170  31.541  14.328
10048W        W82462  38.011  29.160   1.244
10049W        W82463  26.047   6.893   0.961
10050W        W82464  35.941  34.500  13.901
10051W        W82465  15.244  28.615   4.119
10052W        W82466  29.078  34.929  10.601
10053W        W82467  11.347  11.164  12.935
10054W        W82468  36.921  23.193  14.398
10055W        W82469   6.322  44.499  11.937
10056W        W82470  14.186   8.316  10.578
10057W        W82471  17.188  17.295   4.254
10058W        W82472  44.831  11.306  13.953
10059W        W82473  36.004  18.721   0.804
10060W        W82474  37.982  17.787   0.734
10061W        W82475  33.076  13.742   3.180
10062W        W82476   0.348   8.211  13.857
10063W        W82477  13.803  26.509   1.800
10064W        W82478  36.045  17.721   3.313
10065W        W82479  35.538  38.438  11.905
10066W        W82480  38.498  31.051  12.353
10067W        W82481   0.969  28.158  10.153
10068W        W82482  28.019  25.149   3.386
10069W        W82483   1.283  26.981   2.887
10070W        W82484  19.709  44.296  14.933
10071W        W82485  41.533  12.142  13.990
10072W        W82486   8.297  14.824   4.180
10073W        W82487  36.938  37.006  14.449
10074W        W82488  25.604   3.937   4.776
10075W        W82489  19.196  13.607  11.518
10076W        W82490  10.844  27.989   4.155
10077W        W82491  25.087  41.463  12.836
10078W        W82492   9.698  35.948   2.339
10079W        W82493   5.197   3.386  12.882
10080W        W82494   5.286  13.724  13.341
10081W        W82495  26.105  41.819  10.946
10082W        W82496  43.768   2.229  11.115
10083W        W82497  11.367  23.597  12.023
10084W        W82498   6.266  33.477   4.819
10085W        W82499  23.665  34.495  12.389
10086W        W82500  18.288   2.310  11.911
10087W        W82501   0.433  14.191  11.566
10088W        W82502  43.806  37.571   1.365
10089W        W82503   2.435  42.798   3.289
10090W        W82504  22.545   9.174   0.780
10091W        W82505  22.577   3.328   0.742
10092W        W82506  39.897  25.468   3.303
10093W        W82507   8.718  29.645   3.802
10094W        W82508   6.921  13.744  13.853
10095W        W82509  43.016  26.027  10.513
10096W        W82510  27.494  30.594  14.782
10097W        W82511   5.434  32.635  10.928
10098W        W82512  32.590  21.072  14.321
10099W        W82513  41.035  44.438   3.856
10100W        W82514   2.820  14.221   4.657
10101W        W82515  26.023   8.758  14.821
10102W        W82516  33.482  15.156  13.862
10103W        W82517  38.859  38.362  10.600
10104W        W82518  12.774  41.357   1.712
10105W        W82519  11.238  36.034  13.458
10106W        W82520  10.238  24.172   5.112
10107W        W82521  35.077   9.264   0.412
10108W        W82522  36.475  15.816   0.367
10109W        W82523  17.112  21.734   4.802
10110W        W82524  19.575  16.284  12.469
10111W        W82525  42.521  28.523  14.480
10112W        W82526  36.894  44.850  13.465
10113W        W82527  24.202  26.186  11.868
10114W        W82528   9.172  26.196  13.817
10115W        W82529  11.305  23.194  14.929
10116W        W82530  19.542  22.732   3.154
10117W        W82531  23.651  12.206  13.817
10118W        W82532  21.229   4.260  13.980
10119W        W82533  33.515  35.479  13.821
10120W        W82534  34.933  16.192   1.927
10121W        W82535   5.909   8.224  14.961
10122W        W82536  33.599  39.916  10.507
10123W        W82537   1.343   1.318  11.427
10124W        W82538   6.407  44.429  10.473
10125W        W82539  36.582  13.650  14.759
10126W        W82540  36.462  25.022  14.291
10127W        W82541  44.428  26.630   2.890
10128W        W82542  28.445   0.817  10.624
10129W        W82543  38.039  20.100   2.321
10130W        W82544  27.013   2.948  13.396
10131W        W82545  17.620   7.198  12.044
10132W        W82546  39.554   6.823   4.117
10133W        W82547  30.508  24.488   1.379
10134W        W82548   7.816  31.424  14.834
10135W        W82549   6.233  35.886   3.735
10136W        W82550  36.388  14.278   1.300
10137W        W82551   2.816  43.810   2.691
10138W        W82552  24.480  38.933  10.520
10139W        W82553  29.068   7.805  12.933
10140W        W82554   1.377  37.410  13.061
10141W        W82555  41.863  35.520   3.345
10142W        W82556  23.183  13.665  14.431
10143W        W82557  16.302  26.600   0.370
10144W        W82558   1.845   6.312   4.307
10145W        W82559  44.411  29.074  10.104
10146W        W82560   1.881   5.793  10.527
10147W        W82561   3.779  10.179  14.289
10148W        W82562   7.342  23.557  12.850
10149W        W82563   7.837  38.514  14.338
10150W        W82564  10.763  24.481   3.363
10151W        W82565  30.117  21.594   3.696
10152W        W82566  44.866  25.470  13.957
10153W        W82567  29.493  31.928   0.880
10154W        W82568  22.695  42.858   5.313
10155W        W82569  22.023  32.529   0.735
10156W        W82570  32.893  19.744   1.861
10157W        W82571  10.723  14.716   2.186
10158W        W82572  12.240   3.375   2.675
10159W        W82573   3.732   8.282   3.152
10160W        W82574   9.873   6.861  11.990
10161W        W82575  29.941  22.225   3.646
10162W        W82576  14.776   0.473   1.402
10163W        W82577  33.601  24.009  14.388
10164W        W82578  26.621  11.338   2.246
10165W        W82579   0.295  38.513  10.558
10166W        W82580  18.674   3.772   1.788
10167W        W82581  37.910  10.756   1.702
10168W        W82582  34.603   8.358  14.859
10169W        W82583  21.126  12.120  13.342
10170W        W82584  40.893  19.763  13.322
10171W        W82585  21.096  27.679   3.676
10172W        W82586  13.237  22.520   1.916
10173W        W82587  42.333  18.652  11.447
10174W        W82588  11.212  40.342   4.183
10175W        W82589  25.599  16.102  14.332
10176W        W82590  15.815  27.647   1.795
10177W        W82591  37.075  43.514  14.773
10178W        W82592  39.317  10.354  12.574
10179W        W82593   1.412   4.746  13.444
10180W        W82594  17.173   3.898  14.497
10181W        W82595  24.525  44.928  14.923
10182W        W82596  11.655  10.689   4.724
10183W        W82597  34.982  13.285   3.215
10184W        W82598  11.207  33.448  12.824
10185W        W82599  33.979  34.044   0.277
10186W        W82600  41.811  20.047   4.652
10187W        W82601  20.187  41.963  13.042
10188W        W82602  10.381  38.990  11.438
10189W        W82603  26.629   1.329  14.463
10190W        W82604  29.991  14.252   0.911
10191W        W82605  23.184   3.743  10.412
10192W        W82606  35.589  44.914   3.693
10193W        W82607  15.259  27.582   1.364
10194W        W82608  18.580  29.060  10.122
10195W        W82609  25.602  44.873   4.795
10196W        W82610  33.504  36.977  13.979
10197W        W82611  20.111  13.173  11.037
10198W        W82612  41.374  33.001  12.987
10199W        W82613   3.364  16.292  13.841
10200W        W82614   9.751  14.761   0.806
10201W        W82615  30.582  33.483   1.238
10202W        W82616  40.449  27.562   4.171
10203W        W82617   4.265  14.189   0.788
10204W        W82618  24.187  20.582   4.779
10205W        W82619  43.986  36.479   2.841
10206W        W82620  26.474  14.704  10.468
10207W        W82621  33.607  26.618  13.937
10208W        W82622  17.271  23.673   4.626
10209W        W82623  21.532  41.482   1.719
10210W        W82624  22.688   7.181   9.990
10211W        W82625  22.169  24.189  12.485
10212W        W82626   8.218  22.625   2.817
10213W        W82627   7.388  19.713   1.858
10214W        W82628  37.980  33.472   4.654
10215W        W82629  34.544   5.861   3.764
10216W        W82630   9.845  37.447  11.600
10217W        W82631  28.434   9.326   3.387
10218W        W82632  45.000  36.364  13.952
10219W        W82633  37.887  17.291  14.798
10220W        W82634  34.090  29.565   3.814
10221W        W82635  42.018  43.351  11.919
10222W        W82636  18.572  17.128  10.151
10223W        W82637  44.428  14.642   3.298
10224W        W82638  11.785   6.410   2.860
10225W        W82639   3.774  39.014   4.287
10226W        W82640  31.550  12.335   1.840
10227W        W82641  21.058  17.673  14.912
10228W        W82642   7.177  32.469   2.884
10229W        W82643  14.252  18.610   2.350
10230W        W82644   5.423   3.813   1.289
10231W        W82645  18.209  22.607   3.341
10232W        W82646   4.842  22.584  14.848
10233W        W82647  21.238  23.659  10.901
10234W        W82648  27.102  43.441   1.307
10235W        W82649  17.180  22.695  11.604
10236W        W82650   3.345  11.861  12.958
10237W        W82651  25.517  17.737  12.544
10238W        W82652  37.340  40.334  10.948
10239W        W82653  42.470  31.103  14.031
10240W        W82654  44.488  11.693  14.304
10241W        W82655  29.558  26.189   1.763
10242W        W82656  26.559  11.199   3.268
10243W        W82657  41.844  10.674  14.889
10244W        W82658   5.845   5.919  12.510
10245W        W82659  24.157  26.101  13.368
10246W        W82660   6.775   3.947   4.199
10247W        W82661  13.698  24.640  12.037
10248W        W82662  29.031  29.929  10.443
10249W        W82663  31.424  40.340  14.801
10250W        W82664  25.504  29.638  13.889
10251W        W82665  31.912   9.686   4.626
10252W        W82666  24.226   2.938  13.884
10253W        W82667  40.935  22.530   0.444
10254W        W82668  30.598  18.079   2.700
10255W        W82669  36.520  10.730  13.026
10256W        W82670  10.812   9.316   2.869
10257W        W82671   9.225  34.424   0.728
10258W        W82672  38.949  30.048  14.865
10259W        W82673  16.228  39.346   3.651
10260W        W82674   5.401   5.687   0.296
10261W        W82675  43.428  37.033  14.510
10262W        W82676  39.371  23.242   4.757
10263W        W82677  32.605  41.491   1.917
10264W        W82678  23.631  43.431  10.516
10265W        W82679   4.773   4.251   0.857
10266W        W82680  16.781   6.789   2.313
10267W        W82681  43.503  28.074  12.561
10268W        W82682  25.108   4.264   2.668
10269W        W82683  34.971   8.238  14.274
10270W        W82684  14.112  42.942  10.498
10271W        W82685  10.721  21.569  10.456
10272W        W82686  31.567  27.684  14.447
10273W        W82687  36.585  12.241   3.332
10274W        W82688   6.729  40.484   3.630
10275W        W82689  10.379  27.575   1.288
10276W        W82690   9.168  33.098   1.401
10277W        W82691   1.803   6.273  13.797
10278W        W82692  13.691  27.108   4.137
10279W        W82693   1.354  35.961   4.683
10280W        W82694  35.057  15.130  14.506
10281W        W82695  27.135  43.422   4.314
10282W        W82696  31.636  39.880   1.836
10283W        W82697  12.341  30.543  12.824
10284W        W82698  36.049   7.323  14.807
10285W        W82699  10.850  16.621  12.860
10286W        W82700  35.890  23.628   3.253
10287W        W82701   0.457  37.350  14.890
10288W        W82702  41.010  28.168  13.538
10289W        W82703  35.508  37.989  11.461
10290W        W82704  41.862   5.318   1.409
10291W        W82705  39.842  44.492   3.814
10292W        W82706  18.254  23.655  14.851
10293W        W82707  40.444  13.769  14.473
10294W        W82708   6.193   7.901  11.067
10295W        W82709  44.260  31.950  10.431
10296W        W82710  30.544  41.297  12.476
10297W        W82711  31.962   7.276   1.266
10298W        W82712  21.249  37.385  11.024
10299W        W82713   7.778   7.404  13.792
10300W        W82714  44.869  34.433  12.442
10301W        W82715   9.316   0.963  10.139
10302W        W82716   0.877  27.687   4.830
10303W        W82717  30.973   3.431   2.204
10304W        W82718  19.706  40.468  11.414
10305W        W82719   0.396  35.406  11.062
10306W        W82720  43.415   0.944   0.425
10307W        W82721  24.610  22.703   3.284
10308W        W82722   2.353  23.132   3.179
10309W        W82723  33.490  40.433   0.270
10310W        W82724   5.193  12.300  11.886
10311W        W82725  20.157   2.934  13.064
10312W        W82726  11.250  24.985  13.963
10313W        W82727  17.758  27.452  12.537
10314W        W82728  33.912  12.254  10.965
10315W        W82729   1.853  36.371   1.336
10316W        W82730  39.044  16.141  12.518
10317W        W82731  43.810  31.949  14.985
10318W        W82732  31.960  10.777  14.923
10319W        W82733  29.446  35.590  11.529
10320W        W82734  30.618  25.693  11.934
10321W        W82735  27.998  42.398   0.742
10322W        W82736  40.802  11.791  12.940
10323W        W82737   4.935  41.863   4.698
10324W        W82738  31.989   8.205  14.345
10325W        W82739  23.067  33.925   2.362
10326W        W82740  17.756  11.637  12.453
10327W        W82741  44.774  30.499   1.935
10328W        W82742  15.685  29.661   4.673
10329W        W82743  44.364   4.801   0.939
10330W        W82744  39.963  35.358  12.975
10331W        W82745  30.957   7.330   5.158
10332W        W82746  11.830   7.718   2.312
10333W        W82747   4.942  30.629  14.474
10334W        W82748   6.245  34.453  11.495
10335W        W82749  27.159  36.008   0.452
10336W        W82750  41.883   8.371   4.274
10337W        W82751  16.108  27.016   2.902
10338W        W82752  44.767  23.992  11.594
10339W        W82753  22.746  15.227  12.370
10340W        W82754  13.624  34.871   2.340
10341W        W82755   1.369   5.855  11.533
10342W        W82756  24.135  28.061   2.780
10343W        W82757  29.023  31.442  14.823
10344W        W82758   0.401  22.722  14.490
10345W        W82759  13.191  42.858   3.779
10346W        W82760  35.002  14.787   2.190
10347W        W82761  11.659   9.768  13.016
10348W        W82762  11.230   0.349   4.684
10349W        W82763  29.568   9.324   4.650
10350W        W82764   7.355  10.647   2.890
10351W        W82765   1.940  34.389   1.710
10352W        W82766   3.418   8.751  13.960
10353W        W82767  17.092  11.828   5.272
10354W        W82768  25.989  28.569   1.914
10355W        W82769  26.985  17.780  11.053
10356W        W82770  36.012  10.325   2.685
10357W        W82771  37.445   6.785   4.225
10358W        W82772  10.738  25.686  11.030
10359W        W82773   0.911  42.836   4.636
10360W        W82774  36.868  29.558   1.408
10361W        W82775  12.249  23.708   4.674
10362W        W82776  19.575  31.597   2.335
10363W        W82777   3.786   2.289  10.593
10364W        W82778  10.748  16.793   3.762
10365W        W82779  37.879  22.999  11.867
10366W        W82780   6.812  20.672   1.863
10367W        W82781  28.452  30.909   1.273
10368W        W82782  21.710  40.496  14.964
10369W        W82783  25.035  28.998   2.310
10370W        W82784   8.219  21.248  11.992
10371W        W82785   5.777   4.220  13.308
10372W        W82786  18.704  28.031   2.688
10373W        W82787  27.142  11.726  11.082
10374W        W82788  24.035   5.396   1.214
10375W        W82789  31.642   0.900   3.806
10376W        W82790   9.163  21.691  13.402
10377W        W82791   4.941   5.829   0.335
10378W        W82792   4.825   7.283   4.218
10379W        W82793   9.704  19.749   2.218
10380W        W82794   3.778  21.151  11.110
10381W        W82795  41.407  22.747  13.831
10382W        W82796  16.101  36.558  12.975
10383W        W82797  14.599   0.355  10.551
10384W        W82798   8.704  17.682  11.918
10385W        W82799  41.797   9.308   0.295
10386W        W82800  43.950   1.389   1.892
10387W        W82801  13.818  31.000   2.770
10388W        W82802  38.360   2.276   2.196
10389W        W82803   4.355  14.766   4.122
10390W        W82804  34.038  31.946  12.088
10391W        W82805   3.283  10.663  11.415
10392W        W82806  36.356  43.005   2.751
10393W        W82807   8.833   3.278  14.976
10394W        W82808  39.969  41.871   1.357
10395W        W82809  22.242  37.016  10.962
10396W        W82810   6.361  10.303   4.669
10397W        W82811  36.000   8.382   2.311
10398W        W82812   5.417  12.828   2.213
10399W        W82813   6.723  28.515   2.812
10400W        W82814  31.991  41.986   0.332
10401W        W82815  21.528   2.848  13.544
10402W        W82816   4.880  33.052  14.769
10403W        W82817  15.682  33.499  14.868
10404W        W82818  33.961  11.358   1.849
10405W        W82819   3.760   2.923   4.308
10406W        W82820   8.201  38.839  11.997
10407W        W82821  27.112  19.123   4.733
10408W        W82822  18.118  34.608   4.202
10409W        W82823  35.863  43.490   4.115
10410W        W82824  25.557  35.542  11.078
10411W        W82825  27.633  16.590   0.804
10412W        W82826  29.573   6.270  10.463
10413W        W82827  35.366  19.106   4.633
10414W        W82828  36.422  30.488  10.046
10415W        W82829  11.355   5.301   3.805
10416W        W82830  19.178   4.449   2.231
10417W        W82831   2.952  30.418   3.245
10418W        W82832   4.865  26.501  10.948
10419W        W82833  39.862  43.992  11.117
10420W        W82834  16.147   8.795   2.731
10421W        W82835  20.227  14.594   4.749
10422W        W82836  36.896  21.213  12.049
10423W        W82837   8.783  27.035   2.729
10424W        W82838  30.108  15.096  11.990
10425W        W82839   4.774  10.150  14.801
10426W        W82840   1.831  18.212   4.645
10427W        W82841  21.259  11.272  14.890
10428W        W82842  35.594  27.561   4.354
10429W        W82843  30.609  18.624   0.397
10430W        W82844  19.160  28.614  12.051
10431W        W82845   6.248   2.459   2.217
10432W        W82846  23.191  38.518   4.305
10433W        W82847  10.714  40.545  11.497
10434W        W82848  33.017  29.024  14.851
10435W        W82849   0.455   2.852   2.366
10436W        W82850  30.099  37.381   1.220
10437W        W82851  10.858  27.641   4.725
10438W        W82852   8.747  38.853   4.748
10439W        W82853  19.642  34.964   2.853
10440W        W82854  41.460   4.725   2.199
10441W        W82855  13.677  14.828  14.949
10442W        W82856  28.655   0.403  12.876
10443W        W82857   5.766   6.411   4.687
10444W        W82858  18.202  26.588  14.457
10445W        W82859  20.171  35.404  11.588
10446W        W82860  25.176  25.182  14.923
10447W        W82861  13.222  10.731  13.345
10448W        W82862  29.443   6.739   3.263
10449W        W82863  44.319  28.956   0.433
10450W        W82864  23.662   6.845   1.319
10451W        W82865   1.806   9.776   4.299
10452W        W82866  41.461  15.113  11.391
10453W        W82867  12.653  37.935  10.500
10454W        W82868   9.651  34.613  13.033
10455W        W82869   0.422   2.807   0.838
10456W        W82870  43.899  33.068   4.788
10457W        W82871  10.322  41.507   4.822
10458W        W82872  20.167  33.042   0.774
10459W        W82873  31.551  30.484  11.070
10460W        W82874  32.444  32.561  13.368
10461W        W82875  11.665   6.811  10.518
10462W        W82876   3.748   5.787  10.437
10463W        W82877  10.769  27.020  10.473
10464W        W82878  30.958   8.765   0.321
10465W        W82879  30.499  20.147  14.490
10466W        W82880  27.610  16.113   2.288
10467W        W82881   3.416  31.418   2.849
10468W        W82882   3.946  15.674  10.043
10469W        W82883  29.603  28.169   1.378
10470W        W82884  31.571  14.804  11.078
10471W        W82885   5.898  31.121  11.491
10472W        W82886  17.562   9.383  12.876
10473W        W82887  43.903  10.333   4.293
10474W        W82888  24.669  43.507   4.640
10475W        W82889  35.515   1.899   3.658
10476W        W82890   7.398   7.729   0.861
10477W        W82891  42.833   8.190  14.351
10478W        W82892  13.269  31.424   4.701
10479W        W82893   1.876  16.132   4.239
10480W        W82894  23.631  35.455  12.476
10481W        W82895   1.418  19.190   4.819
10482W        W82896  41.432  29.529  13.499
10483W        W82897  17.588  11.659  11.607
10484W        W82898   5.425  11.790  11.104
10485W        W82899  14.196   3.449  11.111
10486W        W82900  33.986  38.339  10.980
10487W        W82901  24.551  40.817   1.912
10488W        W82902  10.181   1.380   3.808
10489W        W82903  16.785  44.389  12.518
10490W        W82904  14.632  24.118   0.252
10491W        W82905  27.129   7.202  13.977
10492W        W82906   1.876  18.730  10.557
10493W        W82907   4.370   7.343   0.916
10494W        W82908  42.328  37.405  14.995
10495W        W82909  25.187  11.684   3.181
10496W        W82910  16.224  40.879   0.340
10497W        W82911  25.126   5.407   0.453
10498W        W82912   1.454  35.006  12.852
10499W        W82913   7.209  37.905  10.587
10500W        W82914  39.962  24.694   0.425
10501W        W82915  21.243  24.216  13.972
10502W        W82916  21.635  25.190   0.799
10503W        W82917  17.229  37.902  13.799
10504W        W82918   5.224  35.519   4.289
10505W        W82919  43.316  15.157   4.773
10506W        W82920  19.286  41.935   1.699
10507W        W82921  25.149  14.813   0.950
10508W        W82922  35.406  23.573   1.840
10509W        W82923   9.318  28.639   0.781
10510W        W82924  39.921  36.356  14.835
10511W        W82925  24.196  14.284   4.219
10512W        W82926  18.248  29.152  13.372
10513W        W82927  24.559  44.451  14.398
10514W        W82928  32.915  10.855   0.776
10515W        W82929  11.261  21.526  12.878
10516W        W82930  36.490   1.884   4.123
10517W        W82931   4.245   6.750  14.905
10518W        W82932  26.176   3.438  14.792
10519W        W82933  20.271  38.939   3.358
10520W        W82934   4.374  33.414  13.909
10521W        W82935  41.535  36.854  13.825
10522W        W82936  43.984  16.597  12.070
10523W        W82937  43.944   1.754  13.984
10524W        W82938   5.429  42.935  13.993
10525W        W82939   0.961   0.853   2.390
10526W        W82940  21.203  27.587   0.965
10527W        W82941  41.882  23.081   0.368
10528W        W82942   9.306   4.793   3.869
10529W        W82943  38.868  22.612   4.684
10530W        W82944   3.955  10.236  10.159
10531W        W82945  44.362  22.730  13.535
10532W        W82946  43.909  43.417   3.725
10533W        W82947  22.176   5.706   1.898
10534W        W82948  34.017  17.621  10.628
10535W        W82949   5.797  13.272  12.569
10536W        W82950  19.727   7.244  11.893
10537W        W82951  21.067  42.469  12.037
10538W        W82952   1.868  24.000  12.930
10539W        W82953  34.608  21.256  10.031
10540W        W82954   2.965  42.481   1.423
10541W        W82955  10.873  26.591  13.041
10542W        W82956  21.043  14.226  12.922
10543W        W82957  27.117   0.876   4.114
10544W        W82958  25.643  31.467   1.784
10545W        W82959   7.285  25.686   3.213
10546W        W82960  16.181  16.133   2.314
10547W        W82961  35.577   0.375   4.320
10548W        W82962   7.249  41.421   1.752
10549W        W82963  22.019  43.313   2.845
10550W        W82964   2.819  24.216   2.877
10551W        W82965  22.626  10.156  13.470
10552W        W82966  26.187  38.491  13.404
10553W        W82967   1.343  22.065  11.941
10554W        W82968   8.386   9.743  13.053
10555W        W82969  42.435  11.662  10.992
10556W        W82970  14.137  37.872   3.194
10557W        W82971  44.500  14.127  14.946
10558W        W82972   7.789  15.196   4.755
10559W        W82973  21.082  23.651   4.144
10560W        W82974   5.203  37.041   1.793
10561W        W82975   1.407  12.259   2.699
10562W        W82976  28.113  37.388  14.022
10563W        W82977  31.117  27.109   3.338
10564W        W82978  29.613  28.529   4.152
10565W        W82979  19.125  31.023  10.595
10566W        W82980  44.336  21.104  13.991
10567W        W82981   7.687  26.687   3.266
10568W        W82982  14.805  10.659   4.205
10569W        W82983  16.611  11.270  10.932
10570W        W82984  19.087   7.800   3.318
10571W        W82985  42.476   1.811   2.781
10572W        W82986  27.096  38.412  12.344
10573W        W82987   0.303  11.276   1.450
10574W        W82988  12.299  15.772   2.355
10575W        W82989   3.941  32.629   1.810
10576W        W82990  42.814  20.092   3.221
10577W        W82991  28.516  12.245  12.569
10578W        W82992  28.022   7.856  12.359
10579W        W82993  40.899  37.831  13.793
10580W        W82994  13.342  41.852   0.382
10581W        W82995  18.573  28.438  14.886
10582W        W82996  35.003  19.686   2.735
10583W        W82997   1.390  14.338  14.770
10584W        W82998  16.092  35.489  13.862
10585W        W82999  11.623  20.689   4.728
10586W        W83000  23.149   9.832   3.853
10587W        W83001  21.637  37.508   4.219
10588W        W83002  20.115   2.295   4.767
10589W        W83003  17.098  26.093  11.470
10590W        W83004  38.976  13.635   4.320
10591W        W83005  22.723  14.105   2.416
10592W        W83006  14.198  10.346   2.360
10593W        W83007  31.497  38.958   0.843
10594W        W83008  31.569  18.639  11.057
10595W        W83009  21.724  36.373   3.722
10596W        W83010  39.850  28.540   3.263
10597W        W83011  23.140  24.626  12.073
10598W        W83012  17.090   9.321  13.880
10599W        W83013  43.875  14.629   1.748
10600W        W83014   5.745  33.616   4.115
10601W        W83015   2.809  27.684   0.266
10602W        W83016  21.713  18.064   3.216
10603W        W83017  21.224  28.549   1.872
10604W        W83018  10.144  31.077  12.009
10605W        W83019   8.660  27.451   4.737
10606W        W83020  41.463  26.522   0.419
10607W        W83021   8.664  26.487   0.730
10608W        W83022  34.868   6.263  13.354
10609W        W83023   4.353  15.726   3.332
10610W        W83024   9.784  39.507  13.857
10611W        W83025  37.561  30.066   3.817
10612W        W83026  23.597  16.742  10.075
10613W        W83027  21.588  17.585   3.684
10614W        W83028  20.601  44.958   5.273
10615W        W83029  30.486  27.469   4.283
10616W        W83030  16.614  31.438   2.379
10617W        W83031  14.791  33.624   3.828
10618W        W83032  28.975  29.569  12.486
10619W        W83033   0.753  33.904   3.271
10620W        W83034  12.817  33.596   2.394
10621W        W83035  22.085  32.928  10.496
10622W        W83036  25.194  29.619  10.490
10623W        W83037  12.775  30.503   2.298
10624W        W83038   1.249  44.307  14.377
10625W        W83039  21.261   2.439  11.395
10626W        W83040  35.862  14.122   2.879
10627W        W83041   2.291  21.129   4.832
10628W        W83042  24.003  28.537   3.335
10629W        W83043  11.287  33.530   1.432
10630W        W83044  18.125   2.356  11.106
10631W        W83045  14.790   3.742  11.589
10632W        W83046  24.014  20.123  12.000
10633W        W83047  41.517   6.408  11.975
10634W        W83048  41.931  41.041  12.936
10635W        W83049  34.549   0.358   2.844
10636W        W83050  22.746  27.191   2.309
10637W        W83051  25.685  20.717   2.766
10638W        W83052  23.999  33.089  12.486
10639W        W83053  12.147  16.693  12.355
10640W        W83054  25.490   4.265  13.952
10641W        W83055  28.012  42.793   2.668
10642W        W83056  14.685  42.333  14.426
10643W        W83057  12.697   3.325   3.308
10644W        W83058  42.347  14.234   0.754
10645W        W83059   2.364  24.650  11.591
10646W        W83060   9.384  19.646  11.490
10647W        W83061  32.071   8.310  14.941
10648W        W83062  15.589  27.149  12.948
10649W        W83063  31.539   6.351  14.853
10650W        W83064  20.626  41.300   3.634
10651W        W83065  18.623  17.599  12.944
10652W        W83066   9.665  10.717   1.852
10653W        W83067   5.235  32.022  14.468
10654W        W83068  36.924   0.961  14.968
10655W        W83069  36.360  18.609  12.391
10656W        W83070  27.968  31.079  12.089
10657W        W83071  11.724  16.277  10.908
10658W        W83072   6.780  16.131  13.971
10659W        W83073  13.656  33.567  13.821
10660W        W83074  21.133  43.920   1.249
10661W        W83075   1.277  25.186  13.827
10662W        W83076  34.415  18.620  14.821
10663W        W83077  42.987  30.547  10.954
10664W        W83078  15.294  24.702  13.348
10665W        W83079   6.713  21.719  14.395
10666W        W83080  18.562  35.069  14.957
10667W        W83081  19.229   3.308   4.114
10668W        W83082  26.104  15.284   0.422
10669W        W83083  24.974   2.412   2.820
10670W        W83084  43.846  10.259  12.375
10671W        W83085  13.183  13.108   3.729
10672W        W83086  41.377   7.202  12.914
10673W        W83087  16.722  25.616   4.196
10674W        W83088   1.747   0.968  11.044
10675W        W83089  35.886  18.644  14.992
10676W        W83090  39.854  19.243  10.598
10677W        W83091  40.973  35.401   1.309
10678W        W83092   2.378  10.686  12.544
10679W        W83093  11.252  10.766  14.784
10680W        W83094  36.400  22.078   2.881
10681W        W83095   2.324  15.622  13.412
10682W        W83096  38.345  43.901  13.502
10683W        W83097  37.371  28.478   2.404
10684W        W83098   2.348  25.636  14.511
10685W        W83099   9.251   0.830   3.791
10686W        W83100   4.337  43.508  11.082
10687W        W83101   6.757  32.529  13.966
10688W        W83102  26.518  32.112   0.846
10689W        W83103  41.808  31.106  14.407
10690W        W83104  15.100  37.391  11.874
10691W        W83105   6.377   5.871  12.373
10692W        W83106  25.526   6.828   0.455
10693W        W83107  32.943   8.851   2.253
10694W        W83108  36.876  41.805   2.352
10695W        W83109  35.499  14.745  14.832
10696W        W83110  13.184  18.143  12.019
10697W        W83111  41.825  38.056   3.757
10698W        W83112  41.864  38.515  13.363
10699W        W83113  24.516  38.930   1.795
10700W        W83114  27.553  16.770  14.432
10701W        W83115  35.563  38.555  13.477
10702W        W83116  13.188   4.413   2.819
10703W        W83117  25.476  23.047  13.899
10704W        W83118   5.727  44.388   1.261
10705W        W83119   0.452  17.676   4.734
10706W        W83120   9.352  21.563   0.885
10707W        W83121  11.338  26.952   4.203
10708W        W83122  25.092  41.840  11.983
10709W        W83123   9.225  29.118  10.540
10710W        W83124  22.687  35.079   1.294
10711W        W83125   4.257  40.408  10.006
10712W        W83126  15.200  21.730   0.362
10713W        W83127   3.782  21.040   3.352
10714W        W83128  21.545   5.783   4.353
10715W        W83129   6.868  33.887  11.066
10716W        W83130  15.091  36.016   1.211
10717W        W83131  35.929  23.149   5.216
10718W        W83132  22.066  36.956  14.396
10719W        W83133  15.762   1.750  13.793
10720W        W83134  17.100  21.190  12.377
10721W        W83135  37.061  20.563  10.978
10722W        W83136   5.705  35.073   1.848
10723W        W83137   2.409   4.433  14.977
10724W        W83138   2.777   0.865  14.364
10725W        W83139   6.899   6.298   3.226
10726W        W83140  40.395  11.682   4.803
10727W        W83141  44.288   0.871  13.317
10728W        W83142  14.814  14.769  10.979
10729W        W83143  33.548  11.861  11.917
10730W        W83144  39.905  20.642   3.183
10731W        W83145   4.289  17.691  13.811
10732W        W83146  42.463  29.016   4.670
10733W        W83147  21.702  23.051   2.359
10734W        W83148  42.525  33.413  14.357
10735W        W83149   4.335  32.095  11.100
10736W        W83150  35.931  21.692   0.396
10737W        W83151  11.317  11.702   1.414
10738W        W83152  40.007  29.016  12.059
10739W        W83153  40.009  38.999  11.073
10740W        W83154   8.171  32.411   4.614
10741W        W83155  26.112  42.952  11.545
10742W        W83156   8.295  44.942   1.820
10743W        W83157  33.971  29.015  10.455
10744W        W83158  39.947  36.093   4.770
10745W        W83159  15.319  16.676  13.443
10746W        W83160   5.739  38.074  13.923
10747W        W83161   9.169   6.412   1.720
10748W        W83162  28.563  26.010   1.874
10749W        W83163  19.244  25.626  12.905
10750W        W83164  35.364   4.886   1.751
10751W        W83165  16.094  34.914  14.976
10752W        W83166   2.862  26.046   5.771
10753W        W83167  32.463  44.913   0.331
10754W        W83168  20.136  22.724   4.244
10755W        W83169  39.817   3.437   2.335
10756W        W83170  27.469  21.653   2.357
10757W        W83171   2.888  14.187  13.477
10758W        W83172  27.469  42.880   4.802
10759W        W83173  41.012  23.095  13.932
10760W        W83174  13.288   4.926   1.718
10761W        W83175  41.916  30.993  12.519
10762W        W83176  19.275   9.863  12.570
10763W        W83177   1.243  32.499  12.552
10764W        W83178   9.154  29.626  12.095
10765W        W83179  41.377  15.228   0.782
10766W        W83180   1.828  35.073  13.450
10767W        W83181  23.684  19.190  12.067
10768W        W83182  14.791  26.688  13.960
10769W        W83183  35.901  44.905  12.003
10770W        W83184  42.794  29.588   3.348
10771W        W83185   6.356  42.986   3.643
10772W        W83186  18.591  41.417   4.612
10773W        W83187   6.399  44.772   2.251
10774W        W83188  17.076  16.644   2.374
10775W        W83189   8.234  42.407   2.396
10776W        W83190  39.454  29.502   4.826
10777W        W83191   6.408   9.823   4.122
10778W        W83192   9.394  23.681  11.386
10779W        W83193  36.551  12.786   4.790
10780W        W83194  12.852   5.911   4.741
10781W        W83195  30.524  41.983   1.919
10782W        W83196  35.107  11.628   5.111
10783W        W83197  33.955  25.634  13.372
10784W        W83198  16.217   2.851   0.424
10785W        W83199  24.635  18.100   1.241
10786W        W83200  39.459   3.824   1.448
10787W        W83201  13.638  31.078   0.434
10788W        W83202  39.855   7.209  14.793
10789W        W83203  44.900  11.233   2.293
10790W        W83204   9.697  29.002  14.831
10791W        W83205  17.162  10.651   2.295
10792W        W83206  34.920  40.826   2.259
10793W        W83207  22.538  12.839  14.499
10794W        W83208  38.988  26.017   0.786
10795W        W83209  19.607  13.738   1.333
10796W        W83210  31.601   9.247  13.361
10797W        W83211  19.260  26.167  11.487
10798W        W83212  27.464  18.254  10.508
10799W        W83213  25.565  41.432  14.822
10800W        W83214  31.995  18.161   0.811
10801W        W83215  44.913   4.348  11.101
10802W        W83216   0.955  22.588   3.277
10803W        W83217  13.146  17.125   3.225
10804W        W83218  36.381  14.208  13.886
10805W        W83219  21.142  21.073   5.135
10806W        W83220   8.367  26.601   1.248
10807W        W83221   8.900  42.955   0.748
10808W        W83222  18.612  27.682  14.799
10809W        W83223  12.132   3.411  10.481
10810W        W83224  32.018  14.208   3.776
10811W        W83225  14.781  30.594  13.879
10812W        W83226  29.450  26.955  10.920
10813W        W83227  10.292  40.966   2.670
10814W        W83228  11.696  41.402   1.337
10815W        W83229   0.959  25.649  10.946
10816W        W83230   9.727   5.795  11.559
10817W        W83231  41.492  28.944  11.421
10818W        W83232  16.215  37.401  10.619
10819W        W83233   5.360  34.508   1.855
10820W        W83234   5.840  13.814  11.455
10821W        W83235  21.715  41.338  10.521
10822W        W83236  32.525  40.994  13.370
10823W        W83237  31.557   0.812   1.820
10824W        W83238  24.100   1.890   1.784
10825W        W83239   9.797  35.365   1.351
10826W        W83240  44.762  35.870   3.855
10827W        W83241   7.210  27.958  12.491
10828W        W83242   6.895   8.807   3.278
10829W        W83243   4.769  10.654   4.180
10830W        W83244  40.430  43.888  13.979
10831W        W83245  44.446  30.530   1.330
10832W        W83246  13.638  40.961   4.610
10833W        W83247  13.843  42.862   5.214
10834W        W83248   6.322  42.525   2.882
10835W        W83249   5.386  13.809   3.333
10836W        W83250  14.658  10.262   3.857
10837W        W83251  13.149   2.269  14.340
10838W        W83252   3.405  29.647   5.231
10839W        W83253  18.274  32.043  10.591
10840W        W83254  17.148   0.462   1.726
10841W        W83255   7.412  21.727  10.447
10842W        W83256  28.107  41.476  10.073
10843W        W83257  18.127  16.297  10.453
10844W        W83258   7.330  38.559  14.450
10845W        W83259  27.653  26.179  11.562
10846W        W83260  37.852   1.336  13.425
10847W        W83261   1.369  44.764  13.963
10848W        W83262  13.716   9.368  12.092
10849W        W83263   4.892  42.961   2.826
10850W        W83264  44.400  10.681  10.590
10851W        W83265  30.568   2.847  11.097
10852W        W83266   5.903   8.404   2.698
10853W        W83267   2.283  12.708   2.854
10854W        W83268  13.306  21.058  11.054
10855W        W83269   4.311  44.317   4.801
10856W        W83270  24.148   8.782  11.990
10857W        W83271  43.418  23.174  11.045
10858W        W83272  12.822  27.030   1.843
10859W        W83273   0.359  26.622   3.177
10860W        W83274  42.906  42.416   3.205
10861W        W83275  23.170  24.213   0.817
10862W        W83276  40.308  30.021  12.972
10863W        W83277   1.357  42.437   0.953
10864W        W83278   5.914  25.606  14.439
10865W        W83279  32.886  11.696  14.822
10866W        W83280   0.895  22.094  13.328
10867W        W83281   8.161  41.824  13.912
10868W        W83282  12.786   4.710  13.031
10869W        W83283  29.623  36.524   0.867
10870W        W83284  23.126  37.898   0.303
10871W        W83285  36.096  41.366  14.869
10872W        W83286   6.803  26.961   0.945
10873W        W83287  15.709  43.270   1.923
10874W        W83288   6.383  32.448  10.593
10875W        W83289  32.918  23.686   0.282
10876W        W83290  17.763   0.921   4.692
10877W        W83291  26.462  38.873  12.075
10878W        W83292   5.796  20.615   2.355
10879W        W83293  32.078  41.454   3.325
10880W        W83294  10.219  17.125   3.794
10881W        W83295  10.292  29.925   2.280
10882W        W83296  11.809  14.161   3.806
10883W        W83297  18.280  20.714   1.364
10884W        W83298   4.228  27.617  11.480
10885W        W83299  14.771  23.537   1.786
10886W        W83300  18.634  22.029  12.879
10887W        W83301   2.795   9.841   1.248
10888W        W83302   7.713  21.046  10.049
10889W        W83303  37.389  30.103  13.929
10890W        W83304  26.667  40.525   1.695
10891W        W83305   8.748   3.884   2.788
10892W        W83306  36.885  36.390   3.713
10893W        W83307   8.186  32.597  11.476
10894W        W83308  38.932   1.736   4.190
10895W        W83309  14.590  11.716  13.000
10896W        W83310   1.298  24.107  12.453
10897W        W83311  19.678   6.759   3.741
10898W        W83312  22.513  37.482  14.788
10899W        W83313   6.884   0.901   3.337
10900W        W83314  31.007  24.671  12.450
10901W        W83315  26.983  36.563   4.702
10902W        W83316  14.124   6.873  11.874
10903W        W83317  21.715  36.020  13.518
10904W        W83318  21.219  10.285  11.383
10905W        W83319  22.040  34.080  11.406
10906W        W83320   7.767  27.031   4.231
10907W        W83321   0.902  16.238   3.698
10908W        W83322   9.709  35.501  11.090
10909W        W83323  30.009  16.272   2.786
10910W        W83324   8.405  42.786  14.821
10911W        W83325  21.214   0.407   2.773
10912W        W83326   3.417   6.877  10.521
10913W        W83327   3.909  30.467  11.968
10914W        W83328   4.702   8.839  13.896
10915W        W83329  35.939   6.906  14.347
10916W        W83330  34.120   9.266   0.928
10917W        W83331  32.474  42.349   1.825
10918W        W83332  28.525  34.489   4.627
10919W        W83333   7.253   0.969   4.131
10920W        W83334  30.506  20.159  11.479
10921W        W83335  27.949  31.448   1.847
10922W        W83336  44.357  11.221   2.232
10923W        W83337  31.602  15.797   2.235
10924W        W83338   4.216  13.632  14.764
10925W        W83339  30.108  13.146   1.345
10926W        W83340  30.413   0.350   0.754
10927W        W83341   3.727  30.017   1.888
10928W        W83342   8.686  18.680   0.382
10929W        W83343  16.682  41.487  10.582
10930W        W83344  26.553  22.615   1.437
10931W        W83345  40.487   7.381   3.284
10932W        W83346   9.310   0.905   4.767
10933W        W83347  31.437  12.746  12.885
10934W        W83348  15.816  38.833   0.300
10935W        W83349   5.865  36.447   1.769
10936W        W83350  34.584  23.092   0.898
10937W        W83351  18.216  37.445  14.340
10938W        W83352  23.686   3.868   0.859
10939W        W83353  26.583   2.739  10.983
10940W        W83354  33.556  31.077  12.522
10941W        W83355  15.798   3.866   2.387
10942W        W83356  40.020  16.664   3.735
10943W        W83357   0.367   0.865  11.975
10944W        W83358  16.249  36.966   2.398
10945W        W83359  44.306  26.124   3.336
10946W        W83360  17.631  29.984   1.729
10947W        W83361  32.941  44.852   1.905
10948W        W83362  10.316   5.313  14.957
10949W        W83363  43.401  42.947   1.442
10950W        W83364  20.222  18.107   9.946
10951W        W83365   0.927   8.850  12.499
10952W        W83366  42.814  34.942  14.415
10953W        W83367  38.992  29.088  10.931
10954W        W83368   7.233  23.578  14.316
10955W        W83369  10.748   3.877   0.368
10956W        W83370  15.589   6.877   1.728
10957W        W83371  42.776  30.981  14.904
10958W        W83372  27.165  23.647   3.380
10959W        W83373  29.921  39.406   1.824
10960W        W83374   3.905   1.908  11.452
10961W        W83375  43.316  19.186   4.811
10962W        W83376  42.802   6.729  12.953
10963W        W83377  44.358  38.494  14.031
10964W        W83378  17.153  13.614   1.352
10965W        W83379  15.276  17.158  14.870
10966W        W83380  41.387  15.098   1.210
10967W        W83381  31.510  28.517  13.464
10968W        W83382   2.468  39.494  11.389
10969W        W83383  31.039  22.538  10.501
10970W        W83384   1.841  41.520  13.829
10971W        W83385  28.000  15.765   4.323
10972W        W83386   8.259  34.437  11.950
10973W        W83387  11.191  12.666   4.651
10974W        W83388  14.292  36.426   2.260
10975W        W83389  37.070  16.582   3.213
10976W        W83390   0.946  16.726   4.289
10977W        W83391  31.141  17.238   0.453
10978W        W83392  12.252   3.860   2.895
10979W        W83393  31.144   0.387  14.988
10980W        W83394  41.820  15.661   0.875
10981W        W83395  32.601  33.615   1.241
10982W        W83396  14.186  20.665   4.765
10983W        W83397  25.046  37.369   2.897
10984W        W83398   0.982  28.178   4.720
10985W        W83399  18.623   9.861  14.320
10986W        W83400  28.078   7.408  14.879
10987W        W83401  42.888  21.030  10.919
10988W        W83402   8.336   3.749  13.044
10989W        W83403  10.722   5.760   1.717
10990W        W83404   5.752   5.306   1.406
10991W        W83405   6.763  44.881   3.323
10992W        W83406  34.076   2.400  11.059
10993W        W83407  32.518   6.348   1.436
10994W        W83408  23.507  20.184  11.584
10995W        W83409  43.006   4.743  14.338
10996W        W83410  18.714  36.019  14.447
10997W        W83411   9.861  31.550   0.363
10998W        W83412   6.243  33.606  14.401
10999W        W83413  14.703  13.169   1.767
11000W        W83414  24.019  21.153   2.388
11001W        W83415  12.833   2.364  11.419
11002W        W83416  26.659  10.814  11.564
11003W        W83417  41.341  24.089  11.122
11004W        W83418   2.932  16.568  14.962
11005W        W83419   6.312  15.089   2.801
11006W        W83420  33.921   8.745  10.535
11007W        W83421   8.258  28.523   0.900
11008W        W83422  32.494  21.082  12.501
11009W        W83423  10.741  20.632   0.296
11010W        W83424  36.471  11.707   9.937
11011W        W83425  24.647   1.756  13.394
11012W        W83426   8.704  30.592  11.414
11013W        W83427  13.802  35.417   4.206
11014W        W83428  30.592  28.132  11.471
11015W        W83429  10.305  28.493   4.164
11016W        W83430   3.885  10.776  11.899
11017W        W83431  17.800  16.591  10.497
11018W        W83432  19.069  44.966   2.283
11019W        W83433  32.420  27.071  10.436
11020W        W83434  36.999  36.096   5.661
11021W        W83435  17.707   4.405   4.345
11022W        W83436   5.709  40.968  12.071
11023W        W83437  28.150  29.067  11.127
11024W        W83438  28.461  26.687  14.941
11025W        W83439  30.071  13.747   3.246
11026W        W83440  38.839  43.966  13.480
11027W        W83441  17.108   2.348  11.991
11028W        W83442  44.425  40.874   1.790
11029W        W83443  16.699  26.502  14.910
11030W        W83444  27.009  42.779  11.376
11031W        W83445   6.314  19.564  13.397
11032W        W83446  31.101  26.667   3.168
11033W        W83447  20.671  11.734  14.772
11034W        W83448  34.863  13.811   3.258
11035W        W83449  15.656  13.816   0.787
11036W        W83450  32.106  18.712   2.828
11037W        W83451  20.229  40.027   1.900
11038W        W83452  10.844  22.727   2.323
11039W        W83453  39.413  20.102   2.667
11040W        W83454  29.957  29.126   4.171
11041W        W83455  29.516  11.721  10.924
11042W        W83456  29.432  22.121  11.416
11043W        W83457  24.549  39.982  12.063
11044W        W83458  18.107  38.553   0.364
11045W        W83459  19.050   0.475  10.048
11046W        W83460  28.676  23.585  13.449
11047W        W83461  41.883   2.828   1.823
11048W        W83462  11.219   2.756   4.639
11049W        W83463  32.083  21.633  13.480
11050W        W83464  11.130  15.763   4.151
11051W        W83465  42.852  33.386   4.721
11052W        W83466  24.638  40.371  11.396
11053W        W83467  30.011  22.733   1.274
11054W        W83468  34.437   5.232  10.898
11055W        W83469   6.310  18.575   1.414
11056W        W83470  34.035  17.557   1.890
11057W        W83471  40.472   6.389  14.814
11058W        W83472  17.304  32.013  13.020
11059W        W83473  35.912   3.434  11.070
11060W        W83474   3.888  34.082  12.902
11061W        W83475  32.035  44.864   2.798
11062W        W83476   0.892  44.823  14.494
11063W        W83477  34.082  20.737   0.915
11064W        W83478   3.326  10.857   3.747
11065W        W83479  41.994   8.743  10.563
11066W        W83480   8.781  27.511   4.190
11067W        W83481   1.844  12.720   1.813
11068W        W83482  41.825  22.044  11.403
11069W        W83483  42.903  16.095   4.748
11070W        W83484   3.374  43.978  11.025
11071W        W83485  19.624  19.041   1.915
11072W        W83486  34.447   1.406  11.878
11073W        W83487  36.043  21.525  10.912
11074W        W83488  25.188  42.480   3.724
11075W        W83489  20.541  35.432  14.829
11076W        W83490  10.873  24.152   3.719
11077W        W83491  11.654  43.312  14.925
11078W        W83492   1.901  18.707  12.473
11079W        W83493  40.516  36.844  14.491
11080W        W83494   2.817   9.241  13.825
11081W        W83495  29.027   6.362   1.863
11082W        W83496  29.167  11.156  14.441
11083W        W83497  42.970  24.489   1.875
11084W        W83498  34.526  37.947   2.297
11085W        W83499  33.443   7.316  14.323
11086W        W83500   8.881  41.493   0.437
11087W        W83501  12.658  20.196  10.967
11088W        W83502  21.219  35.424  13.445
11089W        W83503  36.549   6.678   3.165
11090W        W83504  10.329   8.392  12.429
11091W        W83505   2.390  32.104  13.939
11092W        W83506  20.034  15.598   5.146
11093W        W83507  26.589  20.547   0.400
11094W        W83508  43.892  30.454   0.302
11095W        W83509  22.024   4.335   4.700
11096W        W83510  20.208  20.638  13.534
11097W        W83511  24.719  33.907  12.555
11098W        W83512   6.317  41.968   1.240
11099W        W83513  28.957  33.479  14.971
11100W        W83514   3.313  20.254   2.700
11101W        W83515  16.726   2.772   1.255
11102W        W83516  31.420   9.693   2.720
11103W        W83517  15.239  40.353  14.478
11104W        W83518  24.032  30.991  14.474
11105W        W83519  30.558  44.939  12.533
11106W        W83520   2.458   2.942   0.461
11107W        W83521  20.190   0.801  14.810
11108W        W83522  33.912  10.210   2.832
11109W        W83523  10.823  40.359  10.483
11110W        W83524  14.278  38.835   2.342
11111W        W83525  41.322   4.735   9.975
11112W        W83526  11.321  24.667   3.742
11113W        W83527   7.258  32.046   3.679
11114W        W83528  17.652   6.796  13.916
11115W        W83529  13.213   8.216   4.209
11116W        W83530   9.879  12.844  14.819
11117W        W83531  41.299   0.255   2.741
11118W        W83532  19.689   4.732   3.263
11119W        W83533   6.283  26.086  11.967
11120W        W83534  37.879  40.945  13.454
11121W        W83535  32.468   8.160  13.858
11122W        W83536  43.933  20.677  14.314
11123W        W83537   6.189  38.936  12.403
11124W        W83538   4.901  14.783   2.283
11125W        W83539  30.134  29.161  12.858
11126W        W83540  22.610  36.060  10.920
11127W        W83541  11.323  30.972  13.532
11128W        W83542   5.700   6.358  10.468
11129W        W83543  15.263  13.322  11.920
11130W        W83544  16.696   2.746   0.338
11131W        W83545  43.963  14.700  10.442
11132W        W83546  28.597  21.639   2.408
11133W        W83547  20.213   9.817   3.272
11134W        W83548  10.772  24.206   1.344
11135W        W83549  22.614   8.337   2.863
11136W        W83550  15.320  11.831   3.834
11137W        W83551   8.772  32.611  13.870
11138W        W83552   2.755  13.147   1.212
11139W        W83553  35.519   1.433   4.653
11140W        W83554  38.957  31.637   2.888
11141W        W83555   9.223   6.391  10.486
11142W        W83556  19.704  30.113  14.355
11143W        W83557  37.422   8.371  14.830
11144W        W83558  27.458   3.342   1.719
11145W        W83559  21.200  29.002  10.428
11146W        W83560  34.501   6.374  10.586
11147W        W83561  42.471  24.183  14.324
11148W        W83562   9.835  35.016  11.056
11149W        W83563  42.501  15.284   2.703
11150W        W83564   2.283   0.487  12.385
11151W        W83565  41.491   8.736   2.867
11152W        W83566  22.734  38.823  13.060
11153W        W83567  12.349  11.843   2.217
11154W        W83568   5.740   6.367  11.457
11155W        W83569  11.648  30.545  10.030
11156W        W83570  30.929   8.334  13.467
11157W        W83571  28.029  29.651  13.499
11158W        W83572  30.587   8.385   3.860
11159W        W83573   2.794  15.153   3.197
11160W        W83574   9.670  12.804  13.803
11161W        W83575  14.795  26.118   3.243
11162W        W83576  15.748  16.217   0.476
11163W        W83577  20.081  13.325   4.821
11164W        W83578  31.466  28.622   4.780
11165W        W83579  20.075  31.935   3.752
11166W        W83580   7.390   3.347   4.817
11167W        W83581  11.336  36.448   3.714
11168W        W83582   3.928   3.713   2.759
11169W        W83583  29.552  18.245  12.354
11170W        W83584  12.715  40.888   3.848
11171W        W83585  26.559  35.395   2.218
11172W        W83586   6.812  28.127  13.459
11173W        W83587  11.732  28.056  11.069
11174W        W83588  27.680  43.941   1.725
11175W        W83589   3.356  34.558   4.344
11176W        W83590  31.412   4.339  10.429
11177W        W83591  40.334  20.611   3.643
11178W        W83592  36.453   5.317   0.370
11179W        W83593  23.115  17.707  12.897
11180W        W83594   2.953  42.797  13.896
11181W        W83595  16.618   4.236   1.801
11182W        W83596  36.968  20.198  14.322
11183W        W83597  43.352  29.158  13.343
11184W        W83598  42.994  36.500  10.899
11185W        W83599  38.855  37.482  11.857
11186W        W83600  28.634   5.261  11.443
11187W        W83601  42.329  13.301   4.788
11188W        W83602  25.607   4.311  11.483
11189W        W83603  31.474  16.128  12.507
11190W        W83604   6.342  23.572  13.411
11191W        W83605  37.344  39.925  13.527
11192W        W83606  41.987  42.931  14.320
11193W        W83607  43.325  44.377   1.222
11194W        W83608   8.374   9.183   3.301
11195W        W83609  17.663   9.175  11.541
11196W        W83610  15.642   4.796   0.814
11197W        W83611  39.337  30.979  12.040
11198W        W83612  10.721   4.313   0.824
11199W        W83613  24.036  33.403  11.420
11200W        W83614   7.690  39.917  14.909
11201W        W83615  14.141  13.719   0.843
11202W        W83616  39.017   5.428  12.903
11203W        W83617  24.164  42.408   3.260
11204W        W83618  29.951  15.758  14.775
11205W        W83619  16.095   6.266   1.918
11206W        W83620  43.812  31.912   3.735
11207W        W83621  39.527  29.564   0.355
11208W        W83622  39.488  24.608  10.411
11209W        W83623  24.999  35.417  13.981
11210W        W83624  27.458  22.226   2.746
11211W        W83625  34.981  37.966  13.474
11212W        W83626  34.388  39.958  14.391
11213W        W83627  27.119   6.311  13.365
11214W        W83628  39.861  33.504  13.449
11215W        W83629  30.586   1.894  10.407
11216W        W83630  37.041  32.010   3.824
11217W        W83631  31.134  41.366  11.439
11218W        W83632   3.768   2.736  11.511
11219W        W83633  25.529   0.364   0.317
11220W        W83634  35.467  32.420  11.856
11221W        W83635  12.144  17.074   4.212
11222W        W83636  34.104  31.022  11.950
11223W        W83637  33.503  32.107   1.374
11224W        W83638  22.201   5.401   3.375
11225W        W83639   2.389  41.865   1.290
11226W        W83640  13.326  17.689  11.445
11227W        W83641  12.308  29.997   1.343
11228W        W83642   2.449  25.663   4.227
11229W        W83643  33.541  14.145   1.897
11230W        W83644  12.135  23.157  12.062
11231W        W83645  12.173   2.947   3.705
11232W        W83646   0.428   1.945   0.803
11233W        W83647  25.964  33.549  11.902
11234W        W83648   7.875   8.736  11.079
11235W        W83649   9.187   8.840  14.363
11236W        W83650   2.965  25.525  14.970
11237W        W83651  39.547  26.159   4.130
11238W        W83652   5.433  39.868  12.374
11239W        W83653  13.843  16.753  12.996
11240W        W83654  31.595   4.769   0.379
11241W        W83655  31.437   2.273  11.503
11242W        W83656   2.745  31.465   2.303
11243W        W83657   8.247  29.160  11.099
11244W        W83658  22.059   2.419   4.149
11245W        W83659  44.964   7.280   0.281
11246W        W83660  30.051  18.600   3.825
11247W        W83661  41.852  32.060  10.150
11248W        W83662   1.394  37.057   2.329
11249W        W83663  16.802  16.809  12.964
11250W        W83664   8.307  22.075   4.667
11251W        W83665   0.843  20.169   3.248
11252W        W83666  29.461  18.126   1.355
11253W        W83667  43.467  37.516   0.802
11254W        W83668   4.876  28.461   3.743
11255W        W83669   0.744  36.471  14.302
11256W        W83670  13.308  18.682   0.751
11257W        W83671  27.135  19.584   1.870
11258W        W83672  18.650  25.029   1.292
11259W        W83673  37.972   8.300  14.927
11260W        W83674  14.225  28.607   4.350
11261W        W83675  34.535  41.375   1.249
11262W        W83676  38.402  11.166  12.087
11263W        W83677  20.184   5.278  10.416
11264W        W83678  33.052  14.592  10.999
11265W        W83679  21.635  24.528   2.291
11266W        W83680  33.082  32.018  14.502
11267W        W83681  25.064  35.567  10.499
11268W        W83682  12.357   1.739   4.633
11269W        W83683  25.538   7.221  11.061
11270W        W83684  36.572  31.612  11.063
11271W        W83685  44.390  36.378  10.576
11272W        W83686  36.899   0.462   2.799
11273W        W83687  17.175  44.373   5.798
11274W        W83688  39.519  26.956   2.234
11275W        W83689  14.740  18.724  10.466
11276W        W83690   2.932  39.031  10.456
11277W        W83691  34.469   0.947   2.291
11278W        W83692  19.179  16.599   2.338
11279W        W83693  19.780   7.353  13.876
11280W        W83694   6.284  38.535   2.315
11281W        W83695   8.395  23.234   0.442
11282W        W83696  29.492   2.877   3.229
11283W        W83697  44.350   7.823   5.165
11284W        W83698  10.161   0.392  14.002
11285W        W83699   8.890  39.874   9.944
11286W        W83700  23.655  43.831   1.857
11287W        W83701  36.889  16.312  10.427
11288W        W83702  43.817  31.925   2.213
11289W        W83703  13.298  42.358   3.266
11290W        W83704  17.092  14.809  12.025
11291W        W83705  13.281  16.075  12.015
11292W        W83706  22.515   5.311   3.332
11293W        W83707  21.530  42.404  10.566
11294W        W83708  27.473  43.789   4.179
11295W        W83709  38.027  27.572  11.951
11296W        W83710  37.520  41.415  11.502
11297W        W83711  44.879  25.112   3.208
11298W        W83712   4.912  21.718  13.850
11299W        W83713  19.673  37.996   4.149
11300W        W83714  41.898  38.339  11.516
11301W        W83715  18.075  42.949  10.642
11302W        W83716  42.832  29.489  12.372
11303W        W83717   9.661  11.727   4.310
11304W        W83718  22.541   2.802  14.415
11305W        W83719  23.185  31.517  10.591
11306W        W83720  40.853  16.605  10.524
11307W        W83721  11.808  24.979  11.458
11308W        W83722  12.836  36.057   1.874
11309W        W83723  37.055  34.910  13.369
11310W        W83724   1.277  37.876  12.572
11311W        W83725  13.769   6.782   1.276
11312W        W83726  20.589  31.442  14.495
11313W        W83727  10.775  35.936   5.246
11314W        W83728  26.047  34.419   3.809
11315W        W83729  35.096   7.761   3.147
11316W        W83730   7.774  27.526   2.187
11317W        W83731  23.163   5.388  14.816
11318W        W83732   0.775  33.397   2.234
11319W        W83733  14.131  24.214  14.929
11320W        W83734  32.040  39.962  14.513
11321W        W83735  43.852  15.134  12.011
11322W        W83736  18.596   1.451   0.881
11323W        W83737  16.794  21.650   3.720
11324W        W83738  19.685  43.369   3.733
11325W        W83739  24.088   3.351  13.818
11326W        W83740   2.305  33.979   2.208
11327W        W83741  43.913  17.292  13.308
11328W        W83742  43.303   1.304  13.892
11329W        W83743  12.732  12.297  11.599
11330W        W83744  18.629   5.402   4.769
11331W        W83745  31.599  12.117   2.345
11332W        W83746  35.488  42.288  13.812
11333W        W83747  22.530   7.798   4.796
11334W        W83748  28.612  41.327  14.327
11335W        W83749   9.209  29.156   4.126
11336W        W83750  11.292  12.667  11.923
11337W        W83751  29.448   1.315  11.122
11338W        W83752  22.585  41.954   4.597
11339W        W83753  33.990   7.233  13.529
11340W        W83754  36.922  30.516   3.296
11341W        W83755  25.178  19.687  12.393
11342W        W83756  34.580  37.362   4.607
11343W        W83757  40.027  20.261   1.367
11344W        W83758  27.605  35.997  13.495
11345W        W83759   8.670   9.666   3.675
11346W        W83760  40.883  23.060   2.843
11347W        W83761   4.823  36.905   4.792
11348W        W83762  26.695  12.647  11.442
11349W        W83763   6.734  14.312   3.754
11350W        W83764   2.864  38.487   4.836
11351W        W83765  10.661  32.070  10.906
11352W        W83766  28.944   9.220   0.339
11353W        W83767  14.667   6.699  10.901
11354W        W83768  32.413  38.503   0.838
11355W        W83769  16.611  22.517   2.249
11356W        W83770  12.806  42.508   2.791
11357W        W83771  43.288   9.329   0.726
11358W        W83772  10.221  44.842  11.564
11359W        W83773  13.622  38.432   1.711
11360W        W83774  18.111   8.359   4.641
11361W        W83775   9.189   7.791  11.875
11362W        W83776  29.001   0.302  10.639
11363W        W83777  19.779  30.912  10.948
11364W        W83778  42.914  41.017  14.030
11365W        W83779  22.127  10.306  13.941
11366W        W83780  10.327  19.725   2.233
11367W        W83781   9.711  13.261  14.381
11368W        W83782  19.565  33.470   1.392
11369W        W83783  16.750  40.539   1.291
11370W        W83784  35.386  41.397   1.888
11371W        W83785  33.410   6.774  11.108
11372W        W83786  44.355  13.205   2.816
11373W        W83787  44.296  26.013   0.264
11374W        W83788  26.507  23.052  12.512
11375W        W83789   0.856  29.602  10.976
11376W        W83790  28.067  33.550  12.979
11377W        W83791  27.039  36.849   4.671
11378W        W83792  29.961  37.413  10.534
11379W        W83793  41.978  15.269  13.064
11380W        W83794   7.348  39.996   0.279
11381W        W83795  19.244  38.505  14.882
11382W        W83796  35.853  11.832   0.908
11383W        W83797   4.871  14.291  12.557
11384W        W83798  38.959  14.167  10.479
11385W        W83799  44.336  10.352   4.636
11386W        W83800  26.538  28.443  14.504
11387W        W83801  44.809  27.015  12.010
11388W        W83802   4.430   1.305  12.937
11389W        W83803  26.110   5.919   0.268
11390W        W83804  25.002  14.326   1.778
11391W        W83805  33.395   2.902  11.093
11392W        W83806  37.408  27.103   2.873
11393W        W83807   7.807  21.194  11.562
11394W        W83808  37.933  41.997   0.408
11395W        W83809  34.900   2.870   2.366
11396W        W83810  22.595  35.539  12.551
11397W        W83811  13.131   5.407  12.919
11398W        W83812   7.352  31.516   0.422
11399W        W83813   2.439  31.600   2.865
11400W        W83814   3.897   9.209  14.386
11401W        W83815  41.934  30.035   1.341
11402W        W83816  21.079  17.174  11.558
11403W        W83817  19.553   0.773  13.010
11404W        W83818   2.375  22.685   0.323
11405W        W83819  43.295  40.381   3.818
11406W        W83820  18.153  14.730   1.341
11407W        W83821  15.638  20.630   1.345
11408W        W83822  11.148  29.487  14.297
11409W        W83823  30.633  10.375  13.920
11410W        W83824  32.976  23.051  14.832
11411W        W83825   9.262  37.452  11.460
11412W        W83826  44.917   1.946   2.815
11413W        W83827  23.130  18.265   3.349
11414W        W83828  27.630  44.479  12.983
11415W        W83829  39.484  16.757   1.903
11416W        W83830  43.447  41.402  14.430
11417W        W83831  26.197  22.526  11.080
11418W        W83832  23.145   0.388   4.215
11419W        W83833  12.180  17.182   0.408
11420W        W83834  23.041  21.063  13.037
11421W        W83835  25.695  43.946  10.531
11422W        W83836  25.039  43.919   4.296
11423W        W83837  39.035  42.905  11.096
11424W        W83838   6.336  40.450   4.675
11425W        W83839  29.438   6.790  14.974
11426W        W83840  15.214  19.605   4.272
11427W        W83841  20.088   5.897   1.395
11428W        W83842  25.119   7.262  12.361
11429W        W83843  41.811   0.258  12.928
11430W        W83844  28.163  38.869   2.268
11431W        W83845  37.967  41.378  14.767
11432W        W83846   6.806  13.770  13.025
11433W        W83847  37.501  30.984   2.755
11434W        W83848  10.166   0.291  14.422
11435W        W83849  27.643  40.318  12.071
11436W        W83850  30.935  13.717  13.950
11437W        W83851  34.545  41.320  11.100
11438W        W83852  29.497   2.268   3.842
11439W        W83853  21.532   6.385   3.323
11440W        W83854  32.547   5.899  10.616
11441W        W83855  18.577  22.611  13.818
11442W        W83856  42.818  24.189  11.502
11443W        W83857  13.239   6.880   5.747
11444W        W83858  27.947  42.426   0.283
11445W        W83859  29.669  21.676   3.260
11446W        W83860  44.355  22.027  11.955
11447W        W83861   1.832  30.600  13.406
11448W        W83862  32.545  13.167   2.721
11449W        W83863  15.788  24.111   4.742
11450W        W83864  39.043  25.199  12.454
11451W        W83865  38.448  44.265   2.754
11452W        W83866  32.637  27.628   1.846
11453W        W83867  35.967  10.196   0.437
11454W        W83868  26.074   3.221  10.963
11455W        W83869  26.092   9.248  11.082
11456W        W83870  15.774  24.657  13.808
11457W        W83871  16.203   6.307  13.851
11458W        W83872  33.044  22.121   4.729
11459W        W83873   2.902  19.692  12.957
11460W        W83874  35.442  21.239   0.753
11461W        W83875  42.831  26.033  13.515
11462W        W83876  18.580  38.354   4.815
11463W        W83877  20.668  15.577  10.442
11464W        W83878  41.927  35.490   1.340
11465W        W83879  23.718  20.225   4.761
11466W        W83880  14.803  28.119  14.825
11467W        W83881  21.757   6.719   1.924
11468W        W83882   9.208  44.784   2.698
11469W        W83883  42.482  33.112  13.411
11470W        W83884   4.773   9.239  14.405
11471W        W83885   0.384  13.692  13.965
11472W        W83886  23.694  10.373   2.290
11473W        W83887  14.623  34.052   2.875
11474W        W83888  24.151  15.215   9.569
11475W        W83889   3.302  42.329   4.340
11476W        W83890  33.076  26.613   4.728
11477W        W83891  39.483   7.820  13.795
11478W        W83892   3.903  29.143   1.414
11479W        W83893  11.755  15.702  12.860
11480W        W83894  15.796   1.356   3.636
11481W        W83895   5.228  29.958  13.511
11482W        W83896   2.345  44.489  14.368
11483W        W83897  14.205  40.546  11.003
11484W        W83898   5.921  24.203  10.621
11485W        W83899  17.177   8.199  13.521
11486W        W83900  27.662  24.580  11.480
11487W        W83901   9.718   3.289   3.648
11488W        W83902  37.072  22.579   0.889
11489W        W83903   6.871  12.630  12.380
11490W        W83904   6.821  18.666   2.751
11491W        W83905   3.741  39.912   1.812
11492W        W83906  41.911  11.154   1.871
11493W        W83907  39.820  24.559   3.191
11494W        W83908  34.530  42.353   1.308
11495W        W83909  29.454  17.217  11.909
11496W        W83910  36.411  19.660  14.996
11497W        W83911   6.204   8.251  14.402
11498W        W83912  32.443  27.988  14.003
11499W        W83913  22.515  13.257  11.565
11500W        W83914   3.717  12.130   1.787
11501W        W83915   8.752  18.141  13.426
11502W        W83916  42.908   3.229   0.396
11503W        W83917   8.273  32.632   0.386
11504W        W83918   7.331  37.050   2.874
11505W        W83919  30.987  43.787   0.480
11506W        W83920   9.665  16.748  14.510
11507W        W83921  39.524  34.929  12.521
11508W        W83922  12.660  33.903   1.899
11509W        W83923  26.167   0.297   1.447
11510W        W83924   4.407  28.142   5.309
11511W        W83925  16.160  17.734  13.393
11512W        W83926  40.321  15.604   2.818
11513W        W83927  41.536  29.921  12.383
11514W        W83928  19.253  34.060  14.943
11515W        W83929   2.393  18.257  10.985
11516W        W83930  25.593  31.952  14.764
11517W        W83931   4.285  23.239  14.885
11518W        W83932  17.719  40.440   1.387
11519W        W83933  35.033  20.246   4.199
11520W        W83934  16.225   7.365  12.456
11521W        W83935  35.932  36.061   3.870
11522W        W83936  22.069   5.316   2.893
11523W        W83937  25.695   9.185   1.795
11524W        W83938  34.968  16.168   2.828
11525W        W83939  39.453   3.910   0.352
11526W        W83940  10.322  15.302   3.334
11527W        W83941  33.410  13.151   0.337
11528W        W83942  34.024  37.977  13.390
11529W        W83943  29.159  22.124   1.881
11530W        W83944   3.300  39.986  13.044
11531W        W83945  27.193  42.776  12.076
11532W        W83946   1.252   4.400  11.473
11533W        W83947   6.757   2.735  14.952
11534W        W83948  33.964  12.252   2.234
11535W        W83949  33.012  38.440   1.823
11536W        W83950   5.688  11.844   4.601
11537W        W83951  42.809  11.718   0.789
11538W        W83952  26.139  20.679   2.225
11539W        W83953  29.575   1.253  13.493
11540W        W83954  28.164  30.484  13.020
11541W        W83955  43.979  16.294  10.442
11542W        W83956  17.595  34.372  11.538
11543W        W83957  19.689  28.972  14.363
11544W        W83958  35.932  31.620   1.294
11545W        W83959  24.023  40.364   0.414
11546W        W83960  10.341   8.222   3.729
11547W        W83961  30.138  12.239   3.325
11548W        W83962  30.019   6.383  14.395
11549W        W83963  41.869  19.283   1.732
11550W        W83964  15.702   4.943   5.313
11551W        W83965  26.971  25.505  11.402
11552W        W83966  21.750  20.272  14.485
11553W        W83967  13.669  35.483  13.878
11554W        W83968   4.287  40.943  11.042
11555W        W83969  27.545  31.940   0.360
11556W        W83970  23.543  11.640  13.962
11557W        W83971  15.258   6.200   4.232
11558W        W83972  13.837  10.274  14.510
11559W        W83973  30.120  40.524   4.716
11560W        W83974  25.016  17.133   2.689
11561W        W83975  17.687  15.110  13.063
11562W        W83976  20.652  30.074  12.856
11563W        W83977  17.269   6.722   0.254
11564W        W83978  24.709  36.478   4.835
11565W        W83979  41.505  12.766   2.357
11566W        W83980  13.348  14.766  14.799
11567W        W83981  41.911  12.355  12.531
11568W        W83982  40.412  26.054   3.251
11569W        W83983  15.261   3.743   1.914
11570W        W83984  33.404   6.247   5.296
11571W        W83985  17.270  44.454   1.785
11572W        W83986  23.632  40.045  12.929
11573W        W83987  41.459  23.630  11.497
11574W        W83988  30.087  26.996  11.425
11575W        W83989  19.559  43.363   1.896
11576W        W83990   4.318   9.296  12.496
11577W        W83991  27.103  39.898   1.318
11578W        W83992   9.780  10.382   0.390
11579W        W83993  35.861  34.908   4.287
11580W        W83994  41.384  35.522  13.432
11581W        W83995  23.725  32.070   3.235
11582W        W83996  13.309  29.115   2.732
11583W        W83997  43.369  14.750   0.921
11584W        W83998  27.106   0.985   5.661
11585W        W83999  25.584  11.251   4.648
11586W        W84000  31.567  14.143  13.059
11587W        W84001   2.772  14.111  11.908
11588W        W84002   1.386  18.053  10.993
11589W        W84003  20.171  27.050   0.446
11590W        W84004  21.156  27.175  14.845
11591W        W84005  18.627  12.261  13.019
11592W        W84006   5.888  35.533   4.610
11593W        W84007  27.149   9.834  10.454
11594W        W84008  41.979  32.008   4.835
11595W        W84009  22.144  33.970  13.833
11596W        W84010  28.154  26.520  14.857
11597W        W84011  25.993   1.811  14.796
11598W        W84012   2.306   0.933  12.454
11599W        W84013  23.570  44.997  10.421
11600W        W84014  33.496  42.427   0.255
11601W        W84015  30.111  15.593  14.330
11602W        W84016  20.541  15.227  13.837
11603W        W84017  30.558  23.678   2.405
11604W        W84018   5.386  43.286   1.741
11605W        W84019   6.901  22.027  12.485
11606W        W84020  37.850  20.137  13.901
11607W        W84021  35.440   4.263  12.558
11608W        W84022  19.646   2.416   0.961
11609W        W84023  30.654  44.375  14.827
11610W        W84024  44.968  43.510   0.860
11611W        W84025  31.475   6.851   3.828
11612W        W84026  34.453  42.775  11.884
11613W        W84027  30.953  32.402  10.618
11614W        W84028  38.409   1.857   0.326
11615W        W84029  42.289  37.034   3.171
11616W        W84030  43.319  29.014   4.155
11617W        W84031  27.992  34.465  11.415
11618W        W84032  11.829  28.962  14.296
11619W        W84033  43.465  19.219  12.410
11620W        W84034  11.770   1.970   3.808
11621W        W84035  38.437  36.923   0.398
11622W        W84036  22.605  43.016  13.429
11623W        W84037  12.336  41.526  10.438
11624W        W84038   4.208  35.503   3.300
11625W        W84039  35.538  19.161   1.388
11626W        W84040  16.594  41.967   4.737
11627W        W84041  39.323  14.672  13.972
11628W        W84042  32.935   3.390   3.300
11629W        W84043  33.085  26.174   3.747
11630W        W84044  23.700  33.473  14.991
11631W        W84045   1.824  42.436  10.408
11632W        W84046   4.210  34.063   2.789
11633W        W84047  11.184  33.019  14.380
11634W        W84048  38.000  33.023  11.463
11635W        W84049   7.871  10.798  11.399
11636W        W84050   3.775   6.676  11.924
11637W        W84051  31.151  37.074  10.521
11638W        W84052  36.038  43.948   0.435
11639W        W84053  15.717  32.136  12.965
11640W        W84054  44.347   8.170   0.399
11641W        W84055  23.624  26.523  12.994
11642W        W84056  10.230  32.021  10.571
11643W        W84057  16.171  40.042  11.415
11644W        W84058  43.842   5.926   4.694
11645W        W84059  25.164  38.553   1.244
11646W        W84060  34.048  43.502  13.009
11647W        W84061  26.139  21.751  13.944
11648W        W84062  31.109  36.368  14.322
11649W        W84063  33.986  41.436  12.430
11650W        W84064   2.887   8.331  12.413
11651W        W84065   2.458  10.306   4.296
11652W        W84066   6.202  10.323  11.447
11653W        W84067  44.268  10.171   0.318
11654W        W84068  29.430  40.818  11.490
11655W        W84069  36.953  10.252  14.896
11656W        W84070   7.205  44.857  12.012
11657W        W84071  20.073  33.101  10.936
11658W        W84072  42.332  22.649   4.172
11659W        W84073  19.588  28.145   4.276
11660W        W84074   5.787   3.225  14.409
11661W        W84075  14.333   6.322  10.932
11662W        W84076  18.711  43.826  14.386
11663W        W84077  30.042  44.775  11.961
11664W        W84078  20.637  37.470   3.680
11665W        W84079  26.489  14.759   0.479
11666W        W84080   3.804  22.172  14.953
11667W        W84081  21.579  38.052   2.297
11668W        W84082  34.486  41.429  12.504
11669W        W84083   7.786   2.429   3.673
11670W        W84084  43.980  18.247  13.404
11671W        W84085  15.156  21.740   1.332
11672W        W84086  23.090  34.386  14.932
11673W        W84087  22.590  31.009   0.727
11674W        W84088  13.185   6.378   2.677
11675W        W84089  37.550   2.746  12.378
11676W        W84090  39.477  38.913   3.788
11677W        W84091  27.051   8.357   3.344
11678W        W84092  22.708  23.727   0.266
11679W        W84093  19.159  36.972   4.599
11680W        W84094  12.184  42.332  12.394
11681W        W84095  41.870  25.520   4.747
11682W        W84096  27.153  15.787  14.302
11683W        W84097  10.236  21.645   2.283
11684W        W84098  15.637  37.575   2.728
11685W        W84099   8.307  10.769   0.410
11686W        W84100  25.007  24.116   1.269
11687W        W84101   7.308  21.066  11.040
11688W        W84102  38.893  21.152   5.105
11689W        W84103  27.146   8.792  13.793
11690W        W84104  22.711   3.357  14.832
11691W        W84105  41.840  22.218   1.746
11692W        W84106  43.388   6.214   1.246
11693W        W84107   8.173  32.961   1.724
11694W        W84108  43.325   0.419   3.206
11695W        W84109  37.973  23.525   3.710
11696W        W84110  34.977  36.015   5.141
11697W        W84111  16.114   0.352  14.340
11698W        W84112  42.918   7.277  12.514
11699W        W84113  42.388  18.148  14.296
11700W        W84114  33.910  13.622  11.091
11701W        W84115  42.391   5.765   1.798
11702W        W84116  34.582  12.838  11.966
11703W        W84117  35.855  14.189   3.692
11704W        W84118  39.984  27.003  13.954
11705W        W84119  13.697  35.009  12.009
11706W        W84120   0.975  27.670  13.500
11707W        W84121  13.811  25.515  14.419
11708W        W84122   4.732  24.488   1.906
11709W        W84123  26.616  16.265  14.840
11710W        W84124  28.439   3.932  11.540
11711W        W84125  37.985  28.105  11.571
11712W        W84126   7.701  44.308  12.508
11713W        W84127   1.300  33.477   4.809
11714W        W84128  32.424  31.984  11.566
11715W        W84129   5.772  34.472   1.371
11716W        W84130  40.804   6.409  13.379
11717W        W84131  20.764   9.170   4.625
11718W        W84132  23.985  34.118   1.314
11719W        W84133  36.879  18.549  14.817
11720W        W84134  31.525  29.085  10.467
11721W        W84135  24.999  29.591   4.770
11722W        W84136  36.912  30.642   4.155
11723W        W84137  33.611  23.117   0.735
11724W        W84138   9.193   7.822   2.325
11725W        W84139  24.060  23.535   3.279
11726W        W84140   3.409   0.914   5.264
11727W        W84141  23.733  36.855   4.334
11728W        W84142   5.914   7.173   0.381
11729W        W84143  36.934  38.564  11.880
11730W        W84144  18.272  34.394  11.377
11731W        W84145  43.999  13.824   2.881
11732W        W84146   0.367  13.827  12.052
11733W        W84147  16.209   4.888   3.239
11734W        W84148   8.781  16.618   1.428
11735W        W84149  27.650  22.533   4.240
11736W        W84150  27.575  12.190  12.942
11737W        W84151  36.010  18.159  13.530
11738W        W84152   9.237  28.175  10.498
11739W        W84153  17.281  19.674  10.587
11740W        W84154  23.177  10.645  13.908
11741W        W84155  22.738  18.084  10.102
11742W        W84156  22.143   9.709  13.865
11743W        W84157  22.107  26.577   4.725
11744W        W84158   8.794  37.576   0.905
11745W        W84159  16.801  26.014   2.357
11746W        W84160   3.372  43.394   0.893
11747W        W84161  21.633   9.879  13.955
11748W        W84162  21.092  26.164  14.796
11749W        W84163  12.811   1.852  14.897
11750W        W84164  23.083  11.775   3.730
11751W        W84165  10.661  23.617   3.679
11752W        W84166  23.196  40.966   4.665
11753W        W84167  25.555  16.175   0.474
11754W        W84168  20.124   5.355  12.543
11755W        W84169  17.215  12.259  13.962
11756W        W84170  43.846  10.290   3.675
11757W        W84171  33.532   5.210  13.521
11758W        W84172   1.374  32.414   4.691
11759W        W84173   6.840  30.418   2.871
11760W        W84174  35.040  42.872  11.021
11761W        W84175  17.698  23.512  13.874
11762W        W84176  11.151  33.564  11.019
11763W        W84177  15.620  31.605   0.442
11764W        W84178  17.574   1.898   4.284
11765W        W84179  38.522   2.851  11.868
11766W        W84180  32.495  13.292   4.754
11767W        W84181  37.842  16.763   3.308
11768W        W84182   9.331  25.629   0.416
11769W        W84183  15.706  30.617  12.451
11770W        W84184  16.229  32.936   0.867
11771W        W84185  20.166  23.582  14.844
11772W        W84186  21.160  11.266  14.388
11773W        W84187  32.552   4.805  11.042
11774W        W84188  38.552   7.880   1.898
11775W        W84189  19.688  12.738  14.984
11776W        W84190  32.950  36.572   3.653
11777W        W84191  20.095  18.621  14.976
11778W        W84192  27.141  19.147  12.086
11779W        W84193  36.962  18.593   1.724
11780W        W84194  10.367  18.131   0.315
11781W        W84195   2.246  43.323  12.859
11782W        W84196  23.069  33.102  14.476
11783W        W84197  43.014  24.097  14.938
11784W        W84198   1.807  28.015  11.085
11785W        W84199  32.888  14.284  11.953
11786W        W84200  12.116  14.651   3.198
11787W        W84201  30.536  30.964   5.170
11788W        W84202   0.307   3.819  12.040
11789W        W84203  15.161  43.869  12.437
11790W        W84204   0.344  13.271   3.177
11791W        W84205  35.391  16.075  12.083
11792W        W84206  32.617  13.823   1.747
11793W        W84207  44.299  41.939  14.953
11794W        W84208  44.953  19.691   2.336
11795W        W84209  36.991  32.028  13.400
11796W        W84210   0.801  43.506   3.224
11797W        W84211  15.093  33.381  10.957
11798W        W84212  21.660  26.957   2.307
11799W        W84213  38.926  32.091   2.689
11800W        W84214   9.655  23.604  14.009
11801W        W84215   4.367  40.479  12.858
11802W        W84216  25.534  33.394   2.852
11803W        W84217  29.000  30.520   3.701
11804W        W84218   6.415  14.264   4.272
11805W        W84219   0.761  32.617   4.117
11806W        W84220  10.170  36.516   4.348
11807W        W84221  15.287  16.190   2.816
11808W        W84222  25.066  15.816   2.358
11809W        W84223  18.646  29.554   2.757
11810W        W84224  11.806  16.709   2.748
11811W        W84225  24.054  23.191  11.025
11812W        W84226  35.425   0.902   0.396
11813W        W84227  40.851  41.854  14.924
11814W        W84228   6.418  21.188   9.988
11815W        W84229  40.903   3.750  11.858
11816W        W84230  14.157  39.466   3.701
11817W        W84231  27.477  23.213  14.314
11818W        W84232  38.481  10.350   3.156
11819W        W84233   2.309  13.228   2.876
11820W        W84234  34.432   0.492   2.368
11821W        W84235  29.152   5.782  10.584
11822W        W84236  43.415   9.174   4.320
11823W        W84237   9.750  35.518  14.979
11824W        W84238  26.515  14.705   2.303
11825W        W84239  16.704  12.843  12.073
11826W        W84240  34.547   7.726   1.420
11827W        W84241  36.545  36.940   4.612
11828W        W84242  15.216  25.998   0.436
11829W        W84243  11.204  26.679   0.446
11830W        W84244  36.930   2.344  12.825
11831W        W84245  11.693  21.570   1.915
11832W        W84246  14.812  35.091   2.684
11833W        W84247   3.321  34.951  14.391
11834W        W84248  36.996  31.632   1.438
11835W        W84249  32.084  40.546  14.432
11836W        W84250   5.389  38.846   3.787
11837W        W84251  26.598  26.627  13.851
11838W        W84252   7.698  32.979   3.837
11839W        W84253   6.716  39.445   4.209
11840W        W84254  25.513  16.729   2.230
11841W        W84255   3.892  36.490  12.432
11842W        W84256  23.056   9.266   0.315
11843W        W84257  18.079  12.306  13.352
11844W        W84258  26.588   0.458   1.446
11845W        W84259  15.199  14.810  12.548
11846W        W84260  30.085  33.968  10.976
11847W        W84261  29.482   9.256   3.201
11848W        W84262   8.229  19.577  14.336
11849W        W84263   0.444  25.003  11.004
11850W        W84264  10.829   3.717   2.669
11851W        W84265  44.357  33.495   0.352
11852W        W84266  37.057   6.287   2.379
11853W        W84267   8.827  18.229   3.866
11854W        W84268  41.021   8.758  13.375
11855W        W84269  14.729  15.308  12.462
11856W        W84270  28.020  28.617  10.552
11857W        W84271  34.016  23.596  12.462
11858W        W84272  25.601  16.796  14.292
11859W        W84273  19.605  19.738   4.659
11860W        W84274  32.577  23.073   2.392
11861W        W84275  25.476  10.189   0.910
11862W        W84276  13.774  26.037  12.963
11863W        W84277  38.014  32.945   0.355
11864W        W84278  31.606   5.227   1.331
11865W        W84279  36.346  33.610   0.751
11866W        W84280  17.680  44.464  10.465
11867W        W84281  17.710  15.632  11.002
11868W        W84282  28.965  18.194  14.838
11869W        W84283  29.161  14.321   0.727
11870W        W84284  13.298  11.736  14.417
11871W        W84285  22.078  42.917  10.978
11872W        W84286  24.672  21.028   0.423
11873W        W84287   0.787   7.383   4.625
11874W        W84288  21.753  26.689   1.442
11875W        W84289   6.850  28.500   0.264
11876W        W84290   7.804   3.882  10.541
11877W        W84291  13.110   7.327  14.479
11878W        W84292  10.305  44.944   1.795
11879W        W84293  24.000  11.664   1.323
11880W        W84294   8.804   8.279  14.513
11881W        W84295  32.594  33.409   4.352
11882W        W84296   2.342  25.074   2.240
11883W        W84297  13.235  21.084   1.448
11884W        W84298   2.412  30.913   2.409
11885W        W84299  39.947   7.901  14.812
11886W        W84300  33.884  29.453  10.496
11887W        W84301  25.515   9.742  12.974
11888W        W84302  44.881   8.348   1.737
11889W        W84303  21.545   1.752  12.089
11890W        W84304   8.323  25.008  10.981
11891W        W84305  33.591  25.699  11.110
11892W        W84306  41.840  14.605  11.389
11893W        W84307   9.384  17.161  14.028
11894W        W84308  41.979  43.817  12.918
11895W        W84309  19.659  30.504  11.422
11896W        W84310   8.782  37.875   1.434
11897W        W84311  42.502  11.155  14.377
11898W        W84312   0.937  40.327   4.334
11899W        W84313  11.201   3.936   1.908
11900W        W84314  10.677   6.356  13.487
11901W        W84315   3.395  34.117  12.345
11902W        W84316  41.322   5.343   4.755
11903W        W84317   7.192  37.572   4.722
11904W        W84318   2.899  18.766   2.843
11905W        W84319  15.311  21.532   3.230
11906W        W84320  44.796  27.611  10.476
11907W        W84321   4.774  29.602  11.418
11908W        W84322  24.221   1.751  14.453
11909W        W84323  42.333   3.363   1.872
11910W        W84324  16.748  30.590   4.234
11911W        W84325  17.226  33.434   0.468
11912W        W84326  14.798  24.055  12.491
11913W        W84327  12.172  32.928  11.484
11914W        W84328   4.836  31.045   4.268
11915W        W84329  41.921  20.716  13.402
11916W        W84330  14.167  36.920  13.826
11917W        W84331  27.669  41.000   0.899
11918W        W84332  42.776  32.541   1.394
11919W        W84333  11.152  19.143  11.087
11920W        W84334   8.701  30.922   0.330
11921W        W84335  44.836  40.376   2.370
11922W        W84336  34.023  10.864  13.004
11923W        W84337  15.127  16.689  13.987
11924W        W84338  38.002  14.229   5.205
11925W        W84339  30.962   2.313  14.799
11926W        W84340  15.596  37.085   4.151
11927W        W84341  29.512  35.072  13.029
11928W        W84342  32.574   0.895   4.354
11929W        W84343  38.064  43.327  10.505
11930W        W84344  44.451  24.550   4.817
11931W        W84345   2.821  28.077   1.421
11932W        W84346   8.786  29.991  13.987
11933W        W84347   8.281   9.653   2.671
11934W        W84348  13.284  13.191  11.420
11935W        W84349  23.511  22.162   4.806
11936W        W84350  13.219  10.351   2.373
11937W        W84351   8.711  16.749  13.534
11938W        W84352   7.787  13.612   0.302
11939W        W84353   8.186  11.678  13.350
11940W        W84354   2.902  33.941  13.455
11941W        W84355   2.253  22.600   4.799
11942W        W84356  44.767  30.437  10.915
11943W        W84357  11.722  41.527   3.722
11944W        W84358   9.331   2.393   4.683
11945W        W84359  10.864  25.016   3.714
11946W        W84360   3.381  43.401  12.448
11947W        W84361  34.463  20.687   3.216
11948W        W84362  40.024   9.789   0.242
11949W        W84363  43.955  18.238  14.923
11950W        W84364  15.280   4.437   3.345
11951W        W84365   6.333   6.680   4.716
11952W        W84366  10.144  28.626  10.965
11953W        W84367  10.870   6.289  14.901
11954W        W84368  31.143  18.201  10.043
11955W        W84369   3.226  14.792   0.305
11956W        W84370  43.850   6.414  11.963
11957W        W84371   5.823  16.813  11.398
11958W        W84372  27.118  13.174  14.868
11959W        W84373   8.866  20.068  13.005
11960W        W84374  44.902  29.921  14.346
11961W        W84375  42.351  35.579  10.569
11962W        W84376  30.418   0.863  13.821
11963W        W84377   6.401  26.179  14.493
11964W        W84378  37.364  29.008   1.215
11965W        W84379  39.547   4.770   0.887
11966W        W84380   6.773  41.342  11.003
11967W        W84381  22.129  27.180   2.411
11968W        W84382  27.066  24.194  13.906
11969W        W84383  39.314  13.608  14.986
11970W        W84384  33.882  44.890  11.063
11971W        W84385  12.203  33.890   2.207
11972W        W84386   2.459  16.686   0.366
11973W        W84387  33.595  10.210   4.773
11974W        W84388  35.031  41.344  11.450
11975W        W84389  33.932  35.080   0.363
11976W        W84390  41.384  12.793   1.334
11977W        W84391  37.930  40.544   0.466
11978W        W84392  19.285  22.626   2.341
11979W        W84393   0.963  29.097  13.515
11980W        W84394  38.486  36.996   2.766
11981W        W84395  29.006  35.984   1.802
11982W        W84396  30.913   6.779  11.539
11983W        W84397  28.564  11.785   4.344
11984W        W84398  31.618  26.616   2.859
11985W        W84399  24.980  28.487   4.182
11986W        W84400  17.675  38.980  10.474
11987W        W84401  32.894  42.932   1.394
11988W        W84402  11.334  29.487  12.982
11989W        W84403   3.432  20.141   3.814
11990W        W84404  44.324  30.527  13.842
11991W        W84405  11.779  44.397   1.751
11992W        W84406  21.245  40.309   0.342
11993W        W84407   6.781  44.426   1.311
11994W        W84408  38.881   8.160  10.438
11995W        W84409  20.181  12.805  14.511
11996W        W84410  41.877  43.375  11.467
11997W        W84411  22.104   9.326  12.957
11998W        W84412  25.578   1.482   5.805
11999W        W84413  33.131  12.704  14.985
12000W        W84414   7.733  44.428   4.288
12001W        W84415  32.590   7.901  14.885
12002W        W84416  28.132  43.501   3.330
12003W        W84417  20.175  12.188   3.780
12004W        W84418  42.877  25.676   1.789
12005W        W84419  15.161  15.643   2.367
12006W        W84420   0.814   1.856   0.364
12007W        W84421  25.697  26.044  12.350
12008W        W84422   4.326  11.645   3.269
12009W        W84423  42.797  13.212   5.147
12010W        W84424  22.592   0.794   1.806
12011W        W84425  30.008  12.713  10.555
12012W        W84426  10.718   1.799  11.976
12013W        W84427  36.435  37.559  12.912
12014W        W84428  14.240   6.699  13.487
12015W        W84429  34.020  26.057  10.610
12016W        W84430  26.486  12.685   2.750
12017W        W84431   1.244  28.130   4.707
12018W        W84432  31.110  29.016   0.344
12019W        W84433  32.405  43.398   2.850
12020W        W84434  22.091  30.016  14.009
12021W        W84435  34.420  14.325  11.032
12022W        W84436  22.651   4.354   4.730
12023W        W84437  27.075  21.512   3.211
12024W        W84438  19.584  23.193   0.439
12025W        W84439  10.326   6.749  14.885
12026W        W84440  12.777  12.338  13.338
12027W        W84441   8.379  12.338   1.821
12028W        W84442  37.522  17.305  13.819
12029W        W84443  14.100   9.782  10.484
12030W        W84444  31.114  35.953   2.714
12031W        W84445   7.859  26.101  12.498
12032W        W84446  24.201   2.309  13.520
12033W        W84447  20.587   8.317  10.489
12034W        W84448  16.689  13.319   1.326
12035W        W84449   8.299   8.181   4.161
12036W        W84450  23.005  28.508  13.972
12037W        W84451  36.992  21.726   1.215
12038W        W84452  19.098  37.391  11.550
12039W        W84453  22.018   1.793   1.395
12040W        W84454  13.330  15.305  12.883
12041W        W84455  16.304  17.123   2.842
12042W        W84456  26.183  32.051   0.901
12043W        W84457  13.140  39.472  11.073
12044W        W84458   3.358   2.747  11.072
12045W        W84459  12.678  35.937   4.769
12046W        W84460  17.788  39.854  13.973
12047W        W84461  10.675  38.914   1.327
12048W        W84462  44.787   2.802  10.629
12049W        W84463  15.328  24.176   0.344
12050W        W84464  12.318  26.675   2.777
12051W        W84465   8.811  26.019   2.752
12052W        W84466  35.396  42.835  14.441
12053W        W84467  36.892  17.659  11.049
12054W        W84468  42.800  12.325   3.744
12055W        W84469  33.928   4.325  14.759
12056W        W84470  30.925  30.579   4.338
12057W        W84471   7.183   8.238   3.641
12058W        W84472   0.343   3.720   0.451
12059W        W84473  19.564   1.975   4.664
12060W        W84474  20.604  22.724  10.627
12061W        W84475  11.369  16.288   4.135
12062W        W84476   0.451  16.101  10.616
12063W        W84477  36.848  27.520  10.589
12064W        W84478   0.774  33.417   3.313
12065W        W84479  39.513  20.043  13.895
12066W        W84480  11.128  43.349   2.276
12067W        W84481  12.762  27.988  13.791
12068W        W84482   8.259   4.367   2.741
12069W        W84483  33.520  32.606  14.875
12070W        W84484   7.234  39.419   0.941
12071W        W84485  19.644  39.328  14.862
12072W        W84486  24.674   5.276   1.871
12073W        W84487   1.396  17.169  11.126
12074W        W84488  23.117  24.706  10.469
12075W        W84489  13.647  19.758   5.312
12076W        W84490  41.395  44.765   1.424
12077W        W84491  29.544  19.177   2.329
12078W        W84492  12.682  44.983   2.269
12079W        W84493   3.904  35.872   3.270
12080W        W84494   1.761  41.931   2.362
12081W        W84495   5.284  37.075  10.616
12082W        W84496  37.428   6.351   4.189
12083W        W84497   1.403   2.341  11.969
12084W        W84498  38.504  37.349  12.071
12085W        W84499   9.248  25.632   3.688
12086W        W84500  23.732  26.977   0.414
12087W        W84501  26.048  14.288   5.213
12088W        W84502  32.421  12.261   3.215
12089W        W84503  17.747  25.559   4.642
12090W        W84504   5.926  19.203   3.696
12091W        W84505  35.574  12.319  13.908
12092W        W84506  44.975  29.625  12.985
12093W        W84507  10.214  34.863   4.212
12094W        W84508   6.389   0.761   4.628
12095W        W84509  12.852  44.436  14.935
12096W        W84510  14.189  19.254  12.568
12097W        W84511  37.569  21.520   4.190
12098W        W84512  16.211  30.568   5.106
12099W        W84513   5.359  37.386   1.351
12100W        W84514  10.787  31.107  13.429
12101W        W84515  22.022   6.273  14.909
12102W        W84516   6.206   8.197   4.777
12103W        W84517  42.981  42.018  14.336
12104W        W84518  28.165  23.561  10.634
12105W        W84519  37.014  29.083   2.745
12106W        W84520  11.297  38.073  13.009
12107W        W84521  22.038  31.038  13.029
12108W        W84522  17.786  28.449  13.875
12109W        W84523  35.421  39.890   4.613
12110W        W84524  27.688  33.077   1.399
12111W        W84525  11.777  34.865   0.288
12112W        W84526  35.591   7.870  14.023
12113W        W84527  36.557  35.873  12.577
12114W        W84528   9.688   1.821  11.393
12115W        W84529  20.108  44.417  11.061
12116W        W84530  23.504  36.897   0.946
12117W        W84531  39.811  13.811  14.840
12118W        W84532   6.832  31.544  14.434
12119W        W84533  34.086  37.427  10.932
12120W        W84534  43.346  37.974   2.877
12121W        W84535   0.812  44.864  13.861
12122W        W84536  20.747  28.483   3.760
12123W        W84537  17.679  11.862   4.186
12124W        W84538  43.005  33.434  13.486
12125W        W84539  13.305  43.390  13.890
12126W        W84540  39.857  35.877  12.004
12127W        W84541  23.613  24.531  12.397
12128W        W84542   9.167  36.029  10.483
12129W        W84543  29.946   4.241  11.048
12130W        W84544  14.221  32.965   3.240
12131W        W84545   4.826   8.377   3.831
12132W        W84546  26.533  20.688  10.935
12133W        W84547  19.587  30.922  14.379
12134W        W84548  17.654  42.482   3.245
12135W        W84549  33.556  42.024   4.300
12136W        W84550  32.602  31.913   0.949
12137W        W84551  32.562  14.658   0.951
12138W        W84552  10.722  33.469   3.799
12139W        W84553  25.017  31.449  13.013
12140W        W84554  20.195  16.586   1.843
12141W        W84555  25.030  30.557   0.771
12142W        W84556  42.304  34.889  14.366
12143W        W84557  33.614  30.152  11.012
12144W        W84558  32.515   7.885  14.504
12145W        W84559  41.489  12.338  11.512
12146W        W84560  40.375   1.455  12.545
12147W        W84561  16.227  39.881  14.330
12148W        W84562  11.851  31.960  12.376
12149W        W84563  39.531  32.113   3.672
12150W        W84564  25.680   3.257  12.977
12151W        W84565   3.259  23.064   1.235
12152W        W84566  24.648   7.252   4.158
12153W        W84567  39.834  21.579  13.982
12154W        W84568  22.725  19.068   2.701
12155W        W84569  37.904   3.913  11.129
12156W        W84570  33.093  21.735   3.751
12157W        W84571   2.417  20.099  14.480
12158W        W84572  36.898   3.732  10.557
12159W        W84573   3.276  29.034   3.649
12160W        W84574  23.179  12.731   2.815
12161W        W84575  21.564   2.296   1.429
12162W        W84576  42.389  37.910   4.758
12163W        W84577  44.275  30.981  13.899
12164W        W84578   5.254  21.172  13.375
12165W        W84579  26.600   5.856   1.908
12166W        W84580   0.783  24.997   1.932
12167W        W84581   2.748   2.763  10.919
12168W        W84582  36.454   1.294  10.578
12169W        W84583  30.074  27.501   4.231
12170W        W84584  35.927   8.876  13.529
12171W        W84585  30.941  16.746  12.566
12172W        W84586   6.423  41.387  11.482
12173W        W84587  31.923  17.303   1.741
12174W        W84588  35.072  36.049  14.826
12175W        W84589  32.596  41.983   1.261
12176W        W84590   6.834   7.666   1.859
12177W        W84591  37.025  34.375  12.013
12178W        W84592   2.780  23.240   1.732
12179W        W84593   4.232  17.202  14.403
12180W        W84594  37.896   3.364  11.045
12181W        W84595   2.953  18.749   1.277
12182W        W84596  12.833  36.082   2.669
12183W        W84597   3.272  12.134   0.263
12184W        W84598  21.180   8.296  10.626
12185W        W84599  16.177   4.240   2.238
12186W        W84600  16.111  37.066   4.711
12187W        W84601  42.293  13.652   0.433
12188W        W84602  22.506  32.039   1.923
12189W        W84603  10.362  15.731   5.192
12190W        W84604   8.715   0.297  14.999
12191W        W84605  32.068  19.238   2.669
12192W        W84606  25.997  23.158   3.659
12193W        W84607  11.767  41.369   4.185
12194W        W84608  28.947   6.685   2.364
12195W        W84609   4.763  15.747   2.215
12196W        W84610   1.310  29.450  13.446
12197W        W84611  32.136  19.659   2.681
12198W        W84612  41.410   8.371  14.976
12199W        W84613  35.387  10.157   4.598
12200W        W84614   2.868  16.803   2.683
12201W        W84615  30.562   4.283   2.800
12202W        W84616  10.755  15.645   3.231
12203W        W84617   5.706  17.669   3.151
12204W        W84618   8.266  41.788   1.423
12205W        W84619  17.262  26.150   4.779
12206W        W84620  12.836  33.887   0.772
12207W        W84621   0.313  42.527   1.731
12208W        W84622  25.126  29.088  10.412
12209W        W84623  31.910  41.934  14.807
12210W        W84624  12.807  10.632  11.492
12211W        W84625  43.510   5.331  12.376
12212W        W84626  37.062  32.087   1.217
12213W        W84627  16.699  36.580  12.919
12214W        W84628   5.355  40.483   9.968
12215W        W84629  24.579   4.311  12.460
12216W        W84630  10.295  43.342   0.963
12217W        W84631   7.709  38.036  12.961
12218W        W84632  41.364  22.172  11.516
12219W        W84633  26.119  39.892   4.211
12220W        W84634  36.459  11.340  10.986
12221W        W84635  31.555  28.024   1.249
12222W        W84636  38.885   3.388  13.318
12223W        W84637  19.068  26.054  14.949
12224W        W84638  18.548  28.061   2.258
12225W        W84639  17.087  29.171   1.736
12226W        W84640  27.581   6.363   3.738
12227W        W84641  37.453  32.527   1.247
12228W        W84642   3.932   0.490  14.308
12229W        W84643  44.767   1.444  12.533
12230W        W84644  40.457  20.606   0.834
12231W        W84645   6.375  16.778   2.889
12232W        W84646  31.142  24.177   2.853
12233W        W84647  38.947  34.880   9.561
12234W        W84648   0.283   3.402   0.348
12235W        W84649  23.712  14.690  11.569
12236W        W84650  28.060  24.614  10.451
12237W        W84651   9.232  39.399  14.020
12238W        W84652  17.607   2.428   0.729
12239W        W84653   6.208  18.717  13.539
12240W        W84654  12.800  29.570   1.280
12241W        W84655  29.620   3.814  11.009
12242W        W84656  33.091  24.102  11.485
12243W        W84657  28.064  13.670   3.149
12244W        W84658  17.710  25.016  10.409
12245W        W84659  44.918  19.169  14.344
12246W        W84660  10.303  41.795  11.079
12247W        W84661  43.901  17.647  11.512
12248W        W84662  25.557  41.982  14.416
12249W        W84663  42.375  13.183   0.267
12250W        W84664  41.889   2.436   4.755
12251W        W84665   2.966  31.143   4.739
12252W        W84666  22.712  36.438   1.312
12253W        W84667  39.401   4.845   4.704
12254W        W84668   1.476  24.614   4.718
12255W        W84669   1.473  12.300   4.266
12256W        W84670  25.027  12.835   2.273
12257W        W84671   7.233  15.789   2.206
12258W        W84672   1.917  43.805  13.046
12259W        W84673  18.775  18.746  11.027
12260W        W84674  37.075  40.358  11.886
12261W        W84675  36.452   5.276  10.558
12262W        W84676  42.473  41.996   3.297
12263W        W84677  36.588  15.641   2.392
12264W        W84678   5.340  21.096  12.945
12265W        W84679  27.114  24.098  14.308
12266W        W84680  40.418  10.300   3.314
12267W        W84681  33.893  11.663  13.359
12268W        W84682  28.653  33.454  14.280
12269W        W84683  35.407  15.243  11.540
12270W        W84684   3.911  14.312   0.377
12271W        W84685  32.491  12.744  11.988
12272W        W84686  42.948  27.036   3.301
12273W        W84687  20.075   9.686  13.024
12274W        W84688  23.502  33.416  13.998
12275W        W84689  39.970  31.635  13.823
12276W        W84690  19.043   4.781   0.437
12277W        W84691  14.699  33.480   4.780
12278W        W84692  39.481   1.758   4.240
12279W        W84693   1.894   4.800  12.973
12280W        W84694  12.320  13.687   3.235
12281W        W84695  29.979  21.115  13.807
12282W        W84696  17.079  12.277   0.473
12283W        W84697  29.570  44.754   4.693
12284W        W84698  40.418   3.757   3.850
12285W        W84699  24.074  44.824  10.533
12286W        W84700  42.868  20.626  11.926
12287W        W84701  11.236  23.101   1.857
12288W        W84702  21.178   8.386  11.033
12289W        W84703  24.147  16.177   5.263
12290W        W84704  22.542   6.762  10.593
12291W        W84705  23.713  18.560  13.461
12292W        W84706  38.957   2.414  14.405
12293W        W84707   3.374  38.822  11.097
12294W        W84708  33.576  18.114  13.863
12295W        W84709  31.963  24.155   2.280
12296W        W84710  36.404   2.286   3.205
12297W        W84711  15.104  27.152   4.311
12298W        W84712   8.341   4.305   3.665
12299W        W84713  37.350  43.990   3.707
12300W        W84714  16.659  19.584   2.799
12301W        W84715   3.764  23.195  10.440
12302W        W84716  17.192   4.823  13.024
12303W        W84717  18.602  10.707  12.085
12304W        W84718  41.410  17.093   1.906
12305W        W84719  12.712  19.745   4.177
12306W        W84720  30.092  25.670   4.300
12307W        W84721   9.666  24.226   2.248
12308W        W84722   8.161  35.580  13.980
12309W        W84723  40.040  39.405   3.297
12310W        W84724  21.150  15.774   5.295
12311W        W84725  33.541  27.537   4.609
12312W        W84726  40.541  41.821   2.198
12313W        W84727  24.085  25.597  13.375
12314W        W84728  44.867   3.393   4.747
12315W        W84729   9.877  35.055  14.831
12316W        W84730  41.919  10.851   1.728
12317W        W84731   7.256  36.942  13.953
12318W        W84732   2.269  10.664   0.779
12319W        W84733  40.444  30.081   0.385
12320W        W84734  29.157  37.085  10.424
12321W        W84735  36.512   0.965  11.856
12322W        W84736   1.806  32.092  12.360
12323W        W84737  26.998   9.351  14.961
12324W        W84738  17.711  38.449  14.429
12325W        W84739  21.197  33.057   0.345
12326W        W84740   4.729  40.327   2.288
12327W        W84741  39.448  31.606   0.246
12328W        W84742   5.406  44.912   1.889
12329W        W84743  39.985  29.444   3.289
12330W        W84744  23.215  37.437   1.727
12331W        W84745  10.843  20.749   4.837
12332W        W84746  26.554   9.360  12.387
12333W        W84747  11.773  32.609  11.868
12334W        W84748  22.720  24.202  14.875
12335W        W84749   1.956  12.244   4.276
12336W        W84750  16.778  25.676   3.291
12337W        W84751  42.935   4.800   5.267
12338W        W84752  41.926  44.380  14.304
12339W        W84753  37.425  26.678   1.933
12340W        W84754  20.756  15.705   2.378
12341W        W84755  42.905  13.610   3.825
12342W        W84756  11.770  29.586   2.269
12343W        W84757  29.079  39.435  13.934
12344W        W84758   2.367   9.678   4.236
12345W        W84759  18.097   3.837   2.267
12346W        W84760  14.719  44.870   1.282
12347W        W84761  19.227  13.202   0.470
12348W        W84762  37.036  44.768   2.815
12349W        W84763  13.692  41.796  13.940
12350W        W84764  27.124  27.143   3.198
12351W        W84765  39.492  35.565   1.396
12352W        W84766   3.948  25.218  13.336
12353W        W84767  41.831  36.980  11.027
12354W        W84768  26.505  40.960  12.900
12355W        W84769  35.590   0.906   2.853
12356W        W84770  21.103  26.159  12.076
12357W        W84771  29.003   6.373   4.298
12358W        W84772  36.872   8.654   3.348
12359W        W84773  34.943   5.212  13.998
12360W        W84774   2.954   0.368  11.876
12361W        W84775  21.724  38.334  12.507
12362W        W84776   5.931  20.156  14.329
12363W        W84777  22.171  23.993  11.469
12364W        W84778  26.118  23.608   1.356
12365W        W84779  44.936  31.952   0.370
12366W        W84780  13.741  17.759  12.524
12367W        W84781  18.142   6.299  12.558
12368W        W84782  11.703  26.101   1.885
12369W        W84783  42.875  28.464   4.335
12370W        W84784   7.408  43.328   2.412
12371W        W84785  16.610  15.669   1.259
12372W        W84786  35.897  27.663   3.187
12373W        W84787   9.669  35.940  13.307
12374W        W84788  19.128   7.333   2.698
12375W        W84789  15.655  32.581  11.459
12376W        W84790  36.478  20.717   4.723
12377W        W84791   6.428  31.029  11.406
12378W        W84792  14.602  39.940   0.343
12379W        W84793   3.309  10.301  10.617
12380W        W84794  39.466   4.368  12.487
12381W        W84795  16.170  10.752  12.573
12382W        W84796  22.008  18.099  12.384
12383W        W84797  39.411  39.972   1.828
12384W        W84798  23.138  30.597   0.371
12385W        W84799  21.738  36.903  14.389
12386W        W84800  17.752  25.528   1.215
12387W        W84801  23.104  35.054  11.003
12388W        W84802  19.718  37.562  12.384
12389W        W84803  37.051  29.529  11.404
12390W        W84804   5.768   5.885   2.346
12391W        W84805  13.273   2.822   4.777
12392W        W84806  21.046  17.792  11.874
12393W        W84807  33.484  11.737  10.897
12394W        W84808   6.398   7.690   5.116
12395W        W84809  33.042  32.623  13.489
12396W        W84810   0.881  34.416   0.312
12397W        W84811  37.887  10.382  11.861
12398W        W84812  27.055  13.723  13.017
12399W        W84813  42.983  10.146  12.522
12400W        W84814  37.371  28.538  11.963
12401W        W84815  26.049  36.079  11.482
12402W        W84816   3.763   4.736  12.001
12403W        W84817  18.056  15.725  14.802
12404W        W84818   5.868  33.941   4.301
12405W        W84819  40.906  39.480   2.358
12406W        W84820  26.701  21.579   3.713
12407W        W84821  18.740  41.449   1.250
12408W        W84822   3.366  22.697   1.226
12409W        W84823  37.417  17.303   3.188
12410W        W84824  19.148   1.256  10.418
12411W        W84825  31.519   8.182   2.706
12412W        W84826  13.344   1.977   0.911
12413W        W84827  34.917  16.165  11.064
12414W        W84828  40.043   9.653  14.494
12415W        W84829  24.570  10.138   2.888
12416W        W84830  27.478  23.568  13.346
12417W        W84831  42.991  31.944   9.961
12418W        W84832  42.020  20.041   3.225
12419W        W84833  36.363  44.759  12.368
12420W        W84834  34.016  34.446   1.892
12421W        W84835  38.859  44.997   4.118
12422W        W84836  29.605  37.925  13.050
12423W        W84837  13.677   6.684   0.805
12424W        W84838  39.508  11.213  13.921
12425W        W84839  17.694  30.111   1.406
12426W        W84840  43.003   6.684   4.663
12427W        W84841  42.806  21.025   0.873
12428W        W84842  31.533  23.018   1.252
12429W        W84843  44.299  33.009   0.917
12430W        W84844  41.303  34.058  14.771
12431W        W84845  41.498  37.949  11.508
12432W        W84846  28.467  41.918  11.970
12433W        W84847  41.797  27.614  10.542
12434W        W84848  20.246  41.930   4.697
12435W        W84849  13.205  26.568   0.816
12436W        W84850  24.984  42.391   1.408
12437W        W84851  41.846  23.685  11.476
12438W        W84852  37.958   7.725   1.359
12439W        W84853  26.540   0.304  14.416
12440W        W84854  43.500   2.356   3.177
12441W        W84855   0.260  28.057   3.223
12442W        W84856  41.350  14.177   4.204
12443W        W84857  14.593  40.993   4.154
12444W        W84858  12.215  35.557   3.255
12445W        W84859   2.765   6.812   2.779
12446W        W84860  14.639   1.764  14.807
12447W        W84861  29.950  43.481   3.318
12448W        W84862  27.480  31.635  12.402
12449W        W84863   2.256  24.124   4.193
12450W        W84864  16.304  44.366  13.972
12451W        W84865  21.526   7.858  13.976
12452W        W84866  42.826   7.752   4.772
12453W        W84867  33.974  22.098   4.314
12454W        W84868   8.249   1.476  13.791
12455W        W84869  18.267  28.026  11.024
12456W        W84870  34.055  20.224  12.388
12457W        W84871  12.820  29.631  12.477
12458W        W84872  33.102  33.927   2.328
12459W        W84873  24.206  25.714   1.842
12460W        W84874  10.360  43.455   2.306
12461W        W84875  42.908   2.784   0.385
12462W        W84876  32.988  31.567  12.965
12463W        W84877  12.660  38.406   3.253
12464W        W84878  11.230   8.164  12.998
12465W        W84879  41.382  12.727  12.981
12466W        W84880   0.465  28.453   2.774
12467W        W84881  40.043  24.671   2.300
12468W        W84882  16.735  17.564   3.847
12469W        W84883  43.498  36.841  12.079
12470W        W84884  19.734  37.855  11.041
12471W        W84885  28.977   1.432  11.948
12472W        W84886  10.648  39.025  10.059
12473W        W84887  33.064  37.399   5.282
12474W        W84888  41.807  23.523   3.235
12475W        W84889   2.424  23.079  12.928
12476W        W84890  20.646  38.360  10.519
12477W        W84891  22.134  36.575  13.489
12478W        W84892  10.759  22.099   0.352
12479W        W84893   3.858  20.526  14.366
12480W        W84894  41.884  18.283  14.494
12481W        W84895  30.598  23.585   0.818
12482W        W84896  30.007  27.195   1.853
12483W        W84897   3.896   2.234   2.798
12484W        W84898   2.814   8.292  13.915
12485W        W84899  20.195   8.348   0.781
12486W        W84900  13.235  27.673   1.907
12487W        W84901   8.842   8.228  13.877
12488W        W84902  14.811  18.277  13.500
12489W        W84903  32.486  37.839  13.430
12490W        W84904  28.935   8.252   3.256
12491W        W84905  18.287  20.175   3.244
12492W        W84906  31.593   5.373   4.631
12493W        W84907   2.326  34.369   4.292
12494W        W84908  10.813  38.367   4.305
12495W        W84909  33.067  12.809   0.757
12496W        W84910  31.932  33.964  11.964
12497W        W84911  14.633   1.802   2.792
12498W        W84912  44.898  23.129  14.475
12499W        W84913  34.386  23.105  10.121
12500W        W84914  24.016  38.981  12.981
12501W        W84915  10.344  37.556  14.007
12502W        W84916   1.804  30.614  10.952
12503W        W84917   7.339   9.395  10.612
12504W        W84918  30.492  34.463  14.808
12505W        W84919  26.040   7.309  12.539
12506W        W84920  13.744  40.939  10.615
12507W        W84921  14.824  18.161   9.959
12508W        W84922  41.471   7.838   1.228
12509W        W84923  25.995  36.929  10.600
12510W        W84924  11.246   8.238   1.890
12511W        W84925  35.863  27.661   0.477
12512W        W84926   0.944   8.729   3.859
12513W        W84927  39.353  26.203  12.412
12514W        W84928   9.281  18.072   1.767
12515W        W84929   5.242  10.715  12.952
12516W        W84930  23.120  29.509   2.741
12517W        W84931   8.223  37.924   3.742
12518W        W84932  29.514  17.093   2.703
12519W        W84933  24.202  21.101  10.540
12520W        W84934  44.775  42.980   0.786
12521W        W84935  21.634   7.670  10.586
12522W        W84936  17.598   4.229   2.761
12523W        W84937   8.867  36.506   1.730
12524W        W84938  23.179   0.988   1.337
12525W        W84939  25.561  35.865  10.527
12526W        W84940   0.957  41.457   5.202
12527W        W84941  39.406  12.296   4.636
12528W        W84942  30.482  25.513   1.239
12529W        W84943   5.432   2.749  12.990
12530W        W84944  18.783  17.704   4.645
12531W        W84945  14.730  16.148   0.462
12532W        W84946  15.158   3.253  13.547
12533W        W84947  27.566  34.593   1.892
12534W        W84948  29.025  35.065   4.161
12535W        W84949  43.794   4.758   3.354
12536W        W84950  20.601   9.377  13.804
12537W        W84951  16.696  21.605   4.188
12538W        W84952  42.476  27.184   0.480
12539W        W84953  21.185  18.174  10.024
12540W        W84954  39.379  36.478  11.120
12541W        W84955  37.040  21.675  14.356
12542W        W84956  29.547  44.424   3.279
12543W        W84957  32.926   5.835   0.954
12544W        W84958  16.704   4.835   3.316
12545W        W84959   4.769  28.153  13.945
12546W        W84960  43.481  33.931  11.535
12547W        W84961  19.265  21.163  12.973
12548W        W84962  38.471   1.368   4.226
12549W        W84963  26.998   3.868  13.452
12550W        W84964   9.251  26.976   3.693
12551W        W84965   7.376  35.389  10.461
12552W        W84966  31.491  37.401   4.286
12553W        W84967   2.231  29.558  14.784
12554W        W84968   8.380  29.573   1.409
12555W        W84969  12.348  24.696  13.444
12556W        W84970  28.181  23.726  12.964
12557W        W84971   8.343  28.997   4.617
12558W        W84972  40.370  29.055   3.814
12559W        W84973  42.522  38.426   3.385
12560W        W84974  28.454  35.470   4.723
12561W        W84975  29.957  11.340  12.001
12562W        W84976  39.399   4.265   3.670
12563W        W84977   6.709  18.058   0.444
12564W        W84978  38.370  40.388  12.010
12565W        W84979  39.001  39.356   1.710
12566W        W84980   5.782  28.098   2.885
12567W        W84981  32.462   1.907  11.863
12568W        W84982  38.056   1.313   2.352
12569W        W84983   0.770  28.950   4.755
12570W        W84984   5.257  37.842  13.472
12571W        W84985   5.396  42.290   4.838
12572W        W84986  10.216  28.108   5.117
12573W        W84987  29.518   2.742   3.679
12574W        W84988  16.678  33.426   0.774
12575W        W84989  20.663  31.129   3.152
12576W        W84990  30.010  37.582  12.832
12577W        W84991  18.771  44.769   2.189
12578W        W84992  26.615   1.923  13.545
12579W        W84993   7.714   8.734   0.735
12580W        W84994  18.090   6.200   0.370
12581W        W84995  31.951   7.175   2.259
12582W        W84996   2.355  36.066   4.174
12583W        W84997  28.120  21.672   3.861
12584W        W84998   9.694  21.665   4.764
12585W        W84999  40.941  10.709   1.874
12586W        W85000   7.862  35.053  10.994
12587W        W85001  28.445  20.261   4.246
12588W        W85002  35.020  13.802  14.287
12589W        W85003   5.261  44.842  10.409
12590W        W85004  39.875   4.283   4.236
12591W        W85005  33.623  39.892  12.955
12592W        W85006  36.892  19.589  12.531
12593W        W85007  30.121  40.945   3.235
12594W        W85008  32.615  24.514  14.917
12595W        W85009  33.555  29.035  11.024
12596W        W85010  27.037  22.027  11.106
12597W        W85011  19.074  29.544  10.517
12598W        W85012  43.946  27.994  14.782
12599W        W85013  32.419  34.408  11.459
12600W        W85014  16.266  38.348  14.380
12601W        W85015  34.076   8.712   4.220
12602W        W85016  12.315  38.941  12.504
12603W        W85017  38.921  24.095   4.162
12604W        W85018   0.891   9.713  12.056
12605W        W85019  33.039  11.269  14.806
12606W        W85020   9.667   3.322   4.265
12607W        W85021  33.619   0.471   0.375
12608W        W85022   7.335   1.778   3.308
12609W        W85023  42.826  34.964  14.920
12610W        W85024   2.866   0.943  12.363
12611W        W85025   6.322  18.164  14.911
12612W        W85026  44.908  20.661   3.216
12613W        W85027  22.563  12.742  11.416
12614W        W85028  15.819   9.885   0.352
12615W        W85029   8.278  11.650   1.321
12616W        W85030  33.920  41.939   2.790
12617W        W85031   6.721  20.535   4.754
12618W        W85032  13.756  26.556  12.905
12619W        W85033  20.685   5.689  11.941
12620W        W85034  32.487  25.710  14.451
12621W        W85035  42.899  26.687   4.231
12622W        W85036   0.269  16.259  14.012
12623W        W85037  16.659   5.898  11.523
12624W        W85038  34.071   2.847  12.446
12625W        W85039  43.475  34.926  12.921
12626W        W85040   3.859  26.108  11.981
12627W        W85041  28.633  10.317  13.812
12628W        W85042  11.183  16.771  13.888
12629W        W85043  27.142  43.948  13.919
12630W        W85044  31.114  40.992   2.825
12631W        W85045  40.874   6.828   2.244
12632W        W85046  22.695  14.677   3.764
12633W        W85047  16.624  14.714   1.279
12634W        W85048  26.169  33.948  12.070
12635W        W85049  26.620  14.683   4.741
12636W        W85050  23.147   7.270  12.076
12637W        W85051  17.561  32.604   3.157
12638W        W85052  29.008   6.223   3.651
12639W        W85053   2.367   0.984  11.540
12640W        W85054  15.626  32.612   2.326
12641W        W85055  28.551  33.578  13.367
12642W        W85056  39.976  38.976   4.204
12643W        W85057  12.650  37.465   1.409
12644W        W85058   9.782  10.273   4.671
12645W        W85059  14.135  24.033   4.219
12646W        W85060   6.682  31.498   2.711
12647W        W85061  13.113  33.884   0.352
12648W        W85062   4.296  35.548  10.928
12649W        W85063  29.513   0.278  13.392
12650W        W85064  21.257  42.374  12.983
12651W        W85065   1.249   6.313   1.239
12652W        W85066  36.985  32.929  12.829
12653W        W85067  12.651  39.384  10.911
12654W        W85068  21.550  31.590   2.234
12655W        W85069  18.562  40.999   3.260
12656W        W85070  32.924   3.783  14.361
12657W        W85071  35.925  25.013  13.311
12658W        W85072  37.464  35.062   0.861
12659W        W85073   9.184  22.169  13.466
12660W        W85074  44.381   6.787  13.533
12661W        W85075   1.746  22.165  14.428
12662W        W85076  39.049  28.051  13.393
12663W        W85077  11.773  42.012  11.859
12664W        W85078   2.468  39.395   2.279
12665W        W85079  38.516   7.674   2.190
12666W        W85080  20.193   1.904   2.692
12667W        W85081  12.361  24.004   1.744
12668W        W85082  22.222  41.835   2.256
12669W        W85083  20.668  18.634  12.925
12670W        W85084   9.195  11.669   4.772
12671W        W85085   6.263  10.213   1.451
12672W        W85086  24.517   3.804   0.828
12673W        W85087  43.911   0.957  13.469
12674W        W85088  36.481   2.872  10.891
12675W        W85089  26.163  12.632   2.332
12676W        W85090  26.580  20.031  14.509
12677W        W85091  24.710  44.959   0.956
12678W        W85092  44.896   8.235  12.951
12679W        W85093   6.754  16.239  14.459
12680W        W85094  30.952   5.728   1.925
12681W        W85095  10.670  33.128   1.348
12682W        W85096   9.334  30.000  11.549
12683W        W85097  13.826  29.113   1.328
12684W        W85098  35.421  20.190   4.239
12685W        W85099  21.543   1.421  13.892
12686W        W85100  16.615  25.549   0.246
12687W        W85101  25.150  40.895   2.210
12688W        W85102  35.359  14.162  13.024
12689W        W85103  30.430  42.323  13.342
12690W        W85104  35.058  17.720  11.898
12691W        W85105  16.694  15.697  12.359
12692W        W85106  44.447  41.464   1.398
12693W        W85107   4.224  25.988  14.959
12694W        W85108  12.258  37.534  13.446
12695W        W85109   5.302  14.329   4.717
12696W        W85110  35.894  11.350   2.255
12697W        W85111  25.194   9.705  10.964
12698W        W85112  43.368  30.022   4.612
12699W        W85113  35.487  40.799  11.552
12700W        W85114   9.280   9.203   4.314
12701W        W85115  38.864  18.735   2.315
12702W        W85116  43.000  31.410   1.296
12703W        W85117   1.848  20.537   0.413
12704W        W85118  33.379  32.121  12.847
12705W        W85119   4.792  12.691  13.332
12706W        W85120  19.654  16.723   1.259
12707W        W85121  14.801  35.543   1.723
12708W        W85122  16.206  36.861  11.978
12709W        W85123  18.183  14.742  11.577
12710W        W85124   9.778   2.848   4.231
12711W        W85125  19.253  38.901  11.060
12712W        W85126  37.948  30.592  12.010
12713W        W85127  10.363  12.674   0.385
12714W        W85128  28.955  39.926  14.017
12715W        W85129  18.098  43.978  13.409
12716W        W85130  36.560   4.849  14.923
12717W        W85131  11.224  25.570   4.196
12718W        W85132  42.314  19.673  11.563
12719W        W85133  15.800  34.937   2.273
12720W        W85134  37.960  11.301  11.528
12721W        W85135   4.921  44.464  12.361
12722W        W85136  36.067   0.812   3.153
12723W        W85137  38.934   0.325   5.194
12724W        W85138  17.145  16.658   3.820
12725W        W85139  22.635   5.435   4.676
12726W        W85140  23.522  16.150  12.034
12727W        W85141  22.746  11.280  11.970
12728W        W85142  22.062  44.897   4.149
12729W        W85143   7.904  14.202  10.028
12730W        W85144  42.821  32.531  14.383
12731W        W85145   6.879  35.949   2.195
12732W        W85146   7.790  38.972  10.058
12733W        W85147  34.402   5.913   2.396
12734W        W85148  33.949  11.274  11.995
12735W        W85149  33.608  21.231  12.443
12736W        W85150  16.309   3.329   0.450
12737W        W85151  37.986  43.795  14.815
12738W        W85152  13.622  15.115   2.700
12739W        W85153   0.830  28.085  14.457
12740W        W85154  18.083  12.682   1.404
12741W        W85155  36.063  38.945   2.390
12742W        W85156   0.918  18.569   4.116
12743W        W85157  22.122  44.272   2.408
12744W        W85158  17.560   8.344  12.040
12745W        W85159  43.963  35.518  13.481
12746W        W85160  24.190  36.870   3.834
12747W        W85161  36.525  23.148  12.580
12748W        W85162  30.451  28.593   0.849
12749W        W85163  38.390  20.690  12.521
12750W        W85164  42.996  39.027   4.650
12751W        W85165  17.076  35.378   1.370
12752W        W85166  38.834  36.568   4.658
12753W        W85167   4.763  29.433   4.654
12754W        W85168   8.336   2.932  10.580
12755W        W85169  28.019  25.082  11.571
12756W        W85170  33.958   8.806  14.965
12757W        W85171  22.555  10.844  12.896
12758W        W85172  16.743  34.521   0.280
12759W        W85173  44.935  42.365   2.721
12760W        W85174  27.128   6.400  10.091
12761W        W85175   7.355  23.181   1.892
12762W        W85176  26.194  24.095   2.225
12763W        W85177   6.811  24.032   0.409
12764W        W85178   7.199  31.515   4.301
12765W        W85179  35.423  35.594   2.305
12766W        W85180  44.828  23.147  13.008
12767W        W85181  40.386  11.756   1.788
12768W        W85182  44.272  25.127  12.463
12769W        W85183   3.243  40.324  13.897
12770W        W85184  14.223  25.060   2.355
12771W        W85185  44.761  31.965   5.213
12772W        W85186   5.207  41.427   2.674
12773W        W85187  17.073  26.054  13.352
12774W        W85188  43.449  12.244   0.794
12775W        W85189  31.069   1.769   2.737
12776W        W85190  12.842  15.282   0.462
12777W        W85191  23.181  27.596   0.800
12778W        W85192  43.775  14.145   1.923
12779W        W85193  10.859  23.568   4.692
12780W        W85194  34.488  37.405   5.285
12781W        W85195  10.704  12.791  12.580
12782W        W85196  16.150  36.914   0.275
12783W        W85197  16.668  39.055  12.902
12784W        W85198  15.216  35.943  10.449
12785W        W85199   1.380  27.631   2.295
12786W        W85200  38.048   1.280   1.888
12787W        W85201  10.638   8.852   3.346
12788W        W85202  31.982   1.953   4.280
12789W        W85203   1.924  33.540  12.536
12790W        W85204   4.319  39.857   3.661
12791W        W85205   8.807  33.525   4.760
12792W        W85206  36.079   5.232  10.997
12793W        W85207  40.371  30.975   1.728
12794W        W85208  26.512  43.788   1.229
12795W        W85209   5.299  35.503  14.307
12796W        W85210   3.736  33.547   0.438
12797W        W85211   2.785  33.539  11.961
12798W        W85212  39.452  43.822   2.383
12799W        W85213  11.718  42.496   2.888
12800W        W85214  27.625  25.192   1.280
12801W        W85215  21.574  44.417   3.858
12802W        W85216  35.392  23.014  11.405
12803W        W85217  41.361  22.508   0.942
12804W        W85218  36.027   2.829   3.814
12805W        W85219  13.709   5.734   3.658
12806W        W85220  12.152  22.666  13.324
12807W        W85221  38.569   8.877   3.806
12808W        W85222   1.778  44.850  14.358
12809W        W85223  30.537  43.360  13.892
12810W        W85224  13.328  13.286   1.807
12811W        W85225  44.393  29.627   4.194
12812W        W85226   8.378  35.094  12.553
12813W        W85227   8.306  26.699  11.978
12814W        W85228   2.314   6.400   0.332
12815W        W85229   0.787  22.221  13.973
12816W        W85230  17.116   8.818  12.890
12817W        W85231  15.728   7.872  12.061
12818W        W85232  29.493   8.376  13.401
12819W        W85233  18.193  35.972   4.748
12820W        W85234  34.985  42.527  10.977
12821W        W85235  43.768  43.448   2.372
12822W        W85236   2.936  24.137  14.329
12823W        W85237   5.377   2.387   3.302
12824W        W85238  37.566  11.333  14.361
12825W        W85239  33.558  11.807   5.082
12826W        W85240  32.988  43.454  10.554
12827W        W85241   2.851   5.208  13.803
12828W        W85242  30.023   2.373  11.987
12829W        W85243  40.305  27.977  13.002
12830W        W85244   0.875  43.462   4.156
12831W        W85245  32.452  18.688  11.430
12832W        W85246   5.193  36.946   1.400
12833W        W85247  15.132  35.049   0.913
12834W        W85248  24.193  38.406  11.449
12835W        W85249  24.707  26.955  12.043
12836W        W85250   0.428   2.842  13.474
12837W        W85251  32.610  12.324   2.285
12838W        W85252  29.023  41.871  14.887
12839W        W85253  35.042  37.437   0.810
12840W        W85254  31.910  40.000   3.786
12841W        W85255   2.902  14.748  11.560
12842W        W85256  11.261  39.879   1.262
12843W        W85257  14.728  25.684  11.027
12844W        W85258  24.135  24.639   0.917
12845W        W85259  25.487  19.207   1.806
12846W        W85260  25.579  31.573  13.448
12847W        W85261  35.491   8.357  10.622
12848W        W85262  28.672   2.456   3.765
12849W        W85263   5.799  30.007  11.433
12850W        W85264  40.370  28.006   4.683
12851W        W85265  21.567  37.984  11.932
12852W        W85266  28.608  23.105  14.932
12853W        W85267  16.634  11.756   3.711
12854W        W85268   3.715  36.901   2.880
12855W        W85269  28.677   4.808  14.833
12856W        W85270  25.593  12.200   4.649
12857W        W85271  15.106  44.387   0.766
12858W        W85272  10.846  15.110   2.867
12859W        W85273   8.879  13.757   2.751
12860W        W85274   9.879   0.908  11.550
12861W        W85275  28.534  23.081   1.917
12862W        W85276  21.649  27.636  11.958
12863W        W85277  30.004  10.786  14.290
12864W        W85278   8.869   9.253   3.207
12865W        W85279  33.058  16.315   2.776
12866W        W85280   6.258  19.227  14.292
12867W        W85281   0.799  34.430   2.890
12868W        W85282  33.626   6.865  10.510
12869W        W85283   2.430  30.623  11.960
12870W        W85284  26.128  26.169   3.790
12871W        W85285  19.589  26.973   3.683
12872W        W85286  27.133  14.210   3.651
12873W        W85287  38.021  12.639   2.218
12874W        W85288  39.528  18.568  13.918
12875W        W85289  38.915  44.303  12.088
12876W        W85290  43.289  35.366   0.753
12877W        W85291   8.205  36.920   3.154
12878W        W85292  40.016  31.988  13.999
12879W        W85293  21.710  40.502   4.712
12880W        W85294  19.735  39.957   3.197
12881W        W85295  10.292  25.126   3.289
12882W        W85296  23.605  37.847  10.501
12883W        W85297  26.647  41.466  14.899
12884W        W85298  15.647  35.372   2.722
12885W        W85299   5.398  40.506  12.382
12886W        W85300  31.906  13.137  14.891
12887W        W85301  15.790   8.740  10.458
12888W        W85302   7.850  44.850   1.900
12889W        W85303  20.111  39.406  12.843
12890W        W85304   6.688  30.038  10.974
12891W        W85305   3.791  27.551  11.591
12892W        W85306   3.289   9.213   2.186
12893W        W85307  33.893  21.125   1.244
12894W        W85308  13.808  11.316   0.895
12895W        W85309  15.122  12.674   4.706
12896W        W85310  21.690  11.265  10.959
12897W        W85311   2.765  32.127   1.295
12898W        W85312  30.059  32.112   1.858
12899W        W85313  31.046   0.864   1.724
12900W        W85314   3.235   2.730   3.244
12901W        W85315  13.291  21.521   4.604
12902W        W85316  23.576  35.855   1.842
12903W        W85317  26.117  26.179   0.920
12904W        W85318  21.030  28.177   1.726
12905W        W85319   4.305   3.737  12.570
12906W        W85320  23.510  37.080  10.605
12907W        W85321   1.425   8.812   1.406
12908W        W85322  14.164   6.348   1.825
12909W        W85323  15.657  30.648   3.336
12910W        W85324  20.104  31.483   2.741
12911W        W85325  39.509  17.077   0.279
12912W        W85326   4.347  19.154   0.450
12913W        W85327  16.146  41.978  10.999
12914W        W85328  13.325   0.947   2.347
12915W        W85329  26.083  29.970  14.849
12916W        W85330  35.604   0.422  14.023
12917W        W85331  38.873  38.004  14.334
12918W        W85332  37.398  44.850  14.290
12919W        W85333  26.586   1.811   0.899
12920W        W85334  33.498  11.187   4.817
12921W        W85335  43.865  31.070  14.343
12922W        W85336  34.048  36.416   1.751
12923W        W85337  37.488   7.857  10.972
12924W        W85338  15.774  27.683   3.690
12925W        W85339  31.638  23.688  14.323
12926W        W85340  39.461  36.095   1.365
12927W        W85341   3.924  30.123  13.431
12928W        W85342  36.919   1.239  12.855
12929W        W85343   8.689  37.878  11.456
12930W        W85344  33.052   6.862   4.679
12931W        W85345  40.046  39.418   4.643
12932W        W85346  36.574  13.689   1.729
12933W        W85347  38.513  22.180   3.805
12934W        W85348  14.594   2.767   4.682
12935W        W85349  13.658   9.212  12.538
12936W        W85350  39.323  38.448  13.400
12937W        W85351  22.593  22.643  13.310
12938W        W85352  43.946   3.347  13.499
12939W        W85353  20.206  13.716  14.411
12940W        W85354  15.248  15.824   3.753
12941W        W85355  26.036  40.889   2.797
12942W        W85356  41.978  19.142   1.358
12943W        W85357  22.630  33.529  10.038
12944W        W85358  27.500  33.513  14.764
12945W        W85359  36.393  18.756  13.529
12946W        W85360   8.812  37.534   1.213
12947W        W85361  20.659  28.472   2.242
12948W        W85362   9.246   7.283  10.978
12949W        W85363  15.194  16.171   1.283
12950W        W85364  25.011  37.479   1.914
12951W        W85365  34.113   0.815  14.495
12952W        W85366  35.588  25.645  13.338
12953W        W85367  42.467  23.641   3.730
12954W        W85368  10.191  35.446  10.014
12955W        W85369   2.392  21.626   3.337
12956W        W85370  22.667  14.606  13.543
12957W        W85371  32.960  32.487  14.967
12958W        W85372  34.446  23.570  12.550
12959W        W85373  18.582  33.966  13.451
12960W        W85374   0.846  28.644   0.791
12961W        W85375   4.214   2.294   0.338
12962W        W85376  12.805  17.748   0.868
12963W        W85377  35.485  25.035  14.758
12964W        W85378  30.051  39.516  11.600
12965W        W85379   3.406  38.014   0.397
12966W        W85380   7.337  40.837  12.907
12967W        W85381  16.736  29.669  11.525
12968W        W85382  12.211  19.162   3.687
12969W        W85383  17.628   6.242   0.403
12970W        W85384  35.943  18.592  11.901
12971W        W85385   6.732  14.224  10.893
12972W        W85386  23.033  24.114   2.784
12973W        W85387  43.010  39.889  10.981
12974W        W85388  43.305  13.599   3.729
12975W        W85389   6.354  24.631  11.043
12976W        W85390  34.431  26.131  12.085
12977W        W85391  41.319   4.854  11.548
12978W        W85392  25.107   9.755   2.865
12979W        W85393  36.848  26.186  13.916
12980W        W85394  34.097  36.389  11.379
12981W        W85395  14.834   0.278   2.396
12982W        W85396  36.556  27.149   3.218
12983W        W85397  15.644  33.588   0.776
12984W        W85398  38.333   3.894   4.267
12985W        W85399   2.248   2.236  12.927
12986W        W85400  14.190  17.249  13.459
12987W        W85401  14.770  12.218  12.957
12988W        W85402  39.412  39.816  10.432
12989W        W85403   6.236  30.104   0.425
12990W        W85404   8.822  32.012  12.886
12991W        W85405  34.887  44.307   1.245
12992W        W85406   0.411  10.877  13.915
12993W        W85407  37.572  13.601   3.271
12994W        W85408  22.735  38.982  11.954
12995W        W85409   5.700  39.869   3.266
12996W        W85410  38.392  10.855   1.745
12997W        W85411  27.541   5.215   1.714
12998W        W85412  21.132  22.571  13.815
12999W        W85413  31.573  24.068  11.121
13000W        W85414  34.512   9.321  11.959
13001W        W85415  43.489   7.772  11.121
13002W        W85416  35.906  13.225   1.779
13003W        W85417  30.977  38.831  14.950
13004W        W85418  15.755  39.495   0.283
13005W        W85419  15.795  22.644  13.449
13006W        W85420   8.176  22.692   2.188
13007W        W85421  23.013  26.139   3.823
13008W        W85422  34.961  23.142   2.714
13009W        W85423   4.793   9.865  13.959
13010W        W85424  34.592  44.371  12.377
13011W        W85425  22.546  23.703   3.207
13012W        W85426  13.114  12.133   0.249
13013W        W85427  34.547   0.774   1.826
13014W        W85428   2.815  18.726  11.570
13015W        W85429  33.005   0.395  12.079
13016W        W85430  40.451  44.765   2.232
13017W        W85431   0.383  40.531   2.889
13018W        W85432   6.682  31.473  13.966
13019W        W85433   3.411  21.551   4.733
13020W        W85434  25.627  28.673  10.544
13021W        W85435  40.362  13.258   5.158
13022W        W85436  29.494  27.567  12.824
13023W        W85437   9.373  43.012   3.305
13024W        W85438  27.512  12.626  13.545
13025W        W85439  26.496   3.390  11.104
13026W        W85440   3.838  29.431  13.792
13027W        W85441  31.124   0.968   5.269
13028W        W85442  40.334  43.940  11.020
13029W        W85443  34.965  27.565  10.628
13030W        W85444  37.479  31.639   1.836
13031W        W85445  10.676  42.355   2.885
13032W        W85446  12.691  36.395  11.039
13033W        W85447  10.141  14.638   0.451
13034W        W85448  36.419  22.741   4.820
13035W        W85449   2.800  13.150  14.494
13036W        W85450   2.368   7.341  14.374
13037W        W85451  26.557  27.065   4.610
13038W        W85452  19.055  37.418   4.165
13039W        W85453  10.266  13.273  12.855
13040W        W85454  28.532  21.151   4.264
13041W        W85455  15.653   0.914   3.836
13042W        W85456   5.704  31.403  12.834
13043W        W85457  36.578  23.011  11.560
13044W        W85458  38.426  24.559   3.641
13045W        W85459  41.411  34.109  11.574
13046W        W85460  42.782  41.331   4.628
13047W        W85461  11.679  23.503  11.980
13048W        W85462  27.041   4.411  13.328
13049W        W85463  18.051  15.141  14.412
13050W        W85464   8.661  31.492  13.060
13051W        W85465  21.713  33.054   0.921
13052W        W85466   2.902  34.947   0.483
13053W        W85467  44.898  36.524   0.354
13054W        W85468  30.626  31.993  11.609
13055W        W85469  36.467  41.409   5.249
13056W        W85470  22.517  36.496  14.324
13057W        W85471  35.601  43.764   4.135
13058W        W85472  36.027  41.862  14.028
13059W        W85473  38.554  20.117   1.335
13060W        W85474  38.970  17.562   1.735
13061W        W85475  15.717  27.955   2.294
13062W        W85476  20.760  21.066  12.977
13063W        W85477   8.666  42.389  12.423
13064W        W85478   6.191   4.891  14.801
13065W        W85479  31.127  21.570   2.275
13066W        W85480  27.048  16.258   2.785
13067W        W85481   8.893   3.221  10.115
13068W        W85482  40.018  13.689  13.544
13069W        W85483  29.567  30.554   4.829
13070W        W85484  42.778  41.828   4.324
13071W        W85485  35.993   3.416  10.606
13072W        W85486   1.259  35.439   3.775
13073W        W85487  11.680   4.358  13.483
13074W        W85488   8.862   7.275   0.771
13075W        W85489  39.469  29.134  13.450
13076W        W85490  25.971   4.870  12.408
13077W        W85491  29.652  36.950   3.373
13078W        W85492   1.448  21.649   0.380
13079W        W85493   0.412  31.914   1.328
13080W        W85494  18.723   2.418   0.960
13081W        W85495  28.095  22.531  11.023
13082W        W85496  43.783  35.438  12.504
13083W        W85497  34.120  24.152   0.446
13084W        W85498   7.290  44.312  10.931
13085W        W85499  27.161  29.445   0.253
13086W        W85500   4.255   6.691  14.469
13087W        W85501  19.158  44.809   1.792
13088W        W85502  31.109   1.812  11.401
13089W        W85503   5.795  43.838   2.889
13090W        W85504  19.256  10.753   1.223
13091W        W85505  16.686  25.017  14.022
13092W        W85506  16.125  13.801   3.343
13093W        W85507  42.433  19.174  12.961
13094W        W85508  38.344  43.366   0.426
13095W        W85509  21.524  31.965   2.897
13096W        W85510  30.067  28.605  13.906
13097W        W85511   9.668   4.389   2.853
13098W        W85512   0.776   4.856  10.435
13099W        W85513  35.535  38.524   4.166
13100W        W85514  13.752  40.432   3.279
13101W        W85515  30.127  36.428  12.994
13102W        W85516   6.805  32.104  13.417
13103W        W85517  28.631   3.271  13.804
13104W        W85518  31.027   8.890   4.223
13105W        W85519  19.084  14.202   2.666
13106W        W85520  43.457  17.720   2.700
13107W        W85521  19.154  43.959  13.416
13108W        W85522  12.208  30.095  12.573
13109W        W85523  26.508  36.385  13.948
13110W        W85524  37.051  33.480   0.453
13111W        W85525  31.089  29.063  13.883
13112W        W85526  44.397   2.836  14.814
13113W        W85527   2.367  34.543   3.648
13114W        W85528  11.702  12.785   9.960
13115W        W85529  43.878  20.619   1.423
13116W        W85530  34.995  31.634   0.756
13117W        W85531  38.830  34.397   1.755
13118W        W85532   2.267   7.183  10.109
13119W        W85533  37.921  36.374   1.843
13120W        W85534  39.960   2.342   3.774
13121W        W85535  24.163  19.741  11.573
13122W        W85536   8.871  38.406   4.169
13123W        W85537  17.618   9.740   0.899
13124W        W85538  11.848  22.654   9.995
13125W        W85539  32.401  13.309  11.892
13126W        W85540  25.075  17.143  13.532
13127W        W85541  43.936  41.416   2.757
13128W        W85542  18.202  22.202  10.946
13129W        W85543  30.075   6.796  14.493
13130W        W85544  24.704  11.831  14.880
13131W        W85545  12.193  10.165  13.402
13132W        W85546   8.736  43.765  12.913
13133W        W85547  32.924  20.208  11.955
13134W        W85548  35.500  25.634  12.504
13135W        W85549  35.039  16.621  13.989
13136W        W85550  27.470  10.716   2.842
13137W        W85551  14.279  41.395  13.048
13138W        W85552  21.564  32.014  10.511
13139W        W85553   8.372  30.479  13.326
13140W        W85554  33.381  12.324   4.656
13141W        W85555  28.937  40.505  11.896
13142W        W85556  31.530  27.975  12.459
13143W        W85557   9.787  14.614   0.433
13144W        W85558  35.394  26.951  13.036
13145W        W85559  21.234  20.100   0.940
13146W        W85560  37.402  13.670   4.777
13147W        W85561   6.404  20.120  10.077
13148W        W85562   3.246  26.472  14.842
13149W        W85563  33.079   0.463  11.472
13150W        W85564  13.755  35.980  14.428
13151W        W85565  14.704  27.179  13.341
13152W        W85566  14.162   6.340  10.021
13153W        W85567  30.471  35.856  10.627
13154W        W85568   3.356  15.196  14.928
13155W        W85569   8.713   7.287  11.978
13156W        W85570  13.269  42.440  12.983
13157W        W85571  12.830  44.843   3.332
13158W        W85572  38.905   3.902   1.415
13159W        W85573  32.083  13.762  14.852
13160W        W85574  11.149  31.082   1.715
13161W        W85575   8.350  16.091  11.905
13162W        W85576  15.311   7.671  10.046
13163W        W85577  19.181  26.642   0.888
13164W        W85578  44.767  42.363   0.822
13165W        W85579  26.636  44.861   2.239
13166W        W85580  21.571  32.398   1.423
13167W        W85581  29.105  43.867   3.839
13168W        W85582  44.401   3.767   1.715
13169W        W85583  31.969  22.073   3.296
13170W        W85584  23.232  25.214   1.763
13171W        W85585   1.956  28.447  14.384
13172W        W85586  29.611  19.546  14.836
13173W        W85587  33.090  27.522   0.907
13174W        W85588  36.485  30.978  12.527
13175W        W85589   7.774   6.231   4.332
13176W        W85590  10.770   0.942   1.251
13177W        W85591  35.465  37.851   3.323
13178W        W85592  44.765  20.627  12.023
13179W        W85593  18.570   4.428  14.958
13180W        W85594   5.761  35.965   3.803
13181W        W85595  24.043   2.778   3.792
13182W        W85596  23.676  30.485  10.988
13183W        W85597   0.862  25.107   2.394
13184W        W85598  28.440  44.809   4.728
13185W        W85599  33.403  42.923  10.503
13186W        W85600  23.570  18.580  11.469
13187W        W85601  14.809  14.188  10.055
13188W        W85602  35.089  32.627   1.374
13189W        W85603  32.442  18.768   3.205
13190W        W85604  22.078  22.718  14.924
13191W        W85605   2.381  15.131   2.673
13192W        W85606  37.432  22.226   1.408
13193W        W85607  10.332  32.588  13.415
13194W        W85608  33.033  17.695  12.999
13195W        W85609  12.356  33.511  13.535
13196W        W85610  24.646   2.470   1.421
13197W        W85611  32.597  44.310  12.079
13198W        W85612  26.116  27.479   2.207
13199W        W85613  44.352  28.103  13.541
13200W        W85614  38.055  31.635  11.937
13201W        W85615  25.644  32.545   3.216
13202W        W85616   2.272  42.511   3.302
13203W        W85617  19.050  37.364   0.792
13204W        W85618   5.222  24.065  12.951
13205W        W85619   4.769  28.565   2.865
13206W        W85620  22.123  33.005   2.794
13207W        W85621   6.396  24.195   2.404
13208W        W85622  14.305  30.533  11.457
13209W        W85623  14.225   4.377  12.548
13210W        W85624  31.406  30.972  14.510
13211W        W85625  21.701  36.472  12.974
13212W        W85626  12.828  34.895  14.901
13213W        W85627  28.953  25.974   4.144
13214W        W85628  33.098  10.306   5.303
13215W        W85629  32.429  30.437  11.569
13216W        W85630  30.498   9.216  14.361
13217W        W85631  38.565  14.254  14.482
13218W        W85632  24.567  44.451   5.626
13219W        W85633  16.216  26.119   0.362
13220W        W85634   3.288  16.209   2.225
13221W        W85635   2.848  42.864   0.912
13222W        W85636  20.256  37.027  13.399
13223W        W85637   2.862   6.237   0.478
13224W        W85638  28.635   5.252   2.776
13225W        W85639  15.608  36.389   1.349
13226W        W85640  11.661  28.603  10.411
13227W        W85641  20.758  14.287   4.629
13228W        W85642  32.487   0.937  10.619
13229W        W85643   7.205  25.032   0.380
13230W        W85644  29.619  42.802   3.200
13231W        W85645   5.740  32.481  12.497
13232W        W85646  24.170  41.298   4.710
13233W        W85647  23.984  27.160   0.341
13234W        W85648  41.388  28.089   3.174
13235W        W85649   4.785  33.459  12.580
13236W        W85650  26.587  17.124   1.225
13237W        W85651  44.387  27.612  14.448
13238W        W85652  43.837  31.089  12.021
13239W        W85653  27.143  37.853   1.934
13240W        W85654  29.947  17.721  13.861
13241W        W85655   8.287  22.546  13.874
13242W        W85656  30.584  24.979   1.447
13243W        W85657  32.954  30.100   0.771
13244W        W85658  27.115  30.610   0.389
13245W        W85659   0.470  14.286  13.792
13246W        W85660  44.795  36.390  13.372
13247W        W85661   2.436   5.835   2.328
13248W        W85662  41.809  21.253  11.589
13249W        W85663  16.274  18.687  12.091
13250W        W85664  10.808  29.118   0.433
13251W        W85665  41.903  40.340   2.795
13252W        W85666  19.276   3.710   3.193
13253W        W85667  16.145  33.980  11.447
13254W        W85668  43.398  12.692  11.404
13255W        W85669  32.051  36.009   5.114
13256W        W85670  38.526   2.272   0.782
13257W        W85671  44.378  42.416  13.994
13258W        W85672  11.774  11.142  11.051
13259W        W85673  15.723  18.211   2.387
13260W        W85674  13.344  36.074   1.251
13261W        W85675  38.017  32.436   4.701
13262W        W85676  33.526  17.707  13.819
13263W        W85677  31.589  11.811  13.958
13264W        W85678  27.678  13.827  13.431
13265W        W85679   6.688  35.525  11.521
13266W        W85680  25.105   8.803   0.358
13267W        W85681  16.649  21.705   3.163
13268W        W85682  35.937   2.393   0.334
13269W        W85683  23.050  10.691   0.847
13270W        W85684   4.358  41.311  12.427
13271W        W85685  21.210   8.170   3.189
13272W        W85686  20.688  25.199  14.975
13273W        W85687  22.537  25.060   0.952
13274W        W85688   1.418   3.740   3.746
13275W        W85689  20.051  19.202   3.649
13276W        W85690  36.038  44.900  13.538
13277W        W85691   3.758  35.890   4.311
13278W        W85692  35.054  25.002   1.383
13279W        W85693  28.064  10.319  13.828
13280W        W85694  21.211  38.024  11.097
13281W        W85695  13.313  12.191   3.638
13282W        W85696  36.487  13.135   2.281
13283W        W85697  37.944  33.986   0.342
13284W        W85698  11.149  38.013   1.830
13285W        W85699   0.834   9.830  13.894
13286W        W85700  43.476   4.335  11.858
13287W        W85701   8.390   3.826   1.807
13288W        W85702  20.666   0.435   1.281
13289W        W85703  43.495  13.694   4.622
13290W        W85704   8.226  10.141   3.265
13291W        W85705  12.796  28.148   0.764
13292W        W85706  25.597  31.083  14.498
13293W        W85707  13.631  35.058  13.997
13294W        W85708  25.523  40.399   1.694
13295W        W85709  17.560   4.301  11.588
13296W        W85710  15.119   8.898  14.331
13297W        W85711  11.173  27.589  14.472
13298W        W85712  44.845  20.096   1.384
13299W        W85713  20.033  23.239  11.902
13300W        W85714  39.473  36.027   1.728
13301W        W85715  12.821  31.041  14.284
13302W        W85716   9.277  38.869  12.054
13303W        W85717  22.695   3.732  13.986
13304W        W85718  10.169  35.431   4.188
13305W        W85719  29.972  17.583  10.492
13306W        W85720  40.945  22.038  12.378
13307W        W85721   8.317  23.184  10.967
13308W        W85722  22.056  27.496   2.759
13309W        W85723   6.731  32.543   1.234
13310W        W85724  38.485   2.464   2.716
13311W        W85725  39.369  14.188   1.296
13312W        W85726  27.079  21.206  12.545
13313W        W85727  33.968  36.017  12.847
13314W        W85728   7.217  17.174   1.812
13315W        W85729  15.147  24.203   3.311
13316W        W85730  30.437  42.830   5.093
13317W        W85731   8.670  13.808  13.341
13318W        W85732  19.538  11.234   3.851
13319W        W85733  41.426  37.979  10.411
13320W        W85734  40.930  44.848   0.475
13321W        W85735  37.467  10.727   3.764
13322W        W85736  23.174  16.147  14.441
13323W        W85737  18.708  37.885  10.520
13324W        W85738  12.197  24.722  14.894
13325W        W85739  43.845   4.279  12.043
13326W        W85740  37.413   8.301   2.295
13327W        W85741  43.908  44.259  12.008
13328W        W85742  28.618   1.754   4.334
13329W        W85743  39.498  11.652  14.893
13330W        W85744  26.986  20.171   3.727
13331W        W85745  38.354  12.282  11.941
13332W        W85746  33.507  27.958   4.332
13333W        W85747  43.906  15.588   0.967
13334W        W85748   4.285  21.741   3.686
13335W        W85749  35.442  33.024   4.352
13336W        W85750   0.743  19.194  13.496
13337W        W85751  34.488  37.927   4.336
13338W        W85752  27.037  31.603   3.350
13339W        W85753  25.183  39.908   1.712
13340W        W85754  19.687  42.282   0.469
13341W        W85755  28.060  18.587   1.820
13342W        W85756  32.140  20.546  14.480
13343W        W85757  29.042  20.706   0.367
13344W        W85758   1.967   3.443   2.676
13345W        W85759  10.702  18.716   0.303
13346W        W85760   5.728  36.470  14.281
13347W        W85761  37.376  29.553  10.620
13348W        W85762  19.102  39.379   0.251
13349W        W85763  30.104  13.778  11.510
13350W        W85764  43.364  23.118  11.440
13351W        W85765   6.734  29.164   0.290
13352W        W85766  14.719  27.604   0.376
13353W        W85767  34.584  33.483  10.606
13354W        W85768  31.088  33.517  14.987
13355W        W85769  24.620  12.702   1.448
13356W        W85770   4.882  43.825  10.897
13357W        W85771  43.004   1.413  14.901
13358W        W85772  13.774   0.455   0.417
13359W        W85773  10.730   9.688  12.421
13360W        W85774  29.467  13.284   3.753
13361W        W85775  44.937  26.618  13.377
13362W        W85776  10.844  12.268   0.327
13363W        W85777   1.761  16.184   0.470
13364W        W85778  15.616  38.459  11.103
13365W        W85779  17.293  43.984   1.324
13366W        W85780  39.852  31.091   0.905
13367W        W85781   2.406   9.214  14.984
13368W        W85782  38.356  34.509   4.773
13369W        W85783  39.429  21.241  13.026
13370W        W85784  11.159   0.798  12.349
13371W        W85785  22.996  14.707   3.256
13372W        W85786  26.072  10.778   0.249
13373W        W85787   6.845  20.548  13.978
13374W        W85788  42.792  28.942  11.937
13375W        W85789  44.959  39.439  11.499
13376W        W85790   5.881  27.446  13.461
13377W        W85791  44.301  16.611  14.967
13378W        W85792  13.311  22.610  11.973
13379W        W85793  18.058  13.741  11.450
13380W        W85794  22.063  14.244   1.925
13381W        W85795  25.682  30.475   1.799
13382W        W85796   5.730   6.711  12.031
13383W        W85797   0.296  42.912  14.948
13384W        W85798  35.037  37.871  11.886
13385W        W85799  35.882   5.739   3.729
13386W        W85800   6.192  20.210  13.393
13387W        W85801  43.868  35.915  11.388
13388W        W85802   2.270   8.849  10.963
13389W        W85803  32.891  27.617  14.289
13390W        W85804  18.635   8.394  12.533
13391W        W85805  11.818   6.305   1.316
13392W        W85806  44.793  25.660  14.789
13393W        W85807   9.366  23.150   2.793
13394W        W85808  23.113  41.334   2.776
13395W        W85809  12.140   4.907  11.069
13396W        W85810  40.322  28.473   1.860
13397W        W85811  25.575  31.567  11.998
13398W        W85812  28.505  24.177  10.954
13399W        W85813  26.466  28.177  13.812
13400W        W85814  34.066  31.124   4.299
13401W        W85815  42.319  27.638  14.513
13402W        W85816   5.690   9.236   2.795
13403W        W85817  43.830  33.022   3.270
13404W        W85818  19.607  25.713   3.787
13405W        W85819   7.717  17.104   0.371
13406W        W85820  10.155  31.506  13.515
13407W        W85821  17.130  17.117   5.148
13408W        W85822  26.637  28.943  12.515
13409W        W85823  38.822  16.798  10.575
13410W        W85824  10.357  34.443   2.680
13411W        W85825   8.707  20.056  13.905
13412W        W85826   6.307   7.320   0.360
13413W        W85827  29.093  17.063   1.740
13414W        W85828  41.951  34.375   1.381
13415W        W85829  36.072  42.317   2.392
13416W        W85830  12.185   0.795   4.789
13417W        W85831  35.044   5.770  11.572
13418W        W85832  37.048  43.404   0.470
13419W        W85833  38.063  20.168   0.823
13420W        W85834  39.485  34.549   0.797
13421W        W85835  36.857  11.801  10.948
13422W        W85836  31.982  26.995   1.809
13423W        W85837  20.734  31.529   0.362
13424W        W85838  23.075  18.227   5.703
13425W        W85839  37.352   4.918  11.055
13426W        W85840  24.586  23.730  14.029
13427W        W85841  23.142  14.179   4.311
13428W        W85842  42.443  37.337   4.127
13429W        W85843   0.449  35.010  10.589
13430W        W85844  31.455  36.553  11.600
13431W        W85845  25.040   7.721   4.719
13432W        W85846   7.312  20.234   4.156
13433W        W85847  43.933  40.888   4.327
13434W        W85848  38.026  21.035  12.827
13435W        W85849  20.090  25.604   0.374
13436W        W85850  18.634  28.979   3.640
13437W        W85851  21.615  11.295  11.450
13438W        W85852  13.301  33.035  13.830
13439W        W85853  31.088  22.179  12.937
13440W        W85854  43.367   2.729  13.945
13441W        W85855   3.939  40.496   2.204
13442W        W85856  28.993  25.197  13.485
13443W        W85857  40.453   8.803  14.489
13444W        W85858  25.200  37.015   0.826
13445W        W85859  22.537   4.431   0.876
13446W        W85860  32.411  39.467  14.850
13447W        W85861  32.605  10.856  14.797
13448W        W85862   1.267  26.986   4.344
13449W        W85863  29.001  29.114   3.248
13450W        W85864   7.898  19.654   1.257
13451W        W85865  37.876  32.449   0.317
13452W        W85866  13.323  40.798   4.164
13453W        W85867  24.565  18.660   1.744
13454W        W85868  15.603  42.313  11.990
13455W        W85869  30.518  26.058  11.592
13456W        W85870  41.415   8.171   1.369
13457W        W85871  13.609  38.571  14.796
13458W        W85872  40.487  13.822  12.535
13459W        W85873  40.474  17.246  13.927
13460W        W85874  36.878   2.235   0.419
13461W        W85875  23.537  27.608   2.392
13462W        W85876   7.852   9.825   2.780
13463W        W85877  40.548   6.317   0.960
13464W        W85878  15.326  22.166  10.899
13465W        W85879  40.313  20.031   4.657
13466W        W85880   2.862   0.780  11.067
13467W        W85881  12.207  15.615  13.350
13468W        W85882  37.020   5.428   4.657
13469W        W85883  36.365  22.135  11.523
13470W        W85884   0.484  40.851  13.936
13471W        W85885  37.022   7.315   2.416
13472W        W85886  16.641  24.102   1.379
13473W        W85887  21.021  14.760   1.783
13474W        W85888  26.470  15.216  12.483
13475W        W85889   3.830  42.951   0.863
13476W        W85890  35.491   0.784   4.255
13477W        W85891  30.922  13.763  13.034
13478W        W85892  12.221  14.220   4.668
13479W        W85893  25.062  39.313   0.354
13480W        W85894  29.439  33.002  10.923
13481W        W85895  43.485  26.041   1.837
13482W        W85896  38.571  33.045  10.459
13483W        W85897  11.831  11.757   4.188
13484W        W85898  10.658  20.546   3.737
13485W        W85899  18.179  38.061  11.969
13486W        W85900  38.939  35.540   5.149
13487W        W85901  24.973  42.895   2.377
13488W        W85902  42.413  30.575  14.383
13489W        W85903   9.754  33.523  12.349
13490W        W85904  25.646  17.170   3.775
13491W        W85905   9.194  41.397   4.161
13492W        W85906  26.139  33.117   3.158
13493W        W85907  41.433  39.494   0.965
13494W        W85908  18.168  14.105   2.796
13495W        W85909  10.633  24.038  13.964
13496W        W85910  23.540  44.860   3.731
13497W        W85911  39.559  16.107   3.848
13498W        W85912   1.380  24.100  14.291
13499W        W85913   0.251   9.264   3.352
13500W        W85914  31.577  28.659  14.874
13501W        W85915   8.732  25.033   3.180
13502W        W85916  39.874   7.909  13.372
13503W        W85917  14.812  40.860   4.709
13504W        W85918  10.758  21.756   1.447
13505W        W85919  15.101  17.096  13.062
13506W        W85920  40.405  12.614   0.449
13507W        W85921  24.488   7.208   1.745
13508W        W85922  14.148  21.688   3.683
13509W        W85923   6.795  16.771   3.378
13510W        W85924   0.402  31.626   3.209
13511W        W85925  39.385  37.451  11.601
13512W        W85926  42.434  35.589   0.739
13513W        W85927   6.219  33.958  14.942
13514W        W85928  29.065  14.169  13.414
13515W        W85929   2.833  43.018  11.471
13516W        W85930   2.949  28.547  13.506
13517W        W85931  12.209  26.485   4.149
13518W        W85932  24.108  40.921   2.730
13519W        W85933  13.137  23.153   2.185
13520W        W85934  10.373  10.854  14.889
13521W        W85935   8.225  24.518   1.430
13522W        W85936   2.359   1.381  13.329
13523W        W85937  36.469  18.606   3.302
13524W        W85938  12.814  16.115  13.310
13525W        W85939  14.112  42.307  14.275
13526W        W85940  23.646  11.249  13.444
13527W        W85941  24.124  36.974  12.554
13528W        W85942  23.226  26.109  13.438
13529W        W85943   5.273  11.703  10.106
13530W        W85944   0.384   8.358   2.821
13531W        W85945   1.789  32.427   4.801
13532W        W85946  10.840  17.593   4.217
13533W        W85947   8.839  12.227  13.932
13534W        W85948  32.891  25.170  10.498
13535W        W85949  11.246  11.353   0.427
13536W        W85950  24.637   9.199  12.345
13537W        W85951  17.713  37.887  11.008
13538W        W85952  15.674   1.931  13.392
13539W        W85953  10.801   6.184  12.543
13540W        W85954   9.190   9.833  12.914
13541W        W85955  42.369  19.222   1.352
13542W        W85956  19.591   8.328  11.120
13543W        W85957  21.747   0.472   1.743
13544W        W85958  13.118   0.411  11.397
13545W        W85959  39.375  35.909   4.604
13546W        W85960  16.602  25.627   1.420
13547W        W85961  19.551   3.430   4.120
13548W        W85962  15.750  35.396   3.230
13549W        W85963  17.745  12.758   4.239
13550W        W85964  38.385  42.516   2.731
13551W        W85965   7.679   0.874  10.006
13552W        W85966  19.231   7.384   4.178
13553W        W85967  15.711  29.061   1.768
13554W        W85968  16.706  37.422   0.801
13555W        W85969  13.303  43.379  12.825
13556W        W85970  13.837  17.196  10.503
13557W        W85971  31.478  36.532  10.409
13558W        W85972  30.995   1.903  12.875
13559W        W85973  24.065  26.569   1.354
13560W        W85974  28.578  25.508   0.301
13561W        W85975  19.163  32.121   0.915
13562W        W85976  23.674   5.848  12.419
13563W        W85977  36.869  35.593  11.562
13564W        W85978   2.917   3.905  14.290
13565W        W85979  16.775   1.845   4.782
13566W        W85980  23.545  16.793  11.510
13567W        W85981   8.180  14.169  12.442
13568W        W85982   9.200  35.019  12.389
13569W        W85983  41.987  12.217   0.775
13570W        W85984  35.101  11.247   4.755
13571W        W85985  39.375  23.691  13.799
13572W        W85986  11.177  13.170   4.332
13573W        W85987  43.818  36.897  14.466
13574W        W85988  11.797  42.812   9.953
13575W        W85989  29.474  10.678  10.434
13576W        W85990   7.400  20.149   0.749
13577W        W85991   8.659  11.848  11.431
13578W        W85992  22.165   6.229  14.325
13579W        W85993  22.528   1.291   0.385
13580W        W85994  43.470  28.542  10.568
13581W        W85995  26.208  28.486   1.218
13582W        W85996  19.046  23.706  10.551
13583W        W85997  33.084  22.503  10.914
13584W        W85998  16.074   2.278  12.041
13585W        W85999   5.342  33.571   9.936
13586W        W86000  11.665  35.978   2.415
13587W        W86001  25.620  34.446  13.838
13588W        W86002  24.165  10.235   3.159
13589W        W86003  23.125  34.022  13.886
13590W        W86004  26.010   7.786   3.722
13591W        W86005  28.583   8.715  10.604
13592W        W86006  31.150  41.344   1.714
13593W        W86007  20.206   9.383   4.321
13594W        W86008  24.606  19.073  14.371
13595W        W86009  14.678  11.794   3.863
13596W        W86010  39.380  26.685   2.382
13597W        W86011  39.047  22.553   1.354
13598W        W86012  28.078   9.690  11.549
13599W        W86013  11.163  40.813  10.906
13600W        W86014   8.837  42.797   1.901
13601W        W86015  16.630  18.244  13.347
13602W        W86016  42.776  19.122  14.467
13603W        W86017   0.805   7.310  12.044
13604W        W86018   8.751  24.667   0.805
13605W        W86019  27.144  37.551   0.434
13606W        W86020  32.990   4.247  14.279
13607W        W86021  26.007   9.814  10.550
13608W        W86022  19.711   1.752   3.323
13609W        W86023   1.290  42.889   3.296
13610W        W86024   0.962  20.261  13.546
13611W        W86025   5.829  44.280  12.933
13612W        W86026  39.371  31.077   0.949
13613W        W86027  44.008  28.140   3.282
13614W        W86028   2.345  28.007  13.959
13615W        W86029  10.321   6.871   0.356
13616W        W86030  22.193   9.272   0.368
13617W        W86031  26.620  39.368   4.254
13618W        W86032  17.577  17.593   0.966
13619W        W86033  27.462  30.059   4.599
13620W        W86034   8.367  33.052   2.668
13621W        W86035  19.751   4.400  11.381
13622W        W86036  18.701  17.237  12.965
13623W        W86037  20.035  18.570   3.736
13624W        W86038  16.099  19.251  14.928
13625W        W86039  21.723  13.335  13.791
13626W        W86040   0.273  30.616  10.985
13627W        W86041   9.886  16.636   2.302
13628W        W86042  28.124  21.594  10.984
13629W        W86043   2.273  30.926   1.348
13630W        W86044  36.078  31.505   1.780
13631W        W86045   6.778  41.837  11.089
13632W        W86046  17.189  23.541  13.908
13633W        W86047  44.261  26.696  14.920
13634W        W86048  12.321  25.184   3.641
13635W        W86049   9.877   2.944   1.267
13636W        W86050  13.805  28.518   3.168
13637W        W86051  44.916  30.085   1.355
13638W        W86052   3.355  13.622   4.175
13639W        W86053   9.650  34.034   4.175
13640W        W86054  17.791  44.947   2.393
13641W        W86055  34.392  27.940   3.644
13642W        W86056   4.306  11.223   4.311
13643W        W86057  34.484  11.259  14.870
13644W        W86058  44.996  37.532   4.798
13645W        W86059  25.199  39.879  13.331
13646W        W86060  17.681  35.004  10.522
13647W        W86061  19.099  27.954  14.005
13648W        W86062  21.070  42.326   9.970
13649W        W86063   1.868   0.968  13.489
13650W        W86064  11.846  27.621   1.231
13651W        W86065  24.682  15.652  12.353
13652W        W86066  10.139  19.618  10.531
13653W        W86067  34.490   8.736   0.834
13654W        W86068  38.997  21.642   3.260
13655W        W86069  28.000  40.814   0.763
13656W        W86070  15.187  37.003  11.442
13657W        W86071  38.845  20.727   1.738
13658W        W86072  37.026  38.015   0.357
13659W        W86073  42.363  42.985  10.024
13660W        W86074  14.710   1.880   2.279
13661W        W86075  43.291  31.496  11.035
13662W        W86076  18.125   4.205  14.903
13663W        W86077  19.550   4.907   5.258
13664W        W86078   1.385   3.392  12.520
13665W        W86079  11.767  32.448   3.383
13666W        W86080  36.092  23.718   5.680
13667W        W86081  16.758   6.686   0.431
13668W        W86082  15.113  12.766  14.876
13669W        W86083  18.787   5.415   3.301
13670W        W86084  39.359  31.428  12.034
13671W        W86085  21.747  32.074   4.196
13672W        W86086  24.220  15.218  14.293
13673W        W86087   9.207  17.562   4.306
13674W        W86088   5.241  29.439  10.412
13675W        W86089  10.786  13.725   3.731
13676W        W86090  41.844  31.416  11.543
13677W        W86091  33.943  40.009   4.269
13678W        W86092  44.897   2.835   0.468
13679W        W86093   3.709   7.844   2.890
13680W        W86094  18.771  44.433  11.904
13681W        W86095  19.057  17.247   0.813
13682W        W86096  35.037  37.979  11.041
13683W        W86097  17.165  24.108  14.500
13684W        W86098  27.658  40.033   0.302
13685W        W86099  39.390  41.954   3.300
13686W        W86100  41.995   0.854  13.521
13687W        W86101  31.099  42.489   4.730
13688W        W86102  10.812  43.982   4.811
13689W        W86103   2.366  17.187   4.182
13690W        W86104  43.365  34.470   2.185
13691W        W86105  39.023  43.971   1.719
13692W        W86106  22.710  44.785   0.326
13693W        W86107  41.446  17.190   1.222
13694W        W86108  32.900  31.576  14.867
13695W        W86109  42.861   9.197   0.955
13696W        W86110  34.895  10.854   4.621
13697W        W86111   1.733  36.511   2.806
13698W        W86112  34.073   2.457   2.899
13699W        W86113   2.742  31.545  12.528
13700W        W86114  38.521  44.776   4.249
13701W        W86115   8.757  29.635   0.403
13702W        W86116  40.372  21.178   3.828
13703W        W86117   1.461   4.234   2.735
13704W        W86118  38.453   0.873  14.802
13705W        W86119  20.190   7.677   1.816
13706W        W86120  12.282   5.888  11.513
13707W        W86121   4.346  42.982   2.735
13708W        W86122   0.383   5.886   1.740
13709W        W86123  38.327  27.984   2.251
13710W        W86124   5.767  33.618  12.344
13711W        W86125  41.840  21.177  12.935
13712W        W86126  36.527  15.651  13.538
13713W        W86127   5.850  12.254   1.215
13714W        W86128  13.170  29.431  12.427
13715W        W86129  14.240  31.586  12.081
13716W        W86130  10.675  36.054   0.412
13717W        W86131  10.766  24.491   4.741
13718W        W86132  16.174   9.736   3.241
13719W        W86133  43.364   0.466  14.406
13720W        W86134   9.652   9.718  13.532
13721W        W86135  27.025  34.986   3.325
13722W        W86136  22.631  42.023  14.849
13723W        W86137  29.519  30.053  11.469
13724W        W86138  27.047   3.910   3.648
13725W        W86139  19.575  29.435   1.290
13726W        W86140  42.296  17.307   3.778
13727W        W86141  15.802  41.475  12.949
13728W        W86142  35.868  19.699  13.519
13729W        W86143  11.142   2.303   2.720
13730W        W86144  22.534  39.997   3.249
13731W        W86145  39.331  15.711  12.064
13732W        W86146  12.638  29.162   3.223
13733W        W86147  30.023   3.316   3.150
13734W        W86148  22.186   3.444  11.415
13735W        W86149  19.045   5.265  14.346
13736W        W86150  41.373  18.157  10.423
13737W        W86151  44.279  17.555  12.013
13738W        W86152  39.042  34.899  12.339
13739W        W86153   7.249  42.383  11.469
13740W        W86154  12.747  28.183   1.442
13741W        W86155  34.984  42.361  10.421
13742W        W86156   6.251  26.003  11.070
13743W        W86157  38.397   3.867   3.643
13744W        W86158  28.060  16.205  10.638
13745W        W86159   4.441  31.115   3.235
13746W        W86160  25.973  43.512   3.745
13747W        W86161   8.205  36.507  13.521
13748W        W86162  26.576   9.684   2.198
13749W        W86163   7.407   3.804   4.263
13750W        W86164   4.335  39.374   4.313
13751W        W86165   2.451   4.806  13.355
13752W        W86166  20.159   0.408  14.365
13753W        W86167  17.159  37.863  13.522
13754W        W86168  19.568   9.368   2.837
13755W        W86169  27.048  12.856   2.252
13756W        W86170   4.893  34.978  13.513
13757W        W86171   1.457  29.955  12.864
13758W        W86172  40.895  43.943   0.254
13759W        W86173   4.337  33.428  10.925
13760W        W86174  34.555  37.527  10.929
13761W        W86175   6.762  44.859  11.578
13762W        W86176  43.448  38.907  14.840
13763W        W86177  23.568  10.318  11.414
13764W        W86178   4.756  35.082   2.302
13765W        W86179   2.411  36.941  14.281
13766W        W86180  13.340  21.084  13.482
13767W        W86181  26.170  29.944   1.299
13768W        W86182  25.687  23.552  10.590
13769W        W86183  28.587  29.106  13.971
13770W        W86184  28.095  37.562  13.308
13771W        W86185  24.483   3.389  13.373
13772W        W86186  44.329  35.961   1.365
13773W        W86187  43.420  18.158   3.835
13774W        W86188  42.864  36.882  14.309
13775W        W86189  18.081  39.997  14.901
13776W        W86190  25.076   6.706   4.238
13777W        W86191   9.322   2.800   3.857
13778W        W86192  24.588  14.331   4.676
13779W        W86193  29.445  15.721   2.381
13780W        W86194  43.430   2.379  14.437
13781W        W86195  28.028   9.274   4.643
13782W        W86196  32.504  35.496  13.888
13783W        W86197  37.064  12.152  14.774
13784W        W86198  40.851   8.669   4.171
13785W        W86199  17.165  15.708   0.452
13786W        W86200  38.569  38.035   1.860
13787W        W86201  28.085   2.787  14.903
13788W        W86202  40.514  44.325  11.579
13789W        W86203   4.393  32.603   1.309
13790W        W86204  26.998  38.499  14.772
13791W        W86205  16.293  40.370  13.536
13792W        W86206  33.982  10.194   4.142
13793W        W86207  19.734   5.695  12.077
13794W        W86208  13.602  33.941  11.910
13795W        W86209  17.117  35.432  13.438
13796W        W86210  33.118  30.030  10.978
13797W        W86211  37.443  26.517   5.295
13798W        W86212   1.283   5.239  11.608
13799W        W86213  36.435  30.956   1.724
13800W        W86214  42.807  43.284  13.808
13801W        W86215   8.364  17.063  11.511
13802W        W86216  38.991  21.098   4.172
13803W        W86217  43.809  13.191   1.340
13804W        W86218  37.836   7.724   2.683
13805W        W86219  38.523  14.219  14.914
13806W        W86220  33.906  36.446   2.747
13807W        W86221  23.055   6.426   4.211
13808W        W86222  25.682  23.667  13.997
13809W        W86223   1.948   3.292   3.797
13810W        W86224  38.413  15.765  13.474
13811W        W86225  11.651  20.059   9.920
13812W        W86226  10.818  13.335   1.396
13813W        W86227   9.252  43.015   3.728
13814W        W86228  14.268  17.601  13.340
13815W        W86229  17.287   7.792  14.863
13816W        W86230  35.993  41.987  12.058
13817W        W86231  35.103  37.071  14.946
13818W        W86232   1.873  18.662  13.331
13819W        W86233  36.860  13.835   3.753
13820W        W86234  30.951  36.874  11.118
13821W        W86235  39.545   4.370  12.881
13822W        W86236  26.973  13.263   4.645
13823W        W86237  36.452  34.464  14.826
13824W        W86238   6.802  19.216   0.394
13825W        W86239  24.697  33.560   2.821
13826W        W86240  44.879  22.731  10.996
13827W        W86241   6.733   8.160  11.415
13828W        W86242   8.180  36.942  14.498
13829W        W86243   4.251  27.591   2.273
13830W        W86244  41.314  42.469   1.332
13831W        W86245  20.126  34.455  11.487
13832W        W86246  11.293  26.494  12.086
13833W        W86247  36.404   7.892   0.348
13834W        W86248  41.396  30.458  10.529
13835W        W86249  18.728  28.660  14.009
13836W        W86250  39.337  40.444   1.813
13837W        W86251  42.368  25.023  14.794
13838W        W86252  24.974   4.882  13.479
13839W        W86253   9.745  12.170  10.412
13840W        W86254  36.514  19.775   4.316
13841W        W86255  24.632  13.203   3.810
13842W        W86256  12.781  27.665   1.258
13843W        W86257  28.052   6.276   2.329
13844W        W86258  25.679   8.821  11.955
13845W        W86259  22.154  43.931   2.694
13846W        W86260   9.722   1.427  12.511
13847W        W86261  43.429  31.950   4.315
13848W        W86262  19.747  31.420  13.430
13849W        W86263  38.352  41.847   4.195
13850W        W86264   6.684  19.601   2.751
13851W        W86265  10.272   7.785   3.851
13852W        W86266   0.745  14.268  13.449
13853W        W86267  38.979  39.517   2.791
13854W        W86268   8.323  42.792   1.924
13855W        W86269   5.893  25.996   1.772
13856W        W86270  44.756  24.606  13.333
13857W        W86271  24.150  12.238  14.380
13858W        W86272  29.500  40.837   4.635
13859W        W86273   5.722  28.172  13.519
13860W        W86274   1.342  31.601   3.349
13861W        W86275   7.684  41.342   2.418
13862W        W86276  16.248   7.287   2.370
13863W        W86277   7.834  17.102   0.871
13864W        W86278   8.355  44.473  13.037
13865W        W86279  34.550   5.394  12.026
13866W        W86280  24.001  16.787   4.171
13867W        W86281  31.897  12.235   0.884
13868W        W86282  18.141  23.669  12.000
13869W        W86283  21.137  13.118  12.826
13870W        W86284  23.208   8.192  13.374
13871W        W86285   1.368  20.675  13.873
13872W        W86286  36.025  28.998   3.358
13873W        W86287  31.571  29.427   0.789
13874W        W86288   5.262  23.538   4.328
13875W        W86289  41.510   1.419  11.438
13876W        W86290   0.833  19.619   1.742
13877W        W86291  33.104  20.660  14.385
13878W        W86292  19.578  40.022  11.601
13879W        W86293  26.204  17.614   1.342
13880W        W86294  24.554   4.776   1.401
13881W        W86295  44.298   0.922   1.425
13882W        W86296  36.843  27.589  12.044
13883W        W86297   2.347  15.125   0.788
13884W        W86298  14.631  36.443  12.459
13885W        W86299  34.503  21.672  11.976
13886W        W86300   8.212  35.971   4.749
13887W        W86301  21.233  22.600   3.238
13888W        W86302   3.898  32.417  12.933
13889W        W86303  38.007  35.909   1.292
13890W        W86304  30.628  24.214  12.469
13891W        W86305  16.579  41.466  11.108
13892W        W86306  38.485  42.403   4.306
13893W        W86307   1.767  14.627  11.523
13894W        W86308  12.634  15.686   2.871
13895W        W86309  39.930  12.725  14.028
13896W        W86310   8.238  26.201  14.781
13897W        W86311  29.954   7.252   4.615
13898W        W86312  10.354  31.530  14.929
13899W        W86313   1.940   2.365  14.338
13900W        W86314  40.054  37.418   0.468
13901W        W86315  35.516  11.636   2.231
13902W        W86316  31.409  13.144  13.920
13903W        W86317  15.671  37.026  10.915
13904W        W86318  12.169  13.717  12.071
13905W        W86319  33.517  40.542  12.557
13906W        W86320  41.340  10.317  12.871
13907W        W86321   1.810  11.767   1.264
13908W        W86322  23.134   8.886   1.449
13909W        W86323  15.586  42.394   1.271
13910W        W86324  35.557  24.121   4.352
13911W        W86325   5.252  25.674   0.474
13912W        W86326  17.082  28.603  13.399
13913W        W86327  15.308  28.040   2.383
13914W        W86328  41.954   1.382  10.581
13915W        W86329  31.061  22.078   2.325
13916W        W86330  23.516  19.766   4.296
13917W        W86331  24.644  27.687   4.797
13918W        W86332   1.296  34.877   4.597
13919W        W86333  42.390  18.750   1.255
13920W        W86334  30.977  42.422  12.425
13921W        W86335  28.009  22.533   5.175
13922W        W86336  37.471   7.773   4.787
13923W        W86337   4.930  30.569  13.018
13924W        W86338  31.111  18.239   0.849
13925W        W86339  13.126  32.046  14.984
13926W        W86340  40.828  34.915   0.395
13927W        W86341  29.577  18.245   4.169
13928W        W86342  42.285  37.022   2.813
13929W        W86343  36.556  31.420  10.632
13930W        W86344   6.797  21.674  13.833
13931W        W86345  11.665  35.853  13.318
13932W        W86346  22.713  11.195  14.276
13933W        W86347  27.181   1.480   2.725
13934W        W86348  41.372   0.931  10.910
13935W        W86349  25.668  35.919   1.366
13936W        W86350  31.619  19.761   1.697
13937W        W86351  21.165   0.344   0.865
13938W        W86352  19.238  44.890   4.834
13939W        W86353  21.678  12.206  10.409
13940W        W86354  32.627  44.884   3.703
13941W        W86355  31.985   3.427   2.215
13942W        W86356   8.798  21.223   1.878
13943W        W86357   5.371  26.198   3.178
13944W        W86358  35.866   9.328   4.807
13945W        W86359  42.317  29.506  12.863
13946W        W86360  12.639  14.605  14.949
13947W        W86361  15.321  41.300  14.476
13948W        W86362  28.093   7.262   3.774
13949W        W86363  36.934  10.270   3.318
13950W        W86364  23.558  24.980   4.218
13951W        W86365  23.088  19.045  11.959
13952W        W86366   2.264   8.840   0.922
13953W        W86367  18.666   9.782  11.602
13954W        W86368  10.152  39.990   1.814
13955W        W86369  25.185  37.364   3.252
13956W        W86370   3.858  32.927  11.484
13957W        W86371  23.121  21.524  13.471
13958W        W86372  36.082  20.524   2.816
13959W        W86373  18.287  34.600   2.718
13960W        W86374  41.904  26.645   2.226
13961W        W86375   5.252  36.956   0.767
13962W        W86376   8.665  32.580   4.654
13963W        W86377  33.593  17.569  12.079
13964W        W86378  44.438  21.125   4.169
13965W        W86379   9.210   9.393   1.283
13966W        W86380   7.853  31.628   1.307
13967W        W86381  18.099   2.823   0.903
13968W        W86382   0.856  41.419  13.804
13969W        W86383  38.835  25.579   2.349
13970W        W86384   1.419   1.301  14.814
13971W        W86385  11.664  39.496   1.851
13972W        W86386  21.555  33.621   3.644
13973W        W86387   1.424   9.802   4.781
13974W        W86388  41.895  41.317   1.764
13975W        W86389  42.519   3.847   4.787
13976W        W86390  43.483   6.381   0.266
13977W        W86391  11.366  20.726   2.262
13978W        W86392  31.003   6.319   1.252
13979W        W86393  41.797   0.448  11.921
13980W        W86394  16.192   4.735   1.816
13981W        W86395  22.063  29.653   4.234
13982W        W86396  21.222  14.171   1.837
13983W        W86397   1.962  42.911   1.438
13984W        W86398   7.900  26.975   0.879
13985W        W86399  27.486  19.125  11.898
13986W        W86400  18.086  13.291   1.399
13987W        W86401  18.099  42.439   2.294
13988W        W86402  37.888  10.786   2.213
13989W        W86403  28.078  26.700   2.835
13990W        W86404  38.529  21.591  12.416
13991W        W86405  35.098  32.094  14.959
13992W        W86406  22.535  21.651   4.341
13993W        W86407  21.645  14.119  10.992
13994W        W86408  37.068  43.964  10.895
13995W        W86409  33.940  19.587   3.147
13996W        W86410  44.812  32.037   4.642
13997W        W86411  13.344  11.790  14.967
13998W        W86412  31.449  13.749   3.689
13999W        W86413   1.899  18.682  11.466
14000W        W86414  29.985  21.037  10.630
14001W        W86415  14.168  18.238  10.027
14002W        W86416   0.808   0.347   4.836
14003W        W86417  15.126  43.779   0.442
14004W        W86418  24.532   1.756   3.656
14005W        W86419  27.629  21.664  10.523
14006W        W86420  36.844  12.131  13.840
14007W        W86421  39.027   1.353   1.252
14008W        W86422   3.932  30.563   5.188
14009W        W86423  18.290  25.983   4.828
14010W        W86424  10.264  30.122   1.782
14011W        W86425  42.955  29.639   1.849
14012W        W86426  19.675  12.825   0.807
14013W        W86427  13.678  17.702  13.963
14014W        W86428  31.554  20.204  11.997
14015W        W86429  17.141   9.709   0.838
14016W        W86430  35.499   3.840   0.799
14017W        W86431  37.913  21.214  10.124
14018W        W86432   1.477  27.950  11.561
14019W        W86433  33.541  15.149   4.174
14020W        W86434  42.816  29.921  13.362
14021W        W86435   5.361  16.659   3.864
14022W        W86436  25.608  36.003   4.713
14023W        W86437  24.697  14.105   3.331
14024W        W86438  38.384  39.931  11.993
14025W        W86439  40.927  17.695   1.818
14026W        W86440  12.631  28.987  12.050
14027W        W86441  28.976  31.453   2.777
14028W        W86442  29.061   4.399   1.836
14029W        W86443  14.694  42.867   4.282
14030W        W86444  14.276  14.683  14.991
14031W        W86445   1.748  10.747  13.529
14032W        W86446  24.097  42.456  11.389
14033W        W86447  15.247  42.452   1.700
14034W        W86448   7.241  33.625   2.346
14035W        W86449  29.101   4.804  10.095
14036W        W86450   0.946   4.401  13.937
14037W        W86451  38.906  16.295   0.783
14038W        W86452  35.886   9.230   4.241
14039W        W86453  15.601  28.148  11.007
14040W        W86454  34.088  10.205  12.984
14041W        W86455   1.321   7.778  11.907
14042W        W86456  20.221  24.482  10.503
14043W        W86457  17.678  25.097   2.384
14044W        W86458  30.041  37.540  11.438
14045W        W86459  40.541  27.171  11.470
14046W        W86460   1.469  14.665  11.555
14047W        W86461   3.845  24.550   2.199
14048W        W86462   0.829  33.472   3.785
14049W        W86463  29.144  20.749  11.110
14050W        W86464  40.373  24.229  13.049
14051W        W86465  26.095   6.920   1.296
14052W        W86466  35.483  17.232   2.753
14053W        W86467  17.766  26.482   4.353
14054W        W86468  14.123  34.904   2.719
14055W        W86469  10.699   7.347   4.735
14056W        W86470   2.874  18.646   4.759
14057W        W86471  18.204  26.531   0.365
14058W        W86472  17.624  43.848  14.334
14059W        W86473  39.447  21.652   1.835
14060W        W86474  29.613  18.209   1.867
14061W        W86475  19.655  39.389   4.677
14062W        W86476  23.685  23.614  12.373
14063W        W86477  43.802  27.565   2.753
14064W        W86478   2.893  33.007  12.370
14065W        W86479   4.906  22.723   2.226
14066W        W86480  23.238   1.442  11.965
14067W        W86481  17.197  11.337  12.457
14068W        W86482   4.422  40.013  14.777
14069W        W86483  28.980  38.449   4.834
14070W        W86484   1.253  15.803   3.257
14071W        W86485   1.277   1.249  12.014
14072W        W86486  13.251  16.628  10.606
14073W        W86487   6.848   0.316   2.221
14074W        W86488  20.191  32.580   4.301
14075W        W86489   5.314  40.476  11.975
14076W        W86490   7.690  17.765  14.373
14077W        W86491  35.915  18.075   0.298
14078W        W86492   0.973  25.681   0.430
14079W        W86493  25.675  21.602  10.613
14080W        W86494  26.464   4.823  13.442
14081W        W86495   6.207  19.560  12.011
14082W        W86496  41.486  38.513  13.466
14083W        W86497  26.587  31.509  14.515
14084W        W86498   9.857  23.151  10.558
14085W        W86499  21.576  14.289  10.538
14086W        W86500  38.900   9.358  14.898
14087W        W86501  25.110  32.954  14.879
14088W        W86502  41.368  44.438   3.781
14089W        W86503  42.948  41.370  14.353
14090W        W86504  11.172  15.691  10.983
14091W        W86505  13.626  24.657  12.524
14092W        W86506   7.738  22.647   2.411
14093W        W86507  39.880  20.072   0.780
14094W        W86508  10.241   3.934   3.247
14095W        W86509  29.151   7.841  13.970
14096W        W86510  43.008   5.278   2.854
14097W        W86511   9.766  33.089  11.496
14098W        W86512  39.831  18.679  13.022
14099W        W86513  17.200  42.833   3.809
14100W        W86514  29.656  42.787  11.527
14101W        W86515  36.873  44.381   1.752
14102W        W86516   2.362  30.950   0.813
14103W        W86517  24.220  37.935   3.726
14104W        W86518  18.663  14.783   2.766
14105W        W86519  17.248  13.348  14.420
14106W        W86520  44.982  14.820   2.668
14107W        W86521  27.656  22.031  11.410
14108W        W86522  19.185  29.460  11.106
14109W        W86523  20.198  43.430  13.829
14110W        W86524  37.868   8.810  10.533
14111W        W86525  37.343  41.401   4.320
14112W        W86526   3.390  19.642   2.292
14113W        W86527   3.925  24.630   0.473
14114W        W86528  25.603  40.890  13.414
14115W        W86529  37.998  21.203   2.872
14116W        W86530  24.563   6.213  14.892
14117W        W86531  22.600  22.502  14.403
14118W        W86532  40.395   6.763   2.355
14119W        W86533   0.348  18.582   1.920
14120W        W86534  41.457  42.955  14.011
14121W        W86535  27.496   8.711   1.413
14122W        W86536  42.334   5.274   1.384
14123W        W86537   3.801  20.227  11.395
14124W        W86538  40.411  22.676  11.042
14125W        W86539  37.924  31.422   4.611
14126W        W86540   3.722  28.933  11.930
14127W        W86541  36.848  25.496   4.130
14128W        W86542  43.422  33.568  13.399
14129W        W86543  23.715  18.719   5.771
14130W        W86544  21.051  30.458   4.222
14131W        W86545  23.999  15.256   1.835
14132W        W86546  16.757   5.806   0.451
14133W        W86547  25.975  38.522  10.923
14134W        W86548  42.516   9.178   2.778
14135W        W86549   1.448  12.773   4.625
14136W        W86550   4.337  27.170  10.116
14137W        W86551  38.499   5.391   2.312
14138W        W86552  22.169   2.472   0.767
14139W        W86553  41.787  40.385   4.140
14140W        W86554   7.248  10.352   3.727
14141W        W86555  13.750   0.815   3.661
14142W        W86556  39.968  14.138  13.987
14143W        W86557  25.137  39.011  14.789
14144W        W86558   5.736  19.774  13.932
14145W        W86559  29.993  32.098  14.299
14146W        W86560   2.739  40.865  11.030
14147W        W86561  39.373  35.543  11.865
14148W        W86562  40.325  41.449   2.719
14149W        W86563   8.332  31.014  10.469
14150W        W86564  29.095  26.689   9.936
14151W        W86565  15.142   7.749   3.197
14152W        W86566  22.031  22.089  13.827
14153W        W86567  37.891   7.729  11.943
14154W        W86568  37.423   5.417  13.442
14155W        W86569  14.616   9.244   2.698
14156W        W86570  21.581  18.214   0.840
14157W        W86571   9.220  25.485   1.810
14158W        W86572  31.016   1.275   3.224
14159W        W86573  14.747  26.034   1.246
14160W        W86574  39.407  29.074  11.103
14161W        W86575   8.663  26.070  13.382
14162W        W86576  14.700  10.249  11.535
14163W        W86577  11.158  18.186   4.140
14164W        W86578  32.403  24.048   2.229
14165W        W86579  33.460  20.190  14.452
14166W        W86580   6.343   1.304   4.633
14167W        W86581  39.381   0.849  11.946
14168W        W86582   2.869  27.531  12.026
14169W        W86583  22.149  36.430   3.794
14170W        W86584  38.490  11.282  13.416
14171W        W86585  25.017   1.923  13.837
14172W        W86586  27.090  27.634   2.238
14173W        W86587   2.228  19.757   1.339
14174W        W86588  26.966  21.748   2.718
14175W        W86589  24.988   0.758  14.818
14176W        W86590   7.189  35.372  14.863
14177W        W86591  39.930  42.461   4.654
14178W        W86592  41.455  43.815   1.822
14179W        W86593  29.976  37.013   3.283
14180W        W86594  39.466  10.296  12.014
14181W        W86595  21.091   5.735   0.926
14182W        W86596  39.959  41.985  11.427
14183W        W86597  16.185  19.714   5.576
14184W        W86598  12.271  27.618   2.259
14185W        W86599  23.019  26.049  14.805
14186W        W86600  16.138  17.169   0.836
14187W        W86601  13.196  23.539  12.398
14188W        W86602   0.942  16.678  12.846
14189W        W86603   1.775   1.348   0.468
14190W        W86604  44.273   5.821  11.938
14191W        W86605  35.080  33.567   4.264
14192W        W86606  14.830  32.457  12.031
14193W        W86607  28.986  24.605  13.519
14194W        W86608  20.057  39.466  10.891
14195W        W86609  28.987  21.107  14.965
14196W        W86610  14.761  26.135  12.510
14197W        W86611  36.457  27.584   0.349
14198W        W86612   3.823   8.882  14.500
14199W        W86613  13.187  37.457  10.457
14200W        W86614   1.845  21.627   3.720
14201W        W86615  36.046  28.522  14.514
14202W        W86616  43.276  35.877   2.714
14203W        W86617  24.154  18.756   4.727
14204W        W86618   2.844  40.419  14.973
14205W        W86619   1.926   5.833   4.744
14206W        W86620  24.185  17.172   3.697
14207W        W86621  11.209  38.826   2.698
14208W        W86622   4.700  15.209  11.553
14209W        W86623  39.002  34.969  10.558
14210W        W86624   8.347   2.297   0.427
14211W        W86625   2.966  35.404   1.806
14212W        W86626  31.456  16.775  12.980
14213W        W86627  38.530  24.071  13.987
14214W        W86628  12.816  26.176  12.897
14215W        W86629   4.768  38.028  11.940
14216W        W86630   4.752  18.671  13.054
14217W        W86631  20.538  28.631  14.454
14218W        W86632  33.119   9.644   2.901
14219W        W86633  34.956   7.255   1.348
14220W        W86634  35.432  39.954   3.647
14221W        W86635  29.573  37.378  14.313
14222W        W86636  12.740   5.249  14.997
14223W        W86637  31.460  13.255   0.313
14224W        W86638  41.453  28.652   3.317
14225W        W86639  34.031  22.531  14.364
14226W        W86640   1.768  27.009   0.313
14227W        W86641  36.505  35.965   4.295
14228W        W86642   6.907   3.332   3.292
14229W        W86643   7.805  43.929  10.910
14230W        W86644  18.769  29.974  11.475
14231W        W86645  19.539  10.363  10.994
14232W        W86646  26.129   7.190   2.414
14233W        W86647  18.149  42.913  14.483
14234W        W86648  33.563  37.038  10.524
14235W        W86649  10.771  34.587   3.710
14236W        W86650  27.032  12.749  10.499
14237W        W86651  14.276  37.873  14.844
14238W        W86652  27.133   3.831  13.825
14239W        W86653  38.843  20.154  13.371
14240W        W86654   5.820  23.533  13.372
14241W        W86655   1.963  30.923   1.271
14242W        W86656  15.128   4.395  10.923
14243W        W86657  34.507  13.251  11.567
14244W        W86658   9.294  10.254   2.771
14245W        W86659  37.508  13.833  14.916
14246W        W86660  20.523   0.476  14.935
14247W        W86661  23.120   8.381   3.792
14248W        W86662  34.996  32.459  10.930
14249W        W86663  40.421  25.135  11.094
14250W        W86664  43.996   3.781  13.347
14251W        W86665  41.928  27.125  13.812
14252W        W86666  16.654  43.979  10.407
14253W        W86667  21.553   2.936   2.328
14254W        W86668  42.372  21.236  11.566
14255W        W86669  29.628  36.568   4.694
14256W        W86670  17.578  44.005  12.848
14257W        W86671   3.847   5.426  14.799
14258W        W86672  17.176  26.486   0.249
14259W        W86673  33.472  35.908   1.321
14260W        W86674  24.010  43.479   1.806
14261W        W86675  22.644  40.408  13.460
14262W        W86676  44.964   7.320  12.542
14263W        W86677   9.291   5.736   2.821
14264W        W86678  11.355  41.423   0.463
14265W        W86679  30.556  40.830  14.032
14266W        W86680  22.020  18.667  10.624
14267W        W86681   2.723  26.575  13.831
14268W        W86682   5.383  23.219   4.300
14269W        W86683  37.408  25.149  10.619
14270W        W86684  40.340  17.788  14.024
14271W        W86685   4.820  15.619   1.733
14272W        W86686  21.174  25.005   0.847
14273W        W86687  26.499  44.347  12.870
14274W        W86688  23.570  18.556  10.044
14275W        W86689  20.177  20.168  14.878
14276W        W86690  18.672   6.900   2.666
14277W        W86691  10.269  28.681  13.457
14278W        W86692  13.326  15.094   0.457
14279W        W86693  33.030  20.274  11.102
14280W        W86694  16.657  22.538   1.809
14281W        W86695  29.538  30.080   4.148
14282W        W86696  21.722  34.107   1.309
14283W        W86697  33.576   6.914   4.187
14284W        W86698  15.779  21.100  12.911
14285W        W86699  29.662  25.038   2.202
14286W        W86700   2.293   1.904   1.793
14287W        W86701   2.759  27.065  11.513
14288W        W86702   2.955   1.764   0.351
14289W        W86703   9.723  33.881  14.382
14290W        W86704  30.972  20.095  13.323
14291W        W86705  42.517   2.300  13.027
14292W        W86706  35.504  19.737  14.440
14293W        W86707  11.710  18.709  11.958
14294W        W86708  12.715   9.852   0.829
14295W        W86709  37.519  14.292  14.277
14296W        W86710  41.458  22.060  14.843
14297W        W86711  40.533  29.543   4.712
14298W        W86712   2.857  25.996   1.356
14299W        W86713  14.703  25.967   0.879
14300W        W86714  15.276   5.258   4.330
14301W        W86715  36.945  25.028   4.615
14302W        W86716  37.990   1.419   3.835
14303W        W86717  16.163  19.263   5.109
14304W        W86718  15.695  15.662   0.919
14305W        W86719  26.559  43.270  14.780
14306W        W86720  16.203  13.651   3.766
14307W        W86721  29.952  31.635   3.666
14308W        W86722   2.325  34.077   4.307
14309W        W86723   4.706   1.368   2.834
14310W        W86724   4.400  25.528   1.303
14311W        W86725   4.726  31.931   3.331
14312W        W86726  10.383  24.570   5.164
14313W        W86727   8.299  27.158   3.766
14314W        W86728  12.258  43.808   0.372
14315W        W86729  31.571  30.562  14.370
14316W        W86730  36.067  41.529  12.534
14317W        W86731  42.300  33.984   1.366
14318W        W86732  44.856  39.927   1.704
14319W        W86733  36.455  41.473   3.383
14320W        W86734  37.507  35.597   3.350
14321W        W86735  43.887   1.761  13.510
14322W        W86736  35.410  17.576  11.920
14323W        W86737   4.212  31.942   1.433
14324W        W86738  44.937  14.690  13.831
14325W        W86739   9.846  15.151   4.158
14326W        W86740   0.261  39.920  12.032
14327W        W86741  40.014  39.403  12.872
14328W        W86742  41.042  21.109  12.569
14329W        W86743  37.444   9.764   4.290
14330W        W86744  35.093  14.633   0.309
14331W        W86745  22.594   5.332  13.403
14332W        W86746  21.669  32.103   0.274
14333W        W86747  40.436  23.984  14.929
14334W        W86748   7.850  14.644  10.599
14335W        W86749  21.621  21.044  12.031
14336W        W86750  19.764  10.204   1.300
14337W        W86751  41.925  25.123   3.705
14338W        W86752  40.818   2.751   0.881
14339W        W86753  37.363  18.670   4.787
14340W        W86754  42.017  16.151   0.479
14341W        W86755  13.808  17.219   2.282
14342W        W86756  12.214  39.321  10.631
14343W        W86757  28.120  37.877  13.968
14344W        W86758  35.047  16.795  14.857
14345W        W86759  44.807  21.727   2.221
14346W        W86760  36.890  12.782  14.947
14347W        W86761  16.627   8.229   5.321
14348W        W86762  14.692  34.942   0.437
14349W        W86763  44.888  11.726   4.739
14350W        W86764  26.159  41.855   1.838
14351W        W86765  17.802  43.931  11.881
14352W        W86766  25.994  20.086  12.446
14353W        W86767  19.544  29.670  11.396
14354W        W86768  42.813  34.918   1.380
14355W        W86769  33.047  12.246   2.299
14356W        W86770  35.555  16.781  13.374
14357W        W86771  30.476  37.971   0.464
14358W        W86772   8.730  25.649   3.841
14359W        W86773  36.881  30.422   2.373
14360W        W86774   9.378  42.450   2.321
14361W        W86775  12.677  24.990  10.579
14362W        W86776  38.884  10.336  12.451
14363W        W86777   2.415  28.636   0.413
14364W        W86778  38.042  16.156  13.434
14365W        W86779  22.078  17.088  10.566
14366W        W86780  29.445  11.701   0.945
14367W        W86781  10.862  15.170  11.564
14368W        W86782  15.772  15.689   2.891
14369W        W86783   3.795  21.668  10.935
14370W        W86784  44.493   8.220  11.515
14371W        W86785  21.675  14.677  14.308
14372W        W86786  27.687  38.024  13.947
14373W        W86787  20.728   8.785   3.225
14374W        W86788  19.548   6.198  13.963
14375W        W86789  35.069  16.311   2.261
14376W        W86790  36.922   3.368   1.445
14377W        W86791  36.982  32.981  14.433
14378W        W86792  15.116   4.320   2.236
14379W        W86793  10.234  35.089   2.779
14380W        W86794  44.825  23.063   0.870
14381W        W86795   3.282  22.122   4.204
14382W        W86796  31.560  18.714  11.612
14383W        W86797   3.268   4.897  12.948
14384W        W86798  36.039  15.756  14.951
14385W        W86799  15.780   1.965  11.916
14386W        W86800  20.087  28.975  10.580
14387W        W86801  14.127  26.540   1.247
14388W        W86802  25.629   9.872   4.198
14389W        W86803   1.280  37.482   2.751
14390W        W86804  39.013  33.906   2.870
14391W        W86805  14.607  16.696  13.540
14392W        W86806  14.767  32.519   2.199
14393W        W86807  30.019  24.639   4.354
14394W        W86808  34.487  26.676  10.944
14395W        W86809  33.974  33.533   2.321
14396W        W86810  30.595   7.884   0.259
14397W        W86811  37.929  16.311   3.353
14398W        W86812  34.592  13.698   0.392
14399W        W86813  40.411   6.777  14.909
14400W        W86814  21.664  18.552  12.064
14401W        W86815  43.940   9.198   3.677
14402W        W86816  24.108  20.634   2.764
14403W        W86817   2.739  39.989  13.439
14404W        W86818  40.375  13.268  13.015
14405W        W86819  30.927  31.120   1.314
14406W        W86820   6.210  37.422   1.225
14407W        W86821  36.924  38.559  11.390
14408W        W86822   7.819  31.647   2.397
14409W        W86823  23.040  21.752  10.939
14410W        W86824  29.049  43.342  10.604
14411W        W86825  18.703   6.318   1.364
14412W        W86826  42.837  11.155   2.273
14413W        W86827  11.373  36.076   0.361
14414W        W86828   4.441  20.601  13.052
14415W        W86829  42.441  33.068   4.615
14416W        W86830  26.074  16.212   2.684
14417W        W86831  19.558  37.535  14.865
14418W        W86832  37.901  18.560   0.345
14419W        W86833  43.767  41.531   0.963
14420W        W86834  19.603  10.284   5.195
14421W        W86835  18.719  32.481  12.372
14422W        W86836  35.468  36.019   2.724
14423W        W86837  33.969  16.081  14.443
14424W        W86838  23.058  10.238  12.081
14425W        W86839  16.590  37.862   4.278
14426W        W86840  22.180  15.318  11.423
14427W        W86841  27.538  10.748   3.770
14428W        W86842   6.223  16.163   2.372
14429W        W86843  24.681  29.072  11.471
14430W        W86844  35.382  23.493   1.306
14431W        W86845   5.382  20.586   1.402
14432W        W86846  39.463  27.655  11.572
14433W        W86847  25.535   8.251  13.928
14434W        W86848  35.454   7.316   2.804
14435W        W86849  21.041  36.851   5.146
14436W        W86850   7.715  26.016  14.852
14437W        W86851  29.146   3.839   3.365
14438W        W86852  34.973  30.930   2.810
14439W        W86853  42.408  29.439  11.516
14440W        W86854  37.891  16.583  13.493
14441W        W86855   5.436   0.473  11.532
14442W        W86856   9.747  18.259   2.771
14443W        W86857  35.518  12.731   2.896
14444W        W86858  41.793  13.223  12.456
14445W        W86859   1.881   9.376   0.399
14446W        W86860  34.110  11.640  14.397
14447W        W86861  33.453  18.126   1.885
14448W        W86862   9.205  30.115  13.064
14449W        W86863  27.984   0.787   9.985
14450W        W86864   6.278  19.545  14.343
14451W        W86865  26.981  31.603  11.490
14452W        W86866  21.092  33.409   0.963
14453W        W86867  24.148  14.104  14.984
14454W        W86868  25.987  12.692  13.881
14455W        W86869  27.566   9.728   4.783
14456W        W86870   5.289  16.656   4.199
14457W        W86871   6.405   9.777   0.805
14458W        W86872  26.133  25.490  11.583
14459W        W86873   6.310  25.089  10.516
14460W        W86874  18.160  30.567  10.468
14461W        W86875   4.276  35.966   4.120
14462W        W86876  30.130  36.085  13.359
14463W        W86877  29.604   2.395  13.958
14464W        W86878  40.322  23.046  12.442
14465W        W86879  28.132  40.519   0.803
14466W        W86880  21.082  37.513   0.406
14467W        W86881  39.887  32.031   1.343
14468W        W86882  33.564  37.435   2.774
14469W        W86883   1.400  28.489  10.641
14470W        W86884  14.644   7.324   1.775
14471W        W86885  34.879  25.107   3.645
14472W        W86886  35.411  30.054   2.666
14473W        W86887  14.105  11.699  11.102
14474W        W86888  10.773  19.544   4.304
14475W        W86889  31.002  17.620   2.794
14476W        W86890   7.797  32.944  14.503
14477W        W86891   3.267  26.011   2.409
14478W        W86892  43.907   2.278  10.424
14479W        W86893  24.026  44.324   2.287
14480W        W86894  35.457  38.389   2.186
14481W        W86895  21.150  44.909   1.850
14482W        W86896   2.268   8.324   3.330
14483W        W86897  33.925   8.845   1.406
14484W        W86898  31.459  40.449  10.507
14485W        W86899  41.393  26.050   4.747
14486W        W86900  34.020  18.192  14.484
14487W        W86901   3.282  16.625   4.286
14488W        W86902  25.021  21.736   3.749
14489W        W86903  12.812  38.381   4.151
14490W        W86904  19.763  31.045   3.247
14491W        W86905   4.284  12.651   2.857
14492W        W86906  27.173  35.950  11.400
14493W        W86907   8.343  21.628  14.950
14494W        W86908  23.080  42.951  11.128
14495W        W86909   5.356  11.272   0.932
14496W        W86910   4.274  24.013  11.495
14497W        W86911  14.179   5.748   1.837
14498W        W86912  22.103  22.637   1.748
14499W        W86913  39.439  33.982  10.895
14500W        W86914  33.566  38.881   2.200
14501W        W86915   9.334  27.616   3.784
14502W        W86916   4.356  25.557   4.659
14503W        W86917  10.774  36.074  14.765
14504W        W86918  24.610  21.239   3.846
14505W        W86919   3.424  10.139  14.894
14506W        W86920  19.131  43.367   4.618
14507W        W86921  39.003  13.706  11.037
14508W        W86922  11.629  16.203  12.916
14509W        W86923   9.801  32.068   0.363
14510W        W86924  28.981   0.959  14.001
14511W        W86925   5.309   6.407   4.118
14512W        W86926  35.400  15.580  12.879
14513W        W86927  21.046  37.991   1.851
14514W        W86928  10.222  44.828   0.758
14515W        W86929   7.322   3.349  10.988
14516W        W86930  10.229  28.477   3.689
14517W        W86931  39.539  16.281  12.960
14518W        W86932  44.466  40.957   4.250
14519W        W86933  30.965  31.536  11.985
14520W        W86934  23.549  39.816  10.560
14521W        W86935  43.376  22.101  13.916
14522W        W86936  13.319  14.189   2.209
14523W        W86937  14.662   4.841  14.336
14524W        W86938  22.246   8.388  14.849
14525W        W86939  35.361   0.285   1.300
14526W        W86940  35.984  10.722   2.726
14527W        W86941  11.168  41.938   4.179
14528W        W86942  39.891  13.132  14.818
14529W        W86943  38.983  20.254  10.042
14530W        W86944  40.918  28.173  12.468
14531W        W86945  17.219  36.586   4.223
14532W        W86946   2.787  40.882  10.046
14533W        W86947  13.747  24.997  13.450
14534W        W86948  36.527   7.829  10.946
14535W        W86949  22.141  30.020  12.560
14536W        W86950  17.693   5.888  13.804
14537W        W86951  11.813  14.610  14.960
14538W        W86952  27.989   2.778   2.711
14539W        W86953  37.373  37.009   3.779
14540W        W86954  34.429  20.037   3.185
14541W        W86955  31.944  10.746  14.515
14542W        W86956  37.078  33.130   0.822
14543W        W86957  18.056   2.344  13.030
14544W        W86958  18.063   2.301  14.962
14545W        W86959  33.912  30.143   3.268
14546W        W86960  12.810  41.465  11.530
14547W        W86961  34.876  12.161   3.857
14548W        W86962  34.436   2.435  10.541
14549W        W86963  13.829   3.403   4.807
14550W        W86964  28.086  11.854  11.382
14551W        W86965  18.702  11.359   1.832
14552W        W86966   0.946   9.671   0.425
14553W        W86967  38.975  29.996  13.025
14554W        W86968  43.999  15.703  11.061
14555W        W86969   0.859   8.211  11.922
14556W        W86970  35.945  33.078  10.542
14557W        W86971   7.193   8.740  13.022
14558W        W86972  14.720  21.165   3.838
14559W        W86973  37.349   6.682  13.054
14560W        W86974  22.693  40.948   3.762
14561W        W86975  17.095  38.041   0.247
14562W        W86976  37.882  15.318   0.469
14563W        W86977  12.237  14.238   4.230
14564W        W86978   9.182  26.954  11.118
14565W        W86979   1.347  25.666   4.651
14566W        W86980   5.332   7.323  10.477
14567W        W86981   9.675  28.970  11.919
14568W        W86982   4.207  19.730   0.964
14569W        W86983  32.447  36.955  14.487
14570W        W86984  27.543   3.787   3.863
14571W        W86985  44.360  44.996   4.241
14572W        W86986  11.202  25.148   4.225
14573W        W86987  44.757   3.243  12.030
14574W        W86988   7.181  24.105  14.414
14575W        W86989  41.451  10.664  13.845
14576W        W86990  13.805  32.400  11.077
14577W        W86991   2.853  13.638   5.251
14578W        W86992  33.521  13.786  11.536
14579W        W86993   4.745   1.963   0.762
14580W        W86994   7.731   2.927   4.658
14581W        W86995  40.314   4.816   3.232
14582W        W86996  18.058  35.499  14.955
14583W        W86997  20.646  42.989  10.990
14584W        W86998  12.629  13.817   3.756
14585W        W86999  19.047  25.683   2.825
14586W        W87000  44.920  41.837  14.991
14587W        W87001  27.555  31.646   3.297
14588W        W87002  25.973  10.674   4.645
14589W        W87003  18.223  12.664  14.015
14590W        W87004  14.693  10.692   1.926
14591W        W87005  37.527  35.872   9.438
14592W        W87006   6.862  19.194  10.536
14593W        W87007  36.518  29.473  11.022
14594W        W87008   4.942  38.880  12.825
14595W        W87009   6.348  39.557  12.044
14596W        W87010  33.038   8.389   4.171
14597W        W87011  35.529  44.934   2.181
14598W        W87012  23.597  19.163   1.812
14599W        W87013  40.991  27.005   3.722
14600W        W87014  40.357  34.387   4.286
14601W        W87015  22.170  23.085  14.949
14602W        W87016  40.379  23.578  10.491
14603W        W87017  29.933  32.096  10.072
14604W        W87018  28.525  29.969   2.239
14605W        W87019  20.729   7.315  11.867
14606W        W87020  28.117  39.861   2.875
14607W        W87021  24.178  34.462  10.092
14608W        W87022  16.187   5.292   0.807
14609W        W87023  25.106  35.540  14.309
14610W        W87024   5.342  34.988  10.463
14611W        W87025  38.402  20.573   3.314
14612W        W87026  28.537   3.801  14.028
14613W        W87027  14.594   3.246  12.934
14614W        W87028  24.038  44.477  12.421
14615W        W87029  15.128  44.271  11.107
14616W        W87030  13.813  27.167  13.363
14617W        W87031  44.764  31.002   0.833
14618W        W87032   7.871  16.271   0.816
14619W        W87033  15.283  34.577   2.184
14620W        W87034   7.189   9.786   2.290
14621W        W87035  44.785  37.440  10.635
14622W        W87036   9.363  29.936   4.720
14623W        W87037  36.049  34.041   0.730
14624W        W87038   8.403   0.911  13.477
14625W        W87039  26.027  26.974  13.939
14626W        W87040  13.651  42.896   3.245
14627W        W87041  12.340   6.403   3.345
14628W        W87042  20.101   2.326   1.383
14629W        W87043  18.570  24.479   0.431
14630W        W87044  20.200  16.163   0.348
14631W        W87045  27.996  31.416  13.367
14632W        W87046   1.300  34.919  14.313
14633W        W87047  24.548  15.735  14.944
14634W        W87048  10.682   6.254   3.363
14635W        W87049   0.887  20.131   1.400
14636W        W87050  12.734  44.954   4.680
14637W        W87051  39.863  31.508  11.979
14638W        W87052  33.105  19.054  11.471
14639W        W87053   5.804  22.160   0.464
14640W        W87054  34.482  31.476  14.842
14641W        W87055  30.564   0.789   1.734
14642W        W87056  40.043  42.352   1.217
14643W        W87057  23.063  43.020   2.365
14644W        W87058  11.278   5.722  14.301
14645W        W87059  43.781  40.322  11.127
14646W        W87060   3.375  11.748   1.902
14647W        W87061  16.580  23.153  10.535
14648W        W87062  25.487  33.979   4.315
14649W        W87063   6.306  38.433  13.928
14650W        W87064  14.110  33.087  11.050
14651W        W87065  16.651  11.274   1.246
14652W        W87066  27.533  19.595   2.311
14653W        W87067  29.536  41.481   0.309
14654W        W87068  42.803   3.373   3.764
14655W        W87069  31.503  12.660   4.138
14656W        W87070   4.293  10.834  10.636
14657W        W87071  18.782  38.885  10.475
14658W        W87072  13.231  24.092   2.381
14659W        W87073  40.887  10.220   0.287
14660W        W87074  11.809  32.080  11.450
14661W        W87075   7.868   5.288   2.708
14662W        W87076  14.804   5.382  12.823
14663W        W87077  31.013  27.072  11.030
14664W        W87078  18.253  41.913  11.469
14665W        W87079  19.245   2.837  10.494
14666W        W87080  33.481  40.371   1.731
14667W        W87081  28.934  28.558   0.457
14668W        W87082  35.947  44.788  13.959
14669W        W87083   1.784  26.469  11.019
14670W        W87084  35.561   2.332  11.466
14671W        W87085  19.140  41.894  10.506
14672W        W87086  28.158  42.965  11.520
14673W        W87087   9.711  32.422  14.008
14674W        W87088  28.619  41.325   3.209
14675W        W87089   0.932  32.114   9.962
14676W        W87090  25.041  43.977  10.991
14677W        W87091  44.929  40.360   1.311
14678W        W87092  20.149  25.003   4.341
14679W        W87093  24.509   4.831  10.443
14680W        W87094  12.304  12.779   4.196
14681W        W87095  22.595  32.530  12.440
14682W        W87096  38.972   0.489  10.591
14683W        W87097  24.161  18.626   1.215
14684W        W87098  36.076  34.410  14.971
14685W        W87099  13.829  43.951  10.575
14686W        W87100  15.250  32.574  14.391
14687W        W87101  19.075  12.331  11.555
14688W        W87102  29.571  22.036   0.859
14689W        W87103  12.708  16.088   3.751
14690W        W87104  43.369  26.006  13.873
14691W        W87105   4.849  27.446  13.457
14692W        W87106  23.014  43.306  12.915
14693W        W87107   9.157  13.794   4.623
14694W        W87108   0.379  40.940  10.598
14695W        W87109  17.256  26.577   3.845
14696W        W87110  43.877  14.254   2.208
14697W        W87111  33.502  40.922   3.658
14698W        W87112   1.359  36.080  13.983
14699W        W87113  26.685  27.992  14.289
14700W        W87114  16.110  29.124  10.553
14701W        W87115  39.351  29.615   2.876
14702W        W87116  22.134  44.359  10.987
14703W        W87117  21.570  26.687  14.851
14704W        W87118   9.309   0.429   1.815
14705W        W87119  22.126   7.882  10.496
14706W        W87120  24.698  35.976  12.919
14707W        W87121  31.048  17.573   3.277
14708W        W87122   5.874  22.167   2.324
14709W        W87123  25.130   1.735  12.841
14710W        W87124   4.861  40.035  14.815
14711W        W87125  15.134  31.064  11.097
14712W        W87126  29.172  18.165   3.742
14713W        W87127  43.489   4.912   1.245
14714W        W87128  14.329   6.677  14.289
14715W        W87129  33.407   8.755   4.691
14716W        W87130  32.028  44.002   1.373
14717W        W87131   5.356  40.851  13.003
14718W        W87132  19.209   5.709   0.789
14719W        W87133  30.635   1.815   2.800
14720W        W87134  17.576   3.376  11.073
14721W        W87135  25.966  16.146   4.232
14722W        W87136  17.755   9.874   4.713
14723W        W87137  40.042  41.345   4.702
14724W        W87138  36.071   8.222   2.770
14725W        W87139   4.880  30.983   4.835
14726W        W87140  33.025  21.596  12.084
14727W        W87141   2.754   7.289  11.571
14728W        W87142  32.971  23.620  14.482
14729W        W87143   3.346  13.155   0.337
14730W        W87144  20.724  11.756  11.417
14731W        W87145  27.548  13.338  10.977
14732W        W87146  38.823  20.043  10.582
14733W        W87147  32.548  21.215   1.372
14734W        W87148  34.088  10.203   1.288
14735W        W87149   7.225  28.513  13.532
14736W        W87150  26.480  26.993   1.861
14737W        W87151  42.916  40.376   2.303
14738W        W87152  42.944  39.532   2.780
14739W        W87153  24.166  24.028   0.729
14740W        W87154  13.251   6.841   0.756
14741W        W87155  29.470  19.700   1.707
14742W        W87156  42.888  22.115   2.767
14743W        W87157  18.777  32.467  11.063
14744W        W87158  22.219  24.649  10.598
14745W        W87159  28.998  23.003   1.210
14746W        W87160  43.780  20.057  12.387
14747W        W87161   9.775  41.000   1.800
14748W        W87162  28.976   1.363   1.292
14749W        W87163  29.604   6.294   0.344
14750W        W87164   6.369  10.811   0.389
14751W        W87165   3.460  43.292  13.887
14752W        W87166  22.089  22.568  12.370
14753W        W87167  26.699   7.273  12.520
14754W        W87168  28.611  16.258   3.160
14755W        W87169   2.832  15.231  12.356
14756W        W87170  11.724  15.694   9.951
14757W        W87171  41.478   0.760   2.265
14758W        W87172  33.547  22.194  14.440
14759W        W87173   3.351  42.462   5.804
14760W        W87174  38.434  21.626  11.040
14761W        W87175  22.603   7.691  12.875
14762W        W87176  14.599   7.281  13.062
14763W        W87177  44.904  13.149   3.197
14764W        W87178  18.699  27.997  11.914
14765W        W87179  37.046  38.566   0.861
14766W        W87180  10.770  32.574   0.257
14767W        W87181  20.260   3.295  13.441
14768W        W87182  37.994  25.633   1.805
14769W        W87183  15.243  17.270   0.952
14770W        W87184  34.028  13.720   3.663
14771W        W87185  29.464  30.929   1.736
14772W        W87186   5.845  42.500  11.127
14773W        W87187   8.704  14.194   4.332
14774W        W87188  38.873  24.491   1.315
14775W        W87189  31.904   7.889   3.319
14776W        W87190   4.426  36.421   4.742
14777W        W87191  31.057  44.442  12.489
14778W        W87192   8.859  16.093   3.774
14779W        W87193  28.120  21.224  12.880
14780W        W87194  29.632  43.985   1.449
14781W        W87195  20.754  32.517   4.290
14782W        W87196  18.648  17.080  14.317
14783W        W87197   5.268  28.154  12.931
14784W        W87198  27.660   0.867   4.711
14785W        W87199  33.028  28.968   4.352
14786W        W87200  23.042  31.559  14.944
14787W        W87201  35.447  37.881  11.074
14788W        W87202  32.420   4.303   3.210
14789W        W87203  42.930   8.777  12.869
14790W        W87204  36.881  21.208   0.411
14791W        W87205   0.413   5.292  13.350
14792W        W87206   1.280  30.651   0.896
14793W        W87207  36.891  11.333  10.636
14794W        W87208  23.220   7.256  14.426
14795W        W87209  10.237   5.908   4.180
14796W        W87210  10.223  30.985   1.240
14797W        W87211  32.115   1.390  13.401
14798W        W87212   6.827  33.032  14.457
14799W        W87213   3.301  10.291   3.343
14800W        W87214  33.965  24.105  13.982
14801W        W87215   3.858  11.633   1.782
14802W        W87216  35.600   8.309   0.332
14803W        W87217  14.607  34.077  12.355
14804W        W87218   5.807  10.279  12.909
14805W        W87219  33.028  31.967  10.499
14806W        W87220  12.320  33.559  12.538
14807W        W87221   2.366   6.283   5.128
14808W        W87222  27.484  38.997   0.301
14809W        W87223   7.253  26.608  13.436
14810W        W87224  29.577  39.373  10.920
14811W        W87225   8.883  12.681   0.744
14812W        W87226  26.556  10.249   0.407
14813W        W87227  34.487   5.919  13.060
14814W        W87228   4.838  39.822  10.003
14815W        W87229  23.721   9.678  13.963
14816W        W87230  11.191   1.384  12.543
14817W        W87231  43.499  25.627   3.828
14818W        W87232  34.439  44.454  10.539
14819W        W87233  31.977  35.363  11.454
14820W        W87234  15.714  31.938  12.570
14821W        W87235  22.591  22.997   0.881
14822W        W87236  32.449  18.725   3.652
14823W        W87237   3.297  31.019  14.418
14824W        W87238  12.794  21.690  13.493
14825W        W87239  25.009   3.853  12.463
14826W        W87240  44.442  25.195   5.158
14827W        W87241  19.196  19.536   0.800
14828W        W87242  35.079   1.904  13.860
14829W        W87243  31.471   9.819   2.333
14830W        W87244  17.602  28.649  11.861
14831W        W87245  27.071  32.525  13.396
14832W        W87246  35.096   3.829  12.433
14833W        W87247   2.419  13.613  12.019
14834W        W87248   7.266  16.759   1.275
14835W        W87249  31.413   1.859   3.686
14836W        W87250  12.254  23.185   0.391
14837W        W87251   5.893   8.322   4.817
14838W        W87252  31.404  13.346   1.801
14839W        W87253  25.525   9.821  14.422
14840W        W87254  11.715   2.895  14.430
14841W        W87255  37.527   5.694  10.967
14842W        W87256   8.364  24.481   4.237
14843W        W87257  41.472  29.586  12.904
14844W        W87258   1.436  20.156  12.386
14845W        W87259   1.880   7.359   1.220
14846W        W87260  22.692  41.524  11.579
14847W        W87261  19.573   6.220   0.899
14848W        W87262  30.092  15.685  13.434
14849W        W87263  25.104  10.805   0.467
14850W        W87264  18.609  12.249   3.742
14851W        W87265  38.544  25.046   0.446
14852W        W87266   9.149  24.029  13.517
14853W        W87267   7.685  27.050  12.088
14854W        W87268  21.668  28.024   4.268
14855W        W87269  30.596   1.884  13.829
14856W        W87270  16.234  22.033   3.212
14857W        W87271   0.802  23.725   2.780
14858W        W87272  27.524  28.524  10.507
14859W        W87273  14.810  11.782   0.288
14860W        W87274  11.278  27.142   1.743
14861W        W87275   7.835  37.984   2.678
14862W        W87276  20.183  10.733  12.423
14863W        W87277   8.211  23.520   0.854
14864W        W87278  26.476  36.482   4.700
14865W        W87279  35.371  32.552   0.299
14866W        W87280  27.482  13.213  12.998
14867W        W87281  11.179  12.200   4.152
14868W        W87282  31.133  27.512  14.807
14869W        W87283  16.782  30.428   3.274
14870W        W87284  41.793  32.502  13.060
14871W        W87285  42.987   7.758   2.896
14872W        W87286  16.710   6.184  14.476
14873W        W87287  20.136  28.497   1.784
14874W        W87288  42.883  16.149  11.456
14875W        W87289  12.138  27.665  11.864
14876W        W87290   0.326  35.088  12.509
14877W        W87291   6.397  29.109   3.836
14878W        W87292   1.930  20.732  14.341
14879W        W87293  28.596  13.236   1.222
14880W        W87294  40.448  29.558   0.444
14881W        W87295   4.881  36.910  12.078
14882W        W87296   6.211  39.885   1.235
14883W        W87297  35.080  30.139   4.130
14884W        W87298  41.000  10.141   2.187
14885W        W87299  24.157  41.514   5.133
14886W        W87300   0.267   5.377   0.932
14887W        W87301  43.945  18.163  11.510
14888W        W87302  20.057  26.196   4.713
14889W        W87303  39.368  20.657  12.446
14890W        W87304  25.548   8.180  11.871
14891W        W87305  13.825  28.980   4.142
14892W        W87306  28.680  27.618   4.631
14893W        W87307  29.493  37.448   2.841
14894W        W87308  29.957  13.328  13.400
14895W        W87309  24.088   9.654   0.343
14896W        W87310  44.887  13.207   3.824
14897W        W87311  42.323  20.741  13.372
14898W        W87312  30.508  39.959   2.748
14899W        W87313  30.529  43.901   4.773
14900W        W87314  11.796  21.096   4.773
14901W        W87315  28.170  13.739  11.373
14902W        W87316   7.860  14.164   1.702
14903W        W87317   4.225  36.567   1.250
14904W        W87318  16.147  42.803   2.790
14905W        W87319   7.340  34.104  11.407
14906W        W87320  20.046  40.436  13.539
14907W        W87321  37.977  30.449  11.512
14908W        W87322  33.550  43.820   1.925
14909W        W87323  43.917  27.510  14.301
14910W        W87324  34.597  22.178   4.599
14911W        W87325   4.930   7.892   0.341
14912W        W87326   2.417  28.184   1.326
14913W        W87327  15.311  20.099  12.443
14914W        W87328  23.512  28.110  14.495
14915W        W87329  37.417  31.443  11.900
14916W        W87330   5.794   5.214  14.387
14917W        W87331   5.879  15.154   5.105
14918W        W87332  16.633   3.397  10.904
14919W        W87333  28.114  40.019   3.736
14920W        W87334  30.600  31.447  12.559
14921W        W87335  20.266  13.351  14.401
14922W        W87336  33.551  44.941   0.252
14923W        W87337  15.164  43.835  14.483
14924W        W87338  39.920  29.670   0.757
14925W        W87339  20.078   6.240  10.974
14926W        W87340  25.141  25.012  13.992
14927W        W87341  43.291  23.222  11.886
14928W        W87342  25.694   5.210  12.497
14929W        W87343  34.382   5.874   3.308
14930W        W87344  41.510  39.929   4.220
14931W        W87345  34.529  42.315  14.471
14932W        W87346  37.336  40.546  12.493
14933W        W87347  19.245   4.284   4.284
14934W        W87348  27.657  15.671  14.830
14935W        W87349  41.491  41.974  13.503
14936W        W87350  11.340  33.112   4.223
14937W        W87351  22.734  10.827   4.210
14938W        W87352  13.108  42.413   4.798
14939W        W87353   2.725  20.250  13.428
14940W        W87354  27.589  27.957  14.377
14941W        W87355  13.833   5.433  14.419
14942W        W87356  21.239  27.015  12.567
14943W        W87357  29.620  30.591   2.377
14944W        W87358   6.691  12.301   3.766
14945W        W87359  38.356  38.820  12.082
14946W        W87360  41.034  35.086   1.364
14947W        W87361  38.992  13.222  11.891
14948W        W87362  23.196  20.165  14.463
14949W        W87363  34.474  26.597   3.161
14950W        W87364  38.397  25.595  10.479
14951W        W87365  43.011  30.994   5.304
14952W        W87366  44.475  34.029   4.611
14953W        W87367  35.962  29.652   0.870
14954W        W87368  35.420  36.451  10.539
14955W        W87369  18.753  26.048  10.585
14956W        W87370  16.580  14.667   2.417
14957W        W87371  31.421  30.063  12.831
14958W        W87372  12.259  35.008  14.417
14959W        W87373   1.817  36.396   3.265
14960W        W87374   3.324  29.619  13.957
14961W        W87375  43.467   4.306  14.312
14962W        W87376  19.059  24.647   3.709
14963W        W87377  32.060  20.747  11.876
14964W        W87378  17.146  38.486   2.295
14965W        W87379  27.636  22.594   0.875
14966W        W87380  43.781  12.200   0.892
14967W        W87381  29.134  44.419   1.352
14968W        W87382  27.141   1.800   3.230
14969W        W87383  16.261  24.225   2.304
14970W        W87384  24.493  44.910  11.103
14971W        W87385  23.053  33.528   2.732
14972W        W87386  36.963  31.970  14.373
14973W        W87387  41.833  24.593  12.563
14974W        W87388  39.416  19.589  14.811
14975W        W87389   5.787  17.133   0.950
14976W        W87390  12.327  36.564   2.377
14977W        W87391  19.633  22.176   0.373
14978W        W87392  11.817  12.218  14.423
14979W        W87393   1.879  15.125   0.856
14980W        W87394  42.485  12.343  14.336
14981W        W87395  17.802   1.391   3.722
14982W        W87396   1.402  18.231  11.965
14983W        W87397  10.667  21.062   9.940
14984W        W87398  26.630   8.244   4.730
14985W        W87399  34.599  16.225   4.239
14986W        W87400  17.271  29.598  11.383
14987W        W87401  13.786  36.515   3.314
14988W        W87402  20.706  44.324   1.871
14989W        W87403  18.157  39.373  13.429
14990W        W87404  26.459   6.704  14.778
14991W        W87405  24.612  15.615  14.483
14992W        W87406  32.042   5.690   1.935
14993W        W87407   6.184  25.070  13.812
14994W        W87408   4.804  35.455  11.976
14995W        W87409  31.103  41.848  14.474
14996W        W87410  36.410  30.441   3.225
14997W        W87411  38.892   4.312   0.394
14998W        W87412  27.454  18.156   1.337
14999W        W87413  44.454  43.331   1.269
15000W        W87414  25.128  25.046  11.998
15001W        W87415  44.864  41.833   0.363
15002W        W87416   1.963  14.322   0.432
15003W        W87417  33.085  35.469  14.995
15004W        W87418  10.710   2.349   3.736
15005W        W87419  42.880  33.062   2.815
15006W        W87420  20.564   3.236   1.787
15007W        W87421   3.783  44.500  10.079
15008W        W87422  14.166  16.579   1.911
15009W        W87423  23.075   1.805  12.885
15010W        W87424   9.285  31.412  11.989
15011W        W87425  13.333  20.701  13.807
15012W        W87426  12.217  22.626   1.346
15013W        W87427  21.689  23.033  14.288
15014W        W87428  17.116  16.287  11.056
15015W        W87429  16.713  37.969   0.270
15016W        W87430  20.648  30.011  11.895
15017W        W87431  18.600  20.728   0.947
15018W        W87432  42.879  24.169   5.283
15019W        W87433   4.776  14.681   1.390
15020W        W87434  23.656  27.056   1.906
15021W        W87435  16.763  39.981   1.442
15022W        W87436   0.776   8.730   4.169
15023W        W87437  31.069  43.506  11.954
15024W        W87438  31.094  15.313   2.262
15025W        W87439  18.647  42.418  11.066
15026W        W87440  18.635  31.407  11.921
15027W        W87441  42.418  37.521   1.703
15028W        W87442  34.403  40.334  13.413
15029W        W87443  31.545  22.161  13.503
15030W        W87444  37.563  38.043   4.276
15031W        W87445  22.235  12.267   1.299
15032W        W87446  10.355  25.067   9.983
15033W        W87447  29.448  21.712  12.990
15034W        W87448   6.870   2.278  11.573
15035W        W87449  14.647  17.191  11.862
15036W        W87450  38.332  28.454  11.556
15037W        W87451  35.504  23.000   3.667
15038W        W87452  14.225   4.781  13.502
15039W        W87453  18.750   3.461   4.252
15040W        W87454  32.902   9.794  13.027
15041W        W87455  20.652   3.798   4.253
15042W        W87456  25.620  35.082   2.675
15043W        W87457  40.895   4.288   0.919
15044W        W87458  39.511  11.241   3.158
15045W        W87459   8.332  13.265   1.904
15046W        W87460  15.205  16.707   0.418
15047W        W87461  13.634  40.320   0.369
15048W        W87462  32.962  24.550  13.346
15049W        W87463  19.246  44.383   3.727
15050W        W87464  33.442  29.089   3.692
15051W        W87465  24.158  18.579  10.632
15052W        W87466  38.842  29.957   1.749
15053W        W87467  31.542  24.549  11.612
15054W        W87468  11.138   1.396  14.503
15055W        W87469  35.910  30.646  13.333
15056W        W87470  11.223  20.206   3.346
15057W        W87471   3.824   6.188  13.422
15058W        W87472  39.816   1.392  10.421
15059W        W87473  26.140  10.707   3.645
15060W        W87474  14.285  41.921   3.309
15061W        W87475  34.057  13.770   2.202
15062W        W87476   0.257   1.404   4.278
15063W        W87477  39.425   2.877  14.280
15064W        W87478  32.449   0.852   0.318
15065W        W87479  13.680  42.029  13.443
15066W        W87480  19.124  15.696   2.363
15067W        W87481  23.069  25.469  12.462
15068W        W87482  16.697  13.202   4.223
15069W        W87483  38.009  27.995  14.978
15070W        W87484  34.121  36.472   1.212
15071W        W87485   5.761  15.721   2.339
15072W        W87486  21.034  32.450  12.968
15073W        W87487  29.029  19.074   1.435
15074W        W87488  43.299  25.554  13.893
15075W        W87489  28.045  29.501  11.931
15076W        W87490   2.791   6.403   4.293
15077W        W87491  26.112  27.609  12.379
15078W        W87492  24.570  15.272  10.987
15079W        W87493  36.066  31.409   3.288
15080W        W87494  16.117   4.445   3.844
15081W        W87495  36.913   4.444   3.205
15082W        W87496  31.062   4.819   2.873
15083W        W87497  32.036  20.527   1.442
15084W        W87498  40.006   6.268   2.340
15085W        W87499  13.705   6.744  14.510
15086W        W87500  42.479  15.679  11.883
15087W        W87501   0.851  41.959  12.028
15088W        W87502  44.768  20.599   0.280
15089W        W87503  25.192  10.322  13.015
15090W        W87504  36.583  32.055  11.592
15091W        W87505  41.946   9.348  11.900
15092W        W87506  34.894  40.484   0.902
15093W        W87507  36.992  25.601  12.363
15094W        W87508  26.456  44.362   0.804
15095W        W87509  21.733   3.822  13.446
15096W        W87510   9.303  42.991  13.869
15097W        W87511  29.982   2.870  11.527
15098W        W87512  43.502  10.874   4.156
15099W        W87513  30.634   2.286   2.227
15100W        W87514  43.479   4.350  14.786
15101W        W87515   3.937   2.270  11.002
15102W        W87516  23.158  26.057   1.293
15103W        W87517   0.352  35.410  13.939
15104W        W87518  44.469   3.430  14.892
15105W        W87519   0.252  21.683  11.004
15106W        W87520   9.862  19.201   3.656
15107W        W87521  44.917  28.680   4.735
15108W        W87522  39.001  19.682  10.922
15109W        W87523  24.546  24.725   2.331
15110W        W87524   5.862  38.062  12.897
15111W        W87525  18.063  37.921  14.406
15112W        W87526  38.557  14.260  12.002
15113W        W87527  33.924  20.710  11.107
15114W        W87528   7.773  25.665  11.988
15115W        W87529  44.366   0.977  14.818
15116W        W87530  44.778   8.736  13.392
15117W        W87531   0.906  12.338  13.432
15118W        W87532  14.275  11.841   4.114
15119W        W87533  26.155  19.541  11.390
15120W        W87534  16.744  15.785   4.189
15121W        W87535  34.502  12.240  12.029
15122W        W87536  14.173  13.660   2.204
15123W        W87537  32.976  39.370  10.415
15124W        W87538  30.499  33.978   2.303
15125W        W87539  37.883  20.616  14.011
15126W        W87540  20.641  44.401   3.288
15127W        W87541  44.334  38.395  12.428
15128W        W87542  40.349  34.548   0.830
15129W        W87543  42.878  22.529   2.769
15130W        W87544  18.595   6.260   0.282
15131W        W87545  12.696  18.678   0.366
15132W        W87546  20.669  37.081   3.149
15133W        W87547  10.733  39.809   0.766
15134W        W87548  21.212  34.945   5.177
15135W        W87549  40.052   7.348   3.689
15136W        W87550  12.136  44.285   1.855
15137W        W87551  13.687  39.935   2.339
15138W        W87552  38.916   7.331  13.351
15139W        W87553  32.462  15.172   1.265
15140W        W87554  11.724  29.086   1.737
15141W        W87555  16.097   2.451  14.015
15142W        W87556  13.780  14.755   3.252
15143W        W87557  21.185   1.359   1.269
15144W        W87558   9.253  20.092  12.869
15145W        W87559  42.825  22.031  10.892
15146W        W87560  22.241  42.448  12.385
15147W        W87561   9.871  27.503  14.511
15148W        W87562  42.299  37.031  13.358
15149W        W87563   6.396  20.528  14.825
15150W        W87564  14.721   7.239   3.367
15151W        W87565  15.795  34.508  11.516
15152W        W87566  22.744  16.269   5.771
15153W        W87567  27.094  10.255   3.300
15154W        W87568  23.578  25.536  12.096
15155W        W87569  25.580   7.401   5.175
15156W        W87570  35.965  33.595   1.264
15157W        W87571  22.604  35.550   2.886
15158W        W87572   7.407  13.281   1.358
15159W        W87573   7.707  11.199   3.185
15160W        W87574  19.611   5.794  10.490
15161W        W87575   7.872   4.752  14.785
15162W        W87576  18.659   1.937   1.894
15163W        W87577  35.021  42.785   2.704
15164W        W87578  36.481  38.978   5.100
15165W        W87579  39.507  27.461   4.807
15166W        W87580  12.731  23.548  14.399
15167W        W87581  27.971   8.265  14.917
15168W        W87582  26.131   8.716   1.702
15169W        W87583  28.634   2.812  13.405
15170W        W87584  26.029  35.007   0.464
15171W        W87585  37.885  36.932   4.164
15172W        W87586  39.374  16.585  11.942
15173W        W87587  44.855   4.323   3.160
15174W        W87588  18.273   6.793   3.794
15175W        W87589  43.457  31.078  11.030
15176W        W87590   8.863  39.521  13.014
15177W        W87591  42.471   8.665  10.596
15178W        W87592  27.527   0.894  10.576
15179W        W87593   4.324  34.506   0.280
15180W        W87594  24.205   4.350   1.903
15181W        W87595  41.802   4.330  10.465
15182W        W87596  42.873  22.553   0.476
15183W        W87597  27.003   0.371   5.636
15184W        W87598  21.668  38.948   2.282
15185W        W87599  20.577   0.303   3.219
15186W        W87600  37.366  30.528   1.405
15187W        W87601   5.406  25.176   3.798
15188W        W87602  13.196   5.879   3.376
15189W        W87603  38.554  10.339   0.890
15190W        W87604   6.307  16.193  12.365
15191W        W87605  17.787  14.113   4.138
15192W        W87606  37.436  36.945   3.262
15193W        W87607   6.844   7.882   0.338
15194W        W87608  13.786  20.268  11.034
15195W        W87609   1.311  17.788   2.887
15196W        W87610   2.364   0.843   3.369
15197W        W87611  10.663   1.938   2.266
15198W        W87612  42.812  31.124   3.677
15199W        W87613  43.817  11.748  12.943
15200W        W87614   9.761  25.991   3.246
15201W        W87615   8.663  21.225  14.402
15202W        W87616  32.546  31.632   0.952
15203W        W87617  15.145  36.063  11.089
15204W        W87618  27.639   0.436   2.287
15205W        W87619  42.500   1.949  10.559
15206W        W87620  27.476   9.333   1.221
15207W        W87621  16.780  34.462   0.886
15208W        W87622  44.908  19.048   2.792
15209W        W87623   1.775  22.611   2.786
15210W        W87624  19.739  37.019  10.954
15211W        W87625   5.403   0.876  12.533
15212W        W87626  28.596   7.237   0.847
15213W        W87627  32.003  22.746  11.493
15214W        W87628  21.228  38.829   3.754
15215W        W87629  39.350  27.524   3.208
15216W        W87630   6.268   2.450  14.314
15217W        W87631  44.429  12.729   5.246
15218W        W87632  39.433  25.977   2.666
15219W        W87633  40.508  12.733  11.910
15220W        W87634   5.795   4.773   2.200
15221W        W87635  10.326  19.175   0.837
15222W        W87636  26.490  23.199   1.397
15223W        W87637  35.061  15.685   0.766
15224W        W87638   2.934  19.736  13.379
15225W        W87639  32.428  31.593   4.187
15226W        W87640  30.098  32.447  12.981
15227W        W87641  41.429  13.226   1.710
15228W        W87642  17.651   6.774   4.230
15229W        W87643   7.752  11.822   5.256
15230W        W87644  19.709  23.107   3.820
15231W        W87645   6.774  20.757  10.892
15232W        W87646  12.276  43.849  10.595
15233W        W87647   4.936  16.278   4.673
15234W        W87648  27.094   4.941  12.362
15235W        W87649  40.862   1.238   1.830
15236W        W87650  35.973   9.674  11.057
15237W        W87651  25.647  34.458   4.146
15238W        W87652  35.986   7.902   1.386
15239W        W87653  38.570   1.306   4.665
15240W        W87654  16.273  18.174  14.400
15241W        W87655  20.214  25.697   1.913
15242W        W87656  35.559   1.882   1.914
15243W        W87657  41.985  17.238  12.940
15244W        W87658  21.069  44.892  13.927
15245W        W87659  12.771   0.756   3.365
15246W        W87660   5.815  16.808   0.790
15247W        W87661  40.340  40.799   1.797
15248W        W87662  25.981  39.435   2.405
15249W        W87663   4.415   1.866   3.373
15250W        W87664  20.745   4.250  13.048
15251W        W87665  16.221  21.739  11.413
15252W        W87666  25.049   3.239   0.450
15253W        W87667  11.645  15.733   3.296
15254W        W87668   6.725  11.647   1.860
15255W        W87669  14.814   4.846  11.034
15256W        W87670  25.488  12.680   1.335
15257W        W87671  40.434  31.119  13.947
15258W        W87672  21.134  10.741   0.411
15259W        W87673  18.132  24.520   3.749
15260W        W87674  21.235  27.120   4.817
15261W        W87675  11.291  22.102   4.800
15262W        W87676   6.719  44.876   1.386
15263W        W87677  37.981  20.162  12.008
15264W        W87678  29.065  12.653   3.347
15265W        W87679  28.068   2.918   1.711
15266W        W87680   4.744  31.029   0.407
15267W        W87681   3.408  23.013  10.579
15268W        W87682  28.052  24.578   1.349
15269W        W87683  43.924  25.535  12.025
15270W        W87684  19.235   9.374  13.525
15271W        W87685  44.505   1.784  12.495
15272W        W87686  18.766  22.093   3.261
15273W        W87687   4.788  31.528   0.280
15274W        W87688  17.633  41.800   0.957
15275W        W87689  13.658   5.313   3.362
15276W        W87690   7.212  14.213   2.799
15277W        W87691   4.753  38.923  13.964
15278W        W87692  24.564  25.028   1.932
15279W        W87693  13.348   5.924  10.074
15280W        W87694  20.051  27.593   4.339
15281W        W87695   1.832  22.662   2.214
15282W        W87696   6.409   3.320  10.036
15283W        W87697   6.315  31.910  10.991
15284W        W87698   8.396  17.160   0.288
15285W        W87699  25.142   3.786   3.273
15286W        W87700  31.035  41.871   4.132
15287W        W87701  15.675   0.375  13.987
15288W        W87702  43.932  13.648   1.927
15289W        W87703  38.000  33.010   3.275
15290W        W87704  29.947  10.383   0.732
15291W        W87705  38.966  41.463  11.076
15292W        W87706  42.409  13.738   1.763
15293W        W87707  33.890  15.270  13.049
15294W        W87708  13.717  43.346   3.739
15295W        W87709  41.912  36.008   2.833
15296W        W87710  21.726  11.174   2.223
15297W        W87711  36.891  10.218  11.441
15298W        W87712   0.417  16.214  14.442
15299W        W87713   3.902  33.432  11.554
15300W        W87714  40.305  28.981   5.238
15301W        W87715  36.526  36.496   0.346
15302W        W87716   5.835   7.228  10.907
15303W        W87717   2.320  38.404   3.333
15304W        W87718  43.450   0.339  12.059
15305W        W87719  36.356  37.555  13.873
15306W        W87720   0.979  18.212  13.839
15307W        W87721  19.668  16.139  11.062
15308W        W87722  41.846  31.645  14.873
15309W        W87723  35.037   1.405  12.373
15310W        W87724   3.796  23.701  12.454
15311W        W87725  29.953  32.498  11.600
15312W        W87726   7.842  35.078  13.503
15313W        W87727  26.043  33.460  12.522
15314W        W87728  40.040  44.337  14.960
15315W        W87729  11.274   0.350   3.775
15316W        W87730  36.869  32.893   3.805
15317W        W87731  27.533   8.272   1.723
15318W        W87732  27.144  43.798  13.338
15319W        W87733   6.862  28.599  11.528
15320W        W87734   1.808  22.075   0.364
15321W        W87735   9.204  27.958   1.892
15322W        W87736  33.535  17.732   3.347
15323W        W87737  16.118  14.234  13.055
15324W        W87738  29.014   6.271   1.376
15325W        W87739  14.719  13.755  10.626
15326W        W87740  41.438   8.770  14.864
15327W        W87741  21.148  23.565  14.395
15328W        W87742  18.283  29.948  10.947
15329W        W87743  36.470  21.737  10.103
15330W        W87744  11.365  35.886   0.786
15331W        W87745   5.260   0.813   4.275
15332W        W87746   3.941  28.490   3.357
15333W        W87747  18.108   4.899  14.444
15334W        W87748  31.546   4.922  12.988
15335W        W87749  12.727  24.113   0.296
15336W        W87750  31.594  39.342  12.095
15337W        W87751  31.054  10.155  10.938
15338W        W87752   2.368   8.841   3.349
15339W        W87753   8.213   2.722  12.980
15340W        W87754  32.070  13.599  11.027
15341W        W87755  37.446   0.871   0.906
15342W        W87756   6.876   1.354   2.275
15343W        W87757  25.561   0.937  14.381
15344W        W87758  43.461   2.905   2.886
15345W        W87759  15.679  14.729   3.862
15346W        W87760  16.137  22.189   1.343
15347W        W87761  33.573  19.252  14.388
15348W        W87762  29.526  22.657   1.424
15349W        W87763  43.353  32.029  12.386
15350W        W87764   8.257  24.711  13.901
15351W        W87765  15.722  18.632  12.080
15352W        W87766  10.377  36.052  10.929
15353W        W87767  11.154  36.086  11.904
15354W        W87768  34.906   8.334   0.271
15355W        W87769  27.022  12.708  12.494
15356W        W87770   7.363   1.849  13.495
15357W        W87771  12.782  25.604   0.289
15358W        W87772   7.268  42.388   2.289
15359W        W87773  17.787  13.807   2.834
15360W        W87774   0.831  21.721   1.780
15361W        W87775   2.303  39.816   3.182
15362W        W87776  31.974  24.045   5.219
15363W        W87777  43.865   6.356   4.795
15364W        W87778  39.881  41.346   2.214
15365W        W87779  13.743   4.331  14.497
15366W        W87780  25.659  31.434   4.652
15367W        W87781   8.178  21.177  10.941
15368W        W87782  17.613   1.912   0.819
15369W        W87783  14.712  18.205  14.953
15370W        W87784  33.892  24.225  10.471
15371W        W87785  44.441  37.399   3.683
15372W        W87786   4.288  21.088  11.401
15373W        W87787   7.804  21.707   0.731
15374W        W87788  37.003  22.736   3.146
15375W        W87789  21.718  35.013   1.717
15376W        W87790  17.121   8.364   3.293
15377W        W87791  38.858  30.501   1.833
15378W        W87792  38.923  44.001  12.464
15379W        W87793  17.180  44.937  14.970
15380W        W87794  18.233  32.961   4.770
15381W        W87795  31.620   2.858   3.302
15382W        W87796   0.359  33.537   3.154
15383W        W87797  17.604  35.904  12.863
15384W        W87798  29.473  32.437   1.282
15385W        W87799   2.334   2.412  14.849
15386W        W87800  31.513  10.279  12.413
15387W        W87801  22.745  13.193  11.004
15388W        W87802   2.273  20.218  10.432
15389W        W87803  12.668  17.723  10.529
15390W        W87804  17.237  17.647  12.921
15391W        W87805  32.536   4.707  12.032
15392W        W87806   7.802  24.678   3.214
15393W        W87807   0.928  30.111  10.522
15394W        W87808  20.041   2.378   3.249
15395W        W87809  16.162  19.719   2.798
15396W        W87810   2.371  14.280   0.243
15397W        W87811  26.093   1.951  11.905
15398W        W87812   2.854   3.316   4.322
15399W        W87813   3.825  20.195   4.619
15400W        W87814  20.702  39.849  13.823
15401W        W87815  14.325  32.445  11.542
15402W        W87816  10.673  28.670  13.034
15403W        W87817  43.991  37.569  11.068
15404W        W87818  15.161  22.122   4.640
15405W        W87819  39.988  21.694  10.992
15406W        W87820  14.671   6.801   3.639
15407W        W87821  14.210  41.933   0.958
15408W        W87822  24.635  17.198   4.141
15409W        W87823   5.720  35.018   1.386
15410W        W87824  38.003  11.336   2.226
15411W        W87825  44.892   2.308  10.482
15412W        W87826  25.583   1.378  11.059
15413W        W87827  14.146   6.690   1.758
15414W        W87828   2.826  23.035  14.334
15415W        W87829  38.388  41.809  14.962
15416W        W87830  41.881  44.310   1.727
15417W        W87831   6.316  25.985  12.982
15418W        W87832  33.029   6.677   0.252
15419W        W87833  17.228  25.608   3.357
15420W        W87834  24.016  39.482   3.673
15421W        W87835  41.942  18.572  11.391
15422W        W87836  43.414  10.828   3.840
15423W        W87837   6.833  23.591   4.155
15424W        W87838  44.995  35.550   0.797
15425W        W87839  31.923  28.146   2.393
15426W        W87840  24.003  32.023  11.546
15427W        W87841  38.449  44.988   2.753
15428W        W87842  27.048  11.746  13.529
15429W        W87843  11.367   5.750   1.360
15430W        W87844  33.487  28.047  10.507
15431W        W87845  12.729  11.213   2.770
15432W        W87846   9.374  43.845  10.480
15433W        W87847  25.131  38.954   0.787
15434W        W87848   0.399   4.365   0.374
15435W        W87849   1.348  43.781  13.517
15436W        W87850  21.527   6.402  13.537
15437W        W87851  37.965  41.883   0.736
15438W        W87852  28.094  37.988   2.262
15439W        W87853  25.694  10.273   2.188
15440W        W87854   1.941  25.106  11.993
15441W        W87855   7.193  18.239  11.613
15442W        W87856  26.543  13.242  11.981
15443W        W87857  13.106  23.083   0.246
15444W        W87858  38.414  14.767   0.243
15445W        W87859  25.605  35.463  13.449
15446W        W87860  34.094  21.715  10.468
15447W        W87861  36.408  43.420   0.374
15448W        W87862  30.425  36.078   3.706
15449W        W87863   2.912  17.732   4.788
15450W        W87864  22.568   1.293  11.029
15451W        W87865  34.961  36.468  12.080
15452W        W87866   4.919   3.711  13.963
15453W        W87867  32.925  37.036  11.584
15454W        W87868  31.998   7.252   1.924
15455W        W87869   8.868  29.940   4.767
15456W        W87870  28.073  18.566  13.817
15457W        W87871  15.820  38.933   3.783
15458W        W87872  17.646  21.226   3.748
15459W        W87873  14.608  42.504  11.989
15460W        W87874  35.023  21.182   5.785
15461W        W87875  15.130   0.799  11.094
15462W        W87876  18.736  19.058   1.251
15463W        W87877  26.539   9.228   0.768
15464W        W87878  20.572  26.513  13.825
15465W        W87879  18.066   7.713  11.470
15466W        W87880  30.953   0.931   4.268
15467W        W87881   7.784   0.343   0.314
15468W        W87882   8.849  11.821  14.466
15469W        W87883  10.877  25.134   2.359
15470W        W87884   9.838  32.571  12.538
15471W        W87885   1.882  25.166   1.875
15472W        W87886  31.417  35.446   4.695
15473W        W87887  44.325   7.909   3.205
15474W        W87888  27.156   0.400   9.972
15475W        W87889  33.124   5.864   2.887
15476W        W87890  39.321  44.908   4.163
15477W        W87891  14.241  43.493  14.348
15478W        W87892  34.524  35.494   1.411
15479W        W87893   1.961  13.766  11.921
15480W        W87894  44.842  31.992  12.433
15481W        W87895  43.516  38.071   0.748
15482W        W87896  41.307  35.890  11.118
15483W        W87897  11.277   1.746  14.328
15484W        W87898  15.168   9.312  13.411
15485W        W87899   5.406   4.432  12.060
15486W        W87900  12.177  44.795  14.829
15487W        W87901   8.253  14.097   1.818
15488W        W87902   5.228  20.610  10.991
15489W        W87903  15.266  29.091   0.332
15490W        W87904   0.481  38.563  12.824
15491W        W87905  14.131  38.541   2.265
15492W        W87906  13.761  44.928  10.452
15493W        W87907  37.405  39.012   0.249
15494W        W87908  17.749  17.647   4.132
15495W        W87909   4.878  21.667  12.373
15496W        W87910  31.016   8.681  10.469
15497W        W87911  22.083   7.183  14.920
15498W        W87912  21.711  40.905  10.462
15499W        W87913  11.663  13.698   3.836
15500W        W87914  19.648  22.227  10.904
15501W        W87915   9.880   4.212   3.858
15502W        W87916  35.083   4.430  13.956
15503W        W87917  23.603  15.727   3.358
15504W        W87918  13.609  18.787   0.790
15505W        W87919  40.837   8.226  12.009
15506W        W87920  23.988  18.083   0.360
15507W        W87921  43.949   2.258  14.927
15508W        W87922  37.905   7.304   0.825
15509W        W87923  13.258  38.376   2.886
15510W        W87924   5.360  42.435  10.405
15511W        W87925   4.363   1.842  12.468
15512W        W87926   8.865   4.914   4.623
15513W        W87927   7.177  12.143   1.450
15514W        W87928   5.835  41.902  10.482
15515W        W87929  40.389  21.069  10.578
15516W        W87930  11.745  26.064   0.254
15517W        W87931   4.870  34.875  14.926
15518W        W87932  28.499   5.837   2.244
15519W        W87933  21.157  37.866   4.777
15520W        W87934   2.355  24.535   2.879
15521W        W87935   5.709   0.828  10.993
15522W        W87936   7.343  19.648   3.660
15523W        W87937  43.002  17.607  12.564
15524W        W87938  13.620  39.418  13.842
15525W        W87939  19.774  40.343   1.765
15526W        W87940  22.691  19.755  10.595
15527W        W87941  41.866  43.270  12.903
15528W        W87942  42.834  18.102   0.880
15529W        W87943  40.531  17.299   3.859
15530W        W87944  11.141   6.370   0.329
15531W        W87945  42.379  28.176  14.350
15532W        W87946  23.721  16.591   2.222
15533W        W87947   0.889  13.644  13.542
15534W        W87948  18.118  27.527  11.521
15535W        W87949  11.781  32.477  10.565
15536W        W87950  14.290  44.828  14.877
15537W        W87951  14.791  37.480  14.500
15538W        W87952  28.669  41.511   2.687
15539W        W87953   0.931  11.868   5.165
15540W        W87954   2.237  17.146   3.776
15541W        W87955  29.506  11.164  10.639
15542W        W87956  26.124   6.277   0.908
15543W        W87957  30.069  30.125  12.881
15544W        W87958  17.241   5.740  10.541
15545W        W87959  34.422   2.248  12.478
15546W        W87960  20.120  27.518   4.832
15547W        W87961   4.294  36.400   4.115
15548W        W87962  29.106  32.961   3.344
15549W        W87963  35.935  12.841   4.656
15550W        W87964  29.606  26.054   2.410
15551W        W87965  35.017   7.289  11.526
15552W        W87966  38.907  26.662  14.858
15553W        W87967  29.021  12.174   1.738
15554W        W87968  21.160  11.638   2.680
15555W        W87969  38.899  37.036  13.055
15556W        W87970  22.584  13.722   3.864
15557W        W87971  27.129  25.190  11.552
15558W        W87972  35.460   2.745   4.830
15559W        W87973  26.643  33.569  10.407
15560W        W87974   7.881  29.981   1.903
15561W        W87975  28.516   2.386  14.009
15562W        W87976  22.249  23.114  10.481
15563W        W87977  44.280  40.998  13.944
15564W        W87978  38.353  35.090   0.872
15565W        W87979  27.468  39.896  14.469
15566W        W87980  11.681  39.554   3.315
15567W        W87981  25.714  14.335  13.378
15568W        W87982   9.782  24.711  14.484
15569W        W87983  22.155  24.189   0.855
15570W        W87984  19.702  20.632  12.843
15571W        W87985   3.934  39.874  12.516
15572W        W87986   1.394   1.814  12.029
15573W        W87987   6.775  11.647   0.395
15574W        W87988  35.375  21.189  14.448
15575W        W87989   9.717   1.241   4.190
15576W        W87990  11.643  12.727   2.807
15577W        W87991   0.790  20.028  10.902
15578W        W87992  29.442  28.151   0.459
15579W        W87993  19.761  15.596  11.015
15580W        W87994  41.903  44.414  10.458
15581W        W87995  39.814  23.045   0.814
15582W        W87996  24.161  28.639   4.758
15583W        W87997  31.061  21.619  12.932
15584W        W87998  39.514  19.739  12.979
15585W        W87999  16.259  35.081  13.894
15586W        W88000  40.876  42.837  13.036
15587W        W88001  39.403   8.741  11.553
15588W        W88002   0.248  14.279   2.781
15589W        W88003   9.292  33.614   0.941
15590W        W88004  26.641  35.424  11.607
15591W        W88005  11.843  10.227  14.913
15592W        W88006  36.364  37.061   0.847
15593W        W88007  10.229  43.770   4.798
15594W        W88008  41.896  13.677   0.244
15595W        W88009  33.912   8.864  13.014
15596W        W88010  30.972  42.460  13.934
15597W        W88011   8.375  16.310  14.480
15598W        W88012  13.253  25.692   1.318
15599W        W88013  15.622   1.978   1.449
15600W        W88014  35.916  29.498  12.472
15601W        W88015  13.764  38.485  10.645
15602W        W88016  32.572  24.078   1.221
15603W        W88017  30.515  21.599   1.889
15604W        W88018  15.707  30.995   0.463
15605W        W88019   9.682   4.913  11.858
15606W        W88020   3.430  27.602   9.966
15607W        W88021   0.262   3.286  13.026
15608W        W88022  20.240  43.972   2.286
15609W        W88023  44.502   0.323  11.468
15610W        W88024  29.102  17.649  10.426
15611W        W88025   8.201  17.730  10.905
15612W        W88026  34.614  17.282   1.916
15613W        W88027  29.643  28.494   2.814
15614W        W88028  35.853  28.460   2.364
15615W        W88029  11.154  24.698   0.396
15616W        W88030  38.010   0.899   4.767
15617W        W88031  17.800  22.721   3.860
15618W        W88032  33.624  10.637  13.372
15619W        W88033  26.479  36.461  12.491
15620W        W88034  21.682  32.401  10.638
15621W        W88035  44.811  25.657  10.893
15622W        W88036  26.536  35.914  10.137
15623W        W88037  21.063   4.319   4.183
15624W        W88038  11.711  21.749   2.405
15625W        W88039  16.684  19.578   4.702
15626W        W88040   7.803  38.991   0.910
15627W        W88041  20.092  15.122   2.900
15628W        W88042   2.733  30.945   3.271
15629W        W88043  16.291  15.735  11.023
15630W        W88044  19.723  44.383  12.377
15631W        W88045  18.689  13.148  11.884
15632W        W88046  39.859   0.801   1.327
15633W        W88047  27.684  15.760  13.508
15634W        W88048  22.534  37.573   0.900
15635W        W88049  12.695  19.060  10.505
15636W        W88050  24.127  26.598  10.608
15637W        W88051  28.079  37.008  12.525
15638W        W88052   7.301   7.323  10.641
15639W        W88053  25.564  27.098  12.870
15640W        W88054  35.397   3.377  12.571
15641W        W88055  31.112  15.279  14.972
15642W        W88056   7.212  43.825  13.875
15643W        W88057  43.298  21.518  11.065
15644W        W88058  40.836  34.957  14.444
15645W        W88059  20.258  33.588   2.282
15646W        W88060  31.151   5.387  11.603
15647W        W88061   5.197  25.642   3.837
15648W        W88062  14.127  43.509   1.429
15649W        W88063  39.965  44.325   1.701
15650W        W88064  31.585  15.250  12.006
15651W        W88065   8.223   1.442  14.308
15652W        W88066  26.071  38.852   2.662
15653W        W88067   7.806  10.637  12.349
15654W        W88068   8.165  35.435   4.685
15655W        W88069  23.721  25.041   1.404
15656W        W88070  12.629   8.269  14.924
15657W        W88071  11.195  17.142   3.306
15658W        W88072  17.739  26.605  12.036
15659W        W88073  19.068   7.752   4.677
15660W        W88074   0.303  21.264  14.314
15661W        W88075   5.690   1.278   0.414
15662W        W88076  26.556   1.885   4.721
15663W        W88077  18.652  21.686   3.709
15664W        W88078  31.995  38.449   2.197
15665W        W88079   4.793  13.109  12.886
15666W        W88080  27.643  41.908  12.416
15667W        W88081  21.581  16.200  14.290
15668W        W88082  18.660  15.797   3.667
15669W        W88083  36.886   0.782   0.380
15670W        W88084   0.469   2.863   4.129
15671W        W88085  22.742  43.427   3.719
15672W        W88086  42.445   9.390  14.953
15673W        W88087   3.726   5.375  12.396
15674W        W88088  18.143   0.369  10.087
15675W        W88089  20.604  26.197   3.837
15676W        W88090  41.012  34.896  11.922
15677W        W88091   8.832  43.342  11.384
15678W        W88092  37.390  18.230  10.140
15679W        W88093  26.495   0.978   5.189
15680W        W88094   1.443  42.522   4.805
15681W        W88095   2.268  17.758   2.365
15682W        W88096  40.855  39.539   4.802
15683W        W88097   8.345  42.907  10.950
15684W        W88098  40.922   9.182   4.760
15685W        W88099  18.789  39.855  10.904
15686W        W88100  25.592  17.710   1.921
15687W        W88101   0.865  34.948  11.946
15688W        W88102   6.701  15.743   1.435
15689W        W88103  42.813  13.163  13.807
15690W        W88104  39.978  10.303   0.813
15691W        W88105   4.793  28.557   9.617
15692W        W88106   0.458  35.081   1.905
15693W        W88107  16.623   6.900  11.872
15694W        W88108  20.591  44.883  12.510
15695W        W88109  33.881  34.560  11.412
15696W        W88110  43.003  31.476  13.401
15697W        W88111  37.567  31.543  14.943
15698W        W88112  38.511  40.908  11.569
15699W        W88113  39.340  33.402   0.843
15700W        W88114  16.808  28.083   4.310
15701W        W88115  19.235  14.712   1.419
15702W        W88116  39.858  33.415  11.054
15703W        W88117  23.691   6.313  13.353
15704W        W88118  31.519  40.829   4.255
15705W        W88119   0.850   7.383  13.031
15706W        W88120  20.053  29.951   2.709
15707W        W88121  39.901  18.784  12.416
15708W        W88122  36.095   1.370  13.523
15709W        W88123  43.849  18.111   0.459
15710W        W88124  25.160  40.542   0.279
15711W        W88125  24.206  15.293   2.289
15712W        W88126  32.628  11.326  13.372
15713W        W88127   9.235  14.749  10.483
15714W        W88128   4.922   8.759   4.314
15715W        W88129  23.706  35.403  10.490
15716W        W88130  13.331  32.571   0.950
15717W        W88131  18.577   7.780  13.877
15718W        W88132  34.529   7.710   1.749
15719W        W88133  23.598  24.483   4.704
15720W        W88134   8.231  12.245  12.981
15721W        W88135  24.552  20.637   1.390
15722W        W88136  37.399  34.102  12.084
15723W        W88137  40.863  21.659   2.418
15724W        W88138  37.058  13.791   2.310
15725W        W88139  39.543  24.225  12.963
15726W        W88140   8.185  31.027  13.006
15727W        W88141  41.013  26.614  12.369
15728W        W88142  20.228  25.974  13.890
15729W        W88143  29.480   5.328   1.848
15730W        W88144  42.518   2.871   3.769
15731W        W88145  25.125  44.965   1.726
15732W        W88146   5.903  41.320  13.022
15733W        W88147  13.344  18.138  11.554
15734W        W88148  23.084  42.299   3.270
15735W        W88149  44.790  33.121   4.329
15736W        W88150  18.155   9.241  14.972
15737W        W88151  35.003  31.598  14.803
15738W        W88152  11.717   1.329  14.931
15739W        W88153  44.380  25.126   4.806
15740W        W88154  11.676   2.760   2.294
15741W        W88155  37.481  39.910  12.003
15742W        W88156  25.551   4.420   2.894
15743W        W88157  29.427  30.974   0.329
15744W        W88158  34.406  18.281   0.826
15745W        W88159  28.658  25.106   3.318
15746W        W88160  25.009   6.917  14.022
15747W        W88161   5.810  22.089   3.834
15748W        W88162  12.246  17.198  11.410
15749W        W88163  14.244  36.087  10.101
15750W        W88164  28.159  23.551  14.828
15751W        W88165  43.481  44.779  12.905
15752W        W88166  10.792  19.692   4.742
15753W        W88167  27.139   3.903   1.793
15754W        W88168  26.669   5.418   2.759
15755W        W88169  28.591  25.969   0.785
15756W        W88170  35.955   3.305   1.418
15757W        W88171  30.657  42.290   3.691
15758W        W88172   3.796   9.270   1.354
15759W        W88173  44.280  13.172   4.770
15760W        W88174   2.949  22.246   4.676
15761W        W88175  11.719   1.392   4.601
15762W        W88176  22.096  13.125  14.980
15763W        W88177  41.474   4.899  12.532
15764W        W88178  16.126  30.474  12.493
15765W        W88179  22.616  32.968   4.675
15766W        W88180   8.209  20.099   3.219
15767W        W88181   6.362  29.432  14.426
15768W        W88182  29.623  11.684  14.008
15769W        W88183   2.722   0.788   2.789
15770W        W88184  15.094   3.418  14.389
15771W        W88185   9.283  19.771   1.757
15772W        W88186  12.807  37.008   0.894
15773W        W88187  20.030  26.970  12.357
15774W        W88188  18.607   6.802  11.869
15775W        W88189  16.177  33.541   0.913
15776W        W88190  44.366   2.890   4.749
15777W        W88191  13.819  35.378   3.356
15778W        W88192  25.704   6.794   3.353
15779W        W88193  27.618   3.351  12.937
15780W        W88194   9.216  18.693   2.287
15781W        W88195  42.029   1.444  12.451
15782W        W88196  20.632  22.503  11.909
15783W        W88197  38.904  23.524   0.929
15784W        W88198  44.937  31.073   4.210
15785W        W88199  28.543  41.404   0.466
15786W        W88200  20.709  11.807  10.618
15787W        W88201  24.627   5.883   0.898
15788W        W88202   2.400  28.148  10.094
15789W        W88203  32.510  18.677  12.946
15790W        W88204  27.675  39.408   2.782
15791W        W88205  40.375   4.850  12.461
15792W        W88206  43.895  39.855  10.564
15793W        W88207  24.140   7.687  12.002
15794W        W88208  15.705  17.189   3.770
15795W        W88209  28.959  20.213  11.035
15796W        W88210   9.795  21.115  11.859
15797W        W88211   9.162  10.840   0.914
15798W        W88212   3.421  36.432  11.407
15799W        W88213  15.796  30.098  12.038
15800W        W88214  32.561  27.447   1.296
15801W        W88215  14.602  10.846  12.886
15802W        W88216  30.637   5.397  11.537
15803W        W88217   6.745   1.812   1.863
15804W        W88218   1.854  29.052  13.828
15805W        W88219  43.015   8.190  11.039
15806W        W88220   8.208  27.520   3.840
15807W        W88221  35.603   4.292   1.320
15808W        W88222   7.905   1.889   5.150
15809W        W88223  19.085   4.942  11.525
15810W        W88224   8.798  20.574  13.813
15811W        W88225  37.931  30.470   1.393
15812W        W88226  22.224  19.676  13.914
15813W        W88227  17.083   5.427   4.779
15814W        W88228  17.172   4.825   1.359
15815W        W88229  31.067  10.173   4.646
15816W        W88230  15.609  18.263   1.211
15817W        W88231  24.135  19.081   2.392
15818W        W88232  24.104  28.151  10.537
15819W        W88233  34.896  39.906  10.502
15820W        W88234   0.946   5.847   1.373
15821W        W88235  42.780  44.944   2.828
15822W        W88236   7.694   8.875   4.783
15823W        W88237  35.959  17.788   1.438
15824W        W88238  20.563  15.121  11.596
15825W        W88239  12.745  41.365  11.986
15826W        W88240   9.875  41.786  13.309
15827W        W88241  12.649  34.049   3.866
15828W        W88242  23.126  44.793   1.854
15829W        W88243  29.447  20.555   2.705
15830W        W88244  33.087  26.007  13.342
15831W        W88245  25.020  40.035   3.740
15832W        W88246  12.158  39.875  14.009
15833W        W88247  36.947  33.599   3.320
15834W        W88248  27.950  15.582  12.381
15835W        W88249  15.272  25.549  14.906
15836W        W88250   0.333  22.733   2.902
15837W        W88251   5.349  13.207   5.146
15838W        W88252  10.860  43.459  10.416
15839W        W88253  12.708  43.483   0.284
15840W        W88254   5.860  40.510  12.413
15841W        W88255  38.407  29.922  14.806
15842W        W88256  31.606  36.400   3.314
15843W        W88257   3.951  15.126  11.050
15844W        W88258  17.726  23.637  11.024
15845W        W88259   2.730   4.863   3.750
15846W        W88260  10.260   5.820  14.459
15847W        W88261  28.967  13.230   3.764
15848W        W88262  25.630  39.008   0.294
15849W        W88263  10.342  18.610  10.518
15850W        W88264  40.327   7.847   0.904
15851W        W88265  21.142  34.511  14.302
15852W        W88266  31.989  29.071   2.879
15853W        W88267   7.860  14.717  11.119
15854W        W88268  38.508  17.624   2.299
15855W        W88269   3.884  14.325  12.859
15856W        W88270   6.775  44.788  14.956
15857W        W88271  31.058   1.459  14.320
15858W        W88272  11.303  37.430  10.949
15859W        W88273  33.503  25.017   4.342
15860W        W88274  19.702  43.477  10.515
15861W        W88275  39.912  28.996   4.819
15862W        W88276  39.477  30.114   1.381
15863W        W88277  35.530  27.540  12.835
15864W        W88278  44.780  42.492  13.388
15865W        W88279  42.973  43.344   0.795
15866W        W88280   5.286  16.275  10.939
15867W        W88281  40.504  12.655   3.275
15868W        W88282  10.330  35.506  14.409
15869W        W88283  19.548   4.843   1.718
15870W        W88284  41.025  31.906  11.487
15871W        W88285  14.821   5.881   9.591
15872W        W88286  25.999  36.994   2.336
15873W        W88287   5.704   5.857  11.972
15874W        W88288   4.220  28.086   0.268
15875W        W88289  13.726  25.062  12.839
15876W        W88290  11.342   5.691  12.972
15877W        W88291   9.231   7.798   4.835
15878W        W88292  15.629   4.260   4.625
15879W        W88293  10.335   9.244   1.910
15880W        W88294  32.920  15.256   4.709
15881W        W88295   6.241  44.276   1.807
15882W        W88296  21.114  38.571   3.318
15883W        W88297   2.464  17.129   3.219
15884W        W88298  29.067  11.825  11.110
15885W        W88299  44.302   1.330   1.260
15886W        W88300  16.116  18.742  10.134
15887W        W88301  20.589  40.469   0.463
15888W        W88302  10.255  41.798   1.704
15889W        W88303  29.114  11.835   4.698
15890W        W88304  29.023  43.270   3.711
15891W        W88305   5.388   2.353  12.551
15892W        W88306   8.715   8.751  12.017
15893W        W88307   7.820  32.392  11.966
15894W        W88308  34.543  15.204   2.687
15895W        W88309  44.481  39.990   1.756
15896W        W88310  32.965  12.199  13.813
15897W        W88311  10.143  23.570   5.136
15898W        W88312  13.256  15.676  11.019
15899W        W88313  18.183  38.463  13.945
15900W        W88314  21.579   8.812  11.075
15901W        W88315  29.964  31.926   4.135
15902W        W88316  14.265  17.134  12.048
15903W        W88317  29.605  19.099   2.731
15904W        W88318  13.308  36.986  12.091
15905W        W88319  14.601  12.170   1.326
15906W        W88320   9.653  32.443   2.229
15907W        W88321  16.086   1.256  10.573
15908W        W88322  37.042  25.574   2.198
15909W        W88323   3.951  37.388  14.943
15910W        W88324  31.598  22.718  12.380
15911W        W88325   6.290   9.226  11.542
15912W        W88326  21.517  22.054   4.265
15913W        W88327  22.635  22.221   1.238
15914W        W88328  28.063  23.536  14.420
15915W        W88329  17.765  18.669  11.558
15916W        W88330  26.501  29.991  10.474
15917W        W88331  43.765  40.531  11.878
15918W        W88332  42.026   3.862  12.480
15919W        W88333   3.333  22.021  12.524
15920W        W88334  19.216  11.190   4.258
15921W        W88335  23.122  43.418  13.461
15922W        W88336  37.984  43.993  14.408
15923W        W88337  38.436  21.081  12.997
15924W        W88338  40.801  17.219  11.087
15925W        W88339   8.671  21.089  11.455
15926W        W88340   4.428  27.683  11.939
15927W        W88341  11.329  30.475  11.473
15928W        W88342  34.867  20.701   2.366
15929W        W88343  14.591  39.002   2.361
15930W        W88344  17.098  37.023  12.831
15931W        W88345  21.639  20.671  11.382
15932W        W88346  22.166  33.116   2.370
15933W        W88347   4.215  43.803  10.629
15934W        W88348  25.064  14.665   0.429
15935W        W88349  17.786  25.062  12.007
15936W        W88350  32.091  33.910   2.245
15937W        W88351  20.270  17.081  11.108
15938W        W88352  32.433  35.437   3.197
15939W        W88353  37.982  34.370   2.186
15940W        W88354   5.813  37.355  12.357
15941W        W88355  40.321  35.469   2.344
15942W        W88356  15.106  18.706   0.478
15943W        W88357  39.357   3.382   3.288
15944W        W88358  28.484  35.074   4.606
15945W        W88359  37.573   1.861   3.285
15946W        W88360  30.468  35.587   3.640
15947W        W88361  28.954   0.315   3.249
15948W        W88362  29.000  38.482  11.126
15949W        W88363  24.117  25.139  12.367
15950W        W88364  12.692  39.359  12.830
15951W        W88365   3.786  25.207  12.427
15952W        W88366  10.861  19.168  12.074
15953W        W88367  16.793   0.979   3.660
15954W        W88368  21.513  38.561   1.269
15955W        W88369  15.195  33.917  12.463
15956W        W88370  32.412  31.589   3.252
15957W        W88371  14.801  17.567   0.433
15958W        W88372  37.447  38.944  10.565
15959W        W88373  19.672  23.018  11.409
15960W        W88374  41.911  14.728  12.055
15961W        W88375   5.275  14.621  13.981
15962W        W88376  43.924   0.911  12.945
15963W        W88377  25.563  43.908   3.823
15964W        W88378  18.571   1.883  12.450
15965W        W88379  13.300  10.709  14.342
15966W        W88380  39.426  26.634   4.730
15967W        W88381  37.030  21.753   3.686
15968W        W88382  34.083  35.385  11.408
15969W        W88383  20.075  24.708  14.453
15970W        W88384  34.010  18.704  10.893
15971W        W88385   1.957  38.400   2.815
15972W        W88386  34.956  10.652  13.473
15973W        W88387  33.946  31.908  13.459
15974W        W88388   1.329  27.066  14.874
15975W        W88389  38.571   7.300  13.361
15976W        W88390  42.484  19.238   1.717
15977W        W88391  13.726   7.175   4.776
15978W        W88392  30.956   9.643   1.903
15979W        W88393   4.902  12.827   3.359
15980W        W88394   0.787  23.624   5.190
15981W        W88395  22.228  36.864   1.362
15982W        W88396  40.819  13.129   0.385
15983W        W88397   2.370  40.913  13.320
15984W        W88398  44.328  31.144  14.829
15985W        W88399  19.259   6.295   2.218
15986W        W88400  24.709  11.339   4.229
15987W        W88401  22.667  21.521   1.738
15988W        W88402  24.162  11.161  12.843
15989W        W88403  22.548  13.119   1.310
15990W        W88404  13.337  32.925   4.829
15991W        W88405  19.078  18.769  13.407
15992W        W88406  39.532  10.154   1.813
15993W        W88407  40.545   8.703   1.344
15994W        W88408  37.555  11.173  13.939
15995W        W88409  29.038  34.387   4.355
15996W        W88410  40.019  34.554  12.406
15997W        W88411   1.414  25.082   0.795
15998W        W88412  38.968  27.630  14.874
15999W        W88413   3.721  32.051  12.837
16000W        W88414  16.219  32.485  13.855
16001W        W88415  18.618   1.779   3.384
16002W        W88416  42.407  44.327  13.970
16003W        W88417  10.774   0.273  12.349
16004W        W88418   5.376  14.791   1.874
16005W        W88419  39.933  42.504   2.706
16006W        W88420   3.306  29.479   0.911
16007W        W88421  21.639   0.402   4.767
16008W        W88422  17.165  36.000  10.073
16009W        W88423   2.819  32.415  13.898
16010W        W88424   4.889  40.992   4.614
16011W        W88425  18.075  22.120   0.941
16012W        W88426  21.698  38.485   1.847
16013W        W88427  22.183   0.423  10.640
16014W        W88428   0.983  41.470   1.863
16015W        W88429  17.702  25.601   2.293
16016W        W88430  24.623  44.932   3.248
16017W        W88431  23.034   5.853   2.184
16018W        W88432  36.861  39.507   0.321
16019W        W88433  18.559  16.170   2.364
16020W        W88434  44.417   0.791   4.758
16021W        W88435  31.922  36.556   0.832
16022W        W88436  39.046  12.668   1.842
16023W        W88437  32.068  36.927   4.662
16024W        W88438  38.838  18.648  14.291
16025W        W88439  30.947   9.285  13.352
16026W        W88440  43.768  27.638  12.911
16027W        W88441   6.870  22.189   4.751
16028W        W88442  28.668  13.195   2.706
16029W        W88443  23.503  23.090   3.297
16030W        W88444  27.102  36.521   2.816
16031W        W88445   0.839  34.512   2.369
16032W        W88446  39.056  38.326   2.767
16033W        W88447  20.644  32.460  10.956
16034W        W88448  34.524  32.012   1.777
16035W        W88449   8.701  40.924   0.931
16036W        W88450  33.885  15.198  13.427
16037W        W88451  15.594  40.804  13.930
16038W        W88452  11.741  43.320   2.807
16039W        W88453  40.404  30.522   0.422
16040W        W88454  29.086  40.492   3.637
16041W        W88455  19.109  23.099  14.959
16042W        W88456  36.522   1.394  13.032
16043W        W88457  32.394  30.467  11.992
16044W        W88458  24.139  33.891  11.921
16045W        W88459  21.525  36.011   0.470
16046W        W88460  20.556  31.587   0.754
16047W        W88461  39.001  38.555   0.276
16048W        W88462  36.426  42.362   3.384
16049W        W88463  24.721  21.640  14.307
16050W        W88464  23.602  30.432   4.299
16051W        W88465  27.498  27.988  11.420
16052W        W88466  11.658  12.723  10.473
16053W        W88467  43.817  39.812  10.975
16054W        W88468  29.643   8.193  13.888
16055W        W88469   8.348  31.624  14.376
16056W        W88470  40.502  43.477  12.952
16057W        W88471  43.398   3.424   2.202
16058W        W88472  21.695  17.558  12.542
16059W        W88473  21.661  35.466   2.188
16060W        W88474  27.942  36.061   1.218
16061W        W88475  12.790  22.597   0.400
16062W        W88476  35.500  24.161   0.440
16063W        W88477  36.536   3.418   1.793
16064W        W88478  12.179  23.621   3.849
16065W        W88479   7.316  36.999  12.445
16066W        W88480  41.945  38.871   9.962
16067W        W88481   1.736   4.801   3.369
16068W        W88482  13.692  32.420   4.754
16069W        W88483  13.271  22.604  14.507
16070W        W88484   2.298  43.296   2.221
16071W        W88485  38.402   1.295  11.544
16072W        W88486  34.057  19.714   0.422
16073W        W88487  13.650  22.558  10.415
16074W        W88488  44.411  27.128   0.460
16075W        W88489   5.409   8.404   0.950
16076W        W88490  29.050  15.786   0.756
16077W        W88491  23.037  20.097   1.801
16078W        W88492  31.516  19.087  12.030
16079W        W88493  11.782  28.665  13.859
16080W        W88494  12.221  14.734   1.909
16081W        W88495  27.034  17.644  13.417
16082W        W88496  36.454  17.251   0.343
16083W        W88497  28.954   1.363  13.960
16084W        W88498  29.543  18.287  12.040
16085W        W88499  23.030   2.269  12.389
16086W        W88500   8.754   1.253   2.264
16087W        W88501  39.987   0.864  11.002
16088W        W88502  34.401  44.879   4.726
16089W        W88503   5.690  13.270   4.308
16090W        W88504  36.431  22.527  12.941
16091W        W88505  35.868   3.290  14.463
16092W        W88506  20.075   4.274  12.010
16093W        W88507   1.819  10.331  13.947
16094W        W88508  10.743  28.167   1.825
16095W        W88509  40.863  36.402  13.839
16096W        W88510   6.413   2.413   2.849
16097W        W88511  26.025  19.206   0.366
16098W        W88512   3.300   1.403  12.538
16099W        W88513  19.736  31.583   4.172
16100W        W88514  14.792  17.218   5.128
16101W        W88515   2.829   3.749   3.811
16102W        W88516  40.364   5.303   4.195
16103W        W88517  28.976  29.610  14.409
16104W        W88518  42.447   6.907   1.256
16105W        W88519   7.190  20.740   1.815
16106W        W88520   7.846  21.234  13.543
16107W        W88521  26.951  33.030  11.534
16108W        W88522   4.705   4.368  13.440
16109W        W88523  22.686   7.795  14.780
16110W        W88524  15.637  37.431  12.005
16111W        W88525  22.016  41.892   3.813
16112W        W88526  15.719  23.130   3.820
16113W        W88527   0.337  40.461  11.977
16114W        W88528  26.622   8.825  14.507
16115W        W88529  30.439  39.332  11.112
16116W        W88530  34.461  39.002   2.682
16117W        W88531  15.740  14.136  13.808
16118W        W88532  14.198  40.861  13.035
16119W        W88533  22.247   2.382  14.324
16120W        W88534  32.123  42.507   1.325
16121W        W88535  21.515  22.691  10.144
16122W        W88536  43.371  39.535   0.908
16123W        W88537   8.817  39.063   2.307
16124W        W88538  24.022  33.415   9.983
16125W        W88539  42.448  11.232   3.216
16126W        W88540  35.534  36.367   0.946
16127W        W88541  18.749  31.960  13.416
16128W        W88542   8.194   1.893  14.822
16129W        W88543  17.155  38.486  11.479
16130W        W88544  25.680  36.375   0.420
16131W        W88545   3.738  14.703  10.002
16132W        W88546  41.523  18.627  13.022
16133W        W88547  24.505   5.416   3.294
16134W        W88548  35.430  16.714  12.500
16135W        W88549  14.124  12.127   0.468
16136W        W88550  11.230   5.331  10.523
16137W        W88551   8.771  39.034  11.585
16138W        W88552  37.536   1.838   4.716
16139W        W88553  40.485  19.237   1.217
16140W        W88554   9.365  35.533   0.428
16141W        W88555  41.972  35.397   3.678
16142W        W88556  33.928  12.687   2.818
16143W        W88557  34.989   7.261   5.268
16144W        W88558   8.838  18.274  12.069
16145W        W88559   6.250  33.488   3.667
16146W        W88560  28.501  35.532   4.300
16147W        W88561  24.493  29.141  13.060
16148W        W88562  23.669  29.063   2.362
16149W        W88563  10.365   0.875  10.594
16150W        W88564  25.981  20.083   4.768
16151W        W88565   8.246  37.497  14.452
16152W        W88566   5.424   6.893  12.844
16153W        W88567  40.394   2.774  13.513
16154W        W88568  42.335  15.577  12.368
16155W        W88569   2.369   4.719   0.368
16156W        W88570   8.311  28.641  14.818
16157W        W88571  25.619  20.586   4.678
16158W        W88572  35.040  44.983  13.064
16159W        W88573  44.470  19.568  13.472
16160W        W88574   8.659  26.651   1.888
16161W        W88575  25.151  27.535   4.733
16162W        W88576  30.472  21.616  13.460
16163W        W88577   2.963  20.696   1.750
16164W        W88578  32.917  33.492   2.354
16165W        W88579  34.522   6.844   0.388
16166W        W88580  12.312  43.917   1.934
16167W        W88581  30.022  16.576   1.930
16168W        W88582  15.105  19.752   2.747
16169W        W88583  30.488  28.972  12.052
16170W        W88584  33.405  38.433   3.806
16171W        W88585  24.576  14.819  11.855
16172W        W88586  20.175  38.873   1.904
16173W        W88587   0.424  30.922  13.328
16174W        W88588  38.009  11.151   0.923
16175W        W88589  32.889  23.644   3.821
16176W        W88590  37.539  19.766  14.930
16177W        W88591   9.725   8.326   2.345
16178W        W88592  12.812  34.467   0.790
16179W        W88593   6.197  25.015  14.405
16180W        W88594  12.339   1.890  12.471
16181W        W88595   1.919  32.030   4.770
16182W        W88596  29.016   8.170  11.579
16183W        W88597  38.989  22.015  11.578
16184W        W88598  40.029   0.426  11.117
16185W        W88599  13.161  27.507  14.848
16186W        W88600  43.893  30.453  10.916
16187W        W88601  38.553   8.294   0.852
16188W        W88602  28.435  18.187  12.904
16189W        W88603  33.566   8.865  12.041
16190W        W88604  28.521  26.492  12.342
16191W        W88605  39.901  41.311  11.879
16192W        W88606  26.154  20.533   1.424
16193W        W88607  14.733  16.703  11.979
16194W        W88608  10.767  36.368   2.765
16195W        W88609  35.866  22.139   4.274
16196W        W88610  39.521  18.665   2.270
16197W        W88611  10.321   0.757  12.906
16198W        W88612  10.702  38.569   3.755
16199W        W88613  40.964  34.936  11.499
16200W        W88614   8.670   6.336  14.016
16201W        W88615  29.631  22.537   0.332
16202W        W88616  35.406  37.986   0.731
16203W        W88617  31.449  13.640  11.414
16204W        W88618  31.014   4.450  13.492
16205W        W88619  44.318  35.062   2.376
16206W        W88620   5.829  35.381   3.251
16207W        W88621  31.096   3.890  10.528
16208W        W88622  15.747  28.506   1.254
16209W        W88623  24.539   0.275  12.961
16210W        W88624  32.108  33.477  14.502
16211W        W88625  36.525  29.174   3.250
16212W        W88626   0.436  40.920  14.303
16213W        W88627  33.876  32.393   0.774
16214W        W88628  42.903  30.133   3.825
16215W        W88629  11.132  21.243   4.778
16216W        W88630  14.670  11.724   4.606
16217W        W88631  16.239  27.611  10.585
16218W        W88632  30.066  20.645  11.878
16219W        W88633  20.042  26.578   0.797
16220W        W88634   0.466   1.288   0.460
16221W        W88635  22.034   3.812   4.245
16222W        W88636  42.520  13.307  14.329
16223W        W88637  43.991  36.548   1.289
16224W        W88638  42.423  29.014  14.867
16225W        W88639  24.102   4.708  11.934
16226W        W88640   7.290  19.600  12.545
16227W        W88641  17.586  44.321  11.036
16228W        W88642  25.072  41.431   0.475
16229W        W88643  12.307  44.496   4.613
16230W        W88644  22.665  44.413   0.283
16231W        W88645  38.829   7.314   4.671
16232W        W88646  34.524  16.785   4.823
16233W        W88647  35.463  11.314  13.951
16234W        W88648  27.682  27.599   0.429
16235W        W88649  34.077  20.753  11.477
16236W        W88650  29.175   1.739  13.527
16237W        W88651  44.372   7.710  11.097
16238W        W88652  32.989  21.145   4.157
16239W        W88653  40.898   6.856   1.430
16240W        W88654  37.901  30.004   1.427
16241W        W88655  27.527  30.422   4.797
16242W        W88656  26.143  14.788   4.678
16243W        W88657  35.482   9.695   4.192
16244W        W88658  16.622   7.680  11.406
16245W        W88659  17.297  22.714   0.822
16246W        W88660  29.125  32.483   2.346
16247W        W88661  26.094  24.983   4.228
16248W        W88662  12.714  11.740   2.888
16249W        W88663  30.489  32.085   4.756
16250W        W88664   4.354  39.469   3.750
16251W        W88665  22.149   6.792  11.054
16252W        W88666  40.931  41.360   0.384
16253W        W88667  40.951  22.697  14.284
16254W        W88668  18.214  36.096   0.435
16255W        W88669  24.712   0.774  12.828
16256W        W88670  18.117   5.783   0.339
16257W        W88671   0.771  14.200  11.435
16258W        W88672   7.830  33.387  14.769
16259W        W88673  14.632   3.917   4.167
16260W        W88674   4.910   9.374   4.701
16261W        W88675   9.240  18.147  10.428
16262W        W88676  25.036  29.928  11.990
16263W        W88677  16.102  16.285   1.301
16264W        W88678  39.478  32.565  11.529
16265W        W88679   6.294   9.648   4.701
16266W        W88680  34.472  23.579   5.272
16267W        W88681  36.069  42.937   4.601
16268W        W88682   7.318  27.023   0.312
16269W        W88683  39.903  12.851  14.844
16270W        W88684  31.586  38.052   4.339
16271W        W88685   0.422  21.569   3.164
16272W        W88686  12.343  11.734  12.967
16273W        W88687  12.749  21.638  12.860
16274W        W88688  31.151  25.199  13.998
16275W        W88689  35.561   5.763   4.690
16276W        W88690  26.088  42.389   1.403
16277W        W88691  31.151   5.784   0.353
16278W        W88692  17.728   0.778   1.314
16279W        W88693  23.050  20.557   4.246
16280W        W88694  37.443  32.571  14.463
16281W        W88695  11.283  15.285  13.002
16282W        W88696  14.741  40.492  14.870
16283W        W88697  26.680   4.272   3.633
16284W        W88698   6.910  41.009   4.628
16285W        W88699  15.777  21.162  13.436
16286W        W88700  26.176   4.264   1.755
16287W        W88701  36.577   5.292  13.929
16288W        W88702  28.169  31.981  11.507
16289W        W88703  26.609   1.330   9.950
16290W        W88704  36.040  41.029   2.776
16291W        W88705   9.183  37.445  12.022
16292W        W88706   1.960  28.114  13.023
16293W        W88707   6.911   6.815   1.753
16294W        W88708  35.072  17.150  14.371
16295W        W88709  15.684  42.389  14.984
16296W        W88710  30.634  35.499  10.553
16297W        W88711  17.089  22.214   0.797
16298W        W88712  17.278  25.213  14.776
16299W        W88713  30.020  35.461  14.775
16300W        W88714   1.807   5.334   3.831
16301W        W88715  40.868  38.911  12.954
16302W        W88716  18.296  33.479  10.591
16303W        W88717  10.342   7.898  10.608
16304W        W88718  13.331  34.883  14.832
16305W        W88719  18.654   9.217  10.971
16306W        W88720  13.741   5.855  10.978
16307W        W88721  33.431   5.205  13.866
16308W        W88722  44.987  20.705  13.466
16309W        W88723  42.031   3.383  13.480
16310W        W88724  43.389   5.337   1.874
16311W        W88725  24.189  43.783   5.176
16312W        W88726  39.384   5.208  12.911
16313W        W88727   6.370  31.586   4.128
16314W        W88728  10.788   4.699  10.934
16315W        W88729  42.922  33.958  14.438
16316W        W88730   5.219   9.753  12.972
16317W        W88731  26.120  18.615  14.773
16318W        W88732  29.509  26.509   4.141
16319W        W88733  32.992  18.782  13.023
16320W        W88734  11.261   7.233  13.986
16321W        W88735  39.945  10.338   4.744
16322W        W88736  35.452  23.580   4.837
16323W        W88737  30.151   1.258  10.958
16324W        W88738  11.749   5.812  12.864
16325W        W88739  24.141   6.247  14.297
16326W        W88740  26.153   3.948  13.919
16327W        W88741  13.173  14.208   0.324
16328W        W88742  43.014  13.684  10.589
16329W        W88743  20.761  14.692   0.754
16330W        W88744  34.901   7.290   0.742
16331W        W88745  20.092  11.787   3.359
16332W        W88746  15.132  19.189   1.858
16333W        W88747  15.296  18.652  11.868
16334W        W88748  14.240   3.914  12.420
16335W        W88749  16.235  15.647  14.836
16336W        W88750  21.572  14.248   1.296
16337W        W88751  37.001  15.116   1.780
16338W        W88752  16.781  34.398  10.442
16339W        W88753   4.319   2.234  13.906
16340W        W88754   3.848   7.230   2.280
16341W        W88755   7.174   1.274   2.210
16342W        W88756  36.499  42.368  14.027
16343W        W88757  20.535   9.798  11.055
16344W        W88758  38.359  23.216   0.733
16345W        W88759   4.261  21.562   4.746
16346W        W88760   2.322  44.378   1.362
16347W        W88761  23.035  40.902  10.462
16348W        W88762  40.328   2.269   3.696
16349W        W88763   0.451  29.499  13.310
16350W        W88764  28.661  17.567  13.882
16351W        W88765   5.808  35.969  12.071
16352W        W88766   5.744  34.582   3.256
16353W        W88767  42.394  10.361   5.134
16354W        W88768  42.408  26.180  12.459
16355W        W88769  27.490   0.452  11.445
16356W        W88770   2.945  11.832  10.625
16357W        W88771  27.062  19.232   0.427
16358W        W88772  25.488  28.528  13.833
16359W        W88773  30.620  36.455   2.710
16360W        W88774  15.106  16.750  10.585
16361W        W88775  33.034  20.213   4.120
16362W        W88776   9.848  15.701   3.216
16363W        W88777  28.496  29.504   3.785
16364W        W88778  14.213  17.609   2.365
16365W        W88779  13.732  31.633  13.542
16366W        W88780  29.970  18.782  13.543
16367W        W88781   3.805  40.889   4.200
16368W        W88782   2.852  44.408  13.865
16369W        W88783  22.591   1.925  10.499
16370W        W88784   6.699   7.406   2.709
16371W        W88785   9.330  38.407  12.947
16372W        W88786  19.274  18.660   4.818
16373W        W88787  13.351   4.873  12.938
16374W        W88788  27.637  43.402   0.897
16375W        W88789  30.596  44.306   3.293
16376W        W88790   3.868  31.411  12.023
16377W        W88791  21.156  19.091   0.283
16378W        W88792  33.564   0.754  12.446
16379W        W88793  12.275  35.894   0.455
16380W        W88794  12.187  40.922   2.797
16381W        W88795  30.484  17.300   3.168
16382W        W88796  20.235  27.128   4.304
16383W        W88797   3.893  27.060  11.866
16384W        W88798  40.038  43.384  14.939
16385W        W88799  39.814  43.329   4.636
16386W        W88800   5.811  24.519   2.180
16387W        W88801  30.657  17.759  13.887
16388W        W88802  11.790  15.813  10.411
16389W        W88803  16.628  43.360   0.302
16390W        W88804   5.271   4.840  14.395
16391W        W88805  15.602   7.305   4.278
16392W        W88806  13.657  34.919   4.667
16393W        W88807   1.275  12.703   3.774
16394W        W88808   4.332  11.175  11.588
16395W        W88809  25.494  26.199  10.617
16396W        W88810  31.490   8.329  14.768
16397W        W88811  44.321  28.636   1.778
16398W        W88812  16.239  21.163  10.507
16399W        W88813  27.106  16.692   3.796
16400W        W88814  15.596  31.404  10.559
16401W        W88815  25.488  14.219   0.385
16402W        W88816  23.106  29.158  14.032
16403W        W88817  43.954   5.194   1.247
16404W        W88818  27.971  40.879   2.669
16405W        W88819  36.888  11.651   0.462
16406W        W88820  41.880  22.564  12.993
16407W        W88821  25.971  43.945  10.929
16408W        W88822   5.774   5.351  11.927
16409W        W88823  23.635   1.838  13.876
16410W        W88824  43.904  44.779   0.795
16411W        W88825  15.634  27.070   1.348
16412W        W88826  20.225   4.858   2.284
16413W        W88827   7.232  23.114  13.975
16414W        W88828  40.509   2.940   4.251
16415W        W88829  33.577  12.214  13.015
16416W        W88830  15.208   5.723   2.834
16417W        W88831  27.569  30.945   4.288
16418W        W88832  21.605  12.799  13.454
16419W        W88833  17.613  31.921   2.698
16420W        W88834  27.074  14.599   1.240
16421W        W88835  40.810  14.729   0.818
16422W        W88836  42.935  13.245  14.839
16423W        W88837  21.735  18.255  12.866
16424W        W88838  20.591   3.335   1.451
16425W        W88839  34.990  21.192   0.835
16426W        W88840  37.396  36.519   1.436
16427W        W88841  35.866  40.799  13.517
16428W        W88842  22.696   7.740   4.262
16429W        W88843  17.802   6.749   2.214
16430W        W88844  17.063  19.229  14.876
16431W        W88845   0.960   7.198   1.243
16432W        W88846   2.336  23.057  10.889
16433W        W88847   9.311   3.906  10.922
16434W        W88848  36.457   7.721  10.531
16435W        W88849   0.362  37.937  12.842
16436W        W88850  20.141  25.183   0.263
16437W        W88851   7.701  21.129  12.937
16438W        W88852  27.617  26.146   0.866
16439W        W88853  12.319  22.520   4.321
16440W        W88854  28.594  10.342   0.881
16441W        W88855  18.106  35.082  14.838
16442W        W88856   2.958  25.115  11.920
16443W        W88857  25.053  32.016   2.895
16444W        W88858  14.104  22.054   0.933
16445W        W88859  10.699  30.644   4.237
16446W        W88860  10.815  28.636   3.818
16447W        W88861  11.289  41.382  14.365
16448W        W88862  21.515  30.545  13.814
16449W        W88863  14.819  35.052  12.913
16450W        W88864  28.610  27.554  12.879
16451W        W88865  35.902   8.698   1.748
16452W        W88866   7.704  34.898  13.824
16453W        W88867   6.341  43.444   4.685
16454W        W88868  32.962   7.262   3.683
16455W        W88869  18.114  18.092  10.910
16456W        W88870  33.399  36.509   3.825
16457W        W88871  36.533  19.180  11.561
16458W        W88872  11.675  12.790   2.247
16459W        W88873  20.609  26.158  13.373
16460W        W88874   1.378  35.411  14.872
16461W        W88875  29.454  29.470  10.486
16462W        W88876  19.659  15.651   1.251
16463W        W88877  11.836   9.158  12.464
16464W        W88878  16.626  17.106   0.951
16465W        W88879  10.831   4.882   1.259
16466W        W88880  34.466  11.625   2.763
16467W        W88881  12.352   6.396  11.456
16468W        W88882  33.606  43.963  11.062
16469W        W88883  35.595  41.873  14.403
16470W        W88884  26.065  39.808   2.402
16471W        W88885  20.669   0.487   5.723
16472W        W88886  12.768   8.885   4.807
16473W        W88887  11.143   5.317   1.878
16474W        W88888  13.823  29.493   0.383
16475W        W88889  29.062  12.183   3.638
16476W        W88890  43.440  10.167  11.597
16477W        W88891   2.387  20.737   4.134
16478W        W88892   0.777  12.722   4.693
16479W        W88893  27.688  21.061   1.901
16480W        W88894  10.734   0.282  14.889
16481W        W88895  20.068  21.553   3.830
16482W        W88896  22.654  35.899   3.783
16483W        W88897  44.439  10.861   0.956
16484W        W88898   3.357  14.330   3.266
16485W        W88899  13.620  43.293   2.877
16486W        W88900   2.807  13.744   9.986
16487W        W88901  26.980  14.151  14.925
16488W        W88902  33.950  34.975   1.885
16489W        W88903  28.534  38.025  14.450
16490W        W88904  44.294  36.436  12.938
16491W        W88905  30.140  14.278  11.586
16492W        W88906  19.636  10.139  14.449
16493W        W88907   6.717  28.961   0.901
16494W        W88908  27.105  44.883   5.647
16495W        W88909  16.219   4.928  10.465
16496W        W88910  12.676  15.637  11.912
16497W        W88911  43.778   7.287  14.003
16498W        W88912  36.417  14.167   4.115
16499W        W88913  30.560  33.469  12.412
16500W        W88914   6.730  14.114   1.845
16501W        W88915  26.194  44.504  12.870
16502W        W88916  30.113  32.626  13.377
16503W        W88917  18.068   9.380   1.309
16504W        W88918  37.393  10.658  13.346
16505W        W88919  18.118   7.873  13.938
16506W        W88920  23.541  29.577  13.021
16507W        W88921  11.677  21.163   1.373
16508W        W88922   2.303   8.178   4.636
16509W        W88923   3.433  17.695   3.765
16510W        W88924  34.510  10.192   9.924
16511W        W88925  37.901  37.392   4.318
16512W        W88926  43.476  10.841   0.905
16513W        W88927   6.838  18.076   4.236
16514W        W88928  36.043  10.776  14.977
16515W        W88929  23.180   3.456  14.302
16516W        W88930  11.246  11.740  11.884
16517W        W88931   4.387  29.534   1.402
16518W        W88932  33.891  31.152   3.748
16519W        W88933  28.544  43.872  11.104
16520W        W88934   9.187   9.802   4.300
16521W        W88935  25.179  35.985  12.491
16522W        W88936  10.193  43.499   2.712
16523W        W88937  40.935  33.530   3.369
16524W        W88938  34.980  20.135  14.002
16525W        W88939  12.226  39.510   1.913
16526W        W88940  30.442  15.778   1.795
16527W        W88941  13.823   4.291   0.847
16528W        W88942   8.874  11.711   1.307
16529W        W88943  32.958  28.470  13.867
16530W        W88944  38.546  17.685   4.789
16531W        W88945  31.083  31.548   2.331
16532W        W88946  25.208  22.524   1.933
16533W        W88947   7.758  38.067   0.422
16534W        W88948   8.731   3.740   3.743
16535W        W88949   4.855  17.068   4.318
16536W        W88950  25.637  24.540  11.932
16537W        W88951  25.120  38.452   2.728
16538W        W88952  39.443   6.824   1.338
16539W        W88953  14.712  31.996   3.782
16540W        W88954  33.074  32.489   4.334
16541W        W88955  41.892   7.245   1.889
16542W        W88956  44.358  39.852   2.293
16543W        W88957  28.006   0.906   1.430
16544W        W88958  41.430   4.223  11.868
16545W        W88959  33.403   6.728   0.397
16546W        W88960  44.939   4.435  14.928
16547W        W88961  14.764  32.069   0.454
16548W        W88962  30.129  11.148  14.796
16549W        W88963   1.246   6.286  13.436
16550W        W88964  11.184  14.286   3.268
16551W        W88965  24.571  41.858  14.433
16552W        W88966  40.437  19.088  13.020
16553W        W88967   9.847   7.208   0.357
16554W        W88968  40.347  40.396  13.535
16555W        W88969  41.449  10.257   1.374
16556W        W88970  44.000  38.436   1.777
16557W        W88971  29.069  24.595   2.184
16558W        W88972  19.571  34.499   0.436
16559W        W88973   6.856  19.196   2.763
16560W        W88974  12.692  18.703   2.212
16561W        W88975  21.079  11.668   4.647
16562W        W88976  30.560  37.052  12.967
16563W        W88977  44.753  12.145   0.351
16564W        W88978   8.176  11.780   2.343
16565W        W88979  27.648  33.884  12.036
16566W        W88980  14.094  12.196  13.538
16567W        W88981   5.252   5.801  10.977
16568W        W88982   6.425  22.103  12.950
16569W        W88983  43.438   9.681  11.883
16570W        W88984  13.703  17.738  14.308
16571W        W88985  41.012  26.526   2.865
16572W        W88986   2.863   1.804   1.865
16573W        W88987  21.130  41.378   4.818
16574W        W88988  22.735   9.173   4.610
16575W        W88989  33.014  24.069   0.727
16576W        W88990   6.410  26.672   0.341
16577W        W88991   8.289  31.032  13.546
16578W        W88992  40.474  36.047  11.411
16579W        W88993  38.463  14.143   0.765
16580W        W88994   8.753  38.488   3.194
16581W        W88995  22.622  24.686  11.428
16582W        W88996  27.569  30.604   1.870
16583W        W88997  33.882  12.207  14.447
16584W        W88998  15.777  32.637   5.131
16585W        W88999   7.190  21.261   0.262
16586W        W89000  17.794  41.913  14.439
16587W        W89001   6.840  32.429   4.326
16588W        W89002  17.728   2.889   3.206
16589W        W89003  36.084  31.455  12.422
16590W        W89004  42.385   3.233   3.238
16591W        W89005   7.770  27.612   3.198
16592W        W89006  43.355   5.804  12.934
16593W        W89007   3.878   0.784  14.019
16594W        W89008  28.029   6.360   2.890
16595W        W89009  11.238  27.112   0.912
16596W        W89010  10.256  19.269   3.864
16597W        W89011  34.034  26.678  13.868
16598W        W89012  15.250   1.870   3.634
16599W        W89013  39.374   7.207   0.900
16600W        W89014  14.143  15.713  13.336
16601W        W89015   3.278  39.389  13.836
16602W        W89016  27.082  35.998  13.394
16603W        W89017  41.033  17.251  12.922
16604W        W89018  33.993  40.812  14.438
16605W        W89019   5.415   3.869  12.476
16606W        W89020  27.053  19.207   4.254
16607W        W89021  23.601  44.775   0.476
16608W        W89022  13.162   5.362   4.808
16609W        W89023  34.108   1.935   2.376
16610W        W89024  10.658   0.291   2.782
16611W        W89025   3.776   5.758   1.245
16612W        W89026  20.570  36.556   2.399
16613W        W89027  19.250  33.992  10.550
16614W        W89028  13.647  42.526   4.288
16615W        W89029  13.746  29.646   1.328
16616W        W89030   8.239   9.825  13.313
16617W        W89031  21.568  26.557  14.361
16618W        W89032   6.324   8.887  12.946
16619W        W89033  20.203  19.110  11.483
16620W        W89034  36.407  17.164   3.835
16621W        W89035  41.302  30.649  11.969
16622W        W89036   8.879  21.702   0.418
16623W        W89037  40.859  31.431   0.315
16624W        W89038  38.827   3.282   5.164
16625W        W89039  34.594   7.345   4.278
16626W        W89040  29.435  30.923   3.256
16627W        W89041  14.789  32.424  12.485
16628W        W89042  32.903   5.286   0.480
16629W        W89043   2.816  12.120  13.326
16630W        W89044  16.202   9.328   4.696
16631W        W89045  19.621  30.474  14.372
16632W        W89046  42.996  20.672  12.558
16633W        W89047   1.460  44.877  14.423
16634W        W89048   6.345  29.584   3.643
16635W        W89049  30.947   1.773  14.897
16636W        W89050  14.137  12.213   3.826
16637W        W89051  37.496   3.438  11.429
16638W        W89052  26.576  36.986  14.968
16639W        W89053  11.740  11.247   3.673
16640W        W89054  28.163  39.814  10.536
16641W        W89055  34.070  44.358   1.930
16642W        W89056  27.132  25.171  10.531
16643W        W89057  33.928  21.693   1.429
16644W        W89058  25.036  36.095   0.772
16645W        W89059   1.864  13.338  12.544
16646W        W89060  11.198  40.365   3.700
16647W        W89061  35.927  25.671   2.248
16648W        W89062  12.220   1.417   4.300
16649W        W89063  23.081  17.774   1.848
16650W        W89064   7.720   7.292   4.622
16651W        W89065   4.365   3.240  12.909
16652W        W89066  25.489  30.056  12.359
16653W        W89067  25.497   9.374  13.818
16654W        W89068   4.389  23.214   0.796
16655W        W89069  29.558  25.131  13.515
16656W        W89070  27.954   4.242   0.927
16657W        W89071  21.095  33.909   3.803
16658W        W89072   7.241   0.964   2.768
16659W        W89073  13.741  16.224  13.473
16660W        W89074  15.227   3.772   0.848
16661W        W89075  39.481  35.596   3.662
16662W        W89076  35.949  36.883  14.924
16663W        W89077   5.401  18.216  11.469
16664W        W89078  37.976  28.119  13.346
16665W        W89079  24.074  32.591   2.719
16666W        W89080  38.921  10.801   4.617
16667W        W89081  10.860  44.758  13.798
16668W        W89082  18.092  13.298   1.918
16669W        W89083  28.058  27.680   4.644
16670W        W89084  37.519  15.118   2.766
16671W        W89085  42.882  35.530   2.283
16672W        W89086   1.968   3.944  11.555
16673W        W89087  15.267  40.959  12.982
16674W        W89088  31.977  42.852   0.482
16675W        W89089   7.880   6.869   4.229
16676W        W89090   7.183   9.710   0.304
16677W        W89091  27.972  33.481   3.730
16678W        W89092   3.322  35.527   0.803
16679W        W89093  32.018  28.066   5.140
16680W        W89094  17.165  10.661  13.883
16681W        W89095  21.742  20.618   2.802
16682W        W89096  29.511  19.051   3.260
16683W        W89097   6.322   6.879  13.373
16684W        W89098   5.273  36.888   3.384
16685W        W89099  25.143  24.504  14.929
16686W        W89100  20.709   1.252  10.990
16687W        W89101   1.749  19.111   0.246
16688W        W89102  11.309  23.576   2.662
16689W        W89103  35.465  16.251   4.815
16690W        W89104  36.062  20.270   4.274
16691W        W89105  32.470  14.805   1.705
16692W        W89106   7.765  11.659   3.156
16693W        W89107  39.343  30.453   2.206
16694W        W89108  12.711  34.602  11.452
16695W        W89109   9.310  21.734  13.878
16696W        W89110  31.135  12.242  11.091
16697W        W89111  10.826  14.299   2.242
16698W        W89112   6.810  25.600  10.537
16699W        W89113   4.816  22.998   2.802
16700W        W89114  43.777   9.763  12.017
16701W        W89115  28.631   0.858   0.768
16702W        W89116  30.517  41.397  12.051
16703W        W89117  32.443  43.271  14.505
16704W        W89118  25.092  19.748   0.390
16705W        W89119  35.589  21.693  12.563
16706W        W89120  34.495  23.501  13.849
16707W        W89121  26.132  14.686   2.806
16708W        W89122  10.691  36.865   3.822
16709W        W89123   8.361  27.032   3.311
16710W        W89124  41.830  37.055  12.851
16711W        W89125  17.621   3.795   1.228
16712W        W89126   0.756  24.160  14.482
16713W        W89127   2.907   8.232   3.321
16714W        W89128  11.743  19.276   4.153
16715W        W89129  14.706  18.226  12.379
16716W        W89130  29.468  39.844   1.872
16717W        W89131  13.168  23.089   1.423
16718W        W89132  26.073   6.214   4.700
16719W        W89133  30.506   4.314  10.898
16720W        W89134  40.967  36.097   0.313
16721W        W89135   2.295  41.007  14.984
16722W        W89136  36.946  10.365  14.469
16723W        W89137  41.377  20.633   2.341
16724W        W89138  37.478  26.566  11.386
16725W        W89139  29.532   7.912   3.190
16726W        W89140   9.221  19.653   4.695
16727W        W89141  26.485  38.437   2.308
16728W        W89142  10.776   2.326   2.344
16729W        W89143   1.738  17.274   4.703
16730W        W89144  41.383   0.918  14.408
16731W        W89145  24.134  34.385   3.259
16732W        W89146  21.519   2.422   2.674
16733W        W89147  11.805  36.407   3.831
16734W        W89148   7.337   0.958   3.327
16735W        W89149   7.903  27.050  14.426
16736W        W89150   6.252  33.441   0.880
16737W        W89151  37.966  40.323  12.826
16738W        W89152  44.434  42.901  12.525
16739W        W89153  11.345  41.991   3.269
16740W        W89154  36.844  21.022   2.383
16741W        W89155  33.382   2.360   4.288
16742W        W89156  24.622   8.221  11.544
16743W        W89157  39.828  40.009   3.867
16744W        W89158  15.183  31.995  10.954
16745W        W89159  35.005  34.449  11.413
16746W        W89160  12.295  43.007   1.926
16747W        W89161  32.988   5.895  10.604
16748W        W89162  42.430  21.515  10.459
16749W        W89163   1.316  43.884   2.689
16750W        W89164   8.798  28.648   0.304
16751W        W89165   2.826   7.253  13.315
16752W        W89166   8.722  35.922   4.129
16753W        W89167  14.712  41.798  13.876
16754W        W89168   8.713  34.063   3.666
16755W        W89169  15.674  27.658   2.779
16756W        W89170   5.768  33.933  13.460
16757W        W89171  34.420  39.361  11.032
16758W        W89172  15.100   5.299  10.554
16759W        W89173  37.924  38.354   1.730
16760W        W89174  30.031  22.227   1.935
16761W        W89175  41.965   2.416   4.212
16762W        W89176   5.256  11.344   4.256
16763W        W89177  22.623  41.924   3.212
16764W        W89178   6.229  14.637   3.786
16765W        W89179  16.108  38.874   1.926
16766W        W89180  22.051   1.856  12.355
16767W        W89181  11.721   6.250  14.355
16768W        W89182   2.830  39.878   5.209
16769W        W89183  18.069  13.795   4.774
16770W        W89184   0.392  29.159   0.431
16771W        W89185   5.193   8.807   0.937
16772W        W89186   4.829   4.879  13.311
16773W        W89187  16.307  20.593  14.443
16774W        W89188   1.961  33.985   4.743
16775W        W89189  15.667  21.633   4.756
16776W        W89190   0.374  34.021   3.839
16777W        W89191  35.468  30.163  13.846
16778W        W89192  31.130  37.060   4.354
16779W        W89193  15.327  23.165  13.038
16780W        W89194  17.271   0.292  14.501
16781W        W89195   7.890  13.701  10.927
16782W        W89196  10.854   7.380   1.241
16783W        W89197  26.522  44.259  10.556
16784W        W89198  29.020   0.274  13.482
16785W        W89199  20.204  27.525   0.338
16786W        W89200   5.410   9.803   1.736
16787W        W89201  24.136  38.566   3.372
16788W        W89202  44.973  12.659   1.919
16789W        W89203   2.886  18.147   2.245
16790W        W89204  35.579  10.367   9.929
16791W        W89205  14.783  25.712  14.876
16792W        W89206   8.285  11.792   4.140
16793W        W89207  43.330  42.023   2.358
16794W        W89208  31.959  25.004  14.957
16795W        W89209  12.717  13.286   1.313
16796W        W89210  30.129  25.982  12.956
16797W        W89211  14.722  40.797   2.688
16798W        W89212  26.489  20.641   1.215
16799W        W89213   4.873  33.033   4.254
16800W        W89214  12.211   3.881   4.288
16801W        W89215  41.997  38.502   3.870
16802W        W89216  19.190  11.179   0.312
16803W        W89217  26.545   1.359   0.963
16804W        W89218  15.735   2.769  11.868
16805W        W89219  38.956  32.561   2.671
16806W        W89220  39.957  25.151  12.396
16807W        W89221  19.694  12.222   2.854
16808W        W89222  12.154  14.121  14.893
16809W        W89223  16.811  21.243  10.538
16810W        W89224  34.540  42.820  13.948
16811W        W89225  24.135  37.860   3.273
16812W        W89226  26.539  43.938   9.621
16813W        W89227  15.727  23.216  12.850
16814W        W89228  26.466   5.924  11.114
16815W        W89229   0.872   0.767  12.964
16816W        W89230  41.812  37.515   3.306
16817W        W89231  10.866   4.416   1.425
16818W        W89232  35.067  30.933  13.961
16819W        W89233  10.832  26.032  12.493
16820W        W89234  22.651   1.414  11.955
16821W        W89235   7.902  29.110   3.383
16822W        W89236  27.627  25.071   1.856
16823W        W89237   5.774  21.613   3.234
16824W        W89238  30.526  41.467  12.986
16825W        W89239  35.870  33.081   5.088
16826W        W89240  31.926  38.518   0.447
16827W        W89241  32.019   4.769  14.326
16828W        W89242  30.105  41.905   2.760
16829W        W89243  19.622  36.410  13.870
16830W        W89244  36.911  21.254   2.767
16831W        W89245  33.576  28.623  12.505
16832W        W89246   6.403  42.339  11.436
16833W        W89247  17.709  19.656  12.986
16834W        W89248   0.302  32.463   3.701
16835W        W89249  36.912  30.458  13.036
16836W        W89250   4.250  27.461   1.386
16837W        W89251  37.539  16.797  14.467
16838W        W89252  25.000   9.317   2.716
16839W        W89253  35.366  32.633  14.341
16840W        W89254   1.904   9.668  13.986
16841W        W89255  10.877  29.496  13.808
16842W        W89256  11.296  26.641  13.880
16843W        W89257  27.941  27.950  13.434
16844W        W89258  38.861  15.184  10.611
16845W        W89259  33.471   4.940  12.543
16846W        W89260   6.366  24.143   4.717
16847W        W89261  31.057  32.077  12.885
16848W        W89262  12.139  41.365  11.871
16849W        W89263   8.739  41.498  10.948
16850W        W89264  34.056  19.117   0.877
16851W        W89265  19.201  32.514   0.957
16852W        W89266  32.917   6.711   3.267
16853W        W89267  31.633  33.061  11.048
16854W        W89268   9.361   7.845   2.741
16855W        W89269  32.416  40.840  12.479
16856W        W89270  38.543  21.519   3.712
16857W        W89271  31.410   8.301  11.471
16858W        W89272  22.533  42.907   2.669
16859W        W89273   6.911   1.372   3.670
16860W        W89274  31.437  12.611   4.727
16861W        W89275  42.500   0.302  10.615
16862W        W89276  40.394  42.490   2.900
16863W        W89277  20.241  32.570  10.574
16864W        W89278  31.645  37.041  12.855
16865W        W89279  21.586   0.372  13.398
16866W        W89280   7.394  26.526  13.996
16867W        W89281   2.813  44.892   2.251
16868W        W89282   2.308  17.204  11.484
16869W        W89283   0.360  29.481  11.894
16870W        W89284  12.801  31.955   2.340
16871W        W89285  35.573  30.000  10.529
16872W        W89286  23.716  11.332  11.061
16873W        W89287  34.499  34.483   2.341
16874W        W89288  38.961  23.226   0.422
16875W        W89289  29.021  11.146   0.444
16876W        W89290   7.208  20.176  14.905
16877W        W89291  25.086   2.837   0.459
16878W        W89292   6.183  20.585   1.899
16879W        W89293  38.433  35.551   1.867
16880W        W89294   1.863  17.719  13.828
16881W        W89295  11.315  43.321   3.223
16882W        W89296  34.437   5.902   0.778
16883W        W89297  40.846  23.621   4.733
16884W        W89298  43.404   8.832   2.221
16885W        W89299  23.694  25.205  14.335
16886W        W89300  32.917  16.279  12.841
16887W        W89301  23.237  19.202  10.537
16888W        W89302  12.322  22.056   2.807
16889W        W89303  40.896  29.986  12.364
16890W        W89304  29.169  32.594  10.629
16891W        W89305  34.583  16.779  14.024
16892W        W89306  37.960  40.332   1.259
16893W        W89307  11.218  26.700   4.833
16894W        W89308   9.732   6.714   4.289
16895W        W89309  21.257  17.181   3.186
16896W        W89310  33.523  15.719  11.000
16897W        W89311  17.739  37.002   3.306
16898W        W89312  28.621   7.727   3.841
16899W        W89313   2.396  41.310   1.708
16900W        W89314  19.755   0.914   2.417
16901W        W89315  26.642   2.421  12.556
16902W        W89316  29.434  14.321   3.207
16903W        W89317  17.106  19.636  12.396
16904W        W89318  25.624  13.754   3.354
16905W        W89319  23.210  40.536  10.994
16906W        W89320  22.242   0.329  13.545
16907W        W89321  44.937  12.167   1.335
16908W        W89322  38.399  24.010  11.969
16909W        W89323  28.009  12.694   1.245
16910W        W89324  16.254  24.542   3.694
16911W        W89325  35.035   9.649  13.042
16912W        W89326  27.075  15.796   0.401
16913W        W89327  21.128  37.971  13.946
16914W        W89328   7.864  16.137  14.385
16915W        W89329  26.521  44.771  10.596
16916W        W89330  42.863  19.724  12.889
16917W        W89331  10.235  15.292   0.464
16918W        W89332  29.536  20.761  13.445
16919W        W89333  14.208  42.381  13.542
16920W        W89334   1.364  30.127   4.763
16921W        W89335  13.820  27.539  13.376
16922W        W89336  19.739  31.503  14.457
16923W        W89337  44.366  18.669   0.958
16924W        W89338   7.416  32.478   4.275
16925W        W89339   1.433  33.882   4.264
16926W        W89340   5.298   9.357   3.673
16927W        W89341  35.912  17.767  11.025
16928W        W89342  39.544  27.539   0.386
16929W        W89343  27.149  26.092   1.287
16930W        W89344  14.683  23.030  12.412
16931W        W89345   5.387  29.016  14.513
16932W        W89346  24.096  25.104   1.423
16933W        W89347  26.156  31.633   0.315
16934W        W89348  22.680  36.955   0.370
16935W        W89349   0.789  39.004  12.002
16936W        W89350  27.976  22.044   1.919
16937W        W89351  29.430  24.495   2.201
16938W        W89352  35.399  41.831  11.083
16939W        W89353  28.157  20.732  12.866
16940W        W89354  14.681  21.571  14.505
16941W        W89355  44.974  35.419  11.997
16942W        W89356   7.872  44.282   1.298
16943W        W89357   6.417  34.486   0.853
16944W        W89358  29.140  42.824  13.036
16945W        W89359  44.260  23.033  14.930
16946W        W89360  16.593  26.496   0.419
16947W        W89361  12.327  24.705  11.953
16948W        W89362  40.910   6.807  12.097
16949W        W89363  36.541   0.784  13.022
16950W        W89364   5.819  38.883  11.924
16951W        W89365  11.675  15.239  12.960
16952W        W89366  40.894  20.669  12.395
16953W        W89367  35.855   4.225   2.820
16954W        W89368  16.720  14.251   0.876
16955W        W89369  28.474  41.339   4.117
16956W        W89370  37.831  36.893   0.893
16957W        W89371  22.093  32.107   2.871
16958W        W89372  27.505   8.373  14.999
16959W        W89373  16.634  26.567   2.846
16960W        W89374  37.416  17.275  10.617
16961W        W89375  37.879  39.919   0.895
16962W        W89376  39.854  35.032  11.864
16963W        W89377  24.640  22.228  11.101
16964W        W89378   3.453   4.387  14.970
16965W        W89379  11.145   7.408  14.918
16966W        W89380   2.793  11.252  10.448
16967W        W89381  12.164  42.451   2.315
16968W        W89382  13.627  36.369   0.925
16969W        W89383  13.294   6.315   1.334
16970W        W89384  16.254  29.589   2.336
16971W        W89385  19.608  29.638   1.926
16972W        W89386  34.049  39.435  13.472
16973W        W89387  38.513  20.247   3.146
16974W        W89388  40.513  32.988   2.345
16975W        W89389  33.926  27.173  10.925
16976W        W89390  40.335  44.470  12.447
16977W        W89391  30.421  29.940  13.456
16978W        W89392  25.609  29.977  13.361
16979W        W89393   7.831  21.644  12.364
16980W        W89394  13.290  38.003   4.118
16981W        W89395  14.190  36.440   3.632
16982W        W89396  32.574  31.045   3.829
16983W        W89397   1.928  40.505   3.301
16984W        W89398  24.565  28.151   2.835
16985W        W89399  22.508  38.564  12.388
16986W        W89400  22.098  22.741   2.294
16987W        W89401   4.262  18.265   2.372
16988W        W89402  32.032  12.787   0.852
16989W        W89403  30.032  34.089   4.224
16990W        W89404  42.028  34.414   3.824
16991W        W89405  26.085   1.415  10.036
16992W        W89406  20.524  24.157  14.425
16993W        W89407  42.468  12.767   4.741
16994W        W89408  27.952  23.685  12.499
16995W        W89409  21.095   3.352   0.823
16996W        W89410  10.760  32.554   3.668
16997W        W89411  12.322  37.994  12.872
16998W        W89412  24.196  40.467   1.782
16999W        W89413   1.826  36.571  11.553
17000W        W89414  24.641  42.290  11.384
17001W        W89415  32.427   5.826  13.964
17002W        W89416  17.211   5.702  14.900
17003W        W89417  44.845  23.122   4.717
17004W        W89418  10.639   5.201   1.398
17005W        W89419  25.218  29.616   4.209
17006W        W89420  41.382  10.219   0.397
17007W        W89421  44.268  39.896  12.851
17008W        W89422  37.062  44.862  12.467
17009W        W89423  37.459  34.021  13.872
17010W        W89424  11.208  34.400   3.332
17011W        W89425  13.177  14.810  11.402
17012W        W89426  10.335  24.152  12.376
17013W        W89427   2.869  44.381  14.304
17014W        W89428  38.463  41.929   0.762
17015W        W89429   1.237  38.978   3.688
17016W        W89430  25.493  26.632   4.338
17017W        W89431  40.468  43.016  14.305
17018W        W89432  29.476  18.269   2.312
17019W        W89433  11.683   1.855   5.094
17020W        W89434  37.066  34.070   3.300
17021W        W89435  38.391  17.252   0.459
17022W        W89436   8.223  29.146  14.424
17023W        W89437  34.555   4.857  11.412
17024W        W89438  10.362  34.591  12.027
17025W        W89439  38.462  36.472   1.780
17026W        W89440  12.141  20.159  14.395
17027W        W89441  31.109   7.383   3.670
17028W        W89442  12.660  34.956   4.298
17029W        W89443  29.015  18.121  13.546
17030W        W89444  23.568  20.188   1.385
17031W        W89445  17.130  12.293  12.455
17032W        W89446  17.745  25.529   0.292
17033W        W89447   6.747  36.575  13.862
17034W        W89448  25.036  37.850  13.359
17035W        W89449  11.197  37.977  11.021
17036W        W89450  25.116  20.731  10.552
17037W        W89451  28.109  10.326   0.309
17038W        W89452   8.766  36.040  12.373
17039W        W89453  35.569  14.606  12.344
17040W        W89454  43.305  30.023   3.662
17041W        W89455  36.942  33.918   0.274
17042W        W89456  23.555  24.623   0.836
17043W        W89457  13.794  39.503  12.510
17044W        W89458  14.787  44.362   4.146
17045W        W89459  13.697  28.076  12.091
17046W        W89460  20.098  29.498  12.977
17047W        W89461  37.447   7.198  14.493
17048W        W89462   2.238   3.880  11.512
17049W        W89463  43.910  14.246   4.167
17050W        W89464  13.116  21.538  12.862
17051W        W89465   4.294  38.013  11.856
17052W        W89466  19.218   6.771   3.262
17053W        W89467  21.682  22.186   3.347
17054W        W89468   0.360  11.838  12.513
17055W        W89469  22.719  19.166  12.364
17056W        W89470   4.830  17.748  14.347
17057W        W89471   3.743  15.171  12.895
17058W        W89472  39.884  28.084   4.699
17059W        W89473  24.082  23.526  14.979
17060W        W89474  27.107  40.533   4.133
17061W        W89475  12.726  28.663  14.452
17062W        W89476  14.657  10.147   2.405
17063W        W89477  39.321  34.447  13.514
17064W        W89478  17.686  24.723  12.910
17065W        W89479   0.949  39.811  10.975
17066W        W89480  33.583  11.657   3.175
17067W        W89481  14.339   2.353   3.161
17068W        W89482  31.473  43.399  11.429
17069W        W89483  42.960  40.988   1.320
17070W        W89484  39.466  37.925  11.992
17071W        W89485  40.037  20.239  11.541
17072W        W89486   4.851   9.833   0.748
17073W        W89487   3.849  39.383  12.540
17074W        W89488  41.533  41.958   1.697
17075W        W89489  44.960  15.731   1.753
17076W        W89490  27.533  30.926  13.800
17077W        W89491  42.800  30.474  13.909
17078W        W89492  44.797  30.140  10.986
17079W        W89493  40.337   4.358   2.887
17080W        W89494  10.328  42.796  12.014
17081W        W89495  42.517  32.634  10.991
17082W        W89496  18.183  32.093  14.821
17083W        W89497   4.417  38.832   4.732
17084W        W89498  29.490  44.820   4.330
17085W        W89499  27.637  40.498  14.770
17086W        W89500  21.597  39.867  12.368
17087W        W89501   0.397  25.202   4.177
17088W        W89502  11.331   8.176   2.714
17089W        W89503  15.295   2.810   1.916
17090W        W89504  36.073  14.802  11.078
17091W        W89505  36.500   2.471  13.947
17092W        W89506  19.174  20.734  12.388
17093W        W89507   3.403  33.932   4.624
17094W        W89508   0.988  21.251  11.071
17095W        W89509  34.892   8.744   0.800
17096W        W89510  29.061  29.128   4.661
17097W        W89511  35.082  11.679  11.867
17098W        W89512  29.482   5.301  11.384
17099W        W89513  40.319   3.793   1.915
17100W        W89514  22.170  17.188   5.192
17101W        W89515  26.558  27.010  11.125
17102W        W89516  34.957  12.722   0.332
17103W        W89517   6.711  24.664   1.928
17104W        W89518  30.561  16.141   1.347
17105W        W89519   1.810  42.328  11.868
17106W        W89520   6.776   1.279  11.012
17107W        W89521  44.837  25.038  14.370
17108W        W89522  30.657  10.752   3.685
17109W        W89523  27.955  27.163  10.130
17110W        W89524  38.879  14.602   3.639
17111W        W89525  36.091   6.406   4.773
17112W        W89526   4.756  15.790  10.060
17113W        W89527  31.138  37.080  14.922
17114W        W89528   6.797   1.864  13.843
17115W        W89529  19.544   1.288   3.774
17116W        W89530   4.717  35.853   3.681
17117W        W89531  23.491  25.540   3.237
17118W        W89532  22.230  20.266  11.468
17119W        W89533  36.553  38.878  14.949
17120W        W89534   5.251  26.466   2.307
17121W        W89535  36.913  22.539  11.930
17122W        W89536  10.378  35.097   1.834
17123W        W89537  15.204  34.091   0.946
17124W        W89538  41.877  24.575  12.873
17125W        W89539  32.406   1.885  13.037
17126W        W89540   0.897  16.174  14.509
17127W        W89541  41.877  28.034  14.471
17128W        W89542  15.614  26.051   1.445
17129W        W89543  25.696   1.372  12.574
17130W        W89544  22.507   4.405  10.016
17131W        W89545  34.449  23.560   0.741
17132W        W89546  10.663  28.632   1.724
17133W        W89547   0.938  26.026  13.825
17134W        W89548  38.973   8.892   2.193
17135W        W89549  23.709  13.832   3.815
17136W        W89550   1.892  33.075  13.012
17137W        W89551  17.597   5.315  14.775
17138W        W89552  34.418  43.771   0.482
17139W        W89553  10.712  27.502   1.258
17140W        W89554  22.182  15.755  11.979
17141W        W89555   5.278   6.750  13.883
17142W        W89556  16.627   8.707   2.757
17143W        W89557  20.070  16.176  11.925
17144W        W89558   5.897  39.322   1.322
17145W        W89559  22.630  42.884   1.298
17146W        W89560  32.522  40.998  12.075
17147W        W89561   1.842  11.767   2.678
17148W        W89562  42.820  35.367  11.875
17149W        W89563  36.375  19.740   1.769
17150W        W89564   0.471  29.161  10.948
17151W        W89565   5.700  19.054  13.511
17152W        W89566  43.367  38.050  12.957
17153W        W89567   5.831  19.257  14.355
17154W        W89568  18.588  21.555   1.306
17155W        W89569  24.714   1.843   5.181
17156W        W89570  22.170   6.765   2.703
17157W        W89571  12.611  32.983   1.250
17158W        W89572  32.055   0.418  10.509
17159W        W89573  31.054  22.577   4.668
17160W        W89574  18.750  23.237   0.474
17161W        W89575  39.471  19.056  13.428
17162W        W89576   1.391  39.861   2.243
17163W        W89577  13.777  25.087   4.810
17164W        W89578  34.020  40.864  13.544
17165W        W89579  17.181  14.191   9.949
17166W        W89580  32.520  43.019  10.996
17167W        W89581  31.927  11.300  10.088
17168W        W89582  43.298   7.354  11.101
17169W        W89583  41.964  10.264  10.001
17170W        W89584  33.541  34.466   2.297
17171W        W89585  38.353   2.905   3.711
17172W        W89586  19.719  33.412  11.969
17173W        W89587   9.307   0.840  10.934
17174W        W89588  13.808  12.313   2.883
17175W        W89589   6.346  19.146   4.229
17176W        W89590  38.501  40.378   1.742
17177W        W89591  13.642  20.656  11.019
17178W        W89592  36.553   5.364  11.034
17179W        W89593  15.177  30.521  14.447
17180W        W89594   6.318  19.748   4.609
17181W        W89595  33.109  13.808  10.898
17182W        W89596   6.406  44.273  13.476
17183W        W89597  24.211  31.992   4.206
17184W        W89598  15.813   5.429  11.108
17185W        W89599  12.813   2.856   0.388
17186W        W89600  23.723  32.899  11.034
17187W        W89601  10.754  34.953   2.810
17188W        W89602  40.948  40.931   1.246
17189W        W89603  11.634  14.333   2.246
17190W        W89604  21.596  18.586  12.939
17191W        W89605  28.654   3.726  13.391
17192W        W89606  31.901   7.370   3.758
17193W        W89607   6.242  32.403  13.954
17194W        W89608  43.009  14.668  14.975
17195W        W89609  41.900  25.541   4.190
17196W        W89610  30.579  40.493  12.913
17197W        W89611  19.701  12.848   4.694
17198W        W89612  13.283  10.684   3.183
17199W        W89613  12.135  27.677  14.364
17200W        W89614  35.381   3.403  14.831
17201W        W89615  12.733  40.045  12.855
17202W        W89616  27.509  18.668  14.802
17203W        W89617   6.225   7.835   1.373
17204W        W89618   9.299  15.116  12.837
17205W        W89619  19.653  42.291  10.586
17206W        W89620  36.537  16.315   4.114
17207W        W89621  31.976  16.318   3.709
17208W        W89622  39.991  40.802  13.951
17209W        W89623  33.429   0.294   0.862
17210W        W89624  19.115  29.160   4.197
17211W        W89625  17.299  43.271   4.266
17212W        W89626  34.542  30.413  13.518
17213W        W89627  31.506  44.276  14.422
17214W        W89628   9.181  35.382   4.178
17215W        W89629  38.422  19.572   4.733
17216W        W89630  32.087  14.276  14.900
17217W        W89631  40.364  38.044  13.452
17218W        W89632   6.799  17.772  11.886
17219W        W89633  34.956  33.387   2.884
17220W        W89634  37.086  11.714  13.477
17221W        W89635  22.235  18.754  12.556
17222W        W89636   8.242   7.277   2.376
17223W        W89637   4.794  27.588   5.183
17224W        W89638  13.260  42.498   4.287
17225W        W89639   5.253   3.883   0.953
17226W        W89640  41.041  13.803  11.025
17227W        W89641  20.711  42.408  12.856
17228W        W89642  24.537  22.237  12.485
17229W        W89643  17.795  29.966  14.918
17230W        W89644  42.450   0.818  11.013
17231W        W89645  25.005   0.914  13.381
17232W        W89646  40.927  27.092  11.531
17233W        W89647  38.987  13.119   3.278
17234W        W89648  29.011  28.986   4.278
17235W        W89649  19.676  10.715   1.329
17236W        W89650  25.155  13.107   2.274
17237W        W89651  32.449  18.148   0.835
17238W        W89652  14.833  17.209   2.262
17239W        W89653   8.357   0.297  11.482
17240W        W89654  23.024  17.084  12.574
17241W        W89655   6.766  12.339  13.929
17242W        W89656  32.108  31.402  11.408
17243W        W89657  14.248  22.055  14.847
17244W        W89658   7.681  14.670   1.881
17245W        W89659  14.146  39.379  11.585
17246W        W89660   0.332   9.226  12.870
17247W        W89661  25.569  27.135   2.771
17248W        W89662  34.610  38.425   1.885
17249W        W89663   7.706  34.067  12.038
17250W        W89664  37.896  12.700  12.068
17251W        W89665  15.142  44.773   3.286
17252W        W89666   6.297   8.713  13.943
17253W        W89667  32.993  15.308   0.341
17254W        W89668  35.957   5.365  12.531
17255W        W89669  12.701  41.376   2.244
17256W        W89670  38.329  23.714   3.695
17257W        W89671   4.301   6.861  13.040
17258W        W89672  43.990  44.866   4.778
17259W        W89673  43.844  40.933   3.320
17260W        W89674  13.276  28.109  12.995
17261W        W89675  24.034  10.682  14.387
17262W        W89676   9.289  10.812   3.302
17263W        W89677  32.608  35.550  11.965
17264W        W89678  37.924  15.124  13.936
17265W        W89679  23.005  44.293   2.343
17266W        W89680  27.506  39.916   4.138
17267W        W89681  14.695   3.801  12.502
17268W        W89682   7.670  41.407   5.283
17269W        W89683  32.560  43.940  14.373
17270W        W89684   3.826  25.550   5.097
17271W        W89685  43.930  38.945  11.611
17272W        W89686  30.415  15.695   3.347
17273W        W89687  40.521  11.660   0.318
17274W        W89688  18.105   5.250   0.788
17275W        W89689  17.672   5.888   0.932
17276W        W89690   2.374  10.713  10.896
17277W        W89691  37.956  11.639   0.821
17278W        W89692  27.661  23.989   2.898
17279W        W89693   9.285  16.179  13.438
17280W        W89694  20.611  33.594   0.889
17281W        W89695   8.273  21.067  13.961
17282W        W89696  38.976  22.693  11.545
17283W        W89697  24.574  37.496   4.235
17284W        W89698  23.729  34.945  11.089
17285W        W89699  23.192  36.058  12.493
17286W        W89700  33.096   2.792   0.770
17287W        W89701  10.180  36.440  11.896
17288W        W89702  29.173   9.252   4.257
17289W        W89703  23.680  31.965   4.133
17290W        W89704   2.938  29.047  10.941
17291W        W89705   5.325  24.195  13.471
17292W        W89706  35.939  42.958  14.496
17293W        W89707   0.754  42.472  11.967
17294W        W89708  40.400  30.556  12.918
17295W        W89709  18.092   4.744   3.830
17296W        W89710  14.630  39.515   4.300
17297W        W89711   1.261  44.975   2.841
17298W        W89712  25.077  35.066  13.326
17299W        W89713  36.484  13.630   3.309
17300W        W89714  30.912  27.047   2.300
17301W        W89715   4.752  26.552   1.399
17302W        W89716  43.858  42.906   4.294
17303W        W89717   9.692   8.736   2.198
17304W        W89718  41.304  23.133   1.286
17305W        W89719  24.004   6.775  11.111
17306W        W89720  18.716  36.915  14.011
17307W        W89721  43.780  43.784  14.902
17308W        W89722  35.572  43.799   2.416
17309W        W89723  39.517  14.139   5.306
17310W        W89724  13.275  42.340  12.035
17311W        W89725  23.537  10.716  14.283
17312W        W89726  15.723  38.988   4.760
17313W        W89727  42.375   4.317  12.539
17314W        W89728  14.122  37.581   2.224
17315W        W89729  44.270   9.833   0.749
17316W        W89730  23.999   0.792   0.374
17317W        W89731  39.331  15.724  13.040
17318W        W89732  29.644  34.447  13.405
17319W        W89733  31.561  44.409  12.059
17320W        W89734   1.915  23.161   3.251
17321W        W89735  40.019   2.760  10.459
17322W        W89736  16.611  43.936   2.770
17323W        W89737  21.068  33.928   0.789
17324W        W89738   4.240  38.353  12.440
17325W        W89739  29.955   2.940   3.221
17326W        W89740   2.730  29.101  12.449
17327W        W89741  25.562   3.741   0.770
17328W        W89742  10.352  20.261  12.467
17329W        W89743  16.605  39.045   2.239
17330W        W89744  12.182   4.220   0.733
17331W        W89745  36.372  35.425   2.811
17332W        W89746  43.304  10.697  10.935
17333W        W89747  42.504  34.474  14.450
17334W        W89748  18.645  12.770  13.463
17335W        W89749  44.963  28.487   2.777
17336W        W89750  21.724  33.060  12.824
17337W        W89751  38.463  22.029  10.431
17338W        W89752  40.484  42.462  13.323
17339W        W89753   2.392  41.926  11.079
17340W        W89754  17.228  44.395  12.401
17341W        W89755  33.428   8.728   2.743
17342W        W89756  25.187   3.302  13.409
17343W        W89757  15.201   9.865   0.349
17344W        W89758   0.801  44.898  12.963
17345W        W89759  15.819  33.595   4.636
17346W        W89760  13.200   0.978  10.565
17347W        W89761  23.597  38.944  10.898
17348W        W89762  42.029  21.193   0.744
17349W        W89763  33.986   6.835  13.463
17350W        W89764  22.112  36.472  11.031
17351W        W89765   2.301  35.465  11.010
17352W        W89766  28.538  21.617  11.554
17353W        W89767  28.649  38.831   4.680
17354W        W89768  18.560  41.357   2.662
17355W        W89769  22.133  38.407   0.389
17356W        W89770  26.545  30.441   4.178
17357W        W89771  35.598   9.710   1.816
17358W        W89772   6.782  21.698  12.014
17359W        W89773  16.292  32.560  10.963
17360W        W89774  16.637   9.332  14.438
17361W        W89775  41.030   7.804   0.463
17362W        W89776   4.806  12.355  14.856
17363W        W89777  17.144  34.424  11.990
17364W        W89778   3.915  18.202   3.300
17365W        W89779  34.569  21.090   1.813
17366W        W89780  11.289  39.872  10.490
17367W        W89781  19.246  12.631   0.800
17368W        W89782   4.772   6.795   0.441
17369W        W89783  44.338  33.987  13.512
17370W        W89784  14.184  43.003   0.898
17371W        W89785  34.995  43.477  11.471
17372W        W89786  33.509  10.236   9.973
17373W        W89787   4.708  18.714   2.883
17374W        W89788  24.117  30.619  12.852
17375W        W89789  17.563  33.950  11.513
17376W        W89790   8.172  39.470  14.943
17377W        W89791  43.931  25.555   2.703
17378W        W89792  42.846  36.551  13.344
17379W        W89793  23.011  31.423   4.285
17380W        W89794  22.247  10.684  14.367
17381W        W89795  27.080  43.899  10.991
17382W        W89796  40.834  31.906  12.947
17383W        W89797   5.266  41.795  12.083
17384W        W89798  30.937  27.046   2.772
17385W        W89799   5.825  17.306   4.678
17386W        W89800  20.084  17.274   0.410
17387W        W89801  36.523  24.062   4.265
17388W        W89802  11.817  40.415  14.973
17389W        W89803  41.302   3.931  11.488
17390W        W89804  26.085  25.547  10.470
17391W        W89805  33.561   8.680   2.214
17392W        W89806  32.957   2.367   3.246
17393W        W89807  19.661  43.333   2.850
17394W        W89808  39.547   4.312   4.228
17395W        W89809  16.255   0.784   1.754
17396W        W89810  17.787  34.938  12.517
17397W        W89811  27.970  34.451  12.348
17398W        W89812  18.666  12.345  14.494
17399W        W89813  27.575  24.052   3.859
17400W        W89814   9.243   0.916   1.805
17401W        W89815  36.386  29.495  14.286
17402W        W89816  30.099  27.041  10.961
17403W        W89817   1.455  12.790   0.954
17404W        W89818  21.752   1.395   4.140
17405W        W89819  33.472  23.228  11.407
17406W        W89820  25.002  26.565  13.055
17407W        W89821  39.421  24.210  11.876
17408W        W89822  36.928   9.346  14.938
17409W        W89823  25.708  13.701  14.397
17410W        W89824  30.035   5.902  11.961
17411W        W89825  16.703  37.352   2.268
17412W        W89826  17.115  25.487  12.943
17413W        W89827  42.863   6.915  11.956
17414W        W89828   9.261   2.404  11.037
17415W        W89829  12.263  26.073  13.052
17416W        W89830  24.533  20.711  12.925
17417W        W89831  12.634  38.339  13.812
17418W        W89832  13.756  33.520  11.381
17419W        W89833  19.553   7.318  11.594
17420W        W89834  44.978  21.067   3.677
17421W        W89835  27.535  34.929  10.969
17422W        W89836  16.203  42.832  11.495
17423W        W89837  27.130  20.529  12.467
17424W        W89838  33.527  40.991  12.528
17425W        W89839   1.952   5.298   1.257
17426W        W89840  19.170  43.320   3.242
17427W        W89841  33.021  40.480   1.850
17428W        W89842  43.338   1.451   0.351
17429W        W89843  31.941  17.168   4.123
17430W        W89844  41.437  43.928  12.038
17431W        W89845   8.843  10.191   3.768
17432W        W89846  44.760  41.359   2.246
17433W        W89847  25.700  31.512   2.372
17434W        W89848   8.335  23.600  14.350
17435W        W89849   7.667   9.752   3.325
17436W        W89850  30.450  11.728   4.725
17437W        W89851  17.766  26.059   0.757
17438W        W89852  12.799   4.792  13.422
17439W        W89853   0.458  28.053  10.460
17440W        W89854  33.942   8.365   4.213
17441W        W89855  35.993   1.854   0.958
17442W        W89856  20.066  24.501   1.274
17443W        W89857  33.023  28.473  13.387
17444W        W89858  34.399  30.077  10.512
17445W        W89859  15.299  37.540  11.031
17446W        W89860  23.491  35.421  11.116
17447W        W89861   5.728  20.142   2.726
17448W        W89862  18.789   3.311  13.976
17449W        W89863   8.376   8.377  10.917
17450W        W89864  26.050  24.155   0.325
17451W        W89865  40.886  44.260  13.807
17452W        W89866  36.592  36.356   0.815
17453W        W89867  13.792  22.159   1.719
17454W        W89868  41.296  21.055  14.424
17455W        W89869  16.683   4.363  10.468
17456W        W89870  21.734   5.355   0.286
17457W        W89871   1.381  23.206  13.005
17458W        W89872  38.892  13.260  14.789
17459W        W89873  32.570  16.182  12.911
17460W        W89874  34.411   9.666   4.836
17461W        W89875  18.672  29.112  12.927
17462W        W89876  37.854   4.786  12.992
17463W        W89877  19.227   0.762  12.369
17464W        W89878  38.564  29.921  11.038
17465W        W89879   6.283  43.896   2.826
17466W        W89880  36.489  34.939   4.160
17467W        W89881  23.095   1.332  14.936
17468W        W89882  32.098  14.138  14.291
17469W        W89883  32.998  12.232   4.283
17470W        W89884  26.123  10.649   1.796
17471W        W89885  43.955  29.456   2.782
17472W        W89886  39.464  12.679   5.197
17473W        W89887  29.664   9.809   3.659
17474W        W89888  42.828   9.738  14.387
17475W        W89889  18.197   9.282   3.631
17476W        W89890  29.661  11.742  13.479
17477W        W89891  33.078  44.263  12.972
17478W        W89892  11.669  23.053   0.403
17479W        W89893  23.147  19.754  14.276
17480W        W89894  32.047  35.590  10.955
17481W        W89895  13.106  35.045   1.831
17482W        W89896  36.518  25.499   1.924
17483W        W89897  16.804  17.706  10.940
17484W        W89898  20.768   5.380  13.990
17485W        W89899   0.765  20.644  13.833
17486W        W89900  40.849  18.240  10.516
17487W        W89901  22.209  16.307   1.372
17488W        W89902   5.692   7.297   3.157
17489W        W89903  18.111   9.358   3.337
17490W        W89904  14.709   5.314   1.238
17491W        W89905   3.939  43.463  14.498
17492W        W89906   7.739  13.682   4.667
17493W        W89907  36.023  39.812  12.923
17494W        W89908   5.242  11.277  13.885
17495W        W89909  22.590   7.333  11.490
17496W        W89910   2.455  12.145  11.957
17497W        W89911   4.290  16.784   1.746
17498W        W89912  14.141  19.122  11.016
17499W        W89913  11.314   5.412   2.310
17500W        W89914  17.766   6.292   3.702
17501W        W89915  40.002  38.453  13.414
17502W        W89916  18.674  32.615  11.601
17503W        W89917  16.737  38.977   3.161
17504W        W89918   2.804  13.689   1.925
17505W        W89919  18.209  26.096  12.536
17506W        W89920  39.877  29.654   3.708
17507W        W89921  39.857  30.441  12.378
17508W        W89922  40.509  29.993  12.034
17509W        W89923  17.230   9.206  11.535
17510W        W89924  43.963  30.546   4.772
17511W        W89925  25.668  19.117  13.974
17512W        W89926  12.791  30.938  10.591
17513W        W89927  10.242  22.049   1.911
17514W        W89928   5.272  17.161  12.549
17515W        W89929  32.994  40.446   4.821
17516W        W89930  30.149   9.170   4.635
17517W        W89931  30.982  31.930  10.602
17518W        W89932  19.763   1.895  14.902
17519W        W89933   8.669  35.974   0.276
17520W        W89934  40.030  10.141  14.771
17521W        W89935   4.898  26.571   4.646
17522W        W89936   4.867  12.857  10.529
17523W        W89937  28.680  21.028  13.984
17524W        W89938   4.799  31.070   1.916
17525W        W89939   9.340  16.751   4.829
17526W        W89940  16.245  43.011  13.322
17527W        W89941  14.769  24.636   4.227
17528W        W89942  28.593  14.328   4.310
17529W        W89943   8.728  30.450   1.411
17530W        W89944  42.333  36.581   3.750
17531W        W89945  16.669  23.727  11.578
17532W        W89946   4.869   1.844   4.140
17533W        W89947   2.273  40.494   1.403
17534W        W89948  27.488  37.361   2.816
17535W        W89949   9.351  40.807   4.240
17536W        W89950  34.512  42.961  10.941
17537W        W89951  26.602   6.349  12.369
17538W        W89952   3.367   9.175   3.198
17539W        W89953  35.936  40.311  12.515
17540W        W89954   3.390   1.438  11.441
17541W        W89955  29.969  11.157  11.453
17542W        W89956  27.964  38.894  14.878
17543W        W89957  12.807   8.657   5.614
17544W        W89958  27.080  34.022  12.532
17545W        W89959  21.209  16.687  14.007
17546W        W89960  11.668   5.227   4.234
17547W        W89961  27.656   0.789   0.782
17548W        W89962  23.110  23.175  10.977
17549W        W89963  31.055  33.050  11.549
17550W        W89964  17.287  25.013   0.458
17551W        W89965  26.970  28.497  11.494
17552W        W89966  12.710   3.341  13.900
17553W        W89967   1.483  42.481   1.903
17554W        W89968   1.291   6.793   1.732
17555W        W89969  38.368  23.095   4.144
17556W        W89970   1.444  38.837  14.320
17557W        W89971  20.524   1.441  12.859
17558W        W89972  19.591  26.602  10.936
17559W        W89973  40.003  16.166   4.684
17560W        W89974   4.364  42.484  10.606
17561W        W89975   4.222  24.640  11.981
17562W        W89976  27.012  16.247   4.643
17563W        W89977   6.827  11.295  11.392
17564W        W89978  44.929  11.132   1.842
17565W        W89979  35.604   7.822   4.175
17566W        W89980  25.655  16.221   4.741
17567W        W89981  40.963   6.268   1.221
17568W        W89982  42.450  19.108   2.741
17569W        W89983   2.415  16.166   3.345
17570W        W89984  37.422  12.687  14.421
17571W        W89985   6.902  42.506  11.415
17572W        W89986  25.507  33.494  14.937
17573W        W89987  42.828  31.584   3.266
17574W        W89988  10.726   6.711  11.121
17575W        W89989  16.262   4.901   1.449
17576W        W89990  39.930  42.951   3.836
17577W        W89991  40.315  40.923   4.709
17578W        W89992   5.407  43.791  13.310
17579W        W89993  20.181  44.951   0.308
17580W        W89994  24.616  27.008  12.976
17581W        W89995  24.531  22.019   0.873
17582W        W89996  30.460   7.410   4.306
17583W        W89997   7.849  18.170  14.465
17584W        W89998  22.191   9.328   2.245
17585W        W89999  13.296  14.678  14.417
17586W        W90000  10.759  13.119  11.857
17587W        W90001  26.134  14.787  10.516
17588W        W90002  36.448   8.725   3.760
17589W        W90003  40.428  41.023  12.915
17590W        W90004  35.453  18.119  10.496
17591W        W90005  40.864   7.812  10.414
17592W        W90006  40.981   2.385  12.030
17593W        W90007  17.287   6.834   1.371
17594W        W90008  22.249  10.194   3.693
17595W        W90009  34.930   0.957  14.392
17596W        W90010  44.385  24.723  13.545
17597W        W90011  29.141  14.595  12.434
17598W        W90012  28.183  26.145   1.299
17599W        W90013  44.990   3.892  14.985
17600W        W90014  15.685  41.367   4.653
17601W        W90015  17.766  40.870  12.528
17602W        W90016  10.695  13.139  11.098
17603W        W90017  16.221   5.894  11.404
17604W        W90018  32.541  25.998   2.768
17605W        W90019  20.749  18.121   0.757
17606W        W90020   6.690  24.076   4.653
17607W        W90021  20.075   0.317   9.488
17608W        W90022  11.172  38.005   4.116
17609W        W90023   4.221  19.089  13.381
17610W        W90024  23.528   6.704  10.611
17611W        W90025  35.409  36.862   4.173
17612W        W90026   8.174  19.177  11.962
17613W        W90027   9.310  30.142   2.727
17614W        W90028  22.510  39.033  14.908
17615W        W90029  32.541  14.677   0.302
17616W        W90030  42.381  43.792  14.821
17617W        W90031  37.341  19.068   2.308
17618W        W90032  39.985  25.590   4.129
17619W        W90033  40.006  18.685  13.514
17620W        W90034  23.198  39.313  11.580
17621W        W90035  33.067  24.577  11.920
17622W        W90036  40.979  34.405   4.139
17623W        W90037  22.595  17.587  14.292
17624W        W90038   6.866  15.649   4.655
17625W        W90039  10.814   1.757   0.746
17626W        W90040  12.307  11.621   1.748
17627W        W90041  39.417  24.598   4.195
17628W        W90042  42.488   6.699  12.900
17629W        W90043  38.488   0.483   1.916
17630W        W90044  39.928  30.087  11.920
17631W        W90045  33.062   0.884  12.374
17632W        W90046  14.119  32.513   4.787
17633W        W90047  33.081  30.556   1.775
17634W        W90048  30.649  43.782  11.476
17635W        W90049   7.380  34.900   0.430
17636W        W90050   4.359  31.540   2.787
17637W        W90051   4.746   2.912  12.528
17638W        W90052  34.445  36.406  12.918
17639W        W90053  10.854  41.338  14.943
17640W        W90054  35.358  25.711   0.841
17641W        W90055  19.617  20.263   1.929
17642W        W90056  34.469  32.524  11.384
17643W        W90057  42.309   4.788   2.335
17644W        W90058  19.045  12.706  10.541
17645W        W90059  19.588  27.140  14.841
17646W        W90060   0.818  23.175  12.535
17647W        W90061  10.273  22.531   1.273
17648W        W90062  34.370  32.086  13.919
17649W        W90063   4.448  16.601  13.838
17650W        W90064  22.066  30.061  14.384
17651W        W90065  10.727  22.090  13.466
17652W        W90066  17.163   5.290  14.367
17653W        W90067  16.667  28.468  13.889
17654W        W90068  11.149  29.982  10.984
17655W        W90069  12.213  28.640   1.827
17656W        W90070  10.206  12.833  14.386
17657W        W90071  16.137  17.766   2.898
17658W        W90072  13.629   8.789  13.042
17659W        W90073  10.270  30.065   1.283
17660W        W90074  26.104  22.251  12.828
17661W        W90075  40.377  39.862  14.377
17662W        W90076   9.732  30.945   0.931
17663W        W90077  16.234  27.582   2.206
17664W        W90078   5.296  39.468  11.606
17665W        W90079  21.139  20.531  13.942
17666W        W90080   9.314  29.164  11.415
17667W        W90081   4.434  42.289  14.512
17668W        W90082  27.163  35.876  14.431
17669W        W90083  23.692  22.181   1.916
17670W        W90084  25.713  43.012   0.451
17671W        W90085  25.037   5.830  14.284
17672W        W90086  42.963  42.397  13.409
17673W        W90087  12.140  21.681  12.575
17674W        W90088  40.447  33.927   3.343
17675W        W90089   7.815  18.188  14.824
17676W        W90090   5.439  12.261   2.316
17677W        W90091  21.252   5.905   4.702
17678W        W90092  30.956  34.900   2.747
17679W        W90093  36.925  22.146   0.476
17680W        W90094  36.014  38.372   3.258
17681W        W90095  17.138  25.710  13.956
17682W        W90096  24.148  19.218  14.905
17683W        W90097  23.036  27.594  13.477
17684W        W90098  12.689   1.330  12.547
17685W        W90099  39.315  39.920   1.227
17686W        W90100   9.672  20.550   0.733
17687W        W90101  23.107   2.353   2.295
17688W        W90102   7.730  27.453   4.774
17689W        W90103  38.962  19.756  11.391
17690W        W90104  26.647  27.644   1.352
17691W        W90105  33.058  30.151  12.523
17692W        W90106  10.808  34.035  12.947
17693W        W90107  24.213  43.910  12.444
17694W        W90108   9.230  41.331  10.888
17695W        W90109  14.673  13.337   3.706
17696W        W90110   3.738  39.326   1.851
17697W        W90111  24.973  18.075   1.866
17698W        W90112  17.081  36.973   4.155
17699W        W90113  25.509  13.243  10.613
17700W        W90114  17.137  24.545  12.961
17701W        W90115  34.457  35.586  13.336
17702W        W90116  13.779  26.066   3.352
17703W        W90117  21.035  20.687   3.297
17704W        W90118  35.378  18.061   1.427
17705W        W90119  40.051  13.805   1.931
17706W        W90120  39.545  16.750  11.448
17707W        W90121  29.631  39.352  10.626
17708W        W90122   1.310  44.278   1.806
17709W        W90123  17.742   1.878  14.393
17710W        W90124  21.178  13.841  12.935
17711W        W90125  43.438  30.500  11.929
17712W        W90126   9.837  35.385   2.846
17713W        W90127  31.921  38.541   0.933
17714W        W90128  23.192  18.578   2.876
17715W        W90129  33.024  11.366   2.688
17716W        W90130  25.055   0.416  13.535
17717W        W90131  34.070  22.745   5.117
17718W        W90132  42.934  29.926   0.727
17719W        W90133   0.874  18.170   2.801
17720W        W90134  21.120  13.740  14.429
17721W        W90135  40.800  41.912   2.415
17722W        W90136  36.462   6.253   4.182
17723W        W90137  26.597  31.536  13.374
17724W        W90138   5.217  23.582  12.027
17725W        W90139  39.811  26.962  14.422
17726W        W90140  41.293  32.456   0.377
17727W        W90141  18.232  20.044  11.119
17728W        W90142  22.697  25.040   1.729
17729W        W90143  25.554   0.770  11.596
17730W        W90144  39.465  22.125   4.635
17731W        W90145   1.267   0.311   4.190
17732W        W90146  10.287   8.359   4.211
17733W        W90147   3.717  14.296   2.865
17734W        W90148  42.502  24.695   0.475
17735W        W90149  16.173   6.796   5.126
17736W        W90150   9.176  25.035   3.690
17737W        W90151  43.004  35.391   0.369
17738W        W90152  41.817  16.575  11.583
17739W        W90153  31.010  32.399  11.089
17740W        W90154  33.556  42.929  11.510
17741W        W90155  25.573  11.662   4.260
17742W        W90156  18.592  36.978   2.690
17743W        W90157  12.326  34.420   1.283
17744W        W90158  28.034  12.707   3.340
17745W        W90159  41.360  29.015   4.288
17746W        W90160  31.054   8.385   1.713
17747W        W90161  10.701  39.491   4.142
17748W        W90162  32.037  44.480   4.777
17749W        W90163  16.302  24.102  10.533
17750W        W90164  26.065  27.459   4.643
17751W        W90165  28.591  25.214  12.521
17752W        W90166   1.841  22.187   0.947
17753W        W90167  28.651  37.407   1.231
17754W        W90168  18.279  21.182  14.991
17755W        W90169  28.435  13.678  14.874
17756W        W90170  10.268  19.276  11.862
17757W        W90171  36.879  11.626  10.553
17758W        W90172  32.908  24.665   0.310
17759W        W90173  20.161   3.723  14.490
17760W        W90174  18.099  32.594   1.862
17761W        W90175  33.965  27.447   2.285
17762W        W90176   8.661  43.390   4.255
17763W        W90177  38.554   4.444   0.450
17764W        W90178   4.407  16.576   2.827
17765W        W90179   2.721   3.892  12.022
17766W        W90180  28.523  18.640   0.396
17767W        W90181  41.388  22.015   3.718
17768W        W90182  14.625  15.667   4.835
17769W        W90183  22.018   2.952  10.979
17770W        W90184   5.257  13.763  10.983
17771W        W90185   4.837  43.895   0.899
17772W        W90186  19.620  19.703  11.080
17773W        W90187   1.854  32.430  11.916
17774W        W90188  10.832  30.157   3.216
17775W        W90189  32.069  28.097   1.695
17776W        W90190  42.296  20.235   2.204
17777W        W90191  44.502   5.795   3.734
17778W        W90192  34.515   2.432   4.281
17779W        W90193  40.523   3.426  14.878
17780W        W90194  39.921   3.294   3.812
17781W        W90195  28.437   1.382  11.125
17782W        W90196  18.066  23.694   2.180
17783W        W90197  43.807  27.095  14.878
17784W        W90198   4.221  23.139  11.968
17785W        W90199  29.983  14.219   3.378
17786W        W90200   8.843  19.074  13.928
17787W        W90201  21.570  10.380   4.202
17788W        W90202  20.236  26.536  11.553
17789W        W90203  23.643  32.013  11.929
17790W        W90204  38.067  27.953  11.974
17791W        W90205  32.614  15.141  13.444
17792W        W90206  39.329  37.063   1.892
17793W        W90207  15.156   7.688  11.510
17794W        W90208  36.964  29.036  10.615
17795W        W90209  28.477  43.995  13.943
17796W        W90210   0.286   9.650  13.960
17797W        W90211  27.090  26.657   2.693
17798W        W90212  17.743   7.884   1.440
17799W        W90213   8.222  25.219  13.061
17800W        W90214  16.168  10.294  10.572
17801W        W90215  18.262  18.075  13.838
17802W        W90216  29.042  12.853  10.572
17803W        W90217  36.978  24.703   3.787
17804W        W90218  43.011   1.237  14.482
17805W        W90219  17.780  21.022  14.297
17806W        W90220  37.441  43.277   3.697
17807W        W90221   0.344  19.768   1.293
17808W        W90222   4.227  21.174   3.221
17809W        W90223  36.354  26.662  10.017
17810W        W90224   3.321  28.067  11.557
17811W        W90225  35.447  33.397  11.413
17812W        W90226   1.468  11.327  10.947
17813W        W90227  39.869   9.709   3.786
17814W        W90228   5.214  22.666   1.761
17815W        W90229  13.770  30.426  12.490
17816W        W90230  29.626  33.030   0.872
17817W        W90231  44.925  28.573  11.944
17818W        W90232  22.135   2.348  10.621
17819W        W90233  23.999  33.561  13.868
17820W        W90234  40.462  39.024   3.324
17821W        W90235  34.032  17.707  13.920
17822W        W90236  33.034  28.466   1.789
17823W        W90237  44.888  18.731  11.469
17824W        W90238   1.905  22.549  11.039
17825W        W90239   8.889   0.842  13.833
17826W        W90240  14.230  18.615   0.813
17827W        W90241  33.401   4.851   2.720
17828W        W90242  17.586  44.354   5.727
17829W        W90243  43.410  13.236   4.244
17830W        W90244  20.601   3.743  14.441
17831W        W90245  34.115  29.553   3.216
17832W        W90246  24.157  24.677  12.896
17833W        W90247  34.494  25.198  13.842
17834W        W90248  14.265  28.642  11.872
17835W        W90249  12.819  40.474   3.860
17836W        W90250  35.480  32.068  14.995
17837W        W90251  31.447  23.015  14.002
17838W        W90252   1.287  23.108   4.648
17839W        W90253  41.012  17.126   1.747
17840W        W90254  14.109  38.903   3.155
17841W        W90255  41.798  29.115   0.904
17842W        W90256  18.659  15.592   4.726
17843W        W90257  37.012  14.741  11.600
17844W        W90258  15.719  33.131   1.342
17845W        W90259  21.157  26.504  11.476
17846W        W90260  40.924   3.361  14.500
17847W        W90261  23.655  40.512  11.033
17848W        W90262  24.704   8.691   1.273
17849W        W90263  23.134  18.713   4.252
17850W        W90264  12.323  36.448   4.139
17851W        W90265  15.765  21.703  12.365
17852W        W90266  43.272  41.837   3.175
17853W        W90267   2.274  43.457   3.371
17854W        W90268  16.291  29.666  13.851
17855W        W90269  30.969  41.838  13.502
17856W        W90270  12.119   3.908  13.910
17857W        W90271  24.102  30.065   2.728
17858W        W90272  16.181   5.848  14.891
17859W        W90273  38.509  10.343  10.984
17860W        W90274  43.448  44.498  11.525
17861W        W90275  41.032   1.451   4.151
17862W        W90276  16.790  38.417   1.314
17863W        W90277   8.387  15.157  14.918
17864W        W90278  33.889   2.912   1.318
17865W        W90279   9.691  23.216  13.445
17866W        W90280  15.099   0.757  14.798
17867W        W90281  39.510  16.129   4.620
17868W        W90282  11.143  23.133  10.450
17869W        W90283  19.536   0.284   0.732
17870W        W90284  41.388   8.838  12.891
17871W        W90285  13.629  29.514  11.539
17872W        W90286  16.120  34.409   3.746
17873W        W90287  30.491  27.970  13.307
17874W        W90288  30.008  29.974  11.932
17875W        W90289   2.882  22.157   1.377
17876W        W90290  39.903  34.484   2.351
17877W        W90291  17.757  17.780  13.915
17878W        W90292  21.689   5.850   3.326
17879W        W90293   7.906  39.438  13.514
17880W        W90294  14.323   0.434   4.837
17881W        W90295  24.180  37.043  11.534
17882W        W90296  31.597  18.131  12.049
17883W        W90297  11.835  22.533   0.818
17884W        W90298  14.190  41.867   3.870
17885W        W90299  34.488  13.157  14.899
17886W        W90300  28.978  42.329   1.919
17887W        W90301  31.041  38.469  14.296
17888W        W90302   6.279   6.827  11.609
17889W        W90303   9.771   8.261  11.941
17890W        W90304  32.942   4.753  10.920
17891W        W90305  29.170  30.466  14.467
17892W        W90306  44.899  30.532   0.913
17893W        W90307  43.340  33.457   2.199
17894W        W90308  19.157  21.244   0.388
17895W        W90309   7.341  36.921   0.784
17896W        W90310  12.256   3.942   0.423
17897W        W90311  29.171  25.066   1.327
17898W        W90312  22.048  41.370   1.703
17899W        W90313  34.063  16.704  12.383
17900W        W90314  24.139  28.507  14.998
17901W        W90315  19.617  10.263  12.501
17902W        W90316  18.616  28.496   4.304
17903W        W90317  35.381  22.662   2.274
17904W        W90318  18.291  39.354   3.736
17905W        W90319  18.750  44.286  10.418
17906W        W90320  20.137  16.614  12.015
17907W        W90321  15.131  26.634  13.403
17908W        W90322  27.096  22.186  10.409
17909W        W90323  40.397   8.678   0.462
17910W        W90324   4.776  18.161  14.964
17911W        W90325  10.806  15.143   2.269
17912W        W90326  25.472  11.351   3.169
17913W        W90327  16.605  31.031  13.327
17914W        W90328   5.716   3.829  13.543
17915W        W90329  17.661  34.564   2.365
17916W        W90330  22.014  36.948  12.984
17917W        W90331  41.816  22.060  13.910
17918W        W90332   5.342  19.083  13.341
17919W        W90333  32.456  28.083  12.374
17920W        W90334  34.526  15.662   4.758
17921W        W90335   1.863  40.841   2.861
17922W        W90336  43.284  21.746   4.691
17923W        W90337  35.378   3.273  10.968
17924W        W90338   2.720   3.330   2.328
17925W        W90339  34.404  30.951  14.509
17926W        W90340  24.679  24.138  12.868
17927W        W90341  17.202  41.819   1.818
17928W        W90342  37.908  10.646   2.719
17929W        W90343  18.711  34.087  14.354
17930W        W90344  24.675  19.143   4.752
17931W        W90345  37.389  19.083   3.784
17932W        W90346  15.283  11.253   4.332
17933W        W90347   0.847  15.292   3.778
17934W        W90348  41.528  28.564   2.404
17935W        W90349  30.128   1.781   3.192
17936W        W90350  12.176  11.131  12.911
17937W        W90351  36.587  21.138   2.240
17938W        W90352  10.283  22.047  10.475
17939W        W90353  19.571  40.814   2.838
17940W        W90354  34.014   1.371  12.832
17941W        W90355  28.545  26.565  11.421
17942W        W90356  19.231  33.485  13.047
17943W        W90357  26.477  24.212   0.480
17944W        W90358  24.205  22.515   2.801
17945W        W90359  22.998  37.403  12.882
17946W        W90360  39.007   8.228   2.282
17947W        W90361  31.986  29.149   0.799
17948W        W90362  18.608  28.624   2.688
17949W        W90363   6.296  12.741   3.305
17950W        W90364   6.329  22.211   1.868
17951W        W90365  26.546  27.165  12.551
17952W        W90366   8.787   2.769  11.864
17953W        W90367  26.506  22.532   5.104
17954W        W90368   4.384  42.876   9.616
17955W        W90369  11.172   7.888   4.785
17956W        W90370  14.642  12.625   4.597
17957W        W90371  18.099  20.028  14.934
17958W        W90372  40.009  38.892   1.839
17959W        W90373   6.826  23.710  13.821
17960W        W90374  16.092  39.391  11.009
17961W        W90375  17.559  23.131  10.970
17962W        W90376  38.999  16.290   2.733
17963W        W90377  43.002   4.925   0.925
17964W        W90378  34.955  42.392   4.202
17965W        W90379  27.193  10.669  14.298
17966W        W90380  29.536  31.635  13.533
17967W        W90381  36.484  34.098  13.936
17968W        W90382  16.141   6.220  12.926
17969W        W90383  17.585  19.585   1.758
17970W        W90384  27.153  30.464  11.584
17971W        W90385  34.046  18.739   1.814
17972W        W90386  10.264   6.309  13.019
17973W        W90387   4.882  22.730   3.826
17974W        W90388  30.155  14.770   2.821
17975W        W90389  21.066  33.968   1.310
17976W        W90390  35.011  18.781  14.477
17977W        W90391  44.007  29.669   4.149
17978W        W90392  12.142   7.813  12.362
17979W        W90393  31.954  39.972   1.818
17980W        W90394  14.194  39.488  14.463
17981W        W90395  39.914  14.683  11.583
17982W        W90396  14.251  29.549  10.567
17983W        W90397   3.273  36.950   1.346
17984W        W90398  38.923  16.135  11.969
17985W        W90399  11.324  11.369  13.501
17986W        W90400  18.243   3.805   4.757
17987W        W90401  35.588  11.278   4.655
17988W        W90402  30.613   8.267  13.364
17989W        W90403  38.917  17.170   0.396
17990W        W90404  35.460   1.266  12.954
17991W        W90405  36.498  27.126  10.983
17992W        W90406  36.458  26.571   5.179
17993W        W90407   2.454   1.317   3.354
17994W        W90408  25.078  16.650  10.910
17995W        W90409   3.802  23.552  11.039
17996W        W90410  27.982  29.919  11.017
17997W        W90411  22.649  35.509   4.823
17998W        W90412  40.872  14.701   3.655
17999W        W90413  35.080  23.495  11.434
18000W        W90414  31.087  33.586   2.337
18001W        W90415  16.594  20.163   1.826
18002W        W90416  17.078   4.395  13.889
18003W        W90417  15.325  12.691   0.921
18004W        W90418  33.916  20.767  13.912
18005W        W90419  25.173  36.892  10.418
18006W        W90420  27.478  44.394  12.342
18007W        W90421  41.920  24.021   2.363
18008W        W90422   9.727  21.134  10.005
18009W        W90423  40.546  37.975   3.168
18010W        W90424  36.042  23.072  13.982
18011W        W90425   3.735  32.062   1.291
18012W        W90426  21.698  25.040   3.796
18013W        W90427  21.525  26.663  13.948
18014W        W90428  29.078   2.324  11.555
18015W        W90429  14.166  22.631   2.789
18016W        W90430  22.209  18.056  10.584
18017W        W90431  23.622  38.905  13.837
18018W        W90432  26.014  39.927  11.582
18019W        W90433  20.201   4.838  10.106
18020W        W90434   6.317  36.439   1.388
18021W        W90435  20.641   9.392  12.364
18022W        W90436  32.614  33.522  11.009
18023W        W90437  19.731  28.485  13.321
18024W        W90438  32.085  29.667   1.248
18025W        W90439  14.194  20.653  11.868
18026W        W90440  37.004  19.059   1.767
18027W        W90441  43.877  40.919  14.978
18028W        W90442  38.949   2.731  13.493
18029W        W90443  41.998  28.982   4.300
18030W        W90444  34.433  13.265   3.848
18031W        W90445  16.775  38.874  12.525
18032W        W90446  35.056  10.727   0.944
18033W        W90447  17.065   2.379  12.886
18034W        W90448  19.645  36.541   4.758
18035W        W90449  16.124   7.895  12.527
18036W        W90450  24.160  34.581  13.835
18037W        W90451  43.334   0.788  11.065
18038W        W90452   2.288  31.052   3.749
18039W        W90453  26.010  39.475  14.478
18040W        W90454  14.710  31.130  12.001
18041W        W90455   5.782   5.197  13.325
18042W        W90456  38.936  23.605  14.772
18043W        W90457  31.064  16.202  12.510
18044W        W90458  20.737  27.112  11.001
18045W        W90459  29.033  42.962   1.255
18046W        W90460  35.495  16.752   4.124
18047W        W90461   4.248  31.152  13.318
18048W        W90462  13.697  36.407   2.675
18049W        W90463  39.833  33.455   1.781
18050W        W90464  40.361  23.559  12.414
18051W        W90465  42.892  25.066   2.337
18052W        W90466  32.009  38.564   1.763
18053W        W90467  14.766  34.059   1.782
18054W        W90468  13.201  22.038  10.634
18055W        W90469  20.655  36.996   4.693
18056W        W90470  22.028  14.242   2.317
18057W        W90471  35.550  39.822  12.035
18058W        W90472  30.143  38.338  14.474
18059W        W90473  12.770  34.919   3.683
18060W        W90474  39.533  10.752   0.309
18061W        W90475  25.559  18.102   5.676
18062W        W90476   9.765  12.159   1.828
18063W        W90477  15.253   7.735  13.529
18064W        W90478  40.536  39.945  12.887
18065W        W90479  41.443   6.754   1.699
18066W        W90480  35.533   9.798   1.416
18067W        W90481  41.353   4.742  14.288
18068W        W90482  26.172  39.436   3.738
18069W        W90483  30.165  16.243   4.609
18070W        W90484  40.008  16.155   4.222
18071W        W90485  36.855  40.372   1.860
18072W        W90486  23.201  38.053  12.384
18073W        W90487  17.641  42.283  12.433
18074W        W90488  23.985  36.906   2.293
18075W        W90489  44.851  37.945   3.777
18076W        W90490  30.447  19.560  11.463
18077W        W90491  19.105   7.736  14.403
18078W        W90492  13.216  35.040  13.368
18079W        W90493  19.539  40.937   3.730
18080W        W90494  43.770  29.017   2.782
18081W        W90495  20.095  20.185  11.947
18082W        W90496  18.683   7.197   4.227
18083W        W90497   8.296  14.263   4.829
18084W        W90498  30.423  35.097   0.809
18085W        W90499  37.888  26.046   0.918
18086W        W90500  43.454   0.934   4.740
18087W        W90501  34.391  21.557   3.302
18088W        W90502  29.007  39.894   0.396
18089W        W90503  14.148  34.556  13.927
18090W        W90504   6.245  37.509  14.773
18091W        W90505  30.650  31.993  10.919
18092W        W90506   1.449   7.866   3.707
18093W        W90507   9.360  38.391   2.367
18094W        W90508  43.284  41.830   1.399
18095W        W90509  12.661   6.820  11.504
18096W        W90510  16.088  37.465   1.904
18097W        W90511  21.697   5.303  10.896
18098W        W90512   2.262  12.139   1.753
18099W        W90513  22.070   5.259   1.878
18100W        W90514   8.381  11.267  11.565
18101W        W90515  15.149  33.901  14.332
18102W        W90516   4.268  30.128  13.040
18103W        W90517  37.002   7.176  10.943
18104W        W90518  25.485  37.051   2.213
18105W        W90519  20.721  30.004   2.884
18106W        W90520   2.880   8.858   3.670
18107W        W90521  16.157  37.577  14.336
18108W        W90522  41.314  19.179  13.312
18109W        W90523   8.184  15.613   2.317
18110W        W90524   4.702  39.537  13.427
18111W        W90525  16.093  20.593   0.264
18112W        W90526  11.161   4.754  11.593
18113W        W90527  41.914  10.311  11.936
18114W        W90528  40.020  41.864   4.648
18115W        W90529  33.013  14.779  12.444
18116W        W90530  12.210  22.056   4.302
18117W        W90531  15.198  20.213  13.953
18118W        W90532   6.777  10.854   2.863
18119W        W90533  13.210   6.375   4.708
18120W        W90534   3.886  40.841   9.956
18121W        W90535  43.336  39.438  12.032
18122W        W90536   8.713  38.906   0.833
18123W        W90537  24.551  37.004  13.039
18124W        W90538  25.597  15.268  14.909
18125W        W90539  19.194  30.038   2.256
18126W        W90540  38.518   9.753   1.422
18127W        W90541   9.877  10.364   1.694
18128W        W90542   9.784   6.827  11.123
18129W        W90543  16.588   1.399  11.862
18130W        W90544  41.980  13.110   1.416
18131W        W90545  30.018  36.578   1.767
18132W        W90546  18.259  19.693  13.514
18133W        W90547  40.462  44.767  12.943
18134W        W90548  44.385  14.160   3.650
18135W        W90549  24.978  29.627   0.432
18136W        W90550   0.859  10.846  14.944
18137W        W90551  44.941  38.361  12.949
18138W        W90552  21.569  25.705   2.718
18139W        W90553   2.245   3.861   0.857
18140W        W90554  28.181   4.267   1.215
18141W        W90555  39.487  27.519   2.738
18142W        W90556  22.066   5.213   0.332
18143W        W90557  24.060   3.716  14.807
18144W        W90558   8.310  19.190  11.568
18145W        W90559   2.757  28.443   4.724
18146W        W90560  34.982  44.905   0.316
18147W        W90561  21.080   2.278  10.464
18148W        W90562  42.419  23.521   2.276
18149W        W90563  36.975  13.238  12.366
18150W        W90564   5.414   3.719   1.866
18151W        W90565  31.566  36.484   2.376
18152W        W90566  30.641   5.238  11.032
18153W        W90567  24.035  21.638  10.891
18154W        W90568  36.964  26.202   2.747
18155W        W90569  20.070   2.735   3.657
18156W        W90570  31.990  41.473  13.820
18157W        W90571  11.734  37.025   3.664
18158W        W90572  14.196  40.976  10.602
18159W        W90573   4.230  32.931   2.365
18160W        W90574  26.005   0.838   4.638
18161W        W90575  11.856  21.216  11.049
18162W        W90576   7.194  41.407  12.888
18163W        W90577   3.901  42.280   5.733
18164W        W90578  37.376  23.626   4.322
18165W        W90579   9.868  42.286  14.369
18166W        W90580  29.946   7.888   2.332
18167W        W90581  14.097   9.226  11.102
18168W        W90582  38.046  37.037   2.794
18169W        W90583   1.733  22.150  12.843
18170W        W90584  13.750   9.837   4.697
18171W        W90585  34.868  42.470   0.415
18172W        W90586   2.878   6.184  14.326
18173W        W90587  44.774  31.060  12.389
18174W        W90588  22.114  32.905  12.363
18175W        W90589   2.793   3.332  10.953
18176W        W90590   4.414  10.663  13.052
18177W        W90591  13.255  38.989  14.983
18178W        W90592  27.122   6.425   3.184
18179W        W90593  10.323  35.450  12.835
18180W        W90594   2.893  12.712   1.696
18181W        W90595  29.064  17.665   1.730
18182W        W90596  31.959  22.167   2.192
18183W        W90597  27.946   9.228  14.394
18184W        W90598  32.458  24.078  11.571
18185W        W90599  35.049  19.613   4.718
18186W        W90600  42.891  41.470  13.440
18187W        W90601   9.709  21.252   4.277
18188W        W90602  25.579  18.252   1.895
18189W        W90603  35.988  11.339  10.610
18190W        W90604   4.857  20.163   4.730
18191W        W90605  41.343  12.266  12.482
18192W        W90606  20.639  38.913   3.855
18193W        W90607  42.948  44.789  12.915
18194W        W90608  33.111  11.659  10.425
18195W        W90609  20.228  39.929  13.325
18196W        W90610  22.209  40.396  10.939
18197W        W90611  37.490  16.199  11.522
18198W        W90612  23.729   7.810   0.363
18199W        W90613  32.442   4.891   0.904
18200W        W90614  34.114   6.327  12.000
18201W        W90615   3.291  42.812   0.478
18202W        W90616  21.230  22.120  13.439
18203W        W90617   3.773   1.466  11.375
18204W        W90618   0.814  29.976   1.871
18205W        W90619  23.713  26.119   3.754
18206W        W90620  43.462  36.871   3.724
18207W        W90621  42.950  16.630  11.564
18208W        W90622  25.712   1.326  10.106
18209W        W90623  34.039  40.816   2.256
18210W        W90624  15.246  35.528   1.371
18211W        W90625  30.519  35.868   2.247
18212W        W90626  19.125  28.502  14.282
18213W        W90627  13.662  42.352  11.083
18214W        W90628  32.024  10.806  13.383
18215W        W90629   7.881   5.894   1.711
18216W        W90630   8.868  42.014  11.497
18217W        W90631   8.372   8.869   4.717
18218W        W90632  33.433   3.401  14.790
18219W        W90633  26.640  10.825  14.459
18220W        W90634  18.604  31.021  12.348
18221W        W90635  42.855  39.445  14.413
18222W        W90636  29.581  26.052   1.347
18223W        W90637  33.551  44.825   3.794
18224W        W90638   2.911   4.805  13.903
18225W        W90639  27.096  13.144   2.221
18226W        W90640  15.234  41.990   1.414
18227W        W90641   6.240  37.950   4.120
18228W        W90642  40.476   1.960   1.929
18229W        W90643   9.219   7.303  13.971
18230W        W90644  35.972  33.423  14.825
18231W        W90645  37.081   1.750  12.945
18232W        W90646  30.458  33.062   1.754
18233W        W90647   2.826  25.645   5.667
18234W        W90648   7.211   7.733  13.925
18235W        W90649  13.657   7.853  14.789
18236W        W90650   2.449   3.250   0.270
18237W        W90651  42.511   3.754  11.415
18238W        W90652   5.366  39.830  11.116
18239W        W90653  26.976  27.610   4.784
18240W        W90654   7.694   5.416  12.376
18241W        W90655  29.612  10.338  10.463
18242W        W90656  43.304   5.272  10.599
18243W        W90657  17.211  38.935  12.890
18244W        W90658   1.744  38.925   3.189
18245W        W90659  30.918  29.572   4.612
18246W        W90660  35.511  34.504   2.183
18247W        W90661  26.013  30.512  13.953
18248W        W90662   6.849   9.252  14.409
18249W        W90663   5.921  43.774  10.582
18250W        W90664  18.672  36.450   0.260
18251W        W90665  22.507  42.840  10.090
18252W        W90666  13.307  33.535   3.797
18253W        W90667  12.841  39.890   0.863
18254W        W90668  36.946  13.158   2.696
18255W        W90669  17.178  20.234   2.671
18256W        W90670  22.051  20.686  10.563
18257W        W90671  18.585   9.707   2.370
18258W        W90672  27.973  28.676   0.821
18259W        W90673  28.546  17.266  13.309
18260W        W90674  28.139  36.434   3.771
18261W        W90675   4.338  37.555  12.053
18262W        W90676  23.501   8.713   0.746
18263W        W90677  12.810   3.325  12.396
18264W        W90678  27.550  31.953   0.727
18265W        W90679  32.474  40.039   4.719
18266W        W90680  27.085  44.479   4.783
18267W        W90681  24.991  28.505  12.073
18268W        W90682   7.887  36.019  12.825
18269W        W90683  22.185   1.294  12.546
18270W        W90684  11.188  22.209   1.738
18271W        W90685  43.453  20.120   4.354
18272W        W90686  41.792  21.713   4.653
18273W        W90687  29.064  12.707   3.674
18274W        W90688  15.803   1.393   4.695
18275W        W90689   3.770  27.197  11.394
18276W        W90690   3.303  26.623   2.675
18277W        W90691   9.765  28.478   2.677
18278W        W90692   9.254  17.208  12.358
18279W        W90693  16.092   0.385   2.214
18280W        W90694  17.169  25.075  11.113
18281W        W90695  11.724  23.665   4.205
18282W        W90696  43.812  33.521  13.044
18283W        W90697  13.746   3.821  14.381
18284W        W90698  19.689   4.912   4.113
18285W        W90699  37.559  26.673   4.224
18286W        W90700   1.308  29.170   2.202
18287W        W90701   6.414  39.970   5.235
18288W        W90702  38.463  38.491  11.983
18289W        W90703   3.829  22.192   3.729
18290W        W90704  30.122   5.237   0.451
18291W        W90705   4.384   0.439   2.796
18292W        W90706  24.689  39.974   0.391
18293W        W90707  33.898  35.427   4.779
18294W        W90708  31.960  15.799  12.976
18295W        W90709  27.117  28.081   3.797
18296W        W90710   4.850  39.005   1.241
18297W        W90711   6.298  37.967   2.818
18298W        W90712  13.610  17.655   4.671
18299W        W90713  34.383  20.750  14.500
18300W        W90714  18.159   9.865   1.792
18301W        W90715  37.541  21.233  13.418
18302W        W90716  40.315   2.422  10.591
18303W        W90717  26.030  22.621   4.208
18304W        W90718  17.288   7.214  14.796
18305W        W90719  31.646  23.567  13.949
18306W        W90720   7.261  38.404   0.779
18307W        W90721  10.177  21.093  12.444
18308W        W90722   9.167  36.064   0.302
18309W        W90723   5.687  14.729   1.892
18310W        W90724  35.910  23.232  14.988
18311W        W90725  43.824  36.355  11.558
18312W        W90726   5.356   9.844   2.208
18313W        W90727  18.066  42.955   9.498
18314W        W90728  33.615  18.780   4.662
18315W        W90729   9.660  11.195   4.336
18316W        W90730  20.250  34.457   3.276
18317W        W90731  26.633  28.117  10.535
18318W        W90732  25.555  25.700  12.027
18319W        W90733  14.747  16.608   1.212
18320W        W90734  28.039  17.645  10.566
18321W        W90735  22.651  37.426   1.894
18322W        W90736  11.137  42.827  10.968
18323W        W90737  26.540  30.467   1.322
18324W        W90738   9.726  21.153  14.477
18325W        W90739   7.693  15.246   3.212
18326W        W90740   4.215  10.783   4.653
18327W        W90741  22.137  27.671   0.469
18328W        W90742   2.925  44.291   1.873
18329W        W90743  16.277   1.870   2.694
18330W        W90744  26.604  41.845   1.882
18331W        W90745  11.775   2.370   2.317
18332W        W90746  33.535  38.914  14.484
18333W        W90747  17.112  43.793   1.708
18334W        W90748   0.971   6.348  10.040
18335W        W90749  13.666  36.543  13.390
18336W        W90750   2.852  14.191  10.631
18337W        W90751  31.928  27.038  14.411
18338W        W90752  21.137  24.523   2.708
18339W        W90753  37.875  11.172   0.248
18340W        W90754  19.669  39.434  11.125
18341W        W90755  25.109  16.594  13.047
18342W        W90756  19.262  19.256   4.796
18343W        W90757  23.539   3.360   3.767
18344W        W90758   5.754  30.566  14.795
18345W        W90759   5.840  43.394  14.436
18346W        W90760  21.157  43.805  11.587
18347W        W90761  44.443  38.919  12.043
18348W        W90762  36.493  33.381   3.277
18349W        W90763   3.804  40.982   0.428
18350W        W90764   2.843   5.389  13.334
18351W        W90765  23.528  14.641   4.317
18352W        W90766   9.660  33.024   1.894
18353W        W90767  13.308  44.435   2.230
18354W        W90768   2.421  21.579   3.853
18355W        W90769  23.053  10.153   3.705
18356W        W90770  30.971  19.664   2.406
18357W        W90771  20.733  24.181   3.845
18358W        W90772  42.523  37.381   3.145
18359W        W90773  22.562  26.556   1.334
18360W        W90774  21.728  42.293  11.913
18361W        W90775   3.364   3.451  13.891
18362W        W90776  13.670  44.353  11.939
18363W        W90777  25.996   1.283   2.273
18364W        W90778  22.126  27.952   4.159
18365W        W90779   2.874  21.550   0.822
18366W        W90780  33.520   0.865   1.326
18367W        W90781  13.156  16.193  13.530
18368W        W90782  38.569   0.410   0.374
18369W        W90783  25.110  13.271  11.373
18370W        W90784  43.783  30.102   1.858
18371W        W90785  21.194  16.238  10.442
18372W        W90786   0.383  16.304   4.157
18373W        W90787  15.263  21.076   0.802
18374W        W90788  44.984  40.000   3.176
18375W        W90789   1.324  25.970  10.582
18376W        W90790   9.654  12.123   2.239
18377W        W90791  20.668   1.809  10.549
18378W        W90792  20.640  44.904  14.333
18379W        W90793   7.197  18.683   3.803
18380W        W90794   3.327  11.339  10.952
18381W        W90795   7.234  30.593  11.067
18382W        W90796   9.218  40.425  14.358
18383W        W90797  23.993   2.408  12.444
18384W        W90798  24.119  29.118  14.438
18385W        W90799  30.022  30.143  10.578
18386W        W90800  44.790  28.450  10.562
18387W        W90801  13.337  36.982   2.402
18388W        W90802   0.380  33.906  10.528
18389W        W90803  26.633  29.560  11.453
18390W        W90804  15.820   9.678   3.355
18391W        W90805   6.428   6.338   4.212
18392W        W90806  26.702   7.759  12.575
18393W        W90807  19.227  38.390   0.771
18394W        W90808  40.392   5.870  12.024
18395W        W90809  23.685  42.921   2.363
18396W        W90810  35.455  28.967   3.370
18397W        W90811   1.319  40.384   0.471
18398W        W90812  37.394  12.209   4.153
18399W        W90813  39.064   6.882   3.685
18400W        W90814  43.370  22.590   2.862
18401W        W90815  17.794   8.685  13.962
18402W        W90816  12.317  38.899  14.310
18403W        W90817  12.800   0.886  11.517
18404W        W90818  17.704   1.821  13.435
18405W        W90819  27.041  33.436   4.719
18406W        W90820  40.339  11.206   1.333
18407W        W90821  20.536  30.465   4.629
18408W        W90822  20.542  28.619   1.861
18409W        W90823  33.585  16.618   3.733
18410W        W90824   2.403   0.416  10.474
18411W        W90825  32.139  20.080  13.057
18412W        W90826  27.185   7.810   2.828
18413W        W90827  20.055  22.601   0.346
18414W        W90828  11.800  37.559  10.983
18415W        W90829  42.775  10.684  11.489
18416W        W90830  44.988  13.248   2.296
18417W        W90831  31.480  12.317  13.319
18418W        W90832   2.339  11.679   0.275
18419W        W90833  21.199  11.355   2.710
18420W        W90834   6.771  18.262  11.377
18421W        W90835  13.120  42.294  11.112
18422W        W90836  24.534  36.006   4.174
18423W        W90837  26.470  13.658   3.307
18424W        W90838  42.386   8.271   3.810
18425W        W90839   8.693  20.594  12.418
18426W        W90840  18.244  31.898   3.314
18427W        W90841   0.397  14.292   3.343
18428W        W90842   5.898  42.934   0.389
18429W        W90843  17.109   0.853   4.192
18430W        W90844  40.971   7.258  10.509
18431W        W90845  17.782  12.672  14.923
18432W        W90846  42.370   0.968   2.264
18433W        W90847   0.401  44.283  13.945
18434W        W90848  36.574  13.258  14.895
18435W        W90849  27.090  23.098  11.474
18436W        W90850  24.052   6.414  13.994
18437W        W90851  21.254   0.358  14.030
18438W        W90852  10.158   4.248  14.481
18439W        W90853  19.149  40.041  14.361
18440W        W90854  16.604   0.321  12.437
18441W        W90855  34.905  28.173  11.398
18442W        W90856  32.463  30.524  12.519
18443W        W90857   1.871  28.532  14.997
18444W        W90858  27.454  23.206   1.760
18445W        W90859  22.606  39.046   0.846
18446W        W90860  27.176  29.128   0.770
18447W        W90861  27.592  28.622  11.505
18448W        W90862  19.167  22.097   1.804
18449W        W90863  11.227  31.458  14.333
18450W        W90864   3.824  12.741  14.307
18451W        W90865  40.311  33.594   3.218
18452W        W90866  31.450  40.514  14.400
18453W        W90867  23.718  36.867   2.204
18454W        W90868  27.545  31.927  11.412
18455W        W90869  24.622  30.037  12.948
18456W        W90870   8.338  41.485   4.209
18457W        W90871  30.070  23.240   4.681
18458W        W90872  23.636  42.302  12.381
18459W        W90873  24.192  41.866   2.712
18460W        W90874   5.282  18.136  13.541
18461W        W90875   6.424  28.465  13.985
18462W        W90876   1.363   6.796   3.236
18463W        W90877  35.387  36.952  10.459
18464W        W90878   5.338  30.472  12.853
18465W        W90879   6.773  25.622   0.364
18466W        W90880  10.157   9.789  14.359
18467W        W90881  40.309  43.282   1.214
18468W        W90882  31.576  18.235   4.808
18469W        W90883  44.978  10.653   3.345
18470W        W90884  33.886  17.780   2.817
18471W        W90885  22.713  43.817   4.597
18472W        W90886  44.756  14.144  14.025
18473W        W90887  27.976   8.685   5.097
18474W        W90888  21.719  44.325  14.505
18475W        W90889  28.624  14.340   3.215
18476W        W90890   5.278  24.143   0.454
18477W        W90891   0.877  15.216   2.198
18478W        W90892  30.558  42.284  14.975
18479W        W90893  24.986  38.358   4.299
18480W        W90894  23.115  42.888  13.973
18481W        W90895   5.312  39.041   0.385
18482W        W90896  17.093   8.287   2.899
18483W        W90897  19.721   5.877  14.801
18484W        W90898  27.665   2.809   0.346
18485W        W90899  41.498  23.986   0.413
18486W        W90900   4.769  17.621  14.008
18487W        W90901  29.551   6.679  11.460
18488W        W90902  17.193  24.186  12.456
18489W        W90903  23.205   5.817  11.951
18490W        W90904  22.081  37.557  12.353
18491W        W90905  34.869  20.523  10.416
18492W        W90906  16.203  31.978  10.980
18493W        W90907  28.975  29.051   2.779
18494W        W90908  24.620   9.714  12.373
18495W        W90909   1.252  27.942  14.409
18496W        W90910  15.796  37.922   1.718
18497W        W90911  36.972  30.977  10.430
18498W        W90912  41.923   7.187   9.922
18499W        W90913  32.613   8.171   0.465
18500W        W90914  33.930  27.997  12.838
18501W        W90915  24.974   5.824   3.804
18502W        W90916  12.716  35.511  14.421
18503W        W90917  23.526  34.491  12.903
18504W        W90918  25.171   7.221   2.822
18505W        W90919  30.050   8.249   2.722
18506W        W90920  20.692  27.940   4.241
18507W        W90921  25.501  24.134  13.442
18508W        W90922  17.167  16.182  12.350
18509W        W90923  11.777  11.623  11.888
18510W        W90924  26.538  42.287  15.000
18511W        W90925  34.023  42.413   3.728
18512W        W90926  13.824  15.777  10.629
18513W        W90927  30.489  35.444   1.830
18514W        W90928  34.910  23.129   3.288
18515W        W90929  31.422  37.854   4.692
18516W        W90930  29.585   0.935   4.297
18517W        W90931  12.853   7.807  13.502
18518W        W90932  15.706  30.485  11.862
18519W        W90933  15.294  41.827   4.747
18520W        W90934   0.251  14.818   2.289
18521W        W90935  21.712  21.684  12.876
18522W        W90936  14.650  36.058  11.516
18523W        W90937  31.599  15.700   2.696
18524W        W90938   5.754  14.653  13.453
18525W        W90939  36.895  36.388   5.159
18526W        W90940  29.919   7.216  12.890
18527W        W90941  29.048  10.632  12.420
18528W        W90942  25.139  39.348  14.010
18529W        W90943  22.041  30.095   4.604
18530W        W90944   7.747   2.879   0.846
18531W        W90945  16.807  30.534  13.916
18532W        W90946  19.692  40.985  11.582
18533W        W90947  11.849   7.302  13.523
18534W        W90948  33.006  31.002  14.820
18535W        W90949  26.062   9.829   4.302
18536W        W90950  35.093  44.945  12.456
18537W        W90951  33.517  10.645  14.367
18538W        W90952  33.995  38.005   0.252
18539W        W90953  30.995   7.678  13.541
18540W        W90954  44.902  36.377   3.310
18541W        W90955   6.694  25.685  13.527
18542W        W90956  34.422   3.866   0.439
18543W        W90957  43.795  34.908   3.629
18544W        W90958  38.352  21.220   1.394
18545W        W90959   3.786  15.146   4.297
18546W        W90960  39.854   5.748   3.747
18547W        W90961  33.041  43.447   2.346
18548W        W90962  26.955  32.100  12.382
18549W        W90963  41.959  15.213  14.001
18550W        W90964  13.657  37.352   0.924
18551W        W90965  44.807  18.270   3.679
18552W        W90966  20.253  10.738  10.997
18553W        W90967  44.862  18.135   2.406
18554W        W90968  17.722  15.613   5.252
18555W        W90969  11.143   5.287   4.321
18556W        W90970  31.991  10.371   1.252
18557W        W90971  11.349  37.927   3.290
18558W        W90972  19.717  41.801   2.203
18559W        W90973  38.449  43.915   1.859
18560W        W90974  41.313  21.205  13.998
18561W        W90975   9.365  16.139  11.085
18562W        W90976  25.701  29.985   1.705
18563W        W90977  36.063  32.065  11.063
18564W        W90978   5.261  41.876   5.223
18565W        W90979  13.276  14.792   4.255
18566W        W90980   0.989  12.356  11.518
18567W        W90981  13.767   0.797  11.978
18568W        W90982  32.538  35.929  10.539
18569W        W90983  25.998  43.344   3.348
18570W        W90984  14.760  22.181  11.441
18571W        W90985  32.958  13.721   4.687
18572W        W90986  13.196  12.820   1.373
18573W        W90987  10.310   5.298  12.032
18574W        W90988  34.102  41.333   3.276
18575W        W90989   6.722   7.241   0.373
18576W        W90990   1.394  33.969  11.441
18577W        W90991  22.510  25.972  13.528
18578W        W90992  23.066  11.813  12.008
18579W        W90993  17.090  32.058   0.286
18580W        W90994  38.492  20.527  13.351
18581W        W90995  19.188  38.924  12.082
18582W        W90996  22.054  34.372  11.084
18583W        W90997  19.242  41.480   3.815
18584W        W90998  38.842  42.329  12.017
18585W        W90999  32.499  27.003   2.188
18586W        W91000  11.327   7.402   4.151
18587W        W91001   3.417  19.562   0.727
18588W        W91002  38.961  38.048   2.385
18589W        W91003  28.011  43.487  12.982
18590W        W91004  28.125  40.434  13.882
18591W        W91005   4.941  37.053   3.341
18592W        W91006   2.386   6.910  14.495
18593W        W91007  37.057   6.189   3.314
18594W        W91008  28.980  26.039   1.302
18595W        W91009  40.903  31.928   1.794
18596W        W91010  15.105  30.128   0.957
18597W        W91011  30.016  23.686   2.680
18598W        W91012  38.401  22.242  14.320
18599W        W91013  18.192  33.086  11.917
18600W        W91014  20.608  44.883   4.776
18601W        W91015   1.477  19.055  13.016
18602W        W91016   4.920  43.871   5.234
18603W        W91017  23.089   3.872   4.728
18604W        W91018  36.379  23.044   2.722
18605W        W91019  31.977  17.138   2.683
18606W        W91020  17.189  25.979   0.333
18607W        W91021  22.187  15.735   3.866
18608W        W91022  21.662  11.716   0.956
18609W        W91023  21.263  36.051   4.276
18610W        W91024   2.261  20.603   2.221
18611W        W91025  31.628   6.862   4.208
18612W        W91026  37.957  28.974  11.433
18613W        W91027  32.893   2.439   2.191
18614W        W91028  20.105  20.244   2.211
18615W        W91029  40.976   2.417   0.268
18616W        W91030  32.039  19.238   1.927
18617W        W91031  33.492  20.168   2.184
18618W        W91032  15.096  23.217  14.019
18619W        W91033  11.315  27.471  13.051
18620W        W91034  30.936  33.477  11.006
18621W        W91035  26.640  15.824   3.826
18622W        W91036  32.596  20.533   4.220
18623W        W91037   0.318  30.959  10.474
18624W        W91038  10.730  40.820   3.157
18625W        W91039  41.314  13.715  14.289
18626W        W91040  29.137  34.890   3.813
18627W        W91041  37.441  38.381  12.488
18628W        W91042   2.780  24.133   4.813
18629W        W91043  36.384  22.068   0.837
18630W        W91044   9.375  31.115   0.251
18631W        W91045   5.830  37.021  12.550
18632W        W91046  42.475   4.724   4.736
18633W        W91047  13.107  25.193  12.984
18634W        W91048  36.947   8.665   1.335
18635W        W91049  34.070  37.565  14.819
18636W        W91050  18.200  28.488   4.783
18637W        W91051  26.044  17.742   4.747
18638W        W91052   9.360  18.239   9.920
18639W        W91053  25.704   4.229   1.281
18640W        W91054  26.491  20.181  12.505
18641W        W91055  33.952  33.037   2.201
18642W        W91056  26.973   2.328  10.486
18643W        W91057   2.389   1.266   4.777
18644W        W91058   3.276   5.924   1.260
18645W        W91059  39.860  33.123   4.655
18646W        W91060  18.136  20.705  13.848
18647W        W91061  44.998  29.920   3.772
18648W        W91062  14.590  38.390  10.918
18649W        W91063  15.278  29.011   4.286
18650W        W91064  32.512  41.464   4.250
18651W        W91065  19.691  31.080   2.232
18652W        W91066  42.505  40.487   3.762
18653W        W91067  22.097   4.424   1.256
18654W        W91068  34.938  28.575   3.638
18655W        W91069  20.261  10.199   2.220
18656W        W91070  28.636   2.806   0.791
18657W        W91071  36.917  37.527   3.660
18658W        W91072  17.761  35.530  14.973
18659W        W91073  10.871  35.557   3.162
18660W        W91074  12.743   8.732  14.010
18661W        W91075   4.762  37.380   2.705
18662W        W91076  42.792  15.722   4.738
18663W        W91077  23.235  30.508  13.007
18664W        W91078  19.268  10.633  10.435
18665W        W91079  15.126  13.141   3.853
18666W        W91080  14.784  29.544  11.047
18667W        W91081  44.003  20.623  10.950
18668W        W91082  32.491  43.317   4.169
18669W        W91083   1.466   7.227  14.296
18670W        W91084   4.766  21.617   2.352
18671W        W91085  14.326  13.113  10.531
18672W        W91086  26.585  39.050   2.309
18673W        W91087   0.966  44.356  12.339
18674W        W91088   0.960  17.667  10.960
18675W        W91089  35.958  12.301  11.053
18676W        W91090   6.256  33.963   1.302
18677W        W91091  36.584  16.317   3.285
18678W        W91092   6.868  26.193   1.403
18679W        W91093  31.114  44.877   0.871
18680W        W91094   9.390  41.951   2.840
18681W        W91095  29.106  17.667   0.768
18682W        W91096   3.951  28.576   0.744
18683W        W91097  13.760  35.980  12.454
18684W        W91098  25.042  24.101  10.484
18685W        W91099   1.810   5.830   2.762
18686W        W91100   8.776  39.348  12.567
18687W        W91101  27.084  10.799   3.177
18688W        W91102  31.517   2.396   4.695
18689W        W91103   8.713   3.285   5.097
18690W        W91104   3.803  18.768   2.851
18691W        W91105  13.207  27.967  12.444
18692W        W91106  26.092   2.336   4.754
18693W        W91107  18.240  30.642  11.050
18694W        W91108  21.674  32.601  12.372
18695W        W91109  12.312  41.525   2.806
18696W        W91110   1.302   0.348   2.752
18697W        W91111   0.324  25.515  13.062
18698W        W91112  31.428   7.821   1.735
18699W        W91113  20.537  41.848   1.803
18700W        W91114   7.261  38.333   4.641
18701W        W91115   6.261  31.573  10.988
18702W        W91116  24.193  41.941  14.317
18703W        W91117  29.431  19.270  12.545
18704W        W91118  11.369  38.436   1.808
18705W        W91119  15.751  32.622   4.132
18706W        W91120   6.256  32.924  10.470
18707W        W91121  30.085  44.964  11.549
18708W        W91122  11.768   5.306   0.324
18709W        W91123  11.269  29.932   2.195
18710W        W91124  38.514  27.955   0.947
18711W        W91125  35.365  12.736  13.384
18712W        W91126  36.931  14.768  13.514
18713W        W91127   9.808  35.905   3.374
18714W        W91128  38.900  23.522   9.947
18715W        W91129   5.885  21.108  10.515
18716W        W91130  25.127  29.123  10.909
18717W        W91131  14.148  24.662   2.833
18718W        W91132   8.816  13.301  13.316
18719W        W91133  35.046  34.967  13.879
18720W        W91134  44.800  32.140   0.896
18721W        W91135  10.668  30.960  11.032
18722W        W91136  37.485  39.471   0.382
18723W        W91137  42.776  15.814  10.931
18724W        W91138  21.718  28.486   2.298
18725W        W91139  37.990  22.138   0.242
18726W        W91140  15.607   4.399  10.997
18727W        W91141   6.288   6.774  14.822
18728W        W91142   6.216   5.434  12.392
18729W        W91143  22.514  44.434   2.673
18730W        W91144  36.585  24.532  11.043
18731W        W91145  21.714   9.693  11.608
18732W        W91146  29.132  35.403   1.427
18733W        W91147  13.174  11.280  10.992
18734W        W91148  42.894   5.385   1.415
18735W        W91149   0.257   7.840  13.898
18736W        W91150  27.951   3.374  11.449
18737W        W91151  44.864  44.971  13.821
18738W        W91152  10.878  20.080   3.761
18739W        W91153  39.554  37.450   3.685
18740W        W91154  31.523  28.986   3.235
18741W        W91155  30.588  29.921  14.332
18742W        W91156  39.940  30.109  12.891
18743W        W91157   5.767  44.272   4.175
18744W        W91158  30.045  21.018  14.358
18745W        W91159  13.309  27.461  11.375
18746W        W91160   5.836  22.728   0.349
18747W        W91161   7.335  24.576  12.915
18748W        W91162  40.305   6.389  11.124
18749W        W91163   4.279  11.675  14.780
18750W        W91164  10.714   5.392  12.560
18751W        W91165  30.438  44.001   3.659
18752W        W91166   5.313  26.672  11.114
18753W        W91167  29.607  44.980   3.720
18754W        W91168  32.544  32.553  11.565
18755W        W91169  18.096  10.801   0.310
18756W        W91170   3.851   3.307  12.892
18757W        W91171  12.846  42.924  11.519
18758W        W91172   2.248  20.700   2.805
18759W        W91173  32.561   1.763   0.928
18760W        W91174  39.946  22.077  14.030
18761W        W91175  15.206  21.233   1.915
18762W        W91176   3.452  33.975  14.788
18763W        W91177  20.081  16.728  12.549
18764W        W91178  25.689  16.130  11.501
18765W        W91179  35.539  17.712   0.419
18766W        W91180  19.676  41.394  10.556
18767W        W91181  25.127  22.576  12.011
18768W        W91182  14.114  24.637  10.964
18769W        W91183  24.101  25.493  14.817
18770W        W91184  21.607  12.620  11.996
18771W        W91185   2.940   8.232   3.782
18772W        W91186  16.634  18.277   1.390
18773W        W91187  33.388  35.573  14.449
18774W        W91188  28.559  11.246   3.649
18775W        W91189  17.127  35.537   4.642
18776W        W91190   9.177  37.062  11.906
18777W        W91191  27.490  34.520   4.254
18778W        W91192  34.878   2.925   2.823
18779W        W91193  35.371  27.514  12.073
18780W        W91194  35.433  39.356  14.464
18781W        W91195  25.017   4.736   1.856
18782W        W91196  40.476  34.966   0.895
18783W        W91197  26.102   8.257   3.825
18784W        W91198  22.071  27.626  13.474
18785W        W91199  26.511  12.800  14.282
18786W        W91200  26.555  23.638   4.824
18787W        W91201  37.057  28.139   3.266
18788W        W91202  12.258  31.927  13.995
18789W        W91203  39.826  24.206  13.381
18790W        W91204  16.689   4.944  12.440
18791W        W91205  44.954  40.492   3.674
18792W        W91206   9.647  18.277   3.180
18793W        W91207  13.813  37.355  14.018
18794W        W91208   8.228  23.679   4.712
18795W        W91209   5.751  32.972   4.636
18796W        W91210   5.434  44.971  13.013
18797W        W91211   3.255  26.471   0.455
18798W        W91212  11.740  30.537   2.384
18799W        W91213  16.710  13.815   0.292
18800W        W91214  19.580  32.391  10.980
18801W        W91215  25.987  12.270  13.803
18802W        W91216  37.498   7.780  12.000
18803W        W91217   6.231  23.039   3.159
18804W        W91218  27.940   1.421  13.309
18805W        W91219  11.369  41.912   1.717
18806W        W91220  27.502  24.656   2.263
18807W        W91221  28.667  18.551   3.833
18808W        W91222  35.978   8.329   0.297
18809W        W91223  14.207  12.781   3.239
18810W        W91224   9.310   2.906   1.404
18811W        W91225  28.437  36.970  13.837
18812W        W91226  13.703  33.882  11.458
18813W        W91227  14.733  30.101  12.929
18814W        W91228  32.395  35.854   2.703
18815W        W91229  40.328  14.616   4.789
18816W        W91230  37.050  38.851  11.047
18817W        W91231  12.213  40.504  11.569
18818W        W91232  26.136  23.015   2.897
18819W        W91233  18.187  11.721   0.459
18820W        W91234  21.242  35.091   3.328
18821W        W91235   2.875  18.143   4.158
18822W        W91236  19.118  23.167  11.560
18823W        W91237  23.128  15.095   2.751
18824W        W91238  11.690  11.139   1.240
18825W        W91239  25.536  10.636   3.296
18826W        W91240  20.564  10.759   3.320
18827W        W91241   1.913  33.101   3.157
18828W        W91242  12.165   6.359  12.853
18829W        W91243  25.689  27.465  14.025
18830W        W91244  26.038  17.751  11.591
18831W        W91245  29.109  23.639   3.260
18832W        W91246  39.028  38.433   9.993
18833W        W91247   1.312  38.886   0.753
18834W        W91248  13.301   9.270   2.348
18835W        W91249  38.861  27.448  11.053
18836W        W91250  35.404  43.330  14.010
18837W        W91251  30.123  27.513  13.804
18838W        W91252  13.108  18.696   0.413
18839W        W91253   9.185  42.435   0.251
18840W        W91254  26.558   9.827  10.444
18841W        W91255   7.857  39.465  14.941
18842W        W91256  44.998  42.899   2.752
18843W        W91257  13.145  17.224  14.887
18844W        W91258   2.384  32.030   1.406
18845W        W91259   0.327  16.775   4.248
18846W        W91260   7.268  42.523  14.911
18847W        W91261  23.164   7.794   3.811
18848W        W91262  39.544   6.839   0.952
18849W        W91263  10.202  14.273  10.146
18850W        W91264  16.810  32.545  12.501
18851W        W91265  13.159  10.381   2.743
18852W        W91266  19.048   6.695  12.973
18853W        W91267  14.286  12.855   0.852
18854W        W91268  27.586   3.908   1.792
18855W        W91269   2.764  28.546   3.265
18856W        W91270  35.063  29.123  11.572
18857W        W91271  34.564  23.645   1.316
18858W        W91272  19.267  13.176  11.921
18859W        W91273  29.551  14.115  10.975
18860W        W91274  26.046  21.752  12.509
18861W        W91275   0.255  18.788  12.945
18862W        W91276  40.408  14.105   0.288
18863W        W91277  24.503  13.766   2.285
18864W        W91278  28.153  14.682  13.440
18865W        W91279   9.288  13.257   3.645
18866W        W91280  12.237  32.098  11.385
18867W        W91281   8.899  28.082   1.763
18868W        W91282  23.541   3.369  13.031
18869W        W91283  29.636  10.655   1.732
18870W        W91284  12.696  14.713   3.829
18871W        W91285   0.436   9.740  14.806
18872W        W91286  28.982  32.957   3.631
18873W        W91287  35.057  37.027   0.280
18874W        W91288  42.933  12.262   2.692
18875W        W91289  30.615  22.164   4.680
18876W        W91290  18.198   4.215  13.421
18877W        W91291  16.639  40.417  10.995
18878W        W91292  19.709   3.251   5.147
18879W        W91293   4.354  34.440  12.484
18880W        W91294   9.840  14.142  11.920
18881W        W91295  38.844  33.906   1.866
18882W        W91296  40.982  22.056   0.391
18883W        W91297   3.423  41.417  12.094
18884W        W91298   3.280  23.031  10.942
18885W        W91299   5.926   7.765  13.916
18886W        W91300   2.949  39.971   0.337
18887W        W91301  14.728  26.986  12.925
18888W        W91302   6.356   5.801  11.416
18889W        W91303  23.612  25.623   0.774
18890W        W91304  27.466   9.203   4.139
18891W        W91305   1.421  19.182  13.307
18892W        W91306  22.151   8.873   3.197
18893W        W91307  19.126  26.051   1.874
18894W        W91308   0.464   1.387  13.924
18895W        W91309   1.954  26.190  12.429
18896W        W91310  35.546   7.329  12.403
18897W        W91311  29.440  19.238  10.891
18898W        W91312  18.774  16.781   1.237
18899W        W91313  17.621  23.503   3.378
18900W        W91314  19.244  37.033   2.237
18901W        W91315  24.692   1.877   1.259
18902W        W91316   6.821  43.764   4.351
18903W        W91317  28.952  31.423  12.380
18904W        W91318  31.154   9.648   0.774
18905W        W91319   2.389  21.681   1.297
18906W        W91320  17.079  39.962  14.375
18907W        W91321   7.672   9.289  14.440
18908W        W91322   5.291  12.663  12.057
18909W        W91323  44.848  44.491   1.919
18910W        W91324  17.230  18.649   2.836
18911W        W91325   7.172   2.336   2.237
18912W        W91326   6.848  11.273   4.259
18913W        W91327  21.042   1.788   0.926
18914W        W91328   0.341  35.362   0.381
18915W        W91329  37.944  40.483   0.784
18916W        W91330   7.755  37.379   0.352
18917W        W91331  28.507  38.893   2.213
18918W        W91332  14.301   2.238   0.263
18919W        W91333   3.376  12.832  13.361
18920W        W91334  22.565  19.545   0.456
18921W        W91335  23.657   1.258  12.511
18922W        W91336  30.656  36.932   0.763
18923W        W91337   7.724  32.492   0.462
18924W        W91338  15.267   8.686  11.480
18925W        W91339  22.224  26.507   0.303
18926W        W91340  24.595  13.187   1.448
18927W        W91341  42.511   7.689   2.844
18928W        W91342  31.134  20.532   0.438
18929W        W91343  22.678  44.948   4.186
18930W        W91344  41.019  44.861   1.750
18931W        W91345  37.000   7.876  11.604
18932W        W91346  40.326  33.084  11.008
18933W        W91347   4.431  24.537  10.516
18934W        W91348   1.774  30.919  14.305
18935W        W91349   1.362  24.625  13.057
18936W        W91350  32.434  28.521   2.408
18937W        W91351  28.588  22.717   2.321
18938W        W91352  39.979  43.006  14.779
18939W        W91353   0.400   3.220  10.455
18940W        W91354  11.850  30.093   0.878
18941W        W91355   1.848  11.293  11.957
18942W        W91356  14.250  18.135   1.720
18943W        W91357  16.155  14.706   2.903
18944W        W91358   9.370  15.110   3.269
18945W        W91359  23.697  35.480   0.273
18946W        W91360  32.537   6.827  11.389
18947W        W91361  11.233  24.004  12.871
18948W        W91362  36.070  22.746   1.287
18949W        W91363  23.063  22.132   1.774
18950W        W91364  12.758  43.777  12.351
18951W        W91365  25.470  32.964   0.966
18952W        W91366  16.079  35.920  12.418
18953W        W91367  22.722  35.957   9.964
18954W        W91368  40.801  19.614  14.920
18955W        W91369  31.516   3.284  12.864
18956W        W91370  18.732  23.554  11.596
18957W        W91371  10.731  37.460   3.723
18958W        W91372  11.155  22.578  12.429
18959W        W91373  16.161  24.665  12.363
18960W        W91374   4.871  27.544  11.961
18961W        W91375  42.344  43.324   0.805
18962W        W91376  27.543  14.319  10.426
18963W        W91377  25.556   3.788   2.889
18964W        W91378  44.830   6.911  13.393
18965W        W91379  44.865  12.695  14.457
18966W        W91380   2.743  15.730  10.447
18967W        W91381  30.572  11.130  11.496
18968W        W91382  30.921   5.845  11.050
18969W        W91383  35.378  13.319  11.440
18970W        W91384  22.601   9.162  12.528
18971W        W91385  37.077  44.466  13.023
18972W        W91386  26.511   0.835  10.092
18973W        W91387  16.231  43.854  13.531
18974W        W91388  17.671   5.365   1.231
18975W        W91389   0.825  26.525  12.003
18976W        W91390  44.972  10.741  14.280
18977W        W91391   1.792   5.900  12.447
18978W        W91392  21.032  27.585  12.434
18979W        W91393  29.573  23.499   4.202
18980W        W91394  33.030   0.265   1.308
18981W        W91395   3.459  19.061  10.481
18982W        W91396   6.226  33.489   1.276
18983W        W91397   4.872  23.226   1.875
18984W        W91398   8.846  29.015  13.495
18985W        W91399   1.787  23.084  10.994
18986W        W91400  12.632   8.395   3.306
18987W        W91401  39.898   6.718  12.875
18988W        W91402  34.611  19.240   4.643
18989W        W91403   7.225   3.952  11.962
18990W        W91404  17.777  19.179  12.938
18991W        W91405  26.092  13.267   1.841
18992W        W91406  39.856  15.819  12.365
18993W        W91407  29.437  20.638   4.225
18994W        W91408   7.346  42.336  12.057
18995W        W91409   7.394  39.003  13.920
18996W        W91410  15.596  17.061   2.249
18997W        W91411  20.721  41.377  13.813
18998W        W91412   4.699  37.521  10.136
18999W        W91413  11.256  40.009  11.085
19000W        W91414  13.713  22.185   1.289
19001W        W91415   9.159  14.193   3.331
19002W        W91416   2.943   1.391   3.278
19003W        W91417   7.231   8.863  10.534
19004W        W91418  33.620  21.054  14.865
19005W        W91419  17.761  38.969  10.956
19006W        W91420  34.965   7.191  14.844
19007W        W91421  18.116  24.719  13.462
19008W        W91422  29.520  32.111   2.764
19009W        W91423   2.314  34.044  12.486
19010W        W91424  10.633   9.158  13.347
19011W        W91425  15.615   0.364  12.544
19012W        W91426  10.814  22.029  14.907
19013W        W91427  26.528  10.222  14.314
19014W        W91428  23.155   7.338  10.447
19015W        W91429  36.394   8.297   3.328
19016W        W91430  28.593  20.207   3.193
19017W        W91431   1.259  28.647  10.900
19018W        W91432  34.097   0.400   2.242
19019W        W91433  28.535  43.331  14.797
19020W        W91434   5.884  42.373   9.545
19021W        W91435  22.171  44.973   1.430
19022W        W91436   8.786  43.324  14.969
19023W        W91437  31.580  22.624  13.394
19024W        W91438  39.506  20.640   3.724
19025W        W91439  39.505  18.184   2.342
19026W        W91440  38.077  16.255   1.763
19027W        W91441  44.260  27.635  10.947
19028W        W91442  43.823  11.148   4.326
19029W        W91443  21.175   0.750   2.817
19030W        W91444   2.818  12.198   2.707
19031W        W91445   2.454  42.465  13.847
19032W        W91446  31.591  23.224  10.941
19033W        W91447  29.631   6.368  12.496
19034W        W91448  42.328   6.264  11.974
19035W        W91449  12.757  21.075   2.303
19036W        W91450   7.261   1.298  11.462
19037W        W91451   3.380  37.861   4.181
19038W        W91452   7.193  12.772   1.772
19039W        W91453  15.129  19.559  11.090
19040W        W91454  41.962  11.683   5.256
19041W        W91455  18.127  12.702  11.940
19042W        W91456  22.526   4.227  13.529
19043W        W91457  29.479  40.994  13.431
19044W        W91458  30.049  32.428   3.368
19045W        W91459   7.892  33.093   4.289
19046W        W91460  30.451   5.384  10.487
19047W        W91461  16.588  17.206   3.351
19048W        W91462  16.226  24.169   0.866
19049W        W91463  23.154  36.416   1.372
19050W        W91464  32.559  25.548   3.256
19051W        W91465  32.121   1.751   0.441
19052W        W91466  12.762  15.264  11.030
19053W        W91467  10.266  27.687  12.943
19054W        W91468  20.150  22.557   0.967
19055W        W91469  10.744   8.201  11.383
19056W        W91470  37.404  31.481  10.451
19057W        W91471  30.414  29.037  13.874
19058W        W91472  26.161  41.830   2.381
19059W        W91473  42.028  44.268   0.423
19060W        W91474  24.576  38.336  12.875
19061W        W91475  39.449  15.714  13.999
19062W        W91476  11.841  28.954  14.889
19063W        W91477  32.462  30.972  13.992
19064W        W91478   0.816  42.970  12.426
19065W        W91479  17.124  32.580   1.724
19066W        W91480  27.517  21.138   9.998
19067W        W91481  26.967  41.438  13.914
19068W        W91482  10.767   4.795   2.263
19069W        W91483  14.326  23.201   2.795
19070W        W91484  22.014  30.597  13.860
19071W        W91485  17.280  34.480  11.478
19072W        W91486  30.057  16.790   1.311
19073W        W91487  23.647  39.413  13.998
19074W        W91488  34.044  22.745   2.868
19075W        W91489  40.426  36.952   4.651
19076W        W91490  30.986  11.184  12.847
19077W        W91491  37.044   5.790  12.932
19078W        W91492  17.202  26.659   1.896
19079W        W91493   1.379   6.692  11.907
19080W        W91494  34.568  24.613  12.954
19081W        W91495  23.050  14.590  12.458
19082W        W91496  28.131  22.091  14.437
19083W        W91497  11.261  32.894  13.836
19084W        W91498   5.863  14.765  12.087
19085W        W91499  24.089  22.224   4.756
19086W        W91500  23.051  34.462  12.557
19087W        W91501  38.408  44.991  12.905
19088W        W91502  18.570  41.353   0.367
19089W        W91503   3.712  34.111  11.990
19090W        W91504  28.116  34.036   1.895
19091W        W91505   3.230  27.690   4.242
19092W        W91506  43.779  24.506  13.466
19093W        W91507  10.657  17.229   1.342
19094W        W91508  33.432  34.026   3.683
19095W        W91509  15.743  20.172  10.041
19096W        W91510  21.207  26.693   2.883
19097W        W91511  42.315   5.289  11.970
19098W        W91512  39.446   1.961   1.382
19099W        W91513  13.203  25.504  14.474
19100W        W91514   0.868  25.191  10.004
19101W        W91515  22.508   5.816  10.551
19102W        W91516   1.402  41.332   4.233
19103W        W91517  13.226  37.495  12.032
19104W        W91518  14.715  37.075   0.377
19105W        W91519   9.395  38.396  12.062
19106W        W91520  22.167   9.823   3.821
19107W        W91521  20.049  31.572  14.388
19108W        W91522  28.525   2.861   1.873
19109W        W91523  12.176  38.905   4.717
19110W        W91524  17.080  27.653  12.381
19111W        W91525   6.701  17.188  11.943
19112W        W91526  18.125  24.222  11.468
19113W        W91527  44.815   9.651   3.849
19114W        W91528  10.382  12.136   5.225
19115W        W91529  40.437  37.487   3.769
19116W        W91530  16.655  29.037   3.340
19117W        W91531  13.146   0.771  12.381
19118W        W91532   7.247  14.311   3.262
19119W        W91533  16.271  32.605  14.843
19120W        W91534  16.646  22.135  13.855
19121W        W91535  14.809  32.065  11.608
19122W        W91536   5.424  15.293   1.312
19123W        W91537  37.039  34.465  13.900
19124W        W91538  40.463   9.723  12.017
19125W        W91539   3.751  38.073   0.442
19126W        W91540  13.190  10.349  13.455
19127W        W91541  40.984  34.889   3.217
19128W        W91542  21.205   4.352  11.985
19129W        W91543  10.219  27.143  10.451
19130W        W91544  31.591  16.198  10.430
19131W        W91545  42.825  14.829   3.208
19132W        W91546  26.627  25.032   4.804
19133W        W91547  24.988  40.528   2.179
19134W        W91548  18.691   0.317  13.441
19135W        W91549  34.457  31.454   1.433
19136W        W91550   0.807  11.699   1.318
19137W        W91551  30.149  36.049   4.171
19138W        W91552   9.680  17.566   2.847
19139W        W91553   2.404  17.141  12.852
19140W        W91554  12.358  23.694  13.310
19141W        W91555  12.137  18.185  13.892
19142W        W91556  20.269  25.696  10.916
19143W        W91557  41.295   7.734   3.833
19144W        W91558  10.342  41.868  13.544
19145W        W91559  19.778  38.333  13.538
19146W        W91560  21.036  25.084   2.384
19147W        W91561   6.759  35.448  12.404
19148W        W91562  20.728  31.558  11.383
19149W        W91563  41.397  23.521  14.475
19150W        W91564  41.891   3.933  14.305
19151W        W91565  29.610  33.935   1.361
19152W        W91566   6.183  26.495   4.288
19153W        W91567  26.475  41.358   1.778
19154W        W91568   4.318  26.682   2.183
19155W        W91569  22.083  27.085   3.665
19156W        W91570  40.840   4.232  14.399
19157W        W91571   0.386   2.833  11.052
19158W        W91572  44.485  30.126   4.317
19159W        W91573  28.516  24.622   1.909
19160W        W91574  31.967  39.537  14.320
19161W        W91575   6.199   5.847   2.332
19162W        W91576   0.436  32.435  13.016
19163W        W91577  23.049   9.834  14.424
19164W        W91578  38.523  16.134  12.003
19165W        W91579  36.882  23.236  10.419
19166W        W91580  42.362  39.924  14.866
19167W        W91581  27.187  14.295   4.195
19168W        W91582   2.399  13.641   3.641
19169W        W91583   7.667  15.740   0.922
19170W        W91584  43.787  34.933   1.211
19171W        W91585  27.489   2.405  11.604
19172W        W91586   1.245  40.886  11.856
19173W        W91587  37.079  31.971   0.363
19174W        W91588  24.114  26.207  11.014
19175W        W91589  40.026  22.152   0.961
19176W        W91590  43.333  37.463   2.754
19177W        W91591  11.295  44.753   3.366
19178W        W91592   9.796  25.508   0.386
19179W        W91593  26.701  31.025  14.507
19180W        W91594  44.818  15.280  10.622
19181W        W91595  37.920  37.579   1.414
19182W        W91596  11.254  39.374   3.170
19183W        W91597  25.712   7.859  11.917
19184W        W91598  44.867  25.206   2.270
19185W        W91599   2.819   8.783  14.928
19186W        W91600  43.443   2.423  13.508
19187W        W91601  21.758   1.787  11.013
19188W        W91602  36.485  42.784   3.804
19189W        W91603  44.759   7.236   1.320
19190W        W91604   5.233   4.840   1.726
19191W        W91605   5.804  36.971  14.383
19192W        W91606  41.486  28.130  14.032
19193W        W91607   6.246   3.735   4.618
19194W        W91608  16.645  44.415  10.079
19195W        W91609  12.808  26.201  11.508
19196W        W91610  22.050   6.769   3.350
19197W        W91611  23.000  27.604   3.677
19198W        W91612  29.971  25.016   0.843
19199W        W91613  26.612  27.549  11.571
19200W        W91614  15.222  40.942  13.838
19201W        W91615  15.622  33.026   1.847
19202W        W91616   1.812  42.399   4.782
19203W        W91617  33.386  30.013   3.343
19204W        W91618   3.711  25.029  13.932
19205W        W91619  34.460   8.682   3.239
19206W        W91620  23.133  42.936  13.372
19207W        W91621  14.741  32.924   2.252
19208W        W91622  15.583  11.633  10.527
19209W        W91623  24.175  12.825   3.156
19210W        W91624  16.160  10.667   3.739
19211W        W91625  39.030  37.493  14.890
19212W        W91626   1.843  41.894   0.354
19213W        W91627  19.104  27.505   0.935
19214W        W91628  20.144  21.061   1.211
19215W        W91629  13.156   7.405   0.277
19216W        W91630  28.155  33.938  11.603
19217W        W91631   5.831  27.141  11.960
19218W        W91632   6.694   2.879  14.379
19219W        W91633  23.609  15.649   0.890
19220W        W91634  23.123  19.753  13.506
19221W        W91635  33.623  33.994  14.824
19222W        W91636  31.512  34.110   2.863
19223W        W91637  42.500  32.128  10.446
19224W        W91638  19.089  33.608  11.055
19225W        W91639  13.717  19.668   2.358
19226W        W91640  42.941  21.624   2.810
19227W        W91641  36.533  32.048  11.023
19228W        W91642  12.625  28.439   2.378
19229W        W91643   1.297  27.171  11.912
19230W        W91644  19.565  28.637  11.105
19231W        W91645  32.473   8.406  14.931
19232W        W91646   4.323  32.109   3.866
19233W        W91647   1.900  41.393   2.388
19234W        W91648   0.945  18.558  11.011
19235W        W91649  32.510  40.931  10.514
19236W        W91650  23.076   4.289  13.901
19237W        W91651  30.048   8.269  11.462
19238W        W91652  35.938   9.203  14.491
19239W        W91653  21.535  14.316   4.782
19240W        W91654  43.288  22.169  14.992
19241W        W91655  12.853  17.620   9.984
19242W        W91656  41.373  18.168  13.803
19243W        W91657  24.721  17.739  13.340
19244W        W91658  41.499   9.302   4.816
19245W        W91659   9.275  13.642   2.696
19246W        W91660   0.448  17.208   4.684
19247W        W91661  32.474  16.620   3.677
19248W        W91662   5.390  22.103   1.759
19249W        W91663  18.070  26.999  12.505
19250W        W91664  14.834  43.424   2.720
19251W        W91665  16.805   8.821  12.533
19252W        W91666   7.753  22.695  12.864
19253W        W91667  18.274  12.208   1.321
19254W        W91668  20.591  15.752   3.155
19255W        W91669  36.442  35.081   0.760
19256W        W91670  42.297   4.252  14.002
19257W        W91671  42.892  25.174   3.630
19258W        W91672  11.750  34.392   3.312
19259W        W91673   8.774  20.263   1.863
19260W        W91674  43.997   2.470   1.395
19261W        W91675   1.908   2.956  12.480
19262W        W91676   7.792  40.494   1.399
19263W        W91677  39.420   7.179  12.386
19264W        W91678  40.000  24.123   0.738
19265W        W91679  32.949  11.635  10.958
19266W        W91680  43.932  18.192   0.823
19267W        W91681   3.350  40.005   1.217
19268W        W91682  34.095   7.753  11.008
19269W        W91683  29.665  41.797  11.542
19270W        W91684  27.102  35.037   0.783
19271W        W91685   7.792  20.034   1.842
19272W        W91686  44.396  37.465  10.146
19273W        W91687  24.167  21.184  14.314
19274W        W91688  26.503  36.065   3.381
19275W        W91689  33.585  28.050   0.318
19276W        W91690  35.582   8.802   0.460
19277W        W91691  33.892   7.219  13.977
19278W        W91692  11.317  34.993  12.518
19279W        W91693  25.972  36.573  11.591
19280W        W91694  36.541   2.880  10.578
19281W        W91695   1.466  40.007  14.968
19282W        W91696  11.798  35.379  11.585
19283W        W91697   0.360  21.059   0.918
19284W        W91698  31.090  44.931   0.296
19285W        W91699  27.628   1.353  14.516
19286W        W91700  21.201   5.276   0.844
19287W        W91701  40.931  13.604  11.542
19288W        W91702  37.061  44.431   3.732
19289W        W91703  17.159   3.259  11.036
19290W        W91704  29.655  44.477   2.868
19291W        W91705  41.800   1.919   0.955
19292W        W91706  31.938  36.851   1.378
19293W        W91707  36.926   6.847   4.236
19294W        W91708  19.169  31.972  14.915
19295W        W91709  25.642  41.805  11.116
19296W        W91710  35.092  31.487   3.793
19297W        W91711  21.234  25.693  13.387
19298W        W91712  13.677  32.111   1.404
19299W        W91713  29.024  26.181  13.849
19300W        W91714  39.477  43.879  14.794
19301W        W91715  34.037  43.810   0.385
19302W        W91716  43.400  21.532   4.270
19303W        W91717   0.956  40.417   2.793
19304W        W91718  12.637  10.165   4.123
19305W        W91719   4.327  36.564  11.000
19306W        W91720  29.585   9.808  10.459
19307W        W91721  30.546  38.060   2.774
19308W        W91722  13.279  19.067  11.069
19309W        W91723  25.140  40.332  10.474
19310W        W91724  30.118  10.272  12.971
19311W        W91725  33.108  44.759  12.492
19312W        W91726   3.952   7.873   3.188
19313W        W91727   6.702  36.542   2.225
19314W        W91728  25.489  33.623  12.497
19315W        W91729   1.859  22.203  11.001
19316W        W91730  35.472  21.539   5.239
19317W        W91731  31.609  17.648  13.540
19318W        W91732  35.572   9.328   0.287
19319W        W91733  10.345   2.772   1.890
19320W        W91734  12.619  18.762  14.441
19321W        W91735  15.629  44.259  13.823
19322W        W91736  15.644  37.473   0.773
19323W        W91737  13.760   3.887  11.568
19324W        W91738   5.416  12.275  12.468
19325W        W91739  11.761  38.531  10.494
19326W        W91740  25.541  20.122   3.251
19327W        W91741  21.621  29.654   0.947
19328W        W91742  25.060  35.406   3.655
19329W        W91743   9.714  32.006  13.487
19330W        W91744   5.269  34.608   2.871
19331W        W91745  34.984  21.215  13.306
19332W        W91746  11.755   3.921  12.067
19333W        W91747  33.530  12.814  11.070
19334W        W91748  27.983  32.512   0.776
19335W        W91749  33.977  28.533   3.817
19336W        W91750   1.936  16.084   2.782
19337W        W91751  11.768  16.761  12.017
19338W        W91752  21.099  24.975  14.428
19339W        W91753  41.875  38.527  12.936
19340W        W91754  10.177   9.214  14.828
19341W        W91755   7.854  25.553  11.507
19342W        W91756   8.164  33.989  14.412
19343W        W91757  27.463  35.492   2.886
19344W        W91758  13.257  12.731   1.697
19345W        W91759  39.917  23.140  13.933
19346W        W91760  33.010  27.973  11.884
19347W        W91761   3.785  12.299  13.829
19348W        W91762  35.108  40.928   4.303
19349W        W91763  28.142  20.243  14.916
19350W        W91764   9.887   8.210  14.482
19351W        W91765  19.071  10.254   2.399
19352W        W91766  14.715   0.369  12.360
19353W        W91767  14.165  30.954  10.628
19354W        W91768  22.550  28.605  14.475
19355W        W91769  30.456  36.426   2.329
19356W        W91770  36.350  17.281  13.327
19357W        W91771  18.198  43.871  12.451
19358W        W91772  18.124  12.722  14.842
19359W        W91773   4.404  33.999   1.753
19360W        W91774  10.334  16.724  13.887
19361W        W91775   8.184   2.356  11.010
19362W        W91776  35.050   6.324  11.473
19363W        W91777  23.493  32.022  14.812
19364W        W91778  16.698   2.335   4.236
19365W        W91779   4.221   4.783  11.435
19366W        W91780  24.220  31.557  13.923
19367W        W91781  25.594  21.521  11.861
19368W        W91782  36.364  28.497   3.812
19369W        W91783  27.657  28.044   2.343
19370W        W91784   9.167   0.379   0.904
19371W        W91785  18.703  36.361  13.944
19372W        W91786  30.008  25.565  14.430
19373W        W91787   0.421  27.584   4.312
19374W        W91788  42.380  13.669   2.666
19375W        W91789  25.585  27.006   1.739
19376W        W91790  15.285   4.707   2.893
19377W        W91791  14.736   3.886  13.547
19378W        W91792   8.780  42.427  14.943
19379W        W91793   5.287  13.328   5.769
19380W        W91794  30.543   3.453  11.606
19381W        W91795  35.044  37.922  12.828
19382W        W91796  41.829  40.509   4.762
19383W        W91797  32.079   6.885   2.732
19384W        W91798  22.669  22.062   1.784
19385W        W91799  11.254   8.890   1.744
19386W        W91800  28.494  34.397  11.018
19387W        W91801  27.121  40.869  10.994
19388W        W91802  10.368  29.644  10.542
19389W        W91803  26.646  23.670   3.768
19390W        W91804  32.506  11.176  12.546
19391W        W91805  16.619   3.804  14.450
19392W        W91806   0.285  36.988   0.398
19393W        W91807  36.887  39.815   2.404
19394W        W91808  33.597  24.520   4.700
19395W        W91809   1.845  16.309  10.446
19396W        W91810   8.266  23.712   3.637
19397W        W91811  20.643  20.737  12.524
19398W        W91812  29.088  33.488  12.432
19399W        W91813   2.856  12.720   2.206
19400W        W91814  43.966   6.747  12.044
19401W        W91815  32.995  37.538   0.404
19402W        W91816  16.585  34.380  12.536
19403W        W91817   6.285  31.006   4.810
19404W        W91818  28.605  30.007  13.970
19405W        W91819  44.380   6.354  14.860
19406W        W91820   2.737  38.504   3.798
19407W        W91821  14.782  22.246  10.913
19408W        W91822  36.922  15.300  12.529
19409W        W91823  40.926  19.713  13.930
19410W        W91824  34.603   0.800  10.988
19411W        W91825  27.573  32.526  11.403
19412W        W91826   1.368  21.033  14.280
19413W        W91827  39.874  17.277  13.057
19414W        W91828   6.407  33.965   4.779
19415W        W91829  20.611  41.462  11.489
19416W        W91830  42.873   3.926   3.684
19417W        W91831   3.400   0.430  13.953
19418W        W91832  43.890  38.488   3.850
19419W        W91833  31.529  19.191   1.897
19420W        W91834   4.359  15.222   1.226
19421W        W91835  43.941  44.820  11.993
19422W        W91836  19.235  43.952  14.770
19423W        W91837  27.599   1.800  13.946
19424W        W91838  42.345  30.122  11.950
19425W        W91839  19.267  39.010   0.441
19426W        W91840  30.479   5.885   0.455
19427W        W91841   0.901  14.312   4.216
19428W        W91842  20.129  22.007   4.613
19429W        W91843  33.383  29.143  14.906
19430W        W91844  31.079  35.523  13.419
19431W        W91845  32.442  40.525  11.471
19432W        W91846  30.039   5.198   2.255
19433W        W91847  15.119  41.858   4.271
19434W        W91848  17.668   8.735   2.331
19435W        W91849  35.374  11.134  12.090
19436W        W91850  31.543  19.221   1.269
19437W        W91851  13.670  20.557   4.204
19438W        W91852  38.386  31.519  12.911
19439W        W91853  31.436  36.845  13.513
19440W        W91854   0.323  12.627  10.511
19441W        W91855  31.150  25.987   3.740
19442W        W91856   6.687  17.611   4.175
19443W        W91857  15.746  12.794   1.885
19444W        W91858  18.067  24.610   4.156
19445W        W91859  11.808  27.054  12.860
19446W        W91860  21.659   0.907   0.815
19447W        W91861  32.897  30.992  10.976
19448W        W91862  44.503   1.413   0.886
19449W        W91863  32.443   2.427   2.817
19450W        W91864   7.293  24.155   3.735
19451W        W91865  12.150  29.113   0.854
19452W        W91866  35.093  24.059  10.058
19453W        W91867  43.427  31.949   3.747
19454W        W91868  37.541  31.909   4.724
19455W        W91869  38.404   8.885  13.989
19456W        W91870  22.694  29.933   0.796
19457W        W91871  35.013  14.231   1.836
19458W        W91872  30.538  41.309   4.344
19459W        W91873  21.554  36.452   2.283
19460W        W91874  41.955  40.975   1.696
19461W        W91875  31.455  14.147   1.396
19462W        W91876  28.560  26.044  10.965
19463W        W91877  43.343   9.179   2.857
19464W        W91878  36.535   3.234   0.284
19465W        W91879   4.788  25.046  10.902
19466W        W91880  37.376  43.338   3.179
19467W        W91881  15.109  25.206   3.234
19468W        W91882  21.151  42.406   3.846
19469W        W91883  29.513  16.613   2.708
19470W        W91884  38.528   7.222   4.757
19471W        W91885  13.196  29.937  13.531
19472W        W91886  31.963  10.348  13.908
19473W        W91887  19.160  17.732  13.835
19474W        W91888   5.865  38.886   1.271
19475W        W91889  36.093  14.127   0.246
19476W        W91890  38.412  21.758   0.856
19477W        W91891  23.050   9.152   2.703
19478W        W91892  37.544  17.115  12.880
19479W        W91893  39.989   6.880   0.736
19480W        W91894  11.337   9.687  12.951
19481W        W91895  41.835  23.086   2.780
19482W        W91896  38.405  28.081   3.380
19483W        W91897  10.309   3.333   3.327
19484W        W91898   0.765  36.588   0.296
19485W        W91899   5.929  40.880  13.481
19486W        W91900  35.363  39.541   0.875
19487W        W91901  23.015  44.811  13.480
19488W        W91902   4.735  42.857   1.332
19489W        W91903   6.799  17.115  14.885
19490W        W91904   9.272  15.660  14.014
19491W        W91905  26.078  30.591   1.772
19492W        W91906  43.941  26.482  13.369
19493W        W91907  38.942  39.941   0.301
19494W        W91908  35.451  28.650  12.534
19495W        W91909  19.069  14.755   3.198
19496W        W91910   7.341  17.154   2.373
19497W        W91911  35.477  23.236   4.219
19498W        W91912  34.381  16.279   1.879
19499W        W91913  11.239   2.784   1.294
19500W        W91914  14.806  19.700   1.877
19501W        W91915  14.808  10.316   1.296
19502W        W91916  40.509  10.157  11.443
19503W        W91917  24.171  34.427   0.473
19504W        W91918  37.459  18.721   2.204
19505W        W91919  29.031   8.673  14.468
19506W        W91920  40.897  24.595  11.997
19507W        W91921  14.109  30.113  12.921
19508W        W91922  36.424  22.147  12.469
19509W        W91923  28.442  39.871  14.427
19510W        W91924  29.065  33.382  13.309
19511W        W91925   9.768   2.228  12.865
19512W        W91926  24.040  36.437  14.874
19513W        W91927  35.971  34.611  10.458
19514W        W91928   4.854   7.298  10.645
19515W        W91929   3.862  25.699  10.062
19516W        W91930  20.523   2.936  10.589
19517W        W91931  32.568   2.783   4.216
19518W        W91932  15.763  10.379   0.819
19519W        W91933  39.925  35.450   3.796
19520W        W91934   6.851  15.243  13.840
19521W        W91935  29.057  41.348  11.091
19522W        W91936   7.719  31.489  11.921
19523W        W91937  44.424  15.255  14.837
19524W        W91938  13.608  39.848  11.385
19525W        W91939  43.999  24.043  12.890
19526W        W91940  25.485  13.625  11.505
19527W        W91941  13.690  34.894   4.278
19528W        W91942  38.435  39.444   2.846
19529W        W91943  23.043  41.835   0.937
19530W        W91944  10.831   2.726  11.016
19531W        W91945  23.027  44.860  14.856
19532W        W91946  24.550  16.741  13.355
19533W        W91947  41.424   3.937   2.316
19534W        W91948  22.638  19.699  12.846
19535W        W91949  23.582   4.757   1.723
19536W        W91950  15.750  14.616  13.797
19537W        W91951  27.989  25.988  14.477
19538W        W91952   2.471  30.513   0.786
19539W        W91953   6.239  11.289  14.390
19540W        W91954   1.844  31.611   4.833
19541W        W91955   9.370  41.533   1.722
19542W        W91956  26.695  22.586  13.033
19543W        W91957   9.154  13.352  13.322
19544W        W91958   5.717  20.634   3.721
19545W        W91959  26.675  29.551   0.773
19546W        W91960  29.148  13.831  14.774
19547W        W91961  22.549  20.535  12.859
19548W        W91962  33.026  11.173   0.775
19549W        W91963   6.281  18.120  11.929
19550W        W91964  21.536  34.958  12.921
19551W        W91965  25.112  16.620   1.287
19552W        W91966  41.022   7.215  10.924
19553W        W91967  13.611   0.826  13.382
19554W        W91968   6.418   0.856   2.762
19555W        W91969  39.047  41.926   1.702
19556W        W91970  26.193  11.226   4.172
19557W        W91971   0.908   1.238  14.807
19558W        W91972  25.065   2.761   3.372
19559W        W91973  29.526  24.651  10.516
19560W        W91974  36.491  43.792  14.970
19561W        W91975  36.388  18.058   1.409
19562W        W91976  33.127  18.664  11.058
19563W        W91977   5.763  35.881  14.414
19564W        W91978   9.346  31.055  12.382
19565W        W91979  38.927  13.687   0.865
19566W        W91980  44.945  17.582   2.677
19567W        W91981  17.122  18.168   0.967
19568W        W91982  22.239   9.655  14.457
19569W        W91983  33.884   7.764  12.550
19570W        W91984   7.280  27.459  13.925
19571W        W91985  28.066   3.722   1.871
19572W        W91986  30.597  39.847  12.572
19573W        W91987  29.509   5.803  11.934
19574W        W91988   7.286  31.452  10.481
19575W        W91989  16.080  10.169  12.402
19576W        W91990  20.549   2.281   2.708
19577W        W91991  33.471  38.446  13.463
19578W        W91992  10.284  30.480   1.785
19579W        W91993   0.270   5.819   0.811
19580W        W91994  30.503  30.142  14.002
19581W        W91995  22.234   9.773  10.520
19582W        W91996  17.619  12.226   2.774
19583W        W91997  13.723  18.222  12.384
19584W        W91998  39.018  32.025   3.259
19585W        W91999   7.221  30.483   3.777
19586W        W92000  31.937  22.611   3.804
19587W        W92001   3.822   9.675  13.363
19588W        W92002   1.428  13.193  10.504
19589W        W92003  27.961  29.124  12.513
19590W        W92004  24.710  39.017   0.409
19591W        W92005  34.996   5.264  14.792
19592W        W92006  19.284  27.126  12.393
19593W        W92007  31.482  21.550   4.682
19594W        W92008  14.246  20.222  10.521
19595W        W92009  11.800  23.559   3.258
19596W        W92010  22.226  43.920   1.732
19597W        W92011  13.759  24.688  13.410
19598W        W92012  37.339  19.578  13.887
19599W        W92013  20.765  28.142   1.340
19600W        W92014   7.689  41.383   1.349
19601W        W92015   5.213  38.964  11.568
19602W        W92016  15.163  22.685  13.315
19603W        W92017  28.964  39.524  12.911
19604W        W92018  21.191   2.332   3.326
19605W        W92019  31.044  19.604  13.920
19606W        W92020  19.210  21.131  12.091
19607W        W92021  18.106   6.345  14.929
19608W        W92022  34.604  39.850  14.762
19609W        W92023   3.926  26.485  10.902
19610W        W92024  37.079   4.727  13.368
19611W        W92025  20.080  44.326   3.834
19612W        W92026  26.569  31.971  12.448
19613W        W92027  44.291  16.616  11.586
19614W        W92028  17.704  30.476   3.284
19615W        W92029   9.849  24.625   3.217
19616W        W92030   3.888  32.514  11.920
19617W        W92031  15.153  18.728  11.041
19618W        W92032   1.453  22.060  11.588
19619W        W92033  17.156  25.542   2.900
19620W        W92034   7.860  11.815  13.990
19621W        W92035  14.186  40.869  11.000
19622W        W92036  29.624  17.080  12.840
19623W        W92037  44.499   2.405  10.530
19624W        W92038  29.944   1.309   4.635
19625W        W92039  35.535  27.167   4.696
19626W        W92040  18.738  10.869   2.311
19627W        W92041   7.260  27.539  13.353
19628W        W92042   9.341   3.325   1.300
19629W        W92043   0.477  16.225  11.927
19630W        W92044  15.211  24.716   1.411
19631W        W92045  30.547  28.983   1.264
19632W        W92046  29.512  13.692   4.699
19633W        W92047  43.918  26.559   4.771
19634W        W92048   3.247  15.762  11.021
19635W        W92049  22.241  43.776  12.016
19636W        W92050  37.497  43.880   2.376
19637W        W92051  37.966  22.547  12.071
19638W        W92052  19.247  24.481   2.870
19639W        W92053  31.621  20.715  13.499
19640W        W92054  29.548   4.912   4.616
19641W        W92055   4.749  37.021   2.243
19642W        W92056  29.526   2.256  14.303
19643W        W92057  20.074  42.005  11.384
19644W        W92058  31.150  16.675   3.324
19645W        W92059  28.977  34.102  13.389
19646W        W92060   4.387  44.869   0.476
19647W        W92061  10.216  29.932  14.391
19648W        W92062  43.920  44.951   2.735
19649W        W92063  12.221  39.548  13.352
19650W        W92064   6.419  22.021  10.644
19651W        W92065  34.548  29.522   4.278
19652W        W92066  15.790  29.128  12.828
19653W        W92067  27.642  16.633  13.820
19654W        W92068  20.650  33.899  14.295
19655W        W92069   7.868   1.355  13.946
19656W        W92070  22.107  39.355  11.416
19657W        W92071  33.971  21.634   2.898
19658W        W92072  30.496  44.881  13.535
19659W        W92073  38.333  31.099  13.952
19660W        W92074  17.722   3.306  13.848
19661W        W92075   5.330   5.306   3.269
19662W        W92076  37.084  27.071  14.764
19663W        W92077  37.967  28.500   1.347
19664W        W92078  25.177   0.946  13.951
19665W        W92079   0.975   1.362   3.778
19666W        W92080  42.375   8.731  12.850
19667W        W92081  35.499  40.547   2.335
19668W        W92082  37.002   4.380   0.741
19669W        W92083  36.361  31.139  12.847
19670W        W92084  41.301  38.474   0.967
19671W        W92085   4.932   3.415  14.356
19672W        W92086  18.064  44.440  11.055
19673W        W92087  22.091  22.109  13.507
19674W        W92088  32.914   7.295   4.713
19675W        W92089  11.290  35.379   2.276
19676W        W92090  31.647  27.555  10.497
19677W        W92091  21.127  41.413   4.146
19678W        W92092  26.068  36.862   0.790
19679W        W92093  27.523  32.592   2.401
19680W        W92094  23.645  41.810   3.342
19681W        W92095   4.409  29.137  10.954
19682W        W92096   4.361   9.220   3.260
19683W        W92097  42.849   0.275   3.849
19684W        W92098  37.081  30.133  13.322
19685W        W92099  11.787  17.134  12.879
19686W        W92100  40.367  38.552   1.813
19687W        W92101  25.517  10.680   1.835
19688W        W92102  11.363  23.009  13.477
19689W        W92103  22.125  19.284  11.881
19690W        W92104  41.414  17.746   4.813
19691W        W92105  30.532  16.231  12.051
19692W        W92106  23.713  27.178   1.256
19693W        W92107  43.820  16.226   0.435
19694W        W92108  40.032  40.004   1.896
19695W        W92109  42.787  37.515   4.256
19696W        W92110  16.608   8.237   3.207
19697W        W92111  40.522  35.921  12.038
19698W        W92112  41.817  13.344  13.389
19699W        W92113  41.024   0.318   4.605
19700W        W92114  16.632  19.780  14.901
19701W        W92115  25.666   0.963  10.998
19702W        W92116  14.788   4.376   0.441
19703W        W92117  24.704  24.156   0.921
19704W        W92118  32.937  40.340   4.204
19705W        W92119  33.074  10.271   2.805
19706W        W92120  35.946   9.778   4.793
19707W        W92121  37.914  36.963  10.553
19708W        W92122   2.911  27.062   2.855
19709W        W92123  21.511  30.546  12.008
19710W        W92124  32.522  23.598   2.272
19711W        W92125  23.618   7.389  12.071
19712W        W92126  16.258   9.230  13.877
19713W        W92127  39.971  42.445  14.474
19714W        W92128  37.380  43.385  12.922
19715W        W92129   6.923  19.125  14.889
19716W        W92130  20.060  29.627  11.115
19717W        W92131  33.994  15.750  10.942
19718W        W92132  41.388  29.016   2.312
19719W        W92133  28.074   1.454   3.253
19720W        W92134  21.160  18.707   1.413
19721W        W92135  33.041  27.673  12.824
19722W        W92136  44.900   2.913   4.632
19723W        W92137  37.514  39.987   4.296
19724W        W92138  25.646   7.199  14.987
19725W        W92139  13.112   2.832  13.525
19726W        W92140   7.902   8.711   3.161
19727W        W92141  34.097  13.761   2.842
19728W        W92142  30.943  34.958  14.931
19729W        W92143   3.943   9.760  13.966
19730W        W92144  34.383  16.626   2.811
19731W        W92145  22.633  14.709  10.952
19732W        W92146   3.374  24.035   3.329
19733W        W92147   8.854  14.751  13.996
19734W        W92148  23.049  11.753   0.472
19735W        W92149   3.869  34.487   2.813
19736W        W92150  22.567  37.069  14.020
19737W        W92151  38.880  11.638   0.798
19738W        W92152  23.029  27.028   3.792
19739W        W92153   7.863  29.955  11.575
19740W        W92154  16.602  24.715   0.484
19741W        W92155  18.173  29.009   3.273
19742W        W92156  32.938  35.363  11.610
19743W        W92157   3.851  37.488   0.923
19744W        W92158  19.086   8.839  10.923
19745W        W92159  29.971   9.156   0.788
19746W        W92160   7.693  25.025   4.131
19747W        W92161  10.805  23.666  11.996
19748W        W92162  18.176  16.591   0.747
19749W        W92163  30.443   5.397   0.315
19750W        W92164  16.196  25.993  14.468
19751W        W92165  27.622  20.644   3.870
19752W        W92166  43.396   8.368   1.887
19753W        W92167  14.254   3.890   0.768
19754W        W92168  24.157  44.354   3.673
19755W        W92169   0.414   7.736   1.861
19756W        W92170  35.984  34.950  11.523
19757W        W92171  27.659  15.616   1.243
19758W        W92172   9.294  33.481   4.211
19759W        W92173  40.391  31.542   3.345
19760W        W92174  14.651  33.413  10.978
19761W        W92175   8.683   3.283   1.336
19762W        W92176  20.602  26.982   3.830
19763W        W92177   3.429  32.001   0.936
19764W        W92178  12.820   8.241   5.219
19765W        W92179  26.997  25.011  12.986
19766W        W92180  19.138   3.780   1.377
19767W        W92181  28.530  34.579  12.002
19768W        W92182   8.831  13.121   4.128
19769W        W92183   4.772  13.615  13.464
19770W        W92184  15.321  21.649   3.851
19771W        W92185  31.456  24.126  13.381
19772W        W92186  37.858  20.218   0.283
19773W        W92187   2.366  24.607  11.960
19774W        W92188   9.738  16.759   4.654
19775W        W92189  34.453  29.000  11.527
19776W        W92190   2.372   8.275   4.265
19777W        W92191  18.117  30.110   0.396
19778W        W92192  26.586  35.549   3.195
19779W        W92193  44.483  14.772  13.848
19780W        W92194  21.029  39.320   4.696
19781W        W92195  38.406  40.412   4.635
19782W        W92196  18.249   6.414   4.262
19783W        W92197  42.785  18.610   0.958
19784W        W92198  42.479  14.292  13.892
19785W        W92199  26.967  37.910   2.361
19786W        W92200  17.564  27.988  14.434
19787W        W92201   8.875   8.786  13.014
19788W        W92202  26.043  16.195   3.371
19789W        W92203  35.970  38.864   0.732
19790W        W92204  35.013  31.925   3.772
19791W        W92205  42.006  16.280  12.841
19792W        W92206   0.308   9.750  11.532
19793W        W92207   1.409  33.052  11.418
19794W        W92208   7.350  23.587  11.049
19795W        W92209   2.360   2.378  10.638
19796W        W92210  36.951  26.151   3.666
19797W        W92211  41.921  12.267   0.316
19798W        W92212   0.358  29.599  12.344
19799W        W92213   9.827  36.094  14.318
19800W        W92214  30.081  13.745   4.735
19801W        W92215  31.911  43.480   3.257
19802W        W92216  31.606  31.562   2.774
19803W        W92217  14.753  26.587   0.915
19804W        W92218  15.200  31.475   2.183
19805W        W92219   6.680  43.332   0.880
19806W        W92220  30.447   6.401   4.347
19807W        W92221   1.934   4.445   3.740
19808W        W92222  24.183  16.757   2.742
19809W        W92223  29.533   8.272   4.741
19810W        W92224   2.743  27.493  11.412
19811W        W92225  15.156   8.765  13.930
19812W        W92226  18.553   8.899   1.795
19813W        W92227  42.298  26.697  10.117
19814W        W92228  25.097  35.895  13.439
19815W        W92229   9.851  43.295   4.677
19816W        W92230  31.958  16.207   1.286
19817W        W92231  18.104   0.907   0.385
19818W        W92232  33.423  10.262  10.497
19819W        W92233  41.509  42.319  11.071
19820W        W92234   4.264  12.244   1.896
19821W        W92235  22.614  39.502   4.325
19822W        W92236  16.810   2.931  12.566
19823W        W92237  38.457  32.076   2.417
19824W        W92238  37.522  12.339  14.849
19825W        W92239   3.862   3.416   0.960
19826W        W92240  22.717   7.666  14.322
19827W        W92241  31.140  34.478  11.570
19828W        W92242  30.958   4.312   0.913
19829W        W92243  29.146  31.079   4.329
19830W        W92244  39.035  43.461   3.362
19831W        W92245  11.352  40.395  14.450
19832W        W92246  40.941  11.764  10.970
19833W        W92247   1.922  39.886   4.166
19834W        W92248  14.772  16.618   2.251
19835W        W92249  31.942  14.588   4.598
19836W        W92250  10.237  17.777  11.458
19837W        W92251  24.214  20.684  11.495
19838W        W92252   4.860  16.073  13.879
19839W        W92253  15.272  41.420   2.191
19840W        W92254  11.741   4.792  14.857
19841W        W92255   0.378  34.424   3.684
19842W        W92256  31.427  12.289   1.318
19843W        W92257  10.283   3.774   4.676
19844W        W92258  21.517  41.488   3.236
19845W        W92259  21.213  33.515  12.402
19846W        W92260  25.683  27.579   2.266
19847W        W92261  22.100   7.882  14.977
19848W        W92262  40.886  19.208  10.644
19849W        W92263  29.132  18.074  14.280
19850W        W92264  20.039  16.113   4.195
19851W        W92265  33.075  24.173  14.286
19852W        W92266  26.534   5.356   1.763
19853W        W92267  16.796   1.304   4.278
19854W        W92268  40.899  16.777  12.092
19855W        W92269  39.812  42.796   2.286
19856W        W92270  11.253  25.504   0.894
19857W        W92271  31.117  37.405  13.495
19858W        W92272  10.284  38.871   1.404
19859W        W92273   4.386  16.254   9.990
19860W        W92274  36.042   1.273  12.451
19861W        W92275  14.739   5.233   2.846
19862W        W92276  33.028  34.078   2.809
19863W        W92277  38.547  42.001   3.320
19864W        W92278  17.082  38.400  13.012
19865W        W92279  35.445  11.144  11.119
19866W        W92280   1.346  29.004  13.495
19867W        W92281   3.315   5.931   1.749
19868W        W92282  36.916  27.161  11.434
19869W        W92283   4.392  22.014   0.933
19870W        W92284   4.752  27.513   0.837
19871W        W92285  29.566  20.533   3.291
19872W        W92286   9.342  15.744  11.591
19873W        W92287  33.548  15.762   3.345
19874W        W92288  36.028  33.967   0.249
19875W        W92289   4.906  32.424  11.125
19876W        W92290  26.477  25.975  12.012
19877W        W92291  13.727  25.024  10.475
19878W        W92292   3.906   7.376   3.281
19879W        W92293  13.831   3.333   3.329
19880W        W92294   9.671  39.901   3.216
19881W        W92295  28.507  42.458   2.235
19882W        W92296   9.348  13.313   4.688
19883W        W92297  33.574  29.617   4.165
19884W        W92298   4.246  15.636   2.674
19885W        W92299  42.874  29.475  11.430
19886W        W92300  13.192  13.107  14.856
19887W        W92301  42.851   4.840  14.776
19888W        W92302  19.604  32.568   4.333
19889W        W92303   7.788  19.146   4.218
19890W        W92304  16.241  23.108   3.817
19891W        W92305   8.333   0.829   4.328
19892W        W92306  10.163  25.219   5.106
19893W        W92307  23.017  37.045   1.709
19894W        W92308  31.565   9.746  10.422
19895W        W92309  19.737  15.772   0.756
19896W        W92310  40.486  20.557   0.309
19897W        W92311   8.825  30.441   3.180
19898W        W92312  39.019   1.905   2.327
19899W        W92313   4.218   0.477  12.038
19900W        W92314  32.466  17.799   0.281
19901W        W92315  36.983  33.624  10.096
19902W        W92316  15.668   2.314  12.500
19903W        W92317  22.227  38.875  14.440
19904W        W92318  41.998  22.109  12.980
19905W        W92319  24.587  36.540   3.383
19906W        W92320  29.667   1.771  10.450
19907W        W92321  40.398  23.089  13.909
19908W        W92322  30.925  30.152   2.344
19909W        W92323  16.757   2.349  11.468
19910W        W92324  21.621  10.653   3.757
19911W        W92325  24.625  35.429   0.785
19912W        W92326   4.286  37.561   2.825
19913W        W92327  10.779  16.210   1.753
19914W        W92328  17.664  40.364  11.975
19915W        W92329  31.966  40.330   1.718
19916W        W92330  43.314   1.469   4.117
19917W        W92331  30.004  43.477  11.084
19918W        W92332  21.170  25.484  13.832
19919W        W92333  40.836  21.566  14.841
19920W        W92334   0.344  33.939   2.233
19921W        W92335  24.090  16.812   0.866
19922W        W92336  24.587  15.180   9.579
19923W        W92337  27.147   6.887  14.965
19924W        W92338   8.251  15.747  11.928
19925W        W92339  39.406  10.815   4.823
19926W        W92340  40.031  29.991   2.743
19927W        W92341  22.046   7.277   4.114
19928W        W92342  26.626  18.595  12.087
19929W        W92343  10.285  25.630   2.836
19930W        W92344  36.849  14.167  14.465
19931W        W92345  33.601   4.702  14.874
19932W        W92346  32.521  29.949  12.503
19933W        W92347  17.159   9.386   2.277
19934W        W92348  35.087  17.258   3.788
19935W        W92349  19.110  20.115  11.984
19936W        W92350   9.802   5.888   0.946
19937W        W92351  18.768  42.523  10.100
19938W        W92352  44.894  36.943  13.388
19939W        W92353  26.497  26.131   4.752
19940W        W92354  34.045   5.779  10.980
19941W        W92355  24.501  12.143  13.807
19942W        W92356  33.622  16.119   0.800
19943W        W92357  32.624  18.600   4.332
19944W        W92358  14.214  34.950   4.291
19945W        W92359  20.624  32.083  13.543
19946W        W92360  43.018  37.061  10.576
19947W        W92361  38.341  10.719  12.880
19948W        W92362  29.621   2.773   1.928
19949W        W92363  11.639   4.880  10.565
19950W        W92364  12.810  22.722   1.357
19951W        W92365  20.092  38.421  11.525
19952W        W92366  24.491   1.358   4.816
19953W        W92367  13.685  35.958   1.274
19954W        W92368   0.772  42.004  11.030
19955W        W92369  39.546  40.811   0.966
19956W        W92370   6.888  41.423  12.463
19957W        W92371  10.876  21.520  10.888
19958W        W92372  36.893  43.982   1.733
19959W        W92373  22.707   6.721   1.223
19960W        W92374   7.765  26.565  13.040
19961W        W92375  38.349  36.007  12.538
19962W        W92376  38.546   0.984   3.784
19963W        W92377  21.671   0.318   3.816
19964W        W92378  13.306  35.489   4.323
19965W        W92379  33.911  16.269   4.727
19966W        W92380   5.915  25.501  11.958
19967W        W92381  43.513  22.109   3.757
19968W        W92382  21.235  34.610  13.895
19969W        W92383   8.665  33.086  10.928
19970W        W92384   9.683  29.561   3.218
19971W        W92385  22.108  35.478  10.610
19972W        W92386  12.229  26.507  14.380
19973W        W92387  39.910  19.191   4.136
19974W        W92388  38.887   2.726  12.558
19975W        W92389   1.303  34.391   3.171
19976W        W92390  26.127  28.496  11.868
19977W        W92391  21.651  29.644  11.543
19978W        W92392  32.955  18.261  10.978
19979W        W92393  44.302  18.239  12.555
19980W        W92394  28.015  29.588   4.323
19981W        W92395  24.023  17.297  10.593
19982W        W92396  23.113   2.724   1.301
19983W        W92397  27.542  26.501  11.408
19984W        W92398   1.470  27.559  13.479
19985W        W92399  43.976  26.989   4.221
19986W        W92400  13.780  31.567  12.508
19987W        W92401  34.599  10.717   0.766
19988W        W92402   3.428  20.662   3.205
19989W        W92403  30.646  21.137   1.750
19990W        W92404   9.355  28.022   0.418
19991W        W92405  42.795  27.949   3.834
19992W        W92406   4.717   4.932  10.464
19993W        W92407  26.688  15.240   2.667
19994W        W92408   9.368  10.762  11.608
19995W        W92409   1.349  44.312  11.541
19996W        W92410   6.919  18.678   3.696
19997W        W92411  20.706   8.667  14.355
19998W        W92412   2.300  18.271   2.404
19999W        W92413  30.967  14.222   2.381
20000W        W92414   7.302   1.275  12.872
20001W        W92415   9.860  22.571   0.965
20002W        W92416  44.893  19.604  14.493
20003W        W92417  39.865   4.362   2.805
20004W        W92418  33.112  10.770  11.418
20005W        W92419  31.907  38.877  11.613
20006W        W92420  44.354   1.771   2.883
20007W        W92421   6.741   1.905  13.394
20008W        W92422   0.336  44.929  10.532
20009W        W92423  38.829  25.705  11.023
20010W        W92424  11.152  25.126  13.338
20011W        W92425  16.589   1.769   2.359
20012W        W92426  26.151  30.625  10.628
20013W        W92427   8.193  31.993  11.862
20014W        W92428  39.993  37.574  12.849
20015W        W92429  16.611  30.979   2.218
20016W        W92430  28.484   6.789   4.123
20017W        W92431  15.129  35.075   2.844
20018W        W92432   4.418  17.218   1.783
20019W        W92433  36.539   8.336  10.488
20020W        W92434   3.447  43.939   1.806
20021W        W92435  13.340   4.447  12.032
20022W        W92436  17.182  17.799  10.450
20023W        W92437  44.944   9.668  10.407
20024W        W92438  42.519   6.684  10.583
20025W        W92439  30.558  44.393   3.820
20026W        W92440   6.366  42.023  10.982
20027W        W92441  42.362  20.205  14.794
20028W        W92442  26.995  35.896  12.394
20029W        W92443  32.109  12.691  12.423
20030W        W92444  13.695  15.726   1.888
20031W        W92445  29.550  42.948  12.066
20032W        W92446  17.638  16.176   0.456
20033W        W92447  24.208  40.361   3.226
20034W        W92448   8.403  39.918  10.615
20035W        W92449  15.115  16.217  14.322
20036W        W92450  26.670   0.256  12.850
20037W        W92451  28.664   6.852  12.855
20038W        W92452   2.782  21.660   2.696
20039W        W92453   5.200   6.753  11.011
20040W        W92454   3.322  22.637   1.775
20041W        W92455  34.537  35.039  14.327
20042W        W92456  41.012  30.933   1.362
20043W        W92457  29.667  17.280  11.064
20044W        W92458  27.487   9.377   1.859
20045W        W92459  42.425  35.059   3.307
20046W        W92460  32.033  32.908   0.881
20047W        W92461  31.555  27.515   0.945
20048W        W92462  12.335   7.366   3.178
20049W        W92463   0.471   6.357   1.921
20050W        W92464   9.326   8.301   0.881
20051W        W92465   9.753  22.083   1.299
20052W        W92466  29.629  34.490   4.139
20053W        W92467  29.170  43.354  14.303
20054W        W92468  14.322   7.416   1.816
20055W        W92469  24.021  16.610   5.245
20056W        W92470  18.093  44.857   9.981
20057W        W92471   4.783  17.179  11.466
20058W        W92472  42.784  20.758  10.978
20059W        W92473  20.184  28.046   3.673
20060W        W92474  19.737  16.169   2.878
20061W        W92475  44.841   1.436   2.220
20062W        W92476   6.317  15.725   1.882
20063W        W92477  35.098   4.778   4.776
20064W        W92478  39.053  31.630   4.349
20065W        W92479  29.921  22.191   1.449
20066W        W92480  28.183  14.189  14.460
20067W        W92481  35.368  36.492  13.922
20068W        W92482  12.747  30.437  14.806
20069W        W92483  33.389  29.076  12.573
20070W        W92484  38.892  10.862  13.864
20071W        W92485  44.952  42.832  13.501
20072W        W92486  15.277  35.065  13.393
20073W        W92487  16.317  24.547  13.319
20074W        W92488  32.397  34.542  11.082
20075W        W92489  40.549  38.834  13.380
20076W        W92490  10.192  14.627   2.210
20077W        W92491   2.961   8.886   1.266
20078W        W92492  44.496  28.984  14.936
20079W        W92493  44.873   2.786  13.310
20080W        W92494  37.377   9.291   2.896
20081W        W92495  40.843  34.077   1.829
20082W        W92496  18.789  12.229  11.870
20083W        W92497  15.197  29.143   1.301
20084W        W92498  27.580  26.494   1.890
20085W        W92499  24.554   9.362  10.955
20086W        W92500  25.085  31.096  14.767
20087W        W92501  24.532  15.659   0.340
20088W        W92502  32.894  18.645  11.869
20089W        W92503  33.939   1.343   1.255
20090W        W92504  22.745  34.515  13.373
20091W        W92505  16.778  30.436  12.381
20092W        W92506   3.255  29.949  14.799
20093W        W92507   6.259  11.802   3.227
20094W        W92508   4.401  27.586  14.407
20095W        W92509  39.893  13.711   3.282
20096W        W92510  10.229  16.670  13.343
20097W        W92511  27.066  26.970  14.809
20098W        W92512   5.884  32.997  13.853
20099W        W92513   2.398  13.145  12.571
20100W        W92514  29.085  22.016  11.891
20101W        W92515  19.263  43.008   9.961
20102W        W92516   3.812  30.490  11.015
20103W        W92517   4.911   8.328  12.859
20104W        W92518  21.123  11.709   0.963
20105W        W92519  27.151  24.676  13.386
20106W        W92520  12.849  23.643  14.954
20107W        W92521  14.621   7.707  13.925
20108W        W92522  15.316  39.544  12.375
20109W        W92523  18.701   8.375   4.222
20110W        W92524  28.553  33.455   0.450
20111W        W92525  31.968  43.492  14.930
20112W        W92526  13.663   1.922  14.277
20113W        W92527  31.497  14.752   2.297
20114W        W92528   6.299  17.256   0.867
20115W        W92529  26.162  20.548  11.551
20116W        W92530  32.406  41.479   0.273
20117W        W92531  40.035   7.886   2.371
20118W        W92532  12.221  40.363  13.483
20119W        W92533  10.830  26.058  10.585
20120W        W92534  16.171  29.942  12.433
20121W        W92535  18.582  38.383  11.452
20122W        W92536  28.929  41.507   2.265
20123W        W92537  39.880  36.438  13.307
20124W        W92538  25.595  30.610  10.487
20125W        W92539  12.153  44.295  13.954
20126W        W92540  27.007   8.745   5.143
20127W        W92541   1.244   2.226   1.897
20128W        W92542   5.760   7.844   2.239
20129W        W92543   8.797  23.239  13.059
20130W        W92544   0.415  21.589  10.644
20131W        W92545  12.257  21.739  13.988
20132W        W92546  27.066   0.438  13.408
20133W        W92547  20.154   1.737   4.773
20134W        W92548  24.534  39.463   3.328
20135W        W92549  19.760   2.926  10.435
20136W        W92550  17.073  39.981   1.225
20137W        W92551  20.248  19.264   1.740
20138W        W92552  12.806  41.005  14.497
20139W        W92553   0.433  34.453  13.460
20140W        W92554  39.387  24.038   1.277
20141W        W92555   5.345  17.789  11.610
20142W        W92556  43.979  36.896   1.239
20143W        W92557   2.725  29.086  12.933
20144W        W92558  44.349   8.801  12.949
20145W        W92559  22.236  36.385  12.021
20146W        W92560  39.350  11.349   2.179
20147W        W92561   0.777  16.704   0.873
20148W        W92562   3.230   9.383   5.129
20149W        W92563  40.454   5.379  13.341
20150W        W92564  42.349  27.466  10.552
20151W        W92565  35.015  30.017  11.934
20152W        W92566  43.789  40.339   2.711
20153W        W92567   7.174  21.684  14.491
20154W        W92568  12.235  20.608   1.270
20155W        W92569  15.113  36.003   2.277
20156W        W92570  26.185   9.160  10.627
20157W        W92571  13.622  19.571  14.935
20158W        W92572  41.930  23.538  10.997
20159W        W92573   3.236  33.383  11.063
20160W        W92574  11.242   6.824   4.259
20161W        W92575  13.742  15.209   3.666
20162W        W92576   0.472  25.594  14.322
20163W        W92577  32.611  21.619   1.290
20164W        W92578  16.719  14.246   2.840
20165W        W92579  22.541  29.919   1.382
20166W        W92580   7.775  22.666   4.816
20167W        W92581   9.261   8.402   1.216
20168W        W92582  43.285  26.647  12.862
20169W        W92583  26.100  25.137   2.805
20170W        W92584   8.757   2.232  10.551
20171W        W92585  24.220  26.034   4.690
20172W        W92586  21.188  31.049   2.709
20173W        W92587  19.146   3.356  12.997
20174W        W92588  19.271  40.830   0.946
20175W        W92589  41.335  29.437  14.467
20176W        W92590  36.492  29.966   2.898
20177W        W92591  39.836  31.118   1.296
20178W        W92592  25.026  22.632  13.501
20179W        W92593  16.596  29.470  13.045
20180W        W92594  37.417  20.756  14.982
20181W        W92595   4.932   9.227   3.330
20182W        W92596  15.814   2.439   5.153
20183W        W92597   2.404  27.962   1.899
20184W        W92598   2.404  35.996  12.400
20185W        W92599  42.023  18.258   3.151
20186W        W92600  30.078  34.052  13.013
20187W        W92601  19.074  15.732  12.009
20188W        W92602  37.077   7.840  13.499
20189W        W92603  17.584  18.609   3.838
20190W        W92604   6.395  38.385   1.893
20191W        W92605  17.583  34.527  11.974
20192W        W92606  18.078  12.300  14.761
20193W        W92607  42.851  34.089   1.883
20194W        W92608   3.786   5.397  10.598
20195W        W92609  31.082  35.012   3.791
20196W        W92610  15.152   5.745  12.034
20197W        W92611  12.304  23.687   3.271
20198W        W92612  39.903   7.735  13.886
20199W        W92613  37.515  34.056   0.808
20200W        W92614  40.876   5.908   0.258
20201W        W92615  40.314  11.217  11.086
20202W        W92616  38.333  40.416   1.213
20203W        W92617  14.307  23.534  11.052
20204W        W92618  10.744  16.148  12.043
20205W        W92619  17.698   4.884   3.287
20206W        W92620  21.669  19.227   3.303
20207W        W92621   3.215  12.693  11.562
20208W        W92622  34.018  33.915   1.701
20209W        W92623  39.063   4.257   0.930
20210W        W92624  13.683  18.161  14.900
20211W        W92625  24.717  41.431  11.871
20212W        W92626  16.738  24.548   2.401
20213W        W92627  27.164   5.884   1.699
20214W        W92628  20.227  37.456  13.015
20215W        W92629  26.659   9.881  11.604
20216W        W92630  36.548  10.231  11.477
20217W        W92631  14.264  21.024  14.367
20218W        W92632  10.743  33.550  13.329
20219W        W92633  43.014  14.723  13.805
20220W        W92634   0.492  10.140  14.488
20221W        W92635  22.213  18.548   1.735
20222W        W92636   3.272  38.420  14.917
20223W        W92637  39.517   0.952  11.030
20224W        W92638   2.952  19.152  12.083
20225W        W92639   5.275  28.655  12.394
20226W        W92640  38.330  39.920   0.316
20227W        W92641  18.193  42.454   3.321
20228W        W92642  34.025  35.053   2.384
20229W        W92643   0.425  10.861   0.848
20230W        W92644  32.920  19.142   1.285
20231W        W92645  32.523  14.284   3.183
20232W        W92646  23.115  30.126  10.526
20233W        W92647  39.433   9.852   4.281
20234W        W92648  14.595  40.987   0.778
20235W        W92649  28.453  29.516  12.530
20236W        W92650  22.606  29.957  10.463
20237W        W92651  34.614  19.697  13.372
20238W        W92652  19.605  32.548  13.976
20239W        W92653  16.238  37.364  12.342
20240W        W92654  10.653  17.149  13.962
20241W        W92655   9.837  20.168   2.388
20242W        W92656  27.660  12.744  10.511
20243W        W92657  40.523   2.407  14.481
20244W        W92658  14.691  17.704   5.311
20245W        W92659  19.748  32.141  12.361
20246W        W92660  44.761   9.873  14.882
20247W        W92661  14.612   9.247  11.895
20248W        W92662   1.369  20.126   4.191
20249W        W92663  32.085  32.472   3.853
20250W        W92664  18.782  37.868  13.390
20251W        W92665  30.127  38.350  12.065
20252W        W92666   5.882   9.776   1.245
20253W        W92667  13.729  44.408  12.960
20254W        W92668  22.062  21.180   0.835
20255W        W92669  27.049  44.948   9.623
20256W        W92670  32.560  30.605  14.984
20257W        W92671  38.926  42.787   2.730
20258W        W92672  25.652  22.174  10.522
20259W        W92673   2.276  25.040  11.408
20260W        W92674  26.017  21.646  10.898
20261W        W92675  44.792  31.602   3.736
20262W        W92676  13.170  40.815  13.418
20263W        W92677   0.298  25.204  13.833
20264W        W92678  41.473  16.141  11.034
20265W        W92679  34.975  19.535   2.315
20266W        W92680   8.843  44.363   0.473
20267W        W92681  40.887  33.507   2.810
20268W        W92682  44.491   1.886   0.773
20269W        W92683  12.728  36.371  12.455
20270W        W92684  23.500  15.785  10.931
20271W        W92685  39.957  18.270  10.427
20272W        W92686   7.177  34.920  14.864
20273W        W92687   3.935   5.814   3.850
20274W        W92688  12.268   5.211  14.964
20275W        W92689   5.854  20.750  12.431
20276W        W92690  43.507  13.836  13.342
20277W        W92691  42.324  21.260   5.177
20278W        W92692  13.795  42.328  12.426
20279W        W92693   6.371  25.536   3.786
20280W        W92694  23.631  15.082   4.737
20281W        W92695   1.389  18.719   3.725
20282W        W92696   8.270   5.405   2.374
20283W        W92697  42.386  22.165   3.798
20284W        W92698   2.282  10.225   3.770
20285W        W92699   6.328  20.177   3.361
20286W        W92700  41.022  31.132  12.913
20287W        W92701  24.139  44.437  12.990
20288W        W92702   2.921   7.906  13.382
20289W        W92703  24.687  40.424  14.479
20290W        W92704  12.803   7.739   4.704
20291W        W92705  25.991  31.932  10.516
20292W        W92706  42.371  16.704   4.281
20293W        W92707  21.113  28.641   0.329
20294W        W92708  19.085  37.068   3.288
20295W        W92709  16.251  31.030   4.628
20296W        W92710  17.068  23.533  14.810
20297W        W92711  11.221  12.842   4.124
20298W        W92712  32.528   7.287  13.933
20299W        W92713  15.278  23.728   0.865
20300W        W92714  30.082  26.051   2.839
20301W        W92715  44.336  34.513   4.775
20302W        W92716  24.502  40.032  13.428
20303W        W92717  11.825  29.930  13.981
20304W        W92718  25.967   9.878   1.438
20305W        W92719  13.749  38.046  13.833
20306W        W92720   3.907  34.093  14.950
20307W        W92721  36.368   6.796  12.962
20308W        W92722  19.568   7.850  11.426
20309W        W92723  26.971  12.614  10.088
20310W        W92724  11.303  15.119   1.879
20311W        W92725   4.335  43.904   2.823
20312W        W92726   5.747  36.356   1.295
20313W        W92727  12.223  10.649   4.657
20314W        W92728  33.057  17.124  11.386
20315W        W92729  32.997   3.766  12.968
20316W        W92730  35.896  33.517  10.449
20317W        W92731  23.552  13.713   2.229
20318W        W92732   9.658  21.071   3.365
20319W        W92733  34.014  21.153   1.793
20320W        W92734   3.440  13.280   3.237
20321W        W92735  31.614  31.580   0.459
20322W        W92736  23.141  39.375  11.006
20323W        W92737   7.366  15.783  10.541
20324W        W92738  39.824  36.003  11.412
20325W        W92739  10.146  40.454  13.506
20326W        W92740  19.640  43.773   0.320
20327W        W92741  27.187  43.799  12.911
20328W        W92742  10.220  29.944  12.979
20329W        W92743  16.729  33.476  10.578
20330W        W92744   6.248  30.442   1.856
20331W        W92745  29.667  23.129   4.118
20332W        W92746  44.339  42.001  12.873
20333W        W92747  27.033   9.228   4.797
20334W        W92748  23.725  38.983   0.436
20335W        W92749  15.658  18.644   5.270
20336W        W92750  22.736   9.187   3.169
20337W        W92751  35.888  33.392   4.828
20338W        W92752  22.069  28.561  13.377
20339W        W92753  21.101   5.350   1.341
20340W        W92754  31.150  12.237   2.246
20341W        W92755  21.064   8.712  10.605
20342W        W92756  30.502   2.412   0.288
20343W        W92757  10.378  20.643  11.545
20344W        W92758  29.437  19.702   1.388
20345W        W92759  19.533  16.249   2.417
20346W        W92760  21.572   9.217  11.593
20347W        W92761  16.740  15.123   2.287
20348W        W92762  25.711  25.086   9.976
20349W        W92763  29.513   8.693  11.507
20350W        W92764  18.290  44.304   0.808
20351W        W92765  24.649  44.332   2.704
20352W        W92766  31.446  43.483  14.471
20353W        W92767   6.357  25.604  14.824
20354W        W92768   6.763  14.705  13.425
20355W        W92769  22.144  11.236  13.404
20356W        W92770   8.335  39.943  12.063
20357W        W92771   9.349   3.755  12.854
20358W        W92772  11.666  21.536   1.348
20359W        W92773  18.125   5.701  11.121
20360W        W92774  33.104  38.912   2.319
20361W        W92775  37.481  41.999   1.920
20362W        W92776  41.917  13.258  13.800
20363W        W92777  20.257  44.478   3.175
20364W        W92778  32.060  38.892   1.228
20365W        W92779  13.236  25.597   3.231
20366W        W92780   6.891  12.141   4.659
20367W        W92781  38.909  20.769  10.010
20368W        W92782  10.190  41.928   3.685
20369W        W92783  13.841  37.489  14.803
20370W        W92784  44.360  44.422  13.457
20371W        W92785  20.238  25.640   2.751
20372W        W92786  22.097  32.922  14.901
20373W        W92787  16.292  43.015   0.757
20374W        W92788  33.604  23.722  11.052
20375W        W92789   6.858  42.909   0.824
20376W        W92790  13.105   6.772  12.403
20377W        W92791  20.638   6.740   1.738
20378W        W92792   4.942  12.264  12.987
20379W        W92793  36.863   9.796  13.886
20380W        W92794  26.532  30.155   0.362
20381W        W92795  31.036  17.588   2.400
20382W        W92796   2.798  41.855  12.993
20383W        W92797  13.635  42.421   3.698
20384W        W92798  24.171  14.622  10.407
20385W        W92799  20.728  28.590   0.300
20386W        W92800  14.099  44.782  12.826
20387W        W92801  13.216  35.041  10.956
20388W        W92802  21.169  41.011   1.844
20389W        W92803   8.318  43.793  12.928
20390W        W92804  41.014  17.245  14.494
20391W        W92805  28.442  25.689   1.411
20392W        W92806   4.278  22.668   4.703
20393W        W92807  42.906  32.625  10.976
20394W        W92808  32.132  33.881   3.194
20395W        W92809  31.421   8.899  12.911
20396W        W92810  35.094   5.897   4.661
20397W        W92811  27.639   3.357   2.779
20398W        W92812  19.182  16.145   0.953
20399W        W92813  12.135   5.220  12.012
20400W        W92814  33.416  27.145  14.814
20401W        W92815   6.342  36.959   0.328
20402W        W92816   2.814  34.432  13.406
20403W        W92817   5.196  37.504   2.902
20404W        W92818  16.174  11.252  11.122
20405W        W92819  14.665   2.842   3.753
20406W        W92820  29.624  11.184   2.184
20407W        W92821  31.447  10.311  14.516
20408W        W92822   2.776  24.194   3.296
20409W        W92823   4.780   6.354   3.712
20410W        W92824  14.304  27.651   2.866
20411W        W92825  24.137   2.275   2.279
20412W        W92826   6.311  38.480   3.321
20413W        W92827   1.746   1.764  10.526
20414W        W92828  20.078  25.160  12.443
20415W        W92829  24.520   8.658  13.382
20416W        W92830  29.452  30.107   1.838
20417W        W92831  39.552  12.335   1.900
20418W        W92832  38.571  33.043   4.234
20419W        W92833  17.780  25.049  12.547
20420W        W92834  19.599  32.461   3.715
20421W        W92835  25.023  11.804  12.384
20422W        W92836  40.443  33.975  10.939
20423W        W92837   0.865  34.011  11.020
20424W        W92838  15.779  10.216   4.147
20425W        W92839  23.146  25.094  10.447
20426W        W92840   0.826  32.570  14.835
20427W        W92841   6.922  13.775  11.004
20428W        W92842   2.771  33.508   2.806
20429W        W92843  12.638  16.197   1.349
20430W        W92844  24.228  27.062   2.683
20431W        W92845  29.959   5.733  12.375
20432W        W92846  16.265  24.023   1.415
20433W        W92847   1.937  14.307  13.007
20434W        W92848  25.474  17.231   3.286
20435W        W92849   1.865  28.521  11.864
20436W        W92850  15.750   0.841  12.546
20437W        W92851  31.497  22.192   2.833
20438W        W92852  40.320  43.408   2.892
20439W        W92853  15.241  39.044  13.335
20440W        W92854  18.705  15.791  14.875
20441W        W92855  11.854  14.747   3.275
20442W        W92856  19.749   6.903  12.904
20443W        W92857  42.021  32.089  13.541
20444W        W92858  35.553  24.541  12.871
20445W        W92859   8.864  27.493   0.815
20446W        W92860   4.813  20.689  10.135
20447W        W92861   8.679  22.622  12.941
20448W        W92862  32.587  35.975  14.965
20449W        W92863  31.547  23.571   4.348
20450W        W92864  26.550   3.748  12.028
20451W        W92865  13.301  19.647   4.788
20452W        W92866  20.535  26.675  11.395
20453W        W92867  24.483  21.544  11.060
20454W        W92868  21.154  42.950  12.921
20455W        W92869  28.662   4.449  14.401
20456W        W92870  39.546  28.518  12.068
20457W        W92871  36.094  26.464  12.983
20458W        W92872  36.405  42.819   3.347
20459W        W92873   1.250  22.638  14.349
20460W        W92874   3.875  25.983  10.494
20461W        W92875  20.072  43.405  10.114
20462W        W92876   4.933  35.872   4.691
20463W        W92877  10.845  14.325   1.302
20464W        W92878   9.646   3.219  13.382
20465W        W92879  11.207  10.255   0.330
20466W        W92880  31.468  22.696   2.377
20467W        W92881  43.362  25.029  11.062
20468W        W92882  30.154  33.433  13.967
20469W        W92883  29.450  41.991   0.297
20470W        W92884  44.424  38.510   1.917
20471W        W92885  24.591   8.224   2.182
20472W        W92886   6.717  22.031   0.417
20473W        W92887  16.694  11.772   2.716
20474W        W92888  10.811   5.281   0.405
20475W        W92889   9.379   0.384   0.372
20476W        W92890  25.633  39.882  11.891
20477W        W92891  39.061  38.968   5.109
20478W        W92892  40.999  30.417   2.414
20479W        W92893   6.200  41.518  11.017
20480W        W92894  22.707   0.383  10.558
20481W        W92895  26.504   8.349  11.950
20482W        W92896   0.407  30.447   0.732
20483W        W92897   1.454   3.351  11.083
20484W        W92898  33.057  23.133   9.948
20485W        W92899   9.678  42.984   4.631
20486W        W92900  14.254  22.083   2.860
20487W        W92901  38.846  22.509  14.784
20488W        W92902  31.536  18.293  12.999
20489W        W92903  15.812   1.818  11.530
20490W        W92904   1.937  31.913  11.094
20491W        W92905  10.142  30.111  13.934
20492W        W92906   2.720  23.181   3.150
20493W        W92907   2.391  25.077  10.090
20494W        W92908  15.322  18.116  11.611
20495W        W92909  16.074  19.170  11.996
20496W        W92910  40.891  22.519   4.195
20497W        W92911  32.950   0.907   4.266
20498W        W92912  19.636  25.148  10.984
20499W        W92913  44.883   1.357  13.548
20500W        W92914   8.241  27.115  14.363
20501W        W92915  14.204  24.686   2.227
20502W        W92916  17.675  16.306   4.765
20503W        W92917   6.808   2.859   2.864
20504W        W92918  36.038  30.967  11.878
20505W        W92919  25.986  30.582   5.224
20506W        W92920  20.266   8.832  13.375
20507W        W92921  32.544  15.688  11.072
20508W        W92922  12.291  12.747   2.724
20509W        W92923  34.409   0.762   1.285
20510W        W92924  14.734  15.592   1.380
20511W        W92925  14.294  33.610  13.000
20512W        W92926  16.646   0.837   0.880
20513W        W92927  38.463  41.925   2.742
20514W        W92928  38.515  15.088   0.950
20515W        W92929  36.588  25.540  12.873
20516W        W92930  43.827  20.078   1.260
20517W        W92931   1.293  26.524   3.296
20518W        W92932   4.763   9.864   4.240
20519W        W92933  42.889   5.294  12.067
20520W        W92934  41.985  35.106   1.932
20521W        W92935  20.642  22.623   1.367
20522W        W92936   2.823  27.618   3.761
20523W        W92937  22.029  10.306  14.498
20524W        W92938   4.317  29.014   2.247
20525W        W92939  16.641  36.064   4.320
20526W        W92940  37.478   2.329   0.290
20527W        W92941  41.029  11.677   3.680
20528W        W92942   1.963  18.734  14.937
20529W        W92943   7.703  13.190   4.333
20530W        W92944   4.260  42.504   1.421
20531W        W92945   3.262  42.014   0.892
20532W        W92946  16.656  37.026   2.369
20533W        W92947  17.567   1.962  11.464
20534W        W92948  13.352  33.880  12.344
20535W        W92949  18.211  25.584  14.359
20536W        W92950  24.208  35.994   0.311
20537W        W92951   4.435  21.542   4.298
20538W        W92952  28.597  22.996   3.684
20539W        W92953  11.766   1.387  11.858
20540W        W92954  18.634  43.410   3.758
20541W        W92955  10.161  25.593   5.242
20542W        W92956  27.037  20.550   2.331
20543W        W92957   9.381   6.229  14.454
20544W        W92958  15.796  14.303  10.505
20545W        W92959   4.715  21.036  13.371
20546W        W92960   7.785  30.935   1.240
20547W        W92961  42.414  32.127  12.089
20548W        W92962  19.159   5.296   0.960
20549W        W92963  18.066  23.592   4.151
20550W        W92964  25.565   9.690   3.694
20551W        W92965   2.382  14.795   3.767
20552W        W92966   5.855  17.619  12.990
20553W        W92967   1.265  44.486   3.853
20554W        W92968  20.055   1.760   2.278
20555W        W92969   6.699  12.655  11.493
20556W        W92970  42.495   3.306  14.775
20557W        W92971  39.461  30.572  14.948
20558W        W92972  13.744  42.994  10.451
20559W        W92973  42.825  16.240   1.239
20560W        W92974  37.347  42.467   2.688
20561W        W92975  36.913   3.751   4.281
20562W        W92976  29.554  17.170  14.379
20563W        W92977  24.683   3.808   2.681
20564W        W92978  14.665   5.352   9.645
20565W        W92979  21.219  27.948  14.764
20566W        W92980   9.767   4.335  14.403
20567W        W92981   9.691  30.022   0.834
20568W        W92982  11.127  32.616   3.858
20569W        W92983  33.384  10.245  13.852
20570W        W92984  33.603  35.381   2.410
20571W        W92985  17.581  29.126  11.520
20572W        W92986  36.074  19.684   3.646
20573W        W92987  12.815  32.045  13.482
20574W        W92988   2.370  43.410   1.336
20575W        W92989  25.967  29.069  11.499
20576W        W92990   2.907  20.644   3.855
20577W        W92991  41.977  44.369  14.996
20578W        W92992  44.416   4.849   5.092
20579W        W92993  20.578  44.859  13.326
20580W        W92994  43.494  25.571  12.455
20581W        W92995  14.242   5.698   2.903
20582W        W92996   1.858   5.343   0.250
20583W        W92997  36.865  43.270   1.441
20584W        W92998   4.727  17.183   2.263
20585W        W92999  43.328  21.026   0.288
20586W        W93000   5.225  11.763   1.714
20587W        W93001   3.301   8.722  11.474
20588W        W93002  39.512  21.544  13.505
20589W        W93003  34.442  41.918   0.907
20590W        W93004  35.943  36.470  10.896
20591W        W93005  21.658  39.923  12.028
20592W        W93006  35.996   2.415  12.933
20593W        W93007   1.938  23.507  13.938
20594W        W93008  43.979  40.955   1.743
20595W        W93009   0.399  17.080   1.226
20596W        W93010  12.304  10.769   0.966
20597W        W93011  30.075  15.244   1.422
20598W        W93012   1.326   8.363   3.768
20599W        W93013  14.694  42.287  14.880
20600W        W93014  27.082  11.358   2.890
20601W        W93015   1.883  28.630  11.537
20602W        W93016  27.125  35.055   0.479
20603W        W93017  34.058  28.051   4.192
20604W        W93018   8.702   4.838   1.819
20605W        W93019  19.614   3.367  14.452
20606W        W93020  44.828   8.215   0.470
20607W        W93021  18.780  13.661  13.016
20608W        W93022  14.644  24.206   4.751
20609W        W93023  38.944  10.733  13.537
20610W        W93024   2.848  11.845  12.514
20611W        W93025  26.156  18.106  13.832
20612W        W93026  15.309  44.845   0.359
20613W        W93027   5.396  43.854   0.863
20614W        W93028  23.666  42.832   5.237
20615W        W93029   1.453   9.392  11.901
20616W        W93030  34.116   5.402   2.394
20617W        W93031  15.206  31.147   4.138
20618W        W93032  32.524   3.911   3.258
20619W        W93033   2.758   8.867  12.988
20620W        W93034  31.037  18.646  14.906
20621W        W93035  44.447   2.807  12.958
20622W        W93036  38.457  10.169   0.328
20623W        W93037  28.491  14.709  14.473
20624W        W93038   1.307  39.961   1.862
20625W        W93039   0.297  32.091   0.846
20626W        W93040  30.428   7.721   2.745
20627W        W93041   2.422  11.295  12.068
20628W        W93042  29.506   9.653  12.854
20629W        W93043  14.783  11.710  10.482
20630W        W93044  18.766  38.988  14.350
20631W        W93045   1.385  36.978  12.454
20632W        W93046  37.912  30.432  10.073
20633W        W93047  33.553  31.468   0.920
20634W        W93048   4.916   3.913   3.329
20635W        W93049  38.373  44.323  13.062
20636W        W93050  15.193  10.735  12.847
20637W        W93051  40.400  35.903   0.916
20638W        W93052  25.217  29.462  12.037
20639W        W93053  25.149  24.676  13.307
20640W        W93054  30.557  26.056   2.783
20641W        W93055   1.453  38.486  14.761
20642W        W93056   0.773  18.560   3.257
20643W        W93057   8.864   1.935  12.949
20644W        W93058  30.656  34.057  13.446
20645W        W93059  24.219   0.285  14.792
20646W        W93060  31.461  21.624   2.816
20647W        W93061  21.084  12.281  14.988
20648W        W93062  17.133   0.938   3.757
20649W        W93063  22.536  39.323  11.936
20650W        W93064  42.823  28.105   1.385
20651W        W93065  40.941  39.342   1.801
20652W        W93066   1.791   5.706   1.220
20653W        W93067  38.532   7.279  14.292
20654W        W93068  29.527   7.757   2.219
20655W        W93069  20.247  14.730  11.090
20656W        W93070   2.771  13.293  14.005
20657W        W93071  30.532  13.311  11.605
20658W        W93072  40.797  28.485  13.922
20659W        W93073  37.879   3.332  14.008
20660W        W93074  32.549  32.023  11.043
20661W        W93075   5.363  37.857  14.851
20662W        W93076  33.970  11.789  12.490
20663W        W93077  41.506  31.920  14.376
20664W        W93078  30.987  23.036   2.196
20665W        W93079  40.860  40.361  12.087
20666W        W93080   0.389   5.752   1.381
20667W        W93081  19.724   5.696  14.305
20668W        W93082  43.280  16.721  12.855
20669W        W93083  19.180  10.256  10.519
20670W        W93084  23.604  34.971  14.800
20671W        W93085  19.282  31.606  11.539
20672W        W93086  38.822  44.753   2.192
20673W        W93087  27.154  38.361   4.655
20674W        W93088  33.555  33.447   3.344
20675W        W93089   1.734   5.232  13.842
20676W        W93090  24.611   3.743  13.902
20677W        W93091  41.818   4.939  10.602
20678W        W93092   9.758  32.937   3.305
20679W        W93093  27.132  36.532  12.987
20680W        W93094  11.246  43.905  11.086
20681W        W93095  16.080  16.574  14.301
20682W        W93096  38.450  10.180  12.996
20683W        W93097  15.811  24.168  10.932
20684W        W93098  16.226  21.734   2.753
20685W        W93099   5.862  12.296  10.438
20686W        W93100  38.514   8.217   1.287
20687W        W93101  36.907  31.451  12.976
20688W        W93102  25.004   9.764  14.421
20689W        W93103  36.459  19.741  12.434
20690W        W93104  19.071  22.153  14.841
20691W        W93105  33.113  40.010  13.022
20692W        W93106   4.752  27.505  12.553
20693W        W93107   6.355  44.852  13.527
20694W        W93108  23.992  36.967   1.828
20695W        W93109  22.221   1.947   0.412
20696W        W93110  35.411  24.207  13.842
20697W        W93111   1.904  33.501  12.047
20698W        W93112   5.343  34.109   4.774
20699W        W93113   7.282  18.144   3.153
20700W        W93114   0.885   6.214  10.914
20701W        W93115  37.037  21.106   4.816
20702W        W93116   9.805  28.023  12.973
20703W        W93117  28.441  18.096   0.375
20704W        W93118   2.871  26.665  14.490
20705W        W93119  27.625  37.069   2.240
20706W        W93120   0.388  27.563  12.863
20707W        W93121  22.114  43.807  14.964
20708W        W93122  22.048   7.741   0.796
20709W        W93123  20.718  27.946   2.730
20710W        W93124  34.882  20.700  14.320
20711W        W93125  35.870  15.663   2.714
20712W        W93126  36.536   2.338  14.967
20713W        W93127  22.021  27.487   2.305
20714W        W93128   1.338   4.934   1.764
20715W        W93129  34.608  31.148  11.486
20716W        W93130  23.120  35.071   1.369
20717W        W93131   0.320  25.627   1.829
20718W        W93132  38.951  32.548   4.139
20719W        W93133  35.861  37.941  11.560
20720W        W93134  13.119  33.471  11.948
20721W        W93135  11.162  15.284   1.339
20722W        W93136  41.015  15.227  12.408
20723W        W93137  23.717   0.434   4.188
20724W        W93138  31.975  28.995   1.401
20725W        W93139  27.587  32.960  14.436
20726W        W93140  28.491   9.385  13.020
20727W        W93141  23.663  31.063   4.343
20728W        W93142  11.249  13.609  13.856
20729W        W93143  18.561  10.175  11.997
20730W        W93144  22.689  23.001  14.904
20731W        W93145  40.449  33.448  14.383
20732W        W93146  30.577   5.234  13.506
20733W        W93147  36.571  30.046   3.755
20734W        W93148  10.877  36.077  11.013
20735W        W93149   5.741   8.249  12.978
20736W        W93150  27.552  41.859   1.424
20737W        W93151  29.048  12.621   4.747
20738W        W93152  27.081  29.973   3.653
20739W        W93153  30.099  16.209  10.437
20740W        W93154  40.529  10.850  13.440
20741W        W93155  43.423  31.433  12.373
20742W        W93156   5.917  43.865  11.065
20743W        W93157  14.698  13.740   4.158
20744W        W93158   3.837  24.609  11.567
20745W        W93159  34.039   3.373  12.055
20746W        W93160  35.082  44.905  10.606
20747W        W93161   5.227  27.098   1.811
20748W        W93162   5.368  12.740  11.575
20749W        W93163  30.980  20.226   0.295
20750W        W93164   9.390   3.768  13.534
20751W        W93165  37.861   3.863  10.412
20752W        W93166  31.448  16.244   0.925
20753W        W93167  12.224  44.887   4.259
20754W        W93168  44.960  35.493  10.976
20755W        W93169  43.283   5.851   3.724
20756W        W93170  24.064  17.765  14.430
20757W        W93171   9.181  37.061   1.733
20758W        W93172  33.981  43.864   2.372
20759W        W93173  31.477  35.569   2.212
20760W        W93174  40.979   1.364   0.274
20761W        W93175   6.776  32.550   0.299
20762W        W93176  44.455  12.849   2.215
20763W        W93177   5.283  27.619  12.054
20764W        W93178  26.678   4.428  14.487
20765W        W93179   9.298   5.803  13.901
20766W        W93180  12.853  41.924   2.294
20767W        W93181  14.757   1.851   4.787
20768W        W93182   4.301  32.503   0.434
20769W        W93183  27.683  14.743  12.529
20770W        W93184   7.717   9.340  13.414
20771W        W93185  11.225   4.333  14.350
20772W        W93186  32.989  18.285  11.391
20773W        W93187  28.492  18.260  14.010
20774W        W93188  27.025  23.501   1.908
20775W        W93189  33.019  13.680  11.872
20776W        W93190  19.195   3.812   0.342
20777W        W93191   1.974   6.756   0.863
20778W        W93192  30.581  34.879   1.229
20779W        W93193  38.410  19.223  11.919
20780W        W93194  27.183  38.955  10.101
20781W        W93195  12.727   5.825  11.925
20782W        W93196  18.654   3.805   2.900
20783W        W93197  24.147  37.069   1.265
20784W        W93198  24.696  10.870   4.627
20785W        W93199   8.693  11.300   4.779
20786W        W93200  24.227  36.085  14.825
20787W        W93201  27.599  18.064   3.368
20788W        W93202  32.461  38.920   3.190
20789W        W93203  11.819  24.522   1.921
20790W        W93204  40.000  35.062  14.880
20791W        W93205   4.433  41.869  13.542
20792W        W93206  44.959  24.147   1.858
20793W        W93207  28.182   8.402  10.071
20794W        W93208  41.456  30.138  12.928
20795W        W93209  39.325  17.066   1.421
20796W        W93210  42.350  28.678  13.063
20797W        W93211  38.881  27.459   5.088
20798W        W93212  19.118   5.697   2.363
20799W        W93213   9.319  31.516   3.372
20800W        W93214  41.028  17.753  12.418
20801W        W93215  21.096  10.358  14.978
20802W        W93216  35.053  18.274   0.364
20803W        W93217  32.018  42.299   2.869
20804W        W93218  20.681  40.354  14.821
20805W        W93219  15.159   9.735  12.554
20806W        W93220  26.673   3.778  14.793
20807W        W93221  30.126  39.856   1.290
20808W        W93222  25.103   2.726  11.931
20809W        W93223  33.489  28.975  14.420
20810W        W93224  28.629  33.015   3.793
20811W        W93225  44.301  19.050   0.937
20812W        W93226  43.452   9.717   2.272
20813W        W93227  33.389  22.231   9.930
20814W        W93228  21.030  11.237   4.677
20815W        W93229  12.838   8.242  12.511
20816W        W93230  44.783  23.607   1.316
20817W        W93231  18.234  35.101   0.814
20818W        W93232  34.924  43.013  14.300
20819W        W93233  34.112   6.815   0.944
20820W        W93234  32.094  36.054   2.198
20821W        W93235  42.888   8.177  13.913
20822W        W93236  20.173   2.415  12.830
20823W        W93237   4.207  38.030   3.197
20824W        W93238  43.426   8.402  12.551
20825W        W93239   5.836  27.129   4.199
20826W        W93240   7.222  21.236  11.514
20827W        W93241  34.896   0.285  10.424
20828W        W93242  22.511   5.926   2.358
20829W        W93243   3.375   2.950   2.233
20830W        W93244  33.054  29.049   0.734
20831W        W93245  23.730   8.711   1.409
20832W        W93246  14.145  16.741   3.786
20833W        W93247  13.118  37.421   3.200
20834W        W93248  16.635  26.650   1.432
20835W        W93249  29.988  42.520  14.801
20836W        W93250   7.809  42.387  11.857
20837W        W93251  10.144  30.961   1.855
20838W        W93252  43.952   2.903   3.153
20839W        W93253  28.451   1.315   4.258
20840W        W93254  41.835  43.886  14.506
20841W        W93255  16.734   1.804  14.891
20842W        W93256  11.698  14.163   5.246
20843W        W93257  16.148  21.592  10.919
20844W        W93258  30.440  29.947  12.396
20845W        W93259  18.548   4.704   4.345
20846W        W93260  15.805  18.707  14.806
20847W        W93261  20.118  31.646   4.615
20848W        W93262   6.795  23.507  11.113
20849W        W93263  38.881  35.440  14.395
20850W        W93264  37.378  21.587   0.834
20851W        W93265  23.162   2.349  13.405
20852W        W93266  20.230  42.781   0.363
20853W        W93267   2.861  33.455  14.330
20854W        W93268  25.616  33.481  13.832
20855W        W93269  24.120   4.929   3.175
20856W        W93270  20.249  29.141  11.110
20857W        W93271   8.205  20.676   4.764
20858W        W93272   2.806  40.948   1.736
20859W        W93273  33.614  28.449   2.773
20860W        W93274  21.720   7.728   1.390
20861W        W93275   7.180  14.790   4.123
20862W        W93276  40.533  44.320  10.644
20863W        W93277   1.446  16.079  14.286
20864W        W93278  35.924  17.647  13.315
20865W        W93279  32.632  38.402  10.515
20866W        W93280  24.119   0.746  10.498
20867W        W93281  43.011  17.742   0.384
20868W        W93282  16.183  18.562   2.352
20869W        W93283  21.653  26.490   1.892
20870W        W93284  38.975  23.238  11.440
20871W        W93285  32.588   2.867   3.192
20872W        W93286   6.332  24.649   0.302
20873W        W93287  17.091  36.956   0.902
20874W        W93288  17.565   8.388   3.232
20875W        W93289  10.383  37.833   4.809
20876W        W93290  10.687  23.119   3.804
20877W        W93291  34.936  39.444  12.397
20878W        W93292  42.808  40.434  14.282
20879W        W93293  34.462   8.388   2.205
20880W        W93294  25.494  23.151   2.682
20881W        W93295   2.959  35.596   0.442
20882W        W93296  22.552  18.689   4.741
20883W        W93297   8.675   2.894   4.204
20884W        W93298  17.231  15.727   4.706
20885W        W93299  44.281  15.245  10.583
20886W        W93300   5.849  15.238  13.859
20887W        W93301  38.948  32.941  10.004
20888W        W93302  20.723  20.060   0.424
20889W        W93303  35.866  12.303  13.889
20890W        W93304  23.080  18.184   9.976
20891W        W93305   8.701  11.856   0.438
20892W        W93306  15.177   6.428  10.558
20893W        W93307  34.421  25.643  11.031
20894W        W93308   1.432  15.289  12.970
20895W        W93309   4.723   9.806  12.559
20896W        W93310  15.708  15.766   5.294
20897W        W93311  44.434  36.855  13.991
20898W        W93312  32.401  15.595   3.299
20899W        W93313   4.887  28.506   5.109
20900W        W93314  39.887  44.500   1.269
20901W        W93315  12.837  18.745  11.883
20902W        W93316  38.399  32.903   1.211
20903W        W93317  22.045  13.311   0.863
20904W        W93318  38.023  34.393  11.112
20905W        W93319   2.282  41.958   5.145
20906W        W93320  16.159  24.579   2.782
20907W        W93321  36.346   6.384   1.239
20908W        W93322   6.780   5.209   2.818
20909W        W93323  38.338  10.738   4.691
20910W        W93324  39.557  24.600  13.932
20911W        W93325  34.381  27.625   0.857
20912W        W93326  42.521  35.394   3.153
20913W        W93327   1.894  10.364   0.357
20914W        W93328  24.218  13.280   0.305
20915W        W93329  23.130  40.927  14.006
20916W        W93330  24.714  38.945   1.243
20917W        W93331  36.443  12.267   2.232
20918W        W93332   5.878   3.238  13.481
20919W        W93333  37.987  18.238   2.836
20920W        W93334  14.804  16.570   2.735
20921W        W93335  33.455   4.783  12.969
20922W        W93336  42.920  28.500  10.529
20923W        W93337  40.330  32.947  11.862
20924W        W93338  44.951  28.586   1.318
20925W        W93339  38.555  28.639   1.329
20926W        W93340  10.168  15.268  13.945
20927W        W93341  15.314  14.657  11.372
20928W        W93342  24.715  24.119  12.509
20929W        W93343  26.203  13.669  14.955
20930W        W93344  19.148  25.659  13.535
20931W        W93345   8.752   5.298   0.384
20932W        W93346   9.302   7.377   1.914
20933W        W93347  10.827  12.771  11.068
20934W        W93348  14.280  16.725  10.542
20935W        W93349  24.588   5.691  13.345
20936W        W93350  44.293  38.387   2.855
20937W        W93351  34.082  42.893  10.429
20938W        W93352   7.270  11.148   2.691
20939W        W93353   4.768  19.235   0.320
20940W        W93354  20.598   0.780   4.190
20941W        W93355  29.655  29.106   3.177
20942W        W93356  22.558  20.148  12.436
20943W        W93357   6.246  25.635  14.361
20944W        W93358  13.710   6.678  13.512
20945W        W93359  35.595  32.431   2.737
20946W        W93360  11.208  25.504  10.628
20947W        W93361  24.060  16.659  12.976
20948W        W93362  33.470  27.603   0.318
20949W        W93363  43.476   8.733   9.977
20950W        W93364  26.954  37.407   4.114
20951W        W93365  31.541  26.202  14.818
20952W        W93366  40.437  31.540   4.642
20953W        W93367  16.281  41.409  14.885
20954W        W93368   2.883  15.817   3.155
20955W        W93369  22.011  29.070  10.931
20956W        W93370  40.427  18.287  12.936
20957W        W93371  11.664  26.150   3.800
20958W        W93372  20.696  28.124  12.505
20959W        W93373  42.309   8.736   2.751
20960W        W93374  31.046   4.412  12.564
20961W        W93375  37.451  11.357  10.111
20962W        W93376  29.144   1.968   2.725
20963W        W93377  19.185  37.407   3.803
20964W        W93378  26.483  25.000  12.548
20965W        W93379  21.109  43.787   5.161
20966W        W93380   8.655  17.569   2.816
20967W        W93381  29.530  30.537  12.407
20968W        W93382  44.758  27.571  12.850
20969W        W93383  24.068  31.435  11.512
20970W        W93384  15.735  22.576  14.428
20971W        W93385  35.530  11.834   1.320
20972W        W93386  20.595   5.303   1.877
20973W        W93387  39.486  40.547  10.491
20974W        W93388  25.560  32.612   1.824
20975W        W93389  30.479  17.591  12.477
20976W        W93390  27.124  26.638   3.226
20977W        W93391  42.929   0.842   2.697
20978W        W93392  37.482  38.545   2.378
20979W        W93393  34.987  35.892   4.126
20980W        W93394  22.526  43.499   0.931
20981W        W93395   1.464  17.618  12.998
20982W        W93396   1.967  44.444   1.322
20983W        W93397  12.809  19.061   4.706
20984W        W93398  24.193  26.459   3.830
20985W        W93399  42.338  16.726  13.010
20986W        W93400  22.045  28.475   2.693
20987W        W93401  26.675  10.342  13.961
20988W        W93402  41.957  44.775   0.277
20989W        W93403  22.092  16.259  14.942
20990W        W93404  31.609   2.892   3.656
20991W        W93405  18.586  23.180  11.586
20992W        W93406  25.704  21.143  11.026
20993W        W93407  32.496  16.258   4.315
20994W        W93408  39.055  32.570  14.767
20995W        W93409  24.570  18.113   4.246
20996W        W93410  10.862   2.278  11.932
20997W        W93411  21.665  21.583  14.382
20998W        W93412  17.664   3.843   3.267
20999W        W93413  23.018  28.529  10.464
21000W        W93414  31.455   4.929   3.324
21001W        W93415  30.614  44.485  11.931
21002W        W93416   1.300  44.337   3.285
21003W        W93417   3.329  27.650  10.494
21004W        W93418   9.372   9.286  11.944
21005W        W93419  36.024  38.330   4.119
21006W        W93420  33.949  13.160   4.800
21007W        W93421  33.574  20.047   1.253
21008W        W93422  32.555   0.384   3.185
21009W        W93423  42.367  35.945   3.175
21010W        W93424  41.942  32.528   4.325
21011W        W93425  42.517  10.162  14.488
21012W        W93426  19.700  20.664  11.058
21013W        W93427  20.637  11.220  12.905
21014W        W93428   1.864  38.488  14.993
21015W        W93429   5.417  35.458   3.377
21016W        W93430  32.566  26.644  13.463
21017W        W93431   3.235  34.006   3.299
21018W        W93432   4.845   6.908  11.859
21019W        W93433   0.909  35.439   2.418
21020W        W93434  13.625   1.255  10.941
21021W        W93435  23.606   3.433  11.925
21022W        W93436   5.784  40.043  14.884
21023W        W93437   7.857  23.160  13.315
21024W        W93438  37.851  20.127  13.512
21025W        W93439  29.526  32.560   2.885
21026W        W93440  35.104   7.760   0.936
21027W        W93441   0.280  30.081   0.838
21028W        W93442   8.246  20.131  13.874
21029W        W93443  34.924  33.479  12.559
21030W        W93444  30.998   5.274  10.503
21031W        W93445   3.826   1.425   2.844
21032W        W93446  38.441  27.609  11.073
21033W        W93447  12.653  27.113  12.449
21034W        W93448  35.928  22.205   1.761
21035W        W93449  13.840  25.006   2.886
21036W        W93450  21.043  13.779   1.830
21037W        W93451  39.946  30.996   4.303
21038W        W93452   0.411  26.130  12.851
21039W        W93453  35.574  27.543   3.385
21040W        W93454  40.026  19.673   2.708
21041W        W93455  19.132   4.903   1.789
21042W        W93456  43.338  38.851   2.411
21043W        W93457   7.730  40.940   4.121
21044W        W93458  19.114  39.511  13.317
21045W        W93459  40.335  36.420  14.846
21046W        W93460  16.233  34.406  10.911
21047W        W93461   3.335  12.331  12.058
21048W        W93462  30.924  39.338   0.401
21049W        W93463  13.743   5.926   1.366
21050W        W93464  10.374  32.551  13.901
21051W        W93465  44.955  40.366  12.344
21052W        W93466  13.735  39.995  12.082
21053W        W93467  31.461  35.976   3.760
21054W        W93468  29.173  32.044   2.886
21055W        W93469  29.450  34.013  12.406
21056W        W93470  30.640  25.568   0.838
21057W        W93471  22.119   3.737  11.096
21058W        W93472  12.185  41.814   1.320
21059W        W93473  40.428  27.586   2.784
21060W        W93474  35.358  24.097  10.412
21061W        W93475  20.625  25.606  12.340
21062W        W93476   6.298   1.362   3.771
21063W        W93477   2.858  33.885   0.418
21064W        W93478  23.077  17.247  13.520
21065W        W93479   6.323   3.739  11.987
21066W        W93480  40.345  40.408  14.032
21067W        W93481  33.017  31.092   3.377
21068W        W93482  40.438  27.944  13.883
21069W        W93483   7.314  15.766   0.806
21070W        W93484  36.929   4.852   3.633
21071W        W93485   3.398  28.106  12.497
21072W        W93486  39.330   4.367  13.523
21073W        W93487  19.192   5.414   2.726
21074W        W93488  33.036   0.803  10.492
21075W        W93489   6.402  10.836   1.347
21076W        W93490   9.739  24.632  12.006
21077W        W93491  25.147   5.892  11.463
21078W        W93492  24.169   1.411  12.931
21079W        W93493   5.366  24.078   4.742
21080W        W93494  41.526  13.774  13.399
21081W        W93495   5.398  35.418   1.441
21082W        W93496  34.544  33.069  13.309
21083W        W93497  34.060  21.707   3.314
21084W        W93498  42.014  22.586  14.959
21085W        W93499  43.458   0.468   2.335
21086W        W93500  25.144  33.962   1.713
21087W        W93501  16.208   5.704  10.463
21088W        W93502  38.388  22.081  13.908
21089W        W93503  24.189  28.610   1.346
21090W        W93504  14.717  22.562  13.356
21091W        W93505  40.800  22.233   3.364
21092W        W93506   5.339   1.407  10.591
21093W        W93507  32.568  18.714   1.272
21094W        W93508  35.004  30.524  11.905
21095W        W93509  42.992  27.033  12.442
21096W        W93510  27.133  39.459  11.106
21097W        W93511   3.855  40.331   1.429
21098W        W93512   1.290   6.757  12.925
21099W        W93513   9.819   2.886  13.809
21100W        W93514  37.501  27.570   0.836
21101W        W93515  41.356  41.494   0.937
21102W        W93516  44.879  14.102  12.382
21103W        W93517   2.902  41.324  14.832
21104W        W93518  38.914  42.829   9.924
21105W        W93519   2.274  27.065   5.715
21106W        W93520  29.465   1.401   3.322
21107W        W93521  15.119  44.323  10.438
21108W        W93522  18.100  43.847  11.967
21109W        W93523  16.308   6.879   3.157
21110W        W93524  27.980  23.683   4.701
21111W        W93525  44.261  35.029  12.491
21112W        W93526  24.501  42.395   4.726
21113W        W93527  28.579  15.749  11.069
21114W        W93528  14.636  18.054   2.756
21115W        W93529  40.365  36.096  10.482
21116W        W93530  39.397  40.890  14.428
21117W        W93531  19.141  29.173   3.148
21118W        W93532  12.163  20.074  12.065
21119W        W93533  14.637  15.169   1.215
21120W        W93534   0.743  20.202   0.467
21121W        W93535  25.041   0.971   9.610
21122W        W93536  10.173  42.799   4.250
21123W        W93537   0.938  10.832  12.871
21124W        W93538  41.952  40.915  13.506
21125W        W93539  16.116   2.911  12.998
21126W        W93540  36.978  12.652   0.340
21127W        W93541  42.387   4.424  12.868
21128W        W93542  25.578  18.167  14.920
21129W        W93543  29.551  35.926  10.546
21130W        W93544  40.518  11.796  10.060
21131W        W93545  19.537   4.271  12.471
21132W        W93546  14.252  36.894  14.776
21133W        W93547   2.340  44.981   3.686
21134W        W93548  38.057   5.264  11.874
21135W        W93549  14.290  25.468  11.976
21136W        W93550  37.339  39.558  14.762
21137W        W93551  29.089  23.694   0.953
21138W        W93552  41.405   5.211  14.807
21139W        W93553  43.910   5.792   1.775
21140W        W93554  30.947  12.174  10.582
21141W        W93555   5.856  23.552  11.438
21142W        W93556  16.125   9.271  13.045
21143W        W93557  23.626  23.509  11.460
21144W        W93558   8.170  28.049   0.425
21145W        W93559  18.296  24.001   1.232
21146W        W93560  33.103  27.124   1.867
21147W        W93561  19.693  10.353  13.983
21148W        W93562  43.768  27.948   0.785
21149W        W93563  14.175   9.303   1.295
21150W        W93564   0.932   1.467  11.434
21151W        W93565   1.426  41.456   0.444
21152W        W93566   3.233  44.348  12.350
21153W        W93567  17.617  37.513   2.272
21154W        W93568   2.830  36.036   0.399
21155W        W93569  31.616  32.542  10.603
21156W        W93570   1.745  41.435  11.120
21157W        W93571  44.337   1.820   0.301
21158W        W93572  34.575  35.896  10.636
21159W        W93573   2.442  14.834   4.332
21160W        W93574  38.452  34.020   0.411
21161W        W93575   4.348   6.286   0.288
21162W        W93576  27.940   3.809  11.387
21163W        W93577  10.843  39.945  14.402
21164W        W93578  10.719  38.382  13.370
21165W        W93579   0.271   4.935  13.811
21166W        W93580   3.788  27.447   1.815
21167W        W93581  25.530  39.818  12.931
21168W        W93582  13.762  22.244   4.830
21169W        W93583  38.511   2.746   0.852
21170W        W93584  31.610  15.713   0.959
21171W        W93585   6.287  14.694  13.998
21172W        W93586  43.293   8.243  10.601
21173W        W93587  41.957   0.288   3.380
21174W        W93588   0.824  18.651  13.438
21175W        W93589  38.483  10.702   0.818
21176W        W93590  28.053  17.697   0.452
21177W        W93591  29.128  18.256  11.960
21178W        W93592  22.731  12.146  12.519
21179W        W93593  17.085   1.803   3.771
21180W        W93594  35.027  23.695  13.539
21181W        W93595   1.779  38.071  14.809
21182W        W93596  38.068  32.606   3.864
21183W        W93597  20.642  16.795  14.429
21184W        W93598   5.419  32.949  12.933
21185W        W93599  28.138  20.655   0.444
21186W        W93600  25.065  14.804  14.992
21187W        W93601  40.442  38.932  10.624
21188W        W93602  24.511  26.499   0.336
21189W        W93603  26.522  10.745   3.672
21190W        W93604   3.357  10.696   3.312
21191W        W93605  22.053  19.759  12.414
21192W        W93606  19.746   7.685  11.093
21193W        W93607  15.247  41.445  12.881
21194W        W93608  27.190  17.744   0.841
21195W        W93609  30.086  32.027  10.606
21196W        W93610  29.076  12.716  13.891
21197W        W93611  25.586  41.393   4.815
21198W        W93612  35.470   0.489  12.857
21199W        W93613   9.836  43.001  12.532
21200W        W93614   3.914  32.455  13.489
21201W        W93615  38.362  33.550   5.135
21202W        W93616  18.713  43.988   2.331
21203W        W93617  20.150  26.567  12.871
21204W        W93618  44.882  10.835  12.027
21205W        W93619  18.201  39.397   3.207
21206W        W93620   8.312  30.977  14.940
21207W        W93621  18.719  36.472  10.603
21208W        W93622   3.305   1.458   0.297
21209W        W93623   1.736  29.993   3.194
21210W        W93624  35.094  38.406  14.866
21211W        W93625  40.999  32.932  13.547
21212W        W93626   0.773  15.793  11.911
21213W        W93627  21.243  43.433   1.264
21214W        W93628  10.258  31.566  10.075
21215W        W93629  14.115   4.366   4.320
21216W        W93630  41.495  22.075  11.068
21217W        W93631  35.853  25.579  10.971
21218W        W93632   8.318  31.123   4.152
21219W        W93633  44.288  18.293  12.048
21220W        W93634  25.119  41.343   1.762
21221W        W93635   4.306  22.610   4.288
21222W        W93636  24.606  13.748   1.284
21223W        W93637   3.240  42.331  10.575
21224W        W93638  24.995  41.026   1.773
21225W        W93639  44.806  14.257   3.865
21226W        W93640  15.200   4.214  12.539
21227W        W93641  30.076  35.563   3.227
21228W        W93642   6.683   8.243  12.548
21229W        W93643  32.404  36.391  10.523
21230W        W93644   1.745   6.248  13.536
21231W        W93645  42.014  40.005  12.910
21232W        W93646  30.140  23.123   1.259
21233W        W93647  37.569  39.500   4.810
21234W        W93648  27.653  13.258  14.783
21235W        W93649  18.787  27.627  13.977
21236W        W93650  31.038  16.721   0.437
21237W        W93651  20.575  42.985   2.226
21238W        W93652  14.228  17.098  10.957
21239W        W93653  38.069   5.688  11.934
21240W        W93654  41.912   4.342   0.338
21241W        W93655  31.926  26.492   1.336
21242W        W93656  20.556  33.030  13.338
21243W        W93657  41.848  14.103  13.433
21244W        W93658  13.644  28.496  14.324
21245W        W93659  10.362  20.096  14.990
21246W        W93660   6.237  23.641   1.234
21247W        W93661  22.094  28.484  11.545
21248W        W93662  29.948  37.029  13.819
21249W        W93663  37.870   6.329   3.270
21250W        W93664   1.960  20.523  12.972
21251W        W93665   5.742  22.651  14.498
21252W        W93666  40.411   3.740   3.377
21253W        W93667  36.549   7.320   4.141
21254W        W93668  21.071  24.524   3.312
21255W        W93669  15.270  37.898  11.894
21256W        W93670   3.346  27.503  14.456
21257W        W93671  13.784  44.421  11.094
21258W        W93672  18.151  38.467  12.456
21259W        W93673  10.321  17.181   4.237
21260W        W93674  17.710  29.616  10.420
21261W        W93675  26.168  43.875   1.298
21262W        W93676  35.049  26.087  13.537
21263W        W93677   0.889  41.900  11.550
21264W        W93678   3.456   5.874  12.378
21265W        W93679   1.738   6.903   2.881
21266W        W93680  38.868  21.182   1.413
21267W        W93681  37.499   2.803   1.259
21268W        W93682   3.812  29.069  14.310
21269W        W93683  39.033  28.463   3.244
21270W        W93684  43.832  20.112  13.005
21271W        W93685  15.819  19.745   5.267
21272W        W93686  14.731  15.737  14.828
21273W        W93687   8.841  17.091  14.779
21274W        W93688   6.248  14.314  14.838
21275W        W93689  33.428  14.726  10.915
21276W        W93690  30.075  35.963  14.878
21277W        W93691  40.930   2.731  10.528
21278W        W93692  24.526  36.001  14.852
21279W        W93693  23.594  27.006   2.200
21280W        W93694   8.309  25.632   4.684
21281W        W93695   1.334  10.761   1.241
21282W        W93696   7.230  19.573   0.416
21283W        W93697  18.162  32.558   2.380
21284W        W93698  32.400  15.229   3.790
21285W        W93699   7.687  16.567   2.244
21286W        W93700  27.979  18.199   2.416
21287W        W93701   0.319  38.912  11.013
21288W        W93702  28.459  31.480  14.491
21289W        W93703   2.951   5.836   2.741
21290W        W93704   8.382  27.130   4.642
21291W        W93705  31.992   2.950   0.338
21292W        W93706  18.050  29.021   3.804
21293W        W93707  29.109  30.033   1.219
21294W        W93708  20.589  20.766   1.253
21295W        W93709  15.320   0.332   1.416
21296W        W93710  29.659  13.327  12.409
21297W        W93711  26.129  26.163  12.825
21298W        W93712  29.557  32.578  13.834
21299W        W93713  28.086  16.191   0.439
21300W        W93714  38.967   0.841   1.915
21301W        W93715   2.862  10.775   4.690
21302W        W93716  43.401  40.832   4.302
21303W        W93717  22.602  17.102   5.690
21304W        W93718  25.070  31.963  12.987
21305W        W93719   0.785  34.476  11.438
21306W        W93720  36.484  14.820  11.007
21307W        W93721   7.360  40.871  13.506
21308W        W93722  27.183  34.939  11.508
21309W        W93723  41.933  15.142   3.165
21310W        W93724  16.640   9.189  13.807
21311W        W93725  31.602  15.116   3.149
21312W        W93726  36.535  14.121  14.962
21313W        W93727  23.037  42.525  11.000
21314W        W93728  30.601  34.047  11.970
21315W        W93729  36.073  23.652  13.034
21316W        W93730   9.339  12.710  14.829
21317W        W93731  30.614  42.359   1.317
21318W        W93732  10.633   4.356  13.328
21319W        W93733  10.744  32.511   4.250
21320W        W93734  42.983  37.526   4.774
21321W        W93735  13.813  38.353   2.880
21322W        W93736  43.387  24.042   3.772
21323W        W93737  34.511  34.056  10.567
21324W        W93738  40.853   6.739  10.927
21325W        W93739  36.357  21.749   3.846
21326W        W93740  20.575  10.150   1.795
21327W        W93741  12.721   8.206  12.043
21328W        W93742  42.417  27.041  10.453
21329W        W93743  20.526  31.485   3.697
21330W        W93744   7.232  10.304  11.886
21331W        W93745   6.710  24.650   4.145
21332W        W93746  19.073  22.546  13.414
21333W        W93747  29.534  33.105  12.988
21334W        W93748  32.959  31.613   2.216
21335W        W93749  27.446  31.064  10.407
21336W        W93750  16.575  43.908   0.483
21337W        W93751  10.334  40.955  11.483
21338W        W93752  17.305  23.645   0.374
21339W        W93753  34.504  40.840  13.435
21340W        W93754   3.871  22.514  12.524
21341W        W93755  22.744  23.692   3.820
21342W        W93756  10.228  30.443  12.918
21343W        W93757  41.468  32.526   3.729
21344W        W93758  29.560  38.865   4.148
21345W        W93759  15.245  31.613  12.925
21346W        W93760   3.443  35.433  12.377
21347W        W93761  13.225  14.336  13.817
21348W        W93762  42.435  39.945  11.021
21349W        W93763   3.273  20.061  14.994
21350W        W93764  19.759  17.752  12.352
21351W        W93765  29.645  16.082  11.040
21352W        W93766   3.311  43.287  11.913
21353W        W93767  26.963   6.784  10.933
21354W        W93768   1.396  24.713  10.951
21355W        W93769  41.385  39.387  12.472
21356W        W93770   8.803  13.641   4.160
21357W        W93771  11.760  20.254   4.215
21358W        W93772  18.624  20.631  11.114
21359W        W93773  21.256  36.984  13.894
21360W        W93774  11.855  18.214   2.414
21361W        W93775  11.240   8.822  13.499
21362W        W93776  11.622   9.849  11.604
21363W        W93777  39.547  36.498   3.850
21364W        W93778  21.720   5.762   0.428
21365W        W93779  35.375  32.918   5.253
21366W        W93780  28.051  13.602   2.212
21367W        W93781  26.055   5.424  14.982
21368W        W93782  15.753   5.772   4.221
21369W        W93783  36.967  44.456   4.308
21370W        W93784  23.232  15.640  14.804
21371W        W93785  33.522  30.459  12.939
21372W        W93786  34.909   1.852   0.461
21373W        W93787  29.588  35.078  12.075
21374W        W93788  22.650   2.227  11.864
21375W        W93789   8.761  25.004   0.289
21376W        W93790  15.178   9.799   3.351
21377W        W93791  18.221  15.144  12.433
21378W        W93792  37.359   6.779   3.386
21379W        W93793   7.828  17.743   1.434
21380W        W93794  30.027   8.217   0.269
21381W        W93795  28.957  19.645   5.299
21382W        W93796  43.443  15.220   1.322
21383W        W93797  26.573  16.695   2.192
21384W        W93798   2.756  11.160  13.326
21385W        W93799  31.488  31.508   0.813
21386W        W93800  38.502  27.165   2.350
21387W        W93801  40.865  25.980   1.904
21388W        W93802  38.872  31.001  11.868
21389W        W93803  33.909  38.499   0.379
21390W        W93804  23.564   2.256   3.760
21391W        W93805   6.879  25.025   1.432
21392W        W93806   2.875  42.800   1.451
21393W        W93807  39.505   7.277  13.318
21394W        W93808   0.273   4.360  14.346
21395W        W93809  44.296  34.591   5.170
21396W        W93810  17.064  21.643   2.295
21397W        W93811  33.594   5.205  10.617
21398W        W93812   3.845  25.070   5.300
21399W        W93813   8.840  20.577   4.153
21400W        W93814   2.831  24.668   1.774
21401W        W93815  26.140  44.437   9.933
21402W        W93816   3.937  12.670  11.040
21403W        W93817  42.032  42.519  10.419
21404W        W93818  13.347  20.591   2.709
21405W        W93819  17.193  43.840  12.852
21406W        W93820   8.841  35.014  11.439
21407W        W93821  11.767  13.783   2.284
21408W        W93822  14.301  29.151  13.359
21409W        W93823  19.607  13.347   2.250
21410W        W93824  44.945  21.585  13.930
21411W        W93825   7.310  37.941   3.803
21412W        W93826   2.846  21.251   2.675
21413W        W93827  33.992  35.066  14.910
21414W        W93828   0.343   3.824   1.900
21415W        W93829  40.539  18.733  10.037
21416W        W93830  38.821  12.731  10.436
21417W        W93831  38.887  31.624  13.449
21418W        W93832   3.724  27.544  10.632
21419W        W93833  15.698   8.182  14.879
21420W        W93834  22.600  13.262   2.877
21421W        W93835  39.509   7.860  12.558
21422W        W93836  26.496  24.045  12.578
21423W        W93837  29.564  13.280   1.889
21424W        W93838  34.036  22.074   1.311
21425W        W93839  10.181  34.613   4.826
21426W        W93840  26.106  44.299  13.875
21427W        W93841  24.695  27.478   3.834
21428W        W93842  40.546  11.697  10.414
21429W        W93843  26.474   6.193   3.257
21430W        W93844  31.607  34.986   3.336
21431W        W93845  14.768  43.275  14.399
21432W        W93846  26.549   9.712   1.314
21433W        W93847   2.379  44.862  13.795
21434W        W93848   2.795  28.112   3.801
21435W        W93849  27.073  44.779   5.285
21436W        W93850  26.603  22.658  13.321
21437W        W93851  25.703   2.456  13.385
21438W        W93852   8.845  40.441   5.237
21439W        W93853  41.502  36.965  10.473
21440W        W93854  39.453  43.859   3.784
21441W        W93855  42.878  36.994   2.857
21442W        W93856  44.801   1.848   4.123
21443W        W93857  43.425  10.712   4.806
21444W        W93858   1.916   7.233  13.545
21445W        W93859   5.281   4.373   0.397
21446W        W93860  17.624  18.173  11.564
21447W        W93861  31.464  23.726  13.408
21448W        W93862  28.996  33.035   0.929
21449W        W93863  13.105  37.916   3.219
21450W        W93864  21.565  43.350   0.303
21451W        W93865   6.762  35.893   3.162
21452W        W93866   7.314  30.133  12.439
21453W        W93867   7.242  36.492   4.143
21454W        W93868  39.555  13.149  11.893
21455W        W93869  24.714   0.363   1.227
21456W        W93870  13.134  41.508  10.120
21457W        W93871  12.233  41.442   2.237
21458W        W93872  36.971  31.897  11.063
21459W        W93873   0.350  14.720  12.345
21460W        W93874  10.851  33.433  11.931
21461W        W93875   6.380  41.297  14.889
21462W        W93876  16.713  21.559   1.912
21463W        W93877  38.952  27.474   3.154
21464W        W93878  33.478  32.928  11.076
21465W        W93879   0.257  26.661  10.984
21466W        W93880  40.004  27.046   2.179
21467W        W93881   5.428  21.645   2.719
21468W        W93882  41.854  43.860   2.673
21469W        W93883  35.938  33.513  12.459
21470W        W93884   1.294  36.585  13.991
21471W        W93885  42.338   6.364  14.875
21472W        W93886  22.082  14.200   0.752
21473W        W93887   4.939  18.624   3.266
21474W        W93888  42.819   9.726  13.357
21475W        W93889  23.987  26.109   0.905
21476W        W93890  32.080  30.145  10.490
21477W        W93891  34.003  17.722   3.292
21478W        W93892   6.224  34.057   0.829
21479W        W93893  16.081   0.791  13.473
21480W        W93894  41.944   5.876  13.491
21481W        W93895   4.413  26.999  14.448
21482W        W93896  36.998  26.660  14.293
21483W        W93897  12.761  43.921   1.221
21484W        W93898  28.674  10.759  11.386
21485W        W93899  39.995   5.711  13.998
21486W        W93900  41.394  17.620  11.946
21487W        W93901  40.464   5.431  12.996
21488W        W93902   3.817  38.036  11.565
21489W        W93903  15.816  15.150  11.916
21490W        W93904  43.342  30.547  11.402
21491W        W93905  35.598  34.022   2.343
21492W        W93906  28.039  21.744  14.774
21493W        W93907   9.695  35.586  13.834
21494W        W93908  14.197   6.859   4.695
21495W        W93909   0.824   6.723  14.792
21496W        W93910  34.075  34.064   2.401
21497W        W93911  38.465  24.089  14.830
21498W        W93912   8.348  26.544   0.454
21499W        W93913  14.639  43.838  11.383
21500W        W93914  44.491  11.218  12.424
21501W        W93915  30.499   2.349   1.284
21502W        W93916  38.920  23.616   3.175
21503W        W93917  40.304   2.877   2.680
21504W        W93918  24.697  40.911   0.448
21505W        W93919   7.342  36.097  11.094
21506W        W93920  27.158  13.179  11.111
21507W        W93921  41.014  39.947  10.961
21508W        W93922  41.019  17.634  13.455
21509W        W93923   7.273  41.366   0.942
21510W        W93924  20.241   4.795   3.794
21511W        W93925  22.569  22.122  10.628
21512W        W93926  18.194   1.391   1.365
21513W        W93927   7.415   6.187   2.366
21514W        W93928   9.204  23.668   0.804
21515W        W93929  10.311   4.939  10.951
21516W        W93930  16.710  11.740   4.775
21517W        W93931  40.904  27.684  11.076
21518W        W93932  39.518   5.377   4.710
21519W        W93933   2.909  44.414  10.535
21520W        W93934  37.021  11.716  13.045
21521W        W93935  20.271  20.159  13.383
21522W        W93936  33.051   1.850   4.295
21523W        W93937  42.970  27.459  10.909
21524W        W93938  34.967  30.649   0.926
21525W        W93939  32.140  22.109   4.351
21526W        W93940  14.175   0.391   0.740
21527W        W93941  21.707   9.695   0.295
21528W        W93942  37.349  16.197  13.990
21529W        W93943  28.488  18.276  12.083
21530W        W93944  21.050  36.991   2.701
21531W        W93945  32.616   8.301   1.822
21532W        W93946   9.736  15.646  13.421
21533W        W93947  26.503  29.633   1.367
21534W        W93948  13.741  35.508   1.311
21535W        W93949   9.150  36.002  14.330
21536W        W93950  38.021  17.564  14.000
21537W        W93951   2.915  43.399   5.614
21538W        W93952  30.011   9.820   0.404
21539W        W93953  39.942  21.160  11.086
21540W        W93954   1.746  21.672  14.006
21541W        W93955  23.078   5.244  11.059
21542W        W93956  28.997  39.843   3.818
21543W        W93957  30.548  33.114  12.982
21544W        W93958  32.895   0.939   2.809
21545W        W93959  30.980   2.286   4.616
21546W        W93960  30.110  14.188   1.890
21547W        W93961  20.129  16.199   2.843
21548W        W93962   2.955  13.294  10.515
21549W        W93963   8.828  39.026   2.702
21550W        W93964  11.770   5.782  10.488
21551W        W93965  43.465   7.201   0.958
21552W        W93966  27.586  35.910   1.874
21553W        W93967   2.801   5.857   4.293
21554W        W93968  10.807  27.954   2.787
21555W        W93969  27.548   1.807   1.366
21556W        W93970  41.824  34.426   2.866
21557W        W93971  18.552  20.106   1.369
21558W        W93972  17.659   6.840  13.467
21559W        W93973  20.551  28.048  14.851
21560W        W93974  39.340  26.200   1.263
21561W        W93975   4.775   1.327   3.814
21562W        W93976  19.178  33.486   1.218
21563W        W93977  17.693  32.118  13.516
21564W        W93978  23.537   8.808  10.892
21565W        W93979  26.168   0.775  14.459
21566W        W93980  15.751   6.418   3.703
21567W        W93981  33.937  23.570   5.299
21568W        W93982  12.641  23.734   1.873
21569W        W93983  18.234  40.526   2.340
21570W        W93984  10.856   9.702   2.317
21571W        W93985   5.860  22.112  14.294
21572W        W93986  41.871  24.077  13.439
21573W        W93987  39.857  38.457  10.507
21574W        W93988  18.628  30.145   1.229
21575W        W93989   3.320  33.108  12.451
21576W        W93990   3.372  38.870   5.237
21577W        W93991  18.118  41.897   2.687
21578W        W93992  39.398  42.882   2.258
21579W        W93993   1.898  20.667  13.816
21580W        W93994  30.017   1.746   0.745
21581W        W93995   7.671  26.194  13.863
21582W        W93996  29.598  36.373  10.618
21583W        W93997   1.832  14.660   0.299
21584W        W93998  37.910  20.556  12.000
21585W        W93999   9.805   0.283   0.257
21586W        W94000   4.909  29.062   2.733
21587W        W94001  15.098  13.625  10.630
21588W        W94002  31.075  21.261   4.178
21589W        W94003  20.607  10.221   4.239
21590W        W94004  41.323   3.440  13.926
21591W        W94005  15.198  18.786   3.278
21592W        W94006  29.514  38.506   2.308
21593W        W94007  26.120  25.568  11.900
21594W        W94008  32.523  39.852   0.435
21595W        W94009  10.244  12.342  10.569
21596W        W94010   1.468  35.535  14.434
21597W        W94011  30.100  11.671  12.408
21598W        W94012  32.523  12.754  13.928
21599W        W94013  28.494   0.343   2.864
21600W        W94014  36.556  30.508   1.708
21601W        W94015   2.283  37.417  10.138
21602W        W94016  38.036  27.003  10.433
21603W        W94017  31.088  24.526  14.374
21604W        W94018  36.383  30.149   0.480
21605W        W94019  33.025   6.882  14.032
21606W        W94020  24.149   4.406  10.448
21607W        W94021  35.505  14.786   2.199
21608W        W94022  38.337   9.202  13.862
21609W        W94023   2.770  30.579  13.996
21610W        W94024  43.402  44.880  10.888
21611W        W94025   9.368   2.885  14.772
21612W        W94026  33.960  31.629   1.447
21613W        W94027  27.065  12.276  14.411
21614W        W94028  41.390  40.403  10.449
21615W        W94029  23.022  34.608   2.681
21616W        W94030  44.982  34.866  13.936
21617W        W94031  24.074  17.257   1.410
21618W        W94032  20.153  33.979  14.762
21619W        W94033  12.769  24.521   3.359
21620W        W94034  20.145  24.028   1.370
21621W        W94035  24.152  10.255  10.468
21622W        W94036   0.856  17.629  11.967
21623W        W94037   5.861  18.705   4.658
21624W        W94038  19.752  21.709   3.199
21625W        W94039   1.407   5.769  13.962
21626W        W94040  16.704  14.234  13.445
21627W        W94041  23.607  15.798  10.611
21628W        W94042   4.288  14.223  10.521
21629W        W94043  36.914  43.949  12.837
21630W        W94044  39.501   5.870   0.423
21631W        W94045  37.572  23.509  14.382
21632W        W94046  44.333  13.785   3.179
21633W        W94047  41.339  41.990  11.124
21634W        W94048  42.783  22.206   4.188
21635W        W94049  19.101  23.191   1.773
21636W        W94050  39.948  37.017  13.947
21637W        W94051  32.616  12.820  14.289
21638W        W94052   0.790  28.488   4.182
21639W        W94053  10.716   0.281  13.807
21640W        W94054  39.982  40.824  11.945
21641W        W94055  22.685  12.776  11.990
21642W        W94056  38.029  36.413  12.515
21643W        W94057  32.018  10.234  12.496
21644W        W94058   9.367   6.241  11.408
21645W        W94059  37.528  28.584   4.218
21646W        W94060  27.948  22.631   3.356
21647W        W94061  20.596  43.815   1.264
21648W        W94062   9.784  35.002  10.628
21649W        W94063  28.097  20.116   0.729
21650W        W94064  43.923  16.136  11.434
21651W        W94065  19.058   0.914  13.407
21652W        W94066  42.877  28.126  10.581
21653W        W94067  25.990  22.048   3.304
21654W        W94068   9.805  44.921   2.694
21655W        W94069  27.508  14.791   4.719
21656W        W94070  13.694  20.236   9.579
21657W        W94071   8.266  38.485   2.192
21658W        W94072  13.705  31.480   2.293
21659W        W94073   5.338   7.861  10.560
21660W        W94074  11.244   7.683  12.992
21661W        W94075   2.894  40.466   9.496
21662W        W94076  19.776  44.783   0.807
21663W        W94077   8.332   5.773   4.755
21664W        W94078   4.720  40.874   1.276
21665W        W94079  39.508  24.205   3.322
21666W        W94080  44.483  23.495  14.362
21667W        W94081  25.188  22.724   2.383
21668W        W94082  31.948  25.589  12.085
21669W        W94083  29.061  13.109   4.283
21670W        W94084  26.162  19.210  13.055
21671W        W94085  40.321   2.365   2.185
21672W        W94086  24.069  13.677   1.359
21673W        W94087  19.210  10.338  10.907
21674W        W94088  36.524  16.751  14.341
21675W        W94089  38.521   6.787  13.866
21676W        W94090  44.408  12.752   9.993
21677W        W94091  12.780   2.829  13.472
21678W        W94092  13.705  34.015   3.364
21679W        W94093  40.964  11.186  11.605
21680W        W94094   1.958  39.542  13.973
21681W        W94095  13.261  41.824   1.855
21682W        W94096   5.840  10.814  13.511
21683W        W94097  29.444  28.992  13.965
21684W        W94098   6.186  35.047  14.986
21685W        W94099  17.736  20.171   1.312
21686W        W94100  13.336  38.988   2.900
21687W        W94101  20.589  21.747  11.981
21688W        W94102  20.673   3.928  14.977
21689W        W94103   4.729  11.259   0.288
21690W        W94104   3.761   8.853  10.969
21691W        W94105   2.410  22.080  14.975
21692W        W94106  25.548  15.294   4.714
21693W        W94107  15.615  42.976   2.797
21694W        W94108   7.348  18.185  14.812
21695W        W94109  18.067  37.848  12.858
21696W        W94110  33.109  16.247  10.490
21697W        W94111  14.619  31.417   0.866
21698W        W94112   9.216   6.197  12.387
21699W        W94113  37.440  31.514  12.829
21700W        W94114   0.281  15.277  11.554
21701W        W94115  25.506   7.770   1.870
21702W        W94116   9.836  27.114   0.769
21703W        W94117  16.097  37.019   3.836
21704W        W94118  36.931  13.326   3.833
21705W        W94119   0.389   0.394  11.068
21706W        W94120  36.090   7.284  13.891
21707W        W94121   4.373  28.071   5.572
21708W        W94122  43.883  24.190  10.528
21709W        W94123  14.193   4.816   3.666
21710W        W94124   9.864   4.413   0.906
21711W        W94125   5.867  16.648  13.981
21712W        W94126   3.254  22.063   3.677
21713W        W94127   8.837   0.350   3.737
21714W        W94128   8.281  21.721   4.155
21715W        W94129  44.756  38.031   4.254
21716W        W94130  29.441   6.791   1.805
21717W        W94131   9.870  16.736   1.219
21718W        W94132  34.872  15.780   4.718
21719W        W94133  22.040  27.454   1.413
21720W        W94134   6.790  31.966  13.985
21721W        W94135  15.136  40.469  12.348
21722W        W94136  31.976   2.788  10.933
21723W        W94137  35.015  39.064  11.065
21724W        W94138  37.834   4.801   0.481
21725W        W94139  18.239  17.629  11.596
21726W        W94140  38.922  17.184  14.341
21727W        W94141  16.269  22.597  11.118
21728W        W94142  15.655  40.472   1.796
21729W        W94143  23.049  39.400  14.013
21730W        W94144  31.103  15.823   3.854
21731W        W94145  10.292  23.147  14.509
21732W        W94146  14.750  28.501   1.351
21733W        W94147  38.494   0.923  10.439
21734W        W94148  40.320  14.632   4.236
21735W        W94149  32.113  37.918   0.393
21736W        W94150   9.762  41.341  14.353
21737W        W94151  40.416   9.155   1.303
21738W        W94152  38.460  18.192   0.450
21739W        W94153  12.786   4.326  12.834
21740W        W94154  36.965  34.488   4.318
21741W        W94155   1.889   3.266   4.267
21742W        W94156  34.923  11.215  14.934
21743W        W94157   1.292  23.107  14.856
21744W        W94158  33.434  30.413   3.373
21745W        W94159  36.878  38.020  12.061
21746W        W94160  44.832   4.800  11.865
21747W        W94161  15.713   7.296   1.341
21748W        W94162  37.462  32.577  11.547
21749W        W94163  14.121  25.984   3.154
21750W        W94164  20.056   3.828   2.364
21751W        W94165  34.915   0.418  14.865
21752W        W94166   9.322   8.836   0.812
21753W        W94167  26.578  32.430  14.345
21754W        W94168  44.914  31.144   3.793
21755W        W94169  20.765  37.869  14.853
21756W        W94170   1.472  10.203  11.475
21757W        W94171   4.335  31.516   4.767
21758W        W94172  20.641  31.910   0.452
21759W        W94173  22.601  30.013   2.216
21760W        W94174  19.548  27.604  14.848
21761W        W94175   5.852  29.450  14.867
21762W        W94176   5.689  41.922   1.757
21763W        W94177   5.800  30.050  14.032
21764W        W94178  20.058  40.832  14.810
21765W        W94179  24.197  42.294   0.461
21766W        W94180  42.481  40.984  13.483
21767W        W94181  37.870  13.834   2.229
21768W        W94182  35.085  26.629   4.670
21769W        W94183  40.860   8.257   3.152
21770W        W94184  35.923  29.924  12.917
21771W        W94185  43.777  38.455  13.897
21772W        W94186  40.875   5.717  13.454
21773W        W94187  26.522   4.797   1.369
21774W        W94188  18.761   9.851   3.378
21775W        W94189  25.546  29.998   3.827
21776W        W94190  37.023  37.476  13.904
21777W        W94191  39.862  13.152  11.979
21778W        W94192  35.002  41.470   0.252
21779W        W94193  21.098   4.228  14.460
21780W        W94194  28.445  23.020  13.997
21781W        W94195  29.094  30.510   0.319
21782W        W94196  12.239  16.786   1.819
21783W        W94197  33.407  20.069   0.458
21784W        W94198  22.037  11.819   4.816
21785W        W94199  28.445  20.767   3.856
21786W        W94200   3.216  15.781   1.815
21787W        W94201  37.389  34.438  14.468
21788W        W94202   6.903   2.247  14.840
21789W        W94203   6.802  30.921   0.419
21790W        W94204  40.475  39.329  10.549
21791W        W94205  13.744  16.212  11.612
21792W        W94206   2.876  39.485   2.886
21793W        W94207   3.822  15.084   3.360
21794W        W94208  36.877  44.798   0.792
21795W        W94209  26.134  38.026  14.342
21796W        W94210   0.309  32.983  14.390
21797W        W94211  34.935   1.353   1.834
21798W        W94212  25.175  42.382   2.318
21799W        W94213  32.553   2.896   1.368
21800W        W94214  38.498  28.660   0.836
21801W        W94215  17.156  12.216   0.819
21802W        W94216  23.191  38.520  13.887
21803W        W94217  31.023  30.071  13.806
21804W        W94218  37.499  18.596  14.368
21805W        W94219   8.848  11.335   9.988
21806W        W94220   3.868   6.204   2.182
21807W        W94221   8.335   1.471   1.445
21808W        W94222  16.203  26.689   4.271
21809W        W94223  36.096  19.580  12.456
21810W        W94224  31.970  44.894  12.005
21811W        W94225  18.766  42.941   2.301
21812W        W94226  32.584  23.713  14.962
21813W        W94227   5.735  39.387  12.438
21814W        W94228  18.052  17.605  14.875
21815W        W94229  24.227  15.111   4.774
21816W        W94230  19.146  28.962  13.509
21817W        W94231  34.591   9.690   3.706
21818W        W94232  31.511   6.727   3.160
21819W        W94233   9.379  33.050  14.878
21820W        W94234  22.208  43.414  11.540
21821W        W94235  33.977  23.555   0.751
21822W        W94236  26.635   9.343   4.195
21823W        W94237  29.613  33.962   3.863
21824W        W94238  32.117  33.056  12.834
21825W        W94239  20.144  33.512   4.122
21826W        W94240  17.788  25.644  13.895
21827W        W94241  21.099  19.682   0.773
21828W        W94242  41.005   9.384  12.441
21829W        W94243  17.188  41.042   3.681
21830W        W94244  44.458  13.778  11.992
21831W        W94245  20.240  31.467  11.610
21832W        W94246  41.445  19.545  14.980
21833W        W94247  41.366   0.400   0.901
21834W        W94248  38.457  44.297  13.351
21835W        W94249  16.750  23.133  11.886
21836W        W94250   5.308  14.761  11.074
21837W        W94251  27.486   3.365  11.496
21838W        W94252  43.443  34.865   2.715
21839W        W94253  14.236  36.536   1.781
21840W        W94254  35.413  11.226  13.419
21841W        W94255   2.368  41.394  12.012
21842W        W94256   4.878   4.751  10.907
21843W        W94257  29.037  43.984  10.553
21844W        W94258   0.335  33.103   3.164
21845W        W94259  32.127   8.801  13.914
21846W        W94260  32.475  27.966  14.787
21847W        W94261  26.144   0.257   3.356
21848W        W94262  12.131  35.456   0.385
21849W        W94263  11.825  42.447   2.321
21850W        W94264  43.892  43.904  12.005
21851W        W94265  24.109  40.501  10.940
21852W        W94266  23.022  32.062   0.416
21853W        W94267  13.650  43.987  13.500
21854W        W94268  32.966  19.164  13.519
21855W        W94269  26.964  27.467  12.928
21856W        W94270  38.885  12.169  14.289
21857W        W94271  44.456  29.581   1.220
21858W        W94272  11.182  37.409  13.904
21859W        W94273  41.950   1.798   1.342
21860W        W94274   0.476  29.166  10.465
21861W        W94275  30.031   6.719  14.011
21862W        W94276   4.379   9.164  14.891
21863W        W94277  22.742  16.148   2.218
21864W        W94278   1.465  19.168   4.128
21865W        W94279  10.715   8.400  14.275
21866W        W94280  24.544  25.621  10.555
21867W        W94281  11.708  35.976  11.108
21868W        W94282  27.691  22.652  14.365
21869W        W94283  19.099  41.426   4.751
21870W        W94284  38.912  28.659  14.856
21871W        W94285   1.968  26.080  14.350
21872W        W94286  27.111   1.825  12.967
21873W        W94287   5.794   5.342   2.398
21874W        W94288  19.189  32.905  10.546
21875W        W94289  25.193  44.819  14.829
21876W        W94290   5.823   8.275  12.558
21877W        W94291  15.252  14.217  10.510
21878W        W94292  37.527   7.221   0.888
21879W        W94293  17.253  18.054   3.164
21880W        W94294  18.691  31.117   0.405
21881W        W94295  24.217   9.309   1.446
21882W        W94296  24.980   6.202  12.884
21883W        W94297   2.944  10.347  11.039
21884W        W94298   5.777  10.818  12.535
21885W        W94299  11.178  25.685  14.372
21886W        W94300  20.052   6.302   0.292
21887W        W94301  10.140  37.414  12.075
21888W        W94302  12.280  17.783   4.140
21889W        W94303  25.706  38.073   4.795
21890W        W94304  22.600   6.896   3.377
21891W        W94305  20.125  13.349   3.166
21892W        W94306  38.415  21.165   4.831
21893W        W94307  25.570  18.127  11.999
21894W        W94308  18.786  10.381  14.300
21895W        W94309  24.975   9.772   3.788
21896W        W94310  13.236   8.309  12.348
21897W        W94311  37.471  27.468  10.053
21898W        W94312   0.456   4.422   4.145
21899W        W94313   0.808  17.714  10.075
21900W        W94314  22.164   2.471  11.882
21901W        W94315  36.973  30.930  13.528
21902W        W94316   8.376  14.279   0.428
21903W        W94317  24.682  10.703   2.223
21904W        W94318  19.618  26.146   4.803
21905W        W94319  38.039  43.951  13.497
21906W        W94320  42.327  42.398  12.534
21907W        W94321  37.902  16.120  14.962
21908W        W94322   3.731   2.257   1.879
21909W        W94323  19.608   4.374   4.217
21910W        W94324  35.487  29.647   2.411
21911W        W94325  32.490  40.441  12.350
21912W        W94326  14.327   0.769  14.851
21913W        W94327  22.543   8.820  14.761
21914W        W94328  20.526  13.638   1.332
21915W        W94329  38.925  41.352  13.965
21916W        W94330  37.029   7.202  12.374
21917W        W94331  33.129  17.245   4.818
21918W        W94332   0.884  40.004   2.767
21919W        W94333  29.169  22.162   3.637
21920W        W94334   1.319  14.782   3.819
21921W        W94335  28.163   3.247   3.639
21922W        W94336  44.854  25.100   0.833
21923W        W94337  13.839  33.949  13.010
21924W        W94338  31.080  19.622  11.590
21925W        W94339  23.008  41.420   1.755
21926W        W94340  41.440  27.560   0.363
21927W        W94341  31.428   8.656   0.858
21928W        W94342  39.009  20.190  10.919
21929W        W94343  21.633  36.878   0.391
21930W        W94344  38.397  37.420   3.373
21931W        W94345  13.213  10.833   4.342
21932W        W94346   4.865  40.889   4.154
21933W        W94347  17.245  36.090  12.375
21934W        W94348  21.215  13.722  10.888
21935W        W94349  41.472  17.284   4.185
21936W        W94350  20.710  10.227   0.475
21937W        W94351  26.513  24.131   0.788
21938W        W94352  39.442  36.384   3.197
21939W        W94353  28.636  35.938  13.894
21940W        W94354  33.924  23.181   4.267
21941W        W94355   4.283  16.762  10.438
21942W        W94356  27.453   2.965  10.595
21943W        W94357  43.483  26.610  10.028
21944W        W94358  27.134  25.687  13.311
21945W        W94359  40.512  34.372   1.407
21946W        W94360  41.018  23.526   1.347
21947W        W94361  33.989  38.989   1.840
21948W        W94362  30.499  40.818   4.687
21949W        W94363   6.899  24.630   2.339
21950W        W94364  42.829  33.447   3.287
21951W        W94365  39.931  27.598  13.030
21952W        W94366  20.715   9.868  10.630
21953W        W94367   4.303   3.323  14.832
21954W        W94368  20.193   0.394   3.283
21955W        W94369  31.950  34.615   3.345
21956W        W94370  16.800  22.217   1.325
21957W        W94371  33.411  10.358   1.239
21958W        W94372  40.543  33.903   1.416
21959W        W94373  30.547  36.926   4.275
21960W        W94374  10.837  17.568  11.109
21961W        W94375  12.784  16.239  14.305
21962W        W94376   6.852  13.322  13.873
21963W        W94377  16.106  15.253   3.696
21964W        W94378  22.609  21.682   3.231
21965W        W94379  13.643  22.107  13.013
21966W        W94380  22.538  11.178  10.020
21967W        W94381  19.180   2.834  14.988
21968W        W94382  23.670  21.204   4.152
21969W        W94383  23.733  20.256  12.039
21970W        W94384  18.076  16.277  13.017
21971W        W94385   9.332   4.773   2.390
21972W        W94386  43.998  37.518  11.598
21973W        W94387  31.077   8.396  13.012
21974W        W94388  27.056  42.508  11.991
21975W        W94389   1.401  23.178   2.740
21976W        W94390  24.111  35.867   4.314
21977W        W94391  44.797  44.818   4.731
21978W        W94392  23.694  21.524   2.745
21979W        W94393  19.593  12.724   2.895
21980W        W94394  18.721  13.153   0.294
21981W        W94395  12.196   7.268   3.870
21982W        W94396  41.826  37.336  11.576
21983W        W94397  17.704   6.797  11.057
21984W        W94398  26.645  35.960  11.534
21985W        W94399  25.047   7.283   3.742
21986W        W94400   2.720  19.533   4.194
21987W        W94401  39.923  31.122  12.962
21988W        W94402  10.694  22.672  11.468
21989W        W94403  25.671  24.162   4.728
21990W        W94404   0.469  19.615   2.669
21991W        W94405  28.567  32.907  11.119
21992W        W94406   8.852  30.590  12.449
21993W        W94407  31.436  24.578  13.974
21994W        W94408   2.373  14.301  10.926
21995W        W94409  23.075  34.558  11.069
21996W        W94410  29.437  43.365  10.523
21997W        W94411  28.459  41.501  13.890
21998W        W94412  35.068   6.895  14.278
21999W        W94413  24.642  37.367  13.474
22000W        W94414  28.491  18.097  14.805
22001W        W94415  41.347   7.299   4.737
22002W        W94416  38.368   0.450  14.981
22003W        W94417  10.384   0.859   0.787
22004W        W94418  34.487  32.470   2.813
22005W        W94419  35.444   8.198   1.764
22006W        W94420  27.470  16.221  11.912
22007W        W94421  38.557   4.409  14.289
22008W        W94422  19.176   1.387   1.338
22009W        W94423  39.874  16.694   1.711
22010W        W94424   7.396  37.366   2.804
22011W        W94425  15.195   3.944  13.394
22012W        W94426  23.522  43.943   0.760
22013W        W94427  41.385  17.783  12.883
22014W        W94428  40.522   5.252  11.475
22015W        W94429  32.444  19.196   3.675
22016W        W94430   6.769  39.856   1.811
22017W        W94431  30.434  40.883   2.899
22018W        W94432  29.547  10.837  14.474
22019W        W94433  38.472  14.205  12.860
22020W        W94434  39.941  23.566  14.454
22021W        W94435   3.331   9.752   3.672
22022W        W94436   6.416  39.065   4.322
22023W        W94437   7.264   9.861  14.776
22024W        W94438  25.119  18.140   0.458
22025W        W94439  22.524  28.567  10.416
22026W        W94440   5.837  31.556  10.985
22027W        W94441  28.022  10.743  11.425
22028W        W94442  30.028  33.078   3.231
22029W        W94443   6.208  10.681  10.946
22030W        W94444  16.570  14.795  13.892
22031W        W94445   2.322  18.710   0.734
22032W        W94446  16.241  20.194  12.538
22033W        W94447  20.172  38.867  10.572
22034W        W94448  12.625  23.728   4.218
22035W        W94449  39.971  30.537   4.720
22036W        W94450  30.574   1.878   1.435
22037W        W94451  26.619  18.126  14.015
22038W        W94452  28.460  20.537  12.980
22039W        W94453  35.856  31.570   4.699
22040W        W94454  36.578  14.670  10.447
22041W        W94455   5.788  28.142  11.568
22042W        W94456  37.338  22.537  11.994
22043W        W94457   6.771   3.418  13.937
22044W        W94458   6.395  17.779  12.874
22045W        W94459  24.982  16.262  12.092
22046W        W94460  32.050  38.385  12.964
22047W        W94461  16.170   9.341  14.487
22048W        W94462  37.557  44.417   5.151
22049W        W94463   4.307  36.521   0.901
22050W        W94464  16.107  12.778  10.917
22051W        W94465  11.231  10.679   3.856
22052W        W94466  16.233  24.685   4.159
22053W        W94467  28.444  13.798   4.251
22054W        W94468  18.173   6.857   4.659
22055W        W94469  17.178  30.091  11.083
22056W        W94470   6.187   6.236   2.879
22057W        W94471  27.993  11.865   4.637
22058W        W94472   4.814  22.020  14.294
22059W        W94473  15.586  25.000  14.423
22060W        W94474   5.211  41.408   4.255
22061W        W94475  10.353  20.649   3.771
22062W        W94476  32.485  25.097   1.280
22063W        W94477  10.346  26.969   1.720
22064W        W94478   6.302   1.848  10.435
22065W        W94479  26.510  27.648   2.357
22066W        W94480  29.650   7.721   4.783
22067W        W94481  44.861   1.291  11.043
22068W        W94482  31.508   4.763   4.141
22069W        W94483  35.386  24.642   0.363
22070W        W94484  13.797  19.620  14.345
22071W        W94485  43.275  41.520  12.549
22072W        W94486   3.826  11.325   0.778
22073W        W94487   0.294   2.246  13.547
22074W        W94488  18.197  43.795   3.369
22075W        W94489  40.871  37.522  12.860
22076W        W94490  21.569   7.777  12.954
22077W        W94491  27.610   6.376   0.456
22078W        W94492  36.975  39.450   0.749
22079W        W94493  21.237   6.719  10.583
22080W        W94494   0.812  42.996  14.896
22081W        W94495   1.862  28.662  13.008
22082W        W94496  28.653  36.517   1.243
22083W        W94497  37.842  26.610   0.379
22084W        W94498  17.182  11.287  14.509
22085W        W94499   2.403  17.172   4.832
22086W        W94500   8.891   7.178   1.231
22087W        W94501  41.407  10.157  13.361
22088W        W94502  26.058  16.312  12.442
22089W        W94503  26.037  37.020   1.756
22090W        W94504  14.730   9.376   0.397
22091W        W94505  36.848  33.552   2.390
22092W        W94506  10.663   1.247  10.422
22093W        W94507  42.854  30.110   3.170
22094W        W94508   5.329  16.707  13.999
22095W        W94509  35.442  19.163   2.758
22096W        W94510  17.210  29.019   2.234
22097W        W94511   6.865   4.797  11.946
22098W        W94512   9.735  38.483  13.800
22099W        W94513  29.595  25.500  14.996
22100W        W94514  30.630  36.533   3.634
22101W        W94515   1.387  33.957  14.953
22102W        W94516  26.558  21.565  13.831
22103W        W94517   4.428  14.122   4.686
22104W        W94518  11.289  10.766   2.401
22105W        W94519   4.273   2.447   0.801
22106W        W94520  41.374  23.204  11.940
22107W        W94521  29.944   3.880   3.692
22108W        W94522  26.464  41.316  11.613
22109W        W94523  23.730  26.062  10.457
22110W        W94524   1.394  41.333   2.666
22111W        W94525   5.776   8.695  14.437
22112W        W94526   9.867  22.213   4.283
22113W        W94527  10.355   7.407   4.663
22114W        W94528  25.025  17.648  14.413
22115W        W94529  22.184  38.354  10.564
22116W        W94530   5.813  31.099   3.165
22117W        W94531   0.913   5.439   1.250
22118W        W94532  29.070   4.294  12.960
22119W        W94533   7.802  19.220   4.793
22120W        W94534  26.009  32.009   5.111
22121W        W94535   0.480  39.339   4.276
22122W        W94536  40.009  14.237  13.411
22123W        W94537   6.414  28.495  14.831
22124W        W94538   0.251  13.812   3.196
22125W        W94539  17.197  22.531   5.083
22126W        W94540   4.791  28.667   2.331
22127W        W94541   4.235  24.188   0.936
22128W        W94542  19.711  18.654  13.791
22129W        W94543  21.160  29.565  10.991
22130W        W94544  29.068  39.061  11.089
22131W        W94545  34.092  32.886  11.564
22132W        W94546  39.489  34.552   2.402
22133W        W94547   2.279  26.521   1.818
22134W        W94548  38.821  16.711  11.861
22135W        W94549  14.771  19.697  11.903
22136W        W94550  24.984  21.119   2.705
22137W        W94551  21.515  15.228   3.334
22138W        W94552   5.355  26.646  11.912
22139W        W94553  33.573  32.885   0.832
22140W        W94554  27.563  38.895   3.295
22141W        W94555   0.361   8.877   5.170
22142W        W94556  37.402  32.436   3.270
22143W        W94557  24.724  11.860  14.014
22144W        W94558  21.213  10.871  12.385
22145W        W94559  22.605  20.573   1.438
22146W        W94560  14.225  36.909  10.529
22147W        W94561   9.357  39.817  10.530
22148W        W94562  35.506   8.345  11.107
22149W        W94563  19.233  40.839   3.823
22150W        W94564  28.500  22.705  13.797
22151W        W94565  28.573   4.369  13.037
22152W        W94566  17.253   0.411   5.152
22153W        W94567  16.766  42.939   2.763
22154W        W94568  37.562  17.177   1.241
22155W        W94569  33.436  23.492   9.999
22156W        W94570  27.992  27.502  10.898
22157W        W94571  22.115   9.645  11.463
22158W        W94572   3.245   8.880  12.064
22159W        W94573  36.920  44.807   2.268
22160W        W94574   5.804  12.830   0.748
22161W        W94575  33.511  40.328   5.159
22162W        W94576  34.024  33.552   2.766
22163W        W94577   7.384   7.210   0.472
22164W        W94578  19.250   0.955  14.470
22165W        W94579   5.423  39.536   2.857
22166W        W94580  11.772  26.001  13.827
22167W        W94581  11.155  43.782  12.079
22168W        W94582  11.696  15.291   2.190
22169W        W94583  16.612   2.328   0.448
22170W        W94584  36.404  12.855  14.027
22171W        W94585  28.061  20.688  14.419
22172W        W94586  15.770  24.152   2.761
22173W        W94587  14.125  31.092  13.906
22174W        W94588  15.625  30.523   4.686
22175W        W94589  28.093  23.087   4.161
22176W        W94590  38.378  38.916  11.485
22177W        W94591   6.232  14.220   1.741
22178W        W94592   8.683  26.695   0.472
22179W        W94593   4.879  24.575   1.282
22180W        W94594   5.882  41.855   2.899
22181W        W94595  17.773  30.033   4.755
22182W        W94596  10.707  28.987   3.679
22183W        W94597  30.461  15.184   1.352
22184W        W94598   9.210  41.400   2.680
22185W        W94599   5.883  37.457   3.290
22186W        W94600   8.191  34.404   3.185
22187W        W94601  43.291  12.277  10.510
22188W        W94602  32.523   9.700  14.981
22189W        W94603  35.915   6.905  11.029
22190W        W94604  15.261  26.008   3.180
22191W        W94605   2.752  29.990  11.875
22192W        W94606  11.357  44.390   4.149
22193W        W94607  23.622  41.936  12.035
22194W        W94608  40.963  21.199  14.472
22195W        W94609   1.742  21.577   1.321
22196W        W94610  41.925  29.500   0.367
22197W        W94611   9.879   7.819   0.916
22198W        W94612  42.370  42.883  14.301
22199W        W94613   1.922  10.778  12.878
22200W        W94614  28.071  10.643   4.130
22201W        W94615   8.771   3.892   2.213
22202W        W94616  13.272  41.320   3.665
22203W        W94617  37.995  12.768  11.464
22204W        W94618  30.039   7.852  14.470
22205W        W94619   4.369   1.270   3.694
22206W        W94620  10.358  18.577   2.328
22207W        W94621   7.879  18.262  13.878
22208W        W94622  20.609   6.370  10.576
22209W        W94623  23.677   9.732   1.875
22210W        W94624  26.555  13.109   0.415
22211W        W94625  21.613  18.254  12.522
22212W        W94626   9.294   2.907   0.769
22213W        W94627  43.462  20.153   3.697
22214W        W94628  43.916  11.784  14.002
22215W        W94629   9.731  32.137   1.288
22216W        W94630  31.551  44.289   1.396
22217W        W94631  36.052  32.901   4.295
22218W        W94632  30.093  38.025  13.869
22219W        W94633  26.063  14.319   4.693
22220W        W94634  44.369  21.075   3.178
22221W        W94635   0.980   6.305   3.788
22222W        W94636  34.452  32.097   4.672
22223W        W94637  11.771   8.827  11.870
22224W        W94638  44.271  11.798  11.945
22225W        W94639  32.562  22.208   3.854
22226W        W94640   6.765   5.287  11.433
22227W        W94641  11.860   9.651  14.437
22228W        W94642  43.005  19.106   1.902
22229W        W94643  16.279   2.418  10.903
22230W        W94644  35.389  28.457   1.326
22231W        W94645   0.351  23.224   2.805
22232W        W94646  23.050   8.405   2.202
22233W        W94647  32.950  35.994  13.809
22234W        W94648  25.674  41.324  12.083
22235W        W94649  40.361  40.450   2.781
22236W        W94650  40.365   3.796   2.718
22237W        W94651  25.534   3.400  11.531
22238W        W94652  12.232  42.807  13.330
22239W        W94653  28.535   7.742  14.843
22240W        W94654   5.397  22.206   3.723
22241W        W94655  11.338  12.788   0.283
22242W        W94656  31.599  12.741   3.795
22243W        W94657  20.209  36.077  14.943
22244W        W94658  15.301  24.059   2.672
22245W        W94659  14.221   7.412   4.769
22246W        W94660  20.644  29.498  14.306
22247W        W94661  25.520  22.708   1.832
22248W        W94662  19.070  42.471   0.787
22249W        W94663  40.319  10.646   0.477
22250W        W94664  33.597  32.528   2.758
22251W        W94665  24.060  23.678  10.630
22252W        W94666  14.200   5.436   4.120
22253W        W94667  24.207  40.316   4.679
22254W        W94668  25.666   2.801   4.673
22255W        W94669   5.305  17.570   1.301
22256W        W94670  22.652  32.003   2.818
22257W        W94671  36.890  24.566  10.566
22258W        W94672  30.017   8.182  11.890
22259W        W94673   3.330  18.696  12.861
22260W        W94674  39.366  29.102  12.076
22261W        W94675  43.008  39.398   3.160
22262W        W94676  11.153  31.496   4.275
22263W        W94677  41.937  40.047   0.886
22264W        W94678  30.469   0.412   3.778
22265W        W94679  26.125  16.119  11.863
22266W        W94680  31.627   7.253  12.357
22267W        W94681  39.994  36.906   1.258
22268W        W94682  36.580  33.986  14.326
22269W        W94683  39.050  12.180   1.711
22270W        W94684   1.913  35.396  13.403
22271W        W94685  22.517  29.465   4.254
22272W        W94686  12.202   4.940   1.421
22273W        W94687  19.582  41.373  13.809
22274W        W94688  20.650  19.163   4.204
22275W        W94689   6.716   9.259   2.333
22276W        W94690   2.408  19.560   2.692
22277W        W94691  19.279  41.527   1.220
22278W        W94692  32.111   2.374  12.496
22279W        W94693  16.219  28.647   3.228
22280W        W94694  41.991  31.008  11.097
22281W        W94695  41.458  13.698   3.280
22282W        W94696  19.273  13.764   2.738
22283W        W94697  26.066  16.276  14.364
22284W        W94698   4.756  17.223   2.697
22285W        W94699  43.506  36.457  12.368
22286W        W94700  20.714  27.603  11.414
22287W        W94701   2.775  41.400   3.748
22288W        W94702  42.445  21.607  14.910
22289W        W94703  22.032  10.225   1.371
22290W        W94704  41.916  24.723   0.880
22291W        W94705  27.077  13.233   1.918
22292W        W94706  14.249  39.330   3.386
22293W        W94707  31.914  34.415  13.324
22294W        W94708   0.930  20.696   0.432
22295W        W94709  25.146  11.156  11.096
22296W        W94710  27.481  19.253   3.309
22297W        W94711   9.391   8.806  12.831
22298W        W94712  15.267  15.103  13.995
22299W        W94713  32.408  19.610  10.968
22300W        W94714  23.027  14.286   1.258
22301W        W94715  44.826  40.395   1.822
22302W        W94716   7.729  42.863  12.520
22303W        W94717   3.310  34.589   4.601
22304W        W94718  44.354  32.492  12.859
22305W        W94719  10.190   9.782  13.849
22306W        W94720  16.801  19.682  13.929
22307W        W94721  36.848  14.217  11.902
22308W        W94722   4.814  16.635  11.915
22309W        W94723   7.281  37.931   0.419
22310W        W94724   8.299  21.718  11.503
22311W        W94725  22.012   0.450   1.710
22312W        W94726  24.069   0.746  11.095
22313W        W94727  27.946  27.115  10.451
22314W        W94728  11.747  38.899   0.315
22315W        W94729  13.223   3.739   2.350
22316W        W94730  10.782  36.969  14.955
22317W        W94731  27.671  19.643  12.072
22318W        W94732  13.701  20.198  11.381
22319W        W94733   6.278  36.852  12.372
22320W        W94734  13.604  21.565  12.512
22321W        W94735  25.086  17.126   3.844
22322W        W94736  43.299  34.908  14.283
22323W        W94737  42.304  39.834   3.720
22324W        W94738  23.518  22.566   0.795
22325W        W94739  11.678  40.489   0.825
22326W        W94740  22.244  13.787   4.114
22327W        W94741  25.593  19.773  13.542
22328W        W94742  35.358  27.487   0.272
22329W        W94743  22.132  31.646  12.055
22330W        W94744  35.971   8.300  12.881
22331W        W94745  21.642   1.259   0.891
22332W        W94746  44.769  35.531   2.336
22333W        W94747  39.358  17.610  13.053
22334W        W94748  13.240  13.660  12.003
22335W        W94749  16.187  21.264   1.801
22336W        W94750  40.892   7.352   3.329
22337W        W94751  17.646  31.948  10.488
22338W        W94752  12.311  21.067  10.643
22339W        W94753  23.103   0.784  13.026
22340W        W94754   3.327  33.020   4.837
22341W        W94755   7.363  20.222  10.438
22342W        W94756   7.326  42.908  12.921
22343W        W94757  16.113  18.201  12.851
22344W        W94758   7.737  30.164  13.846
22345W        W94759  33.045  24.017   5.305
22346W        W94760   9.783  20.101  14.937
22347W        W94761  42.890  36.046  13.798
22348W        W94762  10.843   7.178  14.811
22349W        W94763  19.154   5.307  12.966
22350W        W94764  21.724  33.996  14.352
22351W        W94765   8.774  11.358  14.359
22352W        W94766  10.277  43.958  10.559
22353W        W94767  21.135  33.398  11.593
22354W        W94768   2.798   0.474  11.125
22355W        W94769  33.073  39.047  10.576
22356W        W94770  11.732  35.440  14.973
22357W        W94771  23.613   3.375   0.790
22358W        W94772  25.009  42.031   0.289
22359W        W94773  36.962  38.999  14.874
22360W        W94774  26.685  20.131  12.843
22361W        W94775  38.457  23.552  13.942
22362W        W94776  21.620   6.857   3.346
22363W        W94777   9.717  18.066  11.465
22364W        W94778  26.995  16.704  13.393
22365W        W94779  36.537  19.062   2.748
22366W        W94780  15.586  15.648  14.834
22367W        W94781   5.381   6.262  11.106
22368W        W94782  36.075  20.543   0.392
22369W        W94783  41.006  30.527  12.927
22370W        W94784   7.763   0.358  11.505
22371W        W94785  11.712   7.774  13.960
22372W        W94786  24.000  14.610  12.530
22373W        W94787  22.645   6.746  13.017
22374W        W94788  11.211  39.442   1.417
22375W        W94789  40.009  36.044  14.953
22376W        W94790  13.772  28.984   4.673
22377W        W94791  36.374  19.227   4.705
22378W        W94792  31.556   0.828   0.775
22379W        W94793  10.291   3.890  14.023
22380W        W94794  40.003   5.703   4.164
22381W        W94795  14.797  13.814  12.902
22382W        W94796  12.232  44.477   3.749
22383W        W94797   9.155  10.657  14.774
22384W        W94798  10.831  30.553  14.780
22385W        W94799  11.248  11.790   0.268
22386W        W94800  37.079  36.578  13.490
22387W        W94801   0.328  18.565   4.803
22388W        W94802  28.111  32.512   3.277
22389W        W94803  38.848  19.575   3.803
22390W        W94804  11.220  19.275   2.705
22391W        W94805   5.201  27.039   5.135
22392W        W94806   9.794  11.264   1.841
22393W        W94807   1.410  39.967   2.779
22394W        W94808   6.189  36.575   2.371
22395W        W94809  14.762  16.681  11.412
22396W        W94810  24.192   4.824   2.816
22397W        W94811  35.978  33.936  12.048
22398W        W94812  31.538   7.837   3.288
22399W        W94813  40.426  40.911  14.911
22400W        W94814   5.734  35.549   1.742
22401W        W94815  11.162  14.755  11.455
22402W        W94816  30.565  42.989  13.369
22403W        W94817  43.767  27.075   2.250
22404W        W94818  39.006  28.478  11.904
22405W        W94819  38.534   3.275   1.813
22406W        W94820  36.872   0.761   4.789
22407W        W94821   5.876  21.255   2.664
22408W        W94822  20.180  13.613  14.017
22409W        W94823  17.127  23.142   0.337
22410W        W94824  20.090  12.670   4.308
22411W        W94825   9.328  29.613   2.740
22412W        W94826   9.834  28.657   2.276
22413W        W94827  44.994  14.679   1.252
22414W        W94828  13.778  31.449   4.801
22415W        W94829  15.749   0.421  11.129
22416W        W94830   0.475  40.450   3.213
22417W        W94831   4.745  23.605   0.947
22418W        W94832  24.009  11.223  11.556
22419W        W94833  28.169  18.113   3.338
22420W        W94834  29.173  18.556  11.957
22421W        W94835  42.484  44.809  10.529
22422W        W94836  21.713  44.946   1.244
22423W        W94837  37.421   7.374   2.349
22424W        W94838   8.219  34.925   0.741
22425W        W94839  28.576   7.379   2.681
22426W        W94840  34.522   4.847  13.800
22427W        W94841  14.224   0.851  13.017
22428W        W94842  26.087  39.065   3.279
22429W        W94843  17.759  44.941  10.926
22430W        W94844  11.182  36.458  12.878
22431W        W94845   3.893  18.605   4.613
22432W        W94846   8.222  12.801  14.812
22433W        W94847   1.943  19.675   3.341
22434W        W94848  10.278  20.555   2.196
22435W        W94849  10.859  19.268   4.321
22436W        W94850  34.425  19.259  14.002
22437W        W94851  27.651  19.640  10.539
22438W        W94852  29.102  29.576  11.099
22439W        W94853  25.071  33.943   3.284
22440W        W94854  37.417  33.094  12.069
22441W        W94855   5.762   5.802   1.908
22442W        W94856   0.412  16.298   2.827
22443W        W94857  18.678  26.555   2.222
22444W        W94858  35.502  34.095  12.996
22445W        W94859   1.415  26.500   2.352
22446W        W94860   6.834   3.751  12.488
22447W        W94861  23.729   9.194  13.941
22448W        W94862   4.917   9.159  14.857
22449W        W94863   9.356  39.449   4.331
22450W        W94864  20.060  26.463  10.119
22451W        W94865  10.767  12.666   4.286
22452W        W94866  34.069  31.544  13.860
22453W        W94867   8.346  31.560  12.958
22454W        W94868   4.799   0.782  14.790
22455W        W94869  34.455  13.140  13.468
22456W        W94870  30.118   8.865   1.345
22457W        W94871  33.605  16.189  12.012
22458W        W94872   9.302  11.273   3.729
22459W        W94873  14.827   4.268  11.544
22460W        W94874  42.914   0.905  13.915
22461W        W94875  13.783   5.312   0.830
22462W        W94876  29.480   1.879  11.499
22463W        W94877   6.380  11.273  10.962
22464W        W94878  20.136  29.172  10.053
22465W        W94879  13.845  13.704  12.901
22466W        W94880  24.072   0.780   4.693
22467W        W94881   3.891  33.509   3.166
22468W        W94882  11.772   5.860   1.861
22469W        W94883  28.954   0.805  12.060
22470W        W94884   1.460  29.562   3.662
22471W        W94885  19.166   4.238  14.828
22472W        W94886   2.907   5.398  10.540
22473W        W94887  21.258   5.381  14.347
22474W        W94888   1.438  25.967  12.961
22475W        W94889  35.570  27.449  11.092
22476W        W94890   6.234   9.211  13.466
22477W        W94891   6.870  32.068  12.548
22478W        W94892  40.490  41.451  14.849
22479W        W94893   4.784  31.439  11.086
22480W        W94894  12.698  43.420  13.506
22481W        W94895  21.590  19.041  11.438
22482W        W94896   7.746  17.670   4.141
22483W        W94897  16.084  21.743  12.082
22484W        W94898  11.674  16.200   2.814
22485W        W94899  16.705  28.616  13.496
22486W        W94900  42.282   6.707   2.350
22487W        W94901  25.152  43.370   9.634
22488W        W94902  22.649   9.820  14.766
22489W        W94903  25.166  36.869  11.513
22490W        W94904  39.936  24.568   1.719
22491W        W94905  10.242  14.281  10.557
22492W        W94906  28.146  11.679  12.536
22493W        W94907  26.696  28.151  11.931
22494W        W94908  23.698  36.908  11.546
22495W        W94909  36.375  21.605   2.895
22496W        W94910  18.264  20.674  11.964
22497W        W94911   2.922   0.287  14.310
22498W        W94912   1.884  31.912   3.732
22499W        W94913  27.563  18.268  12.474
22500W        W94914  10.374  37.446  10.524
22501W        W94915  16.307  38.843  11.034
22502W        W94916   3.331  30.591  13.490
22503W        W94917   1.372   4.850  11.998
22504W        W94918  35.568  33.085  11.980
22505W        W94919  26.632  29.638   4.613
22506W        W94920   7.244  38.058   1.931
22507W        W94921  36.515  24.490  11.600
22508W        W94922  33.950  24.125  13.375
22509W        W94923  38.540  44.877  14.433
22510W        W94924  14.221  44.380  13.451
22511W        W94925  16.714  16.600   3.288
22512W        W94926  11.789  13.693  10.527
22513W        W94927  42.811  18.570  14.475
22514W        W94928  40.841  33.961   3.220
22515W        W94929  23.681  43.389   2.803
22516W        W94930   3.742   3.267   0.457
22517W        W94931  35.920  16.590   3.673
22518W        W94932   4.712  13.705   3.831
22519W        W94933  40.408  27.523   4.762
22520W        W94934  39.454   5.244  13.819
22521W        W94935  36.079  23.690   1.720
22522W        W94936   2.927   8.886   0.774
22523W        W94937  27.190  21.251   0.754
22524W        W94938  29.506  18.555  14.504
22525W        W94939   3.811  37.860   4.285
22526W        W94940   1.950   4.420  12.996
22527W        W94941  37.905  36.951  14.901
22528W        W94942  19.772  13.653   2.886
22529W        W94943  38.330   4.774  14.994
22530W        W94944  15.148  14.692   2.895
22531W        W94945  26.044  33.556  10.514
22532W        W94946  19.165  27.100  14.793
22533W        W94947  31.140  44.276   0.729
22534W        W94948  17.112   4.214   1.893
22535W        W94949  25.142  37.881   4.193
22536W        W94950  31.605  25.203   0.740
22537W        W94951   8.759  27.494  12.348
22538W        W94952  41.404  38.487   4.189
22539W        W94953  11.258  13.266  14.449
22540W        W94954   1.469  43.443   2.730
22541W        W94955  36.912  21.220   3.326
22542W        W94956   6.904   5.916  13.406
22543W        W94957  12.708   1.809  11.503
22544W        W94958  14.794  33.933   3.239
22545W        W94959   9.217  23.619  10.431
22546W        W94960  15.227  20.258   3.853
22547W        W94961   4.382   4.770   2.752
22548W        W94962  37.434   8.272   1.237
22549W        W94963  11.153  20.679   2.729
22550W        W94964   4.357  41.928   2.364
22551W        W94965  21.194  40.995  10.417
22552W        W94966  30.491  11.836   1.277
22553W        W94967   1.804  44.971   1.740
22554W        W94968  23.093  11.799   4.762
22555W        W94969   9.302  44.327  12.394
22556W        W94970  17.567  17.664   1.765
22557W        W94971  15.329  27.571  13.509
22558W        W94972  12.772   0.842  10.442
22559W        W94973  42.892   8.718   2.300
22560W        W94974   6.872  39.951   1.315
22561W        W94975  41.837  38.342  14.275
22562W        W94976  20.197  42.808  10.897
22563W        W94977   6.380  11.653  11.104
22564W        W94978  23.710   8.725   3.279
22565W        W94979  10.707   9.338  12.891
22566W        W94980  33.460   2.930   3.747
22567W        W94981  37.556  42.926   4.614
22568W        W94982   0.891   6.374   5.088
22569W        W94983  38.518   3.920  10.534
22570W        W94984  18.252  17.604   4.623
22571W        W94985  43.777   7.777  10.985
22572W        W94986   4.875  26.143   2.247
22573W        W94987  30.152   1.324  14.842
22574W        W94988  38.332  32.601  12.455
22575W        W94989  23.607  32.547   3.159
22576W        W94990  16.106  21.257   5.306
22577W        W94991  35.938  12.762  13.033
22578W        W94992   0.968   8.780  13.355
22579W        W94993  22.187   8.324   4.789
22580W        W94994  28.971  21.746   4.274
22581W        W94995   5.365  21.603   1.910
22582W        W94996  23.570  25.532   3.704
22583W        W94997  31.035   6.304  13.890
22584W        W94998  31.424  33.952   3.148
22585W        W94999  35.994  15.667   2.277
22586W        W95000  12.792  10.640  12.479
22587W        W95001  26.674   7.301   2.180
22588W        W95002   3.951  23.218  13.845
22589W        W95003  42.377  11.205   4.178
22590W        W95004  26.078   9.342  12.996
22591W        W95005  33.391   2.777  12.488
22592W        W95006  35.514  21.219   2.681
22593W        W95007  20.071  23.220  13.858
22594W        W95008  22.016  27.636   4.157
22595W        W95009  23.518  28.939  12.009
22596W        W95010   8.843  43.958  12.392
22597W        W95011  13.248   3.920  14.511
22598W        W95012  21.177  16.138  13.322
22599W        W95013  29.498  35.918   1.786
22600W        W95014  31.071  36.497   1.302
22601W        W95015  20.186  33.035   1.216
22602W        W95016  42.871  33.998   4.225
22603W        W95017  19.631  17.226  10.953
22604W        W95018   9.319  15.639   1.814
22605W        W95019   9.186  25.528  13.472
22606W        W95020  38.436  29.599   0.885
22607W        W95021  27.665  15.779  11.126
22608W        W95022  37.538  22.710  10.500
22609W        W95023  28.663   2.963  10.984
22610W        W95024   2.325  37.357   4.310
22611W        W95025  13.226   4.821   3.329
22612W        W95026  44.304  12.361  14.963
22613W        W95027  23.067  32.989   3.368
22614W        W95028  15.139   9.797  13.985
22615W        W95029   5.693  11.321  10.515
22616W        W95030  17.070  21.665  11.893
22617W        W95031  21.096  17.136  14.987
22618W        W95032  15.782  32.903   0.339
22619W        W95033  17.673   0.373   3.856
22620W        W95034  19.047  44.959   3.313
22621W        W95035  23.573  33.083  12.452
22622W        W95036  15.775  27.196   2.781
22623W        W95037  32.530  29.464  11.417
22624W        W95038  40.856   0.289  14.419
22625W        W95039  19.270  35.953   2.273
22626W        W95040  30.123   3.902   1.394
22627W        W95041  26.102  13.312  13.877
22628W        W95042  24.568  24.663  11.602
22629W        W95043   5.401  43.458  12.937
22630W        W95044  39.060  44.390  11.076
22631W        W95045  30.008   5.228   1.721
22632W        W95046  17.692   3.438   0.895
22633W        W95047  33.011  37.342   2.386
22634W        W95048  20.535  31.065  10.974
22635W        W95049  23.033  41.837   0.445
22636W        W95050   7.280  25.615   0.752
22637W        W95051  13.686  16.279  13.994
22638W        W95052  25.518  14.148  10.619
22639W        W95053   0.335  11.757   0.948
22640W        W95054  33.533  43.766   2.754
22641W        W95055  25.104   9.880   2.192
22642W        W95056  12.302   7.754  14.964
22643W        W95057   6.901  32.031   0.436
22644W        W95058  16.099  10.302   2.884
22645W        W95059   4.937  43.878   3.756
22646W        W95060  32.909  20.192   0.465
22647W        W95061   4.309  12.214  10.990
22648W        W95062  28.158  18.694  10.983
22649W        W95063  23.172  10.335   4.147
22650W        W95064  41.904  33.095   0.300
22651W        W95065   0.369  31.987   4.655
22652W        W95066  39.933  34.938   2.781
22653W        W95067  35.904   8.702  14.989
22654W        W95068  31.431  24.112   2.775
22655W        W95069   6.758  44.494  14.290
22656W        W95070  24.564  12.735   1.697
22657W        W95071  20.085  33.530  14.385
22658W        W95072  14.718   5.278  11.057
22659W        W95073  37.552  30.538   1.883
22660W        W95074  30.958  11.274  14.850
22661W        W95075  29.999   0.982  11.019
22662W        W95076  38.358  33.583  10.560
22663W        W95077   4.749  40.470  10.081
22664W        W95078   0.452  26.584  12.866
22665W        W95079  23.571   3.276  14.296
22666W        W95080  19.660  39.914  12.405
22667W        W95081  30.545  16.177   2.827
22668W        W95082  18.588  12.675   2.379
22669W        W95083  18.221  10.781  14.809
22670W        W95084   1.911   1.736  12.502
22671W        W95085  41.811  31.960   5.147
22672W        W95086   5.823  17.078  14.301
22673W        W95087   0.359  24.189   0.410
22674W        W95088  23.728  29.536   2.295
22675W        W95089  11.274   6.857  13.406
22676W        W95090  27.130   4.406  10.489
22677W        W95091  36.912  11.346  12.035
22678W        W95092  25.175  18.096   9.979
22679W        W95093   2.909   7.791  12.022
22680W        W95094   5.732  29.508   1.924
22681W        W95095  14.822   7.346  11.577
22682W        W95096  24.612   4.844   1.895
22683W        W95097  31.445  19.554  12.882
22684W        W95098   8.317  41.951  11.494
22685W        W95099  37.901  21.043   2.200
22686W        W95100  21.208   6.399   3.702
22687W        W95101   2.867  44.463   2.700
22688W        W95102  29.547  13.624   2.839
22689W        W95103  14.810  25.082   4.646
22690W        W95104  40.970   6.251  12.052
22691W        W95105   8.844  17.729   3.704
22692W        W95106  30.479  43.904  14.962
22693W        W95107  30.040  22.585   1.816
22694W        W95108  18.623  40.979   2.375
22695W        W95109  16.220   5.279   3.695
22696W        W95110  32.905   8.207  14.339
22697W        W95111  28.089  15.727  13.895
22698W        W95112   6.420  20.598   0.953
22699W        W95113  21.218  17.590   1.436
22700W        W95114  36.918  10.380  13.864
22701W        W95115   1.473  30.077  14.515
22702W        W95116  13.162  12.309   3.261
22703W        W95117   0.781  26.513   3.789
22704W        W95118  40.898  23.560   2.778
22705W        W95119  38.386  42.493  10.943
22706W        W95120  16.255  30.957   0.772
22707W        W95121  27.674   2.404  13.459
22708W        W95122   5.255  27.061  12.580
22709W        W95123  36.550  15.285   3.630
22710W        W95124  24.643  32.093   0.874
22711W        W95125  24.534  36.969   0.820
22712W        W95126  43.836  33.471  11.603
22713W        W95127  23.990  37.346  11.416
22714W        W95128  12.653  30.961  13.428
22715W        W95129  10.194  11.674   2.718
22716W        W95130  40.899  12.652  11.400
22717W        W95131  31.489  14.753  11.934
22718W        W95132  29.553  12.244  10.443
22719W        W95133  40.303  14.594  10.968
22720W        W95134   1.379  39.818   1.296
22721W        W95135  44.971   3.292  12.354
22722W        W95136  37.972  30.041  14.871
22723W        W95137   7.199  20.252   1.238
22724W        W95138  19.706  34.436   3.316
22725W        W95139  22.219  19.766  10.553
22726W        W95140  35.478  30.957  11.511
22727W        W95141  16.165  35.485  11.121
22728W        W95142  20.683  36.960  14.886
22729W        W95143  35.423  17.618  12.870
22730W        W95144  27.671   4.802   3.193
22731W        W95145   5.233   5.193  11.886
22732W        W95146   5.250   6.784  11.860
22733W        W95147  39.384  30.997   3.194
22734W        W95148   1.437  10.847  14.927
22735W        W95149   9.382  41.295  14.295
22736W        W95150  28.089  43.785   3.855
22737W        W95151  27.107  39.422  10.431
22738W        W95152  12.138  23.059   2.326
22739W        W95153   1.951  10.877  11.107
22740W        W95154  34.388   1.902   3.195
22741W        W95155  31.461  12.266   0.774
22742W        W95156  32.966  14.760   1.788
22743W        W95157  22.732  42.348  11.992
22744W        W95158  40.366  10.765  12.367
22745W        W95159  33.035   9.150   1.702
22746W        W95160   9.842   9.322  13.941
22747W        W95161  18.683  17.293   2.846
22748W        W95162  10.730  23.562   3.214
22749W        W95163   3.309  28.466   4.271
22750W        W95164  40.540  36.020   3.804
22751W        W95165  42.947   1.910  12.037
22752W        W95166  37.505  34.380   0.408
22753W        W95167  38.848  12.836  12.968
22754W        W95168  34.470   3.457  10.942
22755W        W95169  24.222  13.685   4.725
22756W        W95170  27.172  21.163   1.234
22757W        W95171  22.241  18.111   3.869
22758W        W95172  23.617  15.137   3.163
22759W        W95173  24.558  16.127  13.877
22760W        W95174  39.430  18.619   4.212
22761W        W95175  17.174  27.456   4.242
22762W        W95176  39.497   3.251   4.148
22763W        W95177  12.281  44.460  10.524
22764W        W95178  18.292  34.440   1.437
22765W        W95179  16.631  24.502  10.406
22766W        W95180   5.803  30.081   2.856
22767W        W95181   0.970   4.836  12.975
22768W        W95182  20.271  11.338  13.360
22769W        W95183  26.617  23.078   2.418
22770W        W95184  19.709   8.809   4.800
22771W        W95185  10.853  31.434   0.407
22772W        W95186  28.674  11.171  13.792
22773W        W95187   6.779  11.300  13.882
22774W        W95188  38.442  34.002  12.499
22775W        W95189  15.626  22.117  12.068
22776W        W95190   1.837  19.074  12.358
22777W        W95191  34.380   2.776   4.243
22778W        W95192  39.360  12.708   4.346
22779W        W95193  23.552  12.137   4.187
22780W        W95194  23.997  24.004   4.120
22781W        W95195  35.906  33.103   9.941
22782W        W95196   1.955  35.900   1.403
22783W        W95197  22.053  11.712   4.163
22784W        W95198  30.622  28.639   2.858
22785W        W95199   4.443  23.154  13.842
22786W        W95200  20.223   8.249   2.706
22787W        W95201  29.557  38.841  12.501
22788W        W95202  31.912  37.344   1.786
22789W        W95203   1.407  21.576  12.056
22790W        W95204  34.947  28.054   3.353
22791W        W95205  10.737  20.189   4.813
22792W        W95206  44.910  22.746  12.860
22793W        W95207  22.017  41.969   4.190
22794W        W95208   0.786  37.505   5.300
22795W        W95209  16.151  28.930   3.254
22796W        W95210  38.838  35.904  11.018
22797W        W95211  39.871  15.284  14.277
22798W        W95212   0.326  24.060  13.330
22799W        W95213  14.284  34.918  14.786
22800W        W95214  42.472  37.364  14.433
22801W        W95215  20.157   4.827  11.584
22802W        W95216  32.134   9.718  10.116
22803W        W95217  17.274   5.802  14.334
22804W        W95218  11.839  41.952   3.366
22805W        W95219  13.778  23.059   1.908
22806W        W95220  24.057   5.854   3.221
22807W        W95221   8.229  21.019  14.906
22808W        W95222  39.828  25.537  11.567
22809W        W95223  29.625  35.564  13.418
22810W        W95224  22.690  31.620  10.901
22811W        W95225   1.964  18.121  14.845
22812W        W95226  30.111  21.580  13.912
22813W        W95227  17.578  37.372   1.764
22814W        W95228  17.789  44.977   5.266
22815W        W95229  17.190  10.143   0.830
22816W        W95230  26.001  27.997   4.116
22817W        W95231  24.671  37.437  10.475
22818W        W95232  43.468  14.250  12.477
22819W        W95233  25.023  19.200   0.390
22820W        W95234  44.847   7.177  14.858
22821W        W95235   6.880  30.112  10.493
22822W        W95236   0.402   7.680  12.885
22823W        W95237  10.637  14.679   1.293
22824W        W95238   7.757   0.833   0.726
22825W        W95239  10.217  31.448  11.979
22826W        W95240   7.688   1.423  13.449
22827W        W95241  18.114  30.565   3.244
22828W        W95242  12.163  32.515  10.939
22829W        W95243  33.398  17.742  11.577
22830W        W95244  23.697  18.152  13.509
22831W        W95245   5.916   4.389   1.299
22832W        W95246  22.661   8.285  13.526
22833W        W95247  35.510  12.638  13.027
22834W        W95248  13.623  24.695  14.951
22835W        W95249  14.191  22.087   1.704
22836W        W95250  17.155  40.446   3.790
22837W        W95251  24.481   0.769   3.364
22838W        W95252  19.542  31.532   3.639
22839W        W95253   1.943  44.464  13.883
22840W        W95254  15.731  20.086   3.790
22841W        W95255  25.161  44.308   5.212
22842W        W95256   1.417   9.676  12.555
22843W        W95257  42.520  16.777   3.747
22844W        W95258  42.304   3.270  11.465
22845W        W95259   8.669  38.061   2.418
22846W        W95260  22.711  42.449  14.485
22847W        W95261  43.923  21.560  12.537
22848W        W95262   7.219  12.358   0.918
22849W        W95263  38.463  24.984  11.463
22850W        W95264  10.685  16.080  10.633
22851W        W95265  15.689  43.929  13.896
22852W        W95266  41.511  30.107   2.288
22853W        W95267  12.172  16.095  14.495
22854W        W95268  18.131  22.156  13.897
22855W        W95269  37.445  13.607   3.681
22856W        W95270  31.642  29.160  12.454
22857W        W95271  28.172  15.110   0.866
22858W        W95272   2.928   8.662  12.015
22859W        W95273  21.694   6.679  12.545
22860W        W95274  30.544  33.539  13.428
22861W        W95275  18.645   7.276  13.864
22862W        W95276  18.233  42.518  10.036
22863W        W95277  16.181   1.735  10.976
22864W        W95278   9.253  41.828   1.220
22865W        W95279  13.627  10.309   3.814
22866W        W95280  19.142  38.994   2.377
22867W        W95281  39.995  22.697   3.760
22868W        W95282   6.883   4.239  10.555
22869W        W95283  13.136  34.380   4.799
22870W        W95284  19.124   0.944  12.050
22871W        W95285  23.679   2.760  13.907
22872W        W95286   1.858   0.944   3.659
22873W        W95287  14.329   6.285  13.531
22874W        W95288  20.581   4.817   4.755
22875W        W95289  13.296   8.385   1.400
22876W        W95290  37.364  11.332   1.790
22877W        W95291  22.746  43.325   1.367
22878W        W95292  26.561  39.484  12.492
22879W        W95293  14.222  29.006   2.810
22880W        W95294  28.592  32.008   1.820
22881W        W95295  26.583  34.043   1.413
22882W        W95296  39.429  32.066  12.380
22883W        W95297  26.629  31.952  10.129
22884W        W95298   8.395  24.035  10.468
22885W        W95299  35.575  39.991  13.354
22886W        W95300   1.320  25.521   3.297
22887W        W95301  25.161  17.296  12.075
22888W        W95302  16.670  14.718  11.428
22889W        W95303   0.963  18.580   2.405
22890W        W95304  21.143  12.180   2.819
22891W        W95305  43.280  32.533  14.320
22892W        W95306   7.762  33.494  11.009
22893W        W95307  10.865  44.501  14.784
22894W        W95308  39.385  11.687  13.889
22895W        W95309  13.834  35.503  11.532
22896W        W95310  43.009  28.946  11.086
22897W        W95311  35.852   1.786  10.994
22898W        W95312  36.934  15.738  14.767
22899W        W95313  26.471  34.865  10.605
22900W        W95314  29.122  34.078  14.989
22901W        W95315   3.910  11.718   2.410
22902W        W95316  30.576  36.507  12.578
22903W        W95317  30.452   4.773  11.400
22904W        W95318  30.507  20.552  13.547
22905W        W95319  14.206  44.454  14.988
22906W        W95320  28.627  23.011  14.333
22907W        W95321   8.166  36.529  14.922
22908W        W95322  11.645  30.148  12.344
22909W        W95323  17.135  43.319   3.358
22910W        W95324  39.479   7.408  11.514
22911W        W95325   2.431   0.788   0.382
22912W        W95326   1.809  30.140  13.920
22913W        W95327  39.815  25.152  12.086
22914W        W95328  36.511   9.364  11.532
22915W        W95329  36.857  23.589  12.063
22916W        W95330  24.565  30.567   1.345
22917W        W95331  32.038  43.365  12.964
22918W        W95332  11.166  22.715  13.940
22919W        W95333  34.483  34.568   1.877
22920W        W95334  17.786  24.591   4.137
22921W        W95335  11.848   6.878  13.356
22922W        W95336  43.798  36.392   1.776
22923W        W95337   9.853  38.503  12.547
22924W        W95338  20.065  38.022   4.345
22925W        W95339  11.252  35.050   1.918
22926W        W95340  25.145  41.343   3.717
22927W        W95341   9.864  23.704   4.282
22928W        W95342  16.206   0.257  13.501
22929W        W95343  42.960  29.514  14.770
22930W        W95344  36.850  27.531  13.951
22931W        W95345  29.014  36.064   1.350
22932W        W95346   2.767  22.232  10.430
22933W        W95347  38.070  28.930   4.144
22934W        W95348  11.152  40.329   0.731
22935W        W95349  24.192  39.525  13.332
22936W        W95350  20.551  12.801  14.955
22937W        W95351  15.167  21.056   1.215
22938W        W95352  44.305  35.507   2.384
22939W        W95353   1.478  14.316   0.867
22940W        W95354  18.703  19.700  13.967
22941W        W95355   9.741   4.793  10.978
22942W        W95356   4.292  33.915   0.303
22943W        W95357   2.729   2.234  14.500
22944W        W95358  11.630  20.615  12.449
22945W        W95359  11.865  21.166   0.750
22946W        W95360  31.065  17.285  13.891
22947W        W95361  20.584  20.207   3.855
22948W        W95362  29.111  32.473  11.954
22949W        W95363  28.520  13.258  10.559
22950W        W95364  20.672   6.227   1.835
22951W        W95365  30.955  36.431   3.298
22952W        W95366   4.810  43.380  10.910
22953W        W95367  36.396  23.227   4.174
22954W        W95368  44.908   4.387   0.406
22955W        W95369   9.179   6.765   4.274
22956W        W95370  28.599  22.557  10.569
22957W        W95371  10.162  16.746  11.899
22958W        W95372   5.322  15.198   3.277
22959W        W95373   3.746   8.219   3.746
22960W        W95374  32.546  14.718   2.251
22961W        W95375  10.750  10.806   2.683
22962W        W95376  23.141  39.914   3.174
22963W        W95377  42.340   2.793  12.426
22964W        W95378  15.800   7.807  10.529
22965W        W95379  11.362  11.251  11.966
22966W        W95380  33.380  44.764   0.853
22967W        W95381  34.524  17.734   0.745
22968W        W95382  14.252   5.201   2.844
22969W        W95383  32.000  37.358   4.812
22970W        W95384   9.194  37.990   0.437
22971W        W95385  35.433  32.137   3.652
22972W        W95386  17.137   1.417  14.378
22973W        W95387   1.375  40.841   4.258
22974W        W95388  14.818  20.666  12.495
22975W        W95389  24.583   1.454   2.811
22976W        W95390  18.223  26.043   3.792
22977W        W95391  34.410  28.670   4.601
22978W        W95392  44.885   9.738  12.037
22979W        W95393  20.256  21.088   4.641
22980W        W95394  35.593   0.414  12.055
22981W        W95395  36.903  37.498  11.471
22982W        W95396  31.000   7.740  11.057
22983W        W95397  34.391  19.262   3.825
22984W        W95398  33.901  23.718  11.907
22985W        W95399  39.479   2.903  13.530
22986W        W95400  25.067  33.586  14.022
22987W        W95401  15.657  22.171  10.572
22988W        W95402   7.724  25.202   3.168
22989W        W95403  22.206  13.759   3.679
22990W        W95404  29.992  31.083  14.845
22991W        W95405  22.016   5.292  14.443
22992W        W95406  43.376   1.801  11.590
22993W        W95407  40.848  43.299  14.491
22994W        W95408  30.924  28.599   2.399
22995W        W95409  17.061  15.710  13.917
22996W        W95410  19.230  15.823   0.745
22997W        W95411   1.911  34.113  14.906
22998W        W95412  25.493   6.804  12.019
22999W        W95413  18.701  43.454  12.492
23000W        W95414   2.361  30.615   1.821
23001W        W95415   4.831  21.539   0.837
23002W        W95416  34.556  36.999   1.857
23003W        W95417  43.286  44.347  14.293
23004W        W95418  26.618   5.236   2.228
23005W        W95419  33.390   4.431   3.230
23006W        W95420  44.818  20.138  11.563
23007W        W95421  13.781   7.260   1.916
23008W        W95422   8.716  15.688  14.424
23009W        W95423  22.638  25.028   2.381
23010W        W95424  10.294  31.573  10.409
23011W        W95425  38.938  35.437   2.293
23012W        W95426  13.668  26.470   1.377
23013W        W95427  32.010  42.901   4.153
23014W        W95428   1.860  10.872  14.829
23015W        W95429  21.156  27.011  14.482
23016W        W95430   1.904  30.920  12.518
23017W        W95431  39.902   4.915   1.873
23018W        W95432  23.734  22.626  14.468
23019W        W95433  27.634   5.274   1.343
23020W        W95434   9.162  43.012   1.792
23021W        W95435  41.506  37.471  10.930
23022W        W95436  39.994  27.602   0.776
23023W        W95437  30.976  23.027   0.301
23024W        W95438  41.021   4.871  13.911
23025W        W95439  39.058  25.209   1.772
23026W        W95440  34.416   8.287  10.570
23027W        W95441   7.699  11.305   1.708
23028W        W95442  28.529  31.995  14.848
23029W        W95443  23.043  25.532  12.087
23030W        W95444  25.111  10.314   4.355
23031W        W95445  38.350  42.393  10.517
23032W        W95446  28.523  29.438   3.157
23033W        W95447  24.179  17.307  11.980
23034W        W95448  13.320  43.784   3.254
23035W        W95449   9.352  19.569  14.867
23036W        W95450  40.503  39.459  11.592
23037W        W95451  30.977  10.299  14.413
23038W        W95452  18.175   1.951   2.731
23039W        W95453  38.502  27.459   2.863
23040W        W95454  28.449  33.487  14.815
23041W        W95455  39.905  39.889  12.048
23042W        W95456  18.184  24.038  12.468
23043W        W95457  25.164  23.572  13.472
23044W        W95458  11.204  36.353   0.872
23045W        W95459  32.407   9.861   2.823
23046W        W95460   8.387  24.158  14.979
23047W        W95461  31.452  31.930   3.271
23048W        W95462   6.296  13.312  10.530
23049W        W95463  20.032  44.917  13.357
23050W        W95464  32.012  15.252  11.040
23051W        W95465  10.217  17.301  13.530
23052W        W95466  17.736  12.287   0.468
23053W        W95467  36.062  19.051   0.901
23054W        W95468  21.611  31.961  10.904
23055W        W95469  37.867   2.432   0.923
23056W        W95470  17.190  11.356   0.771
23057W        W95471   4.378  34.374   1.289
23058W        W95472  34.542  38.019   0.861
23059W        W95473  25.541  10.355   4.306
23060W        W95474   7.276  33.940  12.873
23061W        W95475   0.354  43.886  14.467
23062W        W95476  42.317  33.948  11.081
23063W        W95477  38.988  36.885   2.417
23064W        W95478  36.870  14.286   1.776
23065W        W95479  41.308  35.511  13.942
23066W        W95480  33.058  11.731   3.700
23067W        W95481  11.863  13.111  11.003
23068W        W95482  32.137   8.404   2.316
23069W        W95483   7.194  23.241  11.953
23070W        W95484  34.054  32.130   2.302
23071W        W95485  13.221  25.001  10.045
23072W        W95486   6.427  12.734   0.349
23073W        W95487  30.538   2.736   0.381
23074W        W95488  31.442  20.713   4.665
23075W        W95489  28.999  42.420  13.860
23076W        W95490  23.163   8.349  10.915
23077W        W95491   9.329   4.320  13.382
23078W        W95492  34.888  12.622  14.292
23079W        W95493  10.366  25.071   2.217
23080W        W95494  18.277  15.325  10.918
23081W        W95495  40.543   4.783  14.374
23082W        W95496   2.944   6.349   4.736
23083W        W95497   0.982  38.074   4.177
23084W        W95498  27.157  39.020   2.871
23085W        W95499  24.045  38.946   1.789
23086W        W95500  21.698   5.214   3.644
23087W        W95501  21.522  12.789   3.658
23088W        W95502  30.046  15.699  12.569
23089W        W95503  17.235  15.129   0.243
23090W        W95504  40.398  18.786   2.746
23091W        W95505   1.246  35.380   1.407
23092W        W95506  30.643  35.064   4.790
23093W        W95507  14.622  12.826  14.980
23094W        W95508  30.598  33.618   2.898
23095W        W95509  33.509  11.143   0.384
23096W        W95510   9.352   4.843   5.294
23097W        W95511  29.620  39.342   4.203
23098W        W95512  30.562  30.425   1.820
23099W        W95513  24.208  34.574  13.520
23100W        W95514  29.102  30.968  14.922
23101W        W95515   2.740  19.731  11.475
23102W        W95516  12.124   4.437  13.479
23103W        W95517  10.729  32.080   3.630
23104W        W95518  42.841  21.029   2.830
23105W        W95519  43.374  24.010   2.293
23106W        W95520   8.172  10.357  10.894
23107W        W95521  23.096   3.329   2.669
23108W        W95522  41.923  16.604  14.799
23109W        W95523  19.773  33.572  13.514
23110W        W95524  41.960  19.214  14.506
23111W        W95525  20.528   7.811   1.761
23112W        W95526  35.927   0.467  11.114
23113W        W95527  19.743  23.147  13.536
23114W        W95528  40.456   4.714   0.891
23115W        W95529   1.854  21.558  10.471
23116W        W95530  38.344  43.508  12.014
23117W        W95531  34.584  15.095  11.005
23118W        W95532  20.029  10.659  13.432
23119W        W95533  40.515  23.590   1.933
23120W        W95534  41.292  15.094  11.926
23121W        W95535  27.636  26.965  13.848
23122W        W95536  23.101  25.636   2.741
23123W        W95537  40.935   9.174   4.212
23124W        W95538  12.359  39.456   4.819
23125W        W95539  17.142  36.533   9.965
23126W        W95540  22.633  33.129   1.225
23127W        W95541   4.787   0.986  13.843
23128W        W95542  39.846  41.376   0.455
23129W        W95543  26.652  33.083  13.951
23130W        W95544   2.939  15.223   2.715
23131W        W95545   7.287  21.646   2.707
23132W        W95546  19.598  13.603  14.328
23133W        W95547  37.358  14.619   1.290
23134W        W95548  20.648  32.118   3.304
23135W        W95549  43.800   8.781   0.394
23136W        W95550  29.131  30.584  13.865
23137W        W95551  16.693  33.947  13.055
23138W        W95552  19.754  19.539  11.436
23139W        W95553  10.726  26.548  12.518
23140W        W95554  42.374  26.657   1.397
23141W        W95555  12.705  34.402   0.292
23142W        W95556  42.959  40.960  11.577
23143W        W95557  29.453  40.827  14.806
23144W        W95558  11.201  15.665  14.477
23145W        W95559  11.128  10.782   2.816
23146W        W95560   3.820  42.396  11.105
23147W        W95561   6.355  15.696  10.555
23148W        W95562   1.460  40.481  12.508
23149W        W95563   7.886   1.843  13.405
23150W        W95564   6.713  23.233  14.458
23151W        W95565   4.365   0.312   4.156
23152W        W95566  15.121  29.984  12.972
23153W        W95567  21.100  36.351   1.237
23154W        W95568  33.033  16.120  10.920
23155W        W95569  34.020   3.412   0.457
23156W        W95570  30.566  38.548  13.389
23157W        W95571  22.040  30.488  14.803
23158W        W95572   3.854   6.766  13.533
23159W        W95573  24.666  25.012   1.387
23160W        W95574  29.541   8.173  14.822
23161W        W95575  10.637  11.762  11.438
23162W        W95576  32.075  28.531  11.476
23163W        W95577  22.695  28.567   4.785
23164W        W95578   4.383  17.606   2.208
23165W        W95579  23.623   5.893  13.838
23166W        W95580  18.173  42.985  10.894
23167W        W95581  30.626  22.096   4.212
23168W        W95582  32.492  36.021   3.856
23169W        W95583   6.379  43.481  11.497
23170W        W95584   3.434   2.327   2.860
23171W        W95585  33.475  37.842  13.880
23172W        W95586  42.507   9.868   2.877
23173W        W95587   7.375  10.686  13.497
23174W        W95588  20.187   9.675  10.602
23175W        W95589  31.638  42.363   3.832
23176W        W95590  16.118  10.319   1.842
23177W        W95591   0.969  32.960   0.803
23178W        W95592  36.951   5.917  10.490
23179W        W95593  41.901   0.886   3.711
23180W        W95594  12.329  38.016  11.562
23181W        W95595  24.660  22.067   0.386
23182W        W95596  22.202   5.321  12.941
23183W        W95597  40.900  25.541   2.857
23184W        W95598  17.556  32.524  13.031
23185W        W95599  15.167  37.510   4.722
23186W        W95600   4.224  18.061  11.092
23187W        W95601  39.330  13.764  13.524
23188W        W95602   7.897  33.446  12.557
23189W        W95603   0.480  43.778   3.207
23190W        W95604  44.850  13.151   0.266
23191W        W95605  33.875  40.921   3.255
23192W        W95606  28.944  28.038   0.483
23193W        W95607  30.910  13.312   1.834
23194W        W95608  10.259   8.405   0.783
23195W        W95609  14.248  23.240  10.444
23196W        W95610  19.102  26.631  12.373
23197W        W95611  37.984  27.685  11.464
23198W        W95612  42.013  42.420   0.910
23199W        W95613  32.557  41.974  11.459
23200W        W95614   0.389   6.326  11.576
23201W        W95615  38.498   7.723   0.840
23202W        W95616  43.894   4.273  12.378
23203W        W95617   7.822  14.180   0.838
23204W        W95618  34.102  25.505   4.837
23205W        W95619  42.958  40.873  12.076
23206W        W95620  30.612   4.443  13.389
23207W        W95621  33.007  15.805  10.460
23208W        W95622  12.185  43.469  14.276
23209W        W95623  39.035  38.962   4.324
23210W        W95624  40.914  24.550   1.327
23211W        W95625  37.915  43.917   1.211
23212W        W95626  11.751   7.735  11.886
23213W        W95627  41.300  28.976   1.280
23214W        W95628  19.585  27.051  12.942
23215W        W95629  16.730  31.977   2.728
23216W        W95630  36.467   8.235   1.876
23217W        W95631  13.777  20.731  13.400
23218W        W95632  31.942  15.228  12.544
23219W        W95633   8.225  33.955   4.809
23220W        W95634  23.661   5.392  12.356
23221W        W95635   9.323  36.043   2.754
23222W        W95636  34.496  20.681   1.321
23223W        W95637   7.283   5.741  13.446
23224W        W95638   8.862  24.985   4.297
23225W        W95639  12.827  23.224   4.635
23226W        W95640  39.353  31.082  10.951
23227W        W95641   4.316  15.156  12.831
23228W        W95642  27.973  34.865  11.058
23229W        W95643  40.369  30.917  11.975
23230W        W95644  43.936  22.045   0.246
23231W        W95645  18.187  20.086   4.188
23232W        W95646  11.163  42.966   2.797
23233W        W95647  38.548   9.676  11.603
23234W        W95648  43.787  34.482   2.373
23235W        W95649   4.744  42.302  13.462
23236W        W95650   6.392   4.233   2.255
23237W        W95651  39.499  27.066   0.785
23238W        W95652  30.953  36.517  12.558
23239W        W95653  28.499  10.872   2.232
23240W        W95654   8.209  24.218  11.913
23241W        W95655   2.902  44.428   4.725
23242W        W95656  10.262  28.604  12.045
23243W        W95657  40.397  20.546  14.969
23244W        W95658   7.363  42.790  11.113
23245W        W95659  34.911  22.696   4.162
23246W        W95660  24.535  40.438  10.424
23247W        W95661   0.414   7.875   2.404
23248W        W95662  42.460  24.185  11.115
23249W        W95663  12.330   1.277  14.440
23250W        W95664  36.444   2.785   1.309
23251W        W95665  12.127  41.009  10.922
23252W        W95666  38.499  29.095   3.721
23253W        W95667  38.564   7.689   3.813
23254W        W95668  42.312   5.836   4.622
23255W        W95669  28.185  28.129  11.992
23256W        W95670  24.129  22.722  12.877
23257W        W95671   1.954   7.782   2.298
23258W        W95672  34.610   1.436   2.338
23259W        W95673  28.041  12.248  12.483
23260W        W95674  41.865  33.119  13.518
23261W        W95675  30.487  32.942  14.768
23262W        W95676   7.255  13.818   1.441
23263W        W95677   9.658   8.848  10.595
23264W        W95678   1.837  21.105  14.868
23265W        W95679  44.341  31.409   4.770
23266W        W95680   4.742  26.963  11.430
23267W        W95681   1.794  37.494  13.363
23268W        W95682  14.724  16.770   0.251
23269W        W95683   9.817  24.997   1.379
23270W        W95684  42.395  42.971  11.088
23271W        W95685   0.866  38.854  14.831
23272W        W95686  10.193   9.229  10.067
23273W        W95687  11.263  23.007   0.835
23274W        W95688  12.274   9.885  14.367
23275W        W95689  13.804  35.974  12.022
23276W        W95690  27.670  31.613   0.762
23277W        W95691  18.617  37.399   1.237
23278W        W95692   6.225  18.151   3.863
23279W        W95693  39.850  26.096   0.395
23280W        W95694  26.615  30.513   2.300
23281W        W95695  17.739  27.945  11.112
23282W        W95696  37.426  22.639   2.193
23283W        W95697   5.323  43.831  14.488
23284W        W95698  23.176  15.734   0.889
23285W        W95699  32.959  13.323   1.731
23286W        W95700  19.246  39.343   3.861
23287W        W95701  42.967  23.038   4.700
23288W        W95702  38.876   3.824   4.825
23289W        W95703  26.681  25.168  13.974
23290W        W95704   9.343   2.373  14.409
23291W        W95705   0.828  29.665  11.507
23292W        W95706  32.562   6.405   4.697
23293W        W95707   4.270  25.627  12.873
23294W        W95708  43.470   7.408  12.504
23295W        W95709  41.516  44.422   4.669
23296W        W95710  18.549  17.759  14.806
23297W        W95711   5.778  28.634   3.225
23298W        W95712  16.129  20.524  11.528
23299W        W95713  39.033  25.098  12.962
23300W        W95714  16.204  20.189  14.392
23301W        W95715  29.503  16.310  14.439
23302W        W95716  16.758   7.250   2.726
23303W        W95717  33.879  21.585   3.792
23304W        W95718   5.746  10.635  14.820
23305W        W95719  43.943  44.368  13.495
23306W        W95720   8.862  19.213   4.628
23307W        W95721  28.600  43.295  13.807
23308W        W95722  39.864  34.005   2.374
23309W        W95723   6.269  28.116   3.295
23310W        W95724  13.814  41.893  12.466
23311W        W95725   1.883  34.024   0.256
23312W        W95726  12.801  26.508   1.252
23313W        W95727  14.716  11.806  11.880
23314W        W95728  41.872  39.417   2.389
23315W        W95729  30.155  12.844  12.055
23316W        W95730  24.509   4.390  10.982
23317W        W95731   2.785  43.341  14.368
23318W        W95732   9.876  44.358   0.813
23319W        W95733  18.737  21.210  13.446
23320W        W95734  12.250  30.139   1.871
23321W        W95735   6.850  26.646   4.598
23322W        W95736  29.483  16.168  13.972
23323W        W95737  43.337  29.528  13.437
23324W        W95738  22.742  43.317   9.950
23325W        W95739   0.279  36.392  14.798
23326W        W95740  44.391  37.075   4.689
23327W        W95741  25.115  29.926   0.787
23328W        W95742  30.594   9.830   0.744
23329W        W95743  14.290  30.050  11.958
23330W        W95744   4.733  17.074   1.857
23331W        W95745  36.430  23.680   2.251
23332W        W95746  22.723  38.531  10.476
23333W        W95747   0.931  42.498   2.298
23334W        W95748  37.527   0.804   4.115
23335W        W95749   7.678  38.063  10.460
23336W        W95750  32.427   7.299   1.743
23337W        W95751  25.087  21.119  10.538
23338W        W95752  35.075  40.360  12.434
23339W        W95753  35.593  36.548  14.917
23340W        W95754   2.280  34.529   3.278
23341W        W95755  27.988  40.416   0.313
23342W        W95756  32.905   9.744   2.311
23343W        W95757  19.615  39.028   2.244
23344W        W95758  41.364  19.199   2.840
23345W        W95759  19.704  24.109  14.433
23346W        W95760  27.524  41.033  13.861
23347W        W95761  36.948   1.945   3.378
23348W        W95762  35.962  31.000  12.844
23349W        W95763   3.804   6.314  10.421
23350W        W95764   4.264  22.119   2.222
23351W        W95765  26.487  30.559  13.516
23352W        W95766  25.090   6.876   1.911
23353W        W95767  43.771  18.710  14.905
23354W        W95768   6.825  26.547  10.454
23355W        W95769  31.003  37.008   4.736
23356W        W95770  12.284  18.287  12.959
23357W        W95771   7.294  12.655   0.449
23358W        W95772   5.195  14.103   2.833
23359W        W95773  28.545  24.550  10.624
23360W        W95774  24.144  21.608  12.920
23361W        W95775  37.957  19.056   3.853
23362W        W95776  39.859  24.600  14.460
23363W        W95777  38.839  23.130  10.637
23364W        W95778  39.415   1.391  13.469
23365W        W95779   6.332  13.606  10.483
23366W        W95780  17.701   3.862   1.924
23367W        W95781  31.117   2.887  10.636
23368W        W95782   9.155   2.964  12.850
23369W        W95783  10.850  21.146  14.830
23370W        W95784   1.788  23.217  12.966
23371W        W95785  24.638  44.932   1.356
23372W        W95786   0.296  19.593  11.100
23373W        W95787  37.443  28.489  14.470
23374W        W95788   1.482  14.765   1.225
23375W        W95789  41.878   5.400   2.690
23376W        W95790  13.610  21.527   4.771
23377W        W95791  20.156  10.368   2.783
23378W        W95792  10.349  21.179  11.595
23379W        W95793   8.716  26.977   4.836
23380W        W95794  31.515  43.826  12.088
23381W        W95795   0.892  12.840  12.906
23382W        W95796   0.816  10.656   2.233
23383W        W95797  40.447  26.104  11.928
23384W        W95798  35.984  21.025  13.376
23385W        W95799  27.943   6.308   4.770
23386W        W95800   4.705  21.118   2.385
23387W        W95801  43.964   7.236  11.084
23388W        W95802  27.983   7.327   1.305
23389W        W95803  22.163  38.360   2.806
23390W        W95804   3.739  38.957   1.237
23391W        W95805   8.229  38.982   3.818
23392W        W95806   0.421  10.837   2.346
23393W        W95807  43.862   6.340   1.384
23394W        W95808  18.213  38.035   2.701
23395W        W95809  17.084  36.054  14.799
23396W        W95810  32.439  11.286   4.288
23397W        W95811  43.354  41.947  14.327
23398W        W95812  23.087   1.942  14.005
23399W        W95813  13.737  33.409  12.950
23400W        W95814  14.619  29.561   0.920
23401W        W95815  26.664  12.665   2.382
23402W        W95816  25.579  33.554  12.990
23403W        W95817  29.983  23.997   1.743
23404W        W95818  18.769   7.354  10.509
23405W        W95819  29.988  19.733  14.366
23406W        W95820  26.476  21.624  13.464
23407W        W95821  40.461  44.773   4.120
23408W        W95822  15.313   5.238  14.932
23409W        W95823   0.750   3.831  14.409
23410W        W95824  29.003  28.009  12.543
23411W        W95825  41.350  28.647  11.574
23412W        W95826   0.494   4.300  11.505
23413W        W95827  27.156   6.238  13.987
23414W        W95828  39.928   8.320   3.165
23415W        W95829  12.635  32.558  10.982
23416W        W95830   1.925  22.536   4.159
23417W        W95831   8.815  22.113  12.506
23418W        W95832  43.358  34.018   3.745
23419W        W95833  15.667  29.973  14.811
23420W        W95834  26.194   8.812  14.357
23421W        W95835  24.017  43.774  11.868
23422W        W95836  44.980  14.150  12.000
23423W        W95837  11.304  35.376  14.775
23424W        W95838  25.175  42.935  11.060
23425W        W95839  15.102  41.484   0.299
23426W        W95840  14.301  14.281   4.836
23427W        W95841  20.557   9.353   0.413
23428W        W95842   1.306  18.775  15.000
23429W        W95843   5.326  13.252   0.757
23430W        W95844  40.846  20.727  10.585
23431W        W95845  28.595  36.412   4.200
23432W        W95846  16.707  23.609  14.478
23433W        W95847  27.464  37.866  12.083
23434W        W95848  27.493  27.475  14.349
23435W        W95849  35.898   0.269   4.341
23436W        W95850  40.851   5.818   2.399
23437W        W95851  18.598  27.002   3.251
23438W        W95852  36.353  39.453   3.267
23439W        W95853  22.018  31.559   0.362
23440W        W95854  22.195  14.770   0.768
23441W        W95855  11.840   4.240   2.730
23442W        W95856  19.556  38.885   4.153
23443W        W95857  38.518  27.565   1.244
23444W        W95858   0.425  41.973   1.415
23445W        W95859  31.928  17.172   2.186
23446W        W95860   5.368  16.104  10.484
23447W        W95861   0.369   9.365   0.369
23448W        W95862   4.261  42.980   3.729
23449W        W95863  24.635   5.379   2.186
23450W        W95864  29.960  21.179   0.821
23451W        W95865  26.069  35.483  14.410
23452W        W95866  37.887   4.807  12.074
23453W        W95867  18.731  22.691  11.002
23454W        W95868  39.389  43.386  11.037
23455W        W95869  18.777  24.139   2.222
23456W        W95870  41.975  23.685   4.726
23457W        W95871  35.445  27.965  13.828
23458W        W95872  14.124  22.567   3.794
23459W        W95873  23.668  36.851  14.957
23460W        W95874  42.496  25.469   0.313
23461W        W95875   6.804  22.639   3.370
23462W        W95876  15.319  24.997  13.986
23463W        W95877  18.218  42.901  11.586
23464W        W95878  29.078  27.492   1.887
23465W        W95879  40.864  14.786   2.892
23466W        W95880  12.803  26.481   4.258
23467W        W95881   6.362  12.621   2.779
23468W        W95882  22.599  12.150   0.863
23469W        W95883   0.962  19.131   3.736
23470W        W95884  40.911   6.811   3.708
23471W        W95885  32.600  16.601  10.563
23472W        W95886  13.335  37.390   1.308
23473W        W95887  43.473  11.834  13.420
23474W        W95888  25.028  39.944   4.834
23475W        W95889   0.323  12.806   2.361
23476W        W95890  21.683  39.423  13.393
23477W        W95891  39.910  28.115  12.970
23478W        W95892  18.212  38.418   2.896
23479W        W95893  12.617  18.786   2.812
23480W        W95894  24.581   3.925   2.180
23481W        W95895  31.933  14.674  14.783
23482W        W95896  15.275  15.099  11.893
23483W        W95897  13.734   2.949  10.545
23484W        W95898   6.328   5.281   2.831
23485W        W95899  13.185  32.489  11.465
23486W        W95900  11.248   4.431  12.875
23487W        W95901   0.317  30.068  11.889
23488W        W95902  35.367  22.148   4.682
23489W        W95903   2.461  21.248  10.087
23490W        W95904  34.885  44.457  12.506
23491W        W95905  22.220  41.995  14.929
23492W        W95906  24.584  21.615  12.082
23493W        W95907  36.368  33.018   9.923
23494W        W95908  26.953   9.865   0.873
23495W        W95909  23.108  36.855  12.008
23496W        W95910  13.673   3.855   3.253
23497W        W95911  25.185  30.472  11.869
23498W        W95912  32.053  17.255  11.387
23499W        W95913  15.783   0.274   2.386
23500W        W95914   4.905   8.381   0.259
23501W        W95915  22.597   7.268  13.978
23502W        W95916  44.010  28.127  12.951
23503W        W95917  23.628  39.956   0.823
23504W        W95918  16.797   8.789   3.730
23505W        W95919  28.544  15.787  10.499
23506W        W95920  19.612  38.506   4.263
23507W        W95921   9.222  32.482  10.899
23508W        W95922  40.798   8.184   2.802
23509W        W95923  30.967  14.744   2.817
23510W        W95924  16.093   6.768   1.742
23511W        W95925  30.983  11.137  13.932
23512W        W95926  14.719  20.616   4.622
23513W        W95927  42.471  30.929   4.175
23514W        W95928  36.361   5.759   2.830
23515W        W95929   0.941  20.758   2.782
23516W        W95930   3.365  18.149   1.409
23517W        W95931  41.961  15.602  12.954
23518W        W95932  44.991  14.243  10.910
23519W        W95933  23.096  29.157   2.370
23520W        W95934   0.344  13.733   4.280
23521W        W95935  16.729   4.854   3.863
23522W        W95936  23.997   2.258   3.773
23523W        W95937  35.385  33.406   3.797
23524W        W95938  27.639  34.530  11.080
23525W        W95939  16.259  10.264   3.809
23526W        W95940  11.824   6.919  12.867
23527W        W95941  26.526  39.417  12.973
23528W        W95942  38.985  18.269  13.519
23529W        W95943   4.234  37.029   3.346
23530W        W95944  33.505   8.305   4.233
23531W        W95945  19.652  11.756  14.973
23532W        W95946  16.186  18.102   5.643
23533W        W95947  42.847  23.528   2.775
23534W        W95948  38.467   0.875  10.890
23535W        W95949  34.490  20.208   1.857
23536W        W95950  13.289  37.351   2.686
23537W        W95951  11.312  33.466   0.770
23538W        W95952   2.436  21.707  12.524
23539W        W95953  15.283  36.388  12.897
23540W        W95954  36.029  20.651   4.769
23541W        W95955  37.058   0.333  14.441
23542W        W95956  32.633  38.059   3.302
23543W        W95957  39.464  33.536  10.477
23544W        W95958   2.780  27.964   5.098
23545W        W95959  41.907  39.534   4.833
23546W        W95960  40.517  31.480  10.540
23547W        W95961  41.972  41.448   2.668
23548W        W95962  41.507  29.058  12.497
23549W        W95963   9.289   2.803   2.765
23550W        W95964  27.627  30.951  12.965
23551W        W95965   5.389   4.819   2.333
23552W        W95966  13.131  31.494   3.268
23553W        W95967  32.907   0.908   0.847
23554W        W95968   5.833  29.014   2.246
23555W        W95969  40.354  29.635  12.364
23556W        W95970   1.333   7.311   0.794
23557W        W95971  39.486  31.495   1.866
23558W        W95972  10.730  31.958   4.781
23559W        W95973  28.557  18.726  14.362
23560W        W95974  27.684   0.981  13.311
23561W        W95975   5.718  34.455   0.813
23562W        W95976  26.184  21.206   3.325
23563W        W95977  42.964  41.490  10.608
23564W        W95978   8.335   7.795  13.540
23565W        W95979  32.044  31.923  13.364
23566W        W95980  30.605  10.825   4.820
23567W        W95981  19.166  27.093  14.277
23568W        W95982  37.406   4.901   4.810
23569W        W95983  32.093  15.326   2.403
23570W        W95984  17.618  30.516   3.810
23571W        W95985   3.372  12.248  12.842
23572W        W95986  31.557  27.998   0.965
23573W        W95987  25.649  27.624   4.688
23574W        W95988   3.220  34.018   1.777
23575W        W95989  44.881   4.892   4.344
23576W        W95990  39.965   6.364  12.972
23577W        W95991  34.598  18.771  13.361
23578W        W95992  38.423  13.771   4.203
23579W        W95993  20.068  43.446  12.861
23580W        W95994  42.369  14.310  14.328
23581W        W95995  38.947  33.498  12.073
23582W        W95996  25.132  23.691   4.193
23583W        W95997  17.069  10.351  13.374
23584W        W95998  24.588  42.350  10.480
23585W        W95999   2.340  35.046   4.820
23586W        W96000  33.458  28.006   2.405
23587W        W96001  39.987  37.399   1.768
23588W        W96002  43.319   5.241  11.113
23589W        W96003   8.777  36.382  12.451
23590W        W96004  17.147  29.488  14.792
23591W        W96005  32.096  28.095   0.386
23592W        W96006  27.596  34.088   0.436
23593W        W96007  12.347  36.844  13.975
23594W        W96008   7.730   6.411  14.013
23595W        W96009  15.193  25.639   0.317
23596W        W96010  27.570  18.643   0.784
23597W        W96011  28.999  15.144  11.932
23598W        W96012  36.924  33.393  14.336
23599W        W96013  32.445  27.085  12.077
23600W        W96014  18.288  15.217   0.962
23601W        W96015  31.526  10.149  11.577
23602W        W96016  33.576  22.604  13.315
23603W        W96017  22.633  43.353   2.362
23604W        W96018  25.213  13.230   4.153
23605W        W96019  12.728  17.283  13.320
23606W        W96020   9.697  36.021  11.532
23607W        W96021  13.781  11.705  13.529
23608W        W96022   0.767  37.989   1.809
23609W        W96023  27.683  20.062  11.865
23610W        W96024  27.165  40.478   1.873
23611W        W96025  36.964   7.799  14.443
23612W        W96026  11.806  27.588  13.923
23613W        W96027   4.901  34.483   0.852
23614W        W96028  25.666  16.771   1.329
23615W        W96029  42.495  16.773  11.040
23616W        W96030  39.314  22.690  13.426
23617W        W96031   7.695  24.186  14.302
23618W        W96032   8.368   9.670   4.255
23619W        W96033  31.901  33.092   3.643
23620W        W96034  12.693  27.183   3.826
23621W        W96035   9.734  15.205   1.837
23622W        W96036  36.485  21.652  10.532
23623W        W96037  17.114   8.803  14.297
23624W        W96038  41.464  41.509   0.258
23625W        W96039  24.547  33.619   3.694
23626W        W96040  43.441  34.478   1.800
23627W        W96041  12.136  10.775   2.226
23628W        W96042  39.428  11.815   3.794
23629W        W96043  23.666  20.616  12.382
23630W        W96044   3.243   5.417  11.122
23631W        W96045  29.555  19.775   5.277
23632W        W96046  12.185  10.234   2.344
23633W        W96047  31.636  32.532   2.673
23634W        W96048  12.645  15.782  12.848
23635W        W96049   9.650   0.313   3.850
23636W        W96050  19.680  35.364   4.839
23637W        W96051   3.441   8.832  11.102
23638W        W96052  42.487  21.203   4.155
23639W        W96053   9.859  20.169   0.473
23640W        W96054  31.470  10.815   0.392
23641W        W96055  31.555  22.219   1.409
23642W        W96056  14.287  15.693  13.807
23643W        W96057  26.018  12.625  13.456
23644W        W96058  26.527   1.346  11.935
23645W        W96059   8.200  21.150   1.323
23646W        W96060   1.748  15.207  10.938
23647W        W96061  37.023  38.364  12.969
23648W        W96062  27.984   3.418  12.378
23649W        W96063  39.433  30.987  14.985
23650W        W96064   7.204   3.267  11.918
23651W        W96065  18.763  32.535   3.344
23652W        W96066  33.047  26.661   1.375
23653W        W96067  20.608  40.428   4.812
23654W        W96068  19.062  36.541  14.895
23655W        W96069  24.513  37.548  11.859
23656W        W96070  39.455  15.179  13.829
23657W        W96071  20.092  29.920   2.398
23658W        W96072  38.407   1.911  11.607
23659W        W96073   0.930  17.772   3.852
23660W        W96074  43.977  22.691   4.672
23661W        W96075  37.954   5.379  12.484
23662W        W96076   7.218  36.013  12.061
23663W        W96077   9.284  11.228  11.958
23664W        W96078  13.654  29.126  14.977
23665W        W96079  30.516  20.751  13.863
23666W        W96080  41.931   1.468   3.212
23667W        W96081  41.500   3.866  14.388
23668W        W96082   4.405   4.940  14.422
23669W        W96083  44.417  23.554  11.991
23670W        W96084  37.923  14.265   0.843
23671W        W96085  13.766  41.982   1.848
23672W        W96086  37.916  15.130  13.057
23673W        W96087  33.456  17.141  14.478
23674W        W96088  35.905  18.106   0.857
23675W        W96089  24.211   9.292  11.076
23676W        W96090  40.525  35.858   5.271
23677W        W96091  31.413  23.206  11.945
23678W        W96092  29.607  18.148   0.935
23679W        W96093   5.690  29.046  13.909
23680W        W96094  16.637  37.507   4.640
23681W        W96095  40.880  20.102   3.374
23682W        W96096  26.494  44.430  13.486
23683W        W96097  18.777  31.054  13.926
23684W        W96098  12.745  26.012  13.327
23685W        W96099  22.101  43.948   4.254
23686W        W96100  28.041  34.593   0.893
23687W        W96101   9.377  43.271  14.511
23688W        W96102  18.665  29.498  11.012
23689W        W96103  10.654  10.194  13.907
23690W        W96104   5.346  43.312   3.800
23691W        W96105  43.418   1.961  13.414
23692W        W96106   9.790   7.276  10.534
23693W        W96107  10.205  39.031   2.807
23694W        W96108  10.843  28.510   3.352
23695W        W96109  10.384  26.133  14.303
23696W        W96110  42.293   2.855   2.850
23697W        W96111  14.132   9.767   2.821
23698W        W96112  12.852  27.655   1.823
23699W        W96113  27.676  33.877   1.794
23700W        W96114  24.519  22.124   4.636
23701W        W96115  10.221  22.746   2.895
23702W        W96116  23.656  31.025   1.268
23703W        W96117   6.303  14.336   9.947
23704W        W96118  31.009  20.640   1.220
23705W        W96119  33.882  26.687  10.453
23706W        W96120  11.362   5.312   1.410
23707W        W96121  13.703  19.641  13.449
23708W        W96122  31.492  14.156  14.849
23709W        W96123   0.384  41.897   2.779
23710W        W96124  27.657  38.536   4.208
23711W        W96125  29.009  33.943   4.686
23712W        W96126  19.729  14.642   0.249
23713W        W96127  30.970  36.434   4.257
23714W        W96128   4.885  43.908   4.265
23715W        W96129   4.284  33.422  12.887
23716W        W96130  12.205  27.958   4.647
23717W        W96131  36.933  39.487   2.325
23718W        W96132  27.048  40.815  14.492
23719W        W96133  29.092   5.730  13.473
23720W        W96134  43.965  14.195  13.531
23721W        W96135   0.449  44.441   0.349
23722W        W96136  23.625  39.448   0.472
23723W        W96137   4.389  11.799   3.729
23724W        W96138  35.882  26.180  12.950
23725W        W96139  27.621  25.204   2.300
23726W        W96140  28.029  39.966  12.443
23727W        W96141  38.519  22.228  11.869
23728W        W96142  15.735   3.792   0.854
23729W        W96143  32.479  42.365   2.677
23730W        W96144   0.469   3.738   4.348
23731W        W96145   8.317  32.131  13.471
23732W        W96146  25.004  10.802  14.874
23733W        W96147  11.331  39.508  11.001
23734W        W96148   3.859  37.427  13.435
23735W        W96149   9.701  42.403   3.863
23736W        W96150  25.595  15.718  11.456
23737W        W96151  41.467  17.175  12.448
23738W        W96152  28.943  18.184  12.969
23739W        W96153   9.271  33.619  14.443
23740W        W96154  42.290  19.755   3.345
23741W        W96155  22.229  18.053   2.770
23742W        W96156  36.553  23.150  14.778
23743W        W96157   9.291  32.463   4.229
23744W        W96158   5.793  40.857   4.633
23745W        W96159  11.746  41.960  14.862
23746W        W96160  40.509  15.709   5.102
23747W        W96161  21.588  35.530   2.747
23748W        W96162  40.532  28.519   4.820
23749W        W96163  11.747  31.564   0.767
23750W        W96164  39.890  21.178   0.467
23751W        W96165   7.787  32.417  13.807
23752W        W96166  42.920  44.436  14.354
23753W        W96167  25.162  13.262  12.517
23754W        W96168  37.959  35.912   0.324
23755W        W96169  41.876  41.432   4.238
23756W        W96170   2.265   5.377   3.752
23757W        W96171  44.815  18.141   4.831
23758W        W96172  32.405  18.700  12.371
23759W        W96173  34.382  14.336  10.575
23760W        W96174  43.967  12.633   4.315
23761W        W96175  20.164  40.956   3.816
23762W        W96176   5.286  19.072  14.285
23763W        W96177   1.897  23.607   2.190
23764W        W96178  15.709  32.572   3.162
23765W        W96179  34.421  43.784   2.716
23766W        W96180  11.273  34.416  13.840
23767W        W96181   2.831   8.387  14.425
23768W        W96182  37.013  18.107   0.813
23769W        W96183   7.288  30.053   0.317
23770W        W96184  34.484  10.816   1.746
23771W        W96185  39.520  20.185  13.453
23772W        W96186  18.712   4.825  11.409
23773W        W96187  14.781  17.191   1.347
23774W        W96188  28.104  40.992   4.733
23775W        W96189  11.128  38.941  14.301
23776W        W96190  39.415  23.660  10.998
23777W        W96191  23.623  10.185  11.987
23778W        W96192  32.976  18.674  10.564
23779W        W96193  14.720  18.554   0.842
23780W        W96194  31.138   0.799   2.294
23781W        W96195  42.441   8.696  13.418
23782W        W96196  19.171  32.953   1.226
23783W        W96197  38.366  36.509   3.261
23784W        W96198  15.756  39.823  10.613
23785W        W96199  44.305   9.367   1.410
23786W        W96200  41.790  41.292   3.320
23787W        W96201  22.045  40.860  13.529
23788W        W96202   2.331  38.553   2.276
23789W        W96203  15.103  16.118  10.439
23790W        W96204  39.830  29.040   0.375
23791W        W96205   9.702  10.842  14.376
23792W        W96206  19.042  38.482   4.788
23793W        W96207   9.165  27.049  12.040
23794W        W96208   0.783  37.993   2.339
23795W        W96209  39.316  15.763  14.831
23796W        W96210  12.279  27.613   0.311
23797W        W96211  37.509  16.800  14.912
23798W        W96212  38.031  16.641  13.021
23799W        W96213   5.224   3.859  10.545
23800W        W96214  11.793  43.423   0.345
23801W        W96215  11.286  16.669   4.201
23802W        W96216  11.284  27.456  12.354
23803W        W96217  28.629  14.684   1.753
23804W        W96218  38.355  18.142  13.029
23805W        W96219  28.059   0.349   1.915
23806W        W96220  14.246  12.699   1.870
23807W        W96221  32.120  44.301  14.853
23808W        W96222  36.850  41.042  11.533
23809W        W96223  38.855  14.596   5.285
23810W        W96224  30.483  18.653  11.984
23811W        W96225  17.071  13.762   2.808
23812W        W96226   1.358  35.587   0.316
23813W        W96227  35.956  43.833  14.962
23814W        W96228  27.042   4.758   4.725
23815W        W96229  27.174  35.024   3.761
23816W        W96230  36.481   5.215   2.809
23817W        W96231  16.242  36.538  13.942
23818W        W96232  44.924   2.280  13.978
23819W        W96233  28.041  17.570   3.310
23820W        W96234   0.934  17.716   3.357
23821W        W96235   9.820  16.648  12.364
23822W        W96236  10.661   3.835  13.895
23823W        W96237  11.735  24.591   2.694
23824W        W96238  42.361  44.943   4.344
23825W        W96239  40.465  33.558   2.212
23826W        W96240  27.022   9.171  11.506
23827W        W96241  32.561  29.118   2.681
23828W        W96242  22.587  43.994  12.852
23829W        W96243  20.236  42.285   2.761
23830W        W96244  41.840  41.473   0.772
23831W        W96245  35.008   3.734  12.983
23832W        W96246   0.474  18.060  12.860
23833W        W96247  28.629   8.376  11.997
23834W        W96248  18.181  39.994   2.698
23835W        W96249  28.997  22.684   1.422
23836W        W96250   1.897   8.661  12.567
23837W        W96251   8.794  42.330  13.927
23838W        W96252  25.660  34.056   1.832
23839W        W96253   2.378  14.186  12.979
23840W        W96254  12.680  38.398  12.416
23841W        W96255  28.970  16.289  12.889
23842W        W96256  14.594  21.166   4.334
23843W        W96257   3.415   1.873   4.216
23844W        W96258   5.841  15.725  14.026
23845W        W96259  22.132   9.799   2.677
23846W        W96260  24.617  15.249  10.044
23847W        W96261   9.808  36.432  10.898
23848W        W96262  31.083  44.911  11.886
23849W        W96263  30.004  12.251   2.326
23850W        W96264  22.010  43.839  10.561
23851W        W96265  20.029  18.083   2.768
23852W        W96266  31.929  43.764   3.663
23853W        W96267   4.709  31.597   3.169
23854W        W96268   4.912  37.993   1.341
23855W        W96269   3.728  36.390  12.833
23856W        W96270   9.878  30.937  11.461
23857W        W96271  23.511  43.462  12.383
23858W        W96272  37.491  24.614   2.823
23859W        W96273  44.832  37.983   3.333
23860W        W96274  44.854  33.053   3.633
23861W        W96275  36.532  26.039  14.795
23862W        W96276   6.697   2.910   4.715
23863W        W96277  25.586  29.640   2.384
23864W        W96278  18.191  23.541   3.192
23865W        W96279  32.599   5.925  12.040
23866W        W96280   7.684   5.842   1.388
23867W        W96281  10.748  34.066   2.875
23868W        W96282   1.874  31.503  11.373
23869W        W96283  40.912  12.755  14.442
23870W        W96284  18.637  33.472  12.571
23871W        W96285  28.681  27.046  11.039
23872W        W96286   3.770  28.957   9.921
23873W        W96287  26.003  31.562   1.434
23874W        W96288  14.264  25.964   2.304
23875W        W96289  15.295   3.309  12.495
23876W        W96290  14.278  23.664   4.646
23877W        W96291  25.066  39.424   3.246
23878W        W96292  12.780   2.255   4.784
23879W        W96293   9.830   0.424   1.278
23880W        W96294  29.019  16.728  13.408
23881W        W96295  32.565  16.315  11.580
23882W        W96296   7.393  11.690   2.891
23883W        W96297   4.277  30.516   2.177
23884W        W96298  22.185  10.758   2.782
23885W        W96299  27.626   8.316   4.340
23886W        W96300  10.164  44.887   3.340
23887W        W96301   3.329  44.900  14.377
23888W        W96302  41.443  28.981  14.783
23889W        W96303  21.261   9.303   4.351
23890W        W96304  16.662  32.567  11.512
23891W        W96305  17.256   3.395   0.430
23892W        W96306  36.928  36.964   2.271
23893W        W96307  15.243  18.056  14.915
23894W        W96308  43.488  32.923  12.444
23895W        W96309  34.382  17.117  13.906
23896W        W96310  30.954  33.933   0.743
23897W        W96311  27.190   9.696  12.533
23898W        W96312   5.329  33.021   0.754
23899W        W96313  20.066   7.233   0.442
23900W        W96314  25.678   4.414   1.789
23901W        W96315   8.400  37.962  13.056
23902W        W96316  15.615  21.661   2.325
23903W        W96317  27.989  14.264   4.266
23904W        W96318  19.619  25.014   2.869
23905W        W96319   9.260  37.025  11.562
23906W        W96320  11.198  15.294  10.442
23907W        W96321   5.259  10.352  12.996
23908W        W96322  18.741  38.536  13.498
23909W        W96323  12.304   3.442   4.151
23910W        W96324   7.339  19.582  13.034
23911W        W96325  11.814  33.403   5.105
23912W        W96326  22.199  13.335  11.988
23913W        W96327   3.371  35.420   4.235
23914W        W96328  43.941  30.440  12.574
23915W        W96329  33.521  40.001  14.438
23916W        W96330  20.636  10.719  11.045
23917W        W96331  10.705  38.843  10.905
23918W        W96332  31.598   2.903  12.021
23919W        W96333  43.949  15.255  13.445
23920W        W96334  43.810  16.134   3.695
23921W        W96335  18.552  44.984  10.112
23922W        W96336  16.598  12.779  11.011
23923W        W96337   9.860  11.251   3.636
23924W        W96338  14.609  18.217   0.728
23925W        W96339   2.336  35.495   0.901
23926W        W96340  28.554   5.871  10.628
23927W        W96341  24.228  16.212  11.459
23928W        W96342  12.201  11.827   2.785
23929W        W96343  41.804  30.066  14.481
23930W        W96344   5.302  17.709  13.442
23931W        W96345  15.627   8.823  13.031
23932W        W96346  14.327  43.331  11.020
23933W        W96347  27.990   5.805  12.012
23934W        W96348  21.732  16.588   3.300
23935W        W96349  28.140   6.887   3.213
23936W        W96350  17.157  19.753  12.849
23937W        W96351   6.681  32.052   0.789
23938W        W96352  22.252  33.458  14.030
23939W        W96353  15.677  16.582  12.052
23940W        W96354  33.965  25.107  10.933
23941W        W96355  40.047   4.908  14.284
23942W        W96356  26.545  15.298   1.829
23943W        W96357  41.796   9.352  13.052
23944W        W96358   0.790   8.895  14.000
23945W        W96359  41.988   7.181   3.724
23946W        W96360  25.203  11.255   3.146
23947W        W96361   8.839   4.875   2.887
23948W        W96362  41.385  37.927   3.280
23949W        W96363   6.878  15.671  11.115
23950W        W96364  30.003  39.049   3.186
23951W        W96365  31.632  41.838  11.553
23952W        W96366  19.141  16.799  13.494
23953W        W96367  17.768  44.818  14.443
23954W        W96368  10.750  11.362  14.963
23955W        W96369   3.742  20.214  13.829
23956W        W96370  22.555  14.222  10.572
23957W        W96371  40.314  22.135   4.345
23958W        W96372  40.406   7.360  10.157
23959W        W96373   9.249  41.468  13.402
23960W        W96374  22.014   2.447   3.239
23961W        W96375  40.314  30.594  12.523
23962W        W96376  33.001  26.173  10.545
23963W        W96377  44.865   8.183   0.786
23964W        W96378  43.501  44.382  13.006
23965W        W96379  12.273  34.039  11.041
23966W        W96380   5.863  37.952   2.190
23967W        W96381  20.200   8.837   3.298
23968W        W96382  16.734   9.213   1.311
23969W        W96383  14.105  20.664   5.225
23970W        W96384  18.207   6.905   4.179
23971W        W96385  27.461  20.744  11.923
23972W        W96386  40.499  21.534  11.921
23973W        W96387  17.778  23.111   4.168
23974W        W96388  43.454  23.604   3.241
23975W        W96389  39.390   2.325   0.425
23976W        W96390  13.222  30.590   3.283
23977W        W96391  44.318  10.185  12.902
23978W        W96392  28.125  42.860  10.085
23979W        W96393  12.292   1.344  11.056
23980W        W96394   4.740  10.327   3.751
23981W        W96395   2.297  11.643  12.386
23982W        W96396   6.403  33.094  13.914
23983W        W96397   7.243  17.204  12.879
23984W        W96398  19.101  29.926   3.823
23985W        W96399  40.425  44.270   3.851
23986W        W96400  44.430  14.731  10.931
23987W        W96401   5.200   6.372   9.964
23988W        W96402  30.548   0.765  13.476
23989W        W96403  30.488  28.137   4.127
23990W        W96404  33.118  31.044  13.518
23991W        W96405  41.360  42.964  14.274
23992W        W96406  12.704   8.330  13.343
23993W        W96407  29.436  23.178  14.315
23994W        W96408   4.252  20.084  12.492
23995W        W96409  41.808  29.484   2.762
23996W        W96410   3.931  29.461   0.323
23997W        W96411   8.235  32.067   3.272
23998W        W96412  43.967  38.962   4.722
23999W        W96413   9.696  43.951  10.495
24000W        W96414  17.087  34.898  12.433
24001W        W96415  31.979   9.371  13.004
24002W        W96416  30.522  24.175   1.926
24003W        W96417  32.556  23.028   3.771
24004W        W96418   2.818  26.202  13.508
24005W        W96419  38.353  23.059  10.612
24006W        W96420  19.569  40.023   2.404
24007W        W96421   1.925  16.250  14.015
24008W        W96422   4.752  19.611  10.957
24009W        W96423  28.624  34.106  13.899
24010W        W96424  33.018   6.310  14.508
24011W        W96425  43.979   8.850  12.940
24012W        W96426  36.962  31.524  11.558
24013W        W96427   8.756  18.680   3.151
24014W        W96428  34.459  24.102   9.492
24015W        W96429  35.386  35.392   3.747
24016W        W96430  18.146  13.600  11.855
24017W        W96431  13.295  36.404   4.607
24018W        W96432  32.617  43.272   1.372
24019W        W96433   0.906   4.814   5.225
24020W        W96434  41.334  31.010   2.704
24021W        W96435  15.184  14.292   0.426
24022W        W96436  23.699   3.339   1.717
24023W        W96437   8.856  11.322  13.926
24024W        W96438  41.323  27.134  14.967
24025W        W96439   9.230  28.164   0.876
24026W        W96440  29.027  44.836  14.766
24027W        W96441  40.312  25.521  14.369
24028W        W96442  44.804  25.110   1.407
24029W        W96443  35.393  29.627  12.509
24030W        W96444  20.556  44.447   5.638
24031W        W96445  10.141  40.971   1.358
24032W        W96446  29.078  31.034   3.242
24033W        W96447  35.496  10.325   3.749
24034W        W96448  12.721  40.923  12.961
24035W        W96449   2.833   5.787  12.370
24036W        W96450  32.102  27.084  12.083
24037W        W96451  34.481  24.040   5.703
24038W        W96452  38.984   9.706  12.342
24039W        W96453  39.539  21.620  10.642
24040W        W96454  15.136  28.023   0.292
24041W        W96455  14.734  24.068   0.885
24042W        W96456   6.869  33.608   1.929
24043W        W96457  14.700  17.179   9.964
24044W        W96458  24.979   6.191   0.409
24045W        W96459  33.029   1.947  10.637
24046W        W96460  19.681  16.723  12.849
24047W        W96461  43.467  24.974  13.046
24048W        W96462  29.538   8.758  14.323
24049W        W96463  17.796  34.586   3.280
24050W        W96464  20.129  19.258  13.401
24051W        W96465  41.841   2.958   2.886
24052W        W96466  20.586   6.828   0.842
24053W        W96467  35.602  18.667   1.383
24054W        W96468  10.742  21.244   1.894
24055W        W96469   7.851  43.840   2.204
24056W        W96470  20.631  33.608  13.046
24057W        W96471  14.157  12.118   1.834
24058W        W96472  43.435  12.670   0.352
24059W        W96473  15.287  44.293   0.327
24060W        W96474  24.672   5.831  10.597
24061W        W96475   8.170   1.896   3.240
24062W        W96476  35.985   2.750  11.503
24063W        W96477   9.356  40.506  14.007
24064W        W96478  42.864  23.696  14.326
24065W        W96479  14.694  19.676   4.677
24066W        W96480  33.972   7.692   1.812
24067W        W96481   7.901  26.676  12.427
24068W        W96482  40.808  14.734   2.182
24069W        W96483  43.886   7.845  11.461
24070W        W96484  43.875  30.606  14.299
24071W        W96485  20.106  15.711   2.901
24072W        W96486  30.653  33.889   3.753
24073W        W96487   2.455   8.840   1.743
24074W        W96488  15.303  15.659  12.492
24075W        W96489  44.471  14.611   2.706
24076W        W96490  34.483  12.142   4.242
24077W        W96491  14.755  20.560  11.974
24078W        W96492  13.325  33.569  12.863
24079W        W96493   8.280  21.222  13.546
24080W        W96494  43.907  40.543  13.412
24081W        W96495   3.280   0.345   3.236
24082W        W96496  11.708  31.127  10.608
24083W        W96497  14.285  22.698  11.870
24084W        W96498  33.057  39.497   3.245
24085W        W96499  41.890  34.443  10.567
24086W        W96500  34.995  27.627   1.378
24087W        W96501   7.364  37.068   1.261
24088W        W96502   2.380  28.670   0.891
24089W        W96503  18.764  21.560  10.634
24090W        W96504  13.298  36.922   3.726
24091W        W96505  19.558   6.404  12.900
24092W        W96506  33.560  23.645  13.922
24093W        W96507  16.699  44.953   4.271
24094W        W96508  24.701   0.798  13.821
24095W        W96509  17.636  10.246  12.422
24096W        W96510  17.779   9.259  14.833
24097W        W96511  19.198  35.928  14.413
24098W        W96512  25.116  37.052   2.351
24099W        W96513  14.231  10.173   0.801
24100W        W96514  25.641  38.427   0.785
24101W        W96515  37.466  12.232  10.934
24102W        W96516  21.612  43.822  14.825
24103W        W96517  12.257  43.440   4.749
24104W        W96518  39.895  41.888   0.883
24105W        W96519  31.984  16.599   3.319
24106W        W96520  25.102  12.158  11.571
24107W        W96521  30.509  38.400   0.816
24108W        W96522  23.520   4.227   2.853
24109W        W96523  20.653  38.904  14.284
24110W        W96524   5.734  14.669   4.631
24111W        W96525  20.222   2.939   0.958
24112W        W96526  27.153  31.476  11.973
24113W        W96527  27.599  29.468  12.871
24114W        W96528   2.937   9.730   1.765
24115W        W96529  21.730  42.355   2.729
24116W        W96530  13.792  32.104   3.870
24117W        W96531   4.760   1.330  13.454
24118W        W96532  13.290  26.107  10.934
24119W        W96533  24.586  35.109   2.682
24120W        W96534  38.494  25.106  13.495
24121W        W96535  22.585  38.412   1.277
24122W        W96536  43.969  19.538   1.278
24123W        W96537  12.248  29.146   4.273
24124W        W96538  14.178   0.870  13.854
24125W        W96539   8.894  31.550   3.691
24126W        W96540  31.486  21.625  12.001
24127W        W96541  43.510   3.393   0.293
24128W        W96542  17.656  29.972  14.454
24129W        W96543   7.903  43.021  14.342
24130W        W96544  41.837  37.413  12.884
24131W        W96545   7.331  30.050   1.778
24132W        W96546  25.507  29.661  12.475
24133W        W96547  42.833  30.472   3.356
24134W        W96548  14.311  34.435  14.449
24135W        W96549  16.713  21.698  13.311
24136W        W96550  40.963  16.246   0.307
24137W        W96551  14.649   7.819  12.496
24138W        W96552  20.552   1.954   4.611
24139W        W96553  26.621  24.230   1.375
24140W        W96554   4.221  41.502   3.332
24141W        W96555  25.644  36.431   3.686
24142W        W96556  35.374  18.631  13.524
24143W        W96557  27.470  27.608   3.356
24144W        W96558  42.888   8.206   3.780
24145W        W96559  38.452  34.543   5.636
24146W        W96560  24.509  40.999  12.011
24147W        W96561  18.093  27.597   0.960
24148W        W96562  19.252  43.917   4.230
24149W        W96563  17.251   2.421  11.018
24150W        W96564   8.688   0.818  12.471
24151W        W96565   9.370  35.462  12.855
24152W        W96566  29.662   1.400  12.083
24153W        W96567  35.451  14.751  13.338
24154W        W96568  16.657   4.776   0.247
24155W        W96569  39.332  17.089   0.943
24156W        W96570  37.989   7.826   0.736
24157W        W96571  26.084  33.441   3.265
24158W        W96572  10.266   0.409  13.340
24159W        W96573  17.799  39.356  13.974
24160W        W96574   9.693  30.651  14.498
24161W        W96575  23.615  14.833  13.966
24162W        W96576  39.845  37.421  10.968
24163W        W96577  40.484  21.713  12.362
24164W        W96578  22.507  27.533   3.805
24165W        W96579  17.572  43.801   9.973
24166W        W96580   8.168  26.478  13.407
24167W        W96581  28.520  22.158  14.972
24168W        W96582  31.505  33.014  11.877
24169W        W96583   0.355  11.631  10.524
24170W        W96584  30.961  23.580   2.664
24171W        W96585  41.905   9.846   3.304
24172W        W96586  37.455  32.541  14.938
24173W        W96587  33.405   1.810   3.797
24174W        W96588  20.654  29.515  11.438
24175W        W96589  33.505  11.693  14.476
24176W        W96590   5.764   0.742  13.330
24177W        W96591  13.635  11.320   2.337
24178W        W96592  12.165  30.160   0.437
24179W        W96593  26.177   3.314   3.266
24180W        W96594  39.462  32.441   4.160
24181W        W96595  27.024   7.831   3.729
24182W        W96596   7.245  37.505   1.875
24183W        W96597  31.003  37.541  13.866
24184W        W96598   7.226  27.134  14.856
24185W        W96599  31.463  35.863   1.341
24186W        W96600  39.322  30.468  12.893
24187W        W96601  14.656   9.747   2.264
24188W        W96602  22.070  36.426   4.710
24189W        W96603   3.767  29.965   0.337
24190W        W96604  16.307  28.161   1.304
24191W        W96605   9.250  17.209   3.370
24192W        W96606  16.128  27.151  14.498
24193W        W96607   5.868  23.164  12.555
24194W        W96608  41.013   6.843  11.562
24195W        W96609  38.399  17.137   1.699
24196W        W96610  12.683  18.282   5.228
24197W        W96611  21.245  26.674   4.345
24198W        W96612  15.115  11.674   1.261
24199W        W96613  11.354  12.135   3.372
24200W        W96614  25.139  34.443   2.315
24201W        W96615  19.663  13.794  11.027
24202W        W96616  17.645   3.352   3.149
24203W        W96617  41.798   4.831  12.436
24204W        W96618   9.765  14.142  13.353
24205W        W96619  18.615   5.419  14.340
24206W        W96620   5.899   0.936   4.319
24207W        W96621  36.983  20.709   1.222
24208W        W96622  28.968  22.224  10.974
24209W        W96623   1.876   2.882   1.809
24210W        W96624  29.149  33.536   2.257
24211W        W96625  35.110  28.608  12.973
24212W        W96626  40.475   5.373  13.888
24213W        W96627  13.280  40.518  14.486
24214W        W96628  14.597   5.411   0.356
24215W        W96629  41.960  40.324  12.835
24216W        W96630  32.500  25.672   1.825
24217W        W96631  22.092  33.925  13.484
24218W        W96632  15.737  12.254   4.637
24219W        W96633   1.756  15.095  12.949
24220W        W96634   2.894  28.441  13.845
24221W        W96635  17.222  19.250   2.249
24222W        W96636  32.925  42.995   1.769
24223W        W96637  33.920  20.598  13.467
24224W        W96638  33.091  39.429  11.073
24225W        W96639   7.732   4.282   0.328
24226W        W96640  24.013  39.379  13.826
24227W        W96641   1.914  20.601   3.385
24228W        W96642  14.658  15.162  11.508
24229W        W96643  31.082   9.645  11.876
24230W        W96644  31.562   7.757  11.075
24231W        W96645  20.766  14.710   1.879
24232W        W96646  42.452   3.849  13.903
24233W        W96647   1.904  30.656  12.505
24234W        W96648   3.377  20.178   0.438
24235W        W96649   8.722  37.876   4.224
24236W        W96650  12.826  18.227  12.389
24237W        W96651  20.084  35.395   2.289
24238W        W96652  20.643  17.157   2.879
24239W        W96653  33.512   7.202   2.783
24240W        W96654  14.601  24.002   3.377
24241W        W96655  10.863  34.945  14.335
24242W        W96656  37.874  34.579  13.985
24243W        W96657   9.657   1.294  14.941
24244W        W96658   2.931  18.139  12.837
24245W        W96659  12.170  21.636  14.374
24246W        W96660  11.867  26.510   1.341
24247W        W96661  40.827  24.100  11.910
24248W        W96662  37.015   0.351  11.559
24249W        W96663   7.355  40.417  11.449
24250W        W96664  30.511  26.537   4.652
24251W        W96665  35.514  17.699  12.395
24252W        W96666  14.783  41.533  13.924
24253W        W96667  12.145  22.179  11.048
24254W        W96668   9.168  20.550  13.408
24255W        W96669  16.609  43.274   2.219
24256W        W96670  30.078  26.579  11.407
24257W        W96671  38.841  16.276  14.364
24258W        W96672  18.160  31.561   2.224
24259W        W96673  29.632  17.753  11.855
24260W        W96674  34.424  38.469  10.468
24261W        W96675  23.183   7.386  12.830
24262W        W96676  18.655  19.214   4.653
24263W        W96677  24.699  39.487   3.701
24264W        W96678   3.849  33.582  11.924
24265W        W96679   4.749  39.917   5.184
24266W        W96680  19.582  44.799  14.783
24267W        W96681   7.878  20.585   2.715
24268W        W96682   4.818  43.450   2.374
24269W        W96683  30.634  24.605  12.828
24270W        W96684   9.649  13.235  13.488
24271W        W96685   9.308  39.481  10.503
24272W        W96686  12.650  14.776  14.510
24273W        W96687  25.137   4.391  14.798
24274W        W96688  22.209  42.895  12.071
24275W        W96689  33.500  33.493   2.308
24276W        W96690  29.468  11.836   2.311
24277W        W96691  32.602   8.826  14.998
24278W        W96692  34.392  31.447   4.794
24279W        W96693  24.625  30.055   3.633
24280W        W96694   1.892  39.335  11.500
24281W        W96695  11.751  23.594  10.123
24282W        W96696  40.306  13.221  14.317
24283W        W96697   5.250  43.883   4.152
24284W        W96698  17.244  20.110   3.261
24285W        W96699  41.031   8.298   1.695
24286W        W96700  30.957   2.921   2.849
24287W        W96701  44.991  33.507  11.435
24288W        W96702  11.832  25.125  12.859
24289W        W96703  28.481   8.304  10.985
24290W        W96704  44.965   1.260  14.020
24291W        W96705  44.819  44.876   3.353
24292W        W96706  36.889  22.196   2.840
24293W        W96707  33.592  21.687   3.673
24294W        W96708  39.523  27.584   3.805
24295W        W96709   5.900  41.487   4.346
24296W        W96710  38.932  16.707  11.010
24297W        W96711  17.791   6.884   1.414
24298W        W96712  27.018  21.199   3.328
24299W        W96713   2.279   1.889   4.629
24300W        W96714  27.079   3.260   1.429
24301W        W96715  24.227   1.377   9.528
24302W        W96716  43.978  35.555   2.711
24303W        W96717  37.913  31.072   0.732
24304W        W96718  14.265  43.021   4.240
24305W        W96719  14.818  41.370   3.655
24306W        W96720  31.565  26.626   1.706
24307W        W96721   3.396  15.262   9.944
24308W        W96722  35.362  30.073  14.420
24309W        W96723   6.791  30.130   4.756
24310W        W96724   3.389  18.559   4.143
24311W        W96725  18.569  21.632  14.336
24312W        W96726  20.082  37.059   2.872
24313W        W96727  24.226  12.144   1.436
24314W        W96728  10.354  11.166   0.926
24315W        W96729  19.081   6.400   3.300
24316W        W96730  12.313  29.956   3.196
24317W        W96731   8.839  25.605   2.183
24318W        W96732   9.197  25.129  14.948
24319W        W96733   8.786  28.013  10.951
24320W        W96734  24.558   3.885  11.435
24321W        W96735   9.205  44.341   1.746
24322W        W96736   6.268  11.831   5.196
24323W        W96737  36.062   4.830  12.092
24324W        W96738   8.698  21.704   1.815
24325W        W96739  16.734  37.002   4.272
24326W        W96740  38.874  34.421   1.450
24327W        W96741  31.030  30.654   2.363
24328W        W96742  11.789  27.453   3.305
24329W        W96743  18.700  42.880  12.056
24330W        W96744  17.561   6.316  13.838
24331W        W96745  21.647  29.073   2.817
24332W        W96746   7.263  22.064   4.293
24333W        W96747  32.056  29.489   4.345
24334W        W96748  36.053  34.606  10.978
24335W        W96749  39.902   9.248  13.912
24336W        W96750  19.233  43.513   1.303
24337W        W96751   2.254   3.263  13.477
24338W        W96752  34.023  44.426   2.416
24339W        W96753   8.877  17.669  13.467
24340W        W96754   6.862  23.129   2.393
24341W        W96755   8.193  37.570  12.939
24342W        W96756  12.676  24.021  14.313
24343W        W96757  25.206  15.269   2.786
24344W        W96758  19.560  12.768  13.878
24345W        W96759  12.698  13.161   3.820
24346W        W96760   2.398  41.316   4.244
24347W        W96761  25.618  18.571   2.204
24348W        W96762  43.293  36.397  14.362
24349W        W96763  24.986   7.806  13.361
24350W        W96764  41.356  12.317   4.133
24351W        W96765  42.856  32.534   3.262
24352W        W96766  23.140  36.526   3.187
24353W        W96767  21.042  31.600  10.419
24354W        W96768  41.492   7.265   1.840
24355W        W96769   8.889  10.798   1.856
24356W        W96770  35.593  43.438  12.412
24357W        W96771  15.164  42.315   0.836
24358W        W96772  19.777  11.178  11.021
24359W        W96773  12.167   2.319   0.955
24360W        W96774  28.090  14.249  13.405
24361W        W96775  27.594   4.890   1.878
24362W        W96776  23.209  15.744  10.926
24363W        W96777  26.958  25.085  13.820
24364W        W96778  32.100  36.430  10.502
24365W        W96779  13.682  36.476   4.754
24366W        W96780  35.883  20.578   4.246
24367W        W96781   0.335  42.776  11.915
24368W        W96782  15.089  22.625  14.845
24369W        W96783  37.543  14.213   0.373
24370W        W96784  27.500  26.952  10.631
24371W        W96785  33.520   3.844   0.372
24372W        W96786  37.481  10.835   3.207
24373W        W96787   7.224  15.611  14.791
24374W        W96788  27.648   5.328   3.355
24375W        W96789  30.562  10.688   0.896
24376W        W96790  41.887  21.531  13.375
24377W        W96791  33.954   1.390   2.879
24378W        W96792  38.510  10.743  11.975
24379W        W96793  12.634  13.699  11.066
24380W        W96794   9.203   9.890   1.820
24381W        W96795  20.767  44.940   9.947
24382W        W96796  43.413  18.773  11.408
24383W        W96797  26.169  15.605   0.767
24384W        W96798  26.611  13.346  13.414
24385W        W96799  18.252  37.428  12.483
24386W        W96800   2.778   0.935   0.906
24387W        W96801   5.315   7.287  13.438
24388W        W96802   5.698  43.830  13.462
24389W        W96803  38.472  31.910   0.781
24390W        W96804   7.770   9.333   3.238
24391W        W96805  22.163  25.014  12.986
24392W        W96806  25.058  17.625   0.341
24393W        W96807  19.068   4.395   0.436
24394W        W96808   4.718   7.235  12.402
24395W        W96809  14.702  25.666   2.378
24396W        W96810  27.092   8.748  11.054
24397W        W96811   4.867  29.965   4.330
24398W        W96812  36.489   4.432   3.219
24399W        W96813  33.885  18.206   1.250
24400W        W96814   2.387  24.115   0.966
24401W        W96815  25.172  41.004   1.213
24402W        W96816  36.518  15.635   0.764
24403W        W96817  37.888  12.186  12.837
24404W        W96818  16.163   5.426  12.385
24405W        W96819  13.653  24.988  14.299
24406W        W96820  40.435  40.016   4.716
24407W        W96821  18.629  27.541  11.477
24408W        W96822  40.838  43.832  13.825
24409W        W96823   9.881  28.996  12.885
24410W        W96824  25.189   3.914   1.433
24411W        W96825  13.776  40.401   3.685
24412W        W96826  32.123  34.018  13.830
24413W        W96827  27.461  18.748   3.316
24414W        W96828  21.108  37.544   2.778
24415W        W96829  34.403   0.825  13.496
24416W        W96830  32.566  37.956  14.390
24417W        W96831  14.646  10.159   0.361
24418W        W96832  20.220  38.866   1.267
24419W        W96833   6.355   3.370  10.573
24420W        W96834  16.663  19.748   9.569
24421W        W96835  29.112  11.210  11.887
24422W        W96836  12.742   7.815  14.018
24423W        W96837  40.415  30.050  12.508
24424W        W96838   0.418  38.030   1.852
24425W        W96839  39.958  42.391   0.285
24426W        W96840  42.001   1.481   0.445
24427W        W96841   0.275  20.695   1.412
24428W        W96842  24.981  18.279  12.465
24429W        W96843  28.672  25.704   4.743
24430W        W96844   6.710  32.506  14.851
24431W        W96845   1.375  44.958   0.366
24432W        W96846  16.316  36.399  12.503
24433W        W96847  44.928  13.767   0.473
24434W        W96848  15.720  11.161  13.849
24435W        W96849  27.121  18.694   2.254
24436W        W96850  41.963  38.386  12.001
24437W        W96851   3.792  16.657   2.819
24438W        W96852  21.257   8.798   1.780
24439W        W96853   6.233  41.034  12.987
24440W        W96854  32.038  18.723   0.418
24441W        W96855   5.690  42.368  12.017
24442W        W96856  35.009   0.781   9.928
24443W        W96857  21.242  26.600  13.410
24444W        W96858  10.372  23.023   1.919
24445W        W96859  41.962  28.998  14.313
24446W        W96860  36.581  38.029   4.341
24447W        W96861  37.365  35.532   5.225
24448W        W96862  26.511  36.044  14.890
24449W        W96863  39.849  23.541  12.376
24450W        W96864  25.514  20.554  13.462
24451W        W96865  35.023  26.564   3.768
24452W        W96866  44.829  22.143   2.288
24453W        W96867  13.656  42.032   4.259
24454W        W96868  37.038  31.099   0.435
24455W        W96869   0.374   6.264   1.264
24456W        W96870  20.684  27.538   4.676
24457W        W96871  43.960  29.014  10.988
24458W        W96872  33.909  16.201  12.342
24459W        W96873  13.148  20.039  14.783
24460W        W96874  25.056  19.276  13.029
24461W        W96875  33.546   3.910  11.938
24462W        W96876   6.738  27.452  11.108
24463W        W96877  25.714  41.972   4.831
24464W        W96878  19.593  42.917  12.035
24465W        W96879  10.725   3.323  11.077
24466W        W96880   4.439   5.292  14.902
24467W        W96881  39.486  43.768   2.710
24468W        W96882  25.705  22.643  11.955
24469W        W96883  24.119  39.932   3.164
24470W        W96884  36.935  33.539  12.547
24471W        W96885  15.193  11.202   0.465
24472W        W96886  26.580   3.351   1.905
24473W        W96887   9.859  30.582   1.725
24474W        W96888   6.372  33.423   2.882
24475W        W96889   3.274   0.821  11.455
24476W        W96890   8.297  35.030   3.231
24477W        W96891   7.289   7.905  14.348
24478W        W96892  39.971  10.860   2.885
24479W        W96893  39.509  20.663  10.942
24480W        W96894  30.650  43.950  10.427
24481W        W96895   2.726  15.189   4.208
24482W        W96896   0.352   4.909   1.899
24483W        W96897  23.130  34.561  14.012
24484W        W96898  43.407  32.991  13.482
24485W        W96899   0.368  15.714  10.474
24486W        W96900  10.335  15.258  12.825
24487W        W96901  17.783  10.342  14.018
24488W        W96902   4.751  39.925  12.992
24489W        W96903  13.821  28.068   1.898
24490W        W96904  11.368   0.306   1.834
24491W        W96905  25.567   2.748  12.992
24492W        W96906   4.346  27.005  14.858
24493W        W96907  39.465  23.118  13.388
24494W        W96908   9.714  26.468   4.250
24495W        W96909   8.742   4.314  13.495
24496W        W96910  11.301  32.117  12.500
24497W        W96911  18.128  18.247   3.188
24498W        W96912  20.222  36.376  13.002
24499W        W96913  29.600  24.553  14.024
24500W        W96914   4.359   7.308   3.279
24501W        W96915   0.492  22.598  12.448
24502W        W96916   1.251  18.247   1.824
24503W        W96917  39.404   8.351  12.402
24504W        W96918  34.989  32.499  12.349
24505W        W96919   5.412  20.128  10.984
24506W        W96920  30.965  30.495  11.544
24507W        W96921   5.262  43.892  11.488
24508W        W96922  40.920  14.133  14.412
24509W        W96923  17.098  29.175  13.953
24510W        W96924   8.671  16.684  11.019
24511W        W96925   0.319   4.396  13.413
24512W        W96926  33.091   7.379   3.242
24513W        W96927  21.221  20.699  14.348
24514W        W96928  32.127  35.912  12.844
24515W        W96929  36.395  44.308  13.860
24516W        W96930  28.558  32.487  13.805
24517W        W96931   6.820  33.097   0.304
24518W        W96932   0.297  28.149  14.980
24519W        W96933   0.913  33.467   1.412
24520W        W96934  18.758   0.327   4.768
24521W        W96935  17.231  36.026   0.790
24522W        W96936  21.127  27.959   0.388
24523W        W96937  41.967  35.106   4.117
24524W        W96938  23.642   4.850   2.845
24525W        W96939  30.442  33.452  13.814
24526W        W96940  16.096   3.398  14.791
24527W        W96941   9.191  20.746  14.477
24528W        W96942  29.938  39.542  14.916
24529W        W96943   6.842  41.312  12.033
24530W        W96944   4.413  17.732   4.682
24531W        W96945  41.297   8.815  13.983
24532W        W96946  24.620  37.936  13.422
24533W        W96947   2.341  26.485   2.255
24534W        W96948  34.102  31.518  11.608
24535W        W96949  18.612   9.342   3.155
24536W        W96950  37.043  17.687   0.793
24537W        W96951  24.150  26.063  14.891
24538W        W96952  33.398  28.593   4.186
24539W        W96953   1.833  36.380   1.751
24540W        W96954  17.081  42.406  14.775
24541W        W96955  36.984  17.682  10.586
24542W        W96956   2.919  13.333   0.821
24543W        W96957  23.675  30.054   1.343
24544W        W96958  44.872  24.974  11.380
24545W        W96959  31.406  21.060  13.881
24546W        W96960  13.713  34.397  10.611
24547W        W96961   8.189  36.948  11.926
24548W        W96962   6.340  27.172   3.710
24549W        W96963  29.470  24.602  11.062
24550W        W96964  16.675  26.124   1.785
24551W        W96965  23.569  44.273  12.346
24552W        W96966  25.013  27.563   2.407
24553W        W96967  19.095  29.061   1.927
24554W        W96968  44.789   7.262  13.887
24555W        W96969  10.200  31.525   4.304
24556W        W96970  14.658  33.594  13.991
24557W        W96971  18.680  29.431   4.647
24558W        W96972   5.700   6.853   4.276
24559W        W96973  11.190  22.103  14.488
24560W        W96974  42.910  27.164   1.355
24561W        W96975  26.035   2.416  14.765
24562W        W96976   0.839   0.889   1.848
24563W        W96977  43.402  21.245   4.610
24564W        W96978  33.129  28.050  10.408
24565W        W96979  16.295  37.032   1.344
24566W        W96980  11.702  36.855  10.923
24567W        W96981  23.713   0.895   2.272
24568W        W96982  24.508   6.852   0.330
24569W        W96983  30.134  11.626  10.476
24570W        W96984  36.856  32.114  10.567
24571W        W96985  38.979  43.922   3.194
24572W        W96986   1.251   5.873   3.209
24573W        W96987  31.504  24.721  10.899
24574W        W96988  10.326  41.317   3.850
24575W        W96989  13.208  41.378   3.218
24576W        W96990  37.476  26.156   1.907
24577W        W96991  38.901  42.460  14.342
24578W        W96992  34.930   2.391   2.838
24579W        W96993  14.249  35.956   3.849
24580W        W96994   8.857  34.603   2.181
24581W        W96995  39.479  33.461  12.873
24582W        W96996  29.142  43.324  13.969
24583W        W96997  29.059  40.496   4.714
24584W        W96998  32.893  35.579   3.187
24585W        W96999  36.850   2.422  10.432
24586W        W97000  27.947  23.158  10.479
24587W        W97001  33.506  23.135   4.669
24588W        W97002   4.830  24.668  13.864
24589W        W97003  15.810  17.701   3.844
24590W        W97004  27.958  14.654  12.535
24591W        W97005  13.197  16.658  12.423
24592W        W97006  26.483  27.642   1.740
24593W        W97007  20.685  40.351  13.925
24594W        W97008  42.428   9.790  14.454
24595W        W97009  23.240  10.348  12.406
24596W        W97010  40.378   1.308   2.680
24597W        W97011  11.261  13.185  12.987
24598W        W97012  28.992  19.730  12.079
24599W        W97013   2.266  22.167   4.617
24600W        W97014   3.786  19.239   1.257
24601W        W97015  43.368  31.573   3.695
24602W        W97016  37.025  27.669   0.867
24603W        W97017  35.897  17.171  14.291
24604W        W97018  20.038  19.560  10.443
24605W        W97019   3.337  38.455  13.428
24606W        W97020  43.970  10.788  13.023
24607W        W97021  22.613  13.190  10.527
24608W        W97022  35.911  16.757  14.331
24609W        W97023  10.758  27.560   3.841
24610W        W97024  13.223  43.868   0.732
24611W        W97025  12.754  27.169   2.725
24612W        W97026  15.138  42.869  13.972
24613W        W97027  33.898   3.866  14.856
24614W        W97028  34.885   5.339   0.910
24615W        W97029  38.327  30.155   0.899
24616W        W97030  31.448   0.374   3.282
24617W        W97031  34.550   8.715   2.691
24618W        W97032  34.046  16.794   4.677
24619W        W97033   4.728  43.484  13.796
24620W        W97034   6.755   0.916   1.257
24621W        W97035  34.994   0.369  11.072
24622W        W97036  37.536  17.230  12.406
24623W        W97037  33.446  32.567  13.871
24624W        W97038  10.169   9.253   2.787
24625W        W97039  12.827   9.746  13.376
24626W        W97040  22.006   3.391   1.799
24627W        W97041  42.879  44.939   0.308
24628W        W97042   2.298  16.577   1.928
24629W        W97043  32.632   7.213  13.478
24630W        W97044   2.851   7.235   2.319
24631W        W97045  40.863  28.062   3.646
24632W        W97046  31.440  16.107  14.975
24633W        W97047  18.736  16.131  11.029
24634W        W97048  38.877   4.837   0.469
24635W        W97049   2.760   1.935  13.399
24636W        W97050  38.011  18.713   2.848
24637W        W97051   8.275  18.230   3.246
24638W        W97052  11.793  10.321  12.538
24639W        W97053  20.549  16.210  14.484
24640W        W97054  11.735  19.564  14.511
24641W        W97055  16.786  13.313  12.481
24642W        W97056  22.184  27.500   4.641
24643W        W97057   7.346  23.535   2.800
24644W        W97058  39.353  13.745  10.911
24645W        W97059  33.978  35.887   4.118
24646W        W97060  40.419  17.766   3.796
24647W        W97061  16.756  28.019   1.735
24648W        W97062  27.013  39.327   2.665
24649W        W97063   4.207  17.711   2.835
24650W        W97064   6.207   0.888  11.387
24651W        W97065  41.818  21.104  10.938
24652W        W97066  19.257  33.930   0.955
24653W        W97067  18.576  39.862  10.608
24654W        W97068  30.483  17.620  10.412
24655W        W97069  18.183  17.264   2.671
24656W        W97070   1.431   0.391  13.399
24657W        W97071  18.259  42.849  13.489
24658W        W97072   5.236  33.473   2.735
24659W        W97073  31.529  37.889   1.258
24660W        W97074  37.562  41.797  12.825
24661W        W97075   5.282   8.299   1.255
24662W        W97076   7.867   3.821  11.097
24663W        W97077  35.905  10.341  14.898
24664W        W97078  35.421   8.236   3.337
24665W        W97079  42.465  32.584  13.862
24666W        W97080  19.248  28.678   1.827
24667W        W97081  25.559  36.479  10.599
24668W        W97082  29.983  43.294   4.723
24669W        W97083  43.840  20.704  14.796
24670W        W97084  14.758  42.980   2.230
24671W        W97085  21.574   3.334  11.856
24672W        W97086  36.391  10.711   4.342
24673W        W97087   5.844  42.777  14.796
24674W        W97088  27.531  28.982  10.423
24675W        W97089  16.655  20.065  12.955
24676W        W97090  36.892  25.692  10.977
24677W        W97091  30.440  37.943   5.161
24678W        W97092  10.835  24.673  14.275
24679W        W97093  44.005  37.571   2.282
24680W        W97094  30.613   3.862   1.825
24681W        W97095  29.529  18.172   3.692
24682W        W97096   6.813   2.962   1.446
24683W        W97097  33.527  29.046   4.215
24684W        W97098  25.626  42.818   2.722
24685W        W97099   8.345  41.490  13.010
24686W        W97100   3.457  30.089  11.912
24687W        W97101   9.194  14.175  13.479
24688W        W97102  28.562  32.990  14.883
24689W        W97103  26.635  27.966   0.456
24690W        W97104  17.625  15.243   1.357
24691W        W97105  22.125  26.201   2.796
24692W        W97106  21.030  15.259  14.933
24693W        W97107  27.104  20.196   0.967
24694W        W97108  44.911  24.540   4.614
24695W        W97109  16.153  34.056   0.900
24696W        W97110   9.206  36.898   2.200
24697W        W97111  40.355   2.333  11.477
24698W        W97112  28.930  36.002  10.541
24699W        W97113  22.717  34.512   0.886
24700W        W97114  11.662  11.340   3.339
24701W        W97115   9.278   0.448   4.118
24702W        W97116  39.400  12.818   0.781
24703W        W97117  14.622   4.431   0.733
24704W        W97118  19.608  14.747  12.826
24705W        W97119  11.717  38.546   3.380
24706W        W97120   4.388  22.208  11.418
24707W        W97121  44.468  42.839   1.698
24708W        W97122  28.035  22.657  14.934
24709W        W97123   0.970  19.763  14.813
24710W        W97124  33.577  25.683   2.691
24711W        W97125   9.327  14.179   2.371
24712W        W97126  27.954  43.433   3.684
24713W        W97127  18.267  23.107  12.086
24714W        W97128  12.149  20.653  11.374
24715W        W97129  15.657   5.825  11.380
24716W        W97130  42.958  37.878  11.001
24717W        W97131   8.277   3.347  10.453
24718W        W97132  36.904  27.513   1.709
24719W        W97133  35.046   2.892  13.894
24720W        W97134  36.906  38.443   2.249
24721W        W97135  28.583  39.493   4.835
24722W        W97136  17.166  28.064   3.757
24723W        W97137  38.012  24.085  11.049
24724W        W97138  18.057  43.828  13.973
24725W        W97139  29.495  39.944   1.276
24726W        W97140   8.355  16.602   1.247
24727W        W97141  24.050   0.938  11.488
24728W        W97142  23.128  36.499   0.471
24729W        W97143  15.114  11.135  11.902
24730W        W97144  20.251   8.394  12.416
24731W        W97145  19.207   0.923   4.817
24732W        W97146  34.997   4.810   0.376
24733W        W97147  20.607  36.561   3.669
24734W        W97148  43.873   1.393  10.505
24735W        W97149  15.823  19.239   5.192
24736W        W97150  43.828  34.599  14.405
24737W        W97151  20.070  31.464  10.982
24738W        W97152   5.235  44.967  14.381
24739W        W97153  21.048  43.881  14.397
24740W        W97154  39.487  26.102   3.311
24741W        W97155  11.320  33.526  10.473
24742W        W97156   2.725   3.852   2.873
24743W        W97157  40.001  34.568  11.049
24744W        W97158  29.630   2.772  14.929
24745W        W97159  40.502  34.014  12.919
24746W        W97160   0.327  37.928  14.338
24747W        W97161  40.348  44.784  12.563
24748W        W97162  41.329  38.034   3.821
24749W        W97163  24.096  20.209  11.447
24750W        W97164  34.112   9.780   4.236
24751W        W97165  19.576  10.647   0.458
24752W        W97166  14.607  41.969   4.344
24753W        W97167  34.886   3.369  13.904
24754W        W97168  23.027  31.941  10.626
24755W        W97169   8.815  41.520  10.430
24756W        W97170  31.115  38.486   1.391
24757W        W97171  39.021  34.460   3.271
24758W        W97172  14.286  40.311  11.382
24759W        W97173   1.345  29.434   2.810
24760W        W97174  26.144   5.842  10.970
24761W        W97175  43.857   6.760   3.212
24762W        W97176   3.952   8.789   1.775
24763W        W97177  29.122  22.562   2.867
24764W        W97178  43.380  21.515   3.671
24765W        W97179   1.798  10.789  10.626
24766W        W97180  37.925  20.122   1.811
24767W        W97181   5.252  33.991   3.792
24768W        W97182  10.823  21.068  13.997
24769W        W97183  22.228  17.066   2.759
24770W        W97184  44.451  24.588   1.282
24771W        W97185   8.214  18.261   4.124
24772W        W97186   9.310  44.991  11.927
24773W        W97187  12.633  36.405  13.041
24774W        W97188  17.128  27.669   0.938
24775W        W97189   7.249  29.582  13.896
24776W        W97190  15.743  15.616   0.331
24777W        W97191  29.508   4.767   5.182
24778W        W97192   4.431  20.563  11.040
24779W        W97193  30.572  28.529   1.382
24780W        W97194  24.585  11.680   3.229
24781W        W97195  42.287  25.039   0.440
24782W        W97196  42.509  12.844  13.862
24783W        W97197  12.677  14.640  13.863
24784W        W97198  17.613  10.353   4.234
24785W        W97199  25.624  12.323  13.376
24786W        W97200  21.157   3.291  11.481
24787W        W97201  34.465  10.721   1.412
24788W        W97202  16.230  34.439  12.340
24789W        W97203   8.179  44.850  12.055
24790W        W97204   2.404  32.920  14.357
24791W        W97205   6.237   4.844   1.242
24792W        W97206  25.583  23.128  14.866
24793W        W97207   1.402   2.326  10.987
24794W        W97208  34.428  13.714   4.811
24795W        W97209  39.027   0.490   2.790
24796W        W97210  11.851  43.881  12.456
24797W        W97211   0.902  38.955   2.387
24798W        W97212  37.984  13.753  10.500
24799W        W97213  18.143  27.171   3.633
24800W        W97214  34.902  39.893  11.023
24801W        W97215  17.293  27.989  11.122
24802W        W97216   2.459  43.295  14.381
24803W        W97217  40.828  28.932   1.410
24804W        W97218  19.593  27.523   3.209
24805W        W97219  42.002  10.147   0.817
24806W        W97220  19.051   8.877  12.513
24807W        W97221  12.185  16.800   3.161
24808W        W97222  38.379  42.919   0.789
24809W        W97223  24.066  41.357  14.341
24810W        W97224  27.474  25.513   2.754
24811W        W97225  41.415  31.054   5.213
24812W        W97226  22.218  20.651   4.327
24813W        W97227   9.163  10.835   4.329
24814W        W97228  32.503  30.572   1.860
24815W        W97229  35.925  41.336  11.590
24816W        W97230  33.418  44.448   2.239
24817W        W97231  35.502  16.724   1.844
24818W        W97232   0.349   6.271  14.346
24819W        W97233  41.500  26.543  12.931
24820W        W97234  36.047   1.247   1.358
24821W        W97235  29.098   1.882   0.884
24822W        W97236  12.219  39.981   0.448
24823W        W97237  22.227  36.011   1.365
24824W        W97238  19.144  44.283   2.863
24825W        W97239  40.053  44.496  14.007
24826W        W97240  26.037  30.457  11.470
24827W        W97241  31.009  11.322  10.417
24828W        W97242  33.462  11.357  11.489
24829W        W97243   6.737   3.942   0.300
24830W        W97244   8.706  32.001  14.022
24831W        W97245   0.463  41.988  10.919
24832W        W97246  18.643  22.638   0.439
24833W        W97247  17.100  24.594   0.786
24834W        W97248  16.754  10.361   3.727
24835W        W97249  32.634  34.019  14.795
24836W        W97250  14.775  20.236   9.490
24837W        W97251  44.902  44.912   4.189
24838W        W97252  26.073  15.208  13.021
24839W        W97253  35.062  26.182  14.420
24840W        W97254  41.005   6.703  10.493
24841W        W97255   4.307   8.383  10.470
24842W        W97256   3.323  24.000  14.277
24843W        W97257  15.606  22.619  10.623
24844W        W97258  17.741   0.946  14.028
24845W        W97259  31.140  38.447  11.561
24846W        W97260  18.711  19.057  14.397
24847W        W97261  21.236  34.378  13.398
24848W        W97262  12.158  29.153   2.271
24849W        W97263  22.530  19.627  10.058
24850W        W97264  34.377   3.826  11.489
24851W        W97265   1.878  26.686  14.871
24852W        W97266  25.038  26.081  14.923
24853W        W97267  14.138  27.071  14.371
24854W        W97268   5.264  10.845   2.850
24855W        W97269   4.758  14.236  11.559
24856W        W97270  32.036   1.865  10.458
24857W        W97271  19.166   2.293  13.825
24858W        W97272  18.726  42.436   9.602
24859W        W97273  40.987  15.291  11.530
24860W        W97274  24.498  24.672  14.489
24861W        W97275   0.919   9.346  14.026
24862W        W97276  36.425  33.474  11.413
24863W        W97277  11.627  44.359   4.157
24864W        W97278  30.630  26.966  13.798
24865W        W97279   9.763  31.551   1.878
24866W        W97280  40.047  34.377  12.839
24867W        W97281  30.047  24.509   2.180
24868W        W97282  27.569  40.468   1.299
24869W        W97283  19.596  42.300   1.285
24870W        W97284  14.275   8.681   3.227
24871W        W97285  30.531  31.950   0.739
24872W        W97286  28.975  13.140  14.351
24873W        W97287  20.066  37.431   2.178
24874W        W97288  44.410  27.525  13.456
24875W        W97289  15.238  38.035   1.883
24876W        W97290  17.221   0.943  10.408
24877W        W97291  25.125  39.395   2.791
24878W        W97292  30.039  21.726   3.194
24879W        W97293   1.739  35.098   4.747
24880W        W97294  24.548  12.268  13.443
24881W        W97295   4.830   1.372  12.354
24882W        W97296  38.868  28.516   3.754
24883W        W97297  35.055  44.766  13.314
24884W        W97298  30.014  43.905   1.317
24885W        W97299  34.603  25.680   4.605
24886W        W97300  41.303   8.762  12.527
24887W        W97301  30.998  15.731  14.431
24888W        W97302  33.388  20.128   3.207
24889W        W97303   6.785  16.681  12.895
24890W        W97304  24.200  29.459  13.854
24891W        W97305  19.636  30.011  13.352
24892W        W97306  12.151  18.689  12.513
24893W        W97307  11.253   5.872  11.030
24894W        W97308  41.514   6.905   3.225
24895W        W97309   2.890  36.901   2.319
24896W        W97310  34.904  37.500  14.462
24897W        W97311   7.294  30.064   4.286
24898W        W97312  38.524  36.851  13.873
24899W        W97313  23.571   7.280   0.842
24900W        W97314  38.071  38.923  10.589
24901W        W97315  27.038  10.187  12.400
24902W        W97316   7.196   6.823  10.912
24903W        W97317  34.884  28.599  13.464
24904W        W97318  11.231  32.403  12.356
24905W        W97319  38.434   8.881   1.838
24906W        W97320  38.993  44.313   5.091
24907W        W97321  20.255  32.580  11.038
24908W        W97322  13.846   1.315  11.480
24909W        W97323  37.576  39.056   1.430
24910W        W97324   3.320  16.792  13.943
24911W        W97325  33.907  29.566  12.053
24912W        W97326   6.862  21.247  13.894
24913W        W97327  38.354  26.052  10.975
24914W        W97328  13.842   1.796  12.478
24915W        W97329  44.910  39.857  11.404
24916W        W97330   2.756  15.314   1.843
24917W        W97331  30.564  26.005  13.064
24918W        W97332   4.428   7.181  11.077
24919W        W97333  23.165  41.331  13.425
24920W        W97334   0.963  27.599   1.757
24921W        W97335  28.509  37.525   3.747
24922W        W97336  28.539  42.309   0.903
24923W        W97337  43.447  15.215  10.969
24924W        W97338  23.238  23.030  14.346
24925W        W97339  21.062   5.219  11.418
24926W        W97340  16.301  36.353  14.891
24927W        W97341   1.797  20.082   3.352
24928W        W97342  33.409   9.725   3.204
24929W        W97343  10.327  30.978   2.784
24930W        W97344  17.304   2.920  12.484
24931W        W97345  10.246  42.472  12.874
24932W        W97346  31.533   5.930  11.502
24933W        W97347   3.236  32.405  11.491
24934W        W97348  39.361  32.626  14.437
24935W        W97349  24.692  26.490  11.044
24936W        W97350  43.337   2.740  14.324
24937W        W97351   0.948  11.703   0.808
24938W        W97352   3.264   7.178   4.264
24939W        W97353  31.945   0.790  12.485
24940W        W97354   6.842   7.407   1.211
24941W        W97355   4.356  39.357   1.879
24942W        W97356  37.581  29.962  13.007
24943W        W97357  25.088  34.492   3.833
24944W        W97358  20.622  36.443  14.317
24945W        W97359  24.530  10.279  12.934
24946W        W97360  35.495  23.550  11.509
24947W        W97361  38.936   5.701  11.117
24948W        W97362  35.051   7.305   3.284
24949W        W97363  25.972  14.260  14.777
24950W        W97364  27.953  12.304   4.241
24951W        W97365   7.271   5.874  13.849
24952W        W97366   8.807  41.904  14.337
24953W        W97367  32.913  30.925   3.699
24954W        W97368  33.410  13.724   0.319
24955W        W97369  37.417   0.814  12.930
24956W        W97370  27.121  29.439   1.246
24957W        W97371  28.534  37.360   4.738
24958W        W97372  10.758  36.572   0.377
24959W        W97373  38.352   6.699   4.209
24960W        W97374  24.617  16.249  13.019
24961W        W97375   0.256  35.906  13.061
24962W        W97376  41.371  36.964   1.733
24963W        W97377  33.976  17.198  13.936
24964W        W97378   4.865  44.298   1.915
24965W        W97379  34.887  41.524   4.636
24966W        W97380   8.364  33.413   4.669
24967W        W97381   6.226  33.613  13.324
24968W        W97382   5.834  16.266  13.034
24969W        W97383   9.809   7.403  11.045
24970W        W97384  19.619  36.942  13.989
24971W        W97385  27.541   2.764  11.021
24972W        W97386   0.455  15.749   4.298
24973W        W97387  41.426  18.278   4.203
24974W        W97388  44.501  31.441  14.382
24975W        W97389  17.114   1.258  10.903
24976W        W97390  27.072  22.715  11.388
24977W        W97391   7.685  20.599  14.477
24978W        W97392  25.039  25.559   2.837
24979W        W97393   2.411  15.178  10.456
24980W        W97394   2.365  43.453   0.887
24981W        W97395  19.088  30.034  14.960
24982W        W97396   9.353   7.186  11.382
24983W        W97397  27.187  31.081  10.438
24984W        W97398  37.486  20.599  11.469
24985W        W97399  43.473   5.776   4.715
24986W        W97400  13.627  32.140  12.441
24987W        W97401  34.078   3.370   4.305
24988W        W97402  39.900  43.991   2.858
24989W        W97403   7.817  42.820   4.224
24990W        W97404  12.704   7.681   0.375
24991W        W97405  40.348  29.984  10.942
24992W        W97406  44.266  18.084  10.548
24993W        W97407  43.500  26.132   2.219
24994W        W97408   2.743  34.075   4.599
24995W        W97409  13.714  13.785   3.751
24996W        W97410   7.893  13.727  11.929
24997W        W97411   2.445  32.448   4.801
24998W        W97412  35.083  36.984  10.408
24999W        W97413  41.906  43.801  11.432
25000W        W97414  25.983  27.671  11.095
25001W        W97415  16.587  27.157  10.550
25002W        W97416   7.266   4.914   2.681
25003W        W97417  34.971  10.674   1.313
25004W        W97418  32.594   4.732   4.821
25005W        W97419   3.314   8.350  11.882
25006W        W97420   3.833  30.419  12.475
25007W        W97421  12.154  11.763   0.782
25008W        W97422  15.815  29.932  12.881
25009W        W97423  30.443  18.607   5.198
25010W        W97424  20.594  10.271  13.347
25011W        W97425  20.112  40.370   4.743
25012W        W97426  19.201  22.731   0.889
25013W        W97427   3.379   7.332   3.837
25014W        W97428   9.718  43.381  11.008
25015W        W97429   8.253  32.943   2.385
25016W        W97430  35.857   0.286   0.347
25017W        W97431  33.953   8.679   4.794
25018W        W97432  14.697  23.070   2.751
25019W        W97433  15.729   0.770  14.345
25020W        W97434  25.546  43.007  11.055
25021W        W97435  33.589  37.060  12.532
25022W        W97436  33.084   3.905   2.853
25023W        W97437  17.121  41.428  12.519
25024W        W97438   5.888  16.586  14.403
25025W        W97439  42.381  12.133   3.705
25026W        W97440  15.677  23.204  14.336
25027W        W97441  21.702   1.282  14.908
25028W        W97442  26.698  41.869  10.565
25029W        W97443  43.393  11.789   9.935
25030W        W97444   2.947  38.024  10.501
25031W        W97445  43.002   1.470   2.238
25032W        W97446   5.786  28.134   5.263
25033W        W97447  19.695  19.147   0.353
25034W        W97448  15.148  38.077   1.346
25035W        W97449   8.301  35.989   2.717
25036W        W97450  41.867  41.826   4.695
25037W        W97451  27.559  32.927   1.717
25038W        W97452   6.793  15.273   0.421
25039W        W97453  18.773  28.625  11.576
25040W        W97454  25.519  27.133   0.852
25041W        W97455   0.379  15.246  10.980
25042W        W97456   9.845  15.100  14.909
25043W        W97457   9.340   9.150   3.279
25044W        W97458  28.519  28.960   4.132
25045W        W97459  31.124   7.912   4.193
25046W        W97460  15.100  32.123   4.604
25047W        W97461  30.467  12.221  10.604
25048W        W97462  18.071  12.181   1.784
25049W        W97463  44.987  23.583   4.808
25050W        W97464  23.006   3.385   3.716
25051W        W97465  18.208   5.438  14.015
25052W        W97466  34.033   7.401   4.184
25053W        W97467  20.090   6.740   0.439
25054W        W97468   8.710   9.304   1.279
25055W        W97469   0.380   0.371   3.727
25056W        W97470  14.322  42.792  14.952
25057W        W97471  21.579  10.237  11.948
25058W        W97472  23.237  35.500  10.596
25059W        W97473   6.788  14.264   5.311
25060W        W97474   1.905   6.678   1.789
25061W        W97475  19.276  11.831   2.235
25062W        W97476  28.065   6.878  14.404
25063W        W97477  26.674  39.456   3.800
25064W        W97478  30.654  43.821  12.890
25065W        W97479   3.317  20.092   1.748
25066W        W97480  29.958  35.050  13.054
25067W        W97481  37.395  40.991  13.007
25068W        W97482  28.150  33.127  11.948
25069W        W97483  38.548  13.185   4.676
25070W        W97484  17.693   7.812   1.928
25071W        W97485  39.488  14.805   0.446
25072W        W97486  29.007  40.342  13.314
25073W        W97487  42.854   2.738   4.179
25074W        W97488  15.582   3.866  12.946
25075W        W97489  15.207  19.107   4.115
25076W        W97490  44.269   1.401  11.604
25077W        W97491   4.834  12.753  10.106
25078W        W97492  20.656  40.887   4.781
25079W        W97493  11.714  25.145   3.312
25080W        W97494  16.315  24.997  12.905
25081W        W97495  21.609   3.804   1.838
25082W        W97496  23.122  25.071   0.336
25083W        W97497  14.796   9.291   4.672
25084W        W97498  18.127  28.663   2.330
25085W        W97499  29.644  26.676   1.222
25086W        W97500   3.297  20.523  11.931
25087W        W97501  14.101  35.886   4.816
25088W        W97502  26.173  39.834  11.065
25089W        W97503  32.017  44.286   2.356
25090W        W97504  24.187   6.183   1.827
25091W        W97505  23.520   1.447   4.232
25092W        W97506  24.687   2.926  11.001
25093W        W97507  37.885  22.568   0.294
25094W        W97508   6.865  22.120  11.096
25095W        W97509  24.227   8.185   2.221
25096W        W97510  12.661   3.322  10.902
25097W        W97511  38.982   2.757  14.018
25098W        W97512  38.502  43.315   0.959
25099W        W97513   3.730  13.171   0.805
25100W        W97514  35.085  21.053  11.574
25101W        W97515  40.405   7.863   4.160
25102W        W97516   4.891  33.949   0.323
25103W        W97517   2.941   6.257   3.212
25104W        W97518  10.677  23.637  11.031
25105W        W97519   4.756  38.437  14.859
25106W        W97520  15.147  27.097  14.769
25107W        W97521  19.589  29.625  12.862
25108W        W97522  24.638  43.880   1.869
25109W        W97523  20.588  10.857   1.409
25110W        W97524   7.386  14.318   5.093
25111W        W97525  33.544  42.351  11.430
25112W        W97526  39.843  31.082  14.858
25113W        W97527  39.049  25.628  10.039
25114W        W97528  29.595   0.484  13.965
25115W        W97529  39.959  25.531   2.195
25116W        W97530  20.273   5.210   0.802
25117W        W97531  30.950  35.475   4.662
25118W        W97532  15.188  16.203   4.773
25119W        W97533  34.046   1.953   3.172
25120W        W97534  17.169  26.536   2.273
25121W        W97535  23.563  17.629   2.299
25122W        W97536  39.907   8.799  13.450
25123W        W97537  24.488  23.135   0.869
25124W        W97538   3.916  22.592   1.239
25125W        W97539  16.228  20.272  10.609
25126W        W97540   0.844   6.892  13.964
25127W        W97541  37.837   7.860  14.025
25128W        W97542   0.464  10.672  11.561
25129W        W97543  30.475   0.976   2.718
25130W        W97544  11.724   0.471  10.992
25131W        W97545  35.971  37.492  12.000
25132W        W97546   3.775  20.085   1.289
25133W        W97547  16.773  20.735  12.367
25134W        W97548  40.412  21.576   1.900
25135W        W97549  15.264  25.983   4.827
25136W        W97550  32.485  43.461  14.982
25137W        W97551   9.202  22.999  10.475
25138W        W97552  35.075  33.128  13.909
25139W        W97553   7.897  20.271  11.013
25140W        W97554  26.519  23.123   3.212
25141W        W97555  34.095  35.378  10.585
25142W        W97556  40.859  20.205   2.202
25143W        W97557  11.172  20.112  13.020
25144W        W97558   5.215   7.280  13.944
25145W        W97559  14.253  38.925   5.180
25146W        W97560   2.361  26.994   1.737
25147W        W97561  38.989  31.124   2.763
25148W        W97562   2.259   6.376   3.366
25149W        W97563  22.594  43.375   1.809
25150W        W97564  35.081  38.978  13.470
25151W        W97565  44.372  41.509  13.327
25152W        W97566  18.179  13.732   1.254
25153W        W97567  24.662  28.450  12.555
25154W        W97568   3.392   8.391   4.239
25155W        W97569   1.401  22.742   4.339
25156W        W97570  15.682  36.552   2.820
25157W        W97571  27.942  13.730   1.777
25158W        W97572  32.123  21.101   3.323
25159W        W97573  39.964  29.536   1.921
25160W        W97574  22.197  16.710   2.229
25161W        W97575  22.089  22.545   4.597
25162W        W97576   6.876  19.687   0.763
25163W        W97577  36.529  19.272  10.502
25164W        W97578  17.247  22.575   4.245
25165W        W97579  19.734   8.223  13.322
25166W        W97580  17.580  21.733  11.607
25167W        W97581  14.222   7.224   3.730
25168W        W97582  15.725  40.413  11.577
25169W        W97583   4.395  41.878  13.901
25170W        W97584  44.870  23.731  14.290
25171W        W97585   6.428  18.689   9.944
25172W        W97586  10.284  17.637   3.783
25173W        W97587  40.322   5.833   0.965
25174W        W97588  25.082  15.659   2.752
25175W        W97589  13.155  18.721   2.825
25176W        W97590  42.298   2.753  14.816
25177W        W97591   8.363  20.700  13.916
25178W        W97592  22.627  35.433   1.923
25179W        W97593  17.149  26.609   0.751
25180W        W97594   4.316  19.045  11.929
25181W        W97595   6.188  22.656  11.868
25182W        W97596   4.397  13.157   1.827
25183W        W97597  34.566   9.650  13.350
25184W        W97598   1.787  13.613  12.508
25185W        W97599  28.091  39.340   0.382
25186W        W97600  32.623  36.418  14.943
25187W        W97601  38.428  36.437  10.967
25188W        W97602  40.379  24.724  10.962
25189W        W97603  40.937  44.839  10.954
25190W        W97604  20.267  40.935   0.919
25191W        W97605  24.133  31.011   1.402
25192W        W97606  27.538  16.748  12.087
25193W        W97607  18.675  19.138  13.459
25194W        W97608  44.406  21.080   4.665
25195W        W97609   9.853   4.392  11.526
25196W        W97610   0.307   7.195   1.309
25197W        W97611   4.840  33.019  13.422
25198W        W97612  13.289   6.215  14.903
25199W        W97613  40.428  19.042   4.183
25200W        W97614   8.798  13.113   0.448
25201W        W97615  38.381  18.128   2.682
25202W        W97616  23.730  23.584  11.024
25203W        W97617  34.987  25.024   4.834
25204W        W97618  36.971  40.840   0.798
25205W        W97619  12.202   0.335   2.878
25206W        W97620   4.371  26.498   1.869
25207W        W97621  37.916  33.420  10.601
25208W        W97622   0.348  42.830   3.799
25209W        W97623   8.828   0.284   1.393
25210W        W97624  41.373  27.681   4.163
25211W        W97625   3.236  25.008   0.444
25212W        W97626   3.409  42.004  13.918
25213W        W97627  34.036  21.667   5.157
25214W        W97628  14.628  27.158   1.710
25215W        W97629  11.695  14.160  10.511
25216W        W97630  12.720  29.056  10.603
25217W        W97631  36.952  28.616   4.629
25218W        W97632  31.611  31.448  14.966
25219W        W97633  19.670  13.107  14.389
25220W        W97634  24.639  41.950   3.819
25221W        W97635  38.044  10.367  12.897
25222W        W97636   2.749  25.050  13.435
25223W        W97637   2.377  12.724   0.848
25224W        W97638  33.987   4.204   3.256
25225W        W97639  25.013   2.435  12.983
25226W        W97640  34.098  41.919   4.642
25227W        W97641   0.854  21.220   0.419
25228W        W97642  13.345  36.529   2.408
25229W        W97643  15.222  11.296   1.246
25230W        W97644  21.660  35.009   1.211
25231W        W97645  22.535  44.968   3.800
25232W        W97646  18.155   7.216  13.004
25233W        W97647  29.086  43.806   2.821
25234W        W97648  33.971  30.024  14.386
25235W        W97649   3.359   8.719  14.414
25236W        W97650  24.600  35.881   3.288
25237W        W97651  33.589   0.756   2.741
25238W        W97652  44.885  39.897  10.469
25239W        W97653  14.200   2.749  11.467
25240W        W97654  30.033  37.452   3.287
25241W        W97655  12.725  30.595   4.653
25242W        W97656  12.180   0.876   3.671
25243W        W97657  11.210   8.727  12.950
25244W        W97658  23.723  18.690  10.451
25245W        W97659   0.978  15.263  13.463
25246W        W97660   4.874  41.830  14.824
25247W        W97661   1.376  16.163   2.752
25248W        W97662  22.070  14.669  11.995
25249W        W97663  29.963  39.369   2.418
25250W        W97664  39.539  29.096  11.423
25251W        W97665  43.912  27.980   1.367
25252W        W97666   7.209  19.063   1.748
25253W        W97667   6.722  32.932   1.854
25254W        W97668   0.972  29.597  13.888
25255W        W97669  29.575  36.932  13.868
25256W        W97670  10.831  38.885  10.470
25257W        W97671  13.761  23.116  14.926
25258W        W97672  20.067   7.328  13.907
25259W        W97673   6.240   1.283   0.269
25260W        W97674  16.728  17.609  11.457
25261W        W97675   9.240  34.982   4.809
25262W        W97676   8.701  17.301  11.468
25263W        W97677  17.092  42.381   1.755
25264W        W97678   4.870  40.332   2.746
25265W        W97679  34.016  30.594  13.030
25266W        W97680  18.561  44.959  11.915
25267W        W97681  38.551   3.855   2.820
25268W        W97682  35.994  22.063  12.958
25269W        W97683  15.140  37.427  11.455
25270W        W97684  24.526  25.585  14.402
25271W        W97685   3.354  33.558  12.037
25272W        W97686  21.227  32.618  12.418
25273W        W97687  27.448  12.215   2.316
25274W        W97688  21.537  24.161  13.809
25275W        W97689  16.142  40.999  11.437
25276W        W97690   8.894  27.947  14.009
25277W        W97691   3.884  41.308  10.937
25278W        W97692  15.103  44.456   2.311
25279W        W97693  41.930   7.828   4.699
25280W        W97694   8.807  29.633   4.766
25281W        W97695   1.785  22.018   2.324
25282W        W97696  35.068  43.801   1.831
25283W        W97697   3.823  13.108   4.304
25284W        W97698  31.510  33.933  10.966
25285W        W97699  18.106  30.959  12.884
25286W        W97700  37.382  10.818  10.606
25287W        W97701  41.510  33.054  13.866
25288W        W97702  30.448  41.505   3.223
25289W        W97703   2.792  34.488  10.594
25290W        W97704  16.619  34.110  13.952
25291W        W97705   0.917  11.276   1.744
25292W        W97706  11.811   2.782   0.369
25293W        W97707   9.702  38.972  12.576
25294W        W97708  38.955  28.155  11.898
25295W        W97709  34.539  15.799  12.578
25296W        W97710  43.413  37.870  14.911
25297W        W97711   7.222   8.372   3.209
25298W        W97712   7.274   2.364   2.692
25299W        W97713  24.700  36.578  10.509
25300W        W97714  12.824  27.039   1.385
25301W        W97715  20.248   5.197   3.792
25302W        W97716  33.099  19.240   3.657
25303W        W97717  42.835  12.294  14.848
25304W        W97718  30.416  13.630  12.978
25305W        W97719  33.053  37.945  14.295
25306W        W97720  40.395  39.890  11.606
25307W        W97721  26.994  11.763   3.285
25308W        W97722  43.826  17.598  14.486
25309W        W97723  39.417  23.225  11.387
25310W        W97724   0.943  22.731   2.678
25311W        W97725   6.361   1.905   2.389
25312W        W97726   5.899   4.407   4.788
25313W        W97727  38.380  29.648  11.914
25314W        W97728   7.675   6.387   1.930
25315W        W97729  35.104  21.197  12.063
25316W        W97730  23.499  37.058  13.323
25317W        W97731  11.797  27.600  14.939
25318W        W97732  33.381  42.779   2.709
25319W        W97733  41.008  42.308  13.912
25320W        W97734  21.096  41.447   1.260
25321W        W97735   3.914  27.657   1.227
25322W        W97736  29.015  21.109   1.792
25323W        W97737  18.738  29.999  11.046
25324W        W97738  34.952   3.308   3.735
25325W        W97739  23.076  25.651  14.812
25326W        W97740  38.481   0.363   4.777
25327W        W97741  35.984   5.222   4.687
25328W        W97742  15.733   0.266   2.792
25329W        W97743  18.722   4.808   4.765
25330W        W97744  33.616   3.294   3.201
25331W        W97745  16.755  10.806   1.298
25332W        W97746  19.736  13.690  14.826
25333W        W97747  37.408   3.910  12.493
25334W        W97748   0.450  14.296   1.715
25335W        W97749  25.519  44.952  10.036
25336W        W97750  38.910   7.681  12.020
25337W        W97751  42.951  12.189  11.930
25338W        W97752  15.627  33.379   2.766
25339W        W97753   1.256  18.294   2.243
25340W        W97754  28.577  12.655  11.947
25341W        W97755  14.756  39.524  14.907
25342W        W97756  13.615  30.062   3.642
25343W        W97757   1.256  38.566  12.549
25344W        W97758  30.936   7.206  11.417
25345W        W97759  34.093  19.138   3.746
25346W        W97760  25.977  18.780  11.123
25347W        W97761  16.698  32.050  11.885
25348W        W97762   1.875  31.915   2.829
25349W        W97763  31.053  33.901  12.945
25350W        W97764  41.374  24.533  14.383
25351W        W97765  14.701  12.237  11.396
25352W        W97766  41.457   3.244   2.304
25353W        W97767  31.645  29.599  12.496
25354W        W97768  15.631  25.620  12.937
25355W        W97769   4.815   4.807  13.879
25356W        W97770  23.594  43.005  11.072
25357W        W97771  24.527  43.336   0.369
25358W        W97772  15.773  42.783   1.354
25359W        W97773  14.654  28.961   4.730
25360W        W97774  21.735  35.029  11.091
25361W        W97775   1.459  33.085   2.249
25362W        W97776   1.348  23.631  10.973
25363W        W97777  40.014  35.864   2.674
25364W        W97778  41.866  38.868  11.899
25365W        W97779  10.720  19.118  12.918
25366W        W97780   5.874  28.663  12.435
25367W        W97781  39.481  24.204   2.371
25368W        W97782  23.990  28.030  13.955
25369W        W97783  11.772  43.296  12.893
25370W        W97784  33.880  18.230   2.740
25371W        W97785  25.666  15.103  13.993
25372W        W97786   6.358  43.961  14.392
25373W        W97787  22.106  41.363  13.520
25374W        W97788   4.232   5.286   0.387
25375W        W97789   7.801  17.777  10.578
25376W        W97790  15.174   3.778   2.371
25377W        W97791  44.287   9.251   3.212
25378W        W97792  24.100  22.716   0.960
25379W        W97793  21.551  13.610  13.410
25380W        W97794  11.712  33.966   3.768
25381W        W97795  16.280  37.944   3.354
25382W        W97796  41.931  41.453   2.385
25383W        W97797   2.296  19.272  12.909
25384W        W97798  40.990  34.957  13.826
25385W        W97799  15.675  37.494  10.566
25386W        W97800  11.227  22.604   1.703
25387W        W97801   7.370  33.083  11.968
25388W        W97802   5.437  15.596   0.940
25389W        W97803   9.849  38.505  13.350
25390W        W97804  10.352   9.230   4.693
25391W        W97805   9.771  26.474  11.504
25392W        W97806  32.458  22.617   2.750
25393W        W97807  33.036  41.861   1.901
25394W        W97808   3.896  15.296  14.880
25395W        W97809  27.527   3.390  13.816
25396W        W97810  38.026  41.385   5.202
25397W        W97811  41.935  40.547   1.705
25398W        W97812  41.426  38.326  11.526
25399W        W97813  15.761  44.889   0.834
25400W        W97814  16.211  21.608  12.360
25401W        W97815   8.333   2.415   0.870
25402W        W97816  38.564  35.572  10.570
25403W        W97817  21.067  33.879  12.968
25404W        W97818   2.924  20.070   0.247
25405W        W97819  41.894  44.335  12.425
25406W        W97820  44.912  28.628  12.467
25407W        W97821  19.265  13.208  13.434
25408W        W97822  32.050  12.244   3.757
25409W        W97823  29.169  11.631  11.469
25410W        W97824   7.777  13.195  12.522
25411W        W97825  34.491  32.428   4.197
25412W        W97826  22.546   3.908  12.001
25413W        W97827  26.005  15.803   4.597
25414W        W97828  26.629  20.055   0.260
25415W        W97829  37.990  22.190  11.033
25416W        W97830  36.591  32.908  14.448
25417W        W97831   3.926  39.467   4.351
25418W        W97832  38.351  41.346   1.274
25419W        W97833  41.891  39.010  12.877
25420W        W97834  14.322  42.449  13.935
25421W        W97835   3.374  26.109   1.256
25422W        W97836   7.803   7.234   0.836
25423W        W97837  33.075  14.156  11.394
25424W        W97838  32.040  33.891  14.896
25425W        W97839   4.237  29.644  13.003
25426W        W97840  41.993  36.987   0.895
25427W        W97841  38.891  24.509  11.919
25428W        W97842   7.416  16.289  13.844
25429W        W97843  16.244  41.970   2.386
25430W        W97844  40.531   2.877  12.472
25431W        W97845   0.850  13.322   0.295
25432W        W97846  32.524  37.401  13.372
25433W        W97847  12.172   4.810   4.166
25434W        W97848  17.144  41.820  11.421
25435W        W97849  43.988  30.961   4.150
25436W        W97850  29.034   3.910   1.906
25437W        W97851  15.247  39.500   1.268
25438W        W97852  33.447  35.007  12.889
25439W        W97853  12.214  42.897  12.852
25440W        W97854  15.683  36.953  13.382
25441W        W97855  14.649   6.288  13.445
25442W        W97856  13.286  21.741   0.842
25443W        W97857  39.036   7.866  14.913
25444W        W97858  39.903  35.090  13.869
25445W        W97859  24.092   6.716   2.334
25446W        W97860  23.098   7.864  11.517
25447W        W97861  22.013   3.224   3.154
25448W        W97862  17.177  19.213  12.854
25449W        W97863  20.182  19.067   0.806
25450W        W97864   6.374  23.107   0.910
25451W        W97865  34.411  37.059  14.809
25452W        W97866  17.092  25.094  13.453
25453W        W97867  19.218  26.031   4.142
25454W        W97868  31.419  35.413   3.744
25455W        W97869  14.211  10.646  11.016
25456W        W97870   1.826   6.714  14.506
25457W        W97871   5.819  31.599  10.542
25458W        W97872   8.835  32.498   2.897
25459W        W97873  37.979  38.965   3.836
25460W        W97874   5.712  39.421  12.837
25461W        W97875  36.429  15.671   3.847
25462W        W97876  27.472  10.675  11.906
25463W        W97877  25.172  25.100   3.195
25464W        W97878  35.968   1.370  11.571
25465W        W97879  11.216  44.413  13.431
25466W        W97880   0.769   8.746   0.405
25467W        W97881  41.842  24.086   4.246
25468W        W97882  39.388  28.053  12.962
25469W        W97883   7.267   1.396  13.509
25470W        W97884  41.865   1.407   2.267
25471W        W97885  37.859  18.132   3.743
25472W        W97886  38.945   9.720   2.317
25473W        W97887  22.618  15.281   2.352
25474W        W97888   1.432  13.744   3.726
25475W        W97889  12.169   0.260  10.584
25476W        W97890  42.382  21.129   4.809
25477W        W97891  17.712  10.293  11.084
25478W        W97892  38.874  31.964  12.354
25479W        W97893  13.677  13.795  13.902
25480W        W97894   0.388  16.643   1.379
25481W        W97895  20.603  21.236   2.248
25482W        W97896   3.299   8.398  11.455
25483W        W97897  20.550  29.079   2.418
25484W        W97898  24.707  14.152   0.326
25485W        W97899  43.442  20.719   3.256
25486W        W97900  17.737  28.973   3.172
25487W        W97901   3.842   7.210  10.893
25488W        W97902  25.699  34.896  12.036
25489W        W97903  35.030   2.936   0.301
25490W        W97904  39.834  37.554  12.025
25491W        W97905  12.156  17.089  12.484
25492W        W97906  38.396  41.946  10.962
25493W        W97907   4.352   8.687   1.820
25494W        W97908  16.635   9.234  14.846
25495W        W97909  25.163  10.854   4.786
25496W        W97910   3.348   3.375  10.487
25497W        W97911  36.498  18.698  13.901
25498W        W97912  18.700  31.561  11.091
25499W        W97913  25.060   8.660   4.604
25500W        W97914  30.909  22.200   4.259
25501W        W97915  19.210  25.563   4.638
25502W        W97916  13.674  42.954   3.698
25503W        W97917  22.639  33.038  10.500
25504W        W97918  12.323   9.262  12.911
25505W        W97919   7.286  44.443   1.308
25506W        W97920  35.498   5.771   2.193
25507W        W97921   0.385  13.251  13.993
25508W        W97922  32.137  18.282  14.907
25509W        W97923  34.083  41.355   1.325
25510W        W97924  19.659  18.074   1.364
25511W        W97925   7.782  38.408  13.963
25512W        W97926  32.595   9.841   0.282
25513W        W97927  16.145  21.648  14.764
25514W        W97928  25.087   6.835  10.934
25515W        W97929  26.546  13.114   3.632
25516W        W97930  27.536  43.392  11.418
25517W        W97931  38.354  38.398   0.937
25518W        W97932  15.198  25.999   2.297
25519W        W97933  29.455  29.472   4.128
25520W        W97934  44.500  11.628   1.381
25521W        W97935  37.068  14.825  13.848
25522W        W97936  18.774  44.492   4.167
25523W        W97937  37.407   1.973  14.810
25524W        W97938   9.150  10.344  10.030
25525W        W97939  14.635  16.287   3.265
25526W        W97940  28.157  38.441  12.961
25527W        W97941  30.627   2.440  13.421
25528W        W97942  35.958  41.004  11.390
25529W        W97943  34.009  17.115   3.825
25530W        W97944  13.284  19.276  13.368
25531W        W97945  35.579  41.002   1.834
25532W        W97946   2.947  19.765  14.979
25533W        W97947  34.882   6.804  13.986
25534W        W97948  40.925  22.532  10.596
25535W        W97949   6.848   1.763   1.328
25536W        W97950   5.831  41.033   1.902
25537W        W97951  38.862  24.112  13.998
25538W        W97952  17.078  25.637  14.965
25539W        W97953  13.758  15.096   1.327
25540W        W97954   7.689  28.025   4.693
25541W        W97955   1.280  37.574   0.345
25542W        W97956  43.771  21.033  14.336
25543W        W97957  34.585   3.306   4.337
25544W        W97958  15.119  42.927   2.669
25545W        W97959  21.695  42.831  14.509
25546W        W97960  41.934  11.841   3.849
25547W        W97961  43.480  11.261  12.837
25548W        W97962  33.407  29.008  10.437
25549W        W97963  11.811  23.653  14.383
25550W        W97964  44.266   9.672  13.892
25551W        W97965  34.566  30.163   3.693
25552W        W97966  10.183  18.206   4.678
25553W        W97967  24.982  40.349   4.662
25554W        W97968  33.511  32.476  10.443
25555W        W97969  38.828  17.200  11.488
25556W        W97970  42.524  42.300   1.846
25557W        W97971   1.793   9.362  11.550
25558W        W97972  43.892  21.656   4.627
25559W        W97973  11.284  43.464   4.801
25560W        W97974  44.926  17.762   3.633
25561W        W97975   6.392  37.994  13.330
25562W        W97976   1.948  43.932  11.126
25563W        W97977  38.400  15.747   4.739
25564W        W97978  34.903  43.965   4.208
25565W        W97979  29.016  30.450   1.344
25566W        W97980  32.991   4.229   0.782
25567W        W97981  35.979  37.402   0.278
25568W        W97982  42.794  37.069   3.264
25569W        W97983  26.600   9.878   4.211
25570W        W97984  29.451  36.876  12.462
25571W        W97985   2.937  34.903  11.979
25572W        W97986  42.397   3.952  14.399
25573W        W97987  11.822  24.066   1.240
25574W        W97988  38.335  32.441   4.646
25575W        W97989  39.849  20.768   2.224
25576W        W97990  39.932  35.459  13.860
25577W        W97991  40.900  25.976   2.665
25578W        W97992  12.130  10.819   1.917
25579W        W97993   0.266  36.470  12.472
25580W        W97994  40.353  17.280   0.360
25581W        W97995  13.827  20.532   4.605
25582W        W97996  15.308   0.320  11.493
25583W        W97997  18.271  28.985  14.499
25584W        W97998  19.196  14.792  11.951
25585W        W97999  44.860  34.404  14.303
25586W        W98000  31.418  20.673   2.864
25587W        W98001  20.192  34.493  13.819
25588W        W98002   5.383  41.533  13.427
25589W        W98003  37.509   4.267   0.845
25590W        W98004  32.530  41.485  11.535
25591W        W98005  15.200   0.438   4.212
25592W        W98006  23.130   9.188   3.304
25593W        W98007  14.107  40.843  12.061
25594W        W98008   9.253  39.912  12.504
25595W        W98009  16.575  28.008   4.613
25596W        W98010  29.021   1.243  10.622
25597W        W98011  21.707  43.482  11.946
25598W        W98012  23.239  24.634   1.284
25599W        W98013  43.411  11.198  13.960
25600W        W98014  30.141   3.228   1.831
25601W        W98015  10.852  13.341  13.531
25602W        W98016  44.847  37.425   0.483
25603W        W98017  28.569  16.126   4.699
25604W        W98018  41.441  38.972   3.864
25605W        W98019  12.659  34.059   4.152
25606W        W98020   7.795   9.685   0.347
25607W        W98021  27.111  18.678  14.373
25608W        W98022  21.196  37.543   1.796
25609W        W98023  15.231  10.830   4.233
25610W        W98024  17.258  20.166  10.961
25611W        W98025   1.276  32.504   3.199
25612W        W98026  44.492  17.232   3.371
25613W        W98027  15.226  17.300  13.794
25614W        W98028  21.747   6.827  11.932
25615W        W98029  30.500  29.466  11.515
25616W        W98030  26.571  15.149  11.471
25617W        W98031  42.949  15.725   3.656
25618W        W98032  38.562  42.860  11.902
25619W        W98033  11.162  19.588   0.382
25620W        W98034  24.562   9.249   4.628
25621W        W98035  23.211   9.172  11.395
25622W        W98036  37.951   0.396  11.468
25623W        W98037  22.596   4.924   2.269
25624W        W98038  18.748  40.352   0.462
25625W        W98039   8.776   9.845   2.392
25626W        W98040   8.891   5.915  10.409
25627W        W98041  16.603  30.050  13.330
25628W        W98042  39.495  31.960  10.144
25629W        W98043  20.662  15.637   0.329
25630W        W98044   6.299   8.790   1.710
25631W        W98045  27.989  40.883  11.455
25632W        W98046  19.668  11.268  11.445
25633W        W98047  36.461  38.408  14.997
25634W        W98048  42.924  18.708   2.414
25635W        W98049  17.220   0.448   0.860
25636W        W98050  11.752   7.701   2.806
25637W        W98051  40.350  33.900   4.713
25638W        W98052  42.029  19.598  14.017
25639W        W98053  39.422  31.955   0.311
25640W        W98054  16.725  18.579  11.605
25641W        W98055   6.313  37.067   1.342
25642W        W98056  35.388  10.272   1.810
25643W        W98057  44.404  32.555   0.894
25644W        W98058   5.794   6.721  13.803
25645W        W98059   5.832  24.174  11.010
25646W        W98060  35.468  36.494  14.328
25647W        W98061  25.106  15.194  13.311
25648W        W98062  20.718  19.207  10.476
25649W        W98063  33.936   4.245   2.724
25650W        W98064  34.503  18.572   3.685
25651W        W98065   4.369  28.671   3.387
25652W        W98066  33.926  39.036  11.879
25653W        W98067  13.637  17.184   0.864
25654W        W98068   6.917  21.618   4.128
25655W        W98069  33.515  29.616  13.040
25656W        W98070  36.903  14.759  10.477
25657W        W98071  31.982  32.009   2.688
25658W        W98072  29.461  44.503   5.246
25659W        W98073  38.031  24.529   4.338
25660W        W98074  14.685   3.800  10.950
25661W        W98075  21.230  25.552   2.361
25662W        W98076   8.207  33.979  11.408
25663W        W98077  15.263  33.030  13.518
25664W        W98078  16.122  18.283   0.367
25665W        W98079  42.969  10.369  10.470
25666W        W98080  17.670  27.949  11.883
25667W        W98081  26.156  21.601  14.799
25668W        W98082  41.499  14.319   3.727
25669W        W98083  41.517  10.719  12.026
25670W        W98084  38.546  40.511   3.681
25671W        W98085  19.728  13.130   0.833
25672W        W98086   8.727  22.030   2.282
25673W        W98087  11.684  43.271   3.155
25674W        W98088   2.282   8.897  14.759
25675W        W98089  20.098   9.197   1.407
25676W        W98090  20.235  41.512  12.834
25677W        W98091   2.449  19.593   2.237
25678W        W98092  29.010   9.835  14.438
25679W        W98093  40.348  13.323  13.347
25680W        W98094   0.789  18.723  11.497
25681W        W98095  36.847  22.070   1.763
25682W        W98096  12.624   9.278   3.695
25683W        W98097   1.968  25.130  12.543
25684W        W98098  30.924  36.863   0.967
25685W        W98099  26.972   5.749  13.456
25686W        W98100  25.598   6.265   4.633
25687W        W98101   1.428  42.927   1.866
25688W        W98102  23.162  31.553  13.523
25689W        W98103  28.460  19.539  11.117
25690W        W98104  32.619  28.154  13.375
25691W        W98105   5.833  12.348  14.406
25692W        W98106   3.277  21.122   0.380
25693W        W98107   2.817  34.929   0.734
25694W        W98108  18.272  16.301   4.193
25695W        W98109   2.865  17.788   4.279
25696W        W98110  22.621  27.531   3.295
25697W        W98111  35.502   4.919  14.994
25698W        W98112   8.661  37.853  14.401
25699W        W98113  39.429   4.854   3.786
25700W        W98114   0.893   7.886   3.854
25701W        W98115  18.074  16.667  11.444
25702W        W98116  32.888  35.904   1.236
25703W        W98117  11.361  38.054   0.246
25704W        W98118  32.596   6.915   4.767
25705W        W98119  16.108  12.807   1.774
25706W        W98120   8.881  17.261  12.351
25707W        W98121  11.191  14.720  14.868
25708W        W98122  41.427   3.228  12.976
25709W        W98123   5.319   1.422  12.867
25710W        W98124  13.129   4.698  13.368
25711W        W98125  23.643  44.921   1.846
25712W        W98126  44.838  10.321  11.529
25713W        W98127  41.016   7.210  14.942
25714W        W98128  10.246  42.428   0.423
25715W        W98129  39.458  10.689  12.516
25716W        W98130  14.254  38.875  10.564
25717W        W98131   8.360  43.270  14.475
25718W        W98132  15.106  27.588   2.667
25719W        W98133   0.762   4.216   2.844
25720W        W98134  23.215  37.076  11.066
25721W        W98135  16.792  37.545   2.808
25722W        W98136   4.396  27.689   4.628
25723W        W98137  30.650   6.295  11.869
25724W        W98138  17.583  12.757   0.375
25725W        W98139  19.634  36.075   4.613
25726W        W98140   4.309  10.148   3.841
25727W        W98141  12.324  38.046   3.211
25728W        W98142  38.832  25.524   3.295
25729W        W98143  11.798   8.302   4.197
25730W        W98144  41.393  23.577   0.359
25731W        W98145  16.250  37.009  14.316
25732W        W98146  16.800  42.031   4.308
25733W        W98147  15.169  14.644  13.847
25734W        W98148  21.239  42.003   1.786
25735W        W98149   5.256   2.409  14.435
25736W        W98150  13.767  40.891  14.335
25737W        W98151   8.172  26.042  10.892
25738W        W98152  35.070   3.388   0.432
25739W        W98153  44.878  15.097  11.574
25740W        W98154  16.811  40.971  11.063
25741W        W98155  12.205   5.771   4.183
25742W        W98156   7.703  37.557   0.872
25743W        W98157  22.008  13.713   3.356
25744W        W98158  39.451   4.345   3.329
25745W        W98159  33.903   8.270  13.060
25746W        W98160   9.285  10.675   1.277
25747W        W98161  21.699  39.400  12.935
25748W        W98162  40.910   1.869  13.850
25749W        W98163   1.824  33.499  10.980
25750W        W98164  19.610  40.486  14.966
25751W        W98165   8.809   9.734   1.907
25752W        W98166  12.184  27.077   3.342
25753W        W98167  39.833  18.579  12.038
25754W        W98168  23.611   5.407   4.659
25755W        W98169  26.586  35.520   0.306
25756W        W98170  11.638  42.499   1.810
25757W        W98171   7.189  41.815  12.539
25758W        W98172  10.159   1.293   4.234
25759W        W98173   6.842  18.087   2.326
25760W        W98174  42.469  43.767  11.911
25761W        W98175  12.727  34.430   1.321
25762W        W98176  20.544  29.008   0.845
25763W        W98177  12.135  41.293  14.837
25764W        W98178  23.094   8.385  11.880
25765W        W98179  38.864   8.230   3.689
25766W        W98180  43.363  43.377   0.419
25767W        W98181  34.041  27.525   0.468
25768W        W98182   8.783  21.067  14.913
25769W        W98183   3.802  25.516   0.840
25770W        W98184  44.853  16.676  11.083
25771W        W98185  42.995  22.592  13.493
25772W        W98186  18.665  10.820   1.818
25773W        W98187  13.195  13.297  10.571
25774W        W98188  27.046   7.257  10.895
25775W        W98189  42.382   7.815   3.823
25776W        W98190  12.217  40.359  10.523
25777W        W98191  25.484  24.054   4.177
25778W        W98192  42.379  11.719  10.571
25779W        W98193   1.260  43.930   3.285
25780W        W98194  31.108   2.765  13.389
25781W        W98195  41.354   5.711  13.468
25782W        W98196  38.984  12.281   3.185
25783W        W98197  35.434  31.052   3.159
25784W        W98198  40.418  17.107  10.969
25785W        W98199   1.298  10.205   2.712
25786W        W98200  17.135  13.109  12.547
25787W        W98201  14.302  38.486  14.460
25788W        W98202  16.669  38.441   2.362
25789W        W98203  28.073  35.933  12.343
25790W        W98204  33.496   0.392   3.223
25791W        W98205  11.644  18.213  13.482
25792W        W98206  29.604  29.635   0.928
25793W        W98207  38.043  13.263  11.391
25794W        W98208  41.471   3.772   2.818
25795W        W98209  20.120  10.735  14.491
25796W        W98210  42.466  43.482  11.862
25797W        W98211  16.299  34.460   2.875
25798W        W98212   9.836  43.428  14.938
25799W        W98213  37.431  35.387   4.812
25800W        W98214  10.196  24.584   3.783
25801W        W98215  36.588  27.483  11.906
25802W        W98216  23.066  16.086   0.899
25803W        W98217  12.852  10.212  13.482
25804W        W98218  33.577  34.604  11.906
25805W        W98219  33.477   6.359  13.510
25806W        W98220   7.725  23.241  12.488
25807W        W98221  13.243  14.251  10.915
25808W        W98222   5.373  14.632   5.793
25809W        W98223  28.441  19.104   3.181
25810W        W98224  41.004  10.855   4.685
25811W        W98225  41.515  20.640  11.536
25812W        W98226   4.383  24.645   2.843
25813W        W98227  16.222  18.208   0.741
25814W        W98228  34.931  21.258   4.824
25815W        W98229  29.145  29.454  11.857
25816W        W98230  17.175  13.253   2.280
25817W        W98231  23.061   0.763   2.728
25818W        W98232  39.401  17.635  12.507
25819W        W98233  42.872  39.407  12.407
25820W        W98234  39.437  10.194  10.412
25821W        W98235  41.901   9.851  10.546
25822W        W98236  22.507  41.333  11.883
25823W        W98237  37.573   3.385   3.196
25824W        W98238  26.514   1.965  13.919
25825W        W98239  27.587  40.837  12.935
25826W        W98240  29.589  22.520  12.075
25827W        W98241  34.109  10.761   4.643
25828W        W98242   4.763  36.458   3.681
25829W        W98243  39.460  31.094  10.478
25830W        W98244   5.711   7.772  12.028
25831W        W98245   1.310  24.548  11.397
25832W        W98246  28.070   3.408  11.999
25833W        W98247  27.166  23.658  13.422
25834W        W98248   8.757  27.081   0.296
25835W        W98249  16.773  14.771   3.630
25836W        W98250  29.020  23.150   0.928
25837W        W98251  32.042  20.142   0.730
25838W        W98252  20.665  41.421  14.871
25839W        W98253   5.357  41.467  10.097
25840W        W98254  13.609  37.983   4.263
25841W        W98255  38.556   2.448  10.414
25842W        W98256  24.569  26.109  12.479
25843W        W98257  22.693  23.673   2.720
25844W        W98258   0.387  28.545   4.201
25845W        W98259  20.673  10.259  10.439
25846W        W98260   4.329   9.275  13.880
25847W        W98261  14.628  43.322  11.599
25848W        W98262  43.298  20.544  14.885
25849W        W98263  15.680  40.958  10.540
25850W        W98264  24.584  19.546   3.731
25851W        W98265  13.348   7.712   2.865
25852W        W98266   0.314  44.260   3.699
25853W        W98267  19.187   5.891   4.649
25854W        W98268  25.074  21.548  10.568
25855W        W98269  40.326  31.559  11.075
25856W        W98270  31.024  32.513   0.902
25857W        W98271  19.641  40.457   4.748
25858W        W98272  11.734  19.072   2.321
25859W        W98273  20.079  28.114  12.382
25860W        W98274   9.705  33.489   4.319
25861W        W98275  16.803   2.919   1.885
25862W        W98276   6.761  14.247   0.818
25863W        W98277  16.154  24.133   2.901
25864W        W98278  32.041   1.783  13.480
25865W        W98279  27.462  22.148   4.185
25866W        W98280  37.083  26.193  12.422
25867W        W98281  41.509  24.111  11.905
25868W        W98282  34.556  40.402   4.117
25869W        W98283  43.961  29.999  14.385
25870W        W98284  20.237   9.687  14.964
25871W        W98285   5.849  38.031   4.603
25872W        W98286  38.860  31.146  12.391
25873W        W98287  31.622   7.735   4.277
25874W        W98288  42.499   6.285   0.389
25875W        W98289  32.011  17.568   2.275
25876W        W98290   8.360  42.938   2.184
25877W        W98291   9.371  23.140   4.321
25878W        W98292  32.606  25.594   0.432
25879W        W98293  39.480   3.429   4.754
25880W        W98294   8.832   1.796  10.531
25881W        W98295  20.527  32.981  10.642
25882W        W98296   5.207   4.314   1.235
25883W        W98297   3.836  12.798   5.239
25884W        W98298   5.923  26.630  11.471
25885W        W98299   6.227   0.472  11.443
25886W        W98300  10.238  18.783   1.313
25887W        W98301   4.795  23.171  13.520
25888W        W98302   8.825   1.338   4.222
25889W        W98303  32.627  22.077  12.471
25890W        W98304  20.657  35.930   4.725
25891W        W98305  19.267  15.777  14.947
25892W        W98306  11.755   9.890   4.301
25893W        W98307  16.770  23.627  14.928
25894W        W98308   7.912  34.984  14.893
25895W        W98309  28.187  37.371  11.509
25896W        W98310  26.545  25.700  14.398
25897W        W98311  31.533  15.797  14.785
25898W        W98312  23.988  17.084  13.010
25899W        W98313  10.720   3.857  10.990
25900W        W98314  30.569  30.415   0.928
25901W        W98315  19.133   9.825   4.160
25902W        W98316  38.849  36.984   3.637
25903W        W98317  14.605  10.179   4.172
25904W        W98318  31.138  24.086   0.391
25905W        W98319  38.384  19.566  14.899
25906W        W98320  20.173   1.941   1.909
25907W        W98321  13.709  29.029  12.848
25908W        W98322  13.234   2.448   2.886
25909W        W98323  26.134  23.136  12.430
25910W        W98324  34.603  21.230   5.776
25911W        W98325  33.018   4.818  13.054
25912W        W98326  10.667  34.030   0.801
25913W        W98327  41.429  39.533   2.258
25914W        W98328  18.678  38.015   3.711
25915W        W98329   0.421   6.336  11.018
25916W        W98330  44.916  16.615   1.761
25917W        W98331  29.654  17.160   5.165
25918W        W98332  36.374  13.115   4.167
25919W        W98333  14.337  19.264  11.414
25920W        W98334   5.355  22.657  13.380
25921W        W98335  23.670  37.880   3.756
25922W        W98336   6.861  44.935  13.524
25923W        W98337  17.614  23.598   2.266
25924W        W98338  41.312  24.168  10.570
25925W        W98339  34.495   2.826   3.317
25926W        W98340  43.366  26.175  11.445
25927W        W98341   6.428  35.012   4.676
25928W        W98342   8.739  18.174   0.934
25929W        W98343  26.114  39.879  10.642
25930W        W98344  35.992  23.061   5.744
25931W        W98345  27.504  44.393   4.315
25932W        W98346  27.656   1.474   0.307
25933W        W98347  17.063  16.087   1.832
25934W        W98348  30.625  25.144   3.670
25935W        W98349  44.756  15.661  13.542
25936W        W98350   1.774  31.960   3.228
25937W        W98351  17.107  15.125  11.467
25938W        W98352   3.915  21.040  11.441
25939W        W98353  12.156  43.016   5.319
25940W        W98354   8.238  20.757   2.214
25941W        W98355   3.247  22.063   1.376
25942W        W98356   6.333  22.216  14.306
25943W        W98357  14.123  43.276  13.026
25944W        W98358  35.559  19.679  10.420
25945W        W98359  21.596  19.701   3.263
25946W        W98360  35.982   5.808   0.455
25947W        W98361   1.972  38.988  14.827
25948W        W98362   5.427   7.815  11.129
25949W        W98363   6.882  35.389  14.309
25950W        W98364  14.643  30.136   4.599
25951W        W98365  19.067  26.158   2.312
25952W        W98366   8.345  16.232   3.318
25953W        W98367  40.920  10.164  13.406
25954W        W98368  20.180  42.884   3.253
25955W        W98369  39.478  13.341   0.729
25956W        W98370  18.710  19.561   0.775
25957W        W98371  37.544  25.710   4.156
25958W        W98372  20.274  35.486   0.382
25959W        W98373  24.506   1.402   1.803
25960W        W98374  32.591  27.682  14.988
25961W        W98375   3.810  35.963  13.313
25962W        W98376  25.088  37.577  12.558
25963W        W98377   4.442  27.954  14.026
25964W        W98378  35.361  33.933   2.770
25965W        W98379  40.421   7.181  10.909
25966W        W98380  40.448  36.956   3.173
25967W        W98381  34.921   3.416   4.221
25968W        W98382   3.734  20.623   1.210
25969W        W98383  44.379  18.635  13.937
25970W        W98384  10.347  39.984   3.384
25971W        W98385  25.104  13.714  14.871
25972W        W98386  37.467  24.511   2.258
25973W        W98387   7.303  33.445   3.816
25974W        W98388  38.957  26.119   2.271
25975W        W98389  25.492  18.174   1.443
25976W        W98390  35.952  25.649  10.608
25977W        W98391  16.738  26.615   3.797
25978W        W98392  12.124  40.923  11.444
25979W        W98393  12.133   3.219   3.287
25980W        W98394  39.372  35.036   5.164
25981W        W98395   7.196   7.333   2.829
25982W        W98396  15.728   8.754   0.866
25983W        W98397  27.631   8.875   5.236
25984W        W98398  25.660   5.918  12.530
25985W        W98399  15.783  18.242  13.501
25986W        W98400  29.668  43.446   3.711
25987W        W98401  29.107  42.958   4.333
25988W        W98402   8.165   7.388   1.863
25989W        W98403  32.115  16.606   1.881
25990W        W98404  41.983  30.145   3.201
25991W        W98405  12.162  37.560   0.868
25992W        W98406  13.327  16.602   0.382
25993W        W98407  25.029  19.702   4.292
25994W        W98408  14.235  40.878   3.729
25995W        W98409   5.346  44.329   0.854
25996W        W98410  37.563   8.727   0.473
25997W        W98411  35.977   1.312  11.052
25998W        W98412  21.656  38.900  13.942
25999W        W98413  32.433  22.086   3.338
26000W        W98414   7.216   8.286  14.911
26001W        W98415  10.823  12.185  13.387
26002W        W98416  23.538  37.931   2.768
26003W        W98417   8.314  35.451  14.938
26004W        W98418  43.373  27.634   2.317
26005W        W98419  24.031  27.602  10.478
26006W        W98420  32.603  14.263   4.144
26007W        W98421  38.058  42.463  12.399
26008W        W98422   1.753   7.754  10.611
26009W        W98423  13.619  33.538   0.916
26010W        W98424   4.425  13.344  10.415
26011W        W98425   2.825  13.657  14.943
26012W        W98426  17.177  43.850  10.999
26013W        W98427  26.045  43.426   1.830
26014W        W98428  29.989  23.504  13.898
26015W        W98429  38.387  32.587   5.748
26016W        W98430   7.272   5.766   4.308
26017W        W98431  30.442  31.478  11.023
26018W        W98432  11.209  25.614   0.428
26019W        W98433  20.684  17.290   0.942
26020W        W98434  10.291  40.451   2.191
26021W        W98435  10.749  34.576  13.501
26022W        W98436  40.946   4.327  11.029
26023W        W98437  23.241  33.069  12.475
26024W        W98438   8.818  41.929  10.512
26025W        W98439  35.403  29.014  14.900
26026W        W98440  33.534  44.274   5.164
26027W        W98441  32.142  33.418   0.914
26028W        W98442   4.820  35.394   4.736
26029W        W98443  43.436  21.145  14.830
26030W        W98444  12.837  10.364   4.665
26031W        W98445   5.390  35.521  13.364
26032W        W98446  12.238  10.260   1.396
26033W        W98447  42.439  35.599  13.808
26034W        W98448  31.629  32.540  12.418
26035W        W98449   3.916   4.778  11.610
26036W        W98450  33.891  38.845  12.406
26037W        W98451   5.282  20.249   4.333
26038W        W98452  24.105  20.137  10.969
26039W        W98453  37.480  36.436  11.125
26040W        W98454  15.287  17.186   0.410
26041W        W98455  41.515  34.459   2.776
26042W        W98456  35.057  39.448   0.375
26043W        W98457  22.741  22.619  13.028
26044W        W98458  22.101  16.118  13.413
26045W        W98459  26.696  12.317   1.219
26046W        W98460  23.131  32.994   4.282
26047W        W98461   2.379  37.471  11.589
26048W        W98462   7.309  10.770   1.331
26049W        W98463  36.456  17.613  14.017
26050W        W98464   7.266   0.286   4.745
26051W        W98465  42.291  22.205   4.193
26052W        W98466  39.989   1.471   2.396
26053W        W98467  29.039  44.430  11.870
26054W        W98468  38.421   0.882  11.493
26055W        W98469   8.657  18.571  12.454
26056W        W98470  22.011  31.152  11.119
26057W        W98471  43.319   0.796   2.858
26058W        W98472  25.201  33.919  10.575
26059W        W98473  19.171  39.980  12.088
26060W        W98474  29.615  43.771  13.958
26061W        W98475  20.096   8.258  14.331
26062W        W98476  34.555  26.587   1.794
26063W        W98477  21.223   1.296  13.533
26064W        W98478  25.062  27.087   1.831
26065W        W98479  30.511  15.790  12.534
26066W        W98480  37.537  27.957   1.787
26067W        W98481   6.300   4.346   3.149
26068W        W98482  16.809   6.903   4.805
26069W        W98483  40.511  33.502  11.905
26070W        W98484   2.388  27.581  11.434
26071W        W98485  20.611  21.684   4.274
26072W        W98486  38.919  27.951   1.709
26073W        W98487  35.983  39.048   4.310
26074W        W98488  42.981  44.364  13.921
26075W        W98489  27.956   5.890   2.805
26076W        W98490  28.956  35.396   0.815
26077W        W98491  11.129  21.711   4.301
26078W        W98492  10.654  35.566   2.399
26079W        W98493  28.121  29.664  12.519
26080W        W98494  12.821  33.546  11.966
26081W        W98495  27.005  17.278   3.826
26082W        W98496  38.946  22.047  11.946
26083W        W98497  16.194  29.647   3.325
26084W        W98498  32.081  27.118  11.551
26085W        W98499  20.136  14.119  14.901
26086W        W98500  17.216  13.800  10.920
26087W        W98501  19.583  10.320  11.907
26088W        W98502  41.977   7.796  11.934
26089W        W98503  34.530  37.350   0.913
26090W        W98504  21.076  32.976  14.953
26091W        W98505  30.103  33.030  11.115
26092W        W98506  14.251  30.042   3.336
26093W        W98507  20.597  25.470   0.381
26094W        W98508  16.281  29.948  13.525
26095W        W98509  30.597  12.676  13.458
26096W        W98510  39.472  28.480  14.966
26097W        W98511  39.510  37.954  10.897
26098W        W98512   4.809  36.022  12.944
26099W        W98513   3.796  15.219   3.849
26100W        W98514   0.411   4.708   0.801
26101W        W98515   9.357   3.447  11.612
26102W        W98516  10.344  27.598  11.572
26103W        W98517  29.472  20.033   2.411
26104W        W98518  20.554  35.871   1.893
26105W        W98519  13.781   4.310   0.451
26106W        W98520   3.358  27.148   0.893
26107W        W98521  43.397  21.121   3.236
26108W        W98522  35.488  19.205   0.778
26109W        W98523  29.585  26.470   3.693
26110W        W98524  33.902   5.338  11.985
26111W        W98525  19.752  37.978  11.449
26112W        W98526  36.859  39.468   1.857
26113W        W98527   0.445  39.845  12.441
26114W        W98528  32.617   3.913  11.054
26115W        W98529  15.767  39.884  13.907
26116W        W98530  13.675  37.495  12.350
26117W        W98531  36.460  13.214  11.992
26118W        W98532  31.440  41.941  14.468
26119W        W98533  28.151  40.394  13.034
26120W        W98534  42.451   8.332  14.307
26121W        W98535  23.531  39.345   2.369
26122W        W98536  27.960  42.966  13.414
26123W        W98537  26.993  39.499  13.910
26124W        W98538  11.276  14.825  13.853
26125W        W98539   9.191  28.632  10.626
26126W        W98540   9.865  14.656  14.793
26127W        W98541  23.536  17.112  12.889
26128W        W98542  38.409  23.239  11.883
26129W        W98543  35.963  12.624   3.688
26130W        W98544   6.377  11.250   4.257
26131W        W98545  30.925  12.667   1.926
26132W        W98546  34.034  14.639   3.785
26133W        W98547  27.940  25.208  14.936
26134W        W98548  18.722  41.796  12.449
26135W        W98549  23.076  38.398   0.323
26136W        W98550  35.860  34.930   9.674
26137W        W98551  23.223   4.921   4.653
26138W        W98552  35.104  29.666   4.710
26139W        W98553  26.481   4.360   0.962
26140W        W98554  23.026  24.511  12.374
26141W        W98555  31.138  28.134  11.016
26142W        W98556   8.216  43.954  13.986
26143W        W98557  35.957  33.077   1.768
26144W        W98558  33.449  32.508   3.801
26145W        W98559  13.750  34.933   3.727
26146W        W98560  23.066  30.648  14.384
26147W        W98561  26.980  11.753  10.479
26148W        W98562  18.727  39.045  13.531
26149W        W98563  34.981  11.719  14.768
26150W        W98564  11.179  27.947   4.713
26151W        W98565  29.486  33.417  12.448
26152W        W98566  27.027   8.816   4.191
26153W        W98567  43.471  27.948   3.286
26154W        W98568   9.681  40.912   1.388
26155W        W98569   6.745  26.127  13.403
26156W        W98570   5.880  35.574  12.924
26157W        W98571  42.908   4.301  12.552
26158W        W98572  42.909  32.117   0.414
26159W        W98573  25.134  11.326  10.572
26160W        W98574  41.036  25.516   3.374
26161W        W98575  12.180  11.722  13.368
26162W        W98576  37.019  43.986   0.299
26163W        W98577  26.548  35.046   1.747
26164W        W98578  28.504  19.184  14.961
26165W        W98579  22.206  21.197   2.851
26166W        W98580  35.016   7.725  11.921
26167W        W98581   6.763  30.418   0.470
26168W        W98582   6.353  22.026  12.414
26169W        W98583  24.549  30.495  12.481
26170W        W98584  44.365   3.770  12.934
26171W        W98585  21.235  42.876   4.182
26172W        W98586   4.867   7.340   0.439
26173W        W98587  22.632  29.465  11.857
26174W        W98588  11.790   1.278   3.366
26175W        W98589  23.536  25.994  11.527
26176W        W98590  16.623  44.893  13.382
26177W        W98591  34.889  44.401  11.395
26178W        W98592  21.709   9.777   3.870
26179W        W98593   5.736  41.456   2.210
26180W        W98594  32.578   7.892  12.090
26181W        W98595  16.272  11.171  13.342
26182W        W98596   0.894  16.239   2.390
26183W        W98597   0.767  15.609  10.628
26184W        W98598   4.768  15.668   2.830
26185W        W98599  32.925   7.711   4.773
26186W        W98600   7.296  10.191  14.374
26187W        W98601   5.752   8.294   1.228
26188W        W98602  39.501  19.622  11.964
26189W        W98603  27.070  27.494  10.421
26190W        W98604  28.602  24.015  12.525
26191W        W98605  40.029  37.002  12.557
26192W        W98606  20.584  34.023   3.283
26193W        W98607   0.905   2.349   3.840
26194W        W98608   4.361  23.049  14.423
26195W        W98609  38.997  29.502   1.331
26196W        W98610   3.431  16.220   1.850
26197W        W98611  37.986  27.055   3.309
26198W        W98612  27.012   8.373   2.784
26199W        W98613  11.137  19.161  14.314
26200W        W98614   5.278  19.147   3.350
26201W        W98615   5.221  10.236   0.734
26202W        W98616  29.530  40.505   0.868
26203W        W98617   1.940   0.485   3.179
26204W        W98618  11.137  35.987   2.761
26205W        W98619  36.005  27.994   2.185
26206W        W98620  28.047  42.518   4.619
26207W        W98621  36.976   9.669   0.324
26208W        W98622  27.066  42.027   1.703
26209W        W98623  22.125  36.456  10.480
26210W        W98624  27.000  33.561  10.161
26211W        W98625   2.372   1.403   1.895
26212W        W98626  31.091  26.976  12.859
26213W        W98627   2.331  25.207  14.785
26214W        W98628   1.449  38.471   2.732
26215W        W98629  12.693  31.476   0.815
26216W        W98630  27.948  41.996  14.006
26217W        W98631  21.696  23.552  12.881
26218W        W98632  23.984  36.502   2.325
26219W        W98633  17.142  19.270  10.564
26220W        W98634  24.168  20.161  12.837
26221W        W98635  20.531  29.166   3.365
26222W        W98636  40.307  30.636  10.599
26223W        W98637  10.374  23.613   3.867
26224W        W98638  44.930   2.472   2.731
26225W        W98639   0.380  26.113   3.778
26226W        W98640  27.110   9.174   3.656
26227W        W98641  28.465  10.216  11.589
26228W        W98642  43.330  35.858  11.026
26229W        W98643  23.678  17.223  11.502
26230W        W98644  36.572  16.308   1.272
26231W        W98645   5.736  26.470  12.086
26232W        W98646  23.986  31.556   2.205
26233W        W98647  33.420  36.867   1.434
26234W        W98648  40.959  26.177   4.233
26235W        W98649   5.828  29.051   4.792
26236W        W98650  29.539  15.144   3.274
26237W        W98651   7.356   7.294   2.352
26238W        W98652  42.513  43.349   2.815
26239W        W98653  10.879  32.995   1.734
26240W        W98654  27.960  20.234  12.447
26241W        W98655  34.996  18.111   1.774
26242W        W98656  29.428   3.276  13.467
26243W        W98657   4.917  23.515   4.661
26244W        W98658   4.933  39.424  12.561
26245W        W98659  21.064  36.025   3.718
26246W        W98660  10.357  39.889   2.728
26247W        W98661  28.985  26.506   1.733
26248W        W98662  29.076  13.268   1.345
26249W        W98663  17.283  13.243  10.616
26250W        W98664  33.921   2.349   0.786
26251W        W98665  38.544  43.426   1.707
26252W        W98666   2.295  38.898   2.856
26253W        W98667  39.452   1.480   2.681
26254W        W98668  17.715   7.400  14.397
26255W        W98669  31.918  15.581  14.300
26256W        W98670   1.968  14.197   4.239
26257W        W98671  20.596  10.811  14.328
26258W        W98672  44.351  37.406   5.224
26259W        W98673  36.852  29.431   3.263
26260W        W98674  37.987  19.539  10.512
26261W        W98675   5.786  21.601   1.893
26262W        W98676  16.158  41.855  11.943
26263W        W98677  41.931   5.732  11.401
26264W        W98678   0.471  19.668  10.527
26265W        W98679  41.325  40.423  11.111
26266W        W98680  44.962  37.991  12.385
26267W        W98681  23.694  26.074  13.854
26268W        W98682   1.824  21.184   4.771
26269W        W98683   2.890   1.251   4.208
26270W        W98684  30.578  20.135   0.785
26271W        W98685  15.248   8.404   1.281
26272W        W98686   3.364  10.205   1.891
26273W        W98687  28.991  42.016  13.827
26274W        W98688   5.901  36.480  10.427
26275W        W98689  27.646   6.758   2.330
26276W        W98690  27.499  17.225  14.498
26277W        W98691  26.085  16.146  13.310
26278W        W98692  37.418  34.446   2.802
26279W        W98693  35.999  14.197  13.891
26280W        W98694   1.732  36.055   1.922
26281W        W98695  15.313   3.452  14.868
26282W        W98696  37.909  26.087   1.717
26283W        W98697  20.558  22.670   0.816
26284W        W98698  38.506  35.854  14.847
26285W        W98699  25.046   3.725  11.884
26286W        W98700  38.945  20.079   0.774
26287W        W98701  36.016  19.634  11.095
26288W        W98702  42.981  25.480  11.553
26289W        W98703  23.011  10.211   0.759
26290W        W98704   7.822  38.864   1.399
26291W        W98705  44.755  21.110  14.433
26292W        W98706  15.249   1.320   2.353
26293W        W98707  36.052  39.937   0.313
26294W        W98708  42.841  37.365   1.433
26295W        W98709  14.626  18.750  13.863
26296W        W98710  41.869  24.580  11.380
26297W        W98711   4.403  19.087  13.053
26298W        W98712   1.930  42.885   3.172
26299W        W98713  13.217  34.428   3.808
26300W        W98714  10.681  34.008  14.423
26301W        W98715  21.253  25.104   2.855
26302W        W98716   8.243  18.675  12.930
26303W        W98717  28.440  16.103  11.952
26304W        W98718  32.019  14.171  14.024
26305W        W98719  20.630  42.456  12.089
26306W        W98720  27.968  25.105   5.200
26307W        W98721  24.199   9.393   0.910
26308W        W98722  37.416  19.206  12.061
26309W        W98723   7.380  37.079  13.406
26310W        W98724  44.363  24.601   2.732
26311W        W98725  12.209   1.829  14.907
26312W        W98726  41.898  33.496   1.710
26313W        W98727  35.451  44.833  13.537
26314W        W98728  35.027  44.288   0.408
26315W        W98729   2.914  24.046  11.399
26316W        W98730  20.677  36.398  11.450
26317W        W98731  20.570  21.746  13.910
26318W        W98732  27.179  44.311   0.317
26319W        W98733  35.918  36.534  12.400
26320W        W98734  27.460  36.591   1.300
26321W        W98735  25.645   0.278   3.641
26322W        W98736   9.248  11.209  14.777
26323W        W98737   8.231  37.844  14.822
26324W        W98738  32.066   5.923   1.253
26325W        W98739  21.586  29.146  11.459
26326W        W98740  25.118  25.032  14.284
26327W        W98741  26.119  14.709  10.911
26328W        W98742  31.534  36.978   2.393
26329W        W98743   4.782   1.356   2.282
26330W        W98744  28.643  27.974   4.830
26331W        W98745  22.221  17.181   4.234
26332W        W98746  39.996  13.228  14.025
26333W        W98747  14.240  14.818   2.246
26334W        W98748   4.293  40.444  11.610
26335W        W98749  29.072  39.014   0.456
26336W        W98750  19.152  14.326  12.075
26337W        W98751  15.219  39.003  13.943
26338W        W98752   9.678  23.640   3.847
26339W        W98753  32.898  29.660   2.387
26340W        W98754  32.889  29.088  10.921
26341W        W98755  22.546  33.563  14.338
26342W        W98756   8.246  24.672  11.923
26343W        W98757  10.744  25.588   3.194
26344W        W98758   9.835  38.420  11.873
26345W        W98759  20.095   0.378  14.884
26346W        W98760  24.059  36.376  11.448
26347W        W98761   6.753  18.153   2.821
26348W        W98762  40.495   9.802   4.716
26349W        W98763  26.514   6.763  10.979
26350W        W98764  12.251  42.405   4.310
26351W        W98765   3.753  41.937   4.623
26352W        W98766  37.474  18.703   2.698
26353W        W98767  28.121   2.831  11.876
26354W        W98768  24.075  35.471  11.591
26355W        W98769   7.221   9.184   3.799
26356W        W98770  39.517   9.888   2.689
26357W        W98771  30.628   5.706   3.722
26358W        W98772   1.292  37.079  13.027
26359W        W98773  25.034  40.878  13.877
26360W        W98774   5.439  40.506  14.761
26361W        W98775  24.030  31.567  12.398
26362W        W98776  39.969  23.216   1.752
26363W        W98777  10.177  23.541  10.123
26364W        W98778  32.015  35.570   4.313
26365W        W98779  26.183  14.313  11.882
26366W        W98780  43.853  38.893  13.988
26367W        W98781  26.975  42.957   2.246
26368W        W98782  40.023  22.136   3.652
26369W        W98783  16.727  39.416   0.874
26370W        W98784  14.822  13.329  10.611
26371W        W98785  40.303  37.354  14.759
26372W        W98786  44.499  40.828   1.400
26373W        W98787   8.689  10.190   2.412
26374W        W98788  26.629  13.775  13.505
26375W        W98789  33.515   8.677  10.529
26376W        W98790  18.767  19.735   0.455
26377W        W98791  44.793  43.355  14.437
26378W        W98792  31.948   3.850  10.563
26379W        W98793  26.592  39.441  14.450
26380W        W98794  13.817   7.788   4.284
26381W        W98795  21.753  32.989   0.467
26382W        W98796  34.120  16.079  10.490
26383W        W98797   6.887  26.976  11.457
26384W        W98798  33.471  43.447   3.196
26385W        W98799  29.428  25.043   1.214
26386W        W98800  16.722   9.268   3.204
26387W        W98801   8.263  37.972  11.440
26388W        W98802   2.816  19.066  14.456
26389W        W98803   7.177  14.659   3.827
26390W        W98804  43.270  27.676   0.936
26391W        W98805   5.249  23.661   0.849
26392W        W98806  41.918  23.124  13.532
26393W        W98807  20.697  20.650  10.408
26394W        W98808   4.728  39.511   0.810
26395W        W98809  12.619  27.082   4.332
26396W        W98810  12.244  13.837  14.354
26397W        W98811  18.229   5.341  14.336
26398W        W98812  10.287  24.500  14.474
26399W        W98813  22.162   2.426   2.342
26400W        W98814  23.675   0.844   1.364
26401W        W98815  37.533  11.179   0.786
26402W        W98816  15.200  19.204  14.999
26403W        W98817  28.065  14.324  11.015
26404W        W98818  33.006  26.035   2.233
26405W        W98819  25.624  37.401   3.352
26406W        W98820  33.395  15.602  11.390
26407W        W98821  30.617  11.732  14.294
26408W        W98822  13.671   6.378  12.914
26409W        W98823  40.864  18.791  11.469
26410W        W98824   3.450   2.373  11.422
26411W        W98825  18.601  12.344  11.458
26412W        W98826  10.828  13.841  13.818
26413W        W98827  32.439  27.679   4.318
26414W        W98828  17.638  31.511   0.327
26415W        W98829   2.951  33.454   3.312
26416W        W98830  30.113   9.870  14.288
26417W        W98831   2.853  21.608   3.354
26418W        W98832   3.788   7.233   1.816
26419W        W98833   2.963  15.329   4.829
26420W        W98834  16.209  32.998  11.574
26421W        W98835   9.209  28.144  14.478
26422W        W98836  34.596   4.778   3.731
26423W        W98837  43.884  16.196  12.897
26424W        W98838  32.544   8.254   2.259
26425W        W98839   5.243  35.921   3.288
26426W        W98840  31.119  14.107  13.409
26427W        W98841  44.924  11.701  10.486
26428W        W98842  43.019  13.823  11.098
26429W        W98843  20.077   3.375  14.313
26430W        W98844  26.036  10.771   4.129
26431W        W98845  30.615   8.770  11.468
26432W        W98846  31.993  17.610   1.911
26433W        W98847   4.717  30.984  13.464
26434W        W98848  40.010   1.925   4.305
26435W        W98849  15.128  32.468  14.938
26436W        W98850   2.829  29.606   4.704
26437W        W98851  27.515  15.746   4.250
26438W        W98852   9.669  12.313  11.091
26439W        W98853  35.574  24.059   1.871
26440W        W98854   3.891  44.442  14.988
26441W        W98855   2.906   1.779  11.546
26442W        W98856  28.660   1.773   0.346
26443W        W98857  42.841  39.428   2.411
26444W        W98858  15.256  13.119   2.787
26445W        W98859  19.206  13.172   3.661
26446W        W98860  13.701  37.927  11.515
26447W        W98861   7.274   7.371   3.863
26448W        W98862  18.267   3.262  13.798
26449W        W98863  10.812  42.815  12.919
26450W        W98864   8.821  20.257   3.651
26451W        W98865   5.356  36.400  12.956
26452W        W98866  14.616  39.044  11.507
26453W        W98867  36.085  26.959  13.925
26454W        W98868  28.518  12.309  14.275
26455W        W98869   2.909  27.688  12.575
26456W        W98870  23.064  38.979   3.263
26457W        W98871   4.378  35.095  10.526
26458W        W98872   3.328   0.265   2.815
26459W        W98873   6.704  13.200   2.212
26460W        W98874  44.970  43.292   4.643
26461W        W98875  44.795  35.414   3.154
26462W        W98876  16.755  43.289   4.327
26463W        W98877  13.786   0.424   4.675
26464W        W98878  33.889   2.313   1.865
26465W        W98879  34.063  40.491   3.779
26466W        W98880   7.850  17.669  12.966
26467W        W98881  16.586  40.974   3.762
26468W        W98882  34.947   2.800   4.315
26469W        W98883  37.488   3.766  10.576
26470W        W98884  17.297  37.403   3.842
26471W        W98885  36.076   6.781  14.955
26472W        W98886  36.983  44.803   4.114
26473W        W98887  37.841   2.349  12.888
26474W        W98888  26.023  26.958  14.323
26475W        W98889  35.980  19.185  11.918
26476W        W98890  25.219  19.167  12.347
26477W        W98891  32.463  32.437   3.302
26478W        W98892  24.513  33.558  13.427
26479W        W98893   9.186   9.667  13.529
26480W        W98894  33.106  23.102   0.351
26481W        W98895  23.583  28.153   4.281
26482W        W98896   7.705  39.022   3.724
26483W        W98897  18.645  30.541   4.750
26484W        W98898  20.602  10.669   0.432
26485W        W98899  32.474   6.216   0.384
26486W        W98900   0.811  25.629  12.043
26487W        W98901  42.825  43.983  14.881
26488W        W98902  21.130  26.570   1.309
26489W        W98903  23.146  43.456  14.301
26490W        W98904  38.450  39.897   2.853
26491W        W98905   9.773   2.860  11.498
26492W        W98906  35.106   0.854   4.777
26493W        W98907  13.178   5.415  13.463
26494W        W98908  38.879   4.738  12.950
26495W        W98909  22.581  20.265   1.760
26496W        W98910  30.527  36.528   4.653
26497W        W98911  20.164   9.308   2.208
26498W        W98912   9.277  23.109   1.345
26499W        W98913  42.396   6.875   3.346
26500W        W98914  44.418  36.522   0.315
26501W        W98915  20.134  15.186   0.452
26502W        W98916   4.836  39.372   5.102
26503W        W98917  24.575  41.844   2.409
26504W        W98918  36.459  11.741   1.855
26505W        W98919  14.657  40.400   1.368
26506W        W98920  10.367  12.240   3.765
26507W        W98921  43.483  11.191   2.215
26508W        W98922  31.047  16.790   1.322
26509W        W98923  44.368   4.436  14.434
26510W        W98924  12.168  28.565   3.845
26511W        W98925  17.144  33.874   0.371
26512W        W98926  16.200  20.206   5.151
26513W        W98927   3.846  12.267   4.803
26514W        W98928  19.602  41.972  14.796
26515W        W98929  42.498  35.513  13.367
26516W        W98930  32.990  40.998  12.347
26517W        W98931  12.254  27.551  14.868
26518W        W98932   7.392  24.229  13.359
26519W        W98933  27.532   2.891  12.892
26520W        W98934  34.970  32.030   0.315
26521W        W98935  28.673  22.732  11.110
26522W        W98936  39.907  26.497   3.181
26523W        W98937  31.595  14.291   4.728
26524W        W98938  38.329  31.486   1.415
26525W        W98939  38.431  16.792  10.928
26526W        W98940  41.521  15.132  13.349
26527W        W98941  24.714  27.179  14.792
26528W        W98942   9.760  44.851   3.372
26529W        W98943  20.097  43.429   2.387
26530W        W98944  34.453  10.788   2.722
26531W        W98945   2.947  15.272  11.055
26532W        W98946  37.854  21.524   3.269
26533W        W98947  24.065  36.480  12.037
26534W        W98948  16.185   2.229  11.486
26535W        W98949  17.088  13.704   4.616
26536W        W98950  35.957  44.330  13.470
26537W        W98951   5.294   8.657   4.619
26538W        W98952  25.065  32.979   2.807
26539W        W98953   1.804  20.205   4.243
26540W        W98954  22.659   2.405  12.890
26541W        W98955  36.015  13.259  13.982
26542W        W98956   2.227  29.466   4.271
26543W        W98957  38.980   5.216   0.824
26544W        W98958  35.022   6.688   2.213
26545W        W98959  29.647  38.959   4.819
26546W        W98960   3.945  40.408  11.966
26547W        W98961   1.312   5.283   2.320
26548W        W98962  42.492  12.309   1.907
26549W        W98963  38.503  32.486  14.365
26550W        W98964   8.287   3.401   1.863
26551W        W98965   4.444   6.182  12.077
26552W        W98966  27.646  36.018  12.518
26553W        W98967   9.812  27.487  11.416
26554W        W98968   3.410  29.486   3.724
26555W        W98969  17.083  40.853  11.439
26556W        W98970  15.248  36.522  13.995
26557W        W98971   4.205  13.202   4.131
26558W        W98972  38.825   4.835  14.402
26559W        W98973   9.210  38.565  14.354
26560W        W98974  43.968  22.236  12.537
26561W        W98975  21.651  10.722  11.976
26562W        W98976  39.846  25.673  13.372
26563W        W98977  26.472  14.271  10.114
26564W        W98978  36.480   6.785   0.378
26565W        W98979  14.789  17.245   4.171
26566W        W98980  30.108  23.101   2.714
26567W        W98981  24.984  29.965   2.408
26568W        W98982   2.397   2.261   4.640
26569W        W98983   5.363  18.694   3.198
26570W        W98984  20.760  27.032  13.423
26571W        W98985  35.082  26.545   2.881
26572W        W98986   2.941  22.053   3.330
26573W        W98987   9.708  30.444   3.192
26574W        W98988  36.377  20.147  14.304
26575W        W98989  29.461  44.985   1.903
26576W        W98990  10.309  30.094   4.312
26577W        W98991  10.373  32.119  11.416
26578W        W98992   4.720  24.652  11.016
26579W        W98993  27.452  19.778   0.789
26580W        W98994  29.507  31.421   3.762
26581W        W98995   0.477  11.669   4.140
26582W        W98996  39.374  27.012   3.347
26583W        W98997  35.444  31.902  11.992
26584W        W98998   2.892  31.008  14.315
26585W        W98999  18.781  41.003  11.126
26586W        W99000  43.895   6.740   0.384
26587W        W99001  29.154  43.289   2.851
26588W        W99002  40.373   9.344   0.361
26589W        W99003  10.824   1.758   4.834
26590W        W99004  34.104   2.732  13.928
26591W        W99005  44.426  35.876  14.489
26592W        W99006  23.103  29.558  11.969
26593W        W99007  43.294  28.667   0.328
26594W        W99008  24.497  15.139   4.349
26595W        W99009  35.420   8.230   0.850
26596W        W99010  28.468  18.578  10.506
26597W        W99011  13.270  27.589   4.305
26598W        W99012  41.838  35.109   2.722
26599W        W99013  28.482  37.058   4.320
26600W        W99014  13.751   8.785   2.791
26601W        W99015  33.612  18.127  10.418
26602W        W99016  29.035  34.379   3.262
26603W        W99017  28.469  43.454  12.862
26604W        W99018  26.686   7.238   3.202
26605W        W99019  16.691  10.843  14.870
26606W        W99020   3.417  22.670  12.885
26607W        W99021  21.096  14.761  11.008
26608W        W99022  21.558  27.134  11.411
26609W        W99023  36.971  28.498   0.391
26610W        W99024  44.497  36.058  12.484
26611W        W99025   7.888   5.819  12.555
26612W        W99026   1.871   8.667   4.654
26613W        W99027  25.019  28.133   0.288
26614W        W99028  17.705  19.640   3.660
26615W        W99029  38.403  44.411   1.721
26616W        W99030   2.281  40.889   3.152
26617W        W99031  12.703  11.664   4.623
26618W        W99032  13.329   3.254   1.880
26619W        W99033  39.968  11.133  11.424
26620W        W99034  29.121  26.500  11.542
26621W        W99035   8.714  24.639   3.382
26622W        W99036  19.265  38.026  10.599
26623W        W99037  30.959  30.024  14.844
26624W        W99038  18.119  41.356   3.354
26625W        W99039  23.579   9.222   4.672
26626W        W99040   4.307  16.161   5.249
26627W        W99041  18.581  21.599   4.774
26628W        W99042   7.860  26.122  11.011
26629W        W99043   5.780   3.366  10.469
26630W        W99044  20.262  27.191  14.855
26631W        W99045  30.096  14.334  12.952
26632W        W99046  31.035  40.425   1.370
26633W        W99047  18.546  38.352  13.003
26634W        W99048  27.947  16.605   3.791
26635W        W99049  23.735  32.910  13.030
26636W        W99050  35.517  26.532  13.855
26637W        W99051  24.681  17.156  10.572
26638W        W99052   1.261  23.586   4.782
26639W        W99053  35.565  10.683  11.975
26640W        W99054  42.308  25.174  11.397
26641W        W99055  17.697  27.170   3.721
26642W        W99056  30.615  15.329  12.914
26643W        W99057   6.709  18.168   3.219
26644W        W99058  29.146  17.069   1.305
26645W        W99059   1.965  26.004  11.057
26646W        W99060  28.936  37.918  13.364
26647W        W99061  23.007  29.607   4.175
26648W        W99062  38.484  42.405   1.397
26649W        W99063  12.351  11.671   4.323
26650W        W99064  18.568  12.625   9.980
26651W        W99065   6.250  18.137  13.987
26652W        W99066  15.122  21.120  11.926
26653W        W99067  35.011  38.478   2.230
26654W        W99068  30.595  34.383   3.691
26655W        W99069  32.143  20.182  14.868
26656W        W99070  35.384   6.822  14.893
26657W        W99071  34.547   3.252   5.264
26658W        W99072  42.837  31.968  14.332
26659W        W99073   7.190  18.562   1.429
26660W        W99074  30.559  31.570  14.834
26661W        W99075  36.967  23.587   0.255
26662W        W99076  15.674  44.323  12.492
26663W        W99077  42.460   6.824  12.512
26664W        W99078  17.166   8.859   2.894
26665W        W99079  16.211  34.970  11.450
26666W        W99080  16.146  15.088   0.799
26667W        W99081  27.603  18.672  12.412
26668W        W99082  37.483  28.123  12.512
26669W        W99083  28.134  44.386   3.670
26670W        W99084  11.772  11.727   4.795
26671W        W99085  29.639  33.611  10.939
26672W        W99086   0.482   9.868  10.500
26673W        W99087  19.714  30.427  10.948
26674W        W99088  11.289  41.319   3.254
26675W        W99089   9.782  42.955   0.244
26676W        W99090  24.114   8.660  14.420
26677W        W99091  20.068  44.446  13.473
26678W        W99092  33.384  37.512   3.822
26679W        W99093  28.162  13.727   1.292
26680W        W99094   4.880  25.515   1.424
26681W        W99095   0.470   2.911   1.893
26682W        W99096   7.704  42.879   4.662
26683W        W99097  40.988  22.537   3.387
26684W        W99098  28.987  33.037   2.252
26685W        W99099   8.782  27.607  14.315
26686W        W99100  17.279   4.829  11.063
26687W        W99101  18.114  12.288  10.487
26688W        W99102  14.677  19.612  13.411
26689W        W99103  15.698  26.598  11.928
26690W        W99104   1.840   3.852  14.362
26691W        W99105  39.997  29.033  14.806
26692W        W99106  42.990  15.621   5.138
26693W        W99107  41.800   6.290   1.737
26694W        W99108   8.223  29.459   3.221
26695W        W99109  15.762  36.346   0.373
26696W        W99110  33.115  17.737   0.413
26697W        W99111  40.503   7.344  13.430
26698W        W99112  18.700  37.385  12.851
26699W        W99113  18.219  29.594  13.478
26700W        W99114   4.900  10.331   1.753
26701W        W99115  24.683   0.978  11.011
26702W        W99116  37.530  40.374   0.847
26703W        W99117  35.402  10.267  11.909
26704W        W99118  17.621   0.800   5.183
26705W        W99119  20.602  38.910   2.187
26706W        W99120  40.319   2.876  10.435
26707W        W99121  14.180  23.177   1.867
26708W        W99122  16.805  31.060   0.300
26709W        W99123   0.380   2.935  12.402
26710W        W99124  35.058  43.005   1.336
26711W        W99125  13.136  32.109  14.483
26712W        W99126  21.514  38.946   3.152
26713W        W99127  16.676  39.956  14.933
26714W        W99128   6.747   9.346   0.953
26715W        W99129   9.777   7.842  14.374
26716W        W99130   4.423  31.918  11.908
26717W        W99131  38.521  31.518   0.739
26718W        W99132  23.234  16.295  14.969
26719W        W99133   3.855  26.061   3.835
26720W        W99134  38.039   2.753  11.611
26721W        W99135  33.912   1.393  10.948
26722W        W99136   4.877  43.380  11.378
26723W        W99137  13.232  21.745   3.708
26724W        W99138  17.148  21.651   2.754
26725W        W99139  21.656  11.365   3.838
26726W        W99140   0.951   2.375   0.327
26727W        W99141   3.764  44.942  12.024
26728W        W99142   0.277  24.087   2.403
26729W        W99143  26.021  28.989  12.363
26730W        W99144  19.249   0.358  14.380
26731W        W99145  21.555   5.836  11.527
26732W        W99146   5.691  26.133  14.782
26733W        W99147  17.628  14.808  13.351
26734W        W99148  36.048   8.695  10.639
26735W        W99149  43.944  27.033   4.709
26736W        W99150  43.329  28.979  14.407
26737W        W99151  17.741  20.236  10.956
26738W        W99152  28.082  27.671  12.845
26739W        W99153   5.931  22.223   2.751
26740W        W99154  18.089   8.321   3.174
26741W        W99155  36.522  39.054  13.823
26742W        W99156  22.524   6.853   2.896
26743W        W99157  34.882  19.683  13.495
26744W        W99158  16.164   2.232  10.417
26745W        W99159  42.968   0.863  11.421
26746W        W99160  28.937   4.941  11.035
26747W        W99161  26.176  37.378   4.237
26748W        W99162  36.420  12.656  10.032
26749W        W99163   1.829  30.485   0.331
26750W        W99164   9.335  33.458   3.341
26751W        W99165  12.300  26.010   4.286
26752W        W99166  16.663  16.642   1.390
26753W        W99167   6.335  28.655  11.073
26754W        W99168   0.957  43.852   1.774
26755W        W99169  26.130  20.123   3.835
26756W        W99170  26.555  35.419  13.921
26757W        W99171   8.723  41.325   1.765
26758W        W99172  42.284  38.923   0.928
26759W        W99173  17.179   5.868  11.452
26760W        W99174  30.945  24.050   4.282
26761W        W99175  33.619  13.260  13.021
26762W        W99176   3.712  28.566   9.446
26763W        W99177  17.768   8.794   3.205
26764W        W99178  26.090  21.263  12.089
26765W        W99179   8.167  30.029   0.405
26766W        W99180   1.783  23.559  12.981
26767W        W99181  38.868   2.766  10.551
26768W        W99182   6.267   8.368   1.863
26769W        W99183  24.052  25.127   4.660
26770W        W99184  33.941   0.335  13.318
26771W        W99185  19.079  12.271  10.533
26772W        W99186  22.507   9.813   2.842
26773W        W99187  13.734  42.433  12.067
26774W        W99188  27.513  26.001  13.391
26775W        W99189  20.628  28.650   4.335
26776W        W99190   0.414   4.392  13.968
26777W        W99191   4.350  42.952   9.993
26778W        W99192  13.677  19.158   2.681
26779W        W99193  42.951  41.842  12.852
26780W        W99194   8.758  38.039  13.478
26781W        W99195  12.635   9.874   2.815
26782W        W99196  26.543  42.005   3.788
26783W        W99197  19.629  27.462   2.263
26784W        W99198   3.734   6.334   4.635
26785W        W99199  17.684  22.618  12.995
26786W        W99200   1.460  37.838  14.943
26787W        W99201  18.257  36.481  12.996
26788W        W99202  35.360  42.799  14.845
26789W        W99203  14.799  30.010  14.998
26790W        W99204  38.363  37.447   2.349
26791W        W99205  41.460   5.920   4.723
26792W        W99206  22.509  30.562   2.364
26793W        W99207   9.236  33.590   0.392
26794W        W99208  11.174  30.098   4.737
26795W        W99209  39.854  41.822   2.790
26796W        W99210  11.232  30.019  13.347
26797W        W99211  17.795  32.084  11.563
26798W        W99212  10.139  42.848   4.613
26799W        W99213  15.181  38.467  14.846
26800W        W99214  10.186   9.750   1.304
26801W        W99215  18.201  22.078  12.938
26802W        W99216  29.977  29.983  13.459
26803W        W99217  20.671   0.917   2.899
26804W        W99218  40.432  32.434   2.290
26805W        W99219  18.288  14.106   2.204
26806W        W99220  15.187  32.056  12.528
26807W        W99221  37.485  38.384   4.627
26808W        W99222  44.383  11.245  12.833
26809W        W99223  44.357  41.795   1.305
26810W        W99224  39.998   2.453   4.711
26811W        W99225  39.441  11.733   1.784
26812W        W99226   3.794   6.244   1.833
26813W        W99227  12.757   2.319  13.546
26814W        W99228  26.671  19.138   1.368
26815W        W99229  19.101  38.471   1.743
26816W        W99230   4.802  19.273   0.737
26817W        W99231  27.973  16.784   3.358
26818W        W99232  21.162   8.887   3.868
26819W        W99233  34.614  40.401  11.506
26820W        W99234  15.256   6.778   2.694
26821W        W99235  36.351  42.333   1.727
26822W        W99236  43.841  20.638   2.305
26823W        W99237  14.741   7.822   1.751
26824W        W99238  32.440  11.722   4.353
26825W        W99239  29.594  41.491  12.527
26826W        W99240   6.877   6.400  10.613
26827W        W99241  18.073  33.520  10.967
26828W        W99242   7.343  37.961  12.963
26829W        W99243  10.658  42.306  14.333
26830W        W99244  10.321  13.765   4.795
26831W        W99245   3.903   7.218  14.333
26832W        W99246  27.055   4.400  14.309
26833W        W99247   9.681  16.609   1.741
26834W        W99248  12.743  39.327   2.711
26835W        W99249   6.252  44.393   1.413
26836W        W99250  22.550   5.322  12.419
26837W        W99251  32.112  41.444  12.551
26838W        W99252  23.635  29.035   2.810
26839W        W99253  19.599   4.710   3.803
26840W        W99254  27.559  42.476   3.180
26841W        W99255   4.802   8.717  10.931
26842W        W99256   0.925  22.533   0.944
26843W        W99257   5.870  38.907   4.247
26844W        W99258   7.678   4.739  13.396
26845W        W99259   7.804  15.655  11.010
26846W        W99260  17.252  32.485   4.233
26847W        W99261  15.098   6.899   3.793
26848W        W99262  35.473  32.906  13.422
26849W        W99263  30.037  43.795  13.363
26850W        W99264  14.623  29.929   2.844
26851W        W99265  17.170  19.548   4.669
26852W        W99266  31.621  43.835  13.333
26853W        W99267   6.736  31.108  13.797
26854W        W99268  27.516  12.629   2.288
26855W        W99269  36.467  13.301  10.636
26856W        W99270   9.832  19.227  10.988
26857W        W99271   6.365  14.610   9.534
26858W        W99272  14.590  36.512  14.349
26859W        W99273   3.398  40.547   2.393
26860W        W99274  43.385  38.420   4.211
26861W        W99275  35.953  14.647   0.753
26862W        W99276  12.844  37.483  11.517
26863W        W99277  40.007  15.631  12.859
26864W        W99278  13.287  19.232  12.071
26865W        W99279   4.756  13.139  13.395
26866W        W99280   4.772  37.450  11.882
26867W        W99281  36.868  11.635   3.720
26868W        W99282  32.430  43.460  13.410
26869W        W99283  16.180  22.216   1.794
26870W        W99284   3.780   5.899  13.960
26871W        W99285  16.093   6.234  10.524
26872W        W99286  12.611  13.199   2.830
26873W        W99287  23.498  10.190  14.845
26874W        W99288  14.109   6.894  11.096
26875W        W99289  30.452   3.874  14.800
26876W        W99290  25.595  14.815   1.271
26877W        W99291  19.565  23.567   3.704
26878W        W99292  17.603  11.858  14.948
26879W        W99293  20.250   6.247  12.055
26880W        W99294  21.716  39.473   4.798
26881W        W99295   2.845  18.658   3.306
26882W        W99296  22.689  34.980   0.963
26883W        W99297  35.955  26.566  12.451
26884W        W99298   9.687  18.622  14.949
26885W        W99299  44.976  23.537  13.039
26886W        W99300  40.001   7.680  11.923
26887W        W99301  17.757  28.979  12.570
26888W        W99302  42.412  41.491   0.813
26889W        W99303  35.511  10.196   0.292
26890W        W99304  23.553   0.311  14.024
26891W        W99305  33.961   2.750  14.447
26892W        W99306  44.924  25.702  12.871
26893W        W99307   5.761  23.996   1.806
26894W        W99308   6.722  39.419   4.710
26895W        W99309   5.229  25.072  11.420
26896W        W99310  32.886  23.516   4.739
26897W        W99311  34.466  43.848  14.910
26898W        W99312  21.536  32.486  10.989
26899W        W99313  29.026  35.415  11.427
26900W        W99314   3.275   8.836  10.619
26901W        W99315  40.922  40.938  10.617
26902W        W99316  30.651  25.011   2.402
26903W        W99317  16.103  43.967   0.865
26904W        W99318   0.345  25.011   3.236
26905W        W99319  33.899  29.087  14.452
26906W        W99320  19.113  12.748  14.019
26907W        W99321  31.436  24.652  10.434
26908W        W99322  31.116  37.870   3.352
26909W        W99323  21.125  44.856  10.426
26910W        W99324  43.342  31.544   2.360
26911W        W99325   5.204  28.453   5.578
26912W        W99326  22.168  11.202   3.717
26913W        W99327   0.791  32.634   3.270
26914W        W99328  34.915  18.283  14.802
26915W        W99329  23.549  13.320   0.420
26916W        W99330  40.467   7.733   4.736
26917W        W99331  24.109   5.393   1.928
26918W        W99332  22.220  25.600  12.934
26919W        W99333   6.294  43.366   1.874
26920W        W99334  12.180  30.652   3.305
26921W        W99335  22.087  28.508   4.664
26922W        W99336  27.993   8.394   4.121
26923W        W99337  21.018  40.331   1.782
26924W        W99338  23.131  16.215  13.806
26925W        W99339  22.523   2.811   3.639
26926W        W99340  36.920   8.366  11.464
26927W        W99341  31.480   3.893  10.509
26928W        W99342  41.458  36.438  13.014
26929W        W99343  10.365  22.107  13.526
26930W        W99344   4.344  20.149   3.252
26931W        W99345  12.791  37.959  14.433
26932W        W99346  18.650  13.759  13.467
26933W        W99347  10.847   8.878  14.431
26934W        W99348   3.367  42.911   1.437
26935W        W99349   3.727  19.607  14.472
26936W        W99350   9.717  29.427  11.433
26937W        W99351  23.573  35.367   1.309
26938W        W99352  44.496  13.253  13.846
26939W        W99353  18.569  11.250   2.787
26940W        W99354  16.751  37.355  14.793
26941W        W99355  36.467  35.547   1.254
26942W        W99356  40.995  44.272  13.001
26943W        W99357  20.706  14.610  10.913
26944W        W99358   9.180  19.255   0.417
26945W        W99359   3.325  24.986   5.257
26946W        W99360  12.199  18.136   4.698
26947W        W99361   1.355  25.121  14.434
26948W        W99362  30.053  40.966   0.257
26949W        W99363  36.567  35.438  13.458
26950W        W99364  28.940  28.591  11.490
26951W        W99365  34.488  40.401  14.316
26952W        W99366  17.245  16.093  11.483
26953W        W99367  33.497  36.556  12.378
26954W        W99368  31.945  37.432  13.791
26955W        W99369   9.832  16.165   1.378
26956W        W99370  24.220   9.882   1.772
26957W        W99371   1.757  42.007  12.848
26958W        W99372  26.589  26.619  13.343
26959W        W99373  19.154  11.655   1.741
26960W        W99374  41.938  30.520  12.826
26961W        W99375  14.229  35.931   2.202
26962W        W99376  12.636   6.914   2.307
26963W        W99377  43.372  38.910   3.203
26964W        W99378  11.256  32.927   3.331
26965W        W99379   9.691  13.773   2.251
26966W        W99380  13.706  10.166  12.440
26967W        W99381  19.254  17.750   0.478
26968W        W99382   5.703  41.872  14.380
26969W        W99383  13.771  37.976   0.372
26970W        W99384  22.145  43.869   3.774
26971W        W99385  20.271   6.318  13.989
26972W        W99386  16.142   3.826   2.187
26973W        W99387   6.225  24.501  11.588
26974W        W99388  24.048  31.548   0.379
26975W        W99389  37.855  29.670  11.021
26976W        W99390  18.169  19.593   0.423
26977W        W99391  44.307   1.453  12.852
26978W        W99392  10.153  14.670  10.427
26979W        W99393  25.041   8.213   1.699
26980W        W99394  18.765   5.771  14.769
26981W        W99395   6.277  25.471  12.518
26982W        W99396  13.781   1.866   4.655
26983W        W99397  25.063  34.952   3.380
26984W        W99398  41.004  22.156  10.912
26985W        W99399   8.378  23.631  12.831
26986W        W99400  26.130  42.018   4.325
26987W        W99401   4.426  16.204  14.321
26988W        W99402  29.975  11.685   2.787
26989W        W99403   6.346  23.704   0.438
26990W        W99404   2.939  25.501  13.394
26991W        W99405  36.892   9.332   2.672
26992W        W99406  19.195   7.900  12.023
26993W        W99407  24.053  32.443   3.857
26994W        W99408  28.663  33.994   2.859
26995W        W99409   5.304   0.384  10.602
26996W        W99410  14.217  41.438  10.479
26997W        W99411   3.342   2.909  13.878
26998W        W99412   1.912  18.182   4.171
26999W        W99413  33.381  41.933  10.900
27000W        W99414  24.189  13.247  14.352
27001W        W99415  14.736   8.205  10.622
27002W        W99416   7.224  22.510  11.056
27003W        W99417  27.624  40.969   2.417
27004W        W99418  10.758  43.820   2.818
27005W        W99419  29.163  13.117   0.832
27006W        W99420  14.825  31.438  13.396
27007W        W99421  28.496   0.801  12.036
27008W        W99422  39.541  25.994   1.883
27009W        W99423  27.627  22.623   1.860
27010W        W99424  35.090   3.336   1.696
27011W        W99425  20.714  11.859  13.357
27012W        W99426  18.281  30.636  11.451
27013W        W99427  36.068  29.436   4.150
27014W        W99428  14.111  35.924  14.440
27015W        W99429  27.169  15.763  14.007
27016W        W99430  44.411   6.324   4.600
27017W        W99431  23.520  42.006  14.493
27018W        W99432  13.798  31.469   1.382
27019W        W99433   8.663  14.163  14.023
27020W        W99434  16.179  24.650  11.027
27021W        W99435   1.929  17.134  14.313
27022W        W99436  15.617  18.759   0.417
27023W        W99437   1.297  16.148   4.163
27024W        W99438  26.700  12.841  11.097
27025W        W99439  37.354  35.047  13.450
27026W        W99440   4.920  27.051   5.098
27027W        W99441  17.077  44.376   2.776
27028W        W99442  26.606  21.747  12.500
27029W        W99443  41.458   1.324   2.218
27030W        W99444  32.478  13.316  10.146
27031W        W99445  33.581  27.045   1.219
27032W        W99446  34.036   6.406   4.791
27033W        W99447  36.941  20.664   0.789
27034W        W99448  33.131  35.884   3.217
27035W        W99449  21.260   7.382  14.376
27036W        W99450  35.926  23.207  13.443
27037W        W99451  32.993  28.519   4.182
27038W        W99452   2.401  30.517  13.347
27039W        W99453  24.556  26.649   0.892
27040W        W99454  29.113  41.942  12.085
27041W        W99455  22.595  17.670   2.787
27042W        W99456  36.368  43.777   0.911
27043W        W99457  36.967   3.308  13.457
27044W        W99458  33.071   4.301  12.469
27045W        W99459  37.964  17.063   1.430
27046W        W99460  31.896  27.107  10.899
27047W        W99461  35.905  33.433   2.817
27048W        W99462   3.378   6.813  13.801
27049W        W99463  35.401  32.889   2.227
27050W        W99464  12.261  21.573   4.715
27051W        W99465   0.391   2.314   3.376
27052W        W99466  42.462  14.711  10.417
27053W        W99467   1.741  28.555   2.770
27054W        W99468   6.375  15.324   1.870
27055W        W99469  20.243  10.257   0.340
27056W        W99470  15.258  34.444  12.472
27057W        W99471   9.342   8.224   2.369
27058W        W99472  18.053  35.417   0.733
27059W        W99473  18.264  38.433  10.504
27060W        W99474  43.885   4.901   4.119
27061W        W99475  32.566  20.558  10.944
27062W        W99476  27.061  43.382  14.499
27063W        W99477  36.936  26.528   3.275
27064W        W99478  15.301  39.391  11.084
27065W        W99479  25.686  40.011  13.856
27066W        W99480  34.392  44.839   4.213
27067W        W99481   7.693   6.381  11.019
27068W        W99482  31.000  27.117   1.934
27069W        W99483  44.411   8.337  11.967
27070W        W99484  43.362  36.874  12.440
27071W        W99485   8.659  41.376   2.875
27072W        W99486  33.599   4.726   5.128
27073W        W99487  43.331  40.520   2.323
27074W        W99488  11.263  41.871  14.919
27075W        W99489  39.946  22.598   0.381
27076W        W99490  25.494  33.957  11.386
27077W        W99491  42.488  13.703   0.827
27078W        W99492  26.955   6.215  14.790
27079W        W99493   5.912  31.950  12.373
27080W        W99494  30.160   1.848  13.001
27081W        W99495  23.130  42.352   1.802
27082W        W99496  18.265   0.839   1.344
27083W        W99497   3.334  29.989   0.959
27084W        W99498   4.835   3.748   0.768
27085W        W99499  43.910  38.874  14.324
27086W        W99500  34.614  44.425  13.958
27087W        W99501  21.569  11.339   1.807
27088W        W99502   7.255  35.876   4.806
27089W        W99503  17.622  30.646   4.308
27090W        W99504  36.491  43.361   0.820
27091W        W99505  32.916   5.299  12.504
27092W        W99506  34.010   9.206   4.340
27093W        W99507  26.583  18.254  11.090
27094W        W99508  41.861   3.933  13.825
27095W        W99509  20.707  19.649  11.609
27096W        W99510  33.447  44.895  13.979
27097W        W99511  24.050  12.717   4.830
27098W        W99512   2.886  30.417  12.886
27099W        W99513   6.848  15.125   3.686
27100W        W99514  24.114  30.436  14.440
27101W        W99515  29.481  16.720  14.364
27102W        W99516  32.975  25.476   2.237
27103W        W99517   6.843  15.268  12.928
27104W        W99518  13.701  16.782   0.872
27105W        W99519   0.827  15.156  13.906
27106W        W99520   2.413   5.840   2.866
27107W        W99521   6.844  31.570   0.266
27108W        W99522   0.262  24.514  11.505
27109W        W99523  34.979  39.485  13.432
27110W        W99524  31.423  23.990   0.778
27111W        W99525  42.793  10.799  14.917
27112W        W99526  19.666  24.063   5.183
27113W        W99527  37.883   0.332  10.490
27114W        W99528  22.734  25.596   0.918
27115W        W99529  24.204  43.797   9.621
27116W        W99530  31.145  40.545  11.011
27117W        W99531   9.836  25.126  14.349
27118W        W99532   8.709  27.110   3.728
27119W        W99533  34.086  44.973  11.858
27120W        W99534  35.936  25.018  12.020
27121W        W99535  33.979  44.467   4.254
27122W        W99536  40.961  22.210   2.293
27123W        W99537  43.293  25.208   2.306
27124W        W99538  27.006   5.904   4.168
27125W        W99539   3.838   1.865  11.014
27126W        W99540  38.340  40.823  14.370
27127W        W99541  19.767  35.361   1.726
27128W        W99542   7.345  40.933   4.646
27129W        W99543  15.303  30.614   4.145
27130W        W99544   0.850  40.329   0.427
27131W        W99545   2.444  28.490  13.371
27132W        W99546  27.948   4.801   1.932
27133W        W99547  18.086  39.488   2.180
27134W        W99548  11.643   8.853  14.820
27135W        W99549  25.514  30.581   3.675
27136W        W99550  38.437  31.622  14.325
27137W        W99551  11.705  17.723   1.233
27138W        W99552  44.959   4.875   1.296
27139W        W99553  25.102  37.494  11.008
27140W        W99554   2.351   7.838  11.926
27141W        W99555   6.301  37.849   1.420
27142W        W99556  34.474  13.805   2.360
27143W        W99557   9.778  13.165   4.797
27144W        W99558   7.353  18.243  12.475
27145W        W99559  33.059   3.883  12.386
27146W        W99560  17.715  36.050   1.451
27147W        W99561  35.363   8.696  10.909
27148W        W99562  34.927  20.596   2.803
27149W        W99563  16.087  20.702  12.367
27150W        W99564  22.708  16.076   2.816
27151W        W99565  35.996  37.868   2.786
27152W        W99566  12.774  14.747  12.859
27153W        W99567  19.261  27.128   2.729
27154W        W99568  36.361   0.812  14.918
27155W        W99569  44.839   8.289  14.842
27156W        W99570  11.196  12.152  11.028
27157W        W99571  44.847  12.824   2.341
27158W        W99572  39.420  19.771   2.861
27159W        W99573  22.578  13.694  14.862
27160W        W99574  12.252  32.981  13.409
27161W        W99575  42.521  30.908  12.875
27162W        W99576  41.810  19.592   5.219
27163W        W99577  34.388   2.799  14.951
27164W        W99578  12.814  44.935  10.609
27165W        W99579  31.452   0.769   4.818
27166W        W99580  38.881   7.171   9.922
27167W        W99581   2.278  43.777   0.398
27168W        W99582  19.196  20.584  14.822
27169W        W99583   3.360  16.770  12.420
27170W        W99584  25.549  44.951   0.341
27171W        W99585  43.274  11.798   1.435
27172W        W99586  14.331  33.392  13.937
27173W        W99587  25.977   1.256  13.499
27174W        W99588  22.009  37.465  10.127
27175W        W99589  40.530  40.458   0.463
27176W        W99590  12.846  39.028  12.453
27177W        W99591   4.256  39.558   9.954
27178W        W99592  44.391  26.173  13.963
27179W        W99593  17.743  37.086  14.425
27180W        W99594   3.371  42.795   3.869
27181W        W99595  14.816  44.452  12.000
27182W        W99596   1.918  37.365   1.804
27183W        W99597   7.748  12.174  13.340
27184W        W99598  34.598  13.119   2.889
27185W        W99599  21.743  43.270   2.356
27186W        W99600  35.865  13.668  13.021
27187W        W99601   7.816  20.557  13.536
27188W        W99602  32.581  33.550  11.425
27189W        W99603  13.197  36.088   0.923
27190W        W99604  26.011  29.657   0.261
27191W        W99605  37.574   4.299   1.813
27192W        W99606  30.517  28.455  14.409
27193W        W99607  16.138  14.714   4.777
27194W        W99608  10.830  41.958   2.750
27195W        W99609  32.475  34.610  10.638
27196W        W99610   5.276   5.749  14.489
27197W        W99611  24.651  16.206  14.505
27198W        W99612  17.263  30.514  14.414
27199W        W99613  15.129  24.161  14.956
27200W        W99614  23.637   1.331   1.303
27201W        W99615  23.127  20.105   2.269
27202W        W99616  37.925   2.742   2.757
27203W        W99617  17.189  20.180  11.434
27204W        W99618   1.818   0.925  13.798
27205W        W99619  20.728  44.844  14.992
27206W        W99620  26.555  20.041  14.863
27207W        W99621  19.773  17.681   3.349
27208W        W99622   0.400   5.204   3.764
27209W        W99623  31.513   5.322  14.795
27210W        W99624  10.258  44.785  14.496
27211W        W99625  25.112  33.583   3.275
27212W        W99626  19.605  35.027  14.762
27213W        W99627   8.879  15.726  12.455
27214W        W99628  19.590  38.512  11.934
27215W        W99629  15.182  37.940   3.336
27216W        W99630  16.168  23.722   0.830
27217W        W99631  33.503  18.087  10.999
27218W        W99632  38.567  32.491  13.885
27219W        W99633  27.643  32.531  14.419
27220W        W99634   0.772  38.385   4.203
27221W        W99635   5.350  43.406   4.278
27222W        W99636  14.609  29.146   1.378
27223W        W99637  15.127  33.895  13.857
27224W        W99638  24.492  16.311  12.516
27225W        W99639  23.638  43.381  10.971
27226W        W99640  36.048  26.018  14.411
27227W        W99641   5.304  27.635   4.349
27228W        W99642  42.423  33.486   0.471
27229W        W99643  12.628  23.198   3.304
27230W        W99644  35.604  39.854  13.923
27231W        W99645  31.910   5.920  12.340
27232W        W99646  37.378  13.835  11.983
27233W        W99647  43.478  40.024   4.201
27234W        W99648  40.949  15.742   0.470
27235W        W99649  15.666  42.477   2.856
27236W        W99650   9.354  12.312  11.896
27237W        W99651  11.642   5.342   2.855
27238W        W99652  22.016  28.481   0.269
27239W        W99653  27.512  35.441  11.877
27240W        W99654  11.140  42.331  13.992
27241W        W99655  41.938  30.652  10.447
27242W        W99656  20.213  33.950  11.522
27243W        W99657  27.675  18.630   0.286
27244W        W99658   4.910  44.502   2.846
27245W        W99659  40.027  19.689  12.418
27246W        W99660   0.784  14.620   4.192
27247W        W99661  15.761   5.344  12.889
27248W        W99662   2.428  29.595   3.369
27249W        W99663  31.549  16.176   2.700
27250W        W99664   3.913  41.991  14.868
27251W        W99665  25.671  40.972   0.242
27252W        W99666  18.646  14.270  14.897
27253W        W99667  42.805   5.863   2.222
27254W        W99668  20.043   0.852   3.737
27255W        W99669  43.945  10.178  12.096
27256W        W99670   9.759  19.599   1.815
27257W        W99671  44.403  37.555  12.900
27258W        W99672  34.433  19.146   1.902
27259W        W99673  22.529  21.708   2.746
27260W        W99674  36.875  14.689   2.405
27261W        W99675  22.175  39.036   2.784
27262W        W99676  21.186  33.922   2.368
27263W        W99677   0.968  31.014   1.399
27264W        W99678  28.055   7.771  10.913
27265W        W99679  27.531  19.108  13.482
27266W        W99680  33.975  17.144   0.478
27267W        W99681  22.067  30.118   3.794
27268W        W99682  26.524  35.389  12.900
27269W        W99683  13.718   1.354  13.880
27270W        W99684  11.196   0.911  12.046
27271W        W99685   8.312  14.696   1.435
27272W        W99686   3.926  22.247  11.983
27273W        W99687  19.619  42.920   2.803
27274W        W99688  19.255  37.059  12.410
27275W        W99689   9.241   0.851  14.506
27276W        W99690   8.174  16.625   3.333
27277W        W99691  41.954  33.576  13.370
27278W        W99692  18.603  40.025  13.314
27279W        W99693  36.436  11.771  11.450
27280W        W99694  30.579  34.022   1.776
27281W        W99695   3.279  20.113  13.531
27282W        W99696  35.494  29.921   1.430
27283W        W99697  34.541  34.969   4.761
27284W        W99698  39.974  42.864   4.237
27285W        W99699  27.445  11.630  10.468
27286W        W99700  32.467  33.096  13.486
27287W        W99701  38.470  30.642   0.266
27288W        W99702  27.156   4.347   1.707
27289W        W99703   4.736  25.073   4.265
27290W        W99704  25.102  31.505   2.209
27291W        W99705  39.850  10.709  12.574
27292W        W99706  22.996   3.284   0.391
27293W        W99707  34.416  11.632   0.874
27294W        W99708  30.499  18.213   4.835
27295W        W99709   9.155  28.483   4.726
27296W        W99710  11.814   1.830   0.886
27297W        W99711   0.918  24.545  13.418
27298W        W99712   8.698   9.243   4.630
27299W        W99713   7.696  11.205  12.089
27300W        W99714   6.696  23.017  11.954
27301W        W99715  33.057  23.234  10.556
27302W        W99716  17.614   2.902   0.838
27303W        W99717  18.212  41.346  11.929
27304W        W99718   1.813  26.462   5.274
27305W        W99719  16.095  19.124   1.881
27306W        W99720  39.057  38.888   4.606
27307W        W99721  34.424  11.226  14.454
27308W        W99722  42.327  27.564   4.117
27309W        W99723  25.581   8.873  14.507
27310W        W99724   8.871   4.342   0.800
27311W        W99725   8.341   8.215   4.831
27312W        W99726  16.269  29.617   1.910
27313W        W99727  16.291  43.002  14.012
27314W        W99728  42.346  35.905   0.929
27315W        W99729   5.795  39.886   2.299
27316W        W99730  44.819  21.692  10.644
27317W        W99731  20.028   4.839   0.321
27318W        W99732  44.286  16.240  14.299
27319W        W99733  31.592  14.135  11.047
27320W        W99734  26.614  28.547  10.893
27321W        W99735  27.546  36.918   3.730
27322W        W99736  20.270  26.178  11.078
27323W        W99737   8.714   3.719  12.905
27324W        W99738  27.120  36.941  10.989
27325W        W99739  28.122  28.567   4.190
27326W        W99740  22.146  10.229   9.971
27327W        W99741  42.482  28.597  14.882
27328W        W99742  35.515  35.379   3.242
27329W        W99743  17.222  21.085   9.940
27330W        W99744  15.298  12.839   4.327
27331W        W99745  30.427  18.197  13.821
27332W        W99746  34.881  27.166   4.685
27333W        W99747  27.990   9.877  12.524
27334W        W99748  39.004  30.994   3.787
27335W        W99749   3.824   4.869   4.171
27336W        W99750   2.804   9.774   4.816
27337W        W99751  30.487  18.100  14.941
27338W        W99752  44.481   4.852   9.999
27339W        W99753  11.358  15.304   0.460
27340W        W99754  33.090  10.169   4.826
27341W        W99755   3.906  21.155   1.356
27342W        W99756  21.033   5.381   4.776
27343W        W99757  25.964   9.241   2.856
27344W        W99758  20.250   3.258   0.941
27345W        W99759  37.983   1.386  13.864
27346W        W99760  41.998  27.079   0.785
27347W        W99761  18.568   2.308   3.638
27348W        W99762  24.608  25.195   4.346
27349W        W99763  15.637  12.120  10.622
27350W        W99764   5.779  30.108  14.298
27351W        W99765   8.317  17.157  11.921
27352W        W99766  27.480  36.363  13.980
27353W        W99767  16.100  15.697  14.483
27354W        W99768  21.127   8.324  13.926
27355W        W99769  10.876  11.350   0.256
27356W        W99770   4.941  24.123   4.302
27357W        W99771  31.042  34.017  11.500
27358W        W99772  32.429  11.283   1.346
27359W        W99773  40.449   2.938   4.647
27360W        W99774  36.854  29.469   2.867
27361W        W99775  14.178   2.726  12.050
27362W        W99776  43.341  40.032  10.544
27363W        W99777  17.733  11.131   2.206
27364W        W99778  29.053  33.109   1.268
27365W        W99779  23.146   7.247  11.516
27366W        W99780   3.856   0.829  14.362
27367W        W99781  44.940   1.293  14.306
27368W        W99782   3.901  24.029  13.007
27369W        W99783  36.369   9.185   2.261
27370W        W99784  36.047  14.693   0.300
27371W        W99785  14.827  41.015  13.943
27372W        W99786  13.631  28.173  10.435
27373W        W99787  41.517  26.611  14.760
27374W        W99788  41.451  10.288  14.361
27375W        W99789  41.335   9.799  12.382
27376W        W99790  37.402  43.867   2.830
27377W        W99791  35.951  11.773   1.375
27378W        W99792  41.442  25.503  12.539
27379W        W99793  25.131   3.301   0.901
27380W        W99794  44.968  29.055   1.324
27381W        W99795  33.524  38.942   3.746
27382W        W99796  19.175  32.096  12.042
27383W        W99797  34.496  35.559   2.231
27384W        W99798  24.223  36.584   4.689
27385W        W99799  10.745  31.509   4.245
27386W        W99800  21.548  17.194  13.434
27387W        W99801   1.849  41.850   1.696
27388W        W99802  30.545  12.256   4.191
27389W        W99803  36.455   1.749   0.454
27390W        W99804  31.579  19.255  14.392
27391W        W99805  10.268  37.457   0.277
27392W        W99806  44.812  12.123  12.017
27393W        W99807  27.494  37.957   4.262
27394W        W99808  32.393  26.043  10.623
27395W        W99809  18.279  44.482  14.001
27396W        W99810  10.341  20.660  12.516
27397W        W99811  10.730   7.370  10.608
27398W        W99812  11.706   2.234  10.465
27399W        W99813   3.843  43.982   1.844
27400W        W99814  41.503  11.340  14.468
27401W        W99815  32.079  14.106   1.771
27402W        W99816  22.685  34.446  14.508
27403W        W99817  35.517  13.202   2.786
27404W        W99818  35.024  10.196   3.782
27405W        W99819  37.538   1.334   2.798
27406W        W99820  13.685  34.386  13.863
27407W        W99821  20.271  18.179   2.305
27408W        W99822   0.838  42.914   3.752
27409W        W99823  38.562  26.031  13.440
27410W        W99824  11.642  31.555   2.662
27411W        W99825  18.779  44.360  13.435
27412W        W99826  22.527  18.083   1.815
27413W        W99827  14.204  23.559   0.731
27414W        W99828   3.315  19.235  14.289
27415W        W99829  18.578  25.053  14.379
27416W        W99830  12.834  21.063  13.858
27417W        W99831  23.102  24.092  14.427
27418W        W99832  25.482  35.106   4.679
27419W        W99833  12.359  20.134   3.292
27420W        W99834  44.956  13.786  10.907
27421W        W99835  24.061  18.215  11.403
27422W        W99836  38.068  23.147  10.486
27423W        W99837   4.248  20.588   4.765
27424W        W99838  29.651  15.708  12.392
27425W        W99839  43.388   5.923  12.003
27426W        W99840   5.423  27.640   2.346
27427W        W99841  19.146  32.498   2.315
27428W        W99842  11.199  44.302  12.887
27429W        W99843  41.898  28.017  12.936
27430W        W99844  13.771  14.176   1.425
27431W        W99845   0.850  15.579  12.493
27432W        W99846  26.183  13.315   0.453
27433W        W99847  11.679  39.820   1.288
27434W        W99848   5.831  29.499  11.408
27435W        W99849   7.283  29.539  12.518
27436W        W99850  24.180  11.643   4.354
27437W        W99851  20.087  44.492   1.931
27438W        W99852  15.718  18.763   4.157
27439W        W99853  27.639  30.606  13.331
27440W        W99854  37.372   0.823   1.912
27441W        W99855   1.797  38.024  13.415
27442W        W99856  35.938  11.228  11.457
27443W        W99857  23.717  19.564   3.659
27444W        W99858  37.915  43.970   0.876
27445W        W99859  38.998  44.296  10.516
27446W        W99860  34.450  15.743  13.352
27447W        W99861  16.585   9.387   1.934
27448W        W99862   9.704   7.291   4.135
27449W        W99863  32.094  43.408   2.765
27450W        W99864   6.262  15.267  14.425
27451W        W99865  32.397  11.759   3.251
27452W        W99866  40.993  26.076  13.495
27453W        W99867  29.633  37.912  14.971
27454W        W99868  12.224  23.518  14.431
27455W        W99869  34.073  40.943  11.452
27456W        W99870  33.065  21.067  13.485
27457W        W99871  39.379  11.296   0.785
27458W        W99872  11.841   7.879   4.266
27459W        W99873  25.218  44.379   0.819
27460W        W99874  12.162  34.446  13.043
27461W        W99875  22.582  11.718   1.812
27462W        W99876  32.991  22.109   3.662
27463W        W99877  24.980  38.044  10.891
27464W        W99878   9.721   0.406  14.776
27465W        W99879  28.100  22.731   4.702
27466W        W99880  26.122  33.564  14.857
27467W        W99881  31.954  38.906   5.105
27468W        W99882  25.703  39.505   4.616
27469W        W99883  40.340  32.088  13.542
27470W        W99884   6.678  17.626   1.763
27471W        W99885   7.808   6.761  11.487
27472W        W99886  38.354  26.190   1.334
27473W        W99887  31.574   7.309  11.038
27474W        W99888   7.718  28.510   3.365
27475W        W99889  19.544  20.536  13.804
27476W        W99890  11.669   8.289   3.370
27477W        W99891  22.132  32.073  14.381
27478W        W99892  31.986  29.646  13.497
27479W        W99893  21.700   6.677   3.847
27480W        W99894  18.547  27.101  11.052
27481W        W99895  10.737  37.458   2.729
27482W        W99896  19.569  19.111  14.422
27483W        W99897  25.172   4.773   5.233
27484W        W99898  17.558  28.052  12.389
27485W        W99899  24.187  34.033  10.588
27486W        W99900  25.680  21.047   2.383
27487W        W99901  27.647   1.931   4.160
27488W        W99902  44.778  40.961  13.873
27489W        W99903  18.147  18.554  13.016
27490W        W99904  24.180  27.661  12.458
27491W        W99905  21.215  37.336  10.089
27492W        W99906  39.501  18.145  10.987
27493W        W99907   1.835  29.164  10.550
27494W        W99908  22.020  24.056   3.291
27495W        W99909  33.946  12.689  13.860
27496W        W99910  40.478  42.501   1.910
27497W        W99911  41.433  20.053  10.917
27498W        W99912  26.046  15.737  10.573
27499W        W99913  33.899  40.548  10.472
27500W        W99914   3.758  13.109  12.878
27501W        W99915  36.081  23.135   3.854
27502W        W99916  29.144  22.044   2.776
27503W        W99917  36.462  13.753   2.696
27504W        W99918  15.322  22.171   3.687
27505W        W99919  27.963  43.441  11.477
27506W        W99920   5.332  39.996  14.317
27507W        W99921  16.675  15.120  12.951
27508W        W99922  38.427  37.987  11.022
27509W        W99923  37.920  15.085  11.430
27510W        W99924  10.360  21.561   1.239
27511W        W99925   4.436  44.923   4.298
27512W        W99926  18.151   6.338  14.404
27513W        W99927  40.492  42.420   2.341
27514W        W99928  43.400  21.574  14.945
27515W        W99929   2.959  34.510   0.281
27516W        W99930   9.711  23.087  12.835
27517W        W99931  22.079   8.789   0.443
27518W        W99932  15.624  26.115  10.111
27519W        W99933   6.335  24.602   4.799
27520W        W99934   7.783  35.515  10.597
27521W        W99935  11.144  30.448   2.404
27522W        W99936  11.348   8.852   1.379
27523W        W99937  17.072  28.983   2.812
27524W        W99938  22.715  32.011  14.485
27525W        W99939   5.891   2.760   4.187
27526W        W99940   9.383  30.536  10.937
27527W        W99941  41.879   5.307  14.999
27528W        W99942  31.083  41.990  13.980
27529W        W99943  16.583  31.591  10.445
27530W        W99944  24.647  15.746  10.140
27531W        W99945  41.008   2.340  14.955
27532W        W99946   9.225  17.267   1.388
27533W        W99947  38.995   1.947   3.787
27534W        W99948  22.052  13.204   4.230
27535W        W99949  26.670  37.046   3.322
27536W        W99950  17.151  43.870  11.958
27537W        W99951   3.297  25.586  12.058
27538W        W99952  42.885  23.131   1.451
27539W        W99953  42.824   1.741   1.221
27540W        W99954  39.448  42.821   1.346
27541W        W99955  33.965  22.055   1.756
27542W        W99956  14.106  39.491   0.957
27543W        W99957  22.065  21.630   0.771
27544W        W99958  25.488  20.047   2.276
27545W        W99959   7.876  31.007   3.368
27546W        W99960  22.738  10.726  14.018
27547W        W99961  38.001  32.020  13.455
27548W        W99962   5.277  38.508   3.372
27549W        W99963  35.491  13.250   3.643
27550W        W99964  15.750  29.658   0.448
27551W        W99965  40.847  14.141   0.945
27552W        W99966   5.824  10.259  10.411
27553W        W99967  12.834  25.987  12.357
27554W        W99968  29.002  43.294   1.222
27555W        W99969  16.624   6.261  13.517
27556W        W99970  34.880  40.514   2.694
27557W        W99971  22.728  12.644   4.804
27558W        W99972  15.107  12.681   2.384
27559W        W99973  27.460   1.273  13.510
27560W        W99974  30.999  34.587  14.447
27561W        W99975   2.313  14.296  14.801
27562W        W99976  26.520  42.318  12.004
27563W        W99977  14.302  13.149  13.537
27564W        W99978  33.995  24.483  14.013
27565W        W99979  33.059  35.443  14.481
27566W        W99980  32.448  36.968  10.987
27567W        W99981  21.227  35.404  14.760
27568W        W99982  26.481  23.191   0.924
27569W        W99983  34.395  44.383  13.321
27570W        W99984   3.860  39.951   3.687
27571W        W99985  24.656  16.182   2.711
27572W        W99986  44.262  34.483   0.934
27573W        W99987  31.426  16.277   3.840
27574W        W99988  36.579  33.575   5.111
27575W        W99989  30.620  12.117   0.314
27576W        W99990  14.322   8.220   0.284
27577W        W99991  42.876  22.657  14.773
27578W        W99992  38.510   1.965  12.446
27579W        W99993  38.488  18.083   3.169
27580W        W99994  25.596  41.441   1.765
27581W        W99995  24.980  12.130  10.520
27582W        W99996  23.597  20.267  13.515
27583W        W99997  43.329   5.910  14.278
27584W        W99998  17.584  13.116  12.341
27585W        W99999  18.700  29.147  11.947
27586W        W    0   2.933  34.910   4.623
27587W        W    1  34.991  31.146   4.816
27588W        W    2  42.814  12.326   4.599
27589W        W    3  37.041   3.446   0.793
27590W        W    4   5.284   3.882   4.143
27591W        W    5   0.481  30.132  14.436
27592W        W    6  43.909  24.188   0.319
27593W        W    7   9.231  10.307   3.216
27594W        W    8   9.204  20.539   0.776
27595W        W    9   1.274  39.028  12.377
27596W        W   10  25.599   8.165   4.674
27597W        W   11  30.651  39.854  10.556
27598W        W   12   7.391  15.272   1.878
27599W        W   13  34.581  32.546  14.829
27600W        W   14   2.260  32.626  12.831
27601W        W   15  17.680   0.385   4.172
27602W        W   16   1.236  36.869  13.384
27603W        W   17   0.346  22.078   1.360
27604W        W   18  36.910  30.158   4.267
27605W        W   19  26.618  28.462  13.042
27606W        W   20  33.066   4.392  11.887
27607W        W   21  12.347   2.760  13.368
27608W        W   22  36.987  18.272   2.289
27609W        W   23  32.129  38.024  13.531
27610W        W   24   4.769  32.546   2.762
27611W        W   25  21.138  25.095   0.470
27612W        W   26  21.588  18.194   4.180
27613W        W   27  27.974  26.481  12.392
27614W        W   28  17.136  18.689  10.129
27615W        W   29  25.703  17.199  10.961
27616W        W   30  27.008  12.823   3.259
27617W        W   31  26.967  38.055  13.914
27618W        W   32  16.264   0.788  11.611
27619W        W   33  10.181  17.287   3.313
27620W        W   34   8.273  14.119  13.526
27621W        W   35  24.981  18.114  14.996
27622W        W   36  26.668  19.039  12.074
27623W        W   37  24.572   3.902   3.323
27624W        W   38  37.388  13.339   2.386
27625W        W   39  17.225  16.567  13.532
27626W        W   40  10.732   3.849  13.054
27627W        W   41  30.658  33.997   0.958
27628W        W   42  44.268   5.889   0.258
27629W        W   43  26.596  41.375   4.296
27630W        W   44   7.821   2.767  13.060
27631W        W   45  27.075  40.444   0.832
27632W        W   46   7.392  43.461   0.772
27633W        W   47   2.867  26.993  13.392
27634W        W   48  27.042   6.398  10.468
27635W        W   49  29.104   3.907  12.046
27636W        W   50   0.848   4.737   4.609
27637W        W   51  39.982   0.369   4.684
27638W        W   52  13.629   0.883   1.226
27639W        W   53  42.293  22.683   0.319
27640W        W   54  15.216   9.175   3.643
27641W        W   55  28.095  35.519   9.935
27642W        W   56  19.729  34.541  10.580
27643W        W   57  42.938  25.209   3.325
27644W        W   58  14.802  35.078  13.365
27645W        W   59  44.449  15.295   0.925
27646W        W   60  30.593  44.407  10.077
27647W        W   61  26.982  41.441  14.989
27648W        W   62  42.452  25.091  13.359
27649W        W   63  15.805  20.200  11.012
27650W        W   64  13.637  35.592   1.730
27651W        W   65  36.983  16.113   1.440
27652W        W   66  12.846  44.449  12.908
27653W        W   67   5.328  31.094  13.886
27654W        W   68  31.021  29.448   2.191
27655W        W   69  30.964  35.913  14.390
27656W        W   70   5.340  24.192   4.178
27657W        W   71   4.281  26.037  10.965
27658W        W   72  12.347   5.786  13.407
27659W        W   73  40.458  22.060  13.889
27660W        W   74  29.118  14.156   4.224
27661W        W   75  32.098  41.415  14.878
27662W        W   76  19.548  39.323   3.386
27663W        W   77   3.923  27.589  13.051
27664W        W   78  21.610  20.613  12.911
27665W        W   79  36.413  22.712   1.294
27666W        W   80  21.122  42.503  11.020
27667W        W   81  27.132  19.676   1.307
27668W        W   82  16.743  21.151   1.713
27669W        W   83  44.995  15.691  11.440
27670W        W   84  15.615   6.897  14.972
27671W        W   85  41.468  35.503   2.333
27672W        W   86   6.283  40.445   1.244
27673W        W   87   3.747  37.836   3.334
27674W        W   88  38.014  12.293  11.509
27675W        W   89  10.301  38.957  12.502
27676W        W   90  27.675  13.294  10.443
27677W        W   91  40.916  31.905   2.307
27678W        W   92  33.622  11.153   0.828
27679W        W   93   2.262  28.643   2.710
27680W        W   94  36.987  41.380  11.568
27681W        W   95  34.913   4.436   4.826
27682W        W   96   3.933  34.499  11.959
27683W        W   97  42.885  22.681   3.833
27684W        W   98   0.319  40.999  10.936
27685W        W   99  17.603  11.162   1.786
27686W        W  100  34.569  20.033  12.088
27687W        W  101  29.079  23.067   4.606
27688W        W  102  11.687   3.917  10.466
27689W        W  103  39.029  26.703   3.708
27690W        W  104  40.478  12.280   4.118
27691W        W  105  24.157   6.869  10.405
27692W        W  106  19.660  11.811  12.497
27693W        W  107  43.428  35.550  13.884
27694W        W  108  24.010   4.408  13.421
27695W        W  109   5.435  41.818   1.826
27696W        W  110   1.743  44.765  13.830
27697W        W  111  32.602  33.087  12.382
27698W        W  112  20.218   0.838   5.148
27699W        W  113  25.159  11.370   2.775
27700W        W  114  37.495   5.204   2.729
27701W        W  115  42.327   2.451   2.774
27702W        W  116  33.025  10.306  11.942
27703W        W  117  18.557   8.353  12.016
27704W        W  118  10.693  30.509  10.491
27705W        W  119  39.830  40.518  13.827
27706W        W  120  33.045  29.107  10.642
27707W        W  121   9.312  12.355   0.366
27708W        W  122  18.658  26.966  12.455
27709W        W  123  38.335   2.447   0.285
27710W        W  124   4.439  42.386   0.243
27711W        W  125  23.995  29.119   4.336
27712W        W  126  26.148  31.440  13.799
27713W        W  127  37.467   6.765   2.806
27714W        W  128  10.202  23.177  12.515
27715W        W  129  22.017  24.094   4.616
27716W        W  130   8.857  41.903  13.819
27717W        W  131  11.714  16.574   3.676
27718W        W  132  36.373   8.693  10.582
27719W        W  133  42.844  37.532   0.895
27720W        W  134  34.384  21.240   0.960
27721W        W  135  24.980  17.188   0.302
27722W        W  136   8.374   7.239  11.900
27723W        W  137   7.338   8.784   0.918
27724W        W  138  35.459  35.576  13.828
27725W        W  139  28.140  29.510  11.043
27726W        W  140  33.500  23.060  12.356
27727W        W  141  39.417   7.870  13.470
27728W        W  142   4.864   9.708   2.790
27729W        W  143  36.362  37.484   4.811
27730W        W  144  40.373  35.904  11.033
27731W        W  145  11.733  18.572  14.457
27732W        W  146  34.515  42.404  10.509
27733W        W  147  30.431  41.832  10.925
27734W        W  148  36.453  17.574  11.387
27735W        W  149   1.360  31.950  12.918
27736W        W  150   2.824   8.198   4.717
27737W        W  151  40.359  29.008  14.830
27738W        W  152  24.033   0.344  11.869
27739W        W  153  43.420  10.149  10.992
27740W        W  154  25.965   7.387  14.469
27741W        W  155  18.708  37.918   2.872
27742W        W  156  37.380   7.417  12.382
27743W        W  157  35.550  20.167  13.347
27744W        W  158   6.212   1.280  11.386
27745W        W  159   3.875   6.393   3.344
27746W        W  160  22.623   1.938  14.931
27747W        W  161  25.566  15.214   1.418
27748W        W  162   2.441  17.589   1.823
27749W        W  163   6.302  38.840   5.158
27750W        W  164  30.454  37.940   4.803
27751W        W  165   0.944   1.836   1.214
27752W        W  166  30.523  18.609   2.287
27753W        W  167   0.949  12.631   1.782
27754W        W  168  37.969  35.399   3.374
27755W        W  169  30.161  16.664   4.217
27756W        W  170  37.398  40.932   1.866
27757W        W  171  25.972  27.965  12.513
27758W        W  172  34.884  43.342   0.871
27759W        W  173  30.913  41.529   3.865
27760W        W  174   9.161  15.722   3.364
27761W        W  175  24.589  13.285  14.381
27762W        W  176  40.475  29.473  14.858
27763W        W  177   8.174  17.124   3.326
27764W        W  178  25.635   8.679  11.391
27765W        W  179  25.478  44.766  14.424
27766W        W  180  30.565  43.964   3.261
27767W        W  181  14.333  15.215   0.747
27768W        W  182  29.035  25.196   4.298
27769W        W  183   6.738   8.728  11.593
27770W        W  184  13.837  15.720   3.172
27771W        W  185   6.887   8.332  11.998
27772W        W  186  19.770  24.207  13.960
27773W        W  187   5.849  14.707  11.487
27774W        W  188   5.860  26.152   3.866
27775W        W  189   4.231  40.309   5.785
27776W        W  190  37.399  12.739  11.960
27777W        W  191  44.311   2.862   3.860
27778W        W  192   3.450  13.323   2.866
27779W        W  193  21.640  26.198   0.293
27780W        W  194  29.061  34.879  14.983
27781W        W  195   7.838   5.233   0.372
27782W        W  196  23.093  39.990   4.145
27783W        W  197  16.795  12.203   1.251
27784W        W  198  36.917  28.992   0.919
27785W        W  199  37.499   2.295   2.198
27786W        W  200   1.262   1.433   0.462
27787W        W  201  36.509  16.615  11.550
27788W        W  202   6.198   8.329  14.984
27789W        W  203  30.606  14.266   2.245
27790W        W  204   3.310  15.120   9.649
27791W        W  205   7.195  14.300  11.867
27792W        W  206  36.881   6.881  14.779
27793W        W  207  30.453  42.798  11.540
27794W        W  208  28.480  23.068  10.611
27795W        W  209  23.504   5.295  12.941
27796W        W  210   3.843  24.028  14.894
27797W        W  211  12.790   1.825  10.575
27798W        W  212  21.685   6.389   2.763
27799W        W  213  42.889  35.002   1.926
27800W        W  214   8.882  39.557  11.005
27801W        W  215  41.499  35.512  11.121
27802W        W  216  38.545  25.625   2.270
27803W        W  217   5.890  20.206   1.825
27804W        W  218  39.899  44.406  10.036
27805W        W  219  21.682  40.395  10.589
27806W        W  220  36.848  12.692   3.737
27807W        W  221   6.909  29.433   4.143
27808W        W  222  37.565   6.200   1.780
27809W        W  223   9.802   1.894  13.987
27810W        W  224  12.324   7.398  13.994
27811W        W  225  42.499  16.197   1.228
27812W        W  226   3.362  31.547  11.990
27813W        W  227   2.235  40.519  12.341
27814W        W  228  42.516  19.614  13.866
27815W        W  229  20.544  19.569  13.386
27816W        W  230  17.734  17.586  10.412
27817W        W  231   1.458  26.525  12.417
27818W        W  232  36.587   3.343   4.630
27819W        W  233  29.003  13.112  14.892
27820W        W  234  14.300  40.465   0.445
27821W        W  235  10.693   6.834  14.787
27822W        W  236  26.563  32.890   0.734
27823W        W  237  25.518  11.752  11.564
27824W        W  238  42.520  44.275   4.329
27825W        W  239  44.892   5.396  10.510
27826W        W  240  24.987   5.742  13.416
27827W        W  241  37.062   0.448  13.352
27828W        W  242  29.448  23.628   3.157
27829W        W  243   2.369  19.279  11.600
27830W        W  244  27.578  28.138   3.262
27831W        W  245  42.460  24.068   4.287
27832W        W  246   6.820  11.679  14.907
27833W        W  247  17.234   3.255  13.459
27834W        W  248  37.949  43.494  11.608
27835W        W  249  13.791  16.284   2.231
27836W        W  250  31.492  30.152   0.379
27837W        W  251  44.807  36.090  11.874
27838W        W  252   2.334   7.809  14.864
27839W        W  253  33.036  24.165  10.620
27840W        W  254  12.713   1.336   4.707
27841W        W  255  12.630   2.245  14.855
27842W        W  256   3.254  16.137  13.546
27843W        W  257  44.883  30.137  10.520
27844W        W  258  25.128  41.886  13.337
27845W        W  259  39.472  16.194  11.936
27846W        W  260  32.627  32.471   0.730
27847W        W  261   0.343  19.662   2.299
27848W        W  262  31.108  19.261  12.030
27849W        W  263   9.292  33.008  13.427
27850W        W  264   6.262   6.769   3.307
27851W        W  265  28.082   1.411   0.835
27852W        W  266  26.203  27.132  10.898
27853W        W  267  39.860  38.447   4.682
27854W        W  268   2.889  22.214   2.270
27855W        W  269  43.933  10.219  12.881
27856W        W  270   5.415  29.923  12.542
27857W        W  271  35.897  26.076  11.541
27858W        W  272   7.890  18.552   3.839
27859W        W  273  10.192  12.177  14.023
27860W        W  274  41.039  12.665  14.842
27861W        W  275  23.170  36.912  13.832
27862W        W  276  17.245  36.089  11.088
27863W        W  277  35.075  34.088  13.353
27864W        W  278  17.777   5.888  12.926
27865W        W  279  15.228   3.886  11.466
27866W        W  280  16.617   7.380  12.865
27867W        W  281  37.874   4.212   0.397
27868W        W  282  23.177  11.747  11.118
27869W        W  283  40.956  15.269  14.920
27870W        W  284  23.989  37.398  13.469
27871W        W  285   5.688  20.272   2.353
27872W        W  286   4.235  26.072   0.469
27873W        W  287  36.934  39.498  12.088
27874W        W  288  22.098  39.374   3.387
27875W        W  289  21.078  20.740   1.924
27876W        W  290  43.918   6.373   0.758
27877W        W  291   7.857   4.848   1.834
27878W        W  292  20.184  34.896  11.450
27879W        W  293  21.073  10.171   1.906
27880W        W  294  30.470  29.624   3.298
27881W        W  295   1.389   4.340   0.309
27882W        W  296  29.519  31.646   0.349
27883W        W  297   9.313  30.973   0.872
27884W        W  298  36.525  37.552  13.529
27885W        W  299  42.381  14.612  13.916
27886W        W  300   3.219   6.347   5.218
27887W        W  301   0.407  24.006   3.642
27888W        W  302  27.501   8.186   2.712
27889W        W  303  11.627  36.916   4.680
27890W        W  304  11.363  33.065   0.943
27891W        W  305  42.797  28.152  13.377
27892W        W  306  29.483   5.292   3.756
27893W        W  307  12.826  42.910  12.039
27894W        W  308   6.840  31.404   4.137
27895W        W  309  15.618  17.690   4.325
27896W        W  310  15.308  40.473  14.771
27897W        W  311  14.176  22.228  11.596
27898W        W  312  15.139  41.986  12.565
27899W        W  313  14.608  17.223   0.823
27900W        W  314   4.918  12.358   5.111
27901W        W  315  13.263  20.644  13.466
27902W        W  316  39.909  30.525  13.931
27903W        W  317  15.161   6.743   0.441
27904W        W  318  23.051  20.097   0.369
27905W        W  319  16.687  32.065   0.962
27906W        W  320   8.201  21.616   1.360
27907W        W  321  31.137  37.071   2.393
27908W        W  322  34.403  42.381   4.221
27909W        W  323  41.925  44.925  12.403
27910W        W  324  18.672   5.209  12.392
27911W        W  325   3.924   5.274   0.942
27912W        W  326  35.853  22.064  11.569
27913W        W  327  26.962   7.311  14.959
27914W        W  328  43.349  16.291  10.922
27915W        W  329  33.531  22.723  13.907
27916W        W  330  17.788  12.244   3.648
27917W        W  331  44.974   5.909  10.582
27918W        W  332  34.417  38.015  13.949
27919W        W  333  24.671  39.502   2.701
27920W        W  334   3.864  43.350  10.059
27921W        W  335  28.083   9.860   0.866
27922W        W  336  34.576  10.360  13.920
27923W        W  337   1.337   9.751   2.731
27924W        W  338  25.134  17.176   3.353
27925W        W  339  28.055  29.509   3.341
27926W        W  340  34.040  24.185  11.478
27927W        W  341   3.889  34.017   3.246
27928W        W  342  20.057   2.348  11.934
27929W        W  343  34.467  21.685   4.285
27930W        W  344  11.299   2.283   1.723
27931W        W  345  19.046  14.780  11.372
27932W        W  346  37.460  37.837   0.463
27933W        W  347  44.495  40.430   2.902
27934W        W  348  24.174   8.800  13.003
27935W        W  349  28.603  18.087   4.670
27936W        W  350  36.911  41.836  13.373
27937W        W  351  18.216  35.455   4.678
27938W        W  352   4.937  14.227   3.737
27939W        W  353   3.366  38.425  14.350
27940W        W  354  20.181  27.141  13.426
27941W        W  355  37.577  11.865  11.976
27942W        W  356  40.962   2.853  12.073
27943W        W  357  11.163  20.110  10.530
27944W        W  358   9.234  33.435   9.957
27945W        W  359  23.514   5.337   4.309
27946W        W  360  26.678  29.568   0.405
27947W        W  361  19.736  28.154  10.404
27948W        W  362   6.387  12.791   4.208
27949W        W  363  22.071  23.616  10.932
27950W        W  364   3.216  44.946   1.789
27951W        W  365  36.990   3.441  10.531
27952W        W  366  43.304  34.572  14.028
27953W        W  367  13.743  30.440   1.740
27954W        W  368  37.508   4.398   2.713
27955W        W  369  21.068   6.879   3.680
27956W        W  370  13.799  22.637  13.812
27957W        W  371   7.773  15.265   0.787
27958W        W  372  41.875  33.093   2.302
27959W        W  373  33.934  42.358  14.819
27960W        W  374  39.997  39.445  10.991
27961W        W  375   4.752   8.285  11.086
27962W        W  376  17.568   4.214  14.502
27963W        W  377   9.210   6.749   2.824
27964W        W  378  18.585  13.721   2.700
27965W        W  379  10.839  35.063  10.965
27966W        W  380  30.069  22.146  10.525
27967W        W  381  43.509  10.362   2.816
27968W        W  382  11.239  42.001   3.773
27969W        W  383   6.227  39.931  12.371
27970W        W  384  30.960  38.002  11.912
27971W        W  385  21.571  34.992  14.478
27972W        W  386  42.776   8.825  14.436
27973W        W  387  25.501  34.465  11.068
27974W        W  388  32.428  40.921  11.437
27975W        W  389  31.089  33.061  10.470
27976W        W  390   1.966  35.490  11.565
27977W        W  391  37.457  15.597   5.281
27978W        W  392  26.977  23.996   3.370
27979W        W  393   4.712  44.398  14.326
27980W        W  394  41.859  26.069  12.365
27981W        W  395   8.282  28.044   1.920
27982W        W  396  40.466  17.152   0.815
27983W        W  397   5.375  27.109  10.478
27984W        W  398   2.734  27.504   2.354
27985W        W  399   8.684  12.659  14.853
27986W        W  400   1.344  10.144   0.922
27987W        W  401  30.430  12.345   1.422
27988W        W  402  44.774  11.744  11.966
27989W        W  403  25.112  24.567   4.141
27990W        W  404  33.935   7.707  14.445
27991W        W  405   2.333  41.460  14.017
27992W        W  406  41.340  36.359   0.304
27993W        W  407  18.731  40.034  14.798
27994W        W  408  23.555  43.924  12.452
27995W        W  409  26.025  26.074  11.599
27996W        W  410  29.985  19.120  11.969
27997W        W  411  36.977  10.366   1.733
27998W        W  412  19.174   3.328   3.288
27999W        W  413  19.257  42.977   5.762
28000W        W  414   4.358  41.001   2.331
28001W        W  415  35.921  20.628  11.936
28002W        W  416  19.757  33.949   3.728
28003W        W  417  30.533  14.104  10.575
28004W        W  418  11.627  12.745   1.825
28005W        W  419   3.725  24.168   0.466
28006W        W  420   4.371  29.449  13.418
28007W        W  421  20.048  38.372   0.459
28008W        W  422  19.594  27.039  14.366
28009W        W  423  19.104  32.920   3.242
28010W        W  424  20.753  15.703  13.437
28011W        W  425  42.876  27.067   0.852
28012W        W  426  38.346  20.268  10.983
28013W        W  427  29.115  12.209   3.375
28014W        W  428  14.770  25.155   3.700
28015W        W  429   2.453  11.628   3.822
28016W        W  430  25.557  31.150   1.247
28017W        W  431  32.519  16.731   0.283
28018W        W  432   0.403  15.286  12.067
28019W        W  433  20.616  21.558   3.793
28020W        W  434   5.308  15.732  12.985
28021W        W  435  37.014  24.609   0.968
28022W        W  436   2.312  17.096  13.346
28023W        W  437  33.894  36.867   4.130
28024W        W  438   0.299  41.417  14.879
28025W        W  439  11.314  12.130   0.288
28026W        W  440   5.760  10.234   3.341
28027W        W  441  11.288   3.242   0.781
28028W        W  442  25.218  44.960   4.148
28029W        W  443  35.367  38.835   2.725
28030W        W  444  42.884   4.282   4.658
28031W        W  445  17.757  31.506   4.705
28032W        W  446  15.147   5.854   5.645
28033W        W  447  42.865  41.470  11.608
28034W        W  448  12.715  21.096   0.427
28035W        W  449  29.080  42.799  10.907
28036W        W  450  31.097  44.791   4.349
28037W        W  451  27.538  16.736   4.291
28038W        W  452  15.608  41.307  11.087
28039W        W  453  18.647   2.908  11.602
28040W        W  454  20.654  20.532   4.641
28041W        W  455  26.619  17.799  13.430
28042W        W  456   1.957  23.164  13.832
28043W        W  457   7.306  27.070  13.462
28044W        W  458  27.609  23.731  10.973
28045W        W  459  18.666   4.435  12.474
28046W        W  460   3.758  39.045   1.796
28047W        W  461  41.420  17.285  10.891
28048W        W  462  26.645  11.676   3.690
28049W        W  463  44.894  25.670   3.723
28050W        W  464   0.971  12.306  14.978
28051W        W  465  28.680  21.142   2.718
28052W        W  466   8.703  21.633  13.932
28053W        W  467  23.130  27.653   4.648
28054W        W  468  10.247  10.845   2.330
28055W        W  469  30.640  19.099   1.858
28056W        W  470  28.509   4.819   2.388
28057W        W  471  30.973   6.247   2.876
28058W        W  472   7.727  38.539   2.827
28059W        W  473   5.746  10.800  13.011
28060W        W  474  18.109   4.402   1.261
28061W        W  475  33.961  25.184   3.304
28062W        W  476   8.186  29.501  11.500
28063W        W  477  35.995  20.077  12.340
28064W        W  478  22.738  22.652  12.007
28065W        W  479  30.908  44.262   4.675
28066W        W  480  24.691  43.798   9.515
28067W        W  481  30.103   1.281  11.485
28068W        W  482  15.322  24.156   4.137
28069W        W  483  21.605   8.182  11.108
28070W        W  484  35.436   2.253  12.360
28071W        W  485   8.231  21.190   2.804
28072W        W  486  27.691  30.541   3.223
28073W        W  487  21.599  39.024  11.996
28074W        W  488  14.118  33.928  13.919
28075W        W  489  39.402   8.798   4.757
28076W        W  490   7.305  10.786  11.029
28077W        W  491  40.807  38.338  11.930
28078W        W  492  12.272   6.364   2.762
28079W        W  493  28.635  10.667   3.288
28080W        W  494  28.004  43.914   2.874
28081W        W  495  32.427  23.608   4.260
28082W        W  496  10.832  14.204  11.094
28083W        W  497   9.377  21.180   0.776
28084W        W  498  36.984  20.044  10.500
28085W        W  499  37.867  35.397   5.601
28086W        W  500  24.590   3.813   4.310
28087W        W  501   4.887   6.891  13.407
28088W        W  502   7.300  21.039  12.884
28089W        W  503  27.973   5.350  13.392
28090W        W  504  23.609   7.291   0.382
28091W        W  505  23.693  44.776  11.047
28092W        W  506  22.102  30.014   0.947
28093W        W  507  44.386  24.011   0.779
28094W        W  508   7.414  41.494   2.783
28095W        W  509  41.462  27.523   1.774
28096W        W  510   2.772  43.955  14.483
28097W        W  511  32.924  29.641   0.412
28098W        W  512  22.710  28.100   3.246
28099W        W  513  12.723  32.494  13.856
28100W        W  514  31.119  34.042  11.038
28101W        W  515  31.974  31.999  10.961
28102W        W  516  12.755   9.843   3.668
28103W        W  517  32.089  26.534   1.928
28104W        W  518  37.377  41.819   1.283
28105W        W  519   8.873  25.658  14.456
28106W        W  520  27.460   7.820  12.473
28107W        W  521  31.516  31.911   1.384
28108W        W  522  36.077  26.195  13.922
28109W        W  523  11.291  29.958  14.416
28110W        W  524   7.887  15.142  12.341
28111W        W  525  19.624  37.029  11.889
28112W        W  526  19.725   1.265  11.590
28113W        W  527   0.330  28.467  12.438
28114W        W  528  41.013  34.103  11.573
28115W        W  529  34.422  12.748   3.253
28116W        W  530  11.742  19.164  11.071
28117W        W  531  33.039  34.879   4.802
28118W        W  532  37.457  20.625  10.523
28119W        W  533  13.332  12.339  12.381
28120W        W  534   1.904  25.614  10.455
28121W        W  535  29.001  27.080   0.765
28122W        W  536   3.956  26.639  10.051
28123W        W  537  33.925  26.517   4.748
28124W        W  538  10.215  12.277   0.408
28125W        W  539  14.773  33.470  13.466
28126W        W  540  34.045   1.797   2.868
28127W        W  541  35.904  31.114   0.808
28128W        W  542  33.502  16.684  13.360
28129W        W  543   9.204  12.764  10.125
28130W        W  544  13.310  19.588  13.860
28131W        W  545  19.718  16.176  10.412
28132W        W  546  31.114  38.902   4.335
28133W        W  547  16.676  15.633   1.903
28134W        W  548  24.157  19.573   3.319
28135W        W  549  33.089  31.984   1.223
28136W        W  550   5.269  16.653   1.340
28137W        W  551  13.250  39.021   4.630
28138W        W  552  16.115  23.677  11.410
28139W        W  553  30.013   3.431  14.388
28140W        W  554  44.328  41.020  14.499
28141W        W  555  41.324  36.851   2.331
28142W        W  556  10.768  41.488   3.632
28143W        W  557  30.542  34.940  12.069
28144W        W  558  34.869  15.083   3.250
28145W        W  559  26.593  17.187   4.301
28146W        W  560  29.439  27.184  14.381
28147W        W  561   5.280  10.184   1.925
28148W        W  562  33.057  11.344  14.513
28149W        W  563   5.738   9.371   0.288
28150W        W  564  18.223  41.868  13.915
28151W        W  565   4.397  43.440   4.597
28152W        W  566  15.769  25.176   3.800
28153W        W  567  12.214   0.986  13.316
28154W        W  568  23.717  25.003   4.630
28155W        W  569  25.152  38.832   2.861
28156W        W  570  29.514  31.442  12.972
28157W        W  571  10.172   6.348   3.371
28158W        W  572  42.362   9.853  14.769
28159W        W  573   4.288  29.450   4.671
28160W        W  574  23.096  24.724   1.839
28161W        W  575  15.610  33.912   1.265
28162W        W  576  30.487  35.367   0.758
28163W        W  577   7.776  28.050  10.156
28164W        W  578   8.166  11.802  11.441
28165W        W  579  29.517  33.931   0.786
28166W        W  580  34.409   9.392   3.648
28167W        W  581  14.819   2.412  12.538
28168W        W  582  10.202   1.970   3.733
28169W        W  583  44.340   6.869   1.883
28170W        W  584   7.206   2.337   3.185
28171W        W  585   4.881  37.419   2.222
28172W        W  586  17.753  18.189   3.385
28173W        W  587  20.587  37.027  12.056
28174W        W  588  42.010  15.154   3.839
28175W        W  589  27.457  40.366  10.412
28176W        W  590   2.935  38.511  10.462
28177W        W  591  20.644   0.358   1.873
28178W        W  592  12.803  12.773  13.504
28179W        W  593  43.958  16.737  13.820
28180W        W  594  18.783   9.293   1.710
28181W        W  595   8.187   8.835  13.448
28182W        W  596  16.259  40.531   1.762
28183W        W  597   1.257  30.082  12.002
28184W        W  598   3.940  11.370   2.795
28185W        W  599  40.488  10.320  13.904
28186W        W  600  44.367  42.899   0.859
28187W        W  601  30.559  37.076  13.499
28188W        W  602  17.606  11.845   3.290
28189W        W  603   2.841  31.929  13.049
28190W        W  604  35.091  23.138  14.394
28191W        W  605  37.520  29.463   3.338
28192W        W  606  12.624   8.869  11.487
28193W        W  607  39.048  27.470   0.412
28194W        W  608  23.619  12.845   1.294
28195W        W  609  37.894  25.623   2.678
28196W        W  610   4.384  11.769  12.456
28197W        W  611   9.857  27.079   4.121
28198W        W  612  19.085  16.293  12.480
28199W        W  613   4.847   5.297   4.641
28200W        W  614  18.193  29.432  11.024
28201W        W  615  15.212  30.500  12.923
28202W        W  616  24.627  14.823   1.271
28203W        W  617  40.799  16.659  12.952
28204W        W  618  14.624   3.403   3.863
28205W        W  619  28.492  12.339  12.854
28206W        W  620  43.878  18.756  11.063
28207W        W  621  20.030   9.846  13.825
28208W        W  622  21.232  19.179  13.352
28209W        W  623  11.371  16.218   2.214
28210W        W  624  31.120   6.213  10.927
28211W        W  625  33.474  35.049   1.272
28212W        W  626  40.856  37.988  12.444
28213W        W  627  41.349  17.180   4.666
28214W        W  628  27.460  33.062  10.905
28215W        W  629  33.544  36.548  12.064
28216W        W  630  25.161  44.943   0.289
28217W        W  631   4.760   9.810   9.987
28218W        W  632  28.437   3.277   5.106
28219W        W  633  21.063  15.797  12.946
28220W        W  634   2.276  14.763  12.459
28221W        W  635   9.374  25.510  12.466
28222W        W  636  44.871  14.815   0.925
28223W        W  637  31.922   3.377  14.976
28224W        W  638  38.358  17.260  14.976
28225W        W  639   7.685  33.110  10.529
28226W        W  640   9.657   5.696   4.134
28227W        W  641   0.849  29.652  12.353
28228W        W  642  22.663  18.096  12.477
28229W        W  643  32.631  16.585   4.791
28230W        W  644  25.643   2.333   4.692
28231W        W  645  44.759  40.820  14.435
28232W        W  646  21.206  34.930  10.623
28233W        W  647  38.525  19.266  11.104
28234W        W  648  42.313   2.373  14.414
28235W        W  649  25.642   6.397  13.838
28236W        W  650   9.751   1.920  13.053
28237W        W  651  16.258  33.097  14.389
28238W        W  652  22.737  44.966  13.856
28239W        W  653  22.587  37.032   0.778
28240W        W  654  26.631  25.201   9.922
28241W        W  655   3.385  11.133   4.668
28242W        W  656  17.678  38.413  10.500
28243W        W  657  44.403   6.323   3.704
28244W        W  658  15.597  30.991  11.868
28245W        W  659  44.797   0.313  11.891
28246W        W  660  40.874  23.031   0.843
28247W        W  661  17.737  38.026  11.986
28248W        W  662   7.299  15.584  13.857
28249W        W  663  28.660  18.741  11.436
28250W        W  664  18.155   4.875  14.973
28251W        W  665  33.003  28.444  14.475
28252W        W  666  35.963  27.015  11.593
28253W        W  667  32.535  19.553   4.803
28254W        W  668   8.673  30.934  13.330
28255W        W  669  30.545   5.864  13.003
28256W        W  670   8.755  17.224  13.472
28257W        W  671  36.869   8.805  13.373
28258W        W  672  39.993  26.666  10.442
28259W        W  673  13.690  14.300  10.570
28260W        W  674   8.680  23.038  11.585
28261W        W  675  41.884   6.719   4.632
28262W        W  676  37.522   1.966  10.452
28263W        W  677  34.969  21.259  12.369
28264W        W  678  26.575   1.262   3.815
28265W        W  679  20.759  43.476   4.728
28266W        W  680  17.707  43.974   0.881
28267W        W  681  44.839  39.547  14.762
28268W        W  682  20.109  41.966   2.214
28269W        W  683  19.228   6.790   1.299
28270W        W  684  25.640  39.385   3.702
28271W        W  685  36.942  28.443   2.334
28272W        W  686   0.448   0.264   2.197
28273W        W  687   5.285  42.354  10.143
28274W        W  688   4.432  39.965  11.046
28275W        W  689   7.819  39.369   2.698
28276W        W  690  12.783   3.749   1.751
28277W        W  691  19.578  19.640   0.856
28278W        W  692   3.325  34.077   4.222
28279W        W  693  12.231   2.733   0.319
28280W        W  694  18.199  14.643  12.999
28281W        W  695  24.638  42.938  13.417
28282W        W  696  38.875  36.020  13.886
28283W        W  697  39.055  33.557   2.811
28284W        W  698   8.867  36.871  12.056
28285W        W  699   4.768   2.338  10.588
28286W        W  700   1.343  44.319  12.392
28287W        W  701  39.058  34.478  11.043
28288W        W  702   1.256  14.801   2.700
28289W        W  703  26.591  44.850   0.409
28290W        W  704  14.739  37.961   1.330
28291W        W  705  35.072  36.463  14.439
28292W        W  706  25.486   3.411  10.451
28293W        W  707  20.143   0.385   2.764
28294W        W  708   1.734  25.524  12.541
28295W        W  709   6.358  44.930  12.066
28296W        W  710  37.910  32.087   4.769
28297W        W  711   9.792  19.282  11.937
28298W        W  712  10.289  39.483   4.785
28299W        W  713  23.154   8.221  12.489
28300W        W  714  34.096   6.243  12.988
28301W        W  715   7.670  43.985  14.823
28302W        W  716  25.649   7.268   0.730
28303W        W  717  26.986  41.840  11.531
28304W        W  718  30.136  20.698   1.755
28305W        W  719   9.777  23.128  12.076
28306W        W  720  29.149   5.913  11.980
28307W        W  721   3.819   0.847  11.466
28308W        W  722  28.122  32.962   3.202
28309W        W  723  33.392  15.165   2.356
28310W        W  724  37.852   9.804   0.275
28311W        W  725  23.660  11.650  11.015
28312W        W  726  28.476  10.381   4.354
28313W        W  727  43.868  20.118  12.000
28314W        W  728  12.145   1.888   4.251
28315W        W  729  36.893  38.383  14.276
28316W        W  730  20.123  44.326   0.346
28317W        W  731   1.963  32.498  11.507
28318W        W  732  39.487  36.842   4.630
28319W        W  733  36.083  37.975   4.342
28320W        W  734  35.978  10.683  11.414
28321W        W  735  11.777  18.120   0.835
28322W        W  736  36.469   8.241   2.815
28323W        W  737   0.488  19.609   4.834
28324W        W  738   7.707   5.801  13.531
28325W        W  739  10.255  34.437   0.387
28326W        W  740  41.317   7.341  11.407
28327W        W  741  25.213  17.560   9.973
28328W        W  742  44.464  35.430  10.480
28329W        W  743  42.942  35.507   1.349
28330W        W  744  43.445  11.212  10.900
28331W        W  745  24.605  42.982   1.325
28332W        W  746  13.351  18.170   5.294
28333W        W  747  39.065  13.276  14.002
28334W        W  748  27.047  15.086  13.506
28335W        W  749   1.271  42.994  13.892
28336W        W  750   0.972  39.916   3.302
28337W        W  751   3.895  40.401   4.147
28338W        W  752  43.778  20.258   3.160
28339W        W  753  42.944  30.602   3.637
28340W        W  754  24.015  19.242   0.852
28341W        W  755  37.902  14.244   2.271
28342W        W  756  14.707   6.849   2.683
28343W        W  757   0.942  20.090   4.815
28344W        W  758  17.113  16.590   0.787
28345W        W  759  24.075  30.507   4.710
28346W        W  760  39.415   1.400   2.274
28347W        W  761   9.220  31.151   1.445
28348W        W  762  44.900   0.826  12.094
28349W        W  763  37.993  14.780  12.549
28350W        W  764  16.601  19.100   4.133
28351W        W  765  34.413  41.298  14.786
28352W        W  766  19.646  16.094  13.543
28353W        W  767  34.459  26.990   0.908
28354W        W  768  20.101  27.148   3.227
28355W        W  769  40.460  12.621   1.439
28356W        W  770  19.668   5.264  10.531
28357W        W  771  10.742  38.441   3.148
28358W        W  772  43.349  31.521   0.929
28359W        W  773  27.025   4.739  14.835
28360W        W  774  43.764   5.706  10.578
28361W        W  775  16.786  36.025  14.406
28362W        W  776  15.690  23.583   3.757
28363W        W  777  25.570  18.624   3.644
28364W        W  778  25.510  24.548   3.776
28365W        W  779  25.081  20.680   4.318
28366W        W  780  42.008  36.022   0.382
28367W        W  781  37.394   1.463   3.225
28368W        W  782  13.643   9.653  13.408
28369W        W  783  18.545  15.647  10.028
28370W        W  784  34.933  23.632   3.184
28371W        W  785  35.033  19.180   1.394
28372W        W  786  34.895  22.240   1.377
28373W        W  787  44.760  36.986  11.917
28374W        W  788   6.311  24.204  13.321
28375W        W  789  26.983   6.923  14.498
28376W        W  790  10.797  35.954  11.536
28377W        W  791  24.606   7.244   0.813
28378W        W  792  14.766   1.957   1.314
28379W        W  793  38.555  29.003  12.417
28380W        W  794  38.852  44.500   1.931
28381W        W  795   0.766  44.004   3.304
28382W        W  796  40.340  17.669   1.830
28383W        W  797  35.406  12.194  14.826
28384W        W  798   9.880  28.004  11.880
28385W        W  799  33.042  25.033   4.219
28386W        W  800  23.028  39.387   0.341
28387W        W  801  40.988  44.925  14.920
28388W        W  802  42.438  26.546   3.359
28389W        W  803  15.779   8.260   3.263
28390W        W  804  43.888  32.445  13.031
28391W        W  805  44.437  12.847  12.872
28392W        W  806  31.073  14.235  11.575
28393W        W  807  21.630  14.164   0.248
28394W        W  808  44.903  36.934   2.302
28395W        W  809   6.703   9.759  10.952
28396W        W  810   2.845  31.982   2.294
28397W        W  811  44.380  17.098  14.456
28398W        W  812  15.247  15.756  11.969
28399W        W  813  24.717  29.625  13.856
28400W        W  814  14.154  29.649  14.955
28401W        W  815  18.151  40.831   1.792
28402W        W  816   0.775  10.875   4.347
28403W        W  817   9.204  42.000  12.887
28404W        W  818  15.683  11.836   0.410
28405W        W  819  42.955  11.806  14.991
28406W        W  820  31.562  29.576  11.980
28407W        W  821  34.408  10.306   3.659
28408W        W  822  28.542  21.683   3.662
28409W        W  823  23.528  33.440   1.314
28410W        W  824  43.011   6.846   3.644
28411W        W  825  44.923  18.669  14.516
28412W        W  826   4.720  33.436   0.483
28413W        W  827  37.565   5.288   0.373
28414W        W  828   3.739  32.504   3.773
28415W        W  829  43.347  10.706  10.524
28416W        W  830  23.587  36.499  11.856
28417W        W  831   4.328   1.828   2.836
28418W        W  832  35.540  33.994   5.174
28419W        W  833   6.779  31.076   1.402
28420W        W  834  37.913  19.761  14.502
28421W        W  835  14.643  13.715  10.962
28422W        W  836  29.614  22.109  13.482
28423W        W  837  31.557  28.497   4.214
28424W        W  838  37.361  39.906   1.272
28425W        W  839   1.852  10.690   0.460
28426W        W  840  44.449  30.943   4.627
28427W        W  841  38.492  27.550  13.436
28428W        W  842  40.420   9.702  14.796
28429W        W  843  35.529  13.139  12.991
28430W        W  844   6.857  11.370   3.298
28431W        W  845   9.826  22.088   2.377
28432W        W  846   5.889  26.539   3.862
28433W        W  847  33.518  42.947   5.181
28434W        W  848  22.031  25.562  13.407
28435W        W  849  27.663   4.294  10.585
28436W        W  850  28.630  39.856  11.512
28437W        W  851  43.493  17.728   4.757
28438W        W  852   8.358   9.196   0.941
28439W        W  853   9.797  43.412  14.315
28440W        W  854  16.763  17.586  13.369
28441W        W  855  17.233  37.954   2.661
28442W        W  856  25.991  35.896   0.739
28443W        W  857  12.830  24.180   3.219
28444W        W  858   5.409  13.193  14.284
28445W        W  859  44.496   2.310   2.843
28446W        W  860  25.468  36.876   1.217
28447W        W  861   1.267  15.098   4.753
28448W        W  862   9.203  26.115  14.811
28449W        W  863  41.890  10.309  11.414
28450W        W  864   9.369  21.543  14.780
28451W        W  865  38.542   7.332   4.171
28452W        W  866  43.799  44.838  13.369
28453W        W  867  22.632  42.486   2.214
28454W        W  868  18.589  39.985   0.290
28455W        W  869  16.266  31.046  13.061
28456W        W  870  35.852  16.118   0.310
28457W        W  871  25.028  16.730   2.787
28458W        W  872  37.450   6.209   1.318
28459W        W  873  36.483  15.722   1.344
28460W        W  874  25.043   4.776   0.406
28461W        W  875  32.513  17.274   4.782
28462W        W  876  30.931  39.998   0.400
28463W        W  877  14.756  40.483   2.878
28464W        W  878  26.068   2.888   0.904
28465W        W  879  35.881  12.670   0.726
28466W        W  880  14.185  27.067  13.366
28467W        W  881  15.623  20.085   2.386
28468W        W  882  25.598   4.330   2.378
28469W        W  883  41.004  38.869  10.425
28470W        W  884  12.810   6.365  11.950
28471W        W  885   5.396  32.471  11.543
28472W        W  886  41.822  18.091  13.337
28473W        W  887  34.905  29.063  14.764
28474W        W  888  43.830  10.666   1.781
28475W        W  889  44.414  40.810  11.479
28476W        W  890  43.303  26.599  11.489
28477W        W  891  35.425  10.863   1.446
28478W        W  892  25.174  38.440   2.242
28479W        W  893   8.842  12.701  14.476
28480W        W  894  22.611   6.276  11.011
28481W        W  895   6.321  39.920   0.881
28482W        W  896   5.795   1.750  11.046
28483W        W  897   0.379  39.555   0.906
28484W        W  898  21.666   2.737   0.452
28485W        W  899  42.030  18.106   2.385
28486W        W  900  39.815  40.542   2.842
28487W        W  901  38.036  15.626   2.727
28488W        W  902  23.679  21.222   2.332
28489W        W  903  26.176   7.741   0.316
28490W        W  904  36.492  44.806  12.075
28491W        W  905  31.951   6.218  14.781
28492W        W  906  19.639  37.840  14.842
28493W        W  907   8.242  16.588  12.834
28494W        W  908  15.105  19.535   0.806
28495W        W  909  34.546  21.746   3.639
28496W        W  910  16.089   8.762   0.381
28497W        W  911  29.561  36.870   2.249
28498W        W  912  34.871  28.026   2.837
28499W        W  913  14.249  15.721   0.937
28500W        W  914  40.895  38.494  10.571
28501W        W  915   2.294  39.452  10.508
28502W        W  916   2.733  12.124  13.827
28503W        W  917  30.000  29.487   0.847
28504W        W  918  32.484  21.709   4.714
28505W        W  919  10.250   3.432  14.973
28506W        W  920  19.284  20.741   0.738
28507W        W  921  12.266  40.396   4.606
28508W        W  922  18.590  43.792   2.877
28509W        W  923   4.448   4.869  14.853
28510W        W  924   5.198  10.753   0.737
28511W        W  925  17.571   8.355  12.532
28512W        W  926  20.666  43.347  14.906
28513W        W  927  12.306  39.399   2.380
28514W        W  928  22.730   0.331  12.846
28515W        W  929   1.307  15.162  11.893
28516W        W  930  39.946  24.065   1.840
28517W        W  931   3.824  40.511   0.958
28518W        W  932  27.176   9.779  13.875
28519W        W  933  19.658   9.259   4.175
28520W        W  934  20.203  14.677   3.356
28521W        W  935  24.615  14.168   2.804
28522W        W  936  10.144  26.470   2.763
28523W        W  937  18.215  29.539   3.746
28524W        W  938   7.267  13.786   2.890
28525W        W  939   3.351   5.342  10.417
28526W        W  940  27.659  41.856   4.309
28527W        W  941  36.399   3.329   3.312
28528W        W  942  44.804  42.456  10.472
28529W        W  943  11.144  15.288   3.164
28530W        W  944  16.691  18.233  14.894
28531W        W  945  24.606  18.217  14.841
28532W        W  946   6.702   3.360  12.343
28533W        W  947  28.505   6.865   1.909
28534W        W  948  38.971  26.683  13.939
28535W        W  949  25.609  36.065  14.421
28536W        W  950  10.212  24.606   0.460
28537W        W  951  25.509   5.787  11.374
28538W        W  952   7.743  18.266   5.291
28539W        W  953  35.898  33.978   3.158
28540W        W  954   3.390   1.281   2.859
28541W        W  955  29.586  31.415   4.318
28542W        W  956   3.458  21.042  14.898
28543W        W  957  21.175  38.415  11.943
28544W        W  958  32.046   6.335   0.383
28545W        W  959   3.453  36.946  11.510
28546W        W  960  32.455  32.418  11.864
28547W        W  961  16.190  19.551  14.277
28548W        W  962  27.041  17.635   4.738
28549W        W  963  15.649  28.476   4.304
28550W        W  964  38.910  36.389   0.758
28551W        W  965  31.425  33.419   1.372
28552W        W  966  37.873  25.669   0.818
28553W        W  967  25.078   7.184  12.072
28554W        W  968  13.332  25.126  13.880
28555W        W  969  23.575   7.182  13.797
28556W        W  970  16.135  34.462  11.948
28557W        W  971   4.730  25.675  13.976
28558W        W  972  24.489  10.153  11.951
28559W        W  973  24.028   3.754  13.309
28560W        W  974   2.410   4.289   2.215
28561W        W  975  34.545  29.105  12.089
28562W        W  976  36.959  10.660  11.466
28563W        W  977  37.045  17.251   0.882
28564W        W  978  37.352  23.698  12.974
28565W        W  979  22.720  27.682  11.099
28566W        W  980  35.856  17.643   4.756
28567W        W  981  28.658  22.228   0.814
28568W        W  982  11.255  33.878  11.424
28569W        W  983  20.157  13.129  11.578
28570W        W  984  32.934  14.740   1.359
28571W        W  985   6.228  36.964   4.695
28572W        W  986   5.736  30.117  12.385
28573W        W  987  12.702  14.321   1.761
28574W        W  988  33.544  37.495   2.329
28575W        W  989   0.425  12.786  14.957
28576W        W  990   2.966  23.204  13.393
28577W        W  991  42.830  18.558   3.633
28578W        W  992   5.302   6.207   1.279
28579W        W  993   9.381  34.993   0.879
28580W        W  994   5.780   9.294   3.805
28581W        W  995  25.214  25.187   2.224
28582W        W  996  37.969  37.352   5.295
28583W        W  997  11.331  34.527   1.854
28584W        W  998  31.457   4.420  13.870
28585W        W  999  43.977  21.117  14.780
28586W        W 1000   2.824  30.068  10.901
28587W        W 1001  30.447  11.684   1.921
28588W        W 1002   3.246  37.969  12.478
28589W        W 1003  44.891  35.597   2.886
28590W        W 1004  18.072   8.808   3.680
28591W        W 1005  25.582  21.017  10.626
28592W        W 1006  19.659  37.446   2.880
28593W        W 1007  24.019  16.757  12.512
28594W        W 1008  15.751  33.957   1.801
28595W        W 1009  31.963  35.854  12.580
28596W        W 1010   1.856  12.628  13.546
28597W        W 1011  37.844  31.035   2.816
28598W        W 1012   6.212  20.687  12.501
28599W        W 1013   1.951  39.958  13.846
28600W        W 1014  38.039  37.436   1.703
28601W        W 1015   1.808   2.435  12.421
28602W        W 1016  24.588   1.463   0.348
28603W        W 1017  44.860   8.777  11.473
28604W        W 1018  24.054   1.470   5.724
28605W        W 1019  32.122  40.913   3.373
28606W        W 1020   5.262   4.775  11.872
28607W        W 1021  30.463   9.664  13.820
28608W        W 1022  44.901  16.246   2.822
28609W        W 1023  33.380   5.709  12.509
28610W        W 1024  33.589   2.437  12.442
28611W        W 1025  35.993  35.408   2.290
28612W        W 1026  27.652  19.048  10.531
28613W        W 1027  33.059  10.679   1.296
28614W        W 1028  24.681   2.812  11.413
28615W        W 1029  26.008  30.465  14.420
28616W        W 1030  35.901  31.424   0.846
28617W        W 1031  22.223  41.956  11.946
28618W        W 1032  27.011  10.771   2.743
28619W        W 1033   6.733   7.826  11.948
28620W        W 1034  30.079  36.523  13.986
28621W        W 1035  18.560  20.205   4.311
28622W        W 1036  32.561  26.602   0.359
28623W        W 1037   8.668  38.981   1.356
28624W        W 1038  18.773  14.177  12.025
28625W        W 1039  27.563  18.189  11.961
28626W        W 1040  34.456  25.068  14.982
28627W        W 1041  37.476  33.411  12.885
28628W        W 1042   0.911  32.478   2.186
28629W        W 1043  18.134   7.844   4.229
28630W        W 1044  41.000  33.972   4.609
28631W        W 1045  36.883  43.877  12.351
28632W        W 1046  23.521  40.392  13.884
28633W        W 1047  15.275  36.375   0.924
28634W        W 1048  28.977  27.020  13.422
28635W        W 1049   7.837  43.819  12.998
28636W        W 1050  30.985  17.185   4.297
28637W        W 1051  14.624  18.264   4.159
28638W        W 1052   3.852  43.004  14.896
28639W        W 1053   2.893  36.560  12.529
28640W        W 1054  40.510   4.925   0.434
28641W        W 1055  44.964   9.285   4.260
28642W        W 1056  27.108  44.355   4.205
28643W        W 1057   8.398  25.126   4.825
28644W        W 1058  20.112  19.241   1.360
28645W        W 1059  17.066   3.268   3.674
28646W        W 1060  22.044  36.925  11.596
28647W        W 1061  44.872   1.411   1.699
28648W        W 1062  37.394  26.594   3.668
28649W        W 1063  22.167  27.486   1.736
28650W        W 1064  18.570   1.472  13.356
28651W        W 1065  20.147  14.308  11.035
28652W        W 1066  35.508  27.532  12.368
28653W        W 1067  17.618  18.783   1.313
28654W        W 1068  17.746   6.182   3.163
28655W        W 1069  12.788  30.451   2.722
28656W        W 1070  29.460   0.471  11.923
28657W        W 1071   7.399  32.086   3.344
28658W        W 1072  15.690  39.864  11.417
28659W        W 1073   5.414   7.758  13.447
28660W        W 1074  43.915  18.787  10.460
28661W        W 1075  24.576   7.189   2.333
28662W        W 1076  17.157   6.428  13.515
28663W        W 1077   9.200  21.626  12.867
28664W        W 1078  33.021  35.898  12.447
28665W        W 1079   7.277   7.310   3.342
28666W        W 1080  16.276  28.659  14.776
28667W        W 1081  11.794  41.813   1.925
28668W        W 1082  37.472  29.436  13.815
28669W        W 1083   1.894  24.615   0.483
28670W        W 1084  15.297  19.240   2.673
28671W        W 1085  41.428   6.775  13.465
28672W        W 1086  31.919   9.745  12.078
28673W        W 1087  42.831  19.700   2.215
28674W        W 1088  36.584  11.629   4.773
28675W        W 1089  19.706  29.074  13.059
28676W        W 1090  18.265  18.121  10.499
28677W        W 1091   5.701  24.519  13.339
28678W        W 1092   0.368  35.060   3.739
28679W        W 1093  27.970  20.711  11.045
28680W        W 1094  31.460  12.626  10.598
28681W        W 1095  43.971  35.911  13.903
28682W        W 1096  10.639   2.862  11.485
28683W        W 1097  44.410  29.664  11.040
28684W        W 1098  31.405  39.463  13.032
28685W        W 1099  33.455  11.794  12.893
28686W        W 1100  36.369  22.526  11.002
28687W        W 1101  14.308   1.917  13.915
28688W        W 1102  26.067   0.760  14.956
28689W        W 1103  32.966  18.083  12.938
28690W        W 1104  25.012  23.015   0.344
28691W        W 1105   3.238  25.218  11.389
28692W        W 1106  26.201   1.776   1.337
28693W        W 1107  36.999  21.609   2.347
28694W        W 1108  19.285  34.381   3.149
28695W        W 1109  11.838  34.906  12.983
28696W        W 1110  40.400  23.647  12.997
28697W        W 1111  24.134  22.016  10.408
28698W        W 1112   0.896   7.734  11.906
28699W        W 1113  11.627  20.240   0.264
28700W        W 1114   8.214  40.997  13.015
28701W        W 1115   0.836  21.568  14.903
28702W        W 1116  44.010  32.960   3.767
28703W        W 1117   0.966   5.276  11.082
28704W        W 1118  38.386  40.392  12.906
28705W        W 1119  41.526  29.142   3.775
28706W        W 1120  21.038  19.647  13.465
28707W        W 1121  15.283  17.078   5.094
28708W        W 1122   9.325  29.117   2.770
28709W        W 1123  41.521   3.286  14.928
28710W        W 1124   6.838  31.981  12.001
28711W        W 1125  43.483  20.629  13.951
28712W        W 1126  13.155   9.389   4.706
28713W        W 1127  15.107   6.878  13.353
28714W        W 1128  44.791  35.403  13.354
28715W        W 1129  23.987  12.655  12.431
28716W        W 1130  23.641  42.822  10.424
28717W        W 1131  35.927   1.241   4.689
28718W        W 1132   9.327  42.444  12.389
28719W        W 1133  13.328  23.507  11.401
28720W        W 1134  31.533   9.681   3.322
28721W        W 1135  27.963  23.125  11.125
28722W        W 1136  37.028   2.345  12.395
28723W        W 1137  27.465  14.318  12.016
28724W        W 1138   9.252  24.086   0.447
28725W        W 1139  25.705  39.016   1.841
28726W        W 1140  37.958  32.524   2.746
28727W        W 1141  31.928  19.127  14.459
28728W        W 1142  22.249   6.407  12.385
28729W        W 1143  33.031   7.675   2.381
28730W        W 1144  26.649  28.638   4.238
28731W        W 1145  34.012  21.683   2.216
28732W        W 1146  16.654   0.412  10.486
28733W        W 1147  24.624  11.354   2.366
28734W        W 1148  30.075  24.595   0.766
28735W        W 1149  10.189  18.285  14.511
28736W        W 1150  24.090   0.958  13.834
28737W        W 1151  14.115  25.034   3.658
28738W        W 1152  37.011  44.502   2.862
28739W        W 1153   3.282  41.319  12.966
28740W        W 1154   6.416  12.159  11.531
28741W        W 1155  38.012  34.992  11.983
28742W        W 1156  19.153   3.784   1.793
28743W        W 1157  20.149  14.234  10.462
28744W        W 1158  38.539   8.749  13.056
28745W        W 1159  25.009   3.218   2.236
28746W        W 1160  25.027  22.171  11.887
28747W        W 1161  28.586   0.316  11.458
28748W        W 1162  43.827  11.744   0.255
28749W        W 1163   0.879   1.814   3.237
28750W        W 1164   6.697  31.487  11.018
28751W        W 1165  17.194  41.953  11.014
28752W        W 1166  21.572  36.507  14.003
28753W        W 1167  15.323  37.986  11.550
28754W        W 1168  39.431   3.442  11.986
28755W        W 1169  28.956   8.896   1.885
28756W        W 1170  15.123  40.018   0.935
28757W        W 1171  37.407  17.664  12.361
28758W        W 1172  12.769  37.032  13.474
28759W        W 1173   9.861  15.687   0.272
28760W        W 1174  41.320  36.497  14.991
28761W        W 1175  28.975  39.994   2.723
28762W        W 1176  34.431  31.036   0.437
28763W        W 1177  28.157  10.645  13.532
28764W        W 1178   8.238   9.384   2.280
28765W        W 1179  29.020  16.135  11.105
28766W        W 1180  36.539   3.232   5.135
28767W        W 1181   1.444  37.563   4.188
28768W        W 1182  11.295  33.027   2.357
28769W        W 1183  39.497  43.943   3.192
28770W        W 1184  30.463  33.895  11.525
28771W        W 1185  24.488   0.321   0.885
28772W        W 1186   6.806  18.099   4.814
28773W        W 1187   4.738  24.721   5.146
28774W        W 1188  28.522   5.914  12.426
28775W        W 1189  44.930  35.966  13.450
28776W        W 1190   3.269  10.331  11.540
28777W        W 1191  27.980   3.422   0.753
28778W        W 1192   7.721  44.416  10.900
28779W        W 1193  10.873  16.096   3.827
28780W        W 1194  26.166  40.387  10.478
28781W        W 1195  22.155  43.371   3.701
28782W        W 1196  10.697  10.372   4.303
28783W        W 1197  22.073  33.582   1.375
28784W        W 1198  14.250   0.886   4.784
28785W        W 1199   2.456  16.621   0.927
28786W        W 1200   5.892   2.860  12.430
28787W        W 1201   5.759   7.811  13.032
28788W        W 1202  11.624  44.874  12.547
28789W        W 1203  11.179  21.725  14.286
28790W        W 1204   2.911  41.948  12.572
28791W        W 1205   5.856  30.537   2.753
28792W        W 1206  39.953  27.582   1.768
28793W        W 1207  16.715  39.931  10.444
28794W        W 1208  11.827  17.271   0.836
28795W        W 1209  24.134  24.213   4.708
28796W        W 1210  36.469  38.899   3.701
28797W        W 1211  42.798  15.618   4.177
28798W        W 1212  38.406   4.381   3.376
28799W        W 1213  34.396   6.255  12.870
28800W        W 1214  15.777  32.628   0.408
28801W        W 1215   0.866  28.669  14.384
28802W        W 1216  30.155   1.391   0.433
28803W        W 1217  17.584  17.077   2.266
28804W        W 1218  12.224  30.451  13.329
28805W        W 1219  25.043   8.693  12.009
28806W        W 1220  40.438   7.186  12.023
28807W        W 1221  41.335  34.538  12.446
28808W        W 1222   6.197  31.488  14.423
28809W        W 1223  35.563  26.476   2.687
28810W        W 1224  19.160  21.633   0.834
28811W        W 1225  22.691  15.744   0.763
28812W        W 1226  30.080  16.296  12.055
28813W        W 1227   2.365   5.844   1.803
28814W        W 1228   4.728   0.464   3.657
28815W        W 1229  31.000   1.412  11.014
28816W        W 1230  14.656  23.723  12.405
28817W        W 1231  10.667  42.325   0.798
28818W        W 1232  37.340  17.737   3.358
28819W        W 1233  30.437  38.026   2.416
28820W        W 1234  22.668   1.347   1.913
28821W        W 1235  23.103  16.673  14.828
28822W        W 1236   8.201  24.640   2.791
28823W        W 1237  27.492  23.589   4.245
28824W        W 1238  17.153  33.887  13.057
28825W        W 1239  21.747  33.581   3.278
28826W        W 1240  20.568  35.493  12.357
28827W        W 1241   4.890  18.277   4.634
28828W        W 1242   2.395   4.364   1.697
28829W        W 1243   2.834  43.019  10.496
28830W        W 1244   3.373  17.125   3.834
28831W        W 1245  42.856  31.986  11.579
28832W        W 1246   8.866  42.782  13.813
28833W        W 1247   6.874  29.444  11.121
28834W        W 1248  21.655  20.155   4.667
28835W        W 1249  43.507  40.462  14.998
28836W        W 1250  26.994  16.232  12.576
28837W        W 1251  36.416  25.631   1.304
28838W        W 1252   0.288   9.182   4.280
28839W        W 1253   9.338  24.993   1.343
28840W        W 1254  11.354  37.389  12.405
28841W        W 1255   2.924  35.403  10.491
28842W        W 1256  24.999  17.653   2.727
28843W        W 1257  34.877  11.855   1.719
28844W        W 1258  27.479  10.165  10.549
28845W        W 1259   3.733  42.906   9.617
28846W        W 1260   9.650  17.647  11.375
28847W        W 1261   1.436   0.268   3.733
28848W        W 1262  16.101  28.593   4.183
28849W        W 1263  34.869  36.476   0.340
28850W        W 1264  23.527  17.233   4.232
28851W        W 1265  33.383  21.691  12.357
28852W        W 1266  23.516  21.147  14.451
28853W        W 1267  22.550  41.041  13.009
28854W        W 1268  41.955   2.334   3.810
28855W        W 1269  34.449   2.443  14.959
28856W        W 1270  28.565   3.343   4.162
28857W        W 1271  34.526  42.401   1.821
28858W        W 1272   4.279  23.580   3.375
28859W        W 1273   8.294  15.257   0.932
28860W        W 1274  43.365   7.709  13.527
28861W        W 1275  34.107  14.165  14.279
28862W        W 1276  44.820   5.870   3.638
28863W        W 1277  20.550  44.416   9.578
28864W        W 1278  28.463   2.748  12.068
28865W        W 1279  13.745  14.193   1.695
28866W        W 1280  17.158  40.852  12.441
28867W        W 1281  13.114  22.029   2.298
28868W        W 1282  37.864  36.498   3.169
28869W        W 1283  43.386  42.972  11.519
28870W        W 1284  40.456  43.863  12.874
28871W        W 1285   4.842  22.019   2.813
28872W        W 1286  30.017   5.416   0.817
28873W        W 1287  30.580  26.174   1.912
28874W        W 1288  33.469  38.355   1.358
28875W        W 1289  19.272  38.480  11.903
28876W        W 1290   2.285  41.419  10.619
28877W        W 1291  25.698  20.203  10.912
28878W        W 1292  24.213  44.939   2.821
28879W        W 1293  33.037  15.640  11.094
28880W        W 1294   6.258  41.304  13.493
28881W        W 1295  40.921  43.008  11.917
28882W        W 1296  41.879  43.871   3.297
28883W        W 1297  10.322  36.465   3.692
28884W        W 1298   9.158  25.700  12.995
28885W        W 1299  40.917  21.192   1.712
28886W        W 1300  16.742  20.245  11.550
28887W        W 1301  32.945  41.819  13.488
28888W        W 1302  40.052  37.951  12.503
28889W        W 1303  38.393   5.296  11.612
28890W        W 1304   2.362  43.884  11.579
28891W        W 1305  27.131  10.320   2.328
28892W        W 1306  33.518  39.437  14.957
28893W        W 1307  22.642   3.954   1.807
28894W        W 1308  36.908  43.485  10.933
28895W        W 1309   1.838  35.425   0.837
28896W        W 1310  29.934  22.152   0.358
28897W        W 1311  36.537  13.285   1.809
28898W        W 1312  10.339  23.214  11.057
28899W        W 1313  14.202  26.615  11.581
28900W        W 1314  31.904  42.019   3.681
28901W        W 1315  26.612  21.644   1.784
28902W        W 1316  21.617  10.791  11.492
28903W        W 1317  18.625  36.984   0.942
28904W        W 1318  25.558  12.353   2.302
28905W        W 1319  13.348  16.238   3.372
28906W        W 1320  36.354  23.613   0.423
28907W        W 1321   0.464  38.961  14.439
28908W        W 1322  23.614  41.960  12.424
28909W        W 1323   9.245   1.285   4.683
28910W        W 1324  18.090  27.463   3.222
28911W        W 1325  23.529  34.603   2.267
28912W        W 1326  25.495   5.848  14.340
28913W        W 1327   3.846  43.920   4.201
28914W        W 1328   7.782  31.900   2.295
28915W        W 1329  31.909  20.209   0.411
28916W        W 1330  43.834  24.202   1.395
28917W        W 1331  44.938   4.705  14.335
28918W        W 1332  38.502  17.303   3.234
28919W        W 1333   1.836  11.662  12.454
28920W        W 1334   5.925  37.576   2.279
28921W        W 1335   6.419  41.486   5.179
28922W        W 1336  40.514  27.666  14.397
28923W        W 1337  36.379  44.896   1.836
28924W        W 1338   5.284  28.521   2.791
28925W        W 1339  14.782  43.436   4.810
28926W        W 1340  37.355  35.892  13.829
28927W        W 1341  41.871   8.325   3.747
28928W        W 1342   0.757  21.231   2.298
28929W        W 1343   2.320  41.865  13.341
28930W        W 1344   9.724  43.848   1.836
28931W        W 1345  38.943  40.411  12.492
28932W        W 1346  41.839   9.351  13.449
28933W        W 1347  23.534  32.084  10.617
28934W        W 1348  41.314  16.665   1.366
28935W        W 1349  30.530  42.285   0.302
28936W        W 1350  16.618  14.302   1.398
28937W        W 1351  44.800  19.666  12.551
28938W        W 1352  16.761  19.277   5.320
28939W        W 1353  21.102   5.193  10.466
28940W        W 1354  10.172  43.926   5.085
28941W        W 1355  39.008  38.964   2.194
28942W        W 1356  31.056  37.467   2.409
28943W        W 1357  16.112  18.676  11.078
28944W        W 1358  35.084  38.041   2.410
28945W        W 1359   8.213  25.977   1.315
28946W        W 1360   2.285   5.932  11.474
28947W        W 1361  13.143  42.022  13.903
28948W        W 1362  44.394  24.709   1.822
28949W        W 1363   8.792  40.827   2.310
28950W        W 1364  17.298  43.365   2.854
28951W        W 1365   8.782  35.899  12.985
28952W        W 1366  44.384  40.327   5.197
28953W        W 1367   5.853   1.463  13.452
28954W        W 1368  19.171  31.102   0.407
28955W        W 1369   5.267  20.121   1.796
28956W        W 1370   1.834  13.168  14.442
28957W        W 1371  17.283  17.164   1.317
28958W        W 1372  25.973  21.134   1.864
28959W        W 1373  17.160  28.611   2.183
28960W        W 1374  23.192  10.286  14.965
28961W        W 1375   6.859  10.252  14.818
28962W        W 1376  16.202  37.841   0.790
28963W        W 1377  40.966  24.166   1.410
28964W        W 1378   1.781   9.721  10.528
28965W        W 1379  15.292  24.977   0.949
28966W        W 1380  20.592  20.137   1.276
28967W        W 1381  34.869  44.911  13.941
28968W        W 1382  11.756  28.165   3.345
28969W        W 1383   4.398  21.069   3.848
28970W        W 1384   4.366  12.771  14.834
28971W        W 1385  36.591  32.422   2.185
28972W        W 1386  44.959  40.424  10.608
28973W        W 1387  43.427  20.230   0.259
28974W        W 1388   8.369  26.957  10.639
28975W        W 1389  31.900   2.725  14.762
28976W        W 1390   3.273  31.420   3.867
28977W        W 1391  17.604  35.540  13.873
28978W        W 1392  39.429  15.646   4.180
28979W        W 1393  23.016  33.970  10.551
28980W        W 1394  17.649  39.380   3.803
28981W        W 1395  41.452  17.583   2.350
28982W        W 1396  29.035   5.895  12.452
28983W        W 1397  19.214  11.833   2.734
28984W        W 1398  29.054  19.573   3.683
28985W        W 1399  43.821  42.914   1.785
28986W        W 1400  43.292   2.439   2.386
28987W        W 1401  37.855  24.616   1.919
28988W        W 1402  21.558  25.490  10.580
28989W        W 1403  10.285  42.834   1.730
28990W        W 1404  31.430   3.956  13.488
28991W        W 1405  21.130  28.646   4.825
28992W        W 1406  40.501  33.986   0.812
28993W        W 1407  15.131  29.973  11.499
28994W        W 1408  24.674  31.104  12.487
28995W        W 1409  42.510  15.696  13.994
28996W        W 1410  37.465   4.749   0.482
28997W        W 1411  23.504   4.700  11.505
28998W        W 1412  21.247  34.970  12.409
28999W        W 1413  30.595  37.975  11.967
29000W        W 1414  36.445  40.339   2.779
29001W        W 1415  11.278  27.490  10.439
29002W        W 1416  28.519  11.355   0.475
29003W        W 1417  29.615  32.627  11.380
29004W        W 1418  37.056  28.510  14.774
29005W        W 1419  24.194  37.516   3.311
29006W        W 1420  44.327   2.909   0.890
29007W        W 1421  26.496  43.491  12.501
29008W        W 1422  21.673  14.767   3.285
29009W        W 1423   1.827  21.513   4.303
29010W        W 1424  39.534  27.581  12.354
29011W        W 1425  29.061  37.974  14.998
29012W        W 1426  34.068  15.587  10.415
29013W        W 1427   3.714  14.730   2.200
29014W        W 1428  40.402   2.851  14.384
29015W        W 1429  12.235  43.445   1.757
29016W        W 1430   4.235  16.650   0.913
29017W        W 1431  25.074  28.552   2.876
29018W        W 1432  39.317   1.455   3.830
29019W        W 1433  37.979  16.638  12.041
29020W        W 1434   5.691  30.562   0.942
29021W        W 1435  10.847  23.020  14.822
29022W        W 1436  17.585  18.620  11.022
29023W        W 1437  40.438  42.831  11.396
29024W        W 1438  41.826  10.783  11.388
29025W        W 1439  25.974  31.620  12.497
29026W        W 1440  36.037  15.230   4.123
29027W        W 1441  12.334  14.247  10.426
29028W        W 1442   9.210  13.719   0.754
29029W        W 1443  23.168  44.894  11.897
29030W        W 1444  14.814  13.825   2.835
29031W        W 1445  28.947  23.623  14.793
29032W        W 1446  32.448  19.705   3.194
29033W        W 1447  20.252  37.552   3.781
29034W        W 1448   4.858  31.017  11.487
29035W        W 1449  13.612  16.170  13.056
29036W        W 1450  19.078  24.639  12.451
29037W        W 1451  22.523   8.815   5.235
29038W        W 1452   0.854  10.644   2.862
29039W        W 1453  34.897   1.463  11.494
29040W        W 1454   7.779  39.475   1.285
29041W        W 1455  33.475  40.981  12.843
29042W        W 1456  27.599  39.404  12.994
29043W        W 1457  12.815  10.172  13.838
29044W        W 1458   1.285   8.742  10.888
29045W        W 1459  35.474  11.216   3.229
29046W        W 1460  30.606  34.597  13.463
29047W        W 1461  39.853  15.121  10.476
29048W        W 1462   7.845  11.860   4.686
29049W        W 1463  33.018  16.779   1.835
29050W        W 1464  11.722  27.197   2.313
29051W        W 1465  27.573  30.486  10.423
29052W        W 1466  31.931  41.858   2.894
29053W        W 1467   2.846  12.201  12.078
29054W        W 1468   8.201  22.243   4.153
29055W        W 1469  26.678  13.762   3.707
29056W        W 1470  33.592  41.452  10.978
29057W        W 1471  42.898  28.597  14.287
29058W        W 1472   3.892   8.795   1.385
29059W        W 1473   0.397   0.893  10.604
29060W        W 1474  21.630   1.833   1.353
29061W        W 1475  34.873  14.590   4.244
29062W        W 1476   3.777  34.464  10.544
29063W        W 1477  43.278  23.586   1.933
29064W        W 1478  13.805  26.672   0.781
29065W        W 1479  25.023  44.353  13.486
29066W        W 1480   4.737   0.908  12.542
29067W        W 1481  44.789   8.752   1.714
29068W        W 1482   6.316  44.353  14.499
29069W        W 1483  11.245   9.375   4.720
29070W        W 1484   0.924  26.959   4.678
29071W        W 1485  39.888  35.092  13.511
29072W        W 1486  39.947  16.576  12.890
29073W        W 1487  23.116   9.318  13.493
29074W        W 1488  12.264  25.624   1.709
29075W        W 1489  37.991  41.857   3.649
29076W        W 1490  13.328  33.887   0.779
29077W        W 1491  19.278  35.444  13.406
29078W        W 1492   8.876  40.939  14.769
29079W        W 1493  21.160   4.830   1.389
29080W        W 1494  15.193  44.329  12.469
29081W        W 1495   3.927  34.433   0.369
29082W        W 1496  33.093  21.520  10.601
29083W        W 1497  18.146   8.360  14.339
29084W        W 1498  35.542  31.481  11.459
29085W        W 1499   9.366   2.865  12.557
29086W        W 1500  17.184  22.017   3.372
29087W        W 1501  30.993   4.941  13.511
29088W        W 1502  17.777  23.106   4.619
29089W        W 1503  28.524  14.589  10.579
29090W        W 1504  28.571  11.648  14.920
29091W        W 1505  32.548  19.544  10.458
29092W        W 1506  39.057  12.732   0.903
29093W        W 1507   0.876  39.472   1.399
29094W        W 1508  35.010   2.938   3.632
29095W        W 1509  42.790  44.267   3.315
29096W        W 1510  37.537  22.602  14.810
29097W        W 1511   2.826  38.822   3.764
29098W        W 1512  36.927   4.730  12.025
29099W        W 1513  41.933   7.822   1.826
29100W        W 1514   7.725  37.505   1.881
29101W        W 1515  43.807  32.113   1.366
29102W        W 1516  20.704  40.392  14.466
29103W        W 1517  31.580  16.307   1.264
29104W        W 1518  37.075  26.000  11.939
29105W        W 1519  34.922   2.813  12.093
29106W        W 1520   3.845   6.257  12.954
29107W        W 1521  42.820   1.783   3.323
29108W        W 1522  30.066  22.718   4.661
29109W        W 1523  25.027  34.908  13.053
29110W        W 1524   8.826  25.003  11.375
29111W        W 1525   8.256   8.236   0.903
29112W        W 1526  24.003  15.138  10.533
29113W        W 1527  29.517  18.139  10.135
29114W        W 1528  10.166  44.760  12.051
29115W        W 1529   1.962  23.495   3.710
29116W        W 1530  17.269  28.664   1.929
29117W        W 1531  30.063   3.839  14.852
29118W        W 1532   9.854  41.858  12.571
29119W        W 1533   8.386  26.647   1.832
29120W        W 1534  30.595  38.925   2.794
29121W        W 1535   6.398  38.916   0.756
29122W        W 1536  25.530  15.289  10.916
29123W        W 1537  36.364  20.702   1.773
29124W        W 1538  13.700  38.897   0.868
29125W        W 1539  16.092   2.342  13.374
29126W        W 1540  43.282  43.324  10.485
29127W        W 1541  19.087  35.080   1.846
29128W        W 1542  44.501  15.653  10.018
29129W        W 1543  35.583  15.649   1.426
29130W        W 1544  19.260  10.804   2.371
29131W        W 1545   0.389  17.076  11.895
29132W        W 1546  14.214  31.632  14.002
29133W        W 1547  20.651  42.862   4.675
29134W        W 1548  40.335  21.648  14.323
29135W        W 1549  20.263  16.083   0.829
29136W        W 1550  25.186  18.123   5.596
29137W        W 1551  30.436  35.554  14.484
29138W        W 1552   0.938  24.216   0.812
29139W        W 1553  28.167  37.506   3.206
29140W        W 1554  29.171  20.595   1.897
29141W        W 1555  39.823   5.750   2.187
29142W        W 1556  19.624  40.323   2.739
29143W        W 1557  14.784  12.309  10.945
29144W        W 1558  37.966  38.452   2.664
29145W        W 1559  19.117  21.677  14.768
29146W        W 1560  33.920  43.948   4.256
29147W        W 1561  26.077  27.679  11.901
29148W        W 1562  11.127  12.773  11.014
29149W        W 1563   0.314  38.403   0.481
29150W        W 1564  34.000  13.717   1.893
29151W        W 1565   2.886  39.848   0.751
29152W        W 1566  38.897   3.369   3.799
29153W        W 1567   3.810  16.707  11.434
29154W        W 1568  18.218  12.798   1.699
29155W        W 1569  28.559   3.749  14.317
29156W        W 1570  22.723  19.647   1.928
29157W        W 1571  37.864  22.184   1.410
29158W        W 1572  44.764  23.527  14.841
29159W        W 1573  22.732  15.175   3.179
29160W        W 1574  10.741  24.514   3.685
29161W        W 1575  34.597   9.220  13.397
29162W        W 1576  16.230  24.529  11.375
29163W        W 1577  17.611  43.981   4.116
29164W        W 1578   1.264   0.441   0.819
29165W        W 1579  33.419  26.030   2.792
29166W        W 1580  29.577  23.695   1.262
29167W        W 1581  40.815   0.854  14.353
29168W        W 1582  37.990   9.673   2.268
29169W        W 1583  44.837  21.259   1.808
29170W        W 1584  38.031  34.485  10.145
29171W        W 1585   6.880  14.825   4.662
29172W        W 1586  35.392  21.129  10.641
29173W        W 1587  23.039  34.596  12.067
29174W        W 1588  13.804   3.915  12.410
29175W        W 1589   3.773  29.642  12.565
29176W        W 1590  10.867  37.426   1.451
29177W        W 1591  27.577  40.050  12.053
29178W        W 1592  11.809  36.928   1.304
29179W        W 1593  35.967  14.673  12.032
29180W        W 1594  28.451  33.617  10.518
29181W        W 1595  41.797  14.754  10.447
29182W        W 1596  36.015   2.880  13.518
29183W        W 1597  14.167  25.679  10.422
29184W        W 1598   3.260  36.424   3.291
29185W        W 1599  29.593  21.165   4.762
29186W        W 1600  25.024  44.954   1.246
29187W        W 1601  15.205  43.270  10.458
29188W        W 1602  37.013   0.487   2.310
29189W        W 1603  39.827  40.454   3.736
29190W        W 1604  11.358  27.940  11.048
29191W        W 1605  43.348  22.007  12.962
29192W        W 1606  37.425  27.567   1.431
29193W        W 1607  34.518  40.915   2.370
29194W        W 1608  23.595  38.012   4.222
29195W        W 1609  26.115  25.539  14.415
29196W        W 1610  12.656   5.423  11.488
29197W        W 1611  24.196  16.143   4.304
29198W        W 1612  36.011  32.392   0.746
29199W        W 1613  12.268  38.008  14.283
29200W        W 1614   1.400  26.056  12.044
29201W        W 1615  41.366  18.732  13.540
29202W        W 1616  25.676  17.235  11.508
29203W        W 1617  43.348  38.379  13.346
29204W        W 1618  22.211  15.246   0.859
29205W        W 1619  27.020  22.251   1.887
29206W        W 1620  37.017  36.385  11.557
29207W        W 1621   1.915  43.838   3.651
29208W        W 1622  33.583  21.756   0.827
29209W        W 1623  43.332  32.554  11.100
29210W        W 1624  25.598   4.314  11.094
29211W        W 1625  35.487  33.572   4.156
29212W        W 1626  40.994  12.287   0.263
29213W        W 1627  17.121  37.973   4.805
29214W        W 1628  30.954  35.549  14.955
29215W        W 1629  44.422  16.254   4.657
29216W        W 1630  24.039  39.350   3.198
29217W        W 1631   6.397  26.590  13.923
29218W        W 1632  12.652  42.455  11.953
29219W        W 1633  14.337  20.615   4.201
29220W        W 1634  11.679  29.560  10.459
29221W        W 1635  13.167  42.866   0.403
29222W        W 1636   9.160  35.895  12.843
29223W        W 1637  25.012   6.852   1.249
29224W        W 1638  40.927  11.323  12.835
29225W        W 1639   9.251   1.902   9.927
29226W        W 1640   6.199  34.534  12.850
29227W        W 1641  25.000  22.098  10.014
29228W        W 1642  24.126  19.546  12.412
29229W        W 1643  28.992  35.898   0.818
29230W        W 1644  12.350  44.276   0.868
29231W        W 1645  19.739   1.273  11.010
29232W        W 1646   0.457  18.790  12.518
29233W        W 1647  39.475   3.854   1.822
29234W        W 1648  34.598  24.161  14.456
29235W        W 1649  31.986  19.209   0.745
29236W        W 1650   6.842  17.733  12.837
29237W        W 1651  23.230  19.114   0.877
29238W        W 1652  44.358  30.607   0.932
29239W        W 1653   0.453  32.896  12.962
29240W        W 1654  21.098  21.019  14.412
29241W        W 1655  21.738  29.936   3.342
29242W        W 1656  31.453  37.991  11.102
29243W        W 1657  36.578   7.772   3.662
29244W        W 1658  35.572  42.299  10.564
29245W        W 1659  21.715  36.980  12.941
29246W        W 1660  26.459  35.048   5.309
29247W        W 1661  22.145  44.261   0.307
29248W        W 1662   2.463  26.635  12.915
29249W        W 1663  21.545  33.972   2.183
29250W        W 1664  43.007  27.692  13.422
29251W        W 1665  20.748  43.872   2.186
29252W        W 1666  31.966   3.880   5.204
29253W        W 1667   5.806  26.602   2.815
29254W        W 1668  18.281  18.253   4.292
29255W        W 1669  26.493  18.553  13.828
29256W        W 1670  39.966  20.200  13.956
29257W        W 1671  21.091  39.417  12.490
29258W        W 1672  40.480   1.476   4.277
29259W        W 1673  20.224  35.948   0.917
29260W        W 1674  20.604  14.710  12.344
29261W        W 1675  39.337  19.554   4.778
29262W        W 1676  30.975   3.257  13.859
29263W        W 1677  43.811  21.197  11.076
29264W        W 1678  19.189  18.074  10.540
29265W        W 1679  24.149  30.015   1.278
29266W        W 1680   5.385  18.659  11.047
29267W        W 1681   0.393  26.065   3.274
29268W        W 1682  38.873   8.764  10.080
29269W        W 1683  39.969  22.137  12.881
29270W        W 1684  28.008  32.461   2.865
29271W        W 1685  43.776  20.191  14.501
29272W        W 1686  16.310   7.245  11.917
29273W        W 1687   2.433  38.991   0.749
29274W        W 1688  27.514  20.747   0.310
29275W        W 1689  24.218  32.106   0.801
29276W        W 1690  15.763  24.994  11.098
29277W        W 1691  16.318  16.626   2.269
29278W        W 1692   2.448  13.218  13.829
29279W        W 1693   2.363   1.291  14.827
29280W        W 1694  14.181  11.141  13.899
29281W        W 1695   4.419  20.699   4.188
29282W        W 1696  33.988   4.934  13.912
29283W        W 1697  40.468  32.604   1.389
29284W        W 1698   9.668  32.996   1.343
29285W        W 1699   2.376  42.448   1.872
29286W        W 1700  28.147   5.391   0.836
29287W        W 1701   7.244  13.303  13.403
29288W        W 1702  29.099   5.387   0.314
29289W        W 1703   6.357  40.850   2.402
29290W        W 1704  37.082  11.139   4.135
29291W        W 1705  15.318   7.336  11.858
29292W        W 1706  33.384  44.322   0.247
29293W        W 1707  41.805  15.629  11.894
29294W        W 1708   8.206   2.727  13.392
29295W        W 1709  13.166  38.984  10.625
29296W        W 1710  37.046  10.828  13.928
29297W        W 1711  32.999  15.202  10.947
29298W        W 1712  39.466  26.620   1.761
29299W        W 1713  31.621  43.862  14.916
29300W        W 1714  29.175  13.281  13.511
29301W        W 1715  42.448  15.323  13.336
29302W        W 1716  12.669   3.902  12.573
29303W        W 1717  17.710  23.095  14.982
29304W        W 1718   9.807  32.968  10.962
29305W        W 1719   2.894  37.013   3.332
29306W        W 1720  10.708  27.484   1.907
29307W        W 1721  37.439  10.205   0.327
29308W        W 1722  14.137  38.048  12.391
29309W        W 1723  10.701   2.261   2.828
29310W        W 1724  41.044   5.210   0.260
29311W        W 1725  33.466  37.873  12.573
29312W        W 1726  26.514  14.730   3.714
29313W        W 1727   3.394  34.397  10.903
29314W        W 1728   2.848   8.880  11.030
29315W        W 1729  34.956  10.830  13.038
29316W        W 1730  25.095   0.972   2.793
29317W        W 1731  11.361   3.302   3.733
29318W        W 1732  26.095  44.974  11.943
29319W        W 1733   7.185  22.178  12.027
29320W        W 1734  39.492  14.715   3.747
29321W        W 1735  31.422  16.111  13.428
29322W        W 1736  24.141  40.883   1.756
29323W        W 1737  26.102  28.476  12.467
29324W        W 1738  13.335   5.753   1.210
29325W        W 1739  12.264  44.271  14.912
29326W        W 1740  13.325  44.362  10.096
29327W        W 1741  12.790  44.881  11.904
29328W        W 1742  31.588  38.976   1.833
29329W        W 1743  35.980   4.367   0.767
29330W        W 1744  27.978  32.938  11.417
29331W        W 1745   0.476  28.931   1.897
29332W        W 1746  33.395  24.550  12.550
29333W        W 1747  11.174  28.462  14.507
29334W        W 1748  15.582  21.625  12.852
29335W        W 1749   2.721  33.390  11.382
29336W        W 1750   9.310  26.045  11.053
29337W        W 1751  32.100  22.181  14.299
29338W        W 1752  12.273   2.929   2.691
29339W        W 1753  10.274   7.894  10.918
29340W        W 1754  22.513  34.965  10.562
29341W        W 1755  28.595   9.792  11.049
29342W        W 1756  37.474  13.249  10.515
29343W        W 1757  43.474  36.016   0.910
29344W        W 1758   3.437   4.856  10.557
29345W        W 1759  17.239  22.130   0.443
29346W        W 1760   2.239  39.006  14.848
29347W        W 1761  44.916  15.090   3.304
29348W        W 1762  12.180  11.336   3.831
29349W        W 1763   8.864  11.638  11.912
29350W        W 1764  30.004  17.601   4.136
29351W        W 1765   7.412  27.118   4.709
29352W        W 1766  30.601  21.232  14.887
29353W        W 1767   2.261  37.454  10.553
29354W        W 1768  29.020  29.438   2.331
29355W        W 1769   0.968  28.127   2.672
29356W        W 1770  14.311  27.672  13.328
29357W        W 1771  36.438  44.905  13.412
29358W        W 1772  15.744  19.555   1.336
29359W        W 1773  37.999  41.295  10.997
29360W        W 1774   4.418  35.522  13.509
29361W        W 1775   9.656   0.261   1.777
29362W        W 1776   0.412  42.838   2.716
29363W        W 1777  11.153   3.825   3.717
29364W        W 1778  10.347   5.391   0.887
29365W        W 1779   4.772  39.952   0.379
29366W        W 1780  37.535  36.505   5.717
29367W        W 1781  39.530  33.122   0.870
29368W        W 1782  30.912  16.749   1.715
29369W        W 1783  29.129  28.546  10.961
29370W        W 1784  27.663  26.075   2.828
29371W        W 1785  37.082  23.621   4.621
29372W        W 1786   7.706   1.302   2.223
29373W        W 1787  43.389  38.404   2.387
29374W        W 1788  21.145  17.139   4.244
29375W        W 1789  24.720  20.627  14.383
29376W        W 1790  24.059   9.700  14.865
29377W        W 1791  24.163  27.130   3.721
29378W        W 1792   3.266  13.204  13.840
29379W        W 1793   3.951  32.057   9.977
29380W        W 1794   3.399  17.178   3.212
29381W        W 1795  19.067   5.896   0.396
29382W        W 1796  41.432  24.133   3.673
29383W        W 1797  40.989  14.280   3.322
29384W        W 1798  20.529  17.576  12.980
29385W        W 1799   5.704  12.819   4.816
29386W        W 1800  12.300   3.285   2.207
29387W        W 1801  13.285  37.337   4.761
29388W        W 1802  38.352  25.093   4.736
29389W        W 1803  26.459  31.624   1.365
29390W        W 1804  19.235   1.849   1.369
29391W        W 1805   8.690  23.133  12.506
29392W        W 1806  42.443   7.414  12.956
29393W        W 1807  23.646  35.023   3.373
29394W        W 1808  28.435  40.451  12.937
29395W        W 1809  44.432  40.040  12.547
29396W        W 1810  16.194  10.876  13.877
29397W        W 1811  11.777  24.528  13.893
29398W        W 1812  36.036  31.005   0.307
29399W        W 1813  26.981  10.213   1.297
29400W        W 1814   6.234  21.179   0.346
29401W        W 1815  13.837  40.322  13.994
29402W        W 1816   3.799   9.786   2.213
29403W        W 1817   4.893  12.797  11.450
29404W        W 1818  11.722   3.438   0.362
29405W        W 1819  15.763  10.642   3.248
29406W        W 1820  33.021  26.035   1.829
29407W        W 1821   7.389  34.076   0.475
29408W        W 1822  35.459  15.716   0.850
29409W        W 1823   4.879  41.485   0.386
29410W        W 1824  14.238  35.431  12.972
29411W        W 1825  39.912  19.062   4.599
29412W        W 1826  22.156   5.735  11.431
29413W        W 1827  44.969  43.997  14.330
29414W        W 1828  42.822  29.489  11.934
29415W        W 1829  11.713  36.031  11.987
29416W        W 1830  16.136  14.794  12.891
29417W        W 1831  11.866  30.000   3.851
29418W        W 1832  12.209  42.831  10.946
29419W        W 1833  15.263  28.168  14.451
29420W        W 1834   4.277   9.274   0.941
29421W        W 1835   2.429  25.126  12.012
29422W        W 1836  19.056  26.607   0.357
29423W        W 1837  38.439   2.804   3.207
29424W        W 1838  13.331  24.619   1.853
29425W        W 1839  14.321  13.251  12.543
29426W        W 1840  19.209  15.644   4.679
29427W        W 1841  25.152  28.018   4.809
29428W        W 1842  23.490   1.436   0.382
29429W        W 1843  43.462  17.106  11.082
29430W        W 1844   1.768  42.432  13.045
29431W        W 1845   7.382   1.422  13.889
29432W        W 1846  29.006  13.350  11.999
29433W        W 1847  21.221  31.493  14.953
29434W        W 1848  32.413  20.268  14.455
29435W        W 1849  30.518  10.185   0.449
29436W        W 1850  38.909   1.874   1.350
29437W        W 1851   1.335  30.099  10.890
29438W        W 1852  27.089  41.416  11.996
29439W        W 1853  26.699  23.554   4.262
29440W        W 1854  25.478  19.766  13.896
29441W        W 1855  26.518  32.899   3.865
29442W        W 1856  19.149  37.898   1.763
29443W        W 1857  29.465   0.914   2.379
29444W        W 1858  33.520  16.735   2.705
29445W        W 1859   5.432  32.089   2.872
29446W        W 1860  22.743  39.959   1.703
29447W        W 1861   9.691   5.888   4.816
29448W        W 1862  22.198  18.094   0.274
29449W        W 1863  18.640   4.222   1.870
29450W        W 1864  12.324  11.329  11.077
29451W        W 1865  38.408   2.822   0.338
29452W        W 1866   5.425   4.293  14.294
29453W        W 1867  10.307   8.719   4.281
29454W        W 1868  42.982  21.215   2.256
29455W        W 1869  12.164  43.792  12.963
29456W        W 1870  41.478  41.480   3.156
29457W        W 1871  43.492  11.638   3.170
29458W        W 1872  15.150   0.909  13.542
29459W        W 1873  34.961   8.714  10.145
29460W        W 1874  29.552  19.272  11.546
29461W        W 1875   8.210  40.378   3.343
29462W        W 1876   8.742  30.480  11.000
29463W        W 1877  25.602  30.583  10.006
29464W        W 1878  20.757  43.352   0.935
29465W        W 1879  16.151   8.791  12.343
29466W        W 1880  24.038  13.828  11.919
29467W        W 1881  35.053  16.720   0.750
29468W        W 1882  23.226  19.227   3.208
29469W        W 1883  42.358  14.819   4.127
29470W        W 1884  11.203  38.821  10.049
29471W        W 1885  17.228  40.813  10.539
29472W        W 1886  44.814  26.985   2.214
29473W        W 1887  15.109  25.074   2.843
29474W        W 1888  34.896  39.859   0.758
29475W        W 1889   5.876   4.743  13.367
29476W        W 1890  12.127  29.138  13.881
29477W        W 1891  20.130  35.429  12.897
29478W        W 1892  26.197   5.383   0.320
29479W        W 1893  18.218   1.388  10.431
29480W        W 1894   7.184  43.283  13.912
29481W        W 1895  34.015   7.247   3.649
29482W        W 1896  10.689  40.358  10.964
29483W        W 1897  30.944  29.468   0.404
29484W        W 1898  12.308  36.923   0.467
29485W        W 1899   5.755  41.397   3.865
29486W        W 1900  29.042  16.272   1.342
29487W        W 1901  34.889  24.657   4.602
29488W        W 1902  23.564  28.046  12.020
29489W        W 1903  24.479  23.541  11.057
29490W        W 1904  33.505  12.174   3.753
29491W        W 1905   9.182  23.735  13.493
29492W        W 1906  39.031  34.898   3.821
29493W        W 1907  37.889  30.644  14.940
29494W        W 1908  24.549   5.761  14.969
29495W        W 1909  37.427  26.151   3.232
29496W        W 1910  16.779   2.380   1.753
29497W        W 1911  35.057  10.173  11.495
29498W        W 1912  29.633  40.022  11.030
29499W        W 1913  43.410  37.400   4.155
29500W        W 1914  27.528  12.183   0.963
29501W        W 1915  38.972  28.981  14.508
29502W        W 1916  33.394  36.938   3.850
29503W        W 1917  35.551   8.827   3.787
29504W        W 1918  27.586  38.424   1.698
29505W        W 1919  28.622   5.860  14.378
29506W        W 1920  27.133   1.436   1.779
29507W        W 1921   0.986  30.503  11.440
29508W        W 1922  37.458   9.686   0.259
29509W        W 1923  10.238  29.441   4.232
29510W        W 1924  37.887  44.425  14.820
29511W        W 1925   0.470   4.818   3.654
29512W        W 1926   5.689  32.917  12.930
29513W        W 1927  42.401   0.928  13.492
29514W        W 1928   7.735  11.157   0.919
29515W        W 1929  15.282  20.571  13.943
29516W        W 1930  19.596  32.074   0.291
29517W        W 1931   8.263  11.217  12.465
29518W        W 1932  15.627  17.587  11.457
29519W        W 1933  22.221   9.174   3.856
29520W        W 1934  15.642  35.377  11.927
29521W        W 1935  21.716  37.852   4.345
29522W        W 1936  31.595   9.255   3.213
29523W        W 1937   7.839  42.834   2.839
29524W        W 1938   8.231  26.544   4.736
29525W        W 1939  12.319  33.984   1.709
29526W        W 1940  28.622  17.688   3.718
29527W        W 1941   7.721   1.321   4.142
29528W        W 1942   5.251   6.369   2.278
29529W        W 1943  10.176  39.487   0.965
29530W        W 1944  17.285  26.688  10.141
29531W        W 1945  11.866  25.021   1.861
29532W        W 1946   1.861  13.647   5.089
29533W        W 1947  36.486  30.559   0.771
29534W        W 1948   6.284  42.858   4.297
29535W        W 1949  26.965   6.721   0.308
29536W        W 1950  11.190  21.683   2.368
29537W        W 1951   8.733  12.808  13.521
29538W        W 1952   5.341  29.944   2.305
29539W        W 1953  11.155  40.005   2.784
29540W        W 1954  19.124   9.261   4.307
29541W        W 1955   8.852  16.628   0.795
29542W        W 1956  10.367  16.158  14.470
29543W        W 1957  33.041  32.448   1.242
29544W        W 1958   3.414  40.429  11.526
29545W        W 1959  11.639  26.495  11.958
29546W        W 1960  41.975  29.970   0.739
29547W        W 1961  41.801   1.439   1.932
29548W        W 1962  17.605  33.413  12.977
29549W        W 1963   4.807   1.269   0.768
29550W        W 1964  35.604  12.119  14.367
29551W        W 1965  15.700  27.100  11.601
29552W        W 1966  27.622  31.576  11.982
29553W        W 1967  29.132  43.798  12.348
29554W        W 1968   0.475  29.052  11.494
29555W        W 1969  40.343  17.176  10.065
29556W        W 1970  15.143  30.032  10.899
29557W        W 1971  26.685  31.487   2.310
29558W        W 1972  35.960  20.669   1.255
29559W        W 1973   7.206   5.802   1.918
29560W        W 1974   7.358  36.890  12.841
29561W        W 1975   9.194  26.466   4.817
29562W        W 1976  39.960   0.844   2.184
29563W        W 1977  27.620  34.560   2.259
29564W        W 1978  25.047  40.503  13.479
29565W        W 1979   2.777  36.442   2.232
29566W        W 1980  10.772  41.447   4.168
29567W        W 1981  14.702  33.054  11.505
29568W        W 1982  33.397   9.742  10.053
29569W        W 1983  12.783   9.156   3.246
29570W        W 1984  20.134  21.199   1.760
29571W        W 1985  26.061  30.063   0.732
29572W        W 1986  24.987  36.896   0.328
29573W        W 1987   7.695  33.497   2.876
29574W        W 1988  34.586   7.225   3.254
29575W        W 1989   5.814  11.681  14.819
29576W        W 1990  22.606  40.872   0.803
29577W        W 1991  28.111   2.920   3.328
29578W        W 1992  40.393  21.052   1.919
29579W        W 1993   7.748  35.455  11.555
29580W        W 1994  12.298  44.302   2.876
29581W        W 1995  28.674  27.078   2.192
29582W        W 1996  18.649  14.791  14.364
29583W        W 1997  23.715  19.733  13.466
29584W        W 1998  24.640  40.482  11.018
29585W        W 1999  16.305   1.479  13.443
29586W        W 2000  34.412  41.024  13.858
29587W        W 2001  26.961  37.490   3.764
29588W        W 2002   1.259  40.865   2.202
29589W        W 2003  31.104  25.665   4.308
29590W        W 2004  27.571  11.234   1.754
29591W        W 2005  42.466  44.447  12.521
29592W        W 2006  43.362  10.743  14.866
29593W        W 2007  30.076  37.050   3.666
29594W        W 2008   1.410  21.556  14.781
29595W        W 2009   5.923  14.294   4.312
29596W        W 2010  34.474  33.553  13.978
29597W        W 2011   5.738  40.321   3.228
29598W        W 2012  22.626  39.837  10.090
29599W        W 2013  42.870  26.556   3.820
29600W        W 2014   0.797  16.617  10.932
29601W        W 2015  17.165  25.567  11.116
29602W        W 2016  19.739  14.771  10.626
29603W        W 2017  41.827  31.104   1.842
29604W        W 2018  30.936  16.717  11.446
29605W        W 2019  30.494  13.274  12.002
29606W        W 2020   3.877  33.491  13.432
29607W        W 2021  31.405   2.386  10.473
29608W        W 2022   3.815  14.785   4.831
29609W        W 2023  22.241  38.009   4.272
29610W        W 2024  10.259  13.300   3.372
29611W        W 2025  17.561  42.916  10.078
29612W        W 2026  34.418  12.745  10.457
29613W        W 2027  28.455  14.275   2.781
29614W        W 2028  11.162   3.395  14.405
29615W        W 2029  26.078  43.819  12.565
29616W        W 2030  43.376  40.989   0.436
29617W        W 2031   9.205  42.969   4.621
29618W        W 2032   8.401  13.106  14.900
29619W        W 2033  24.668   0.457  11.519
29620W        W 2034  16.149  38.342   1.713
29621W        W 2035  22.033  20.221   0.800
29622W        W 2036  36.026  31.975  13.332
29623W        W 2037  35.859  20.555   0.849
29624W        W 2038   4.235   6.379   2.300
29625W        W 2039   2.814  13.705   4.293
29626W        W 2040  38.403  36.376  13.930
29627W        W 2041   7.783  15.263   4.271
29628W        W 2042  11.372  13.330   2.665
29629W        W 2043  14.788   4.403   1.835
29630W        W 2044  12.343  29.662   4.792
29631W        W 2045   3.881   2.243  13.369
29632W        W 2046  19.200  16.116  10.896
29633W        W 2047  36.436   0.366  11.916
29634W        W 2048  42.806  11.744  11.086
29635W        W 2049  13.808  29.584   1.754
29636W        W 2050  15.589  25.618   2.258
29637W        W 2051  39.339  33.079   2.677
29638W        W 2052  41.401  11.691  14.938
29639W        W 2053  31.984   9.298  12.362
29640W        W 2054   7.889  36.581  13.421
29641W        W 2055  44.427  14.303   1.751
29642W        W 2056  35.017  12.277  10.626
29643W        W 2057  40.998  26.051  13.063
29644W        W 2058  25.592  19.095   4.199
29645W        W 2059  15.171   4.428  13.879
29646W        W 2060  25.604  34.391  14.997
29647W        W 2061  32.937  23.074  12.960
29648W        W 2062  20.614  30.097  14.979
29649W        W 2063  21.686  27.165  14.928
29650W        W 2064  39.938  37.437  13.967
29651W        W 2065  34.879   1.259  12.031
29652W        W 2066   7.189  36.451   4.700
29653W        W 2067  15.752   3.305  13.862
29654W        W 2068  30.515  21.738   3.217
29655W        W 2069  27.531   1.426  14.981
29656W        W 2070   7.856  38.493  11.382
29657W        W 2071  33.614  32.474  14.275
29658W        W 2072  44.445  28.581  12.383
29659W        W 2073   0.352  31.145   2.204
29660W        W 2074  37.038   5.849  13.924
29661W        W 2075  32.125  23.078   4.247
29662W        W 2076  42.515  31.436   0.256
29663W        W 2077  36.406  10.228  13.021
29664W        W 2078  15.259  40.953  10.475
29665W        W 2079  24.215  30.925   0.295
29666W        W 2080   5.295   5.890  10.638
29667W        W 2081  20.624  29.102   4.221
29668W        W 2082   7.384  21.102   2.212
29669W        W 2083  14.828  12.174  14.450
29670W        W 2084  22.188  33.441   4.809
29671W        W 2085   1.251  10.851   4.136
29672W        W 2086   6.681  37.027  11.857
29673W        W 2087   0.837  29.057   0.810
29674W        W 2088  36.998  24.141   0.444
29675W        W 2089   5.231  37.040  12.862
29676W        W 2090   7.728  26.516   2.814
29677W        W 2091   7.338  34.580  11.507
29678W        W 2092  36.530   9.794   1.409
29679W        W 2093   2.414  20.247  13.467
29680W        W 2094  27.141  41.861  12.490
29681W        W 2095  42.434  41.432  14.276
29682W        W 2096  20.699  35.482   0.764
29683W        W 2097  38.015  39.473  13.453
29684W        W 2098  10.194  16.255   2.890
29685W        W 2099  34.597  25.218   4.285
29686W        W 2100   3.740   3.267   5.094
29687W        W 2101  32.010  20.192  11.556
29688W        W 2102   6.368  15.315   5.264
29689W        W 2103   7.294   4.265   3.158
29690W        W 2104   4.344  28.176  10.425
29691W        W 2105  41.925  28.003   4.669
29692W        W 2106  30.574  42.340   2.232
29693W        W 2107   7.726  15.280  14.901
29694W        W 2108  28.670  11.791  10.104
29695W        W 2109  23.135  34.889   3.386
29696W        W 2110  32.982  25.697  11.031
29697W        W 2111   9.663  32.137  14.290
29698W        W 2112  11.774  42.374  12.494
29699W        W 2113  28.107   1.430  11.461
29700W        W 2114   4.246  10.295  11.387
29701W        W 2115  34.073   6.845  11.459
29702W        W 2116   9.697  41.462  10.970
29703W        W 2117  11.241  13.785   3.655
29704W        W 2118  33.571  44.954   4.656
29705W        W 2119  26.580  42.905  12.004
29706W        W 2120  21.038  10.363  13.524
29707W        W 2121  32.142  38.939   2.358
29708W        W 2122  42.464  43.450   2.302
29709W        W 2123  13.661  36.548   4.181
29710W        W 2124  35.988  39.431  13.404
29711W        W 2125  38.406  37.857  11.983
29712W        W 2126  24.148  40.013   4.660
29713W        W 2127  10.188   7.866  10.157
29714W        W 2128  18.258  33.967   2.272
29715W        W 2129  13.766   1.443  12.496
29716W        W 2130  44.389  38.377   1.416
29717W        W 2131   0.860  10.275   4.126
29718W        W 2132   4.730  41.004   2.381
29719W        W 2133   4.387  20.047   0.392
29720W        W 2134  10.317  41.964   0.940
29721W        W 2135  35.470  29.141   4.805
29722W        W 2136  35.059  26.108  11.427
29723W        W 2137  42.431  27.547   3.364
29724W        W 2138  38.372  23.658  11.105
29725W        W 2139  28.536  35.914   1.834
29726W        W 2140  21.243   4.751  13.011
29727W        W 2141  18.096  33.943  10.451
29728W        W 2142  23.087  10.798  13.355
29729W        W 2143   3.421  27.464   3.793
29730W        W 2144   9.339  13.301   3.167
29731W        W 2145  22.671   7.236  10.500
29732W        W 2146  38.051  33.988  12.062
29733W        W 2147  19.196  30.413   4.636
29734W        W 2148  17.746  42.864   4.791
29735W        W 2149  33.469  12.212  12.447
29736W        W 2150  28.147   9.201   0.379
29737W        W 2151  33.962  44.819  12.565
29738W        W 2152  19.769   9.207  12.864
29739W        W 2153  14.338   5.785   9.438
29740W        W 2154  38.989  30.060   3.659
29741W        W 2155  19.728  13.754  12.525
29742W        W 2156  24.520  16.796  11.395
29743W        W 2157  26.600   9.779  14.482
29744W        W 2158  31.999  19.775   0.398
29745W        W 2159  42.817   7.823  13.874
29746W        W 2160   5.758   2.301  11.471
29747W        W 2161  40.307  30.136  10.616
29748W        W 2162  32.942   6.314   1.381
29749W        W 2163  23.116  12.183  11.906
29750W        W 2164  39.932  20.551  13.322
29751W        W 2165  23.611  15.254   0.931
29752W        W 2166  13.707   4.941  12.094
29753W        W 2167  34.864   6.872  13.463
29754W        W 2168  34.041  10.830   2.201
29755W        W 2169  37.867  37.925   0.345
29756W        W 2170   3.387  28.468  10.559
29757W        W 2171  43.984  34.385   4.330
29758W        W 2172  11.698  39.458   1.417
29759W        W 2173  33.130  31.508  13.921
29760W        W 2174  20.611  21.711   3.312
29761W        W 2175  34.489  43.469   3.677
29762W        W 2176   2.440  12.613   3.834
29763W        W 2177  41.324  33.109  12.059
29764W        W 2178  33.493   4.411  11.540
29765W        W 2179  11.769  29.595  14.850
29766W        W 2180  22.543  35.092   2.732
29767W        W 2181  10.148  23.658  13.905
29768W        W 2182   3.909   0.861   2.793
29769W        W 2183  20.214   9.679   1.798
29770W        W 2184  38.937  41.450   0.360
29771W        W 2185  19.627  36.927   1.902
29772W        W 2186  26.587  32.889   5.123
29773W        W 2187  34.470  36.090   1.430
29774W        W 2188   9.865  16.235  11.993
29775W        W 2189  29.595  11.294  13.402
29776W        W 2190  31.074   6.808   1.340
29777W        W 2191  16.142  44.934  14.503
29778W        W 2192   1.942  15.784  10.980
29779W        W 2193  23.721  38.039  12.901
29780W        W 2194  29.656  22.695  12.563
29781W        W 2195  28.091  41.415  10.896
29782W        W 2196   8.711  13.348  14.849
29783W        W 2197   7.881  39.972   0.246
29784W        W 2198  41.959   4.349   1.776
29785W        W 2199   6.235   4.699   5.285
29786W        W 2200   0.297  17.643   0.880
29787W        W 2201  13.142  36.421   1.382
29788W        W 2202  24.151  12.718   1.913
29789W        W 2203  27.169  37.440   4.836
29790W        W 2204  15.296   4.375  10.638
29791W        W 2205  24.088  13.615   0.727
29792W        W 2206  36.442   1.365   2.275
29793W        W 2207  38.514  31.147  11.993
29794W        W 2208  11.799  33.118   1.849
29795W        W 2209   8.276  27.086  12.423
29796W        W 2210  11.233   0.340  12.912
29797W        W 2211  32.546  39.811  13.979
29798W        W 2212  31.634  42.480   2.382
29799W        W 2213  24.633  10.654  12.555
29800W        W 2214  33.598  19.189  13.800
29801W        W 2215  29.500  43.375  11.855
29802W        W 2216   4.271  23.655  10.550
29803W        W 2217   6.421  21.115   4.745
29804W        W 2218  22.064  23.509   0.921
29805W        W 2219  19.201  44.836  14.025
29806W        W 2220   3.434  37.484   0.377
29807W        W 2221   8.803  11.130   4.354
29808W        W 2222   2.313  18.598   1.327
29809W        W 2223   9.874  26.204   4.623
29810W        W 2224  20.146  24.615  11.862
29811W        W 2225  28.057  41.502   2.896
29812W        W 2226  14.224  32.118  11.106
29813W        W 2227  16.573  13.708   1.916
29814W        W 2228   8.788  25.076   3.722
29815W        W 2229  24.503  25.007  13.012
29816W        W 2230  17.621  12.271   4.660
29817W        W 2231  41.798  15.810  12.402
29818W        W 2232  13.725   6.840   2.183
29819W        W 2233   8.371  35.960  12.375
29820W        W 2234  10.282  38.981   1.892
29821W        W 2235  22.134  19.675  14.354
29822W        W 2236  11.316  35.017  13.064
29823W        W 2237  32.929  34.376  14.903
29824W        W 2238  21.203   7.338  10.955
29825W        W 2239  11.859  19.602  11.940
29826W        W 2240   0.912  15.690   0.903
29827W        W 2241  28.560  14.633  14.957
29828W        W 2242  29.464   4.446  11.077
29829W        W 2243  23.699  18.613  14.411
29830W        W 2244  44.476  26.199  12.493
29831W        W 2245  30.914  15.631   3.317
29832W        W 2246  26.678  24.511   1.228
29833W        W 2247   1.262  38.830   0.481
29834W        W 2248  29.989  44.401   2.738
29835W        W 2249  11.344  16.670  12.033
29836W        W 2250  12.630  36.085   0.949
29837W        W 2251  11.306   5.884  13.941
29838W        W 2252   7.312  44.260   3.274
29839W        W 2253  18.614  44.974  14.816
29840W        W 2254  30.540  20.647  14.445
29841W        W 2255   5.316  37.379  13.028
29842W        W 2256   5.336  29.461  12.580
29843W        W 2257   4.379  15.690  11.412
29844W        W 2258  10.824  11.283   1.719
29845W        W 2259  38.957   4.412   2.196
29846W        W 2260   8.791  44.476  11.560
29847W        W 2261  40.333  25.092  12.896
29848W        W 2262  12.813   1.358   2.848
29849W        W 2263  11.856  39.498  11.504
29850W        W 2264  39.452  12.692   0.446
29851W        W 2265  21.513  44.301  12.360
29852W        W 2266  14.760   1.253   3.834
29853W        W 2267  21.018  23.633   2.201
29854W        W 2268  20.157  28.670  14.397
29855W        W 2269  39.402  33.583   2.251
29856W        W 2270  33.940  40.447   1.797
29857W        W 2271  12.627  35.588   0.480
29858W        W 2272  40.495  40.535  10.421
29859W        W 2273  33.004  26.585  12.394
29860W        W 2274   6.881  27.156   0.372
29861W        W 2275   1.879   0.750   1.780
29862W        W 2276  23.714  13.175  12.443
29863W        W 2277   6.693   1.282  12.416
29864W        W 2278  17.760  28.642   3.662
29865W        W 2279  39.822  27.175   4.325
29866W        W 2280  28.502  21.511   0.855
29867W        W 2281  18.714  26.578   4.661
29868W        W 2282  14.636  11.178   2.281
29869W        W 2283   8.337   9.253   1.918
29870W        W 2284  17.768  27.185   0.481
29871W        W 2285  28.455  29.926  11.028
29872W        W 2286  27.966   8.300   3.867
29873W        W 2287   3.881  34.112  11.120
29874W        W 2288  25.171  15.786  11.517
29875W        W 2289  29.927  42.819  14.963
29876W        W 2290   7.361  44.962  13.529
29877W        W 2291  24.631  34.391  13.496
29878W        W 2292   5.753  32.461  11.499
29879W        W 2293  17.294  20.645  13.353
29880W        W 2294  13.111  11.790   3.207
29881W        W 2295   7.222  41.947   1.918
29882W        W 2296  37.423  38.887   4.238
29883W        W 2297  27.547   2.252   2.203
29884W        W 2298   9.713  17.573   1.877
29885W        W 2299  42.020   0.493  10.981
29886W        W 2300   2.365   2.769  11.954
29887W        W 2301   3.784  35.985   2.348
29888W        W 2302  15.315   8.728  10.523
29889W        W 2303  15.669   9.361   2.179
29890W        W 2304   4.822  29.593  12.040
29891W        W 2305   4.706  41.340  14.895
29892W        W 2306  20.711  41.900   0.456
29893W        W 2307  20.125  19.114   0.336
29894W        W 2308   5.891  25.009  10.593
29895W        W 2309  27.505  22.653   3.375
29896W        W 2310  37.392  15.139   1.379
29897W        W 2311  21.099  10.147   2.843
29898W        W 2312  30.507  44.780  12.856
29899W        W 2313  15.267  36.956   3.211
29900W        W 2314  16.191  10.830  11.083
29901W        W 2315   1.895  18.714   1.427
29902W        W 2316  34.053  19.164  10.552
29903W        W 2317  10.352  17.782   0.808
29904W        W 2318  39.418  28.054   3.817
29905W        W 2319  28.613  15.085   1.877
29906W        W 2320  32.892  21.189  11.890
29907W        W 2321   1.419   7.756   2.664
29908W        W 2322   2.748  36.984  13.930
29909W        W 2323  44.793  38.944   3.837
29910W        W 2324  18.225  19.056   0.864
29911W        W 2325  43.836  24.702  12.365
29912W        W 2326  40.829  16.200  12.014
29913W        W 2327  14.736  28.472  14.436
29914W        W 2328  14.210  41.317  12.578
29915W        W 2329  34.928  25.074  11.521
29916W        W 2330  23.682  34.986   4.676
29917W        W 2331  38.486  10.797   1.277
29918W        W 2332  43.800  34.486  13.022
29919W        W 2333  44.932  31.911   1.360
29920W        W 2334  26.560   9.179  12.828
29921W        W 2335   6.913  14.673  11.926
29922W        W 2336   6.785  12.291  12.526
29923W        W 2337  25.557  37.968  13.531
29924W        W 2338  36.894   4.330  10.469
29925W        W 2339  11.855  39.004  13.508
29926W        W 2340  21.748  18.115   1.298
29927W        W 2341  31.151  42.820  10.425
29928W        W 2342  44.417   4.307   3.779
29929W        W 2343  19.142  29.518   1.213
29930W        W 2344   4.887  35.920   1.747
29931W        W 2345  30.055  13.259   2.839
29932W        W 2346  16.642  22.144   0.789
29933W        W 2347  39.336   9.698  13.854
29934W        W 2348  11.859  38.887  12.481
29935W        W 2349  16.262  20.531   2.685
29936W        W 2350  28.572  32.071   2.684
29937W        W 2351  35.445  18.577   2.820
29938W        W 2352  14.685  17.249  12.497
29939W        W 2353  31.587  26.647  12.839
29940W        W 2354  22.531  28.541   2.408
29941W        W 2355  31.585  15.746   4.716
29942W        W 2356  19.110  18.142   0.325
29943W        W 2357  38.914  19.187   0.475
29944W        W 2358  14.118  28.448  13.479
29945W        W 2359  33.443  27.638  14.329
29946W        W 2360   2.749  23.652   4.632
29947W        W 2361  38.900   6.218   4.821
29948W        W 2362  41.974  30.090  12.562
29949W        W 2363  39.456  12.846   1.356
29950W        W 2364  35.362  34.895   0.760
29951W        W 2365  15.748  37.067  12.386
29952W        W 2366  19.104  33.889  12.360
29953W        W 2367  16.717  39.394  14.347
29954W        W 2368  15.698  42.845  13.868
29955W        W 2369  42.415  21.056  11.939
29956W        W 2370  28.158  24.032  10.078
29957W        W 2371   3.236  40.937   4.248
29958W        W 2372  44.881   0.388  11.108
29959W        W 2373  44.279   2.304   0.936
29960W        W 2374  21.162  33.510   3.825
29961W        W 2375  26.058  44.456  13.504
29962W        W 2376  24.197  10.254   4.816
29963W        W 2377   0.316  34.603  10.474
29964W        W 2378  17.701  15.583   1.897
29965W        W 2379   3.240   8.371  14.437
29966W        W 2380  39.835  27.640  14.378
29967W        W 2381  44.795  43.865  10.550
29968W        W 2382   7.732   7.189   9.972
29969W        W 2383  10.720   3.952   4.236
29970W        W 2384  36.099  28.135  13.972
29971W        W 2385  31.631  20.191   1.331
29972W        W 2386  37.946  26.149  14.471
29973W        W 2387  16.159  26.000  11.945
29974W        W 2388   1.893  29.973  11.021
29975W        W 2389  37.384  18.668  12.484
29976W        W 2390   7.855  12.314  11.921
29977W        W 2391  40.353  14.258  11.535
29978W        W 2392  32.446  18.152  10.504
29979W        W 2393   1.292  25.082  10.578
29980W        W 2394  21.025  30.415  11.038
29981W        W 2395  27.495  43.925  13.960
29982W        W 2396  39.917  13.836  11.105
29983W        W 2397  43.973  29.661   4.695
29984W        W 2398  30.982   2.733  14.497
29985W        W 2399  27.953  34.908  10.644
29986W        W 2400  30.913  43.949  14.430
29987W        W 2401  19.756   6.702  10.508
29988W        W 2402   6.868  16.120  13.546
29989W        W 2403  17.737  30.466  12.976
29990W        W 2404  42.334  11.204   2.285
29991W        W 2405   3.308  20.613  11.491
29992W        W 2406  17.124  10.717   1.324
29993W        W 2407  36.481  43.983   3.263
29994W        W 2408  39.905  16.318  10.971
29995W        W 2409  13.666  19.569  12.492
29996W        W 2410  34.045  35.550  13.315
29997W        W 2411   8.749  35.547   2.728
29998W        W 2412  29.157  11.341  13.532
29999W        W 2413  14.707  23.592  10.144
30000W        W 2414  39.371  29.953  13.842
30001W        W 2415  25.077  30.956   3.148
30002W        W 2416  34.436  22.567  11.929
30003W        W 2417  42.994   1.402  13.481
30004W        W 2418   0.901  36.526  13.970
30005W        W 2419  25.106  22.722  12.989
30006W        W 2420  12.281  16.213   1.772
30007W        W 2421  28.090   0.460   2.293
30008W        W 2422  31.901  28.579   3.717
30009W        W 2423  36.551  34.939   9.581
30010W        W 2424  13.305   7.269  12.970
30011W        W 2425   0.798  31.963  12.573
30012W        W 2426  30.105  17.295   2.811
30013W        W 2427   3.389   3.436  14.987
30014W        W 2428   5.421  23.111  11.929
30015W        W 2429   0.743  39.418  10.576
30016W        W 2430  23.605  16.168   0.263
30017W        W 2431   3.395  13.348  12.893
30018W        W 2432   0.916  37.988  14.939
30019W        W 2433  27.162  31.627  10.543
30020W        W 2434  28.552  10.656  14.300
30021W        W 2435   1.802  12.252  12.478
30022W        W 2436  41.509  32.903   0.471
30023W        W 2437  12.706  40.516  11.028
30024W        W 2438   3.912  16.301   0.245
30025W        W 2439  36.931  42.464   3.659
30026W        W 2440  18.553  38.819  10.010
30027W        W 2441  32.049  31.608   2.351
30028W        W 2442  15.305  21.615   2.875
30029W        W 2443  36.986   6.853   0.952
30030W        W 2444  36.095  42.320   0.831
30031W        W 2445   9.238   4.211  11.073
30032W        W 2446  44.328  39.444   0.795
30033W        W 2447   4.837  20.582   2.874
30034W        W 2448  15.627   4.720  12.469
30035W        W 2449  10.817  18.060   1.863
30036W        W 2450  34.421   6.260   4.350
30037W        W 2451   2.954  15.098  14.336
30038W        W 2452  10.263  10.307  13.882
30039W        W 2453  21.651  13.758  11.126
30040W        W 2454  28.445   9.204  14.447
30041W        W 2455  41.458  25.561  10.571
30042W        W 2456   6.426  32.983   4.657
30043W        W 2457   1.444  28.530   3.190
30044W        W 2458   4.860  26.018  13.376
30045W        W 2459  20.682  39.337   3.778
30046W        W 2460  25.677  33.954   2.745
30047W        W 2461   4.390  19.534  14.013
30048W        W 2462  14.279   5.925  12.081
30049W        W 2463  41.999   7.822  14.966
30050W        W 2464   7.195  16.102  11.373
30051W        W 2465  28.149   6.914  13.548
30052W        W 2466  14.668   1.435   3.155
30053W        W 2467  10.340  15.227  12.000
30054W        W 2468  35.528  42.996  11.569
30055W        W 2469  36.853  33.418  13.900
30056W        W 2470  41.005  35.106  10.625
30057W        W 2471   2.311   0.779   2.768
30058W        W 2472  26.515  19.057  14.386
30059W        W 2473  10.266  30.642  12.049
30060W        W 2474  15.219   9.673  12.892
30061W        W 2475   9.271  34.461   1.415
30062W        W 2476  12.800  17.256   2.666
30063W        W 2477  33.621  44.333   1.923
30064W        W 2478  25.713  39.327  12.071
30065W        W 2479  19.542   6.378   4.189
30066W        W 2480  19.637   8.841   1.431
30067W        W 2481   5.699  17.721  11.086
30068W        W 2482  40.887  16.297  14.507
30069W        W 2483  18.241  20.175   3.827
30070W        W 2484   5.931  11.169  14.026
30071W        W 2485   1.736   7.203  11.874
30072W        W 2486  32.091  28.491  13.345
30073W        W 2487   4.308  16.745  13.490
30074W        W 2488   3.347  31.031   3.761
30075W        W 2489   6.847  41.449   1.247
30076W        W 2490  29.093   2.315  14.019
30077W        W 2491  23.492   1.884  11.912
30078W        W 2492   0.848  38.995  14.280
30079W        W 2493  11.200  13.324   2.296
30080W        W 2494  13.699  26.681   2.370
30081W        W 2495  25.610   3.754   3.255
30082W        W 2496  41.832   5.809   2.316
30083W        W 2497  32.594  40.966   2.897
30084W        W 2498   9.239  11.152  11.588
30085W        W 2499  26.032  31.922  12.903
30086W        W 2500  40.360   3.451  14.487
30087W        W 2501  29.540  44.337  11.995
30088W        W 2502  40.819  42.924  11.078
30089W        W 2503  26.049  14.700   3.221
30090W        W 2504  13.643  44.366  14.355
30091W        W 2505   5.432   5.793   1.289
30092W        W 2506  18.611  15.703   3.280
30093W        W 2507  38.881  27.522  13.945
30094W        W 2508   4.439  42.898  13.039
30095W        W 2509   3.806   2.349   0.839
30096W        W 2510  19.225   8.880  10.422
30097W        W 2511  14.653  12.724   4.308
30098W        W 2512   6.829  27.986   3.217
30099W        W 2513  38.018  31.488  13.310
30100W        W 2514  22.537  32.127   5.191
30101W        W 2515   7.905  19.181   3.168
30102W        W 2516   0.819  16.092  10.582
30103W        W 2517   4.753   8.799  11.429
30104W        W 2518  26.619  25.089   0.362
30105W        W 2519   8.808   2.935   0.276
30106W        W 2520   4.358   9.822   3.370
30107W        W 2521  16.121  10.249  10.926
30108W        W 2522   8.321  39.925   0.916
30109W        W 2523   3.362  43.458   4.124
30110W        W 2524   9.862   5.898  12.003
30111W        W 2525  37.912   4.712  11.398
30112W        W 2526  36.440  42.472  13.448
30113W        W 2527  27.056  12.616  12.920
30114W        W 2528  30.626  43.815  12.065
30115W        W 2529   3.299  29.553   4.701
30116W        W 2530  17.560  42.371   2.242
30117W        W 2531  38.394   9.234  12.567
30118W        W 2532  40.824  29.541  14.872
30119W        W 2533  35.417  23.735  12.393
30120W        W 2534  22.247  39.485   4.817
30121W        W 2535  22.045  24.171  14.507
30122W        W 2536  15.816  40.370  14.441
30123W        W 2537  41.296  33.597   4.131
30124W        W 2538  33.995  39.559   3.638
30125W        W 2539   8.663  30.446  13.385
30126W        W 2540  42.031  21.258  12.463
30127W        W 2541   5.746  13.174   5.109
30128W        W 2542  17.800  44.838   0.278
30129W        W 2543  39.319  27.638   1.752
30130W        W 2544   6.221  22.746  11.569
30131W        W 2545  40.327  27.108   2.724
30132W        W 2546  11.778  38.967   3.183
30133W        W 2547   1.260  18.775   1.221
30134W        W 2548  29.519  12.669  14.999
30135W        W 2549  39.326   0.875  13.896
30136W        W 2550   0.851  23.163   3.786
30137W        W 2551  16.291  30.004   2.179
30138W        W 2552  15.149   8.268  13.338
30139W        W 2553  33.485   5.817  10.493
30140W        W 2554  43.988  23.676   0.364
30141W        W 2555   5.288   1.840  14.473
30142W        W 2556  33.619  15.747  11.974
30143W        W 2557  40.423  10.657   3.667
30144W        W 2558  19.671   0.859   2.704
30145W        W 2559  29.532  14.697   1.325
30146W        W 2560  27.633  10.704   2.184
30147W        W 2561   5.730  27.178   1.898
30148W        W 2562  17.129  29.958   1.763
30149W        W 2563  18.649  12.333  14.879
30150W        W 2564  17.133  29.951  14.801
30151W        W 2565   6.362  23.580  10.407
30152W        W 2566  29.937  35.541  12.949
30153W        W 2567  27.166   8.675  14.966
30154W        W 2568  19.098  22.177   1.341
30155W        W 2569   4.750   2.752   1.415
30156W        W 2570   9.791  17.677   2.400
30157W        W 2571  12.850  26.574   0.759
30158W        W 2572  16.648  36.973  11.986
30159W        W 2573  19.229  33.545   2.726
30160W        W 2574  44.874  30.090   2.863
30161W        W 2575  38.499  42.939  13.910
30162W        W 2576   1.412  40.451   1.282
30163W        W 2577   4.224  25.472  10.498
30164W        W 2578   6.342   3.364  13.890
30165W        W 2579  12.731  11.628  11.110
30166W        W 2580  17.284  39.337  11.869
30167W        W 2581   6.421   3.337   2.298
30168W        W 2582  35.878  24.672   2.300
30169W        W 2583  23.106  29.155  12.426
30170W        W 2584  37.491   9.184   0.422
30171W        W 2585  29.024  30.999  12.956
30172W        W 2586   1.823   0.907  14.808
30173W        W 2587  38.551  15.219  14.344
30174W        W 2588  43.859  15.723  11.924
30175W        W 2589  25.664  16.314  10.589
30176W        W 2590  36.586  17.778  12.025
30177W        W 2591   7.775  44.322  13.898
30178W        W 2592  11.704  41.305   2.372
30179W        W 2593   2.286  29.656  11.008
30180W        W 2594  21.688  30.428   4.161
30181W        W 2595   2.271  22.184  11.554
30182W        W 2596  34.953  35.002   5.163
30183W        W 2597  16.244  19.564   4.776
30184W        W 2598  13.111  41.404   1.923
30185W        W 2599  24.533  11.287   0.376
30186W        W 2600  43.498  25.598   0.767
30187W        W 2601  38.870  33.952   4.762
30188W        W 2602  11.313  39.046   1.845
30189W        W 2603   9.383   9.707  12.037
30190W        W 2604   4.784  15.698  11.449
30191W        W 2605  43.976  33.426  13.964
30192W        W 2606   8.340   9.707  12.513
30193W        W 2607  29.565  21.259   3.832
30194W        W 2608   3.387  13.606  11.455
30195W        W 2609  19.677   5.882   0.423
30196W        W 2610  10.705  44.803   3.749
30197W        W 2611  25.683  27.114  12.366
30198W        W 2612  12.627  41.854   4.750
30199W        W 2613  42.948  31.648  11.925
30200W        W 2614  32.087  19.605  12.885
30201W        W 2615  13.745  31.481   1.755
30202W        W 2616  25.623   6.412   0.290
30203W        W 2617  37.340   7.245   4.140
30204W        W 2618  37.861  24.010   4.747
30205W        W 2619  44.310   2.308  14.289
30206W        W 2620  26.073  33.532   4.138
30207W        W 2621   3.820  18.107   3.764
30208W        W 2622  36.025  27.641   4.182
30209W        W 2623  16.193   5.821  12.048
30210W        W 2624  20.625  33.603   1.284
30211W        W 2625  18.572  24.544  13.854
30212W        W 2626  16.713   6.738   1.799
30213W        W 2627  10.326  16.585   4.188
30214W        W 2628  42.814   1.745   0.873
30215W        W 2629  42.340  25.703  13.813
30216W        W 2630  30.500  42.897   0.262
30217W        W 2631   3.715  37.978  12.391
30218W        W 2632  39.486  37.361   4.347
30219W        W 2633  21.249  16.189  14.996
30220W        W 2634  39.454  10.254   0.319
30221W        W 2635  43.782  39.845  11.410
30222W        W 2636  40.947  11.225   3.844
30223W        W 2637  13.346  30.129  13.870
30224W        W 2638  15.640  12.811  11.569
30225W        W 2639  30.458  21.655  12.911
30226W        W 2640  28.572  20.187   2.314
30227W        W 2641  10.149  40.322   4.598
30228W        W 2642  43.949   7.757  12.031
30229W        W 2643  13.626   5.761  10.469
30230W        W 2644  36.849  10.816  10.537
30231W        W 2645  34.042  27.069   3.180
30232W        W 2646  39.927   4.879   2.388
30233W        W 2647  14.608   4.246  10.907
30234W        W 2648  14.123  22.610  13.395
30235W        W 2649  23.174   7.190   2.790
30236W        W 2650  24.633  34.110   0.271
30237W        W 2651  24.087  17.623   1.346
30238W        W 2652   6.245   1.784   1.843
30239W        W 2653  31.972  31.432  14.995
30240W        W 2654  21.018   8.282  14.447
30241W        W 2655  10.676  43.865   4.191
30242W        W 2656  33.452  21.150   5.156
30243W        W 2657  20.199  44.371  13.851
30244W        W 2658  25.581  13.841  11.001
30245W        W 2659  36.521  35.040  13.042
30246W        W 2660   0.391   9.175   2.260
30247W        W 2661  13.163  38.985  12.828
30248W        W 2662  36.079   5.754  14.454
30249W        W 2663  16.583  24.597  11.902
30250W        W 2664  39.046  39.455  13.804
30251W        W 2665  11.179   1.911   0.381
30252W        W 2666  44.262  20.250   2.778
30253W        W 2667  17.165  15.736  14.858
30254W        W 2668  35.090  31.937  10.500
30255W        W 2669   9.646  10.381   3.268
30256W        W 2670  13.248  31.936  13.406
30257W        W 2671  28.029  24.148   1.275
30258W        W 2672  24.188  14.194   1.786
30259W        W 2673  14.723  15.175   2.278
30260W        W 2674  40.390   0.880   3.369
30261W        W 2675  32.904  25.552  12.881
30262W        W 2676   2.405  44.830   3.325
30263W        W 2677   5.366  35.971  10.431
30264W        W 2678  43.835  37.405  13.437
30265W        W 2679  33.579  29.014   4.791
30266W        W 2680   6.684  43.867   0.405
30267W        W 2681  16.304  35.888   5.104
30268W        W 2682   5.344  12.729   3.318
30269W        W 2683  28.125   6.903   4.747
30270W        W 2684   9.744  43.771   4.806
30271W        W 2685  41.409  31.643   2.735
30272W        W 2686  41.906   3.444  10.425
30273W        W 2687  22.744  42.836  11.570
30274W        W 2688  44.426  22.195   0.395
30275W        W 2689   7.324  11.305   1.806
30276W        W 2690  20.117   5.856  11.894
30277W        W 2691  18.759  40.805  12.906
30278W        W 2692  33.057  15.586   3.206
30279W        W 2693   9.311  24.151  11.127
30280W        W 2694  15.623  10.721  10.621
30281W        W 2695  40.535  32.437  11.443
30282W        W 2696  15.791  31.972   5.267
30283W        W 2697  19.717  42.444   0.839
30284W        W 2698  29.465   6.753   0.297
30285W        W 2699  31.604  17.583  11.116
30286W        W 2700   0.339  42.454   4.819
30287W        W 2701  41.012  34.426   2.893
30288W        W 2702  32.606  38.988  10.641
30289W        W 2703  27.575  38.940   0.944
30290W        W 2704   3.896  21.125  14.277
30291W        W 2705  34.932  19.586  12.487
30292W        W 2706   1.352  44.469  11.885
30293W        W 2707  14.285  31.462   3.751
30294W        W 2708  36.462  26.638   2.323
30295W        W 2709  34.559  16.097  11.461
30296W        W 2710  38.947   5.729  12.450
30297W        W 2711  20.039   6.404   2.288
30298W        W 2712  32.503  13.815  14.286
30299W        W 2713  35.029  40.838   3.837
30300W        W 2714   6.273  30.449   0.415
30301W        W 2715  16.093   7.233  10.972
30302W        W 2716   9.652  10.788   0.243
30303W        W 2717  27.615  38.365   0.822
30304W        W 2718  23.533  42.903   3.244
30305W        W 2719  42.901  32.889  10.159
30306W        W 2720  44.373   5.811  14.383
30307W        W 2721  28.579  41.998   2.363
30308W        W 2722   0.970  22.069   2.876
30309W        W 2723  43.349  43.941  12.000
30310W        W 2724  10.762  29.648   1.227
30311W        W 2725   8.289  39.543  12.490
30312W        W 2726  40.834  28.100  11.942
30313W        W 2727  23.157   8.656   2.850
30314W        W 2728  37.880  13.304   0.253
30315W        W 2729   7.766   5.321  10.618
30316W        W 2730  12.745  33.896  13.474
30317W        W 2731   5.858  30.639   1.354
30318W        W 2732  17.184  36.410   2.724
30319W        W 2733  17.177  15.747   1.847
30320W        W 2734  31.101  15.741   2.246
30321W        W 2735  32.591   5.724  14.773
30322W        W 2736  33.131  31.138   0.339
30323W        W 2737  19.126   3.721  10.949
30324W        W 2738   4.397  12.628   5.100
30325W        W 2739  41.379   7.389  11.941
30326W        W 2740  36.998  36.397  12.419
30327W        W 2741  43.446  34.120   0.292
30328W        W 2742  24.993  32.462   0.916
30329W        W 2743  34.983   5.362   3.179
30330W        W 2744  39.533  29.456  11.407
30331W        W 2745  12.142  12.321  13.812
30332W        W 2746  19.709  31.601  14.907
30333W        W 2747  44.373  22.589   3.835
30334W        W 2748  20.760  14.341   0.852
30335W        W 2749  27.193  30.070  11.437
30336W        W 2750  32.498  34.013   0.408
30337W        W 2751  44.410  13.203  13.327
30338W        W 2752  10.240  40.455   0.939
30339W        W 2753  44.453  23.014  12.862
30340W        W 2754  26.968  35.018   4.323
30341W        W 2755  43.296  33.007   1.830
30342W        W 2756  16.307  32.051  12.374
30343W        W 2757  38.868   1.400   1.763
30344W        W 2758  26.495  31.919  13.399
30345W        W 2759  23.009   7.679   0.942
30346W        W 2760  27.567  24.029   1.717
30347W        W 2761  37.045  15.689  14.438
30348W        W 2762  36.479  40.810  11.129
30349W        W 2763  17.109  24.662  13.339
30350W        W 2764   2.330  18.279  11.607
30351W        W 2765  37.369  22.692   4.163
30352W        W 2766  25.062  25.472  13.856
30353W        W 2767  27.529   0.255  14.484
30354W        W 2768   6.209  38.040  13.854
30355W        W 2769  36.363  10.326   4.678
30356W        W 2770  29.613  42.286  12.393
30357W        W 2771  17.080  43.789  13.478
30358W        W 2772  11.772  42.285  10.961
30359W        W 2773  10.743  19.738   3.751
30360W        W 2774  18.574  17.606   1.421
30361W        W 2775   8.395  11.130   2.677
30362W        W 2776  31.621  32.079  10.470
30363W        W 2777  41.825  20.580  11.992
30364W        W 2778  18.170  30.588  14.942
30365W        W 2779  40.897  13.167  13.883
30366W        W 2780  34.583   7.849  12.019
30367W        W 2781  22.069  35.483   1.754
30368W        W 2782   7.385   4.290  10.907
30369W        W 2783  25.154   1.833  11.559
30370W        W 2784  13.804  43.814   2.812
30371W        W 2785  41.952   5.437   0.461
30372W        W 2786  32.579  36.526   0.352
30373W        W 2787   5.330  36.506   2.224
30374W        W 2788  27.006  23.669  11.948
30375W        W 2789   4.822  21.674  14.785
30376W        W 2790  27.178  38.869  10.965
30377W        W 2791  15.766  20.568   3.749
30378W        W 2792  12.630  17.232   3.184
30379W        W 2793  26.125  19.246  10.412
30380W        W 2794  26.644  22.532   3.271
30381W        W 2795   6.390  27.507   1.839
30382W        W 2796  30.094   9.742   4.286
30383W        W 2797   3.866  11.747  11.019
30384W        W 2798  21.198  37.411   4.734
30385W        W 2799  17.072  17.588   0.328
30386W        W 2800  40.388   8.369  12.837
30387W        W 2801  35.896  33.984   1.305
30388W        W 2802  33.472  28.083  13.999
30389W        W 2803  21.539  44.501   2.741
30390W        W 2804  15.138  21.050   0.282
30391W        W 2805   3.417  14.282  13.447
30392W        W 2806  17.167  31.136  11.496
30393W        W 2807  41.825  38.955   2.284
30394W        W 2808  24.573  18.121  10.122
30395W        W 2809   3.898  19.132   4.341
30396W        W 2810  33.556  32.613  11.083
30397W        W 2811  20.272  20.651   4.631
30398W        W 2812  41.858  28.059  14.797
30399W        W 2813  12.154   1.841   0.774
30400W        W 2814   5.370  12.137   4.251
30401W        W 2815   1.317  32.507  13.412
30402W        W 2816  44.827  19.242  11.591
30403W        W 2817  35.482  34.560  14.863
30404W        W 2818  10.798  37.964   0.841
30405W        W 2819  37.385  23.992  12.991
30406W        W 2820   1.337  20.058  11.974
30407W        W 2821  24.060  13.179  14.790
30408W        W 2822  35.572  40.973  12.018
30409W        W 2823  27.160  14.816  12.855
30410W        W 2824   1.847  44.806   1.286
30411W        W 2825  16.127   9.304   5.799
30412W        W 2826   1.378   6.417   0.332
30413W        W 2827  41.790   1.800   3.352
30414W        W 2828  12.334  43.875  11.010
30415W        W 2829  21.521  25.564  13.888
30416W        W 2830  24.176  31.601  14.783
30417W        W 2831  34.009   3.918   3.675
30418W        W 2832   7.340  30.951   1.242
30419W        W 2833  37.520  33.050   1.415
30420W        W 2834  27.659   3.841   0.394
30421W        W 2835  28.508  26.526  12.899
30422W        W 2836  37.468  12.229  11.578
30423W        W 2837   6.377  27.071  12.376
30424W        W 2838  17.668   3.247  12.039
30425W        W 2839  26.998  29.653   2.687
30426W        W 2840   4.340  15.218  11.942
30427W        W 2841  34.572  38.963  12.479
30428W        W 2842  20.229   6.258   4.162
30429W        W 2843  25.677   3.248  14.887
30430W        W 2844  31.964  30.536  10.620
30431W        W 2845  27.007  24.591   2.673
30432W        W 2846   6.258  43.960   1.350
30433W        W 2847  17.095  30.537   2.754
30434W        W 2848  34.408   1.308   2.802
30435W        W 2849  44.942  27.494  11.580
30436W        W 2850  14.787   5.414  14.024
30437W        W 2851  27.674  13.119   3.786
30438W        W 2852  22.524  35.858  13.832
30439W        W 2853  20.065   4.331  12.525
30440W        W 2854  32.916  18.291   3.756
30441W        W 2855  40.916  22.638   3.706
30442W        W 2856   0.487  44.888   3.341
30443W        W 2857  41.887  13.726   1.840
30444W        W 2858   2.791   6.330  12.490
30445W        W 2859  15.220   3.848   4.635
30446W        W 2860  27.481  23.052   3.809
30447W        W 2861  14.206  11.294   4.122
30448W        W 2862  23.639  40.816  11.567
30449W        W 2863  28.941  38.829   4.184
30450W        W 2864  24.522   4.766  14.990
30451W        W 2865  43.970  40.347   2.377
30452W        W 2866   7.822  26.466  14.507
30453W        W 2867  12.745  23.166   3.693
30454W        W 2868  39.499  35.444  13.408
30455W        W 2869  17.721  41.964   3.212
30456W        W 2870  17.765   6.303  14.280
30457W        W 2871  40.318  20.182  11.433
30458W        W 2872  39.998  14.261   2.260
30459W        W 2873  42.952  22.190  13.513
30460W        W 2874  12.268  31.988   1.267
30461W        W 2875  44.341  20.733  14.290
30462W        W 2876  20.629  29.652   1.235
30463W        W 2877   1.933  32.556   4.294
30464W        W 2878  41.021  20.070   2.743
30465W        W 2879  44.320  21.622  14.805
30466W        W 2880  37.890  10.709  14.870
30467W        W 2881  31.579   4.324   3.244
30468W        W 2882  19.776  38.999  10.458
30469W        W 2883   6.761  39.835   4.628
30470W        W 2884  17.077  32.604  13.413
30471W        W 2885  22.042  35.904   2.186
30472W        W 2886   8.369  44.482   2.709
30473W        W 2887  43.490  22.062   2.823
30474W        W 2888  12.833  40.472  11.455
30475W        W 2889   6.721  17.068  11.571
30476W        W 2890  32.401   5.305  12.470
30477W        W 2891  25.122   1.468   2.672
30478W        W 2892   9.832  24.089   4.827
30479W        W 2893  33.402  19.636   3.689
30480W        W 2894  15.610   5.787  14.309
30481W        W 2895   9.801  29.026  14.489
30482W        W 2896  37.995  18.665   4.823
30483W        W 2897   3.397  30.439   4.227
30484W        W 2898  32.404  21.532  13.471
30485W        W 2899   2.280   0.856  14.432
30486W        W 2900  29.104  22.228   1.404
30487W        W 2901  37.881  17.237   1.926
30488W        W 2902  20.700  14.647  11.500
30489W        W 2903   8.702  19.186  10.983
30490W        W 2904  20.640  29.506   4.267
30491W        W 2905  19.070  31.531   2.721
30492W        W 2906  42.389   7.272   3.687
30493W        W 2907  10.852  43.830   1.375
30494W        W 2908   6.269  44.499  10.056
30495W        W 2909  15.153  32.097  14.821
30496W        W 2910  25.004  39.325  10.485
30497W        W 2911   4.326  32.420   3.281
30498W        W 2912  34.018  43.330  10.499
30499W        W 2913  24.136   4.823  14.511
30500W        W 2914   0.836  37.941  12.825
30501W        W 2915  28.022   2.445   1.759
30502W        W 2916  13.610  10.371  12.968
30503W        W 2917  26.486  39.380   4.612
30504W        W 2918  34.894  39.045  14.981
30505W        W 2919  27.085  29.666   1.720
30506W        W 2920   5.306  18.608   3.832
30507W        W 2921  17.748  19.159  13.395
30508W        W 2922   0.319  25.660   3.869
30509W        W 2923  38.368  35.379   2.416
30510W        W 2924  43.831  21.152   2.834
30511W        W 2925  27.607   5.194  14.977
30512W        W 2926  39.358  37.891   2.683
30513W        W 2927   6.816  42.375  12.090
30514W        W 2928  25.134  21.741  11.425
30515W        W 2929  26.953  33.574  12.897
30516W        W 2930  37.036  34.881   5.205
30517W        W 2931  28.943  13.796   0.874
30518W        W 2932   1.890  17.177   1.210
30519W        W 2933  20.669  44.899   1.895
30520W        W 2934  35.874  30.644  12.851
30521W        W 2935  20.156  30.952   3.228
30522W        W 2936  28.592  44.879  13.945
30523W        W 2937  21.103  23.722  14.800
30524W        W 2938  15.093   7.817  14.325
30525W        W 2939  16.232  37.418  10.983
30526W        W 2940  34.451   3.234   1.788
30527W        W 2941  18.258  41.474  10.536
30528W        W 2942  25.060  23.215  12.905
30529W        W 2943  37.484  38.979  14.493
30530W        W 2944  34.921  20.209   3.334
30531W        W 2945   3.733  43.307  14.857
30532W        W 2946  31.627   3.755  13.912
30533W        W 2947   7.879  11.728   3.823
30534W        W 2948   7.303   4.806   1.430
30535W        W 2949  16.113  26.609   2.747
30536W        W 2950   9.364  12.283  14.309
30537W        W 2951  34.595  39.954   3.704
30538W        W 2952  12.824  28.116  10.630
30539W        W 2953  27.489  36.571   1.864
30540W        W 2954  23.078  38.903  14.954
30541W        W 2955  17.717  27.446   4.191
30542W        W 2956   9.368  14.165  11.472
30543W        W 2957  15.218  21.187  10.583
30544W        W 2958  32.484  22.665  11.056
30545W        W 2959  17.147  38.824  13.332
30546W        W 2960  37.935  42.488   0.384
30547W        W 2961  34.388  21.169  14.843
30548W        W 2962  26.066   8.769  10.081
30549W        W 2963  40.943  23.107  13.404
30550W        W 2964  28.984  14.328   5.165
30551W        W 2965  12.843  19.150  14.985
30552W        W 2966  28.169  11.161   3.728
30553W        W 2967  17.139   1.280  11.455
30554W        W 2968  15.812  34.044   2.252
30555W        W 2969  39.032  10.652  10.576
30556W        W 2970  30.535   9.802  13.051
30557W        W 2971   9.722  44.837   3.683
30558W        W 2972  31.486  20.104  12.483
30559W        W 2973  15.181  13.786   2.864
30560W        W 2974  14.164  24.617  14.909
30561W        W 2975  20.225   0.937  11.486
30562W        W 2976   8.808  25.608   1.246
30563W        W 2977  29.599   5.737  10.597
30564W        W 2978  19.565  11.691  13.980
30565W        W 2979   1.354  39.385   1.222
30566W        W 2980  37.355   9.330   2.251
30567W        W 2981  20.722  14.822   4.341
30568W        W 2982  13.689   5.269   4.699
30569W        W 2983  40.371  37.993  10.959
30570W        W 2984  39.817  20.554  11.857
30571W        W 2985  34.992  15.700   1.891
30572W        W 2986   6.357  32.069  12.976
30573W        W 2987  30.065   0.459  14.339
30574W        W 2988  18.091  44.839  13.442
30575W        W 2989   5.722   8.864   4.287
30576W        W 2990  19.184  20.174   1.263
30577W        W 2991  29.614   7.384  11.565
30578W        W 2992  19.653  26.543  11.403
30579W        W 2993  30.030   8.394  10.586
30580W        W 2994  11.180  11.288  10.922
30581W        W 2995  32.428   2.384  10.586
30582W        W 2996  26.130  27.471  13.797
30583W        W 2997  34.062  22.512  12.986
30584W        W 2998  40.041   5.763  12.986
30585W        W 2999  14.307   7.883  11.058
30586W        W 3000  11.153  20.174  11.881
30587W        W 3001  16.184  16.197   1.931
30588W        W 3002  30.980  38.851   1.745
30589W        W 3003  32.492  17.112   4.320
30590W        W 3004   3.886  17.617  13.030
30591W        W 3005  34.069  22.694   4.172
30592W        W 3006  33.492  27.016   0.429
30593W        W 3007  38.343  37.894   3.164
30594W        W 3008   0.932  24.070  11.436
30595W        W 3009  33.111  40.380   2.830
30596W        W 3010  42.878   4.763  13.021
30597W        W 3011  10.737   2.727  14.777
30598W        W 3012  19.126  16.638  10.497
30599W        W 3013  40.031  25.154  11.516
30600W        W 3014  24.003   5.401  14.918
30601W        W 3015  17.708  31.641   1.779
30602W        W 3016   3.763  32.473   3.202
30603W        W 3017   7.737  16.093  13.491
30604W        W 3018  10.746   2.860   3.213
30605W        W 3019  41.967   7.693   1.379
30606W        W 3020  20.725   1.397  14.483
30607W        W 3021  36.443  15.707   3.175
30608W        W 3022  31.623  44.397  13.474
30609W        W 3023   0.830   0.489  11.993
30610W        W 3024  32.916  16.697  10.610
30611W        W 3025  31.427  38.906   2.195
30612W        W 3026  10.280  32.493  12.907
30613W        W 3027  27.536   3.786   4.732
30614W        W 3028  35.400  32.056  14.411
30615W        W 3029  18.163  17.164  13.956
30616W        W 3030  23.556  34.876   2.771
30617W        W 3031  44.372  18.714   4.351
30618W        W 3032  37.522  35.562  12.004
30619W        W 3033   6.917  40.416   0.848
30620W        W 3034  24.536   1.890  13.994
30621W        W 3035  43.365  32.462  12.097
30622W        W 3036  26.584  27.501   0.901
30623W        W 3037  36.463  40.846   1.868
30624W        W 3038  20.271  29.151   0.910
30625W        W 3039  27.016  10.219   2.809
30626W        W 3040  37.932   2.721  10.618
30627W        W 3041   7.904  12.783  11.018
30628W        W 3042  28.677  34.591   0.799
30629W        W 3043  24.687  29.670   2.387
30630W        W 3044  40.957  12.176   2.796
30631W        W 3045  34.579   3.863   0.838
30632W        W 3046  19.546  27.067   4.223
30633W        W 3047  39.394  32.960   1.298
30634W        W 3048  24.196  14.742  14.471
30635W        W 3049  25.988   4.714   3.793
30636W        W 3050  35.947   9.697   1.302
30637W        W 3051  30.543  41.440   0.920
30638W        W 3052  12.296   0.458  12.370
30639W        W 3053  12.228  41.827   1.780
30640W        W 3054  23.032  41.963  13.494
30641W        W 3055  10.144  43.312   1.863
30642W        W 3056  35.026  23.597  10.619
30643W        W 3057  22.595  25.149   1.293
30644W        W 3058  26.696  35.889  10.566
30645W        W 3059   7.304  24.131  12.540
30646W        W 3060  36.422  11.710   3.669
30647W        W 3061  25.973  24.098  12.827
30648W        W 3062  29.998  36.408  11.940
30649W        W 3063  33.891  43.914   4.636
30650W        W 3064  44.943  13.779   0.897
30651W        W 3065  13.606  37.518  11.503
30652W        W 3066  30.148  19.107   1.877
30653W        W 3067  31.546   8.789   2.178
30654W        W 3068  27.997  43.018  14.952
30655W        W 3069   5.878   2.738   2.741
30656W        W 3070  34.435  21.558  10.537
30657W        W 3071  39.440  17.655   0.316
30658W        W 3072  41.961  25.208  12.423
30659W        W 3073  38.951  10.139  10.080
30660W        W 3074   5.233  26.206   0.255
30661W        W 3075   9.227  12.620   0.445
30662W        W 3076  19.671  27.585  12.028
30663W        W 3077  42.408  22.054  12.395
30664W        W 3078   6.285  29.084  12.066
30665W        W 3079  21.656  41.331  14.457
30666W        W 3080  30.611  34.584   2.729
30667W        W 3081  38.327  44.349  10.939
30668W        W 3082  42.015   4.723  11.383
30669W        W 3083  41.788  36.860   4.609
30670W        W 3084  22.583   0.395   0.282
30671W        W 3085  16.123  21.045  12.532
30672W        W 3086   7.297  17.694   0.271
30673W        W 3087  23.178  43.476  10.599
30674W        W 3088   8.292   9.225   4.643
30675W        W 3089  10.182  19.124  10.087
30676W        W 3090  32.448  23.224   0.741
30677W        W 3091  33.090  36.972   2.368
30678W        W 3092  12.208  32.973  12.528
30679W        W 3093   6.744  33.446  11.454
30680W        W 3094  14.598  11.850   4.271
30681W        W 3095  23.131  11.672  13.511
30682W        W 3096  44.349  42.892  14.858
30683W        W 3097  29.542  40.449   2.811
30684W        W 3098  28.042  42.004  14.825
30685W        W 3099  44.291  34.433  13.916
30686W        W 3100  28.998  13.776   4.819
30687W        W 3101  31.010  42.484   0.946
30688W        W 3102  17.197  39.926   4.827
30689W        W 3103  34.997  23.060  13.402
30690W        W 3104  31.571  43.943   4.711
30691W        W 3105  40.979  21.682   4.251
30692W        W 3106  23.518  34.388  10.955
30693W        W 3107  40.546   3.412  11.067
30694W        W 3108  36.089  36.910  11.005
30695W        W 3109   9.803  25.604  11.547
30696W        W 3110  10.746  43.874   0.881
30697W        W 3111  22.160  43.417   1.864
30698W        W 3112  41.973  35.095  13.864
30699W        W 3113  16.729  14.730  12.541
30700W        W 3114  14.799   5.752  14.488
30701W        W 3115  32.891   9.651   1.892
30702W        W 3116   9.243  13.789  10.550
30703W        W 3117   0.942  26.174   1.855
30704W        W 3118  22.698  21.198  13.345
30705W        W 3119  13.303   6.871   2.351
30706W        W 3120  26.600   7.706   0.258
30707W        W 3121  12.734   5.868  12.865
30708W        W 3122  43.377  25.153   4.604
30709W        W 3123  31.948  17.210  11.104
30710W        W 3124  14.807  19.067  10.587
30711W        W 3125   7.867  38.493   4.161
30712W        W 3126  31.556  34.921  11.866
30713W        W 3127  21.032   2.727  12.033
30714W        W 3128  41.498  24.033   2.744
30715W        W 3129  35.082  39.958   1.711
30716W        W 3130   4.781  18.678   5.152
30717W        W 3131  42.932  17.162   1.251
30718W        W 3132   4.808  30.918   3.660
30719W        W 3133  40.935  39.503  11.608
30720W        W 3134  20.640   5.897   0.361
30721W        W 3135   9.335  17.657  10.505
30722W        W 3136  29.937  21.071  14.821
30723W        W 3137  38.373  10.272   4.696
30724W        W 3138  24.017  20.061  14.791
30725W        W 3139   3.839   8.885  13.540
30726W        W 3140  36.418  31.550   1.811
30727W        W 3141   4.788  19.159  12.976
30728W        W 3142  15.298  39.830  10.409
30729W        W 3143  11.807  22.522  11.569
30730W        W 3144  22.635  23.617  11.468
30731W        W 3145  13.830   5.247   4.200
30732W        W 3146  10.636  14.826   4.783
30733W        W 3147  21.673  21.675  11.590
30734W        W 3148  36.031  37.847   0.839
30735W        W 3149   9.165   4.929  12.836
30736W        W 3150  36.031  11.347   1.861
30737W        W 3151  32.415  29.472  12.010
30738W        W 3152  28.985  40.951  11.976
30739W        W 3153  43.845  44.494   2.783
30740W        W 3154  33.518  22.605   4.183
30741W        W 3155  12.286   3.289  11.533
30742W        W 3156  25.009  38.416  13.927
30743W        W 3157  16.775  41.494  14.857
30744W        W 3158  20.200   7.416  10.550
30745W        W 3159  31.415  19.154  10.412
30746W        W 3160  10.799  30.521   3.775
30747W        W 3161  39.336  43.970   0.868
30748W        W 3162  36.502  40.514   0.890
30749W        W 3163  16.165  26.482  13.526
30750W        W 3164  30.020  19.253   2.316
30751W        W 3165   1.328  19.564  13.927
30752W        W 3166   8.798   8.693  10.924
30753W        W 3167  14.218   2.827  11.118
30754W        W 3168   9.305  17.704   3.752
30755W        W 3169  40.803  23.195  14.414
30756W        W 3170   1.247  22.118  10.943
30757W        W 3171  11.634  34.894   2.315
30758W        W 3172  18.071  18.721  11.606
30759W        W 3173  44.846  18.645   1.371
30760W        W 3174  12.330  23.033  10.414
30761W        W 3175  19.642  43.888  13.995
30762W        W 3176  37.551  12.226   0.300
30763W        W 3177  22.075  25.990  11.897
30764W        W 3178  36.461  36.062  11.478
30765W        W 3179  24.585  22.221   3.289
30766W        W 3180  39.850   7.387   4.171
30767W        W 3181  13.811  15.173  12.929
30768W        W 3182   9.712   0.949   2.184
30769W        W 3183  18.071  27.992  14.923
30770W        W 3184   3.225   9.828  11.990
30771W        W 3185  44.979   0.786   2.711
30772W        W 3186  10.279   6.798  11.408
30773W        W 3187  29.533  20.691   3.828
30774W        W 3188  28.471   4.339   3.322
30775W        W 3189  35.910  28.098   4.765
30776W        W 3190  23.489  10.698  11.091
30777W        W 3191  37.048  13.844   3.325
30778W        W 3192   0.478   4.276   4.660
30779W        W 3193   6.423  22.661   1.918
30780W        W 3194  43.968  10.866  10.917
30781W        W 3195   1.290  32.014  14.285
30782W        W 3196  22.173  10.870   4.603
30783W        W 3197  12.290  18.130  14.913
30784W        W 3198  17.288  33.106  14.937
30785W        W 3199  16.694  37.498   4.294
30786W        W 3200  44.263  37.536  12.383
30787W        W 3201  25.481  23.707  11.078
30788W        W 3202  19.592  18.652   4.641
30789W        W 3203  44.874   8.277  13.478
30790W        W 3204  21.579   2.446  13.469
30791W        W 3205  37.522  17.779  13.811
30792W        W 3206  37.929   3.327   3.276
30793W        W 3207  42.915   5.927   4.136
30794W        W 3208  36.920  17.127  12.915
30795W        W 3209  24.050  24.629   2.886
30796W        W 3210  20.602  16.300   1.286
30797W        W 3211  12.677  36.955  12.027
30798W        W 3212   3.754  21.126   1.696
30799W        W 3213  38.443   5.705  12.844
30800W        W 3214  29.485  27.479   1.706
30801W        W 3215  27.947  27.506  11.606
30802W        W 3216  24.146   1.872   0.463
30803W        W 3217   2.376  13.714   0.804
30804W        W 3218  21.575   6.851  14.344
30805W        W 3219  29.447  29.591  13.948
30806W        W 3220  25.104   9.751   0.272
30807W        W 3221  14.764  11.295   3.236
30808W        W 3222   6.688  20.162  13.840
30809W        W 3223  38.018  40.354  11.372
30810W        W 3224  42.828  37.492   2.209
30811W        W 3225   9.315  28.078  12.364
30812W        W 3226   1.403  36.411  11.587
30813W        W 3227  43.001  32.142   3.201
30814W        W 3228   1.954  10.365   2.744
30815W        W 3229  37.397   2.315   5.315
30816W        W 3230   6.414   2.845  14.916
30817W        W 3231  27.985  22.018   1.226
30818W        W 3232  19.714  38.560   3.367
30819W        W 3233   3.352  37.474  12.500
30820W        W 3234  37.838  44.462  14.018
30821W        W 3235  35.023  15.198  10.945
30822W        W 3236  36.584  23.071   3.729
30823W        W 3237  19.633  28.958   3.672
30824W        W 3238  18.611  34.965   2.234
30825W        W 3239  11.200  22.629   4.255
30826W        W 3240   7.346  34.570   1.893
30827W        W 3241   0.264  25.194   1.869
30828W        W 3242  17.287  39.891  12.915
30829W        W 3243  11.338  35.371   1.370
30830W        W 3244  36.878  14.237   0.482
30831W        W 3245  27.539  13.748   4.261
30832W        W 3246   8.188   3.459   1.322
30833W        W 3247  34.379   9.789  13.052
30834W        W 3248  28.000  24.084   0.737
30835W        W 3249  44.345   7.798   2.412
30836W        W 3250  39.461  32.444   2.389
30837W        W 3251  17.118   7.218   0.768
30838W        W 3252   9.804  30.913  12.851
30839W        W 3253   9.755  37.420   2.879
30840W        W 3254  30.653  37.058  11.031
30841W        W 3255   7.343  34.466   3.869
30842W        W 3256  33.602  39.360   2.288
30843W        W 3257  32.959  18.732   4.732
30844W        W 3258   6.266   8.817  14.400
30845W        W 3259  25.097   1.323   5.207
30846W        W 3260   5.746  12.165  12.985
30847W        W 3261  14.829   9.170   3.857
30848W        W 3262  34.061  30.083   2.870
30849W        W 3263  20.761  37.557  12.506
30850W        W 3264  19.673  37.382   4.118
30851W        W 3265   7.878  35.026   1.241
30852W        W 3266  22.680   8.794  14.274
30853W        W 3267  42.818  27.474  10.066
30854W        W 3268  18.579  24.604   2.382
30855W        W 3269  11.805  24.115  14.332
30856W        W 3270   3.902  12.218   3.250
30857W        W 3271   6.288  33.445   3.198
30858W        W 3272  22.634   7.400   2.316
30859W        W 3273   0.494  16.077  12.985
30860W        W 3274  42.428  24.227  12.960
30861W        W 3275   5.858   9.815   2.259
30862W        W 3276  26.045  26.592   1.339
30863W        W 3277  13.759  27.979   1.415
30864W        W 3278  13.711  17.683   1.848
30865W        W 3279  17.800  19.164   0.838
30866W        W 3280  36.401   2.292   4.179
30867W        W 3281  12.774  37.547  13.996
30868W        W 3282  44.293  12.163  12.425
30869W        W 3283  43.516  10.766  12.017
30870W        W 3284   1.824  37.036  13.797
30871W        W 3285   6.412  15.740   4.654
30872W        W 3286  11.820   0.256   4.698
30873W        W 3287  24.565  40.045   2.761
30874W        W 3288  36.356  39.846   0.766
30875W        W 3289  30.914  28.663  12.874
30876W        W 3290   9.384  12.328  14.877
30877W        W 3291  13.633  13.210   0.278
30878W        W 3292  25.649  43.870  13.525
30879W        W 3293  17.619  40.994   3.219
30880W        W 3294  22.173  25.627  14.416
30881W        W 3295  39.354  32.538  13.389
30882W        W 3296   9.150  38.975   3.218
30883W        W 3297  20.545  23.514   1.420
30884W        W 3298   8.726  37.971  12.355
30885W        W 3299  29.654  41.324  14.961
30886W        W 3300   4.336  40.025   2.406
30887W        W 3301  39.038  34.551  13.998
30888W        W 3302  20.601   6.270  11.999
30889W        W 3303  23.563  21.599   4.664
30890W        W 3304   1.413   5.367   3.851
30891W        W 3305  36.038  34.489   5.622
30892W        W 3306  44.421  25.161   1.925
30893W        W 3307  43.320  16.276   1.440
30894W        W 3308  34.918  39.848  12.493
30895W        W 3309  13.350  39.438  10.471
30896W        W 3310   3.400  21.052  10.005
30897W        W 3311  39.506  31.135   4.291
30898W        W 3312  15.631  19.084   4.659
30899W        W 3313   7.838  39.880  12.559
30900W        W 3314   5.816  22.532   4.668
30901W        W 3315  21.045  24.716   1.415
30902W        W 3316  15.659  30.614   4.129
30903W        W 3317  20.238  32.945  12.842
30904W        W 3318  20.594  42.356   2.779
30905W        W 3319  23.705  28.542  12.416
30906W        W 3320   9.233  21.632   3.718
30907W        W 3321  22.246   3.870   0.922
30908W        W 3322  44.405  12.271   1.749
30909W        W 3323  29.135  10.380  12.858
30910W        W 3324  42.444  38.413  10.932
30911W        W 3325  29.933   8.716   4.150
30912W        W 3326  25.530  41.321   9.959
30913W        W 3327   0.258  34.989   0.929
30914W        W 3328  17.652  31.057   4.626
30915W        W 3329  42.831  16.728   4.196
30916W        W 3330   0.454   1.269   4.762
30917W        W 3331   4.937   5.403  13.518
30918W        W 3332  40.985  39.491  11.870
30919W        W 3333  37.840  38.366  10.501
30920W        W 3334  44.308  20.692   0.890
30921W        W 3335  17.183  24.015  12.997
30922W        W 3336   8.242  10.303   0.262
30923W        W 3337  41.426  32.060  13.931
30924W        W 3338  35.966   2.808   2.358
30925W        W 3339   0.930  37.578   4.774
30926W        W 3340   5.384  21.053  10.146
30927W        W 3341  19.102   2.722  14.288
30928W        W 3342  38.370  19.685  13.392
30929W        W 3343  11.641   3.451  13.363
30930W        W 3344  14.129   1.804   0.290
30931W        W 3345  44.487  25.563   3.286
30932W        W 3346  42.356   1.278   4.307
30933W        W 3347   3.710  13.247   2.263
30934W        W 3348   4.381   4.341  14.469
30935W        W 3349  38.534  28.061  13.500
30936W        W 3350  41.899  26.201  12.926
30937W        W 3351  33.541  12.134   1.221
30938W        W 3352   6.919   4.737  12.899
30939W        W 3353  36.980  18.058  11.937
30940W        W 3354  12.708  41.838  14.423
30941W        W 3355   0.870  33.887  11.542
30942W        W 3356  11.364  11.673   4.337
30943W        W 3357  34.546  17.156   3.199
30944W        W 3358  29.437  32.582   4.187
30945W        W 3359   1.976  27.632   2.387
30946W        W 3360   8.776   5.412   1.764
30947W        W 3361  23.548  39.435   3.717
30948W        W 3362  23.117  20.126   1.228
30949W        W 3363   1.945  22.023  11.528
30950W        W 3364   5.332  36.474  14.838
30951W        W 3365   8.814  16.279   2.717
30952W        W 3366   3.265  27.130   1.292
30953W        W 3367   6.807  25.621   2.411
30954W        W 3368  11.301  28.542   3.682
30955W        W 3369  41.953  16.136   4.287
30956W        W 3370  39.992  43.912  11.494
30957W        W 3371   0.281  34.396  13.028
30958W        W 3372   4.251   0.938  10.983
30959W        W 3373  40.347  14.608   3.332
30960W        W 3374  21.690  14.608  11.940
30961W        W 3375  41.390  24.056   2.277
30962W        W 3376  28.480  19.242   0.338
30963W        W 3377  12.762  30.992   1.744
30964W        W 3378   6.207   1.394  12.514
30965W        W 3379  13.689  29.091  11.108
30966W        W 3380   4.832  34.609  11.466
30967W        W 3381  29.934  28.166   1.848
30968W        W 3382   6.820  40.397   1.319
30969W        W 3383   4.915  23.103  12.839
30970W        W 3384  26.995  37.478   3.207
30971W        W 3385  10.780  16.683   1.755
30972W        W 3386   0.940   6.419  13.397
30973W        W 3387   3.714   2.330  12.871
30974W        W 3388  16.809  23.017  13.542
30975W        W 3389  44.934   6.348  14.306
30976W        W 3390  25.011  15.274  14.912
30977W        W 3391  24.185  14.104  11.919
30978W        W 3392  32.494  28.930  11.468
30979W        W 3393  23.551   4.726  13.838
30980W        W 3394  21.536   6.806  14.000
30981W        W 3395  30.005  38.875  10.007
30982W        W 3396  33.015  27.522  12.391
30983W        W 3397   0.953   2.796   1.816
30984W        W 3398  43.484  43.476   4.273
30985W        W 3399   2.770  33.055   2.392
30986W        W 3400  35.090  41.904   1.771
30987W        W 3401  21.106  30.576  11.935
30988W        W 3402  15.723  22.012   1.818
30989W        W 3403  21.202  44.451  12.522
30990W        W 3404  16.648  34.586  11.015
30991W        W 3405  21.176  23.733  13.394
30992W        W 3406  26.459   2.763  14.825
30993W        W 3407  28.448  10.772   1.405
30994W        W 3408  29.989  30.494  11.506
30995W        W 3409  40.440   0.389   2.279
30996W        W 3410  25.124  37.895   3.792
30997W        W 3411   2.849  31.618   3.631
30998W        W 3412  30.596  16.696  12.035
30999W        W 3413  35.468  22.545  14.509
31000W        W 3414   7.852   3.442   3.816
31001W        W 3415  38.408  39.816  11.516
31002W        W 3416  21.744  18.558   1.417
31003W        W 3417  29.168  34.380  12.084
31004W        W 3418  37.927  15.230   1.907
31005W        W 3419  13.351  39.902   0.826
31006W        W 3420   0.337  15.642   3.865
31007W        W 3421  43.413  28.111  13.542
31008W        W 3422  31.139   5.716   2.800
31009W        W 3423  18.124   1.328   2.745
31010W        W 3424  43.987  43.319  14.286
31011W        W 3425  27.097  13.733   1.304
31012W        W 3426  27.536  39.553   3.351
31013W        W 3427  25.599   3.414   2.286
31014W        W 3428  12.853   7.289   1.812
31015W        W 3429  16.640  20.729   1.859
31016W        W 3430  33.462  12.273  13.984
31017W        W 3431   0.834   6.817  14.470
31018W        W 3432   6.891  36.565   2.811
31019W        W 3433  43.434   1.916  10.520
31020W        W 3434   5.763   0.923   1.829
31021W        W 3435   5.859  21.709  12.078
31022W        W 3436   9.242  19.265  14.967
31023W        W 3437  30.144  10.363   1.914
31024W        W 3438  11.846  39.353  13.930
31025W        W 3439   3.293  18.731   1.711
31026W        W 3440  40.323  43.474   0.250
31027W        W 3441   0.840   3.745  14.877
31028W        W 3442  28.175  17.236  12.823
31029W        W 3443  10.738  30.632  11.067
31030W        W 3444   0.387  18.604   3.760
31031W        W 3445  39.869   2.237   3.374
31032W        W 3446  44.868   8.401  12.022
31033W        W 3447  32.130  41.932  14.387
31034W        W 3448  31.599  21.200  12.432
31035W        W 3449   3.837   6.723  12.825
31036W        W 3450   6.229  17.719   2.820
31037W        W 3451  17.673  31.139  14.779
31038W        W 3452  27.653  25.644  14.347
31039W        W 3453  19.277  27.579  14.325
31040W        W 3454  19.254  11.704  11.094
31041W        W 3455   8.686   8.693   2.853
31042W        W 3456  42.408  44.354  14.290
31043W        W 3457  25.588  14.283   2.729
31044W        W 3458  37.428  16.146  14.312
31045W        W 3459   7.216  39.474   4.629
31046W        W 3460  14.150  31.521  13.348
31047W        W 3461  20.741  19.703   1.267
31048W        W 3462  23.557  33.116   2.253
31049W        W 3463  20.569  44.435  11.030
31050W        W 3464  33.024  42.329  13.934
31051W        W 3465  28.037  23.595  13.350
31052W        W 3466  12.206  22.103  14.791
31053W        W 3467  29.471  23.676  12.022
31054W        W 3468  23.986  26.594   2.703
31055W        W 3469   4.815   7.863   2.781
31056W        W 3470  11.673  40.821   1.312
31057W        W 3471   6.879  41.908   1.287
31058W        W 3472  21.191  33.454  12.872
31059W        W 3473  16.587  34.605   1.266
31060W        W 3474  22.542  40.879  11.401
31061W        W 3475  34.982  14.620  13.987
31062W        W 3476  11.857  24.554   0.336
31063W        W 3477  22.694   6.218  10.559
31064W        W 3478  44.267   7.908  13.337
31065W        W 3479   8.655  33.075  12.426
31066W        W 3480  28.507  19.564   3.305
31067W        W 3481  34.383   8.321  11.429
31068W        W 3482  38.979   6.753  12.540
31069W        W 3483   7.342  27.549  11.458
31070W        W 3484  34.457  21.258  12.950
31071W        W 3485   8.743   7.855   0.847
31072W        W 3486  39.831  42.322  14.881
31073W        W 3487   3.878  24.127   1.384
31074W        W 3488   3.458  40.825  13.409
31075W        W 3489  15.650  23.039   4.673
31076W        W 3490   7.235  26.479   1.349
31077W        W 3491  28.176   8.716   3.770
31078W        W 3492   6.387  23.211  11.518
31079W        W 3493  32.963   5.775  10.904
31080W        W 3494  31.584  39.373  13.835
31081W        W 3495   7.332  11.140  11.004
31082W        W 3496  26.090  16.225   0.255
31083W        W 3497  30.514   8.210  13.985
31084W        W 3498   6.725  33.464   2.806
31085W        W 3499  18.638  35.902  12.012
31086W        W 3500   0.880   6.310  10.613
31087W        W 3501  43.359   0.908   3.382
31088W        W 3502   6.741   9.677   2.768
31089W        W 3503  30.970   8.715   3.317
31090W        W 3504   2.762  20.643  11.072
31091W        W 3505  20.050  10.226  11.885
31092W        W 3506  41.343  34.401   2.350
31093W        W 3507  38.964  13.790   2.261
31094W        W 3508  34.097  16.143   1.770
31095W        W 3509  16.288  17.120  11.902
31096W        W 3510  13.844  35.976   3.777
31097W        W 3511  12.629   8.384  14.478
31098W        W 3512  17.125  15.601  10.428
31099W        W 3513  25.553   9.155   4.822
31100W        W 3514  32.124  31.146   0.347
31101W        W 3515  22.235  21.541   1.845
31102W        W 3516   7.874  20.529  13.888
31103W        W 3517  35.980  17.159   4.346
31104W        W 3518  39.523  12.222   2.213
31105W        W 3519  14.748  38.878  12.494
31106W        W 3520  15.148   6.840   1.322
31107W        W 3521  43.291  38.955  12.980
31108W        W 3522  39.049  25.663  12.893
31109W        W 3523   8.196   7.765   4.654
31110W        W 3524  37.569  18.629  13.878
31111W        W 3525  36.525   4.764  11.970
31112W        W 3526  32.540  18.087  11.442
31113W        W 3527  35.077  25.965  12.021
31114W        W 3528  17.224   4.251  14.820
31115W        W 3529   5.307  23.513  13.474
31116W        W 3530  17.135  16.694  14.973
31117W        W 3531  28.023  35.913  12.095
31118W        W 3532  22.651  16.711  11.592
31119W        W 3533   7.314  36.449   0.863
31120W        W 3534  38.524  30.475  13.881
31121W        W 3535  30.636  39.466   4.301
31122W        W 3536   7.221  42.918  14.458
31123W        W 3537   7.250  35.067   2.762
31124W        W 3538  33.975  14.757  13.382
31125W        W 3539  21.087  16.601   2.276
31126W        W 3540  29.998  44.352   1.326
31127W        W 3541  38.945  11.732  13.403
31128W        W 3542   3.452  23.990   2.867
31129W        W 3543   6.874  25.511  12.569
31130W        W 3544  30.423  34.489  11.430
31131W        W 3545  43.808  19.046   2.368
31132W        W 3546   3.335  30.414   1.834
31133W        W 3547   9.822  40.491  14.418
31134W        W 3548  35.467   0.759  11.448
31135W        W 3549  41.799   0.440   3.850
31136W        W 3550  23.019  12.155  13.043
31137W        W 3551  42.306   7.732   0.850
31138W        W 3552  22.122  21.654   1.321
31139W        W 3553  39.315   0.329   2.356
31140W        W 3554  26.014  37.439  13.399
31141W        W 3555  12.687  26.981  10.637
31142W        W 3556   0.463  32.073  12.579
31143W        W 3557  34.426  40.544  12.506
31144W        W 3558  38.518  30.163  12.096
31145W        W 3559  22.523  10.836  14.339
31146W        W 3560  16.198  28.952   1.781
31147W        W 3561  14.745  17.740   4.643
31148W        W 3562   9.355  33.481   1.792
31149W        W 3563   0.837  19.635  11.494
31150W        W 3564  38.822  32.906   3.251
31151W        W 3565  37.505  38.567  10.097
31152W        W 3566   1.898  40.937   9.933
31153W        W 3567  13.612  39.900   0.400
31154W        W 3568  27.541  32.540   2.794
31155W        W 3569   3.870   9.225  12.047
31156W        W 3570  11.793  13.128   1.788
31157W        W 3571  34.034   3.347   2.360
31158W        W 3572  12.633  23.061  14.799
31159W        W 3573  29.480  14.173  14.467
31160W        W 3574  32.629  30.999   2.841
31161W        W 3575  35.447  44.489  11.074
31162W        W 3576  30.992   1.342  13.943
31163W        W 3577  21.216  30.524   2.697
31164W        W 3578   3.273  15.604   0.787
31165W        W 3579   0.346   1.481   1.350
31166W        W 3580   5.824  32.580  14.292
31167W        W 3581   7.304  33.386   3.161
31168W        W 3582  23.083  22.564  14.007
31169W        W 3583  43.852  23.634  11.536
31170W        W 3584  42.283  34.543   1.767
31171W        W 3585   3.719  22.638  14.812
31172W        W 3586   4.234   1.747  14.361
31173W        W 3587  37.911  39.811   4.242
31174W        W 3588  35.574   9.883  10.574
31175W        W 3589  35.410  42.301   3.814
31176W        W 3590   1.743  11.221  13.911
31177W        W 3591  19.652  44.304  11.125
31178W        W 3592  43.464   4.368   2.358
31179W        W 3593  35.027  14.188   2.406
31180W        W 3594  32.417  10.717  13.327
31181W        W 3595  25.981  33.089  12.489
31182W        W 3596  29.136   2.912  12.537
31183W        W 3597  15.589  35.441   4.250
31184W        W 3598  10.763  15.209   1.738
31185W        W 3599   8.816  36.464  10.456
31186W        W 3600  10.361   8.205  14.493
31187W        W 3601  24.021  24.491   0.375
31188W        W 3602  44.410  22.579   0.840
31189W        W 3603   3.271  32.593   4.707
31190W        W 3604   3.913   7.695   0.920
31191W        W 3605  38.915  24.650   4.727
31192W        W 3606  21.178   6.240  13.882
31193W        W 3607  13.158   8.805   3.832
31194W        W 3608   1.760  29.047  12.429
31195W        W 3609  14.627   7.297  10.915
31196W        W 3610  11.655  33.950  11.526
31197W        W 3611  25.476  41.956  12.502
31198W        W 3612   6.804  10.173  12.053
31199W        W 3613  32.105  19.617   3.690
31200W        W 3614  25.474   5.284   0.846
31201W        W 3615  26.552  37.065  14.354
31202W        W 3616  33.981  33.422   4.152
31203W        W 3617  23.663   1.805   2.845
31204W        W 3618  19.614  23.019   1.738
31205W        W 3619  33.436  14.181   0.863
31206W        W 3620  37.896  38.979  12.013
31207W        W 3621  14.821   6.186   4.344
31208W        W 3622  14.135   3.738   3.311
31209W        W 3623  15.117   7.237   4.227
31210W        W 3624   0.923  13.786  11.604
31211W        W 3625  28.652  41.025   2.732
31212W        W 3626  21.602  32.979   3.168
31213W        W 3627  34.018  41.938   0.839
31214W        W 3628  12.262  30.908   4.236
31215W        W 3629   1.476  25.686  11.497
31216W        W 3630  26.503  10.837  10.470
31217W        W 3631  38.463  19.046  14.833
31218W        W 3632  15.743  26.508  12.385
31219W        W 3633   4.929  36.879  13.946
31220W        W 3634  44.380  26.009   4.253
31221W        W 3635   4.918   2.760   4.203
31222W        W 3636  36.038  29.059  10.474
31223W        W 3637  35.490  32.979  12.937
31224W        W 3638  17.556  33.996   0.807
31225W        W 3639   0.980  41.413   4.313
31226W        W 3640  11.865  21.691   0.372
31227W        W 3641  23.157  39.827  13.001
31228W        W 3642   3.830  38.341  12.013
31229W        W 3643   8.802  15.600   2.837
31230W        W 3644  19.118  15.580   2.891
31231W        W 3645  19.156   2.928  13.379
31232W        W 3646  12.660  13.220   5.227
31233W        W 3647  30.144   0.956  11.385
31234W        W 3648  40.881  35.491  10.542
31235W        W 3649  14.760  36.063  14.512
31236W        W 3650  10.660   0.319   3.321
31237W        W 3651  33.520  17.263   1.251
31238W        W 3652  43.822  36.359   3.768
31239W        W 3653  41.873  17.122   4.334
31240W        W 3654   7.666  16.750  13.808
31241W        W 3655  20.715  15.649   1.434
31242W        W 3656   7.178  29.634   1.839
31243W        W 3657  34.606  22.674   9.960
31244W        W 3658  19.723  16.263  14.333
31245W        W 3659  19.766  36.463   2.686
31246W        W 3660  28.149  32.926   0.857
31247W        W 3661  32.425  34.555   2.363
31248W        W 3662  12.333   2.742  11.461
31249W        W 3663  43.382  38.404  13.993
31250W        W 3664  10.184  44.364  13.846
31251W        W 3665  23.671  34.512   4.239
31252W        W 3666  19.688  23.665   0.244
31253W        W 3667   7.824   4.891  13.003
31254W        W 3668  37.901  20.734   4.164
31255W        W 3669  22.022  38.922  11.941
31256W        W 3670   6.234  32.114  13.890
31257W        W 3671  15.241  32.080   0.447
31258W        W 3672  39.330  40.868   2.194
31259W        W 3673  40.537  28.163   1.442
31260W        W 3674  44.849  21.050  13.533
31261W        W 3675  12.720  36.891   2.334
31262W        W 3676  31.599   0.945  13.322
31263W        W 3677  24.700   0.816  14.418
31264W        W 3678  35.020  24.980  10.543
31265W        W 3679  35.860  12.823  14.433
31266W        W 3680  17.267  30.097  11.935
31267W        W 3681   8.171  16.242  12.375
31268W        W 3682  40.506  31.043   4.230
31269W        W 3683  30.419   4.277  14.502
31270W        W 3684  32.439  32.012  12.926
31271W        W 3685  18.128  28.470  14.382
31272W        W 3686  17.735  38.440   1.843
31273W        W 3687  21.557  38.055   1.761
31274W        W 3688  41.361  32.938   4.642
31275W        W 3689  14.614  37.865   0.441
31276W        W 3690   0.847  42.809   1.858
31277W        W 3691  35.032   7.254   0.255
31278W        W 3692  39.867  34.505  11.451
31279W        W 3693   2.959  43.863  13.349
31280W        W 3694   9.202  37.080   3.274
31281W        W 3695   4.366  30.930  12.906
31282W        W 3696  37.034  10.787   0.407
31283W        W 3697  37.988  34.491  11.511
31284W        W 3698  14.284   3.859  14.951
31285W        W 3699  41.848  35.477   4.204
31286W        W 3700   1.343  20.193  13.045
31287W        W 3701  33.059   4.292  13.910
31288W        W 3702  44.982  39.536  10.993
31289W        W 3703  28.052  17.771  14.989
31290W        W 3704   3.851   4.918  10.516
31291W        W 3705   6.388  13.345   2.751
31292W        W 3706  38.881  17.287   4.126
31293W        W 3707  41.881  29.138   2.302
31294W        W 3708  18.713  40.390  12.931
31295W        W 3709  27.601   0.315  10.919
31296W        W 3710  21.556   7.841  10.989
31297W        W 3711  30.412  23.229   0.276
31298W        W 3712  26.059  28.529   3.681
31299W        W 3713   3.895  15.822   2.330
31300W        W 3714  17.134  33.947  11.894
31301W        W 3715   7.878  23.006  10.974
31302W        W 3716  20.640  41.945  14.974
31303W        W 3717  24.065  37.538  12.566
31304W        W 3718   4.761  16.127  14.930
31305W        W 3719  29.961  26.166   0.792
31306W        W 3720  44.869  30.479   4.329
31307W        W 3721  19.743   7.769   4.769
31308W        W 3722  31.952  39.970  12.548
31309W        W 3723  24.508  20.636   0.937
31310W        W 3724  18.103  10.724  11.868
31311W        W 3725  25.996  31.608  14.836
31312W        W 3726  42.337  41.823  14.982
31313W        W 3727  21.112   0.840   4.247
31314W        W 3728  33.490  38.416   2.373
31315W        W 3729  36.571  41.786  12.894
31316W        W 3730  23.196  42.834  14.392
31317W        W 3731  28.147  40.522   5.155
31318W        W 3732   9.665  44.303  12.878
31319W        W 3733  21.596  24.673   4.138
31320W        W 3734  31.026   8.406  12.445
31321W        W 3735  42.837   6.362   3.666
31322W        W 3736  31.475  18.142  10.439
31323W        W 3737  36.979  19.051  10.929
31324W        W 3738  17.689  16.166  12.963
31325W        W 3739  35.438  26.506   5.220
31326W        W 3740  16.196  11.761  12.853
31327W        W 3741  40.451  24.208   0.341
31328W        W 3742  25.114  41.790   1.831
31329W        W 3743  39.944  27.041   2.774
31330W        W 3744  35.040  42.811   5.166
31331W        W 3745  19.056  34.572  10.442
31332W        W 3746  44.298  18.216   1.358
31333W        W 3747  28.019  14.818  11.081
31334W        W 3748  44.873   0.821   4.282
31335W        W 3749  26.039  19.066  12.427
31336W        W 3750   1.439  28.110   2.283
31337W        W 3751  38.882   0.841  12.499
31338W        W 3752  22.588  35.007   1.925
31339W        W 3753  26.076  32.497   4.338
31340W        W 3754  21.202   7.744  11.094
31341W        W 3755  41.890  15.793   2.668
31342W        W 3756  37.877  35.075   5.145
31343W        W 3757  32.077  31.553  13.852
31344W        W 3758  30.954   7.809   3.150
31345W        W 3759   0.298  44.824  13.517
31346W        W 3760  14.654  11.309   2.719
31347W        W 3761  15.286  22.658   0.849
31348W        W 3762  36.441   8.316  13.372
31349W        W 3763  38.483  22.128  13.395
31350W        W 3764   9.331  19.203  12.475
31351W        W 3765  16.665  20.061  10.540
31352W        W 3766  24.020  35.374   4.783
31353W        W 3767  34.935  31.951   2.244
31354W        W 3768  18.249  20.582   4.161
31355W        W 3769  30.487  16.165   3.252
31356W        W 3770  17.174  23.660   3.644
31357W        W 3771  23.500   0.884  11.433
31358W        W 3772  32.525  29.558   3.360
31359W        W 3773  39.468   1.382   3.177
31360W        W 3774   4.804  14.097   0.892
31361W        W 3775   9.694  37.988   0.467
31362W        W 3776  34.448   7.403  12.974
31363W        W 3777  28.154  40.823  10.929
31364W        W 3778  20.169  22.190  13.526
31365W        W 3779  25.659  34.878   9.968
31366W        W 3780  21.732   0.467   2.762
31367W        W 3781  29.451  33.922  13.830
31368W        W 3782  35.074  25.118   1.751
31369W        W 3783  15.807  21.054   3.810
31370W        W 3784  30.457  25.003   0.949
31371W        W 3785  10.348  14.778   2.789
31372W        W 3786   4.805  11.800   3.223
31373W        W 3787  39.473   2.744  14.763
31374W        W 3788   6.730  37.562  13.872
31375W        W 3789  13.321   0.870  13.459
31376W        W 3790  15.212  40.859  12.043
31377W        W 3791  19.748  17.301   1.301
31378W        W 3792  15.580  23.658  13.838
31379W        W 3793  31.928  30.915  10.626
31380W        W 3794  16.300   7.327  13.947
31381W        W 3795  21.687  25.998   4.268
31382W        W 3796  28.166  28.605  12.397
31383W        W 3797   3.359  16.629  14.429
31384W        W 3798   6.916  44.831   2.412
31385W        W 3799  19.683  42.820  10.485
31386W        W 3800  35.966   1.280  11.922
31387W        W 3801   7.870  20.546   0.331
31388W        W 3802  13.607  18.090  11.036
31389W        W 3803  13.776  27.550   2.882
31390W        W 3804  21.703  12.266  13.355
31391W        W 3805  31.453  24.686  13.503
31392W        W 3806  16.720  39.937   4.288
31393W        W 3807  37.030  34.420   2.709
31394W        W 3808   8.302  23.560  14.031
31395W        W 3809   6.794   0.456  13.538
31396W        W 3810  42.502   9.219  14.454
31397W        W 3811  40.529  25.679  13.327
31398W        W 3812  17.135   6.858  14.918
31399W        W 3813  23.535  14.225  10.599
31400W        W 3814  19.065  33.524  12.481
31401W        W 3815  31.511   0.954   4.170
31402W        W 3816  32.515  22.196  10.941
31403W        W 3817  31.493  38.364   2.322
31404W        W 3818  11.641  14.745  12.569
31405W        W 3819  17.066   4.768   9.996
31406W        W 3820  11.720  35.853  13.879
31407W        W 3821   5.694  22.540  11.523
31408W        W 3822  43.003  36.907  11.595
31409W        W 3823  42.016  28.019  10.454
31410W        W 3824  29.638  34.412  10.628
31411W        W 3825  26.673  43.879   2.279
31412W        W 3826   8.787  16.227   4.250
31413W        W 3827  21.610  43.298   4.789
31414W        W 3828  38.865  14.194  12.096
31415W        W 3829  36.393  11.841  10.520
31416W        W 3830   5.910  39.848   2.797
31417W        W 3831  28.474   0.390  14.454
31418W        W 3832  32.921   8.726   5.290
31419W        W 3833  17.065   4.845  14.889
31420W        W 3834  25.508  25.011  11.068
31421W        W 3835   1.925  39.436   4.120
31422W        W 3836  30.068  26.608   0.751
31423W        W 3837  42.334  41.387   2.273
31424W        W 3838  35.020  34.552   0.842
31425W        W 3839  35.601  10.262   0.924
31426W        W 3840  27.160  16.087   3.166
31427W        W 3841  43.381  25.973   2.796
31428W        W 3842  37.856  13.204   4.698
31429W        W 3843   6.369  31.508   1.446
31430W        W 3844  36.093  28.602   3.349
31431W        W 3845  43.000  12.168   3.245
31432W        W 3846  23.699   6.185  14.458
31433W        W 3847  42.366  18.137  11.902
31434W        W 3848  42.365   1.331   3.795
31435W        W 3849  19.147  24.536   4.122
31436W        W 3850  16.271  38.350   2.409
31437W        W 3851  32.507   6.373   2.264
31438W        W 3852  21.521  30.930   1.808
31439W        W 3853  23.529   1.748   4.337
31440W        W 3854  37.059  42.499  14.493
31441W        W 3855  19.066  40.393  14.995
31442W        W 3856   5.289  26.663   9.669
31443W        W 3857  20.133   2.270  14.378
31444W        W 3858  19.640   3.882  11.107
31445W        W 3859   4.439  11.299   0.761
31446W        W 3860   5.320  30.578   0.834
31447W        W 3861   6.915  39.490   1.846
31448W        W 3862  21.107  24.984   4.633
31449W        W 3863  30.005  42.409   2.825
31450W        W 3864   1.897  29.447  14.467
31451W        W 3865  31.525  38.529  12.503
31452W        W 3866  43.843  19.592   0.246
31453W        W 3867  37.347   5.700  10.405
31454W        W 3868   8.757  34.976  13.313
31455W        W 3869  44.840  36.920   0.483
31456W        W 3870  42.322   4.871  12.454
31457W        W 3871   9.202  36.545   0.375
31458W        W 3872  23.063   2.725  14.943
31459W        W 3873  33.418   0.417  10.529
31460W        W 3874  12.762   9.743  12.006
31461W        W 3875   5.321  23.190   0.762
31462W        W 3876  38.571  41.522  13.887
31463W        W 3877   8.854   4.246  10.026
31464W        W 3878  13.765   2.262  11.099
31465W        W 3879   3.827  18.777   0.786
31466W        W 3880  37.933  39.999  11.591
31467W        W 3881  19.570  19.776   1.910
31468W        W 3882  20.063  21.700  12.535
31469W        W 3883  23.666  10.730  12.494
31470W        W 3884   5.721  31.133  13.524
31471W        W 3885  15.630  27.567  11.903
31472W        W 3886  21.234  19.743   4.298
31473W        W 3887  26.058  40.491  12.094
31474W        W 3888  20.128  20.040  11.375
31475W        W 3889  16.138   8.285  11.028
31476W        W 3890  34.931  16.796  14.504
31477W        W 3891  14.129  24.174   3.642
31478W        W 3892  32.953  17.133  12.567
31479W        W 3893  10.657  43.833   1.931
31480W        W 3894  13.801   8.672   5.085
31481W        W 3895  25.700   8.257   3.329
31482W        W 3896  10.874  38.960  12.092
31483W        W 3897  33.891   7.897   3.310
31484W        W 3898  28.065  19.678  13.548
31485W        W 3899   7.717   0.880   1.775
31486W        W 3900  13.128  17.255   1.387
31487W        W 3901   4.269   7.807  11.600
31488W        W 3902  44.758  16.210  12.001
31489W        W 3903   4.827  22.163   1.409
31490W        W 3904   7.188   5.282   4.239
31491W        W 3905  40.961  42.486   3.868
31492W        W 3906   5.722  26.585   1.874
31493W        W 3907  29.579  39.469   2.888
31494W        W 3908  40.835  35.091  12.931
31495W        W 3909   3.720   2.807  12.953
31496W        W 3910  11.201   3.712   4.223
31497W        W 3911  21.106  31.126   3.354
31498W        W 3912  41.356   9.883   2.359
31499W        W 3913  15.237  23.552   3.700
31500W        W 3914  43.914  33.554   3.773
31501W        W 3915  28.116   0.772   4.759
31502W        W 3916  13.174  25.485   0.807
31503W        W 3917  11.325   6.745   2.383
31504W        W 3918  26.549  34.535  12.837
31505W        W 3919  25.140  17.104  11.000
31506W        W 3920  24.485   1.476   0.915
31507W        W 3921  16.152  11.243   3.763
31508W        W 3922  22.686  17.269  11.575
31509W        W 3923  21.591  30.928  12.881
31510W        W 3924  15.192  22.154  13.046
31511W        W 3925  36.470  27.954  13.933
31512W        W 3926   8.820  14.701   3.244
31513W        W 3927   3.818   1.884   2.314
31514W        W 3928  31.417  38.871  11.872
31515W        W 3929  10.848  42.322  10.929
31516W        W 3930   2.330  12.294  13.483
31517W        W 3931  14.324  14.790   3.367
31518W        W 3932   6.726   3.758  14.377
31519W        W 3933  38.942   6.867   1.905
31520W        W 3934  34.898  19.773  11.587
31521W        W 3935   7.743  36.909  14.965
31522W        W 3936  29.169  25.146  12.459
31523W        W 3937   8.387  34.435  12.883
31524W        W 3938  25.690  33.061   4.312
31525W        W 3939   5.770  11.866  12.971
31526W        W 3940  31.454  24.523   4.764
31527W        W 3941  23.731  10.283   0.323
31528W        W 3942  21.643   2.298   4.733
31529W        W 3943  29.613  28.669   3.733
31530W        W 3944  15.645   5.247  11.409
31531W        W 3945  40.869   2.392   2.315
31532W        W 3946  44.489   8.881  13.958
31533W        W 3947  32.590  30.022   1.407
31534W        W 3948  13.722  30.653   3.793
31535W        W 3949  25.643  39.852   2.827
31536W        W 3950  14.773  24.698   3.647
31537W        W 3951  16.765  40.472  14.337
31538W        W 3952   9.267  40.962  11.586
31539W        W 3953  42.365  21.551  13.534
31540W        W 3954  41.036  26.998  10.465
31541W        W 3955  37.039  21.158  14.308
31542W        W 3956  33.412   5.825   9.969
31543W        W 3957  23.212  36.583  11.535
31544W        W 3958  31.056  11.666  14.429
31545W        W 3959  41.848  35.917  12.513
31546W        W 3960   4.754   8.263   0.799
31547W        W 3961  30.441  16.717   1.921
31548W        W 3962  42.878  24.664   1.276
31549W        W 3963  11.852  43.356  14.427
31550W        W 3964  20.202  14.731  12.374
31551W        W 3965  34.448   2.905   3.837
31552W        W 3966  37.993  22.193  10.484
31553W        W 3967  40.020  30.574  14.325
31554W        W 3968   3.411  42.808  13.353
31555W        W 3969   9.299  39.376   4.766
31556W        W 3970   0.294   0.377  13.927
31557W        W 3971  36.908  41.517   2.669
31558W        W 3972  41.865  23.077  11.926
31559W        W 3973  25.488   1.424   9.531
31560W        W 3974   0.471  27.078   2.878
31561W        W 3975  26.206  36.876  14.473
31562W        W 3976  43.013  35.019  12.551
31563W        W 3977   9.245  10.854  13.482
31564W        W 3978  23.690  17.263   2.265
31565W        W 3979  41.417  43.954   1.237
31566W        W 3980  22.034  30.912  14.859
31567W        W 3981  24.485  31.420   1.370
31568W        W 3982  28.456  21.057   1.288
31569W        W 3983  12.621  36.005  14.378
31570W        W 3984  21.577  39.887   3.819
31571W        W 3985  13.749  44.970  13.831
31572W        W 3986  13.794  44.378   0.905
31573W        W 3987  34.382   7.213   1.436
31574W        W 3988  29.161  18.608  14.813
31575W        W 3989  26.072   3.818   3.265
31576W        W 3990  32.899  18.225   2.244
31577W        W 3991  39.914   1.482  13.922
31578W        W 3992   4.864   5.824   9.940
31579W        W 3993  30.936   9.859   0.281
31580W        W 3994  22.654  39.852  10.411
31581W        W 3995  44.786  19.589   1.928
31582W        W 3996  37.834  39.472  12.525
31583W        W 3997  27.940  25.525  13.507
31584W        W 3998   1.262  22.602  14.954
31585W        W 3999  17.766  23.534  12.084
31586W        W 4000  38.402  24.180   0.337
31587W        W 4001   4.931  11.718   2.400
31588W        W 4002  24.052  32.932  13.438
31589W        W 4003  43.958  14.818  11.454
31590W        W 4004  28.011  35.984   0.359
31591W        W 4005  22.089   8.682   2.318
31592W        W 4006  15.679  20.673  14.316
31593W        W 4007   9.218  44.862   2.269
31594W        W 4008   4.821   5.871  10.524
31595W        W 4009   0.324  34.407   2.374
31596W        W 4010   5.236  26.149  11.411
31597W        W 4011   0.454  40.988   4.281
31598W        W 4012  31.482  15.312   4.632
31599W        W 4013  38.905  17.656   2.193
31600W        W 4014   1.465  40.004   4.115
31601W        W 4015  40.023  16.584  14.441
31602W        W 4016  28.475  41.919   4.819
31603W        W 4017  35.436  23.515   3.271
31604W        W 4018   3.421  39.871   1.816
31605W        W 4019  24.182   7.717   2.861
31606W        W 4020  24.092  27.132  10.925
31607W        W 4021  29.649   1.444  14.293
31608W        W 4022   5.925  16.685   2.796
31609W        W 4023  19.771  31.007   4.353
31610W        W 4024  38.406  32.618   2.263
31611W        W 4025  30.953  39.375   2.381
31612W        W 4026   9.787  42.507   4.209
31613W        W 4027  36.474  11.843  14.403
31614W        W 4028  13.759  12.733   0.763
31615W        W 4029  12.616  36.978  13.034
31616W        W 4030  36.077  41.865   1.780
31617W        W 4031   4.881   8.739   3.379
31618W        W 4032   1.814  28.657   3.730
31619W        W 4033  25.686  25.579  12.555
31620W        W 4034   8.270  30.086  12.920
31621W        W 4035  30.131  20.716   3.719
31622W        W 4036  34.874  29.552  12.526
31623W        W 4037  26.543   2.765   3.193
31624W        W 4038  14.613  31.421   4.791
31625W        W 4039  18.693  18.758   3.340
31626W        W 4040  15.596  21.709   4.156
31627W        W 4041  13.622  35.866   3.174
31628W        W 4042  30.620  17.656   3.301
31629W        W 4043   4.411   2.349   1.265
31630W        W 4044   8.183  10.632  13.364
31631W        W 4045  34.448  12.816  13.953
31632W        W 4046  28.620  40.816  14.023
31633W        W 4047  27.983   6.338   4.160
31634W        W 4048  10.788   0.972  10.933
31635W        W 4049  33.478  39.929  12.087
31636W        W 4050  38.433   7.666  11.437
31637W        W 4051   0.916   6.215  11.380
31638W        W 4052  15.683  34.426   1.776
31639W        W 4053  16.083  18.581   3.785
31640W        W 4054  43.770  23.011   4.338
31641W        W 4055  44.293  31.116  11.451
31642W        W 4056  29.061  40.023  14.425
31643W        W 4057  18.278   3.772  14.011
31644W        W 4058  28.129  36.581   1.367
31645W        W 4059  39.000  35.986   4.760
31646W        W 4060  39.387  22.661   4.637
31647W        W 4061  30.624  35.932   0.336
31648W        W 4062   7.257   4.218  11.405
31649W        W 4063  23.590  24.181  11.589
31650W        W 4064  35.481  28.101  13.433
31651W        W 4065  20.523  22.153   2.755
31652W        W 4066  13.723  41.524   1.892
31653W        W 4067  22.673  38.979  11.548
31654W        W 4068  28.452  16.134  10.643
31655W        W 4069  16.093  43.316  13.861
31656W        W 4070   7.256  10.320  11.045
31657W        W 4071  20.092  35.058   2.270
31658W        W 4072  31.560  21.535  12.825
31659W        W 4073  23.559  31.045   3.841
31660W        W 4074  21.678  26.047  13.938
31661W        W 4075  10.745  38.449  14.780
31662W        W 4076  14.253   4.214  11.459
31663W        W 4077  30.546  26.049   3.704
31664W        W 4078  42.951   1.736   4.247
31665W        W 4079  28.110  23.159   0.780
31666W        W 4080   2.942   0.897   3.282
31667W        W 4081  16.269  42.472  10.624
31668W        W 4082  23.639  25.594   0.308
31669W        W 4083   0.822  14.588   4.813
31670W        W 4084  22.112  40.335   2.382
31671W        W 4085  29.635  22.050   2.794
31672W        W 4086  41.413   2.461  11.858
31673W        W 4087   9.382  29.028  14.344
31674W        W 4088  29.668  20.061   3.363
31675W        W 4089   2.359  16.255   0.447
31676W        W 4090  35.569  25.118   1.237
31677W        W 4091  15.627  20.530   1.887
31678W        W 4092  15.594   9.730  12.994
31679W        W 4093  19.262  15.810   4.294
31680W        W 4094  37.427   0.903   2.782
31681W        W 4095  16.801  21.263  14.022
31682W        W 4096  41.847  34.542   2.332
31683W        W 4097   7.725  40.534  13.984
31684W        W 4098   6.919  25.006  12.936
31685W        W 4099  25.491  18.069  10.039
31686W        W 4100   1.335   1.339  13.009
31687W        W 4101  30.099  43.503  13.399
31688W        W 4102   0.459  19.042  12.370
31689W        W 4103  13.328   0.861  13.854
31690W        W 4104   3.306   0.805   3.753
31691W        W 4105  22.149   1.833  11.015
31692W        W 4106  16.197   3.882   2.788
31693W        W 4107   5.423  35.422   0.376
31694W        W 4108   3.710  40.948   3.671
31695W        W 4109  29.563  11.372  11.463
31696W        W 4110   4.761  22.718   1.781
31697W        W 4111  35.018   0.358   3.259
31698W        W 4112  22.105  41.843   2.714
31699W        W 4113   1.438  42.332  14.469
31700W        W 4114  16.747  16.583   4.313
31701W        W 4115   0.921   3.444   4.810
31702W        W 4116  23.146   1.880  12.434
31703W        W 4117  39.927  18.736  13.942
31704W        W 4118  26.137   6.371  12.027
31705W        W 4119  17.726  15.644  11.373
31706W        W 4120  26.197  25.198  14.775
31707W        W 4121  19.273   1.935   4.711
31708W        W 4122  37.345  40.422   0.455
31709W        W 4123  16.252  43.274   1.741
31710W        W 4124  10.281  22.736   2.366
31711W        W 4125  15.656  15.138   3.189
31712W        W 4126  36.898  23.056   0.288
31713W        W 4127   1.759  33.964  14.401
31714W        W 4128  13.169  12.613   0.769
31715W        W 4129  19.745  32.431  14.472
31716W        W 4130   4.419  40.313   2.872
31717W        W 4131  23.658  19.123   3.712
31718W        W 4132  26.618  19.621   3.330
31719W        W 4133  20.198   4.259   1.312
31720W        W 4134  13.229  10.856  14.007
31721W        W 4135  37.056  29.140   2.234
31722W        W 4136  37.401   9.171   1.810
31723W        W 4137  38.436  39.408  11.923
31724W        W 4138  17.720  11.741  10.608
31725W        W 4139   2.744  42.932  12.540
31726W        W 4140  34.084  28.654  13.330
31727W        W 4141  14.112  15.671   1.274
31728W        W 4142  44.893  44.824  13.541
31729W        W 4143   2.752  12.168   0.317
31730W        W 4144  42.821  17.681  14.922
31731W        W 4145   3.248  11.710   3.329
31732W        W 4146  34.421  15.804   3.259
31733W        W 4147  32.422  18.073  11.004
31734W        W 4148  11.159  31.610   0.785
31735W        W 4149  29.161  36.074  13.409
31736W        W 4150   3.251  41.406  11.044
31737W        W 4151  30.085  22.094  13.044
31738W        W 4152  35.414  32.447  12.901
31739W        W 4153  24.072  27.979  11.013
31740W        W 4154  29.131   6.712   3.768
31741W        W 4155   4.890   4.253   2.300
31742W        W 4156  19.598  17.212   2.301
31743W        W 4157  36.013  15.312   0.267
31744W        W 4158   7.792   0.300   3.643
31745W        W 4159   9.287  19.778   4.250
31746W        W 4160  24.069   4.268  11.991
31747W        W 4161  19.649  39.880   3.647
31748W        W 4162  32.087  30.439   1.907
31749W        W 4163  10.344  43.973  14.458
31750W        W 4164  13.322   5.873  14.297
31751W        W 4165  30.001  42.996  10.933
31752W        W 4166  29.147  24.127   4.164
31753W        W 4167  33.922   6.218  13.882
31754W        W 4168  39.957  16.153   0.280
31755W        W 4169   9.826  43.427  11.435
31756W        W 4170  13.805  17.627   0.890
31757W        W 4171  13.606   2.243  10.471
31758W        W 4172  37.977  34.579  13.481
31759W        W 4173   3.444  34.042   0.809
31760W        W 4174  28.567  42.380  12.952
31761W        W 4175  39.329  36.489   1.281
31762W        W 4176  10.346  29.970  14.982
31763W        W 4177  19.147  17.624  11.479
31764W        W 4178  21.232  38.479   1.410
31765W        W 4179  24.591  21.609  12.983
31766W        W 4180  10.841  15.094  12.039
31767W        W 4181  33.584  33.064  13.965
31768W        W 4182  17.634  43.988   1.309
31769W        W 4183  18.590   3.953  12.016
31770W        W 4184  31.127  40.489   1.697
31771W        W 4185  25.527  27.002   3.638
31772W        W 4186  10.737  40.039   3.353
31773W        W 4187   7.809   0.868  11.482
31774W        W 4188  38.403   1.921   2.723
31775W        W 4189  34.899  29.453   1.904
31776W        W 4190   1.738  15.817  14.990
31777W        W 4191   9.673   9.312   0.931
31778W        W 4192  16.254  14.771   3.668
31779W        W 4193  25.112  18.626   2.216
31780W        W 4194  42.957  42.778  12.429
31781W        W 4195  34.911  36.399   0.785
31782W        W 4196  25.061  32.562   0.293
31783W        W 4197  20.170  42.902   4.661
31784W        W 4198  18.717  30.624  10.602
31785W        W 4199  15.112  25.525  11.919
31786W        W 4200  18.651  38.440   3.826
31787W        W 4201  35.490  41.966   1.221
31788W        W 4202   3.217   6.796   2.343
31789W        W 4203  39.938  34.893   3.357
31790W        W 4204  32.055  33.602   5.094
31791W        W 4205  27.162   2.938   4.159
31792W        W 4206   3.263  44.835   3.850
31793W        W 4207  39.419  26.493  14.981
31794W        W 4208  29.643  16.747  11.492
31795W        W 4209  23.027  14.154  11.402
31796W        W 4210  41.321  29.455  13.797
31797W        W 4211  39.394  39.009   4.766
31798W        W 4212  25.657  11.701   2.889
31799W        W 4213  42.855  43.929   3.665
31800W        W 4214  28.664  18.171   4.141
31801W        W 4215  26.693   2.445  10.504
31802W        W 4216  19.647  17.218   1.881
31803W        W 4217  43.020  17.078  12.559
31804W        W 4218  17.577   1.791  12.961
31805W        W 4219  44.972  16.177  10.946
31806W        W 4220  27.574  22.088  13.969
31807W        W 4221  12.159  19.083  13.903
31808W        W 4222  35.948  10.652  10.550
31809W        W 4223  39.558   5.900  10.559
31810W        W 4224  19.049  25.126   3.297
31811W        W 4225  26.195  27.495   1.295
31812W        W 4226  40.902  44.285   4.162
31813W        W 4227   1.824  43.440   4.816
31814W        W 4228  44.430  21.582  11.496
31815W        W 4229  36.563  11.132   1.385
31816W        W 4230   8.719  10.305   4.242
31817W        W 4231  35.467  28.133  11.459
31818W        W 4232  17.624  14.732   1.858
31819W        W 4233   9.277  44.469  10.509
31820W        W 4234  11.234   4.851   1.916
31821W        W 4235   3.273  34.608  10.559
31822W        W 4236  16.714  42.923  13.396
31823W        W 4237  16.296   0.452   1.274
31824W        W 4238  23.090  15.802   4.179
31825W        W 4239  40.512  25.680  13.060
31826W        W 4240   9.383  12.738   4.213
31827W        W 4241   1.847   1.771   0.755
31828W        W 4242   0.482  19.176   3.780
31829W        W 4243   9.860  23.989   3.382
31830W        W 4244  25.566  17.562   4.685
31831W        W 4245   9.765  30.445  10.911
31832W        W 4246  20.073  24.020  14.916
31833W        W 4247  10.652  26.517   1.395
31834W        W 4248  18.683  35.487  13.943
31835W        W 4249  14.661  39.472  11.513
31836W        W 4250  34.500   3.316   3.812
31837W        W 4251  44.337  19.669   1.260
31838W        W 4252   5.414  36.847  14.009
31839W        W 4253  26.043  17.120  11.576
31840W        W 4254  17.211  38.467   3.709
31841W        W 4255  24.574  29.923  12.401
31842W        W 4256  35.986   7.202   0.265
31843W        W 4257   9.214  29.440   0.452
31844W        W 4258  28.451  15.289   4.828
31845W        W 4259  26.955   0.826   1.382
31846W        W 4260  34.515  13.659  14.890
31847W        W 4261  35.457  28.071  10.628
31848W        W 4262  13.743  29.632  13.465
31849W        W 4263  32.427   2.921   0.783
31850W        W 4264  19.643   9.706  12.529
31851W        W 4265  23.221  26.068   2.406
31852W        W 4266  24.625  20.740   4.619
31853W        W 4267  38.450   1.942   4.352
31854W        W 4268  29.078  41.962   4.676
31855W        W 4269   6.308  10.741   2.323
31856W        W 4270   1.420  41.844  11.949
31857W        W 4271   0.254  26.643  12.557
31858W        W 4272  29.590   3.410   1.261
31859W        W 4273  33.591  26.674   0.365
31860W        W 4274  13.148  25.554  11.885
31861W        W 4275  25.085  29.055   3.682
31862W        W 4276  42.784  34.496  14.313
31863W        W 4277  17.750   3.374  14.379
31864W        W 4278  32.049  39.813  12.037
31865W        W 4279  30.122  33.043   1.439
31866W        W 4280  29.989  30.504   4.605
31867W        W 4281  32.032  10.323   2.832
31868W        W 4282  34.452  21.703  14.804
31869W        W 4283  27.997  16.271  14.810
31870W        W 4284  31.434   9.347   4.212
31871W        W 4285  10.203  21.556  13.348
31872W        W 4286  16.591  17.287  12.072
31873W        W 4287  12.843  38.959  11.527
31874W        W 4288   7.369   3.758   1.411
31875W        W 4289  39.393  37.059  13.374
31876W        W 4290  36.493  17.659   1.315
31877W        W 4291   2.396   3.233  10.643
31878W        W 4292   0.281  40.855  12.031
31879W        W 4293  39.379  16.218   4.331
31880W        W 4294   2.458  38.397  14.383
31881W        W 4295   9.168  24.643  10.497
31882W        W 4296  14.682  21.086   3.170
31883W        W 4297  21.152  11.286   4.231
31884W        W 4298  36.586  14.160  10.110
31885W        W 4299  14.807  44.755   0.314
31886W        W 4300  22.223  31.105  13.828
31887W        W 4301  29.034  18.700  13.440
31888W        W 4302  41.439  30.136   4.346
31889W        W 4303   9.677   6.703   0.407
31890W        W 4304  17.092  11.181  11.060
31891W        W 4305  30.117   1.975   2.211
31892W        W 4306  38.841  34.103  11.867
31893W        W 4307  13.666  38.840   4.299
31894W        W 4308  24.176   1.805   4.755
31895W        W 4309  22.510  15.686   3.682
31896W        W 4310   4.904  20.658   3.212
31897W        W 4311  27.981  33.522  13.920
31898W        W 4312  42.314  20.717   1.255
31899W        W 4313  13.181   6.880   1.344
31900W        W 4314   4.273  27.025   2.296
31901W        W 4315  25.077   6.379   2.734
31902W        W 4316  42.293  29.657  13.996
31903W        W 4317  36.029  30.520  11.574
31904W        W 4318  30.560  34.923   0.381
31905W        W 4319  36.074   5.703  12.015
31906W        W 4320  32.637  10.717   1.365
31907W        W 4321   9.264  41.466  13.937
31908W        W 4322  20.261   1.459  11.487
31909W        W 4323   9.833  10.218  10.985
31910W        W 4324  34.484  44.770   2.320
31911W        W 4325  43.897  28.975   0.871
31912W        W 4326  32.441  12.744  14.830
31913W        W 4327  36.517  33.052  10.589
31914W        W 4328   4.342   5.422   2.756
31915W        W 4329  22.745  35.912   3.240
31916W        W 4330  38.438  24.708   1.887
31917W        W 4331  41.914  30.616   3.727
31918W        W 4332  19.775  17.136   2.776
31919W        W 4333  22.584  37.065   4.826
31920W        W 4334  12.236  23.006  12.976
31921W        W 4335  25.190  36.978   1.413
31922W        W 4336  22.226  39.828   3.166
31923W        W 4337  32.127  21.043  10.984
31924W        W 4338  44.260  12.822   1.837
31925W        W 4339   1.764  17.795   2.314
31926W        W 4340  40.427  30.102  14.886
31927W        W 4341  15.650   3.411  12.954
31928W        W 4342  25.037  12.634  13.056
31929W        W 4343  24.056   6.211  12.054
31930W        W 4344  13.107  32.034  10.574
31931W        W 4345  36.364  33.050  14.826
31932W        W 4346  38.032  32.533   5.637
31933W        W 4347  30.075  36.369   4.626
31934W        W 4348   1.314  30.005  11.497
31935W        W 4349  42.486  42.439  11.486
31936W        W 4350  19.726  37.955   0.330
31937W        W 4351  40.363   6.908  11.900
31938W        W 4352  30.119   5.918   1.714
31939W        W 4353  23.629   0.254   2.382
31940W        W 4354  26.654   6.755  12.991
31941W        W 4355  32.520  19.754  13.456
31942W        W 4356  34.550  36.983   4.129
31943W        W 4357  23.533  43.011  14.767
31944W        W 4358   5.751  30.954   4.802
31945W        W 4359  42.309  33.125   1.414
31946W        W 4360  23.615  19.163  12.993
31947W        W 4361  11.334  10.831   4.770
31948W        W 4362  40.361  35.087   0.457
31949W        W 4363  30.162  15.671  11.883
31950W        W 4364  35.042  25.017   2.248
31951W        W 4365  20.756   0.470   2.268
31952W        W 4366  11.231  33.075   3.735
31953W        W 4367  12.733  20.037  14.017
31954W        W 4368  35.858  44.500  11.559
31955W        W 4369  29.617  10.856   0.481
31956W        W 4370  12.645  14.655  11.124
31957W        W 4371   1.396  36.351   1.261
31958W        W 4372  23.153  30.049   2.301
31959W        W 4373  11.715  28.637   4.340
31960W        W 4374  13.166   1.801  12.998
31961W        W 4375  29.439  28.052  13.436
31962W        W 4376  24.055  41.333   4.293
31963W        W 4377  26.014   7.217   0.955
31964W        W 4378  17.785  36.485   4.684
31965W        W 4379  16.253   7.300  13.427
31966W        W 4380  12.175  11.657  14.361
31967W        W 4381  27.514   5.268   2.748
31968W        W 4382   3.410  30.568  10.573
31969W        W 4383  44.307  38.056   3.806
31970W        W 4384  30.524  28.987   4.132
31971W        W 4385  26.017  44.884   3.334
31972W        W 4386  11.865  30.003  12.042
31973W        W 4387  17.662  44.968   4.197
31974W        W 4388   6.704  19.661   2.407
31975W        W 4389   2.318  12.801   5.253
31976W        W 4390  19.681  44.910   5.740
31977W        W 4391  24.027  16.088   2.195
31978W        W 4392  29.080  42.968   3.331
31979W        W 4393  14.799  23.635  11.120
31980W        W 4394  15.233   8.341  10.131
31981W        W 4395   8.792  10.768  10.496
31982W        W 4396  29.111  20.660   2.321
31983W        W 4397  28.169  14.334  14.822
31984W        W 4398  16.723  40.334  13.424
31985W        W 4399   2.416   6.369  11.558
31986W        W 4400  43.300   4.319  11.437
31987W        W 4401   6.851  26.571   3.749
31988W        W 4402   4.763  33.945   3.185
31989W        W 4403  36.068  24.078   4.257
31990W        W 4404  21.152  31.942  11.986
31991W        W 4405  23.097  36.078   0.736
31992W        W 4406  14.639   4.857   4.335
31993W        W 4407  28.003  44.935   2.204
31994W        W 4408  30.548  15.642  14.410
31995W        W 4409   0.369  12.333  10.510
31996W        W 4410  28.597  29.554   1.334
31997W        W 4411  38.048  25.028   3.341
31998W        W 4412  12.181   4.214  12.467
31999W        W 4413  14.141   4.917  12.448
32000W        W 4414  13.184  33.585  11.518
32001W        W 4415  44.974   2.836  14.982
32002W        W 4416  33.039  28.622  11.377
32003W        W 4417  34.887  37.881   2.707
32004W        W 4418   2.763   8.245   4.237
32005W        W 4419   5.288  12.721   5.740
32006W        W 4420   5.433  22.636   0.440
32007W        W 4421  41.917  41.881  13.488
32008W        W 4422   4.405  41.929   4.648
32009W        W 4423  44.869   4.426   3.651
32010W        W 4424  27.112   5.889  12.043
32011W        W 4425  33.598   0.260  12.372
32012W        W 4426  33.047  16.223  13.472
32013W        W 4427  36.544  27.621  13.492
32014W        W 4428  37.926  21.168  13.345
32015W        W 4429  33.943  24.559   1.923
32016W        W 4430   1.972  34.926   4.318
32017W        W 4431  12.739  24.685   3.857
32018W        W 4432  38.011  35.445  14.326
32019W        W 4433  30.945  36.477  10.591
32020W        W 4434   8.711   8.392   1.769
32021W        W 4435  12.854  20.576  10.992
32022W        W 4436  20.123  25.021   4.710
32023W        W 4437  42.426  19.704  13.387
32024W        W 4438  18.053  28.030   0.455
32025W        W 4439  25.587  13.303   2.846
32026W        W 4440  28.134  16.157   4.143
32027W        W 4441  17.608  24.185  14.823
32028W        W 4442  44.434  37.348   1.725
32029W        W 4443  20.628  40.904   1.924
32030W        W 4444  39.996  14.305   1.421
32031W        W 4445  17.588   8.697   1.807
32032W        W 4446  17.636  19.540  11.066
32033W        W 4447  38.447  18.173  13.350
32034W        W 4448  20.085  37.420  14.980
32035W        W 4449   8.192  27.118   0.785
32036W        W 4450   7.689  29.982   3.749
32037W        W 4451  24.151  28.440   0.467
32038W        W 4452  14.816  26.654   1.428
32039W        W 4453  11.635  36.916  12.830
32040W        W 4454  15.180  10.224   3.340
32041W        W 4455  25.188  14.327   0.803
32042W        W 4456   7.805  21.103   0.403
32043W        W 4457  44.376  34.092  13.037
32044W        W 4458  28.969  30.416   2.865
32045W        W 4459  29.565  16.750  13.913
32046W        W 4460   9.862  12.218  12.934
32047W        W 4461  33.992  41.035   2.807
32048W        W 4462  42.866  16.130   3.230
32049W        W 4463  40.817  30.107  12.989
32050W        W 4464   9.771  35.045   4.758
32051W        W 4465   0.441   3.913   4.720
32052W        W 4466   2.947   4.770   0.838
32053W        W 4467   8.859  17.649   1.229
32054W        W 4468  42.981  40.888  10.483
32055W        W 4469   8.759  21.679   3.753
32056W        W 4470  28.073  15.222  13.929
32057W        W 4471  38.562  32.985   4.624
32058W        W 4472  35.084  16.734   2.841
32059W        W 4473  41.027  29.085   2.303
32060W        W 4474  36.049  35.417   4.140
32061W        W 4475  32.948  11.320   1.335
32062W        W 4476  11.241  17.302   1.799
32063W        W 4477  38.068   5.921   3.234
32064W        W 4478   8.804  20.164   4.810
32065W        W 4479   4.314  21.727   3.274
32066W        W 4480   3.245  21.513  10.539
32067W        W 4481  31.972  10.338   2.192
32068W        W 4482  43.276   7.280   2.216
32069W        W 4483  15.717  12.166   2.245
32070W        W 4484  10.164   5.230   1.864
32071W        W 4485  39.344   6.900  11.898
32072W        W 4486  28.161  17.197  13.508
32073W        W 4487  35.515  15.612   3.847
32074W        W 4488  15.647  26.471  14.506
32075W        W 4489  40.010  13.343  14.423
32076W        W 4490   4.725   3.336   3.820
32077W        W 4491   2.281  44.949   4.320
32078W        W 4492   9.879  34.582   3.165
32079W        W 4493  17.183  35.045   1.737
32080W        W 4494   1.973   0.864   2.196
32081W        W 4495  35.998  19.094   4.225
32082W        W 4496  13.244   9.809  14.901
32083W        W 4497   5.885   3.739  12.346
32084W        W 4498  22.192  44.759  13.063
32085W        W 4499   5.312  38.823   1.279
32086W        W 4500  39.507   3.877  13.419
32087W        W 4501  18.715  14.777  14.984
32088W        W 4502  40.913  33.105   0.866
32089W        W 4503  13.785  11.717  12.529
32090W        W 4504  12.263   2.310  14.329
32091W        W 4505  21.026  35.365   2.683
32092W        W 4506  10.796   3.851  10.639
32093W        W 4507   9.843  26.566   2.209
32094W        W 4508  30.641  13.191   3.281
32095W        W 4509  20.160  43.307  12.530
32096W        W 4510  21.644   9.371  13.409
32097W        W 4511   3.933  32.013   2.880
32098W        W 4512  37.879  23.219   3.852
32099W        W 4513   9.876  16.750  13.498
32100W        W 4514  30.951  16.271   1.827
32101W        W 4515  44.805  38.493   1.848
32102W        W 4516  10.866   1.940  10.637
32103W        W 4517  12.361  44.410  11.049
32104W        W 4518  29.059  39.392  12.048
32105W        W 4519  42.318  43.837   0.415
32106W        W 4520  20.707   1.754   3.230
32107W        W 4521  26.127   9.336   1.227
32108W        W 4522   6.280  31.060  11.107
32109W        W 4523  42.322  19.700  12.081
32110W        W 4524  27.577  44.807  12.903
32111W        W 4525  37.950  44.780  11.527
32112W        W 4526  25.113  32.519   3.804
32113W        W 4527  42.927  25.134  12.458
32114W        W 4528  12.611  13.642   3.386
32115W        W 4529  30.575   5.775  14.969
32116W        W 4530  30.577  31.535  12.825
32117W        W 4531  30.567  41.527   1.333
32118W        W 4532   1.338  35.931  12.072
32119W        W 4533  27.550  14.789   3.651
32120W        W 4534  15.683  24.198   0.306
32121W        W 4535   2.450  34.511  12.531
32122W        W 4536  39.896  38.074   2.850
32123W        W 4537  39.319  34.405   0.474
32124W        W 4538  41.789  10.206   2.780
32125W        W 4539   0.835  23.173  14.433
32126W        W 4540  29.084   5.435  14.276
32127W        W 4541  10.845  39.972   2.812
32128W        W 4542  17.174  29.604  11.892
32129W        W 4543   6.706  20.537   3.316
32130W        W 4544  34.454  29.482  13.355
32131W        W 4545  37.860  23.202  13.330
32132W        W 4546   0.780  34.590   1.401
32133W        W 4547  40.440  27.056   1.261
32134W        W 4548  41.041  17.606   2.345
32135W        W 4549  28.451  32.062   3.700
32136W        W 4550  24.220  35.489  14.918
32137W        W 4551  16.656  39.377   2.859
32138W        W 4552  24.675   8.173   1.710
32139W        W 4553  37.553   7.416  13.915
32140W        W 4554  35.549  39.006   0.358
32141W        W 4555  36.472  21.128  14.300
32142W        W 4556  12.134   8.664   3.213
32143W        W 4557  12.215  30.148  13.037
32144W        W 4558  23.534  18.664  13.985
32145W        W 4559  33.470   5.874  14.956
32146W        W 4560  12.345   6.830  12.952
32147W        W 4561  40.979  42.372   2.223
32148W        W 4562   4.281  19.242  10.550
32149W        W 4563  28.441  16.668   1.904
32150W        W 4564  19.550   0.900  13.356
32151W        W 4565  30.118  43.334  12.471
32152W        W 4566  13.119  28.472   4.303
32153W        W 4567  12.261  29.502   1.374
32154W        W 4568  39.815   8.312  11.510
32155W        W 4569  36.060  17.303   3.168
32156W        W 4570   7.786   6.263  11.594
32157W        W 4571  35.415   6.844   3.729
32158W        W 4572  11.339  16.117   3.374
32159W        W 4573  14.733  34.596  12.340
32160W        W 4574  10.676  44.275  10.450
32161W        W 4575   4.734  34.958  12.499
32162W        W 4576  44.807  43.434   3.770
32163W        W 4577  14.593  11.829  11.548
32164W        W 4578  30.128   5.277  11.558
32165W        W 4579  20.048  25.546  14.775
32166W        W 4580  27.683  31.151  11.015
32167W        W 4581  34.575   3.439  10.405
32168W        W 4582  32.565  27.677   2.768
32169W        W 4583  27.675  25.040  11.922
32170W        W 4584  10.823  23.610  14.758
32171W        W 4585  23.210  33.879  12.869
32172W        W 4586  17.636   9.859  11.872
32173W        W 4587  26.027   6.812  12.436
32174W        W 4588  38.015  19.053  13.485
32175W        W 4589  30.022   8.381  13.877
32176W        W 4590  12.239  33.946  11.610
32177W        W 4591  12.749  14.185  13.525
32178W        W 4592  36.957  35.464   1.444
32179W        W 4593   4.341  13.121   4.827
32180W        W 4594  14.796  11.143   0.916
32181W        W 4595  25.171  36.443  10.912
32182W        W 4596  20.196   2.853  14.351
32183W        W 4597   2.879  15.713  11.515
32184W        W 4598  25.590  27.983  12.058
32185W        W 4599   6.243  29.583   4.598
32186W        W 4600   7.802   8.755   2.900
32187W        W 4601  27.539  19.092   3.860
32188W        W 4602   2.360  27.645   0.876
32189W        W 4603  15.645   2.758  13.856
32190W        W 4604   7.271  36.056   2.876
32191W        W 4605  43.897  36.006  10.935
32192W        W 4606  37.074  20.672   0.247
32193W        W 4607   8.186  44.783  14.487
32194W        W 4608  32.537  34.919   3.228
32195W        W 4609  16.113   1.459  13.953
32196W        W 4610  23.684  44.447  13.984
32197W        W 4611  44.392  41.470   4.233
32198W        W 4612   8.233  27.512   4.192
32199W        W 4613  14.673  34.577   0.728
32200W        W 4614  12.649  10.242  14.318
32201W        W 4615  21.242  10.228   0.926
32202W        W 4616  23.624  15.164   9.541
32203W        W 4617  32.900  42.289  12.903
32204W        W 4618  38.918  16.074   2.233
32205W        W 4619   0.839   7.668  12.516
32206W        W 4620   0.804  31.634   0.462
32207W        W 4621  24.657  37.435  14.366
32208W        W 4622  30.606   7.837   4.766
32209W        W 4623  17.239  31.991   4.342
32210W        W 4624  24.718  28.119  12.548
32211W        W 4625  11.695  22.171  13.368
32212W        W 4626  12.343   3.811  14.414
32213W        W 4627  23.182  33.432  11.484
32214W        W 4628  20.644  33.066   0.866
32215W        W 4629   3.367  22.243  13.323
32216W        W 4630  28.627  44.406  14.830
32217W        W 4631  22.117  26.678  13.021
32218W        W 4632  11.742  41.876  12.415
32219W        W 4633  23.045  15.774   4.746
32220W        W 4634  22.600  25.680  14.790
32221W        W 4635   1.371  15.615   0.879
32222W        W 4636   7.405  16.315   2.872
32223W        W 4637  43.343  44.445  13.890
32224W        W 4638  19.645  16.174   3.752
32225W        W 4639   5.894   1.428   4.715
32226W        W 4640   1.809   8.173  12.952
32227W        W 4641  20.661  39.348   0.433
32228W        W 4642  42.006  13.645   2.678
32229W        W 4643   4.839   4.874   2.355
32230W        W 4644  40.006  41.867   3.643
32231W        W 4645  44.882  18.583   3.871
32232W        W 4646  33.428   9.786   1.369
32233W        W 4647  24.204   5.841  12.505
32234W        W 4648  31.469  30.542   4.706
32235W        W 4649  14.116  38.516  12.520
32236W        W 4650  29.978  25.650  12.368
32237W        W 4651  21.227   8.205   0.345
32238W        W 4652  23.712  18.288   5.307
32239W        W 4653   4.397  12.716   0.346
32240W        W 4654  35.562  31.466  13.861
32241W        W 4655   4.884  38.380   2.700
32242W        W 4656  29.100  33.090  14.440
32243W        W 4657  14.768  26.155   3.829
32244W        W 4658  33.538  26.513  10.133
32245W        W 4659  44.797  27.009  12.983
32246W        W 4660  44.862  23.620   1.868
32247W        W 4661  41.887  38.897   1.424
32248W        W 4662  24.633  37.562   2.700
32249W        W 4663  27.537  20.613  14.392
32250W        W 4664  21.120   7.738  14.481
32251W        W 4665  32.945  36.446  14.293
32252W        W 4666  33.495  31.478   2.853
32253W        W 4667  10.327  12.805   5.227
32254W        W 4668  35.041  36.442   1.403
32255W        W 4669  22.508  30.161   1.935
32256W        W 4670  19.097  43.450   0.757
32257W        W 4671  27.991  42.387   2.347
32258W        W 4672  40.405  13.324   3.186
32259W        W 4673  31.411  33.123   2.278
32260W        W 4674   4.897  32.529   0.834
32261W        W 4675   6.422  25.497  10.511
32262W        W 4676  43.311  39.481   4.704
32263W        W 4677  28.556  26.181   0.423
32264W        W 4678   9.202  17.307  11.104
32265W        W 4679  22.617   3.276  14.401
32266W        W 4680  43.845  13.773   2.211
32267W        W 4681  30.009   1.257   3.811
32268W        W 4682  23.098  38.521   1.832
32269W        W 4683  20.602  30.086   0.736
32270W        W 4684   4.896  32.542   4.324
32271W        W 4685   5.758  24.548   4.130
32272W        W 4686  19.709   9.793  14.961
32273W        W 4687  19.180  28.018   0.275
32274W        W 4688  11.687  10.331   5.107
32275W        W 4689  30.989   8.326   2.809
32276W        W 4690  39.029  29.929  10.474
32277W        W 4691  44.458  23.008  14.304
32278W        W 4692  25.503  19.679   4.246
32279W        W 4693  44.780  13.635   1.841
32280W        W 4694  41.414  23.146  12.368
32281W        W 4695  42.492  36.366  13.018
32282W        W 4696  18.137  43.873  10.939
32283W        W 4697   4.317  43.346  12.578
32284W        W 4698   9.314  23.514   1.911
32285W        W 4699  29.134  21.236  11.435
32286W        W 4700  28.038  27.136  12.866
32287W        W 4701  17.751  35.938   2.851
32288W        W 4702  26.168  10.792  14.397
32289W        W 4703  33.493  12.850  14.310
32290W        W 4704  44.935  32.414  13.417
32291W        W 4705  13.755  23.005   3.640
32292W        W 4706  20.647  31.004   4.308
32293W        W 4707  16.655   3.809  10.511
32294W        W 4708   5.244  43.505  14.487
32295W        W 4709   9.780  39.469  12.888
32296W        W 4710   9.718  21.179  12.514
32297W        W 4711  16.780  44.330   0.771
32298W        W 4712   2.432  27.548  14.864
32299W        W 4713  43.784  38.997  11.014
32300W        W 4714  28.164  44.323  10.064
32301W        W 4715  27.545  43.491  11.989
32302W        W 4716  14.598  13.290   1.277
32303W        W 4717  20.606  10.190  14.982
32304W        W 4718  39.844   7.819   4.169
32305W        W 4719  43.020   8.407  11.995
32306W        W 4720  15.627  37.380  11.006
32307W        W 4721  40.409  13.652   3.274
32308W        W 4722  41.982  12.349  10.425
32309W        W 4723  28.448  35.996  12.433
32310W        W 4724   0.326   8.693  11.011
32311W        W 4725  17.567  23.580   0.251
32312W        W 4726  15.650  27.538  13.413
32313W        W 4727   6.276  18.563  13.037
32314W        W 4728   8.323  38.930  10.512
32315W        W 4729  32.139  36.954   0.949
32316W        W 4730  24.716  36.364  13.446
32317W        W 4731  17.271   5.817   2.810
32318W        W 4732  29.025  16.711  13.839
32319W        W 4733  27.489   2.878  14.860
32320W        W 4734  40.014  34.539   4.261
32321W        W 4735  19.089  25.635   2.331
32322W        W 4736  40.953   3.787   0.872
32323W        W 4737  13.253  16.732  14.414
32324W        W 4738  39.855  15.152  12.458
32325W        W 4739  30.071  22.503   0.335
32326W        W 4740  34.085  33.551  10.992
32327W        W 4741  43.953  22.694   1.316
32328W        W 4742  35.563  10.348  13.934
32329W        W 4743  25.143   2.420   5.165
32330W        W 4744  36.387  25.981  12.481
32331W        W 4745   3.417  42.833  12.865
32332W        W 4746   3.334   0.830   4.218
32333W        W 4747  42.404  37.882  14.501
32334W        W 4748  17.169  33.024   0.447
32335W        W 4749  22.047  43.005   0.443
32336W        W 4750  17.118  25.110   2.901
32337W        W 4751   6.288  11.785   0.735
32338W        W 4752  25.550   0.807  14.902
32339W        W 4753  27.027  30.423   2.856
32340W        W 4754   2.364  19.181  13.925
32341W        W 4755  25.622  28.520   3.822
32342W        W 4756  34.062  31.045   2.826
32343W        W 4757   9.719   4.247  11.868
32344W        W 4758  37.577  38.949  13.310
32345W        W 4759  25.021  36.369  14.979
32346W        W 4760  44.867   9.725   0.286
32347W        W 4761  10.367  33.918  12.015
32348W        W 4762  36.433  34.437   2.375
32349W        W 4763   0.350  16.728   2.854
32350W        W 4764  34.431  44.416  10.093
32351W        W 4765  26.580  25.174  13.001
32352W        W 4766  23.998  24.056   3.663
32353W        W 4767   2.413  32.600  13.843
32354W        W 4768  11.243   3.424  12.503
32355W        W 4769  25.047  13.257   0.359
32356W        W 4770  36.097  19.612   2.341
32357W        W 4771  35.989   3.755  11.530
32358W        W 4772   8.831  20.693   0.790
32359W        W 4773   7.311  16.631  14.884
32360W        W 4774  11.187  11.644  14.906
32361W        W 4775  13.135  20.137  14.510
32362W        W 4776  30.517  13.722   3.823
32363W        W 4777  22.620   7.710   1.261
32364W        W 4778   0.810  37.390  12.425
32365W        W 4779  16.670  14.707  14.296
32366W        W 4780  24.694  43.506   1.445
32367W        W 4781  44.484  12.740  13.915
32368W        W 4782   1.914  29.518   4.753
32369W        W 4783  24.716  31.414  11.530
32370W        W 4784  44.320  31.586   4.202
32371W        W 4785  11.236  42.933  13.330
32372W        W 4786  42.466  22.647  12.050
32373W        W 4787  36.939  37.050  11.566
32374W        W 4788  17.665  32.489   2.801
32375W        W 4789  34.001  21.107  12.540
32376W        W 4790  10.793  15.731   2.870
32377W        W 4791  32.508   5.369  10.924
32378W        W 4792  27.010  37.552   0.958
32379W        W 4793   1.413  15.215   0.854
32380W        W 4794  32.972  24.002   4.175
32381W        W 4795  15.116   2.454   1.710
32382W        W 4796  12.732  36.032  13.851
32383W        W 4797   7.797   1.877  12.045
32384W        W 4798  39.996  30.478  10.997
32385W        W 4799  30.550  42.881  14.379
32386W        W 4800   9.219   6.370   2.398
32387W        W 4801  25.165   0.486  13.836
32388W        W 4802  24.137  13.781   2.865
32389W        W 4803  44.971  27.512  14.921
32390W        W 4804  40.509  28.139  12.515
32391W        W 4805  34.038  34.984   1.286
32392W        W 4806  22.685  26.661  10.096
32393W        W 4807  30.652  22.570  13.392
32394W        W 4808  44.337  37.409  11.886
32395W        W 4809  42.490  23.633   2.685
32396W        W 4810  23.175  21.248  14.026
32397W        W 4811   8.331  27.098   1.450
32398W        W 4812  33.535   4.345   0.453
32399W        W 4813  24.104  32.129   1.759
32400W        W 4814   1.315   8.818   2.737
32401W        W 4815  22.043  18.743  11.948
32402W        W 4816  43.286  32.506  14.885
32403W        W 4817   4.389  14.718   2.877
32404W        W 4818  36.405  31.951   1.240
32405W        W 4819   3.862  29.086   2.768
32406W        W 4820   3.874  26.952  13.916
32407W        W 4821  28.056  19.265   2.665
32408W        W 4822  24.596   5.301  12.017
32409W        W 4823  17.066  14.672  14.384
32410W        W 4824  10.330  37.910  14.866
32411W        W 4825  19.756  26.686   1.253
32412W        W 4826  42.461  43.378   1.358
32413W        W 4827  37.054   9.651  10.419
32414W        W 4828  34.447  44.873   1.437
32415W        W 4829  42.998  28.957   2.663
32416W        W 4830   4.941  29.459   0.852
32417W        W 4831  31.922  28.029   0.766
32418W        W 4832  41.359  23.712   2.713
32419W        W 4833  36.362   1.288  10.980
32420W        W 4834  29.075  34.503  12.912
32421W        W 4835   3.385  26.508  14.364
32422W        W 4836   3.339  41.465   3.155
32423W        W 4837  27.119  19.137  12.854
32424W        W 4838   4.406   9.341  11.855
32425W        W 4839   8.769  33.561  14.810
32426W        W 4840  11.705   9.361   3.361
32427W        W 4841  17.573  29.646  12.577
32428W        W 4842  22.727  28.110  13.050
32429W        W 4843   0.882  35.939  14.859
32430W        W 4844   8.260  19.777  13.525
32431W        W 4845   0.262  23.574  10.543
32432W        W 4846  39.349  21.738   0.807
32433W        W 4847  43.407  39.039  13.906
32434W        W 4848  32.967  31.096  12.962
32435W        W 4849  39.834  41.795   0.380
32436W        W 4850  37.532   1.875  11.493
32437W        W 4851  41.324  38.016   2.195
32438W        W 4852  28.578  18.775  12.829
32439W        W 4853  13.337   4.249   3.634
32440W        W 4854  37.581  38.466   3.768
32441W        W 4855  10.272  26.519   1.790
32442W        W 4856  17.705   8.317   0.393
32443W        W 4857  28.068   8.724  11.603
32444W        W 4858   6.827   6.813   0.388
32445W        W 4859   7.890  36.415  14.795
32446W        W 4860   3.376  30.587   2.256
32447W        W 4861   8.659   7.216   4.686
32448W        W 4862  25.006  30.062   1.272
32449W        W 4863   2.924  31.132  13.501
32450W        W 4864  40.923   6.264   2.684
32451W        W 4865  29.134  39.954  10.887
32452W        W 4866  44.404  28.068  14.508
32453W        W 4867  14.783  42.002   3.158
32454W        W 4868  37.455  39.550  14.415
32455W        W 4869   2.808  33.567   2.379
32456W        W 4870   9.181  29.578   3.720
32457W        W 4871  10.244  10.249  14.414
32458W        W 4872  26.031  43.987  10.111
32459W        W 4873  42.881  40.455  12.053
32460W        W 4874  44.475  33.994  14.280
32461W        W 4875  42.449  24.704  10.454
32462W        W 4876   5.372  13.818   3.868
32463W        W 4877   1.479  41.824  13.836
32464W        W 4878  15.706  38.040   0.314
32465W        W 4879  29.040  43.829  12.094
32466W        W 4880  37.356  33.081  11.447
32467W        W 4881  34.587  35.498   2.872
32468W        W 4882  20.531   4.871  13.902
32469W        W 4883  28.629  41.910   0.872
32470W        W 4884  43.372  26.077   3.722
32471W        W 4885  29.599  32.078   1.412
32472W        W 4886  20.558   2.912   2.745
32473W        W 4887  20.581  36.479   0.833
32474W        W 4888  18.629  15.799   5.295
32475W        W 4889  38.915  26.074   1.324
32476W        W 4890  23.121  42.370  12.845
32477W        W 4891  19.167  16.617  11.465
32478W        W 4892  17.647  22.687   3.323
32479W        W 4893   6.687   5.423   4.249
32480W        W 4894  17.183  10.818  12.579
32481W        W 4895  12.117   1.976  14.315
32482W        W 4896  10.658  11.682   4.599
32483W        W 4897  43.862  43.991  13.978
32484W        W 4898  42.965  27.113  12.864
32485W        W 4899   2.430  42.966   1.353
32486W        W 4900  25.576  18.171   0.903
32487W        W 4901  33.942  37.061  14.507
32488W        W 4902  33.058  10.839   1.886
32489W        W 4903  21.241  20.183   1.790
32490W        W 4904  41.366  34.932   1.343
32491W        W 4905  30.966  22.588   1.413
32492W        W 4906  41.391  37.458   5.167
32493W        W 4907  42.434  10.757   4.805
32494W        W 4908  18.662  21.252   0.936
32495W        W 4909   3.913  26.044  12.944
32496W        W 4910   3.226  27.535  12.070
32497W        W 4911  22.607  29.653  13.398
32498W        W 4912  41.803  35.925   4.598
32499W        W 4913  28.504  31.497   3.712
32500W        W 4914  23.656  39.436  11.904
32501W        W 4915   9.853  14.619   4.634
32502W        W 4916  22.135  42.365   3.268
32503W        W 4917  16.296  34.893   4.163
32504W        W 4918   7.690  12.812   2.275
32505W        W 4919  33.988   9.697  13.055
32506W        W 4920   5.833  19.555  14.787
32507W        W 4921  10.819  29.438   4.665
32508W        W 4922  25.482  39.401  13.949
32509W        W 4923  17.722  20.101  10.572
32510W        W 4924   6.232  19.635  14.921
32511W        W 4925  43.456  16.095   0.783
32512W        W 4926  16.124  26.640   3.382
32513W        W 4927   2.294   2.921   2.348
32514W        W 4928  44.812  39.811  10.963
32515W        W 4929  22.590  27.070  13.855
32516W        W 4930  39.867  30.119  11.541
32517W        W 4931  12.732  28.153  14.428
32518W        W 4932  20.688  44.441  14.966
32519W        W 4933  30.917  38.367   0.246
32520W        W 4934   0.458  14.300   0.752
32521W        W 4935  26.028  38.362   2.312
32522W        W 4936  24.141  14.284   1.442
32523W        W 4937  10.680  34.019  14.005
32524W        W 4938   7.837  42.502  13.014
32525W        W 4939  38.380  40.868   3.220
32526W        W 4940  16.123   5.197  10.598
32527W        W 4941   7.698  20.151  11.895
32528W        W 4942  16.655  14.725   3.354
32529W        W 4943   2.246  41.803  12.943
32530W        W 4944   0.347  19.741  14.958
32531W        W 4945  37.986  35.056  13.024
32532W        W 4946  19.651   5.842   4.787
32533W        W 4947   1.851  31.600  14.838
32534W        W 4948  34.906  29.135   0.773
32535W        W 4949  44.281  32.399   3.849
32536W        W 4950  31.625  15.801   3.315
32537W        W 4951  18.268  10.735  10.961
32538W        W 4952   6.351  40.455  13.820
32539W        W 4953  42.488  15.657  10.956
32540W        W 4954  43.299  30.980   2.380
32541W        W 4955  34.415  34.100   4.839
32542W        W 4956  23.230  13.700   4.655
32543W        W 4957  40.470   5.362   2.275
32544W        W 4958   5.921  13.741  12.926
32545W        W 4959  32.013  11.708   3.681
32546W        W 4960  13.651   9.790  11.982
32547W        W 4961  31.924  35.916  14.445
32548W        W 4962  25.678  14.238  11.437
32549W        W 4963   5.194  43.442   1.272
32550W        W 4964  31.493   7.286  14.822
32551W        W 4965   2.919  44.950   2.834
32552W        W 4966   8.300   4.928   4.820
32553W        W 4967  28.666  41.429  12.444
32554W        W 4968   8.688  28.609  10.609
32555W        W 4969  29.450  10.714   4.302
32556W        W 4970  26.206  21.745   4.271
32557W        W 4971  44.390   5.890  14.776
32558W        W 4972  26.204  41.982   2.770
32559W        W 4973  30.003  17.144  11.552
32560W        W 4974   1.421  11.744  11.941
32561W        W 4975  16.733  15.253  11.049
32562W        W 4976  44.772  27.008  11.047
32563W        W 4977   7.378  32.395  14.507
32564W        W 4978  13.650   1.263  10.496
32565W        W 4979  27.955  16.247  10.951
32566W        W 4980   1.734   4.846  11.380
32567W        W 4981  36.043  33.398   5.150
32568W        W 4982   9.831  39.453   3.781
32569W        W 4983  13.109  30.981  14.848
32570W        W 4984  36.888  33.067  12.439
32571W        W 4985  26.172  13.263  11.015
32572W        W 4986  26.676  14.283   1.792
32573W        W 4987  37.502  31.927  10.918
32574W        W 4988  41.854   3.713  11.577
32575W        W 4989  41.363  23.705   3.185
32576W        W 4990  26.572  19.082   4.819
32577W        W 4991  21.542  13.654  12.573
32578W        W 4992  21.164  33.464   0.379
32579W        W 4993  14.747  22.577  12.981
32580W        W 4994  25.486  38.437   0.378
32581W        W 4995  30.982  31.475   3.271
32582W        W 4996   9.655   6.801  10.612
32583W        W 4997  36.920  37.405   2.816
32584W        W 4998  25.021   6.365   3.146
32585W        W 4999  36.364  13.668   2.344
32586W        W 5000  23.216  38.017   4.136
32587W        W 5001  43.896  18.263  10.529
32588W        W 5002  18.770  43.429   0.790
32589W        W 5003  36.355   3.788  11.457
32590W        W 5004  24.592  27.076  12.547
32591W        W 5005  30.534   7.193  14.032
32592W        W 5006  18.600   7.679   1.706
32593W        W 5007  38.965  24.516  14.385
32594W        W 5008  32.083   0.269   4.792
32595W        W 5009  43.299   4.317   0.408
32596W        W 5010  25.670   4.400  10.554
32597W        W 5011  37.435  14.719   3.204
32598W        W 5012   9.877  28.603  14.860
32599W        W 5013  38.982  31.982  12.884
32600W        W 5014   3.954   0.951  14.896
32601W        W 5015  22.213  36.421  12.953
32602W        W 5016   4.207   5.345   3.360
32603W        W 5017  30.455  42.922   3.383
32604W        W 5018  10.676  11.626  12.041
32605W        W 5019  32.500  33.111  11.513
32606W        W 5020  31.411  12.795  13.986
32607W        W 5021  33.541  34.978   1.825
32608W        W 5022  37.880  20.596   4.780
32609W        W 5023  11.180  21.206   2.672
32610W        W 5024  20.703   4.394   0.839
32611W        W 5025  27.668  38.518   3.670
32612W        W 5026  12.316  40.402   0.439
32613W        W 5027  41.349  20.087   4.715
32614W        W 5028  30.912  26.158   1.345
32615W        W 5029  12.785  18.560  11.415
32616W        W 5030  26.699  29.039   2.295
32617W        W 5031   5.822  35.506   1.386
32618W        W 5032  35.067  14.328  13.536
32619W        W 5033  12.615  13.267   4.612
32620W        W 5034  12.223  26.655   3.310
32621W        W 5035   8.839   0.980   1.767
32622W        W 5036  42.781  33.390  10.578
32623W        W 5037  37.389   6.744   1.832
32624W        W 5038  28.938  43.008  10.458
32625W        W 5039  21.252  27.597   4.657
32626W        W 5040  36.944  42.358  13.921
32627W        W 5041  43.342   3.224   4.703
32628W        W 5042  11.729  30.936   2.220
32629W        W 5043  17.175  32.544   0.811
32630W        W 5044   8.340  18.739   3.798
32631W        W 5045  32.918  34.097   1.762
32632W        W 5046   3.925  28.167   3.661
32633W        W 5047   8.318  15.814   2.759
32634W        W 5048   9.808  31.148  11.880
32635W        W 5049   4.297  32.962  13.404
32636W        W 5050  37.434  11.835   4.302
32637W        W 5051   1.459  18.659   4.242
32638W        W 5052  31.917  16.605   4.678
32639W        W 5053   4.737  21.533   4.159
32640W        W 5054  32.924  33.536  12.031
32641W        W 5055  39.900  14.757  14.976
32642W        W 5056  29.614  26.040  13.457
32643W        W 5057  27.537  40.033  12.945
32644W        W 5058   7.396  32.138  10.449
32645W        W 5059  42.444  10.271  11.002
32646W        W 5060  28.594  34.392  14.797
32647W        W 5061  25.683  37.039  12.493
32648W        W 5062   4.866  15.299   0.472
32649W        W 5063  25.202  42.970  11.457
32650W        W 5064  28.016  29.114   0.460
32651W        W 5065  24.223   1.839  13.959
32652W        W 5066  20.577   0.978   5.188
32653W        W 5067   1.259  13.707   1.319
32654W        W 5068  32.628  44.460  11.111
32655W        W 5069  20.599   5.841  12.920
32656W        W 5070  18.657  34.876  12.906
32657W        W 5071  33.484   0.373  14.921
32658W        W 5072  22.536  13.309  12.870
32659W        W 5073  26.616   9.150   2.365
32660W        W 5074  30.437  27.576  11.076
32661W        W 5075  37.558  15.164  11.464
32662W        W 5076  34.437  25.099  12.403
32663W        W 5077  36.501  26.673   1.843
32664W        W 5078  16.716  21.144   4.258
32665W        W 5079  31.406  29.084   2.872
32666W        W 5080  21.100  20.053   4.821
32667W        W 5081  12.342  30.156  14.381
32668W        W 5082   9.701  37.451  10.115
32669W        W 5083   3.430  43.938  13.003
32670W        W 5084  36.461  23.002  10.542
32671W        W 5085  18.771   2.430  11.921
32672W        W 5086   3.302  43.497   3.382
32673W        W 5087  32.905   5.821  11.418
32674W        W 5088  12.741  11.733   0.928
32675W        W 5089  41.988  19.715  12.358
32676W        W 5090   5.788  12.751   0.365
32677W        W 5091  43.390   3.911  10.519
32678W        W 5092  43.952  21.664   1.337
32679W        W 5093   1.417  24.557   3.214
32680W        W 5094   6.896  20.710   3.795
32681W        W 5095  23.570  36.566   0.370
32682W        W 5096  40.816  22.224  11.462
32683W        W 5097  19.621  13.140   1.928
32684W        W 5098   3.847   0.787   2.414
32685W        W 5099   8.217  26.045   3.858
32686W        W 5100  36.965  41.418   3.320
32687W        W 5101  34.544  14.731  10.431
32688W        W 5102  24.714  40.809   2.788
32689W        W 5103  17.192  20.583  10.539
32690W        W 5104  35.392  11.744   4.316
32691W        W 5105  42.402  15.707   0.729
32692W        W 5106   8.167  24.720  14.382
32693W        W 5107  20.553  42.290  12.500
32694W        W 5108   8.378  36.542  12.922
32695W        W 5109  34.978  38.913  11.450
32696W        W 5110  34.930  44.926   3.359
32697W        W 5111  21.078  37.835   2.766
32698W        W 5112  31.592  38.888   3.722
32699W        W 5113  23.153   5.271   4.831
32700W        W 5114  28.634  38.326   4.310
32701W        W 5115   8.756  32.885   2.367
32702W        W 5116  32.568  27.991   3.656
32703W        W 5117  15.320   9.240  11.397
32704W        W 5118   8.667  12.250   4.698
32705W        W 5119   1.908  12.337  10.550
32706W        W 5120  10.722  19.624  14.939
32707W        W 5121   2.261  13.207  11.469
32708W        W 5122  42.297  40.973  14.802
32709W        W 5123   0.805   7.281   9.954
32710W        W 5124  34.373  19.670   4.772
32711W        W 5125  33.129  19.716  11.107
32712W        W 5126  37.938   9.888   1.293
32713W        W 5127  34.906  41.832  14.285
32714W        W 5128  10.645  44.936   0.375
32715W        W 5129   8.365  34.923   2.892
32716W        W 5130   5.195  39.821   2.761
32717W        W 5131  40.304   5.284  14.957
32718W        W 5132  41.032  18.692  14.853
32719W        W 5133  35.511  31.010  12.996
32720W        W 5134  35.980  28.579  13.852
32721W        W 5135  13.781   2.404   4.707
32722W        W 5136  13.748  27.530  11.418
32723W        W 5137  31.143  18.239  10.574
32724W        W 5138  26.468  41.887   0.923
32725W        W 5139   8.325  41.391  10.967
32726W        W 5140  28.116  36.536  11.990
32727W        W 5141  11.150   3.294  13.387
32728W        W 5142  34.430  16.725  12.902
32729W        W 5143   3.286  38.993   0.877
32730W        W 5144  10.738  32.890  11.536
32731W        W 5145  25.525  29.618  11.584
32732W        W 5146   0.401  20.154   4.653
32733W        W 5147  27.462  34.075   3.823
32734W        W 5148  39.059  36.532  14.006
32735W        W 5149   0.759  17.794   0.452
32736W        W 5150  15.676  25.010  12.937
32737W        W 5151  35.457   0.443   4.772
32738W        W 5152   6.224  36.934  13.064
32739W        W 5153  29.117   7.682   1.729
32740W        W 5154  10.787  28.629  10.403
32741W        W 5155  23.721   0.911  11.067
32742W        W 5156  11.166   2.339  12.836
32743W        W 5157  35.601  25.504   1.720
32744W        W 5158   5.293   2.939   1.230
32745W        W 5159  14.745  44.392  10.968
32746W        W 5160   2.818  15.713   9.975
32747W        W 5161  19.542  42.453   3.236
32748W        W 5162  40.982   6.875  14.476
32749W        W 5163  42.868   9.310   3.821
32750W        W 5164  31.139  35.863   0.756
32751W        W 5165  36.376   9.352  14.008
32752W        W 5166  13.680  42.898   4.334
32753W        W 5167  20.612   9.208  14.834
32754W        W 5168  16.267   4.227   1.381
32755W        W 5169  15.805  40.368   3.644
32756W        W 5170  21.738  31.608   1.364
32757W        W 5171  37.348  31.543   0.937
32758W        W 5172  38.408  17.660  11.992
32759W        W 5173  15.143  15.149   0.921
32760W        W 5174   3.303  37.889   2.756
32761W        W 5175   2.947   5.399   2.214
32762W        W 5176  18.113  44.876   1.312
32763W        W 5177  42.977  36.516  12.996
32764W        W 5178  41.408  42.971  13.465
32765W        W 5179  13.733   0.932   4.782
32766W        W 5180   0.933  35.387  14.451
32767W        W 5181  29.447  29.457   3.284
32768W        W 5182  12.639  15.102  11.501
32769W        W 5183  18.626  14.689  11.064
32770W        W 5184  41.397  44.942   4.287
32771W        W 5185  13.807   2.268  13.486
32772W        W 5186  27.500  42.344   1.430
32773W        W 5187   9.743   1.930   3.788
32774W        W 5188   8.298   9.266   0.270
32775W        W 5189  25.529  27.476  14.393
32776W        W 5190  40.346   0.295  14.409
32777W        W 5191  37.960  17.129  12.054
32778W        W 5192  10.366   7.692  14.384
32779W        W 5193   2.396  42.807  10.143
32780W        W 5194  21.060  22.586  11.466
32781W        W 5195  32.082   0.939   2.737
32782W        W 5196   0.274  35.894  12.087
32783W        W 5197  30.000  29.143   4.647
32784W        W 5198  25.098  16.084  11.408
32785W        W 5199  32.060   8.841   1.717
32786W        W 5200   1.387  42.804  12.387
32787W        W 5201   6.286   2.775   0.760
32788W        W 5202  36.993   7.244  11.926
32789W        W 5203  17.778  33.383  14.418
32790W        W 5204  15.583  40.004  13.371
32791W        W 5205  11.255  18.565   4.620
32792W        W 5206  34.936  42.008  13.355
32793W        W 5207  27.539   8.819  12.922
32794W        W 5208  30.026  43.932  14.448
32795W        W 5209  22.585   5.817  10.042
32796W        W 5210  18.227  43.425  10.622
32797W        W 5211  40.542  33.129   0.255
32798W        W 5212  36.374  11.725  11.947
32799W        W 5213  19.645  20.602   3.185
32800W        W 5214   8.706  40.843  10.551
32801W        W 5215  42.487  43.904  12.383
32802W        W 5216   5.297  27.632   3.354
32803W        W 5217   6.213  25.673  11.944
32804W        W 5218   5.886  17.181   2.245
32805W        W 5219  31.912  43.013  12.075
32806W        W 5220  32.138   2.926  13.472
32807W        W 5221  16.164  30.450   1.231
32808W        W 5222  18.078   2.399  10.610
32809W        W 5223  11.786  36.575   4.634
32810W        W 5224  23.503  40.935   4.663
32811W        W 5225  19.683  39.996  13.310
32812W        W 5226  20.094  25.077   3.202
32813W        W 5227  33.996  17.203   4.298
32814W        W 5228  37.538  33.438   3.820
32815W        W 5229   0.442   1.955   3.245
32816W        W 5230  36.036   7.289  12.500
32817W        W 5231  12.683  14.229   3.685
32818W        W 5232  26.065  26.477  11.548
32819W        W 5233  29.482  37.553   3.288
32820W        W 5234  18.267  33.972  12.524
32821W        W 5235  19.724   2.940  14.880
32822W        W 5236   3.754  26.110   0.290
32823W        W 5237  31.053  23.145  12.096
32824W        W 5238  18.211  14.329  12.914
32825W        W 5239  13.198  18.682  12.516
32826W        W 5240   5.700  42.293   3.743
32827W        W 5241   1.852  26.600   3.738
32828W        W 5242   8.314  29.430   4.827
32829W        W 5243   6.405  41.880  13.379
32830W        W 5244   3.231  15.788   1.439
32831W        W 5245   3.369  33.600  13.403
32832W        W 5246  38.848  44.260   4.668
32833W        W 5247  42.820  26.461   0.902
32834W        W 5248   7.908  42.001   0.916
32835W        W 5249  10.247  41.815   2.394
32836W        W 5250   0.951   6.311  14.923
32837W        W 5251  32.956  16.726   2.212
32838W        W 5252  43.327  12.181   2.344
32839W        W 5253  42.434  26.994   1.796
32840W        W 5254  32.944  10.270  14.505
32841W        W 5255  21.090  23.084  10.983
32842W        W 5256   1.909   0.910  11.410
32843W        W 5257   3.215  20.609  12.552
32844W        W 5258  41.995  24.008  14.811
32845W        W 5259  25.550   1.839   9.482
32846W        W 5260  39.035  20.257   4.776
32847W        W 5261  31.508  23.506   1.771
32848W        W 5262   0.437  21.531  13.864
32849W        W 5263  10.778  25.585   1.222
32850W        W 5264  27.945  24.075   4.221
32851W        W 5265   0.247  10.339   4.215
32852W        W 5266  17.718  29.618   4.242
32853W        W 5267  28.679  21.047   3.775
32854W        W 5268  41.965  10.377  14.989
32855W        W 5269  37.427   2.289  12.920
32856W        W 5270  38.339   4.852   1.715
32857W        W 5271  20.562  18.170  12.571
32858W        W 5272  26.183  17.272   2.823
32859W        W 5273  29.658  26.070  11.552
32860W        W 5274  34.025  18.192  13.827
32861W        W 5275  11.768  20.544   4.336
32862W        W 5276  36.425  17.755  12.888
32863W        W 5277  13.172  36.551   4.307
32864W        W 5278  10.168  10.192   1.432
32865W        W 5279  18.563  36.037  11.121
32866W        W 5280  22.554  39.878   0.920
32867W        W 5281  24.142  41.916   0.911
32868W        W 5282  14.240  24.182  11.530
32869W        W 5283  26.068   4.384  10.498
32870W        W 5284  28.592   9.674   4.149
32871W        W 5285  34.956   8.828   4.819
32872W        W 5286   0.903   3.902   4.687
32873W        W 5287   1.871  17.208   0.780
32874W        W 5288  17.692   3.244   3.762
32875W        W 5289  43.788  23.611  13.979
32876W        W 5290  17.240  34.493   9.959
32877W        W 5291  21.747  21.236   2.255
32878W        W 5292  21.560  34.467  14.313
32879W        W 5293  41.860  15.644   5.225
32880W        W 5294   9.243  18.188   3.380
32881W        W 5295  17.063  23.040  11.073
32882W        W 5296   3.824  18.647  13.310
32883W        W 5297  33.409  24.990  12.997
32884W        W 5298  10.307  42.021  10.465
32885W        W 5299  14.643  18.051   3.288
32886W        W 5300   4.901   2.306  10.959
32887W        W 5301  33.061  15.265   4.136
32888W        W 5302  20.122  30.137   0.465
32889W        W 5303  39.511  26.071  12.823
32890W        W 5304  24.978  15.175   0.961
32891W        W 5305  27.059  36.476  11.949
32892W        W 5306   6.750   9.158  10.477
32893W        W 5307  35.527  18.072  11.528
32894W        W 5308  12.281  35.383   4.722
32895W        W 5309  24.561  31.606   3.161
32896W        W 5310  18.677  29.527   3.781
32897W        W 5311  31.487  40.872   3.215
32898W        W 5312   9.736  19.231  10.518
32899W        W 5313  11.676  43.281   2.218
32900W        W 5314  27.044  27.112  11.448
32901W        W 5315  33.095  35.041  13.929
32902W        W 5316  28.135  43.892  12.070
32903W        W 5317   7.681  20.221   0.939
32904W        W 5318   3.831  37.042   2.193
32905W        W 5319  29.428  20.029  14.384
32906W        W 5320  10.667   0.855   2.777
32907W        W 5321  24.529   2.262  13.012
32908W        W 5322  14.141  28.126   2.396
32909W        W 5323  11.858  25.196   0.766
32910W        W 5324   1.453   2.362   2.753
32911W        W 5325   1.884  25.073  14.916
32912W        W 5326  11.305   6.764  14.913
32913W        W 5327  22.034   1.296   3.242
32914W        W 5328   1.283  39.422  14.023
32915W        W 5329  40.358  10.749   3.253
32916W        W 5330   3.368   1.788  12.974
32917W        W 5331  11.658   8.331  11.478
32918W        W 5332  36.063  15.276   2.358
32919W        W 5333  17.156  17.269  12.965
32920W        W 5334  36.055  24.130  14.400
32921W        W 5335   8.212   9.798  14.343
32922W        W 5336  44.006  10.798   4.683
32923W        W 5337  35.456  17.224  12.542
32924W        W 5338  13.807   0.893  13.870
32925W        W 5339  20.183  23.026  12.549
32926W        W 5340  18.685   6.274   5.279
32927W        W 5341  33.065   5.747  13.516
32928W        W 5342  14.191   1.474   1.442
32929W        W 5343   8.225  30.434   3.836
32930W        W 5344  32.912  28.467   3.283
32931W        W 5345   9.219   5.275   3.322
32932W        W 5346  42.960  14.137   2.860
32933W        W 5347  38.939   9.255   3.817
32934W        W 5348   0.855  37.527   4.299
32935W        W 5349  10.801  28.670   2.705
32936W        W 5350  29.628  24.207  11.969
32937W        W 5351   3.304  28.163   1.289
32938W        W 5352  11.703  39.914  13.006
32939W        W 5353  35.490   0.492   1.884
32940W        W 5354   9.248  33.062   4.768
32941W        W 5355  40.393  30.018   2.671
32942W        W 5356  23.192  39.456   3.196
32943W        W 5357  16.216  37.035  13.427
32944W        W 5358   2.864  16.270   4.619
32945W        W 5359  36.534  13.310  13.498
32946W        W 5360   4.301   0.284   4.785
32947W        W 5361  21.618  39.534  12.096
32948W        W 5362  22.542  12.330  14.499
32949W        W 5363  27.082  10.340  10.943
32950W        W 5364  21.175  44.828   0.963
32951W        W 5365   5.337  14.603  12.339
32952W        W 5366  13.286  43.963   1.899
32953W        W 5367  36.409  30.147   4.337
32954W        W 5368  35.045   0.306   3.738
32955W        W 5369  18.582  16.314  12.545
32956W        W 5370  12.137   1.924   0.253
32957W        W 5371  20.731   7.410  13.352
32958W        W 5372   9.714  43.011   4.245
32959W        W 5373  43.852  25.188  11.548
32960W        W 5374   9.273   2.412   2.386
32961W        W 5375  22.072  42.882  10.639
32962W        W 5376  30.504   4.809   0.247
32963W        W 5377  14.148  25.963  11.066
32964W        W 5378  32.054   8.275   3.242
32965W        W 5379  25.660  35.555   2.714
32966W        W 5380  41.952  36.526  14.452
32967W        W 5381  36.886  16.812  11.088
32968W        W 5382  42.878  42.978  10.916
32969W        W 5383  24.679  33.033  11.516
32970W        W 5384  15.259  21.074  12.421
32971W        W 5385  22.035  35.465   2.715
32972W        W 5386  20.047   6.257  10.618
32973W        W 5387   4.903  32.137   4.202
32974W        W 5388  31.523  42.391  12.878
32975W        W 5389  32.132   5.305   1.411
32976W        W 5390  40.436  22.530   9.994
32977W        W 5391  38.439  31.123  11.375
32978W        W 5392   0.460  14.115   3.843
32979W        W 5393   4.374  41.905  12.089
32980W        W 5394   4.893  19.655   3.680
32981W        W 5395  37.844  20.217   4.313
32982W        W 5396  24.116  10.158   1.720
32983W        W 5397   3.844  42.308  12.060
32984W        W 5398   5.215   1.309   4.654
32985W        W 5399   3.872  13.799  12.968
32986W        W 5400   7.291  23.002   0.433
32987W        W 5401  11.724  18.276  12.862
32988W        W 5402  14.297  43.360  11.914
32989W        W 5403  12.662  41.512   3.677
32990W        W 5404  10.304  11.286   2.901
32991W        W 5405   4.724  26.101  13.992
32992W        W 5406  30.412   6.791  13.840
32993W        W 5407  34.912  19.700  14.012
32994W        W 5408  42.794  40.312  12.958
32995W        W 5409   5.271   4.852  14.911
32996W        W 5410  10.355  21.218   4.653
32997W        W 5411  34.372  37.500  14.873
32998W        W 5412   1.450  11.161  14.800
32999W        W 5413  36.848  21.140  14.848
33000W        W 5414  23.530  33.956   2.274
33001W        W 5415   9.829  11.148   0.931
33002W        W 5416  25.039  27.545  12.088
33003W        W 5417   5.282  24.600   2.271
33004W        W 5418  10.224   0.926  11.517
33005W        W 5419  41.368  26.068  11.080
33006W        W 5420   6.782  27.536  14.443
33007W        W 5421  15.769   6.750  11.551
33008W        W 5422  43.356   5.308  13.466
33009W        W 5423  21.644  22.062  10.411
33010W        W 5424  26.571  33.057  11.944
33011W        W 5425  22.574  37.986  11.025
33012W        W 5426  26.671  35.551   2.824
33013W        W 5427  23.590  27.005   4.189
33014W        W 5428  21.741  39.539   1.871
33015W        W 5429  14.315  19.577  11.594
33016W        W 5430  12.317   4.815   0.870
33017W        W 5431   4.707  30.101  14.366
33018W        W 5432  12.713  40.380  13.507
33019W        W 5433  36.951  38.441   1.695
33020W        W 5434   6.784  34.050   4.603
33021W        W 5435  38.961  16.671   3.728
33022W        W 5436   5.848  32.950  13.333
33023W        W 5437   5.344  44.293  11.538
33024W        W 5438  13.257  18.165   0.326
33025W        W 5439  25.689  41.890   1.280
33026W        W 5440  11.742  44.344   2.352
33027W        W 5441  23.652  19.173   2.202
33028W        W 5442  28.141  23.177   1.253
33029W        W 5443  11.287  29.665  14.974
33030W        W 5444  40.304  32.049  12.907
33031W        W 5445  27.130  19.649   4.719
33032W        W 5446   3.226  15.677  11.577
33033W        W 5447   6.796  38.508   3.149
33034W        W 5448   9.278  20.064  11.600
33035W        W 5449  24.091  22.208  12.565
33036W        W 5450  26.655  19.145   2.305
33037W        W 5451  35.597  32.994   3.180
33038W        W 5452  11.188  25.628   2.226
33039W        W 5453  37.034   4.929  11.498
33040W        W 5454  41.298  44.355  11.483
33041W        W 5455  18.706   7.790   1.330
33042W        W 5456  34.440  27.941   4.785
33043W        W 5457  16.180  23.657   1.254
33044W        W 5458   7.779  25.590   4.646
33045W        W 5459  13.735  41.787  14.812
33046W        W 5460  40.882  11.300  14.291
33047W        W 5461  29.160  28.568  13.962
33048W        W 5462   2.945   4.393  14.775
33049W        W 5463  10.728  22.593  13.338
33050W        W 5464  40.828   9.227   1.801
33051W        W 5465  28.662   6.362   4.816
33052W        W 5466   1.880   8.339   4.225
33053W        W 5467  18.731   2.915   1.244
33054W        W 5468  15.634  18.610   3.683
33055W        W 5469  29.113  19.624  14.417
33056W        W 5470   8.181   9.755   3.223
33057W        W 5471   1.450  11.818   1.310
33058W        W 5472  10.655  23.039  11.379
33059W        W 5473   0.743   8.169  12.978
33060W        W 5474  12.340  19.144   4.735
33061W        W 5475  33.424  33.907   4.316
33062W        W 5476  10.173  37.475  12.845
33063W        W 5477  42.813  34.925   4.210
33064W        W 5478   8.759  38.348  10.635
33065W        W 5479  44.931  16.188  13.968
33066W        W 5480  33.393  10.732   4.743
33067W        W 5481  32.031  15.602  10.494
33068W        W 5482   8.315  14.105   0.857
33069W        W 5483   6.863   7.358  10.634
33070W        W 5484   3.808  20.180   0.385
33071W        W 5485  30.961   0.879   0.369
33072W        W 5486   9.812  29.165   2.411
33073W        W 5487  15.100  32.949  11.891
33074W        W 5488   1.797   4.351   1.726
33075W        W 5489   7.273  29.015  10.450
33076W        W 5490  27.657  40.936   1.417
33077W        W 5491  44.360  16.128   1.332
33078W        W 5492   6.772  26.587  12.983
33079W        W 5493  34.445  18.057   0.328
33080W        W 5494  41.513   8.299  13.389
33081W        W 5495  28.988  43.295   4.236
33082W        W 5496   5.342  41.498  14.828
33083W        W 5497  19.572  26.171   1.333
33084W        W 5498  42.834  39.344  12.075
33085W        W 5499  19.772  19.768  14.028
33086W        W 5500  30.471  40.929   3.244
33087W        W 5501  20.736  24.995   1.345
33088W        W 5502   5.298  24.101   3.374
33089W        W 5503  13.212  31.960   4.664
33090W        W 5504   0.805  18.071  11.872
33091W        W 5505  42.456  13.341  13.019
33092W        W 5506  26.086  11.356   0.331
33093W        W 5507  23.702  10.770  11.539
33094W        W 5508  15.299  17.573  13.317
33095W        W 5509  30.910   4.709   9.950
33096W        W 5510  18.143   7.721   2.265
33097W        W 5511   4.727  35.461   4.351
33098W        W 5512  29.933  25.075  13.812
33099W        W 5513  15.712  15.249  14.454
33100W        W 5514  20.220  28.987  13.019
33101W        W 5515   1.797  33.597   2.880
33102W        W 5516  33.450  22.106  13.332
33103W        W 5517  35.494  43.434   4.254
33104W        W 5518   4.427  44.799   3.370
33105W        W 5519  42.875  14.721   1.775
33106W        W 5520  24.030  36.919  13.444
33107W        W 5521  30.603  34.109   3.310
33108W        W 5522  17.784  25.168  14.387
33109W        W 5523  19.719   9.792   1.446
33110W        W 5524  11.297  39.811   3.226
33111W        W 5525  36.878  18.622  12.555
33112W        W 5526   2.470  24.540   0.249
33113W        W 5527  42.333  39.876  13.960
33114W        W 5528  17.248  43.862  12.478
33115W        W 5529  38.031  32.118  13.806
33116W        W 5530  18.773   9.313   3.817
33117W        W 5531  22.119  14.698   2.861
33118W        W 5532  10.776  38.920   4.199
33119W        W 5533  19.178   4.255   3.849
33120W        W 5534  17.292  16.766  11.581
33121W        W 5535  28.491  44.303   4.768
33122W        W 5536  16.735  15.091   0.924
33123W        W 5537  38.476  18.754  13.909
33124W        W 5538  23.613  16.177   3.235
33125W        W 5539   4.298  33.622   2.190
33126W        W 5540  32.046  33.895   4.668
33127W        W 5541  39.443   1.750   0.463
33128W        W 5542  31.037  14.688   4.769
33129W        W 5543  23.663  41.937   4.791
33130W        W 5544  18.598  18.782   1.291
33131W        W 5545  31.000  27.156  14.433
33132W        W 5546  34.048   6.416  11.597
33133W        W 5547   2.751  40.421   1.767
33134W        W 5548  36.405  34.555  13.975
33135W        W 5549  44.817  29.509  12.056
33136W        W 5550  16.120   9.688  13.441
33137W        W 5551  36.010  31.533  14.809
33138W        W 5552  29.949  38.015  11.960
33139W        W 5553  25.670   1.820  13.468
33140W        W 5554  24.683  11.806  13.531
33141W        W 5555   3.884  37.396  12.093
33142W        W 5556   7.180   9.252  14.878
33143W        W 5557  30.543   4.821   1.732
33144W        W 5558   0.374  35.899   4.175
33145W        W 5559   3.275  17.768   0.272
33146W        W 5560  42.825  14.737   4.196
33147W        W 5561  21.531  42.525  12.513
33148W        W 5562  30.603   2.258  12.052
33149W        W 5563  37.345  39.859   0.731
33150W        W 5564  38.980   6.732  13.983
33151W        W 5565  31.603   0.493   1.361
33152W        W 5566   6.375  37.408  11.128
33153W        W 5567  29.667   6.338   3.871
33154W        W 5568  36.366  19.601   1.307
33155W        W 5569  18.285  31.988   1.800
33156W        W 5570  38.832  16.267   3.340
33157W        W 5571   8.332   4.266  13.349
33158W        W 5572   1.777   2.419   0.401
33159W        W 5573   7.692  14.809  14.780
33160W        W 5574   4.319  22.625  14.311
33161W        W 5575   8.758  24.996  10.908
33162W        W 5576  18.685  25.016   2.816
33163W        W 5577   8.760  20.124   1.249
33164W        W 5578  20.111  35.107   4.611
33165W        W 5579  32.919   9.247   0.443
33166W        W 5580  27.480   4.857  13.317
33167W        W 5581  26.977  23.239   3.699
33168W        W 5582   2.368  12.792  14.306
33169W        W 5583  37.843  36.986  12.875
33170W        W 5584   2.918  30.960   1.849
33171W        W 5585  17.304   4.299   2.287
33172W        W 5586  22.223  34.405  10.608
33173W        W 5587   9.378   2.406  13.862
33174W        W 5588  32.629  38.395   3.160
33175W        W 5589  17.689  28.660   3.146
33176W        W 5590  28.072  27.954  12.407
33177W        W 5591  20.718  26.610   4.738
33178W        W 5592   1.382  31.416  12.036
33179W        W 5593   4.239   2.426  11.582
33180W        W 5594   5.876   0.870  11.551
33181W        W 5595  30.597   1.864  13.025
33182W        W 5596   6.845  40.909   0.746
33183W        W 5597   0.951  30.540   4.693
33184W        W 5598  42.022  30.990   0.734
33185W        W 5599  42.290  20.232  12.993
33186W        W 5600  41.473  41.958  14.402
33187W        W 5601   2.374  31.956   0.480
33188W        W 5602  34.906  17.555  14.379
33189W        W 5603  17.796  13.245   2.284
33190W        W 5604  28.186  11.216  14.952
33191W        W 5605  10.281  14.715  11.014
33192W        W 5606  17.276  38.416  13.392
33193W        W 5607  36.878  42.453   2.384
33194W        W 5608   5.227  29.941   2.757
33195W        W 5609  10.697   4.801  10.618
33196W        W 5610   3.834  36.500  13.530
33197W        W 5611  29.065  43.784   0.288
33198W        W 5612  27.668  40.012  12.581
33199W        W 5613  14.226  40.897   4.699
33200W        W 5614   9.851  43.970   0.387
33201W        W 5615  34.488  31.988  12.088
33202W        W 5616  29.033  41.480  12.554
33203W        W 5617  39.340  39.836   3.841
33204W        W 5618  43.331   7.199   2.892
33205W        W 5619  17.683   4.753  14.990
33206W        W 5620  16.294   0.863   2.831
33207W        W 5621  16.679   1.761   3.236
33208W        W 5622   9.650  41.462  11.503
33209W        W 5623  39.348  44.376   0.276
33210W        W 5624   9.787  38.540   2.178
33211W        W 5625  21.609   8.796   0.906
33212W        W 5626  33.404  23.580   0.950
33213W        W 5627   4.242   4.305  11.993
33214W        W 5628  39.335   3.775   3.374
33215W        W 5629  34.968   4.376  10.621
33216W        W 5630   2.946  41.497  10.418
33217W        W 5631  24.633   2.447  10.587
33218W        W 5632   8.226   5.758   1.212
33219W        W 5633  25.997  28.498   0.440
33220W        W 5634   3.714  10.671  11.078
33221W        W 5635  25.485  25.503   2.207
33222W        W 5636   1.790  23.127  12.452
33223W        W 5637  18.060   9.785  12.943
33224W        W 5638  29.640  20.095  12.492
33225W        W 5639  24.081  33.890  11.378
33226W        W 5640  43.434  18.105   2.699
33227W        W 5641  35.921  34.481   9.606
33228W        W 5642  42.997  12.289  12.570
33229W        W 5643   0.896  24.620  10.597
33230W        W 5644  23.223  34.872   0.356
33231W        W 5645  27.633  25.532   4.227
33232W        W 5646   1.852  41.358  14.374
33233W        W 5647  31.899   8.311   1.249
33234W        W 5648  10.754  43.870   3.776
33235W        W 5649  24.609  42.451   3.277
33236W        W 5650  24.619  21.673  12.527
33237W        W 5651  32.404  31.445  12.834
33238W        W 5652  25.468  41.037  12.882
33239W        W 5653  22.070   0.277  11.088
33240W        W 5654  40.871  14.340  11.087
33241W        W 5655  42.332  32.969   3.696
33242W        W 5656  43.415  37.555  11.490
33243W        W 5657  25.160  15.191  10.476
33244W        W 5658  24.586  18.565  11.870
33245W        W 5659  44.806  34.976  11.434
33246W        W 5660  37.515   2.394  13.877
33247W        W 5661  30.641  17.682   1.247
33248W        W 5662  30.460  37.559   4.776
33249W        W 5663  15.326   5.285   2.864
33250W        W 5664   2.866  22.084  14.876
33251W        W 5665   1.404  35.980  12.539
33252W        W 5666  15.267  27.515  14.325
33253W        W 5667   1.412  31.088   1.311
33254W        W 5668   5.313  34.052  10.619
33255W        W 5669   2.281  22.612  14.368
33256W        W 5670  42.867  20.136   0.747
33257W        W 5671   4.761   3.341  12.855
33258W        W 5672  22.549  36.368  12.046
33259W        W 5673  40.964   8.695   2.852
33260W        W 5674   7.332  10.784  11.510
33261W        W 5675  38.904  43.406   0.313
33262W        W 5676  18.629  29.492  11.444
33263W        W 5677  13.151  19.132   4.126
33264W        W 5678   5.771  33.983   0.729
33265W        W 5679  22.669  34.571   4.707
33266W        W 5680  22.999  19.623  11.437
33267W        W 5681   2.819  19.067  12.425
33268W        W 5682   1.973  21.586   2.822
33269W        W 5683   2.742  21.156  14.466
33270W        W 5684  42.351  25.054  12.371
33271W        W 5685  28.102  33.048  14.415
33272W        W 5686  23.649  41.897  13.372
33273W        W 5687  36.354   2.849  14.447
33274W        W 5688  30.077  25.034  11.580
33275W        W 5689  32.563   2.872  11.519
33276W        W 5690  30.553  30.598  10.496
33277W        W 5691   2.429  18.054   2.702
33278W        W 5692  34.471  43.773   4.338
33279W        W 5693   4.431  25.536   5.193
33280W        W 5694  39.415  36.437  11.410
33281W        W 5695  26.154  10.168   5.193
33282W        W 5696  10.789  24.229  14.415
33283W        W 5697  10.194  31.109  14.392
33284W        W 5698  21.668   8.743  10.580
33285W        W 5699  41.511  27.585   4.652
33286W        W 5700   7.266  32.060   0.410
33287W        W 5701   5.822  23.689   4.283
33288W        W 5702  23.552  29.926   4.615
33289W        W 5703  43.869   1.736  11.083
33290W        W 5704  31.133  20.133   1.786
33291W        W 5705  26.572   0.949  14.792
33292W        W 5706  10.751   3.314   2.757
33293W        W 5707  39.420   0.485  14.859
33294W        W 5708  21.095  35.370  12.492
33295W        W 5709   9.368  30.070  10.919
33296W        W 5710  30.006  30.118  13.856
33297W        W 5711  43.881  28.119  12.066
33298W        W 5712   2.742  23.236   4.349
33299W        W 5713   1.973  13.283   4.251
33300W        W 5714  17.673  10.742   1.883
33301W        W 5715   3.847  15.608   1.933
33302W        W 5716   7.876   6.351   3.231
33303W        W 5717   9.815  41.312   3.370
33304W        W 5718  26.141  31.605   2.673
33305W        W 5719  33.441  32.111   2.406
33306W        W 5720  21.084  41.291   2.752
33307W        W 5721   5.265  44.929  10.891
33308W        W 5722  33.424  36.000   5.112
33309W        W 5723  41.870  34.510  13.500
33310W        W 5724  13.151  36.089   1.790
33311W        W 5725   8.759  12.312  11.474
33312W        W 5726  41.893  43.355   1.721
33313W        W 5727  31.520  41.387  10.495
33314W        W 5728  44.819  41.865   4.702
33315W        W 5729  15.136   6.376   0.305
33316W        W 5730   4.294  23.612  14.968
33317W        W 5731  38.834  22.199  14.856
33318W        W 5732  12.315   3.842  12.875
33319W        W 5733   1.414  20.177   2.211
33320W        W 5734  44.322   4.334  12.343
33321W        W 5735   2.953  17.672   1.830
33322W        W 5736  43.791   5.901  14.436
33323W        W 5737  26.679   9.703   5.128
33324W        W 5738  35.031   8.238   3.767
33325W        W 5739   6.889  29.613   0.848
33326W        W 5740  33.443  13.124  14.407
33327W        W 5741  20.092   7.257   2.398
33328W        W 5742  17.710  27.637   2.359
33329W        W 5743  10.155   1.908   2.271
33330W        W 5744   2.433  19.757  11.382
33331W        W 5745   6.375  34.082  12.025
33332W        W 5746  15.218  17.628  14.450
33333W        W 5747   1.955  19.729  11.049
33334W        W 5748   8.867  34.026  14.780
33335W        W 5749  18.634  29.438  14.467
33336W        W 5750  18.661   1.421   3.296
33337W        W 5751  37.848   6.751   0.933
33338W        W 5752  36.534  11.136  13.018
33339W        W 5753  24.147  40.524  13.492
33340W        W 5754  31.506  42.783  13.054
33341W        W 5755  41.384   4.724  13.418
33342W        W 5756  44.278  27.585   1.891
33343W        W 5757   4.362  44.452  11.444
33344W        W 5758   6.232  37.406  10.114
33345W        W 5759  11.724  12.244   2.724
33346W        W 5760   2.322  20.554  12.852
33347W        W 5761   1.769  10.379   3.716
33348W        W 5762  20.710   1.438   4.663
33349W        W 5763  14.107  30.459   2.201
33350W        W 5764  30.619  30.496   1.222
33351W        W 5765  23.023  31.492   0.403
33352W        W 5766  20.234  11.644   0.410
33353W        W 5767  11.299  39.066   4.286
33354W        W 5768  33.511  32.481   1.227
33355W        W 5769  20.641  39.971   4.761
33356W        W 5770  32.981  32.411  14.275
33357W        W 5771   2.873  32.025  13.867
33358W        W 5772  30.464  15.155  12.389
33359W        W 5773  30.432  26.961   3.191
33360W        W 5774  14.792  23.537   2.867
33361W        W 5775  34.034  36.355  13.539
33362W        W 5776   4.906   9.719   0.470
33363W        W 5777  28.165  27.038  12.432
33364W        W 5778  16.141  16.184   0.267
33365W        W 5779  38.053   9.720  14.439
33366W        W 5780   7.176  32.610   2.362
33367W        W 5781  28.050  19.196   1.817
33368W        W 5782  21.667  14.716  12.965
33369W        W 5783   4.899  12.648   2.262
33370W        W 5784  42.382   6.420  13.001
33371W        W 5785  39.402   0.943  11.431
33372W        W 5786   8.826  41.369   4.720
33373W        W 5787  25.538   0.809   2.384
33374W        W 5788  34.589  24.050  11.372
33375W        W 5789  33.072  36.523  11.015
33376W        W 5790  39.962  24.091   1.407
33377W        W 5791  36.593  36.467  12.861
33378W        W 5792   8.655  15.809  10.420
33379W        W 5793  11.732  36.070   3.664
33380W        W 5794  11.654  19.757  10.114
33381W        W 5795   2.888  18.548  13.540
33382W        W 5796   4.412   1.296   0.364
33383W        W 5797  18.546  24.480   3.184
33384W        W 5798  27.123   6.211  12.348
33385W        W 5799   8.686  41.039   0.273
33386W        W 5800  33.005   2.254   1.894
33387W        W 5801  23.029   0.842   3.678
33388W        W 5802  18.247  34.991  10.991
33389W        W 5803  18.224  15.654   4.188
33390W        W 5804   4.775   8.205   3.321
33391W        W 5805  39.928   9.371   4.673
33392W        W 5806  18.694  13.225   2.874
33393W        W 5807  11.813   1.961   1.298
33394W        W 5808  32.615  39.965  11.548
33395W        W 5809  40.888   1.819  13.064
33396W        W 5810   6.902   5.713  13.945
33397W        W 5811   9.254  22.110  11.457
33398W        W 5812  32.586   7.332   0.416
33399W        W 5813   9.747  41.360  14.938
33400W        W 5814  26.552  11.129   1.244
33401W        W 5815   3.788  37.870  11.001
33402W        W 5816  42.331  39.983   1.289
33403W        W 5817   3.824  22.552  13.493
33404W        W 5818  10.753  34.028  13.391
33405W        W 5819  18.169  25.973   4.243
33406W        W 5820  37.995  22.720   4.779
33407W        W 5821   8.772  26.089   3.832
33408W        W 5822   7.827  18.085  12.021
33409W        W 5823  42.327  29.055   1.741
33410W        W 5824  40.054  29.115  14.341
33411W        W 5825  39.024  23.104   1.295
33412W        W 5826  42.827  13.607   4.650
33413W        W 5827  10.868  24.978  12.517
33414W        W 5828  15.816  14.672   4.677
33415W        W 5829  10.767  31.095  14.950
33416W        W 5830  39.543  20.576   4.695
33417W        W 5831  21.195   4.434  11.423
33418W        W 5832   7.745  35.972   4.216
33419W        W 5833  12.343  40.977   3.201
33420W        W 5834  41.360  14.128   1.277
33421W        W 5835  22.011  11.734   2.795
33422W        W 5836  32.560  19.548   1.212
33423W        W 5837  32.422   0.454  13.529
33424W        W 5838   8.388  13.267  10.566
33425W        W 5839  33.020   7.817  11.108
33426W        W 5840   5.769  12.136   0.842
33427W        W 5841  13.816  33.608   4.279
33428W        W 5842  14.593   8.291   1.389
33429W        W 5843  42.976  24.567   4.680
33430W        W 5844  18.740  38.959   1.834
33431W        W 5845   7.758  15.141   0.465
33432W        W 5846   7.386  11.662  14.507
33433W        W 5847  42.909  15.230  11.957
33434W        W 5848  41.857  30.975   3.243
33435W        W 5849   0.766  30.018  12.573
33436W        W 5850  27.521  44.808   2.855
33437W        W 5851  34.546  37.437   3.335
33438W        W 5852  41.001   2.896  13.319
33439W        W 5853  19.567   5.201   4.782
33440W        W 5854  27.629  29.095  11.984
33441W        W 5855  20.181   1.444   1.742
33442W        W 5856  22.621  27.189  11.463
33443W        W 5857  39.519   2.253   0.943
33444W        W 5858  34.114  33.047  14.458
33445W        W 5859  30.944  21.609   3.811
33446W        W 5860  12.630  25.058  13.342
33447W        W 5861  37.525  14.731   0.933
33448W        W 5862  39.505  34.415  11.116
33449W        W 5863  14.616  39.378  10.472
33450W        W 5864  34.605   0.344   4.322
33451W        W 5865  38.504  19.198   0.882
33452W        W 5866  32.896  31.112   1.353
33453W        W 5867   8.804  25.211  12.852
33454W        W 5868  10.215  32.397   0.245
33455W        W 5869  19.612  23.514   2.282
33456W        W 5870  36.005  34.412   3.357
33457W        W 5871   4.756  10.186   0.366
33458W        W 5872  14.657  30.607  14.813
33459W        W 5873  27.065  11.244   3.375
33460W        W 5874  27.646  12.764  12.062
33461W        W 5875  30.507   9.226  10.973
33462W        W 5876  34.887  29.524   0.770
33463W        W 5877  20.540   0.844  10.116
33464W        W 5878  37.393  26.558  12.080
33465W        W 5879  29.525  40.548  13.451
33466W        W 5880  16.150  28.955   4.185
33467W        W 5881  20.123  29.099  11.880
33468W        W 5882   1.946  30.422   1.892
33469W        W 5883  29.965  28.955  14.340
33470W        W 5884  38.834  36.566  14.851
33471W        W 5885  37.371   6.770  14.018
33472W        W 5886   4.332  14.651  11.923
33473W        W 5887  11.230  31.912  11.943
33474W        W 5888  35.027   1.250   3.149
33475W        W 5889  43.005  44.852   2.279
33476W        W 5890  10.764  22.711   3.282
33477W        W 5891  12.735  22.245   4.835
33478W        W 5892  35.903  21.578  12.535
33479W        W 5893   0.319  11.778  12.093
33480W        W 5894  17.802  18.269  14.758
33481W        W 5895   9.665   8.316   3.325
33482W        W 5896  11.254  18.652  12.865
33483W        W 5897  37.509  44.313   1.745
33484W        W 5898   1.950  13.688   3.674
33485W        W 5899  10.288  10.688   4.839
33486W        W 5900  34.068  26.486   4.311
33487W        W 5901  12.196  29.569  13.890
33488W        W 5902  26.148  23.193  11.437
33489W        W 5903  22.078  21.120  11.471
33490W        W 5904  43.842  34.583   0.262
33491W        W 5905  39.830  27.627  12.033
33492W        W 5906  40.434  20.097   1.847
33493W        W 5907   5.710   3.909  12.858
33494W        W 5908  11.230   6.367   4.800
33495W        W 5909  14.642   7.837  10.435
33496W        W 5910  31.077   0.453   0.956
33497W        W 5911  21.596  26.102  14.916
33498W        W 5912  17.149   7.414  12.844
33499W        W 5913  10.271   9.660   4.240
33500W        W 5914  44.806  41.818  11.563
33501W        W 5915  33.541  28.505  10.635
33502W        W 5916  19.564  22.243   2.290
33503W        W 5917  25.576  22.525   5.205
33504W        W 5918   4.737   6.279  12.941
33505W        W 5919  40.013   3.824  13.360
33506W        W 5920  28.455  19.061   3.866
33507W        W 5921   7.822  26.489  11.573
33508W        W 5922  28.038   3.890   3.314
33509W        W 5923   2.804  38.959  14.512
33510W        W 5924  40.811  34.033  14.935
33511W        W 5925   0.812  32.971  13.921
33512W        W 5926  26.150  20.057   2.852
33513W        W 5927  31.015  18.194  11.910
33514W        W 5928  19.123  31.575  13.000
33515W        W 5929  22.697  10.273   2.774
33516W        W 5930  41.359  12.632   2.876
33517W        W 5931  15.675  10.272   3.673
33518W        W 5932   7.252  28.451  12.996
33519W        W 5933  29.981  29.528   2.871
33520W        W 5934   0.266   6.365   4.309
33521W        W 5935  39.443  44.802  14.396
33522W        W 5936  19.052  10.728  12.995
33523W        W 5937  27.464  39.992   1.873
33524W        W 5938  22.551   2.875   3.297
33525W        W 5939  44.303  30.009   0.247
33526W        W 5940  24.114  23.164   2.360
33527W        W 5941  32.458   9.804  12.425
33528W        W 5942   9.699  39.877   1.268
33529W        W 5943  37.052  26.679  10.627
33530W        W 5944  15.665  36.062   1.701
33531W        W 5945   7.354  42.389   4.737
33532W        W 5946  23.208  16.154  11.921
33533W        W 5947  26.580  11.678   2.861
33534W        W 5948  20.590  40.836  13.057
33535W        W 5949  24.008  36.999  11.869
33536W        W 5950  12.679  44.382   3.214
33537W        W 5951  33.047  16.108   3.823
33538W        W 5952  41.321  18.089  12.474
33539W        W 5953  42.475  30.489  11.574
33540W        W 5954  34.923   3.333   3.270
33541W        W 5955  26.671  11.634  11.905
33542W        W 5956  39.354  42.027   1.839
33543W        W 5957   9.172  37.894  11.478
33544W        W 5958  43.475   5.301   0.867
33545W        W 5959  14.612  41.917   2.810
33546W        W 5960  33.977   6.700   1.785
33547W        W 5961  22.127  30.961   2.180
33548W        W 5962  38.874  35.013   4.719
33549W        W 5963   4.385  36.955  13.827
33550W        W 5964  13.132   0.800  13.054
33551W        W 5965  14.722   0.274  11.606
33552W        W 5966   1.837  13.697  13.820
33553W        W 5967  27.007  17.172  12.567
33554W        W 5968  37.543  21.264   0.379
33555W        W 5969  20.047  38.916   0.758
33556W        W 5970   7.895  25.536   3.845
33557W        W 5971  37.356  21.233  12.525
33558W        W 5972  20.258  23.060   1.728
33559W        W 5973  11.245  35.953   1.796
33560W        W 5974  40.926   2.936   1.270
33561W        W 5975  44.448  28.441  14.495
33562W        W 5976  44.361  22.062   3.337
33563W        W 5977  12.218  15.281   2.337
33564W        W 5978  14.258  10.846  11.477
33565W        W 5979  42.336  13.764  12.559
33566W        W 5980  24.538  24.662   4.251
33567W        W 5981   8.182   3.949  10.635
33568W        W 5982  17.140  43.308   0.387
33569W        W 5983   3.858   2.351  14.791
33570W        W 5984  12.280  22.723   4.808
33571W        W 5985  34.916  27.018  11.120
33572W        W 5986  13.682  18.231   9.978
33573W        W 5987   3.867  29.503   3.233
33574W        W 5988  30.998  32.980  13.841
33575W        W 5989  17.272  20.156  13.993
33576W        W 5990  27.617   9.797  11.105
33577W        W 5991   3.773  13.201  11.402
33578W        W 5992  31.524   2.267   0.381
33579W        W 5993  24.661  42.514  14.377
33580W        W 5994  21.176  39.336   1.401
33581W        W 5995   8.344   0.417  12.531
33582W        W 5996   3.930  25.667  12.895
33583W        W 5997  37.430  43.990  11.514
33584W        W 5998  17.115  28.608  13.017
33585W        W 5999  29.134   5.750   2.389
33586W        W 6000   7.381  17.669  10.553
33587W        W 6001   0.314  29.611  14.763
33588W        W 6002  41.998  25.504  11.592
33589W        W 6003   2.288  17.713  11.444
33590W        W 6004  34.478  16.606   0.837
33591W        W 6005  30.065   2.346   1.853
33592W        W 6006  19.773   3.869  12.553
33593W        W 6007  43.845  22.092   4.786
33594W        W 6008  11.835  29.174  12.893
33595W        W 6009  29.161  39.459  11.030
33596W        W 6010  14.217  20.676  10.477
33597W        W 6011  42.941  20.073  11.514
33598W        W 6012  30.109   9.239  12.081
33599W        W 6013  28.035  44.885  12.842
33600W        W 6014  39.515  33.887   1.727
33601W        W 6015  43.376  22.536  13.503
33602W        W 6016  28.526   8.777  11.582
33603W        W 6017  29.036  14.797   4.627
33604W        W 6018  16.737  36.021  13.504
33605W        W 6019  39.011  20.145  11.444
33606W        W 6020  28.001  32.103   0.939
33607W        W 6021  41.490  15.122  14.349
33608W        W 6022  31.011  19.072  13.054
33609W        W 6023  15.163  32.968   0.402
33610W        W 6024  38.044  30.642   0.415
33611W        W 6025  35.013   2.318   2.415
33612W        W 6026   6.892  28.485  12.915
33613W        W 6027  29.005  10.370   1.836
33614W        W 6028  32.949  30.643   4.265
33615W        W 6029  39.906  13.153   4.604
33616W        W 6030  35.942  42.855   4.179
33617W        W 6031  43.878  26.506  10.970
33618W        W 6032  20.730  38.932  14.979
33619W        W 6033  15.637  29.478   2.362
33620W        W 6034  42.483  22.536  14.350
33621W        W 6035  30.130  38.999   4.750
33622W        W 6036   2.946  37.547   4.807
33623W        W 6037  41.984  39.854  11.611
33624W        W 6038   4.363  16.277  13.517
33625W        W 6039  32.968   1.241   1.418
33626W        W 6040  20.216   2.852  14.792
33627W        W 6041   3.279  32.513   4.181
33628W        W 6042  29.165  19.259  11.539
33629W        W 6043   9.223  35.094   1.777
33630W        W 6044  21.127  13.306  10.927
33631W        W 6045  22.686   6.185   2.666
33632W        W 6046  26.469  40.329   4.780
33633W        W 6047  30.115   9.793  13.868
33634W        W 6048  34.909   1.423  14.863
33635W        W 6049  25.057  21.186   5.167
33636W        W 6050  19.687   9.798  14.401
33637W        W 6051  38.471   4.702  11.539
33638W        W 6052  32.015  43.358  12.443
33639W        W 6053  27.976   0.943  12.881
33640W        W 6054  42.896  29.595  10.971
33641W        W 6055  10.186  32.003  10.127
33642W        W 6056   3.954   4.331   2.758
33643W        W 6057  39.326  44.881  10.966
33644W        W 6058  11.243  43.999  14.368
33645W        W 6059  34.426  15.177   2.266
33646W        W 6060  12.284  25.557  12.485
33647W        W 6061  36.360  21.203   4.213
33648W        W 6062  43.377  39.448   4.123
33649W        W 6063  19.183  44.359  10.078
33650W        W 6064   0.798  24.004   2.320
33651W        W 6065  18.150  40.960  12.539
33652W        W 6066  40.390  43.977  11.897
33653W        W 6067   6.331  15.746   0.919
33654W        W 6068  24.644  13.126   4.312
33655W        W 6069  38.446   8.299  13.398
33656W        W 6070  11.275   2.817  13.978
33657W        W 6071   6.404  18.730   2.264
33658W        W 6072   5.688  15.582  12.514
33659W        W 6073  11.306  32.477   3.175
33660W        W 6074  31.131  26.508  12.551
33661W        W 6075  37.070  12.254   0.456
33662W        W 6076  33.928  41.425   2.783
33663W        W 6077   2.341  42.446  11.591
33664W        W 6078  21.202  22.625   4.225
33665W        W 6079  30.479  44.471   2.870
33666W        W 6080  41.480  34.054  13.028
33667W        W 6081  11.227  11.864   4.715
33668W        W 6082  14.169  32.543   3.330
33669W        W 6083  22.074  36.048  12.904
33670W        W 6084  42.347  32.973  11.421
33671W        W 6085   2.723   9.390  13.387
33672W        W 6086   5.804  43.441   1.891
33673W        W 6087  37.875  16.124   4.292
33674W        W 6088  26.150  37.343   3.172
33675W        W 6089   1.930  44.782  13.026
33676W        W 6090  41.506   5.854  12.059
33677W        W 6091  22.668  35.462   0.417
33678W        W 6092  20.163  40.990   2.827
33679W        W 6093  15.629  24.537   2.845
33680W        W 6094  38.018  20.548  13.516
33681W        W 6095  33.094  12.618   2.272
33682W        W 6096  43.364  33.003   4.280
33683W        W 6097  23.503  37.502  13.434
33684W        W 6098   5.215  20.053   2.196
33685W        W 6099  25.081  26.970  13.064
33686W        W 6100  39.435  37.007  14.483
33687W        W 6101  10.842   4.824  11.981
33688W        W 6102   2.274  18.295   4.165
33689W        W 6103  32.888   3.451   1.210
33690W        W 6104   0.860  26.167  11.034
33691W        W 6105  41.419  29.112  11.037
33692W        W 6106  21.591  20.137   1.237
33693W        W 6107   2.766  31.618   1.736
33694W        W 6108  23.203   0.820  10.503
33695W        W 6109   8.387  39.037   4.733
33696W        W 6110  12.800  36.563  11.450
33697W        W 6111   2.406  38.568   1.291
33698W        W 6112  19.284   1.429   4.607
33699W        W 6113  13.803  16.607   1.418
33700W        W 6114  44.262  10.772  11.436
33701W        W 6115  35.952  21.259   0.413
33702W        W 6116  30.079  36.387   2.831
33703W        W 6117   6.328  42.317   4.203
33704W        W 6118   4.435  28.608  10.534
33705W        W 6119  29.966  13.306  12.343
33706W        W 6120  24.024   7.716  12.342
33707W        W 6121  10.193  11.166   4.262
33708W        W 6122  31.972  33.482  10.452
33709W        W 6123  31.906  12.296  12.496
33710W        W 6124  19.557  43.454  14.887
33711W        W 6125  42.304  20.167  10.992
33712W        W 6126  27.007  36.986   3.648
33713W        W 6127  44.301  14.239   3.216
33714W        W 6128  18.185  36.064  12.837
33715W        W 6129  43.428  36.852  12.892
33716W        W 6130   2.276  41.430  14.891
33717W        W 6131  39.949  44.821   2.780
33718W        W 6132  22.557  33.578   2.902
33719W        W 6133  39.994   3.241  10.456
33720W        W 6134  11.256  15.774  13.405
33721W        W 6135  11.835  28.157   2.678
33722W        W 6136   3.936  17.563  13.859
33723W        W 6137  29.070  15.807  12.466
33724W        W 6138  12.340  31.032   0.742
33725W        W 6139  10.201   8.314   1.217
33726W        W 6140   2.399  17.262   1.218
33727W        W 6141  18.151   6.406  11.890
33728W        W 6142   9.190  19.666   3.345
33729W        W 6143  25.637   0.769   3.724
33730W        W 6144  28.657   9.784  14.463
33731W        W 6145  30.908  40.812  14.449
33732W        W 6146  26.651   3.366  12.458
33733W        W 6147   4.401   1.744  13.321
33734W        W 6148  35.365  17.172   0.792
33735W        W 6149  25.699  32.635   2.741
33736W        W 6150  44.771   1.903   2.224
33737W        W 6151  44.998  23.024  13.812
33738W        W 6152  31.045  31.593   4.752
33739W        W 6153   9.358   8.288   1.760
33740W        W 6154   7.787  17.706   4.620
33741W        W 6155   1.882  25.167   3.799
33742W        W 6156  29.616  11.290  12.043
33743W        W 6157  22.049  34.594   4.604
33744W        W 6158   5.862  16.621  13.390
33745W        W 6159  28.124  33.941   4.753
33746W        W 6160  42.870  19.710  13.962
33747W        W 6161  31.511  43.923   3.787
33748W        W 6162   3.780  44.444  14.354
33749W        W 6163   3.748   7.269  12.439
33750W        W 6164   7.697  27.556   1.436
33751W        W 6165  10.724  19.248   3.868
33752W        W 6166  27.639  18.593  11.001
33753W        W 6167  16.250   5.812   2.670
33754W        W 6168  24.711  44.981  10.473
33755W        W 6169  19.702  12.176  13.884
33756W        W 6170  43.911  31.639   2.179
33757W        W 6171  40.013  16.654  12.462
33758W        W 6172   5.792  25.513   4.835
33759W        W 6173  42.355  16.136   4.188
33760W        W 6174  22.514  40.905  11.107
33761W        W 6175  16.083  23.122   4.630
33762W        W 6176  37.369  20.541  11.070
33763W        W 6177  29.026  38.397   3.845
33764W        W 6178  23.055  12.146   0.794
33765W        W 6179   4.234  27.135   0.398
33766W        W 6180   5.392  13.764  10.479
33767W        W 6181  23.707  23.713   1.323
33768W        W 6182  28.574  33.586   1.866
33769W        W 6183  12.235   6.342  14.783
33770W        W 6184  43.425  13.728  10.629
33771W        W 6185   4.358  37.973   1.920
33772W        W 6186   9.742  16.288  14.778
33773W        W 6187  38.952  17.234   3.686
33774W        W 6188  26.050  32.611   1.773
33775W        W 6189  21.044  12.720  14.410
33776W        W 6190  33.992  34.601   1.332
33777W        W 6191  12.170  38.941  11.461
33778W        W 6192  41.387  31.007  10.905
33779W        W 6193  40.041  33.011  12.866
33780W        W 6194  25.652  11.202  14.413
33781W        W 6195  16.192  16.281  12.878
33782W        W 6196  15.810  38.507   3.799
33783W        W 6197  28.533  21.132  13.505
33784W        W 6198  15.157  30.536  10.470
33785W        W 6199  10.347   7.722   0.911
33786W        W 6200   3.295  21.665   0.830
33787W        W 6201  38.919   8.296  11.042
33788W        W 6202  43.823  44.845  12.407
33789W        W 6203  41.841  25.594   2.774
33790W        W 6204  26.160  18.260   2.702
33791W        W 6205  22.670  27.461   0.337
33792W        W 6206   8.303  13.345   2.879
33793W        W 6207  29.492   6.205  11.590
33794W        W 6208  44.906   1.816  14.778
33795W        W 6209  26.499   3.318   0.427
33796W        W 6210   9.262  11.334   2.815
33797W        W 6211  33.001  13.168  12.419
33798W        W 6212   1.760  38.843  11.594
33799W        W 6213  13.676  31.428   3.843
33800W        W 6214  14.661  21.119   1.231
33801W        W 6215  22.016  41.299   3.808
33802W        W 6216  10.769  20.553   1.324
33803W        W 6217  17.234  38.546  13.830
33804W        W 6218  11.772  13.236   4.656
33805W        W 6219  14.630   9.161  10.160
33806W        W 6220   9.779  43.853  11.411
33807W        W 6221  30.504  33.447   4.660
33808W        W 6222  41.033  26.616   3.355
33809W        W 6223  43.469  20.712  12.381
33810W        W 6224  33.501  27.084   4.175
33811W        W 6225  12.658  22.673   3.702
33812W        W 6226  17.066  29.430   1.263
33813W        W 6227  29.170  23.037  13.921
33814W        W 6228  17.607  22.101  11.397
33815W        W 6229   0.386  33.096   4.637
33816W        W 6230  11.242  15.607   4.666
33817W        W 6231  13.117   4.253   4.310
33818W        W 6232  24.706  23.062  13.415
33819W        W 6233  32.424  42.301  14.281
33820W        W 6234  33.501  11.261   1.347
33821W        W 6235  14.144  25.482  11.392
33822W        W 6236  34.887  43.013   0.299
33823W        W 6237  21.600  38.548   4.338
33824W        W 6238   5.412  28.450  13.340
33825W        W 6239  44.972  19.261   1.265
33826W        W 6240  25.478   9.279   2.352
33827W        W 6241  40.477  30.567   2.264
33828W        W 6242   5.252   7.825  14.431
33829W        W 6243   9.768  39.553   2.754
33830W        W 6244  17.062  27.605  10.111
33831W        W 6245  42.335  43.497  14.292
33832W        W 6246  35.951  31.574   4.290
33833W        W 6247  42.463  18.771   3.237
33834W        W 6248  26.494  40.962   3.869
33835W        W 6249  22.724  43.501  12.974
33836W        W 6250  23.081  23.990  12.953
33837W        W 6251   4.223   1.793  11.079
33838W        W 6252  39.427   4.793   0.368
33839W        W 6253  24.106  21.159   1.845
33840W        W 6254   6.782  37.005  10.611
33841W        W 6255  33.429   5.915   1.758
33842W        W 6256   6.313   3.292   2.735
33843W        W 6257  14.633  29.471   0.290
33844W        W 6258   2.281   5.711   1.408
33845W        W 6259  28.010  26.090  10.079
33846W        W 6260  40.854  10.245   4.334
33847W        W 6261  40.861  14.779  11.555
33848W        W 6262   3.392  35.452   1.716
33849W        W 6263  23.490  38.481   2.811
33850W        W 6264  28.029  44.363  12.477
33851W        W 6265  36.455   3.755  10.927
33852W        W 6266  32.004  15.301   3.183
33853W        W 6267   3.264   9.706  10.481
33854W        W 6268  28.594  17.241  14.869
33855W        W 6269  21.078  19.261   0.741
33856W        W 6270   1.459   6.423  14.361
33857W        W 6271  28.046  32.031   1.798
33858W        W 6272  26.685  12.160   4.797
33859W        W 6273  21.029  43.357  12.398
33860W        W 6274  39.886  36.458   3.251
33861W        W 6275  33.532  19.281  12.433
33862W        W 6276  26.965  11.654  13.808
33863W        W 6277  25.486  12.356   3.823
33864W        W 6278   4.237  27.064  11.919
33865W        W 6279  16.081  31.406  12.470
33866W        W 6280  36.080  42.320  12.837
33867W        W 6281  41.787  33.592   0.429
33868W        W 6282  36.430  10.193   4.265
33869W        W 6283   8.186  43.018  12.930
33870W        W 6284  16.133  42.884  12.984
33871W        W 6285  42.838  24.722   0.804
33872W        W 6286  12.241  20.622   4.655
33873W        W 6287  44.309  29.569   3.836
33874W        W 6288  22.632  39.330  11.444
33875W        W 6289  10.878  20.139   1.932
33876W        W 6290  16.216  20.063   1.366
33877W        W 6291  11.323  17.669  14.875
33878W        W 6292  28.661  33.922  14.833
33879W        W 6293  39.365   7.398   2.221
33880W        W 6294  24.498  43.411  11.490
33881W        W 6295  43.862  17.227   4.655
33882W        W 6296   6.409  42.850   3.239
33883W        W 6297   1.868   4.370  10.538
33884W        W 6298  24.137  27.030   4.245
33885W        W 6299  39.397  44.372   1.297
33886W        W 6300  16.233   8.171   1.233
33887W        W 6301  28.526  24.079   1.428
33888W        W 6302  33.961  28.045   4.740
33889W        W 6303  15.168  43.432  10.997
33890W        W 6304  23.514   6.423   0.823
33891W        W 6305  17.205  39.865  13.918
33892W        W 6306   1.814  16.105   1.375
33893W        W 6307  44.346  13.807   4.294
33894W        W 6308  17.160  14.731   2.375
33895W        W 6309  14.833  37.471   1.348
33896W        W 6310  32.963  39.008  13.024
33897W        W 6311  43.907  15.624   2.802
33898W        W 6312  40.884  12.847  10.969
33899W        W 6313  30.476  34.937   3.282
33900W        W 6314  37.550  20.666  14.503
33901W        W 6315  19.773  20.569   4.155
33902W        W 6316  16.106   5.844   2.332
33903W        W 6317  39.542  42.453  13.524
33904W        W 6318  26.511  18.167   4.228
33905W        W 6319   8.850   6.188  14.780
33906W        W 6320  30.929  39.340   1.324
33907W        W 6321  27.092  39.360   4.175
33908W        W 6322   0.415  44.441  11.090
33909W        W 6323  34.000   9.287  10.431
33910W        W 6324  41.356  35.043  11.059
33911W        W 6325  11.728  21.737  13.021
33912W        W 6326  33.934  14.738  14.832
33913W        W 6327  20.239   8.870   0.416
33914W        W 6328  34.059  34.588  14.429
33915W        W 6329   6.806  19.548  10.503
33916W        W 6330  20.134  19.279   4.224
33917W        W 6331  14.335  14.813   4.296
33918W        W 6332   1.872   1.286   2.220
33919W        W 6333   9.286  12.326  11.538
33920W        W 6334  35.495  44.981  11.966
33921W        W 6335  39.363  18.210   0.813
33922W        W 6336  34.085  13.604  12.906
33923W        W 6337  15.614  24.085  13.445
33924W        W 6338  13.662   1.411   2.292
33925W        W 6339   2.447  11.689   4.251
33926W        W 6340   6.699  16.649  11.869
33927W        W 6341   2.277   6.908  13.841
33928W        W 6342  32.006  24.502   4.227
33929W        W 6343   0.975   6.888  12.341
33930W        W 6344  44.916  22.502   0.956
33931W        W 6345  30.148  34.993   4.317
33932W        W 6346  25.031  12.281  14.507
33933W        W 6347   3.411  25.596   3.871
33934W        W 6348  27.664  33.991   3.250
33935W        W 6349  16.138  14.811   4.260
33936W        W 6350   9.871   3.355  11.887
33937W        W 6351  23.189  22.188  11.384
33938W        W 6352  44.300   0.421   2.219
33939W        W 6353  27.510  30.074  10.456
33940W        W 6354  32.937  43.929  10.423
33941W        W 6355   1.392  39.911  12.384
33942W        W 6356   0.333  10.643  10.958
33943W        W 6357   6.724  14.273   2.732
33944W        W 6358  43.516  44.344   3.215
33945W        W 6359  39.037  17.609  10.077
33946W        W 6360  38.049  16.717  11.125
33947W        W 6361  30.458   4.256  12.561
33948W        W 6362  39.426  19.673  14.466
33949W        W 6363  13.649  13.783   2.826
33950W        W 6364   6.296   7.277  14.835
33951W        W 6365  16.140  23.663  14.336
33952W        W 6366  43.417   5.752   1.248
33953W        W 6367  21.610  28.105  13.994
33954W        W 6368  15.301  37.923   4.213
33955W        W 6369  34.583  13.726   1.850
33956W        W 6370  33.620  22.175   3.166
33957W        W 6371  15.221   8.849  11.108
33958W        W 6372  38.969  21.045   2.847
33959W        W 6373  43.965  20.273  10.469
33960W        W 6374  43.473   6.871  10.586
33961W        W 6375   4.854   3.224  11.001
33962W        W 6376  13.817  11.282  12.455
33963W        W 6377  19.573  42.436   2.197
33964W        W 6378   7.282  44.953   2.416
33965W        W 6379  25.581  16.720   9.662
33966W        W 6380  41.916  35.382  13.863
33967W        W 6381  41.986  30.499  11.952
33968W        W 6382  14.324  17.180   4.766
33969W        W 6383  16.778  28.493  12.058
33970W        W 6384   3.716  11.131  12.892
33971W        W 6385  12.156   1.257   1.350
33972W        W 6386  11.826  40.854  14.397
33973W        W 6387   5.928  37.850   3.649
33974W        W 6388  11.625  27.094  11.873
33975W        W 6389  19.259  32.598   4.252
33976W        W 6390   1.243  16.735  13.317
33977W        W 6391  23.502  22.131  10.605
33978W        W 6392  42.842  40.971  11.047
33979W        W 6393  17.209  13.265  13.318
33980W        W 6394  15.823  21.248   2.761
33981W        W 6395  23.221  40.013  12.412
33982W        W 6396   3.885  19.551   1.223
33983W        W 6397  17.272  42.399   2.801
33984W        W 6398  32.487  36.522  13.853
33985W        W 6399   8.842   7.715  13.375
33986W        W 6400   7.210  13.217  11.411
33987W        W 6401   6.349  31.549  11.434
33988W        W 6402  13.610   4.877   3.685
33989W        W 6403  22.642  19.177   2.384
33990W        W 6404  44.315  13.794  14.435
33991W        W 6405  13.238  35.453   2.254
33992W        W 6406   1.792  25.490   3.824
33993W        W 6407  37.436  14.745  11.917
33994W        W 6408  26.029  21.034  13.430
33995W        W 6409  30.637  18.670  11.607
33996W        W 6410  36.443  38.985  13.537
33997W        W 6411  32.616  19.181  14.323
33998W        W 6412  22.092   0.851   2.407
33999W        W 6413  41.933  36.920   3.826
34000W        W 6414  18.578  20.729   4.325
34001W        W 6415  21.665  22.154   1.263
34002W        W 6416  11.368   9.338   0.394
34003W        W 6417  33.412   5.234   0.809
34004W        W 6418  32.908  42.444  10.917
34005W        W 6419  15.143  35.458  11.926
34006W        W 6420   6.732  25.174  11.067
34007W        W 6421  32.593  10.747  10.560
34008W        W 6422  32.045  20.615  14.880
34009W        W 6423  38.830  35.075   5.134
34010W        W 6424   7.788  23.584  11.014
34011W        W 6425   2.796  10.340  14.764
34012W        W 6426  12.613   2.393  10.960
34013W        W 6427   4.890   3.262  11.884
34014W        W 6428   4.802  21.057   3.195
34015W        W 6429  28.674  30.571   0.840
34016W        W 6430  20.168  12.232   4.155
34017W        W 6431   7.671  37.851   2.304
34018W        W 6432   5.288  38.528   4.163
34019W        W 6433  29.560  38.869  13.420
34020W        W 6434  17.778   6.717   0.337
34021W        W 6435  33.448  40.411  10.918
34022W        W 6436  16.141   7.305  10.484
34023W        W 6437   5.776  27.010   3.850
34024W        W 6438  34.017  12.360  13.439
34025W        W 6439   7.204  33.876  11.934
34026W        W 6440  36.938  28.082  12.995
34027W        W 6441  42.966  36.077   2.206
34028W        W 6442  24.721  38.422  13.358
34029W        W 6443  43.857  21.158   0.922
34030W        W 6444   8.306  36.564  11.885
34031W        W 6445  38.983  25.102   3.661
34032W        W 6446   9.869  22.684   3.314
34033W        W 6447  38.023  21.252  14.423
34034W        W 6448  20.540  43.288   9.509
34035W        W 6449  39.924  33.436   0.899
34036W        W 6450  26.656  28.093   4.141
34037W        W 6451   9.763   8.681   1.361
34038W        W 6452  25.010   4.852  14.937
34039W        W 6453  16.732   6.915   4.327
34040W        W 6454  12.719   7.703   0.864
34041W        W 6455  16.142  30.503   0.436
34042W        W 6456  21.076  10.658  12.876
34043W        W 6457  24.579  32.545  11.499
34044W        W 6458   3.242  27.504   2.669
34045W        W 6459   9.372  25.705   0.771
34046W        W 6460  39.447   4.749  10.112
34047W        W 6461  19.625  41.841   1.338
34048W        W 6462  23.701   3.763  13.854
34049W        W 6463  27.493  34.385  12.039
34050W        W 6464  37.975  42.377   2.369
34051W        W 6465  23.520   9.217   0.399
34052W        W 6466  38.975  12.717  12.506
34053W        W 6467   9.293  44.411  12.858
34054W        W 6468  18.750  36.866   1.922
34055W        W 6469  34.002  22.684  13.507
34056W        W 6470  10.145   2.855   1.310
34057W        W 6471  40.016  28.486   2.371
34058W        W 6472  24.209  35.996   1.715
34059W        W 6473  25.182  19.586  13.905
34060W        W 6474   9.779  24.575  13.961
34061W        W 6475  35.418  38.950  13.928
34062W        W 6476  13.237   9.274  10.071
34063W        W 6477  33.114  30.630  13.336
34064W        W 6478   2.326  12.144   2.827
34065W        W 6479   9.722  37.542  13.917
34066W        W 6480  13.736  33.921  12.506
34067W        W 6481   6.247  35.948  12.050
34068W        W 6482   5.215   3.276  14.909
34069W        W 6483  15.605   4.290  13.479
34070W        W 6484  31.100  30.106   1.375
34071W        W 6485   9.307  44.451   3.345
34072W        W 6486  23.112  18.704  11.480
34073W        W 6487  18.751  42.947   4.780
34074W        W 6488  17.726  24.015   0.852
34075W        W 6489  29.595  24.489   0.748
34076W        W 6490  38.075   2.941   2.258
34077W        W 6491  34.087   2.885   2.892
34078W        W 6492  43.988   6.271  13.494
34079W        W 6493  18.155   0.842  12.453
34080W        W 6494  30.491  30.934   1.446
34081W        W 6495  11.731   6.413   0.839
34082W        W 6496  11.692  38.461   4.184
34083W        W 6497  12.165  20.763  11.022
34084W        W 6498  19.095  11.126   0.884
34085W        W 6499  23.569  25.017   3.803
34086W        W 6500  28.083   7.719   0.412
34087W        W 6501  38.027   1.773  14.823
34088W        W 6502  10.825  19.705  10.451
34089W        W 6503  15.685   5.834   3.325
34090W        W 6504  30.593   3.829  12.402
34091W        W 6505  38.409  19.600  14.343
34092W        W 6506  21.731  43.434   1.378
34093W        W 6507  13.739  41.807  11.551
34094W        W 6508  13.174  38.983   4.196
34095W        W 6509  24.717   6.845  14.814
34096W        W 6510  16.183   4.837  13.980
34097W        W 6511  26.655  37.482  12.517
34098W        W 6512  23.552  29.439   4.700
34099W        W 6513  34.084   4.717  12.530
34100W        W 6514  33.912  11.333   0.752
34101W        W 6515  30.552  11.253   1.331
34102W        W 6516  22.525   3.437   1.853
34103W        W 6517  37.051  36.563   0.836
34104W        W 6518  11.848  37.371  13.930
34105W        W 6519  43.931  32.582  11.960
34106W        W 6520  13.836  37.352   1.764
34107W        W 6521  41.975  13.650  12.367
34108W        W 6522   8.742  21.681  14.958
34109W        W 6523   2.464  30.096  12.049
34110W        W 6524  28.501  13.787  10.599
34111W        W 6525   0.835  26.621   1.228
34112W        W 6526   7.201  18.188   4.709
34113W        W 6527  21.038  21.646   2.302
34114W        W 6528  36.477   3.280  10.009
34115W        W 6529   8.871   9.731  12.060
34116W        W 6530  44.326   2.453  11.444
34117W        W 6531  31.995   2.795   4.681
34118W        W 6532  26.499  11.348   4.145
34119W        W 6533   2.808  21.258  11.996
34120W        W 6534   3.859   3.768   3.867
34121W        W 6535  11.731  19.553  10.421
34122W        W 6536  32.075   7.860  12.967
34123W        W 6537  12.743  42.419   0.306
34124W        W 6538  38.339  12.178   2.664
34125W        W 6539  22.557   6.910  12.405
34126W        W 6540   9.806   0.287  10.590
34127W        W 6541  29.437  15.648   2.821
34128W        W 6542   2.805  11.163  13.028
34129W        W 6543  44.869  31.421  12.496
34130W        W 6544  17.274  13.122   4.744
34131W        W 6545  42.295  25.985  11.530
34132W        W 6546  26.573  15.266   3.785
34133W        W 6547  27.597  36.008  14.759
34134W        W 6548  27.554  27.024   3.354
34135W        W 6549   6.759  33.569  13.402
34136W        W 6550  31.954  33.489   3.273
34137W        W 6551   4.372  17.650   1.887
34138W        W 6552   7.806  23.524  12.532
34139W        W 6553  32.529  31.120  14.762
34140W        W 6554  12.352  33.122   1.755
34141W        W 6555  19.192  24.587   4.600
34142W        W 6556  14.155  29.103   3.267
34143W        W 6557  26.585  16.077   4.621
34144W        W 6558  28.600   7.721   1.229
34145W        W 6559   9.185  18.272   0.331
34146W        W 6560   1.472  28.471   0.736
34147W        W 6561   7.777  14.661  12.462
34148W        W 6562  17.191  26.570  12.082
34149W        W 6563  23.195   7.881  12.463
34150W        W 6564  41.791  14.101   1.369
34151W        W 6565   8.843  11.363  14.868
34152W        W 6566  23.648   4.319   4.278
34153W        W 6567   5.786  15.105   5.616
34154W        W 6568  22.744  28.970   4.150
34155W        W 6569  23.525   0.364  10.007
34156W        W 6570  36.541  23.180  10.087
34157W        W 6571  31.998  40.834  13.497
34158W        W 6572   4.918  35.556   2.400
34159W        W 6573  26.050  27.516   3.725
34160W        W 6574  33.072  26.048   1.346
34161W        W 6575  27.520   3.909  13.524
34162W        W 6576   5.723  34.403  12.004
34163W        W 6577   3.895  24.538  10.889
34164W        W 6578  40.323   1.350   3.802
34165W        W 6579  32.630   5.788  14.407
34166W        W 6580  24.086  15.811  12.554
34167W        W 6581  12.138  28.523   4.733
34168W        W 6582  23.685   5.918   0.389
34169W        W 6583  18.768   7.194  14.514
34170W        W 6584  43.471  25.127  11.962
34171W        W 6585   5.197  16.274  14.514
34172W        W 6586  19.657  17.622  14.815
34173W        W 6587  42.453   0.378  12.375
34174W        W 6588  15.706  35.364  12.983
34175W        W 6589  21.130   7.211  11.475
34176W        W 6590  19.663  37.533   1.427
34177W        W 6591   5.326  44.947  11.586
34178W        W 6592  44.889   7.687   2.182
34179W        W 6593   8.354  21.173   2.360
34180W        W 6594  13.254  31.614  11.888
34181W        W 6595  41.822  37.394  14.934
34182W        W 6596  30.919  44.280   2.793
34183W        W 6597  43.925  26.532  13.884
34184W        W 6598   1.857  10.779   2.699
34185W        W 6599   8.850  12.805   2.798
34186W        W 6600  36.384  13.744   3.862
34187W        W 6601  21.698  30.100   1.918
34188W        W 6602  42.356  41.882  12.981
34189W        W 6603   5.874  16.189  13.309
34190W        W 6604   0.863   1.406  10.962
34191W        W 6605  29.980  25.537   4.766
34192W        W 6606   0.480  14.724  14.396
34193W        W 6607  42.820  19.580   1.775
34194W        W 6608  20.529  34.947  13.851
34195W        W 6609   7.696   3.928   2.291
34196W        W 6610  16.137  11.228  11.962
34197W        W 6611  12.164  10.384   3.732
34198W        W 6612   8.875  24.656  12.574
34199W        W 6613  34.456  42.894   2.849
34200W        W 6614   2.892  14.258   5.286
34201W        W 6615  41.434  13.785  11.859
34202W        W 6616  15.816  30.492   1.857
34203W        W 6617  41.894  33.440  12.860
34204W        W 6618   2.922  18.742  12.963
34205W        W 6619  21.758  13.293  14.341
34206W        W 6620  32.060  38.484  11.890
34207W        W 6621  17.609  25.474   3.863
34208W        W 6622  36.057  20.561  13.441
34209W        W 6623  14.105  25.684   0.816
34210W        W 6624  16.173   1.798   4.737
34211W        W 6625   0.494  15.577  12.856
34212W        W 6626   0.920  39.945  14.480
34213W        W 6627  30.067  19.073  13.320
34214W        W 6628  36.589  20.667  11.374
34215W        W 6629   7.693  23.625  14.935
34216W        W 6630   6.904  22.713  13.986
34217W        W 6631  25.652  27.678  12.968
34218W        W 6632  40.320  25.582  11.099
34219W        W 6633  40.543  23.678   4.288
34220W        W 6634  33.984  35.925  13.425
34221W        W 6635   9.385  36.569  14.858
34222W        W 6636   6.865  21.627   2.259
34223W        W 6637  18.608  11.637   9.920
34224W        W 6638  31.565   4.924  11.086
34225W        W 6639  25.108  35.581  14.901
34226W        W 6640   0.282  30.940  11.563
34227W        W 6641   6.757  39.881  12.523
34228W        W 6642  29.069  12.721   4.303
34229W        W 6643  24.572  18.201   1.724
34230W        W 6644  16.188  22.053   0.248
34231W        W 6645  23.019  11.757   2.833
34232W        W 6646   7.846  28.449   1.933
34233W        W 6647  25.682  17.802  13.412
34234W        W 6648  28.476   8.248   4.615
34235W        W 6649  41.378  25.175   3.715
34236W        W 6650  26.618  43.508  12.059
34237W        W 6651  16.289  32.923  12.528
34238W        W 6652  15.623   8.725   4.217
34239W        W 6653  31.078  35.430   3.670
34240W        W 6654  26.958  41.803   0.750
34241W        W 6655  38.020   6.786  12.470
34242W        W 6656  24.979  16.742   3.817
34243W        W 6657  17.761  27.654   3.828
34244W        W 6658  23.712  44.807  13.385
34245W        W 6659  35.951  39.063  11.073
34246W        W 6660  34.612   4.899   4.268
34247W        W 6661  37.018  25.080   1.841
34248W        W 6662   4.394   6.371  13.795
34249W        W 6663  38.346  16.212  14.967
34250W        W 6664  28.092  31.075   4.760
34251W        W 6665  41.383  26.526  11.549
34252W        W 6666   0.889  31.927  11.921
34253W        W 6667  35.474  12.659  11.044
34254W        W 6668  27.043  38.889   0.759
34255W        W 6669   2.844  39.462  14.947
34256W        W 6670  37.076  13.317   1.712
34257W        W 6671  44.774  14.226  14.930
34258W        W 6672  38.930  32.089   3.831
34259W        W 6673  15.715  41.836   0.299
34260W        W 6674  10.819  12.183  11.029
34261W        W 6675  22.035  44.857   3.847
34262W        W 6676  29.497  38.553   4.264
34263W        W 6677   1.880   4.445   4.802
34264W        W 6678  28.124  19.578   3.241
34265W        W 6679  35.498  32.101   2.696
34266W        W 6680   8.222  41.447  11.582
34267W        W 6681  43.334  36.877  10.418
34268W        W 6682  26.053  39.839  12.984
34269W        W 6683  10.862  21.537  14.304
34270W        W 6684   2.338  18.164  13.046
34271W        W 6685  31.059  21.621  14.778
34272W        W 6686  29.485  38.415  10.548
34273W        W 6687  29.056  14.186   1.768
34274W        W 6688  23.117  12.717   1.379
34275W        W 6689  34.119   9.706  13.408
34276W        W 6690  29.424   7.342  13.431
34277W        W 6691  41.357  21.180  13.314
34278W        W 6692  34.454  27.140  12.935
34279W        W 6693  20.180  28.543   3.342
34280W        W 6694  44.952  21.206   0.860
34281W        W 6695  23.710  36.004  14.837
34282W        W 6696  16.290   2.323   0.344
34283W        W 6697  17.666  23.168   3.342
34284W        W 6698  33.609   7.331   2.209
34285W        W 6699  31.647  42.027  11.961
34286W        W 6700  34.960  34.988  12.922
34287W        W 6701  19.136  35.596   0.790
34288W        W 6702  31.042  18.745   4.602
34289W        W 6703  38.887  39.480   3.175
34290W        W 6704   2.788  38.982   3.221
34291W        W 6705   7.875  32.636  11.429
34292W        W 6706  10.778   6.839  12.409
34293W        W 6707  28.088  24.991   3.717
34294W        W 6708   7.721  18.771   2.859
34295W        W 6709  35.945  22.152   0.352
34296W        W 6710  36.571  28.033  12.453
34297W        W 6711  22.137  13.130   1.776
34298W        W 6712  17.767  16.299   1.879
34299W        W 6713  35.396  28.504  14.322
34300W        W 6714   9.882  14.280   2.322
34301W        W 6715  31.570  37.397  13.010
34302W        W 6716  44.497  44.462   2.783
34303W        W 6717  14.259  11.827  11.862
34304W        W 6718  32.044  39.408   3.636
34305W        W 6719  26.974  44.829  13.384
34306W        W 6720  10.842  34.485  10.497
34307W        W 6721  37.538  30.554  11.993
34308W        W 6722   0.788  21.525   3.221
34309W        W 6723  33.088  31.053   1.749
34310W        W 6724  27.563  40.048  11.496
34311W        W 6725  29.534   4.858   2.192
34312W        W 6726  10.251  40.020   3.758
34313W        W 6727  19.095  19.108  12.537
34314W        W 6728  10.146  39.983   1.411
34315W        W 6729   9.671  43.408   1.774
34316W        W 6730  31.943  34.603   3.712
34317W        W 6731  36.435  40.356   5.157
34318W        W 6732  18.280  34.546   0.821
34319W        W 6733  23.680   7.842   1.438
34320W        W 6734   1.772  32.394   0.808
34321W        W 6735  25.526  23.220  14.389
34322W        W 6736  24.716   2.362   3.269
34323W        W 6737  30.563  13.155  13.995
34324W        W 6738  12.179  16.245  14.819
34325W        W 6739  13.238  23.661   1.411
34326W        W 6740  11.247  33.924  14.904
34327W        W 6741  41.038  35.371   2.338
34328W        W 6742  19.056  16.688   3.336
34329W        W 6743  22.213  34.607   1.369
34330W        W 6744  31.927  20.086   2.383
34331W        W 6745   9.643  26.100  10.519
34332W        W 6746  28.057  35.395  14.401
34333W        W 6747  23.988  14.720   3.858
34334W        W 6748  29.658  34.575   2.692
34335W        W 6749  43.431  24.714  14.859
34336W        W 6750  30.136  16.209  13.890
34337W        W 6751  34.945  39.898   3.356
34338W        W 6752  42.429   6.188  11.420
34339W        W 6753   8.224  17.113   2.348
34340W        W 6754   2.298  36.045   0.427
34341W        W 6755  20.689   3.457   3.218
34342W        W 6756   8.324  10.369  14.976
34343W        W 6757  35.971  31.473  11.119
34344W        W 6758  14.622   9.654  14.775
34345W        W 6759  15.112  18.088   4.167
34346W        W 6760  11.354  27.635   1.773
34347W        W 6761  24.993  32.493   4.793
34348W        W 6762   3.843  30.973  12.518
34349W        W 6763  19.196  16.670   0.475
34350W        W 6764  39.867   1.825  12.953
34351W        W 6765  14.677  43.919   4.742
34352W        W 6766   2.959  31.555   0.255
34353W        W 6767  22.248  25.593   4.204
34354W        W 6768  42.331   3.388  12.887
34355W        W 6769  35.865  41.335   2.895
34356W        W 6770   8.200   5.238   0.264
34357W        W 6771  40.006   5.783   0.926
34358W        W 6772  35.021   0.989   4.170
34359W        W 6773  43.335  10.690  11.516
34360W        W 6774  25.983  36.510  13.859
34361W        W 6775   0.274  28.500   1.871
34362W        W 6776  38.546  31.599   4.638
34363W        W 6777  17.573  13.719   0.417
34364W        W 6778  33.606   3.455   1.802
34365W        W 6779  13.194  16.272  10.442
34366W        W 6780  12.684  16.607   0.408
34367W        W 6781  35.954   5.925   4.171
34368W        W 6782  28.467   4.769  10.494
34369W        W 6783  11.751  24.680   0.848
34370W        W 6784   9.746  11.665  12.424
34371W        W 6785  10.870  18.164  13.483
34372W        W 6786   8.766  44.936  12.364
34373W        W 6787  30.587  30.443  10.932
34374W        W 6788  39.440  10.362   3.158
34375W        W 6789   9.150   9.851   2.807
34376W        W 6790  17.258   2.451  12.367
34377W        W 6791  29.552  43.493   4.770
34378W        W 6792  23.689  33.992  11.579
34379W        W 6793  42.477  17.780  13.974
34380W        W 6794  43.484  17.762   2.327
34381W        W 6795   0.382  25.109  13.002
34382W        W 6796  37.030  20.041  13.041
34383W        W 6797  12.709   3.868   3.704
34384W        W 6798  40.426  42.465  11.977
34385W        W 6799  14.624  36.534   4.689
34386W        W 6800   5.720  19.051  11.006
34387W        W 6801  18.709  20.606   2.756
34388W        W 6802  26.193  22.649  14.875
34389W        W 6803  35.949   1.349  13.921
34390W        W 6804  22.162  16.581   3.259
34391W        W 6805  26.636   1.839   2.407
34392W        W 6806  35.529  43.451   3.315
34393W        W 6807  13.303  34.979  14.365
34394W        W 6808  22.173  30.512   3.735
34395W        W 6809  35.421   6.705   1.276
34396W        W 6810  35.448  40.534   3.301
34397W        W 6811  43.417  19.618  13.000
34398W        W 6812  13.652  12.279   1.349
34399W        W 6813  35.511  20.269  14.015
34400W        W 6814   9.702  31.143  11.039
34401W        W 6815  31.068  17.640  14.443
34402W        W 6816  28.587  28.037  13.887
34403W        W 6817   6.336  28.631   3.196
34404W        W 6818  12.260   4.249   3.273
34405W        W 6819  26.459  14.130  11.499
34406W        W 6820  24.582  16.675   3.212
34407W        W 6821   6.851  13.292   2.874
34408W        W 6822  25.976  11.184  14.451
34409W        W 6823  15.166   8.812   2.746
34410W        W 6824   5.714  14.166   2.326
34411W        W 6825   8.405   2.455  11.968
34412W        W 6826  30.640  17.217  14.373
34413W        W 6827  39.522   7.729  14.814
34414W        W 6828  42.333  13.610   3.216
34415W        W 6829  29.949  31.550   2.363
34416W        W 6830  15.125  38.444   0.948
34417W        W 6831  25.597  36.381  10.952
34418W        W 6832   7.261   6.333  11.129
34419W        W 6833  42.392   3.934  12.450
34420W        W 6834  25.082  26.014   1.319
34421W        W 6835  10.777  36.383  13.058
34422W        W 6836  35.045  26.099  14.923
34423W        W 6837  28.570   6.363  10.529
34424W        W 6838  11.238  13.675   0.406
34425W        W 6839  31.595   1.347   4.213
34426W        W 6840  43.366  16.183  12.836
34427W        W 6841  10.646  24.566  13.391
34428W        W 6842  23.122  29.600   1.723
34429W        W 6843   5.395  35.447   3.674
34430W        W 6844   7.890   2.768   2.178
34431W        W 6845  18.760  10.713  10.897
34432W        W 6846  29.642  35.876   2.397
34433W        W 6847  32.054  39.388   2.226
34434W        W 6848  15.680   9.670  14.452
34435W        W 6849  40.914  28.541   3.634
34436W        W 6850  22.593  28.463  12.425
34437W        W 6851  13.346  41.956   4.790
34438W        W 6852  19.701   9.323  12.339
34439W        W 6853  25.181  20.270   2.303
34440W        W 6854   2.300  42.449   4.341
34441W        W 6855   8.345   1.429  11.986
34442W        W 6856   0.275  26.150   1.758
34443W        W 6857  22.724  27.083  10.547
34444W        W 6858   7.396  26.500   5.282
34445W        W 6859  24.585   9.170   1.363
34446W        W 6860   0.904  28.634   2.734
34447W        W 6861  20.716  18.237  14.788
34448W        W 6862   4.785   0.926   4.828
34449W        W 6863   8.760   7.360   2.363
34450W        W 6864   4.944  23.197   0.819
34451W        W 6865  12.314  20.575   4.285
34452W        W 6866  37.548  40.904   0.251
34453W        W 6867   6.835  31.106   4.837
34454W        W 6868  43.428  21.026  12.436
34455W        W 6869  14.615   3.347   1.909
34456W        W 6870  13.333  15.778   4.173
34457W        W 6871  28.675  15.110   0.422
34458W        W 6872   1.439  44.272  13.800
34459W        W 6873  25.009  19.616   1.882
34460W        W 6874  33.065   4.283   3.785
34461W        W 6875  11.805  36.017   1.838
34462W        W 6876   3.340   9.235   2.776
34463W        W 6877   0.346  27.957  12.485
34464W        W 6878   1.393  41.818  11.124
34465W        W 6879  39.330  39.994  14.884
34466W        W 6880  21.241  43.916  12.038
34467W        W 6881   6.238  36.534   2.849
34468W        W 6882  42.338  31.488   1.451
34469W        W 6883  39.903  42.354   1.781
34470W        W 6884  24.178  26.075  10.497
34471W        W 6885  34.096  29.559   2.883
34472W        W 6886   8.247  19.695   1.210
34473W        W 6887  29.933  17.217   2.186
34474W        W 6888  19.162  41.840   3.744
34475W        W 6889  26.527  26.586   2.677
34476W        W 6890  43.462  44.925   4.179
34477W        W 6891  16.171   4.881  13.426
34478W        W 6892  42.474  24.073  11.400
34479W        W 6893  36.358  20.189  13.359
34480W        W 6894  23.623  25.046  10.553
34481W        W 6895  12.305   6.244   0.338
34482W        W 6896  38.899  29.043   1.720
34483W        W 6897  43.430  36.948   3.316
34484W        W 6898  34.599   4.710  13.010
34485W        W 6899  43.936  37.447  12.374
34486W        W 6900  36.894  31.628  11.085
34487W        W 6901  11.793   1.240   2.359
34488W        W 6902  17.565  44.776  12.954
34489W        W 6903  39.051   3.247  13.916
34490W        W 6904   6.194  23.556   2.351
34491W        W 6905  10.204  40.017   4.634
34492W        W 6906   7.394  40.436   0.420
34493W        W 6907   7.692  30.972   4.791
34494W        W 6908  40.025  43.961  13.464
34495W        W 6909  14.692  43.944   2.184
34496W        W 6910   0.461  43.785   2.698
34497W        W 6911   6.358  32.035  12.497
34498W        W 6912   4.763  42.933  13.529
34499W        W 6913  19.690  33.892  11.037
34500W        W 6914   9.165  40.435   3.840
34501W        W 6915   5.730  14.111  13.014
34502W        W 6916  31.941  12.333  14.284
34503W        W 6917   9.203  30.612  13.983
34504W        W 6918  31.986  31.462   0.323
34505W        W 6919   3.856  23.062  11.079
34506W        W 6920   7.726   1.338   1.933
34507W        W 6921   7.874  22.009  10.432
34508W        W 6922  41.868  20.703   3.802
34509W        W 6923  36.426   0.815  14.294
34510W        W 6924   3.869  20.753  14.996
34511W        W 6925  21.539  25.670  11.094
34512W        W 6926  12.809  29.944   4.340
34513W        W 6927  12.304  43.345  12.016
34514W        W 6928  19.146  12.281   4.242
34515W        W 6929  15.726  32.064   0.382
34516W        W 6930   2.953  37.880   2.285
34517W        W 6931   5.419  39.455  11.875
34518W        W 6932  14.269  37.423   3.727
34519W        W 6933  33.023  14.706   2.403
34520W        W 6934  42.451  39.544  12.090
34521W        W 6935   9.721  14.628  12.390
34522W        W 6936  33.903  21.148  10.420
34523W        W 6937  22.205   5.248   4.634
34524W        W 6938  43.317  27.118   0.944
34525W        W 6939  26.637   6.403   3.646
34526W        W 6940   4.234  22.722   1.860
34527W        W 6941  44.481  28.455   3.720
34528W        W 6942  19.746  13.604  10.643
34529W        W 6943  10.250  38.367   0.337
34530W        W 6944   5.777  16.233  12.467
34531W        W 6945   6.696   5.349  14.473
34532W        W 6946  42.498  27.195  11.070
34533W        W 6947  41.949  15.234   1.296
34534W        W 6948  10.317  32.917   2.863
34535W        W 6949  39.816  37.422   2.686
34536W        W 6950   1.443  12.210  11.022
34537W        W 6951  30.990  41.936  12.079
34538W        W 6952  33.383  19.122  11.599
34539W        W 6953  35.091  27.009   2.775
34540W        W 6954   7.368  22.028  12.343
34541W        W 6955  32.581  34.950   4.792
34542W        W 6956  31.428   9.796  13.536
34543W        W 6957  10.377   9.317  12.498
34544W        W 6958  40.542  30.417  14.852
34545W        W 6959   7.319  38.374  13.415
34546W        W 6960  13.611  39.390   1.780
34547W        W 6961  34.417  31.123   3.731
34548W        W 6962   5.889  39.019  14.411
34549W        W 6963  31.457   0.380  13.333
34550W        W 6964   0.837  28.128  13.491
34551W        W 6965  16.302   9.246  13.336
34552W        W 6966   4.721   6.416  14.476
34553W        W 6967  37.921  11.176   3.379
34554W        W 6968   2.404  37.895   2.885
34555W        W 6969   3.341  24.116   0.905
34556W        W 6970  16.746  28.061   2.867
34557W        W 6971  39.858  44.931   0.895
34558W        W 6972  11.289  34.973   0.945
34559W        W 6973  17.062   1.418  10.470
34560W        W 6974  14.232  27.179   4.675
34561W        W 6975  10.199  44.424   2.719
34562W        W 6976  34.428  41.913   4.295
34563W        W 6977  30.964  16.700   4.755
34564W        W 6978   5.844   2.253  13.010
34565W        W 6979  31.466  33.120   3.345
34566W        W 6980   4.213  12.667   4.195
34567W        W 6981   9.777  25.050  13.868
34568W        W 6982  14.096  22.709  10.417
34569W        W 6983  17.686  22.190  10.542
34570W        W 6984  13.122   9.217   5.769
34571W        W 6985  27.451  40.993   4.598
34572W        W 6986   1.355  38.473   4.345
34573W        W 6987   8.699  13.287   1.746
34574W        W 6988  40.540   9.250   1.842
34575W        W 6989  34.979  33.477  11.980
34576W        W 6990  14.296  30.024   0.803
34577W        W 6991  25.085  44.407   4.176
34578W        W 6992  41.433  12.249  10.912
34579W        W 6993   3.839  29.964  11.524
34580W        W 6994  12.320  15.304  12.930
34581W        W 6995  33.473  36.969  13.033
34582W        W 6996  12.680  44.960  11.601
34583W        W 6997  44.347  32.469   4.599
34584W        W 6998  19.172   1.322  11.120
34585W        W 6999   2.441  32.412   2.215
34586W        W 7000  17.682  11.633  13.346
34587W        W 7001  14.759  27.195  10.410
34588W        W 7002   2.401  23.007   2.214
34589W        W 7003  16.213   8.327   4.677
34590W        W 7004   4.707  41.966   4.230
34591W        W 7005  41.381  13.213  12.507
34592W        W 7006   1.326  18.239  14.457
34593W        W 7007  25.013  33.936  10.904
34594W        W 7008  11.295  44.929   0.924
34595W        W 7009  44.440  14.738   2.300
34596W        W 7010   0.970  24.536  10.995
34597W        W 7011  28.677  19.703   2.218
34598W        W 7012  22.533  20.207  14.372
34599W        W 7013  22.575  34.891  14.955
34600W        W 7014  30.619  27.485   0.873
34601W        W 7015  38.900   1.459  12.942
34602W        W 7016  30.920   8.661   2.813
34603W        W 7017  37.399   4.925  14.840
34604W        W 7018  24.568  40.907  14.946
34605W        W 7019  25.556   1.372  14.447
34606W        W 7020  12.265  38.516  14.802
34607W        W 7021   3.801  24.208  13.803
34608W        W 7022  29.653   1.321   4.817
34609W        W 7023  37.871  41.961  14.993
34610W        W 7024  34.445  29.141   1.772
34611W        W 7025  14.183  34.388   3.826
34612W        W 7026  42.385  28.078  13.925
34613W        W 7027  44.352  35.967   1.720
34614W        W 7028  17.581  27.967  13.546
34615W        W 7029  34.940  33.933  14.375
34616W        W 7030  10.824  22.211  11.070
34617W        W 7031   7.699  43.937  11.544
34618W        W 7032  15.166  19.548   2.182
34619W        W 7033  35.513  17.700   0.943
34620W        W 7034  36.357  27.557  11.494
34621W        W 7035  43.341  16.798  11.373
34622W        W 7036  25.209  19.135  11.383
34623W        W 7037  28.616  20.628   4.243
34624W        W 7038  35.383   9.834  14.797
34625W        W 7039   8.319  39.345  11.077
34626W        W 7040   0.977  43.004   0.927
34627W        W 7041  37.469  32.562   1.868
34628W        W 7042  34.543  11.855   4.190
34629W        W 7043  24.185  14.238  10.603
34630W        W 7044   0.369  32.399  11.499
34631W        W 7045  17.221  35.996  12.003
34632W        W 7046  34.902   1.781   2.903
34633W        W 7047  21.147   1.333  14.829
34634W        W 7048  20.050  30.968   1.844
34635W        W 7049  32.927   2.862  12.413
34636W        W 7050  20.599   0.361  12.999
34637W        W 7051  39.040  35.377   4.267
34638W        W 7052   6.680   3.829   4.795
34639W        W 7053  39.936  33.051   1.330
34640W        W 7054   6.263  29.611  11.079
34641W        W 7055   3.427  39.535  12.944
34642W        W 7056  23.070  24.981  11.997
34643W        W 7057  23.620  13.159  13.321
34644W        W 7058  42.973   7.860   1.371
34645W        W 7059  27.457   2.819  14.445
34646W        W 7060   8.211  23.196   0.744
34647W        W 7061  39.858   7.338  13.438
34648W        W 7062  16.214   6.405  11.943
34649W        W 7063  17.563  22.206  12.561
34650W        W 7064  30.519  36.008  14.914
34651W        W 7065  15.133   3.245   3.372
34652W        W 7066  15.190  37.390   0.886
34653W        W 7067  25.605  35.052  13.486
34654W        W 7068  42.292  40.526   4.188
34655W        W 7069  32.965  17.674  11.936
34656W        W 7070  20.703  27.611   3.188
34657W        W 7071  23.579  22.599   2.857
34658W        W 7072   0.843  28.136  13.040
34659W        W 7073  10.254   8.692   3.692
34660W        W 7074  13.681  27.962   0.930
34661W        W 7075   5.261  19.607   0.448
34662W        W 7076  21.183  22.050  14.287
34663W        W 7077  41.320  16.568  11.437
34664W        W 7078   6.716  34.570   4.667
34665W        W 7079  34.436  14.627  14.906
34666W        W 7080  28.997  27.994   3.866
34667W        W 7081   5.875  18.557   2.875
34668W        W 7082  15.721   6.804   1.339
34669W        W 7083  16.225  27.605  14.971
34670W        W 7084  36.882   2.874  14.400
34671W        W 7085  22.249  39.506  11.966
34672W        W 7086  10.199   4.724   3.293
34673W        W 7087   8.199  15.205  14.423
34674W        W 7088  40.548  29.098  12.829
34675W        W 7089  25.194  18.111   4.232
34676W        W 7090  11.766  23.152   2.747
34677W        W 7091  41.992   1.427   2.854
34678W        W 7092   4.790   6.851  13.883
34679W        W 7093  30.426   4.300   3.702
34680W        W 7094  28.672  22.066   3.263
34681W        W 7095  11.344   9.189  13.322
34682W        W 7096  11.733  43.391   0.903
34683W        W 7097   5.217   1.765   4.290
34684W        W 7098  33.026  14.196   2.833
34685W        W 7099  39.022  23.133  13.953
34686W        W 7100  26.543  21.577  11.890
34687W        W 7101  42.000  18.711  12.861
34688W        W 7102  21.253   8.678  13.917
34689W        W 7103  36.563   0.879   0.389
34690W        W 7104  40.520   8.660  11.472
34691W        W 7105   4.818  24.009  13.423
34692W        W 7106   0.469   1.922   1.907
34693W        W 7107   2.312  25.557   1.856
34694W        W 7108   9.357  39.868  13.341
34695W        W 7109  44.001  37.050   0.949
34696W        W 7110  26.701  43.450   4.791
34697W        W 7111  28.961  11.841   2.258
34698W        W 7112  40.890  14.260   2.326
34699W        W 7113  16.750  44.304   4.782
34700W        W 7114   1.265  29.006  10.483
34701W        W 7115  32.573  41.528   4.782
34702W        W 7116  19.251   0.381   9.607
34703W        W 7117  33.383  33.036  13.003
34704W        W 7118  37.842   8.810  13.307
34705W        W 7119   0.888  31.133  13.467
34706W        W 7120   4.419   8.326   0.283
34707W        W 7121  16.264   1.841  10.631
34708W        W 7122  27.530  27.122  11.594
34709W        W 7123  40.988  22.207  14.386
34710W        W 7124  14.646   8.768   3.274
34711W        W 7125  33.400  43.798   3.729
34712W        W 7126  30.130  22.555   3.307
34713W        W 7127  11.771  14.769   3.734
34714W        W 7128  44.277  14.205   4.269
34715W        W 7129   2.399  28.450   1.349
34716W        W 7130  43.366  20.723   1.230
34717W        W 7131  10.332  24.665   2.226
34718W        W 7132  16.169  15.780  11.894
34719W        W 7133   4.386  10.190  10.502
34720W        W 7134  14.615   4.443  12.073
34721W        W 7135   9.829  12.684   2.243
34722W        W 7136   9.375  17.095   0.948
34723W        W 7137   4.756  36.092   0.778
34724W        W 7138  19.590  33.379   0.805
34725W        W 7139  40.993  17.293   3.171
34726W        W 7140   9.833  41.837   0.870
34727W        W 7141  28.103  17.579   4.260
34728W        W 7142  34.932   7.681   3.841
34729W        W 7143  17.121   1.937  12.352
34730W        W 7144  39.340  33.460   3.197
34731W        W 7145  23.566  37.951   1.234
34732W        W 7146  15.297  13.183  11.570
34733W        W 7147  12.276  30.481   3.755
34734W        W 7148  13.734   2.905   4.666
34735W        W 7149  14.619  16.097   2.395
34736W        W 7150  43.945  29.027   4.259
34737W        W 7151   4.294  19.707  11.555
34738W        W 7152  40.494  35.456  12.907
34739W        W 7153  11.712  19.574   4.685
34740W        W 7154   5.363  19.682   5.085
34741W        W 7155   7.332  23.595   0.312
34742W        W 7156  37.478  29.006  13.827
34743W        W 7157  37.893  16.248   0.850
34744W        W 7158  18.213  32.970  13.326
34745W        W 7159  34.602  42.308  12.534
34746W        W 7160  21.649  36.085   1.869
34747W        W 7161  20.062  38.966  14.815
34748W        W 7162  24.481  13.751  11.901
34749W        W 7163   1.254  22.232  14.971
34750W        W 7164  21.128  31.562  12.916
34751W        W 7165  34.589  15.615  13.820
34752W        W 7166  16.770  42.318   3.301
34753W        W 7167  18.120   2.262   2.210
34754W        W 7168  11.695  38.484  13.349
34755W        W 7169   5.274  41.479  14.325
34756W        W 7170  39.386  39.528   1.730
34757W        W 7171  18.161   9.392   2.318
34758W        W 7172  18.588  38.478  13.952
34759W        W 7173   5.795  14.737  10.966
34760W        W 7174  16.759  15.192   2.883
34761W        W 7175  41.454   9.728  14.335
34762W        W 7176   2.373  33.596   4.790
34763W        W 7177  19.087   4.788   3.659
34764W        W 7178  14.154  11.820   2.805
34765W        W 7179  43.347  19.218   2.665
34766W        W 7180   6.786  15.106   2.759
34767W        W 7181  19.556  19.638  12.929
34768W        W 7182  41.987  33.883  13.382
34769W        W 7183  27.100  20.212  12.443
34770W        W 7184  35.360  43.415  14.511
34771W        W 7185  14.176  32.953   4.215
34772W        W 7186  17.689  12.792  11.502
34773W        W 7187  28.960  24.666   3.359
34774W        W 7188  43.413  17.061   9.963
34775W        W 7189  11.836  30.556   0.471
34776W        W 7190  27.615  10.215   2.846
34777W        W 7191  22.245  17.237  12.535
34778W        W 7192  15.164  31.123   1.817
34779W        W 7193  33.484  43.932   1.312
34780W        W 7194   4.937  21.664   3.314
34781W        W 7195  34.108  43.819  11.535
34782W        W 7196   8.769   7.735   3.350
34783W        W 7197   4.431  43.438  10.076
34784W        W 7198   4.918  25.580   5.292
34785W        W 7199   0.283  18.738  13.435
34786W        W 7200  44.339  34.540   3.243
34787W        W 7201  39.350  25.173   0.846
34788W        W 7202  29.107  31.896  11.540
34789W        W 7203  26.158  36.491  12.885
34790W        W 7204  11.839  33.596  12.095
34791W        W 7205  42.375   0.461   4.155
34792W        W 7206  29.480  31.622   2.900
34793W        W 7207  27.044   5.240   2.339
34794W        W 7208  28.127  19.146   4.268
34795W        W 7209  31.121   5.927   4.666
34796W        W 7210  31.568  14.108  14.456
34797W        W 7211   9.281  41.975  10.448
34798W        W 7212  44.463   6.865  11.414
34799W        W 7213  30.439  32.480   3.865
34800W        W 7214  26.110  23.240   3.312
34801W        W 7215   7.781  23.570  10.413
34802W        W 7216  32.613  17.116   1.346
34803W        W 7217  13.711  35.925  11.533
34804W        W 7218  31.525   5.198  11.434
34805W        W 7219  42.392  12.761  12.042
34806W        W 7220   4.917   0.908  11.066
34807W        W 7221  18.169  34.372   0.342
34808W        W 7222  38.961  17.759  10.408
34809W        W 7223  44.812  24.699   3.680
34810W        W 7224  41.980  37.844   2.852
34811W        W 7225  26.687  23.172   0.454
34812W        W 7226  17.800  20.234   3.817
34813W        W 7227   7.303  24.227   1.291
34814W        W 7228  12.779  19.220   3.165
34815W        W 7229  31.464  13.258  11.925
34816W        W 7230  36.015  40.474   0.955
34817W        W 7231  13.295  12.629  11.958
34818W        W 7232  20.189  20.691  13.044
34819W        W 7233  25.144   4.392  13.319
34820W        W 7234  43.491  34.541  13.037
34821W        W 7235   1.809   4.403  14.390
34822W        W 7236   1.379  36.040  13.421
34823W        W 7237  24.996  21.606  12.550
34824W        W 7238  21.684  40.888   2.304
34825W        W 7239  14.710   6.328  12.844
34826W        W 7240   3.319  14.777   5.779
34827W        W 7241  29.656  26.024  12.976
34828W        W 7242   1.913   8.679  11.468
34829W        W 7243  22.022  40.928   0.750
34830W        W 7244  26.618   3.233  14.369
34831W        W 7245  38.427  22.624   0.401
34832W        W 7246  25.017  10.258   2.338
34833W        W 7247  17.125   9.855   0.348
34834W        W 7248  33.958   8.268   2.211
34835W        W 7249  38.442  14.261   4.700
34836W        W 7250  25.983  15.199   2.193
34837W        W 7251  27.455   7.346   3.792
34838W        W 7252  29.518  32.115  14.973
34839W        W 7253  23.986  28.978  13.510
34840W        W 7254  44.809  43.493  14.877
34841W        W 7255  38.354  11.767   2.759
34842W        W 7256  33.529  28.662   1.764
34843W        W 7257   0.356  38.922   1.341
34844W        W 7258  41.803  38.467   4.759
34845W        W 7259   8.857  14.307   1.354
34846W        W 7260  32.618  29.534   2.862
34847W        W 7261   5.315  44.339   1.313
34848W        W 7262  16.153  38.329   3.862
34849W        W 7263  28.606  22.141  13.836
34850W        W 7264   7.853  12.624   2.700
34851W        W 7265  10.650   5.376   4.653
34852W        W 7266  44.961  15.173   3.644
34853W        W 7267  24.065  14.160  13.475
34854W        W 7268  36.532  36.025   0.938
34855W        W 7269  25.140   1.292  11.493
34856W        W 7270   3.360   5.861  13.482
34857W        W 7271  24.118   6.698  13.830
34858W        W 7272  17.598   5.367  12.960
34859W        W 7273  18.253  38.905   2.256
34860W        W 7274   5.316  26.480   0.472
34861W        W 7275  15.778   9.228  14.761
34862W        W 7276   8.358  20.749   1.243
34863W        W 7277  13.191  19.566   2.279
34864W        W 7278  11.230   8.187  11.011
34865W        W 7279   5.320  34.942  10.917
34866W        W 7280   2.463   5.203  14.491
34867W        W 7281  24.570  14.229  11.519
34868W        W 7282  36.964  44.798   3.695
34869W        W 7283  37.958  38.419   2.370
34870W        W 7284  17.066  16.732   1.773
34871W        W 7285  22.026  34.492   0.437
34872W        W 7286  32.142  26.652  14.946
34873W        W 7287  38.339  44.402   3.682
34874W        W 7288  24.575  29.668  12.441
34875W        W 7289  23.689  19.702   0.289
34876W        W 7290  30.124  38.564   2.850
34877W        W 7291  13.763   4.236   4.122
34878W        W 7292  31.628  32.961  12.939
34879W        W 7293   4.214   5.772  14.424
34880W        W 7294  42.818  34.471  10.109
34881W        W 7295  23.110  20.535   2.311
34882W        W 7296  39.377  32.539  11.961
34883W        W 7297  12.740   7.861   4.155
34884W        W 7298  28.599  23.018  12.377
34885W        W 7299  10.222  41.486  12.523
34886W        W 7300  11.221   3.459   5.262
34887W        W 7301  34.502  33.463   2.264
34888W        W 7302  10.734   3.740  11.929
34889W        W 7303   3.760  22.141   0.383
34890W        W 7304  43.807   0.752  14.323
34891W        W 7305  10.737   7.225   3.869
34892W        W 7306  43.968  33.410   2.413
34893W        W 7307  37.046  44.324  10.989
34894W        W 7308  24.517  41.787  10.405
34895W        W 7309  22.562  21.204  10.484
34896W        W 7310  29.990  38.436  11.104
34897W        W 7311  21.698  25.145  14.380
34898W        W 7312  23.186  30.917   4.342
34899W        W 7313  38.888  25.160  10.959
34900W        W 7314  11.642  23.590   2.864
34901W        W 7315   5.233  40.456  14.508
34902W        W 7316  33.907   5.399  11.036
34903W        W 7317   7.821   2.886   2.851
34904W        W 7318  40.801  19.576  14.487
34905W        W 7319   4.244  39.853  14.419
34906W        W 7320  30.578  26.701  12.940
34907W        W 7321  20.129  23.018  13.541
34908W        W 7322  29.046   4.859   2.903
34909W        W 7323  35.578  33.522  14.991
34910W        W 7324   3.334  26.693   0.860
34911W        W 7325  16.803  33.588  13.447
34912W        W 7326  13.768   8.891   1.275
34913W        W 7327  13.714  18.266   3.831
34914W        W 7328  39.933  14.262  12.447
34915W        W 7329  24.171  38.433   0.397
34916W        W 7330  42.781  26.639   9.937
34917W        W 7331  10.187   2.348   3.815
34918W        W 7332  44.394   0.418  11.863
34919W        W 7333  15.723  14.612  10.955
34920W        W 7334   9.708  41.446   0.915
34921W        W 7335  34.966  37.053   4.271
34922W        W 7336  15.263  27.677   4.716
34923W        W 7337  28.179  10.174   2.785
34924W        W 7338  22.162  39.548  10.505
34925W        W 7339  34.044   2.273  14.364
34926W        W 7340   7.887  35.007   2.793
34927W        W 7341  41.297  41.039   3.378
34928W        W 7342  40.469  23.684   3.232
34929W        W 7343  43.974  34.072  14.421
34930W        W 7344  32.594  11.773  11.924
34931W        W 7345   9.204  32.450   2.663
34932W        W 7346  16.076  25.998   1.918
34933W        W 7347  41.983  33.507   2.248
34934W        W 7348   4.844  39.912   5.573
34935W        W 7349   0.250  39.341  13.387
34936W        W 7350  40.913  17.665   3.261
34937W        W 7351  27.970  39.907  12.927
34938W        W 7352  24.712  42.447  13.364
34939W        W 7353  30.995  34.083  13.991
34940W        W 7354  18.087  33.557  10.078
34941W        W 7355  32.110  17.206  13.003
34942W        W 7356  42.367   9.367  11.491
34943W        W 7357  30.958  35.382  13.905
34944W        W 7358   3.298  27.486  12.411
34945W        W 7359  25.047  33.020  13.456
34946W        W 7360  21.250  32.897  13.308
34947W        W 7361  29.665   7.687   0.958
34948W        W 7362   1.914  37.486   4.740
34949W        W 7363  38.842  25.996  13.013
34950W        W 7364  20.120  24.563   3.868
34951W        W 7365   2.291  41.907  14.304
34952W        W 7366  16.575  23.051  10.957
34953W        W 7367  27.039  21.717   4.774
34954W        W 7368  24.608   1.294   2.348
34955W        W 7369  17.581   0.262  14.283
34956W        W 7370  23.196  28.012   2.740
34957W        W 7371  41.306  10.780   4.223
34958W        W 7372   3.935  38.515  14.936
34959W        W 7373  38.360  28.025  12.917
34960W        W 7374  18.688  29.025  12.417
34961W        W 7375   6.723  27.483   2.901
34962W        W 7376  35.859   7.278  12.074
34963W        W 7377   7.330  43.335   2.754
34964W        W 7378   1.901  25.638   0.951
34965W        W 7379   9.742  40.539  12.453
34966W        W 7380   9.169   7.790   3.687
34967W        W 7381  38.494  32.953   5.172
34968W        W 7382   4.385   9.239   3.726
34969W        W 7383  11.357   7.738   4.338
34970W        W 7384  17.661   7.235   1.746
34971W        W 7385  25.034  13.258  14.398
34972W        W 7386  35.908  16.180  13.349
34973W        W 7387  41.399   8.296  12.067
34974W        W 7388   3.753  41.519   3.274
34975W        W 7389  25.097  41.817   3.747
34976W        W 7390  15.586  17.067  12.859
34977W        W 7391   6.771  14.242  14.278
34978W        W 7392  21.121  30.593   4.740
34979W        W 7393  21.087   9.650   2.259
34980W        W 7394  29.632   3.241   2.344
34981W        W 7395  13.773  32.563   4.151
34982W        W 7396  24.671  38.356   0.821
34983W        W 7397  28.046  11.642  13.536
34984W        W 7398  15.750  44.945   1.869
34985W        W 7399  19.131  38.875   2.736
34986W        W 7400  16.679  17.769   4.800
34987W        W 7401  20.047   3.754   0.911
34988W        W 7402  43.315  28.444   3.156
34989W        W 7403  19.278  28.083   3.329
34990W        W 7404  22.235  23.108   4.731
34991W        W 7405  33.447  42.928  11.056
34992W        W 7406  39.907  22.103   1.227
34993W        W 7407   1.329  33.426  12.375
34994W        W 7408   4.369  38.517   1.823
34995W        W 7409  34.002   7.908   4.792
34996W        W 7410  10.155  15.750   3.294
34997W        W 7411  38.333  30.085   2.772
34998W        W 7412   3.947  19.132   0.352
34999W        W 7413  41.815  43.386   2.728
35000W        W 7414  16.080  10.833   0.423
35001W        W 7415  19.770  38.975  11.124
35002W        W 7416  14.331  44.914  14.403
35003W        W 7417  15.085  13.669   1.863
35004W        W 7418   8.285  43.782  10.556
35005W        W 7419  25.027  30.955   1.357
35006W        W 7420  37.942  38.834   2.778
35007W        W 7421  37.359   2.416   1.730
35008W        W 7422   2.288  12.651  13.548
35009W        W 7423  20.578   8.345   3.227
35010W        W 7424  32.976  35.064   1.258
35011W        W 7425  42.872  29.483   0.353
35012W        W 7426  28.023  22.067   0.830
35013W        W 7427  25.700  28.956   0.898
35014W        W 7428   8.751  39.051   5.283
35015W        W 7429  11.739  33.881  10.471
35016W        W 7430  40.936  18.200   3.221
35017W        W 7431  14.307  37.989  11.126
35018W        W 7432   7.385  31.453   0.770
35019W        W 7433   9.327  26.993   4.728
35020W        W 7434  26.586  14.639   5.104
35021W        W 7435  42.342  41.398  12.976
35022W        W 7436   7.819  20.586  12.016
35023W        W 7437  30.413  27.654  12.375
35024W        W 7438  17.098   9.381   3.386
35025W        W 7439  32.432   1.291   2.319
35026W        W 7440  19.670   4.205  11.992
35027W        W 7441  34.521  27.453  11.083
35028W        W 7442  24.115   0.413   2.742
35029W        W 7443  19.054  21.175   1.354
35030W        W 7444  17.755  40.453  12.937
35031W        W 7445  32.393  22.746   4.255
35032W        W 7446  34.986   3.843  13.977
35033W        W 7447  24.479  26.991   2.270
35034W        W 7448  42.845  19.173   4.638
35035W        W 7449   7.710  12.652  13.024
35036W        W 7450  29.154   7.321   1.802
35037W        W 7451  13.106  11.735  10.615
35038W        W 7452  34.459   5.312  14.933
35039W        W 7453  20.678   5.209  12.470
35040W        W 7454   7.852  16.226   0.422
35041W        W 7455  10.212  40.026  13.969
35042W        W 7456  41.471   6.811  10.577
35043W        W 7457  14.618  25.523   3.724
35044W        W 7458  13.301  32.447  11.047
35045W        W 7459  18.129   5.361  11.519
35046W        W 7460  23.074  36.482  11.928
35047W        W 7461   7.837  39.005  11.467
35048W        W 7462  28.154  29.168  12.911
35049W        W 7463  11.261  28.603   0.879
35050W        W 7464   6.835  40.020   3.721
35051W        W 7465  32.941   6.829  11.980
35052W        W 7466  41.355  10.763   1.352
35053W        W 7467   7.349   8.168  12.523
35054W        W 7468   3.726  12.152   1.217
35055W        W 7469  27.153  15.215  14.488
35056W        W 7470  41.937  34.448  14.862
35057W        W 7471   0.269   2.759   3.374
35058W        W 7472   3.251  29.995   0.366
35059W        W 7473  20.688   4.299   4.141
35060W        W 7474  41.488  35.880  11.897
35061W        W 7475  28.529  30.990  12.018
35062W        W 7476   5.412  15.625   2.891
35063W        W 7477  17.749  39.498  11.492
35064W        W 7478  30.453  10.690   3.351
35065W        W 7479   8.779  12.350  14.385
35066W        W 7480  44.974  11.728  11.090
35067W        W 7481   0.783  34.969  13.857
35068W        W 7482   1.790   6.824  14.031
35069W        W 7483  43.270   1.338  14.828
35070W        W 7484  19.060  20.539   1.337
35071W        W 7485   1.239  20.189  13.851
35072W        W 7486  24.605  16.727  11.035
35073W        W 7487  24.979  26.013   0.938
35074W        W 7488  30.431  20.170  10.901
35075W        W 7489   7.237  12.273   2.295
35076W        W 7490  24.648   1.331   5.714
35077W        W 7491  14.274  28.545  12.954
35078W        W 7492  32.002  24.038  11.878
35079W        W 7493  32.918  15.233  11.562
35080W        W 7494  14.681  33.575   4.202
35081W        W 7495   5.262  24.562   1.407
35082W        W 7496  20.598  25.502   1.252
35083W        W 7497  31.502  33.118  13.806
35084W        W 7498   6.383  40.039   3.643
35085W        W 7499  26.196  33.498  14.300
35086W        W 7500   0.769  40.899   3.830
35087W        W 7501  33.465  25.146   9.997
35088W        W 7502  29.933   7.294   0.892
35089W        W 7503  23.641  42.373  13.030
35090W        W 7504  13.212  44.474  10.550
35091W        W 7505   4.256  13.685  13.929
35092W        W 7506   2.428   3.867   2.259
35093W        W 7507   8.166  20.629  10.585
35094W        W 7508  34.889  15.149  14.841
35095W        W 7509  15.641   6.891  13.467
35096W        W 7510   1.769  10.640  11.908
35097W        W 7511  22.553  33.588   0.956
35098W        W 7512   0.324  20.264   3.182
35099W        W 7513   0.946  16.254   0.378
35100W        W 7514   2.772  39.374   3.378
35101W        W 7515  16.299  19.189   0.461
35102W        W 7516   5.435  35.421  11.451
35103W        W 7517   9.260   4.717   4.272
35104W        W 7518  21.133  23.037   2.285
35105W        W 7519  31.945  29.138   4.236
35106W        W 7520   3.817  24.483   2.867
35107W        W 7521  37.459  29.433  12.074
35108W        W 7522  37.965  35.585   5.230
35109W        W 7523  11.808  21.239   2.313
35110W        W 7524  31.020  15.683  12.015
35111W        W 7525  12.188  10.204  14.941
35112W        W 7526  35.876  17.266   1.901
35113W        W 7527  22.601  15.228  13.493
35114W        W 7528  30.622  17.232  11.032
35115W        W 7529  19.152  39.436  10.564
35116W        W 7530  17.156  23.651  10.623
35117W        W 7531  31.628  10.749  11.102
35118W        W 7532   7.273  10.774  14.431
35119W        W 7533  24.691  40.860   0.749
35120W        W 7534  31.646  17.273   2.294
35121W        W 7535  24.190  27.103  12.026
35122W        W 7536  21.712  27.006  11.863
35123W        W 7537   3.382  41.016   3.387
35124W        W 7538  21.041  17.600  13.453
35125W        W 7539  14.205   5.812  14.867
35126W        W 7540  21.090  25.490  13.013
35127W        W 7541  38.399   6.760   2.358
35128W        W 7542   2.838   6.335  12.080
35129W        W 7543   9.786  15.780  10.435
35130W        W 7544  16.247  17.298  14.974
35131W        W 7545  38.862  15.325  14.472
35132W        W 7546   3.392  30.161   2.791
35133W        W 7547  36.027  43.822  13.376
35134W        W 7548  36.419  41.368  11.034
35135W        W 7549  14.783  17.626  12.453
35136W        W 7550  37.865  40.541  12.384
35137W        W 7551  15.301   6.811  14.473
35138W        W 7552   3.406  17.237   1.285
35139W        W 7553  27.142   0.437   4.314
35140W        W 7554  41.842  24.083   0.450
35141W        W 7555  28.640  11.650  12.898
35142W        W 7556   2.754  14.192   1.812
35143W        W 7557  44.455  41.856   4.131
35144W        W 7558  31.107  27.519  14.342
35145W        W 7559   5.692  40.918   0.468
35146W        W 7560   9.762  20.054   3.711
35147W        W 7561  14.190  27.085  10.464
35148W        W 7562   2.932  23.076   2.724
35149W        W 7563  29.469  19.062  13.886
35150W        W 7564   6.845   6.917   1.290
35151W        W 7565  18.641  36.926  10.511
35152W        W 7566   1.849  22.092   4.603
35153W        W 7567  30.082  25.533  11.603
35154W        W 7568  20.188  15.247   1.424
35155W        W 7569  37.995  39.837   1.733
35156W        W 7570  30.917  36.045   4.225
35157W        W 7571  19.228   1.925  11.503
35158W        W 7572  37.483   2.326  14.428
35159W        W 7573  21.700   5.258  12.067
35160W        W 7574  29.931  34.087   1.858
35161W        W 7575  25.981  17.560  13.498
35162W        W 7576   8.199  34.965   1.282
35163W        W 7577  33.942  23.086  13.969
35164W        W 7578  36.419   3.796   0.732
35165W        W 7579  34.874   0.339   4.807
35166W        W 7580  17.079  16.137  11.921
35167W        W 7581   0.402   4.386   1.432
35168W        W 7582  38.965  38.983  13.992
35169W        W 7583  26.077  30.081   4.249
35170W        W 7584  28.168  38.408  11.533
35171W        W 7585   8.745   0.354  10.105
35172W        W 7586  26.066   3.913  13.442
35173W        W 7587  19.684  15.824   3.151
35174W        W 7588   6.685  43.936  12.831
35175W        W 7589  31.073  10.257  14.906
35176W        W 7590   1.753  42.405   1.861
35177W        W 7591  14.820  34.893  11.593
35178W        W 7592   6.785   8.347  14.950
35179W        W 7593  40.020  10.271  13.439
35180W        W 7594  11.719  33.039   0.316
35181W        W 7595  38.471  22.659   1.215
35182W        W 7596  26.063  16.590   0.889
35183W        W 7597   3.318  23.533  14.817
35184W        W 7598   7.882  23.620   2.806
35185W        W 7599   3.839  26.604   2.753
35186W        W 7600  38.054  44.439   4.824
35187W        W 7601  36.536  26.625   2.774
35188W        W 7602  14.708  17.577  11.909
35189W        W 7603   6.774  21.045   3.788
35190W        W 7604  41.405  20.541   4.811
35191W        W 7605   6.268  28.041  13.419
35192W        W 7606  32.139  34.923  13.895
35193W        W 7607  29.060  27.492   0.337
35194W        W 7608  10.331  32.888   4.784
35195W        W 7609  38.909   1.953  12.005
35196W        W 7610  15.586  23.672   4.644
35197W        W 7611  17.089  37.871  11.602
35198W        W 7612  28.160  21.199   1.326
35199W        W 7613  24.590  22.226  14.503
35200W        W 7614  30.919  36.454  12.096
35201W        W 7615  30.138  33.418   2.197
35202W        W 7616  37.966  39.941  13.514
35203W        W 7617  14.185  22.669   1.928
35204W        W 7618  14.335  15.757  10.496
35205W        W 7619   9.693   5.833   3.815
35206W        W 7620  29.951  22.181  11.881
35207W        W 7621  22.189   7.180   2.901
35208W        W 7622   3.901  12.680   1.279
35209W        W 7623  12.787  29.538  10.965
35210W        W 7624  26.111   3.360  11.532
35211W        W 7625  20.074  10.301  10.043
35212W        W 7626  19.596   8.812  13.504
35213W        W 7627  13.647   6.298  11.590
35214W        W 7628  42.431  30.056   2.251
35215W        W 7629  11.729  36.465   0.831
35216W        W 7630  44.999  35.955  14.910
35217W        W 7631  37.413  37.888   2.217
35218W        W 7632   1.934  16.231   0.846
35219W        W 7633  38.329  31.493   0.470
35220W        W 7634  14.788  26.500   3.379
35221W        W 7635  21.629  23.050  10.949
35222W        W 7636   4.361  41.301   1.308
35223W        W 7637  20.680  25.013   3.807
35224W        W 7638   3.416  39.937  11.077
35225W        W 7639   9.817  14.287  12.876
35226W        W 7640  14.188  42.309  14.871
35227W        W 7641  17.214   5.394   2.776
35228W        W 7642  44.290  23.238   2.203
35229W        W 7643  34.407   6.779   2.834
35230W        W 7644  30.976  13.293  13.524
35231W        W 7645  37.941  23.545   2.279
35232W        W 7646  39.880  26.182  12.950
35233W        W 7647  34.042   2.387   3.641
35234W        W 7648  14.242   6.281   4.806
35235W        W 7649  23.006  44.492  10.444
35236W        W 7650  14.591  10.748   4.678
35237W        W 7651  44.494  23.547  14.932
35238W        W 7652  36.917  26.062   1.296
35239W        W 7653   6.823  27.446   0.386
35240W        W 7654  35.416  16.627   4.743
35241W        W 7655   7.201  34.046   2.867
35242W        W 7656  35.571   7.182   3.636
35243W        W 7657   3.237  39.960  14.325
35244W        W 7658  22.035  26.662  13.985
35245W        W 7659   3.286  27.135  14.425
35246W        W 7660  32.541   3.304   2.698
35247W        W 7661  16.747  17.568   1.318
35248W        W 7662  24.703  43.957   3.370
35249W        W 7663  37.939  26.522  12.445
35250W        W 7664  30.612   9.818   1.324
35251W        W 7665   2.900  13.277   4.181
35252W        W 7666  12.229   1.395   2.404
35253W        W 7667  37.015  40.965  12.413
35254W        W 7668   6.354  40.936   2.778
35255W        W 7669  27.055  26.977   4.812
35256W        W 7670  34.546  26.033   0.834
35257W        W 7671  14.148  15.188   0.313
35258W        W 7672   9.835  18.679  10.465
35259W        W 7673   3.411   2.871  11.580
35260W        W 7674  44.877   1.918   1.815
35261W        W 7675  33.548  25.039  11.530
35262W        W 7676  13.331  28.678  13.900
35263W        W 7677  20.688  12.734   4.722
35264W        W 7678  16.684  32.510  12.932
35265W        W 7679   8.282  18.296   2.818
35266W        W 7680   2.728  30.969   2.183
35267W        W 7681  19.711  25.514   4.301
35268W        W 7682  44.961  35.383  11.527
35269W        W 7683  12.345  16.645   2.663
35270W        W 7684   5.820  29.080  12.838
35271W        W 7685  12.677  41.409  13.796
35272W        W 7686   7.351  16.216  13.446
35273W        W 7687  26.205  35.077  11.404
35274W        W 7688  10.321   2.929  14.324
35275W        W 7689  17.285   6.366   2.880
35276W        W 7690  34.957  36.877   4.689
35277W        W 7691  33.996   3.955  13.021
35278W        W 7692  16.100   7.722   0.747
35279W        W 7693  23.539  21.700   0.276
35280W        W 7694   5.809  44.008   4.298
35281W        W 7695   3.294  40.049   2.219
35282W        W 7696  10.217  17.690   2.378
35283W        W 7697  34.375  34.883   2.693
35284W        W 7698  35.089  21.051   4.348
35285W        W 7699   2.399   6.330   4.223
35286W        W 7700  41.505   3.413   0.791
35287W        W 7701  36.538   9.168  10.638
35288W        W 7702   6.266   9.821  11.857
35289W        W 7703  20.028  44.413   4.608
35290W        W 7704  36.513  42.995  13.962
35291W        W 7705  24.977  39.556   4.619
35292W        W 7706   1.767  27.972  14.928
35293W        W 7707  27.450   0.284   2.879
35294W        W 7708  31.435  43.292   3.726
35295W        W 7709  33.107  31.952  13.528
35296W        W 7710   3.931   6.291   0.937
35297W        W 7711  40.922  10.212   1.783
35298W        W 7712  10.328  18.090  13.998
35299W        W 7713  27.959  34.951   5.298
35300W        W 7714  35.941   8.804   0.447
35301W        W 7715  23.006  27.106  11.408
35302W        W 7716  10.788   7.816   2.687
35303W        W 7717   2.314  27.051  10.617
35304W        W 7718  30.088  24.538  11.420
35305W        W 7719  34.506   9.884   2.208
35306W        W 7720   9.776  35.879   4.281
35307W        W 7721  28.934  40.817   3.772
35308W        W 7722   8.844   6.906  13.453
35309W        W 7723   3.857  23.691   5.311
35310W        W 7724   0.275  16.231   3.380
35311W        W 7725  37.988  17.751  11.397
35312W        W 7726   0.284   6.762   0.965
35313W        W 7727  27.012  30.413  11.860
35314W        W 7728  31.430  29.027   3.855
35315W        W 7729  21.633   9.210   1.323
35316W        W 7730   5.336  16.076   0.413
35317W        W 7731  42.343  21.146  11.087
35318W        W 7732  15.621  24.106   3.670
35319W        W 7733  44.271  39.816  10.597
35320W        W 7734  32.556  35.536   1.857
35321W        W 7735   7.749   6.308  12.022
35322W        W 7736  33.395   9.709  11.913
35323W        W 7737  22.040  26.107   0.865
35324W        W 7738  43.280  14.200  14.844
35325W        W 7739  19.570   2.875   2.250
35326W        W 7740  25.143  44.332   1.769
35327W        W 7741  21.190   7.766   5.305
35328W        W 7742  27.184  11.192   0.819
35329W        W 7743  29.669   3.235   3.744
35330W        W 7744   3.765   8.376  12.429
35331W        W 7745  18.546  10.270   4.618
35332W        W 7746  42.305  24.647   1.902
35333W        W 7747  44.883  39.417   1.801
35334W        W 7748  34.955  31.082   1.909
35335W        W 7749  33.032  33.996   0.261
35336W        W 7750  11.354   5.793   3.734
35337W        W 7751  30.979   9.698  11.097
35338W        W 7752  22.565  10.713   3.159
35339W        W 7753   6.357   6.235  14.506
35340W        W 7754  11.838  33.509  12.990
35341W        W 7755  10.221   0.826  11.930
35342W        W 7756  29.557  42.349  14.842
35343W        W 7757  32.591  26.601  10.915
35344W        W 7758  16.286  39.951   2.286
35345W        W 7759  43.895  24.155  14.926
35346W        W 7760  32.098  19.644   1.321
35347W        W 7761  15.314   3.855  10.591
35348W        W 7762  36.584  21.642   4.155
35349W        W 7763   3.239  13.604   2.890
35350W        W 7764  29.564  17.627  10.440
35351W        W 7765  38.423  16.683  13.836
35352W        W 7766  41.890   5.392   1.926
35353W        W 7767  36.450  33.024   5.296
35354W        W 7768  16.680  11.680  11.592
35355W        W 7769  12.273  33.078  14.820
35356W        W 7770   4.860  11.280  12.341
35357W        W 7771  24.028  36.590  13.428
35358W        W 7772  13.145  27.193   4.737
35359W        W 7773  19.739   2.451   1.358
35360W        W 7774  28.029   3.332  14.400
35361W        W 7775  41.393   1.781  10.566
35362W        W 7776  16.666   4.700  12.885
35363W        W 7777  36.916   7.298  11.613
35364W        W 7778  33.005  21.603  10.135
35365W        W 7779  18.593   7.211   4.772
35366W        W 7780  28.089  40.951  14.864
35367W        W 7781   0.972  31.036   9.971
35368W        W 7782  23.497  12.212   4.818
35369W        W 7783  30.153  30.493  10.626
35370W        W 7784  33.931  28.676  11.921
35371W        W 7785  14.797  44.841  13.920
35372W        W 7786   0.802   1.244  14.501
35373W        W 7787  34.587   2.338   3.792
35374W        W 7788   6.919  16.290  14.773
35375W        W 7789  18.119  27.490   1.263
35376W        W 7790   9.354  29.127   2.244
35377W        W 7791   2.901   2.394  13.882
35378W        W 7792  24.077   5.310  13.529
35379W        W 7793  21.513   0.383  14.974
35380W        W 7794  16.268  35.997  14.471
35381W        W 7795  24.106  30.005   3.381
35382W        W 7796  12.295  37.503   3.782
35383W        W 7797  26.532   1.251   3.340
35384W        W 7798  14.300   8.779  11.528
35385W        W 7799   3.308  41.413   2.758
35386W        W 7800  16.129   6.294  10.914
35387W        W 7801  27.038  13.119  13.875
35388W        W 7802  21.633  22.501  13.412
35389W        W 7803  29.527   3.218  10.069
35390W        W 7804  25.980  21.582  13.376
35391W        W 7805  30.034  17.169  12.504
35392W        W 7806  43.421   4.916  11.078
35393W        W 7807  19.276  24.722   3.250
35394W        W 7808  36.000  18.257  14.811
35395W        W 7809   1.410  12.670  14.892
35396W        W 7810  28.982  17.600  14.359
35397W        W 7811   0.364   8.332   0.836
35398W        W 7812  16.165  31.548   1.266
35399W        W 7813  44.287  32.012  11.613
35400W        W 7814  13.199  28.125   3.255
35401W        W 7815  28.561  12.153  13.962
35402W        W 7816  16.106   0.311  12.499
35403W        W 7817  20.165   9.710   1.429
35404W        W 7818  32.528  39.344  13.435
35405W        W 7819  34.444  13.779  13.007
35406W        W 7820  39.048  21.566  14.797
35407W        W 7821   1.259  20.549  10.582
35408W        W 7822  29.646  33.610  12.961
35409W        W 7823   7.847   0.248  10.602
35410W        W 7824  27.507  40.415  10.978
35411W        W 7825  27.019  28.092   9.968
35412W        W 7826  27.194  21.702   0.263
35413W        W 7827  21.618  39.990  10.581
35414W        W 7828  27.103  21.741  10.444
35415W        W 7829  31.144  20.769  14.846
35416W        W 7830  39.427  36.505   1.704
35417W        W 7831  21.748  32.504   0.316
35418W        W 7832   8.252  12.336   2.295
35419W        W 7833   5.772  40.048  11.983
35420W        W 7834   8.176  37.429  12.574
35421W        W 7835  17.692   8.216   1.791
35422W        W 7836  37.339  34.609   5.083
35423W        W 7837  33.430  38.449  12.360
35424W        W 7838  18.097  21.139   1.216
35425W        W 7839  32.397   5.277  13.996
35426W        W 7840   1.849  24.684   1.216
35427W        W 7841  26.572  23.166   4.180
35428W        W 7842   0.348  24.068  11.961
35429W        W 7843  23.667  30.074  11.449
35430W        W 7844  11.159  26.487  12.493
35431W        W 7845   8.776  12.207   1.702
35432W        W 7846  43.449  15.109   2.225
35433W        W 7847  21.529  33.534   4.639
35434W        W 7848  37.582  30.658   4.342
35435W        W 7849  42.387   6.799   3.779
35436W        W 7850   5.815  13.809  13.425
35437W        W 7851  31.998  18.061  11.857
35438W        W 7852  19.201  14.624   0.245
35439W        W 7853  13.231  13.761   1.222
35440W        W 7854  12.284  18.126   4.179
35441W        W 7855   4.206   6.424  12.340
35442W        W 7856  29.014   4.912  13.444
35443W        W 7857   2.367   5.199  14.016
35444W        W 7858  32.072  36.583   5.196
35445W        W 7859   9.781  35.870   3.848
35446W        W 7860  43.486  43.950  14.761
35447W        W 7861   9.329   9.654  10.521
35448W        W 7862   7.184  41.986   4.171
35449W        W 7863   1.956  20.569  14.760
35450W        W 7864  17.723  28.444   0.771
35451W        W 7865  23.554  18.135   1.223
35452W        W 7866  43.017   3.423  12.541
35453W        W 7867  40.996   0.261   1.351
35454W        W 7868  10.645  43.302   3.790
35455W        W 7869  15.267   5.886   9.948
35456W        W 7870  11.762  12.618   3.322
35457W        W 7871  17.600  31.502  12.504
35458W        W 7872   3.833   0.260   4.613
35459W        W 7873  33.457   3.752   1.441
35460W        W 7874  28.045  32.082  10.901
35461W        W 7875  13.202  19.675   1.288
35462W        W 7876  12.218   9.349  13.369
35463W        W 7877   6.758  20.727  11.931
35464W        W 7878  39.404  36.064  14.452
35465W        W 7879  25.109  33.048   4.206
35466W        W 7880  18.068   9.866   0.470
35467W        W 7881  24.207  12.644   2.203
35468W        W 7882   9.177  11.724  13.856
35469W        W 7883  40.877  36.851  14.987
35470W        W 7884  13.250  33.964   2.202
35471W        W 7885  28.118  19.633   2.364
35472W        W 7886  37.503  31.549   3.858
35473W        W 7887   3.819  29.593  11.115
35474W        W 7888  15.678   2.767   4.792
35475W        W 7889  19.554  41.403   0.375
35476W        W 7890  27.077  21.044   4.778
35477W        W 7891  38.838   6.332  10.434
35478W        W 7892  32.577  16.649  12.884
35479W        W 7893   0.941  17.212  11.568
35480W        W 7894  34.403   2.938  12.981
35481W        W 7895  13.113  44.956  14.959
35482W        W 7896   2.298  34.946  13.912
35483W        W 7897  44.954  37.903   4.620
35484W        W 7898  29.076   2.842  14.283
35485W        W 7899  11.238   8.760  12.461
35486W        W 7900  15.306  38.955  10.474
35487W        W 7901  43.013  26.628   5.311
35488W        W 7902   7.391  34.987  14.338
35489W        W 7903  12.710  40.548  12.040
35490W        W 7904  27.979  44.910   3.355
35491W        W 7905  31.056  43.823  11.434
35492W        W 7906  25.991   8.395  11.922
35493W        W 7907  42.922  38.341   2.774
35494W        W 7908   5.278   1.908  13.985
35495W        W 7909  39.428  39.826   0.276
35496W        W 7910   3.836  33.968   3.713
35497W        W 7911   1.304  38.935  11.458
35498W        W 7912  32.925  34.537  13.422
35499W        W 7913  36.400  16.158  13.533
35500W        W 7914  41.977  33.965  10.623
35501W        W 7915  38.979  20.182   3.631
35502W        W 7916  32.998  36.903  12.530
35503W        W 7917  17.264  39.056  14.962
35504W        W 7918  12.688  26.569  14.370
35505W        W 7919  31.536  37.862   2.847
35506W        W 7920  39.010   7.898  10.952
35507W        W 7921  37.909  21.559  13.379
35508W        W 7922   8.373  25.127   1.865
35509W        W 7923  20.216  26.185  12.524
35510W        W 7924  25.179  22.221   4.771
35511W        W 7925  26.582  44.939   2.760
35512W        W 7926   3.748  39.825  14.331
35513W        W 7927  20.156  19.616  12.480
35514W        W 7928  37.550  25.167  11.590
35515W        W 7929  33.497  26.617  14.925
35516W        W 7930  37.873  13.156   2.419
35517W        W 7931   1.978  43.383   2.746
35518W        W 7932   9.884   6.204   2.276
35519W        W 7933  34.414  41.986   3.220
35520W        W 7934  33.570  17.784   3.847
35521W        W 7935  18.088   5.796   0.834
35522W        W 7936  28.488  42.952  14.839
35523W        W 7937  25.093  20.126   1.403
35524W        W 7938  43.967  31.558   4.671
35525W        W 7939   0.828  11.328  14.772
35526W        W 7940  22.517  29.062  11.386
35527W        W 7941  26.037  37.002  11.586
35528W        W 7942  35.411  29.085  10.992
35529W        W 7943  23.542  15.824   1.310
35530W        W 7944  20.188  40.954   2.395
35531W        W 7945  20.073  41.369  14.366
35532W        W 7946   7.355  44.788   1.260
35533W        W 7947   6.334  42.491  11.974
35534W        W 7948  44.756  39.008   1.846
35535W        W 7949  37.909  17.682   3.246
35536W        W 7950  35.529  12.132  10.583
35537W        W 7951  39.418  24.621  13.533
35538W        W 7952  31.125  36.496   2.179
35539W        W 7953  37.348  16.137  10.908
35540W        W 7954  34.007  38.519  11.972
35541W        W 7955  11.358  39.896   0.302
35542W        W 7956  33.993  17.185  14.832
35543W        W 7957  10.245  36.357  14.834
35544W        W 7958  20.718  43.275  12.061
35545W        W 7959  20.757  11.270   3.756
35546W        W 7960  39.516  42.460  12.895
35547W        W 7961  19.779  38.420   1.882
35548W        W 7962  33.389  30.921   4.114
35549W        W 7963  18.191  20.065  13.967
35550W        W 7964  14.644  36.485   0.420
35551W        W 7965  14.134  41.027  13.438
35552W        W 7966   0.332   8.668  14.864
35553W        W 7967  10.735  15.609  13.015
35554W        W 7968  35.013  43.414   4.819
35555W        W 7969  29.953  17.161  12.913
35556W        W 7970  35.522  44.295   2.265
35557W        W 7971  30.009  43.913  12.469
35558W        W 7972  11.136  29.649   2.895
35559W        W 7973  36.378   5.789  11.886
35560W        W 7974  27.011  13.267  12.902
35561W        W 7975  16.615  30.956   3.309
35562W        W 7976  41.444  42.031   2.688
35563W        W 7977   0.948  38.885   3.363
35564W        W 7978   7.854  14.336   1.314
35565W        W 7979  20.552  13.708  11.950
35566W        W 7980  44.763  43.966  11.071
35567W        W 7981  27.131  21.090   3.698
35568W        W 7982   5.393  31.896  10.103
35569W        W 7983   8.302   6.192  14.893
35570W        W 7984  37.425  37.355  14.817
35571W        W 7985  16.130  25.517  13.480
35572W        W 7986  31.633   3.301  13.998
35573W        W 7987  21.727  24.991   1.931
35574W        W 7988  44.779  31.621  14.447
35575W        W 7989  13.106   9.764   1.702
35576W        W 7990  35.370  10.801  11.041
35577W        W 7991  40.967  21.262  13.512
35578W        W 7992  18.050  33.022  12.434
35579W        W 7993  38.330   3.909  12.859
35580W        W 7994  18.708  34.090  12.440
35581W        W 7995   1.306  19.280  14.773
35582W        W 7996  30.952  21.205   0.440
35583W        W 7997  16.100  18.062   1.221
35584W        W 7998  20.239  26.646   1.882
35585W        W 7999  33.086  38.950  11.899
35586W        W 8000  17.699   8.897   0.450
35587W        W 8001  23.178  14.826  14.922
35588W        W 8002  10.200  29.573   1.229
35589W        W 8003  30.026  11.861  10.972
35590W        W 8004  39.536  31.925   2.332
35591W        W 8005  37.969  27.957  13.940
35592W        W 8006  42.817  37.025   0.352
35593W        W 8007   1.268   4.285   4.192
35594W        W 8008  38.427  33.529   1.755
35595W        W 8009  16.756  16.706   0.381
35596W        W 8010  15.206   6.889  10.591
35597W        W 8011  24.485   5.336   4.663
35598W        W 8012  15.095  25.015   4.718
35599W        W 8013   0.413  36.056   0.247
35600W        W 8014   2.954  44.813   3.834
35601W        W 8015  24.142  16.666  13.379
35602W        W 8016  23.604   7.354   3.222
35603W        W 8017   1.476   0.345  13.882
35604W        W 8018  27.540  44.384  11.091
35605W        W 8019   1.309  43.943   1.446
35606W        W 8020  13.211  22.730   3.870
35607W        W 8021  27.497   0.296  14.022
35608W        W 8022   6.802   3.344   1.230
35609W        W 8023  35.513   0.335  14.907
35610W        W 8024   5.361  36.537  13.818
35611W        W 8025  33.948  21.087   0.381
35612W        W 8026  33.941  38.561   3.854
35613W        W 8027  10.372   0.371   3.655
35614W        W 8028  41.522   7.856  12.358
35615W        W 8029  33.975  30.067   4.295
35616W        W 8030  40.400  31.466   4.340
35617W        W 8031  32.391  35.556   0.257
35618W        W 8032   6.274  33.897  13.877
35619W        W 8033  11.859  43.792  14.341
35620W        W 8034  19.047  13.743   3.669
35621W        W 8035  35.465  27.960   3.350
35622W        W 8036   9.189  12.199  12.521
35623W        W 8037   4.267   0.837   4.820
35624W        W 8038  25.047   0.438   4.295
35625W        W 8039  31.129  42.032   2.225
35626W        W 8040  21.104  36.971  14.793
35627W        W 8041  44.769  43.960   3.272
35628W        W 8042  15.633  15.262   0.901
35629W        W 8043  24.494  33.415   4.260
35630W        W 8044  33.036  41.879   2.835
35631W        W 8045   1.452  41.828   2.178
35632W        W 8046   4.794  41.001   2.798
35633W        W 8047   9.806  22.207   0.901
35634W        W 8048  28.978  40.465   0.772
35635W        W 8049  18.079  37.368   0.907
35636W        W 8050  34.069  36.024  12.564
35637W        W 8051  27.464  40.481   4.705
35638W        W 8052   8.887  11.770  12.350
35639W        W 8053  36.571   0.487   2.876
35640W        W 8054  11.308   0.807   0.811
35641W        W 8055  39.886  21.732   1.867
35642W        W 8056  13.837  12.209  12.889
35643W        W 8057  44.950  11.685   2.780
35644W        W 8058  32.911   0.933   0.362
35645W        W 8059   7.276   6.724  11.524
35646W        W 8060  24.679  23.723   3.837
35647W        W 8061  15.723  36.924  10.639
35648W        W 8062  21.622  10.242   1.379
35649W        W 8063  16.301  33.388  11.573
35650W        W 8064  27.004   2.910  12.877
35651W        W 8065  41.513   6.698  14.994
35652W        W 8066  43.981  21.640  13.801
35653W        W 8067  26.980  37.049  12.418
35654W        W 8068  38.329   1.296   3.385
35655W        W 8069  27.498  10.219   1.708
35656W        W 8070  17.566  16.660  14.763
35657W        W 8071   2.335   9.827  11.385
35658W        W 8072  14.795  39.942   2.369
35659W        W 8073   2.963  30.924  10.448
35660W        W 8074  17.085  14.807  13.888
35661W        W 8075  38.339  31.076   3.672
35662W        W 8076   2.403   3.878  12.373
35663W        W 8077   2.431   6.854   1.287
35664W        W 8078  28.044  18.269  14.852
35665W        W 8079  36.386  28.677  14.763
35666W        W 8080  30.029  19.549   0.754
35667W        W 8081  12.807  18.698   1.330
35668W        W 8082  29.517   2.861   4.327
35669W        W 8083  30.645   1.368   0.480
35670W        W 8084  34.079  29.057  13.543
35671W        W 8085  36.581  40.863  14.316
35672W        W 8086  28.480  15.249   3.359
35673W        W 8087   1.911  27.046  10.973
35674W        W 8088  23.514  25.558  13.427
35675W        W 8089  40.466  20.266  13.011
35676W        W 8090  24.646  15.302  13.546
35677W        W 8091  22.538  10.250   3.806
35678W        W 8092  20.041  22.694  13.510
35679W        W 8093  37.080  31.071   1.360
35680W        W 8094  21.212  28.609  13.439
35681W        W 8095   7.320  41.875   3.283
35682W        W 8096  11.282  10.252  11.447
35683W        W 8097   8.294  25.709   3.694
35684W        W 8098  11.621  10.876  14.005
35685W        W 8099  35.881  10.800   1.259
35686W        W 8100  32.989  37.472   3.851
35687W        W 8101  10.639   1.483   2.231
35688W        W 8102  34.404  38.878  12.836
35689W        W 8103   2.390  36.958   2.364
35690W        W 8104   5.388  28.450   4.147
35691W        W 8105   9.649  32.506   1.395
35692W        W 8106  35.447  35.582  12.092
35693W        W 8107  36.944  23.028  14.782
35694W        W 8108  31.545   3.255   1.702
35695W        W 8109   7.853  27.516  12.023
35696W        W 8110  38.988  30.072   3.225
35697W        W 8111   3.948  21.539   2.307
35698W        W 8112  20.542  40.896   0.785
35699W        W 8113  30.461  40.394  10.412
35700W        W 8114  13.238   3.215   2.252
35701W        W 8115  37.081  12.358   2.759
35702W        W 8116  35.551   4.731  12.911
35703W        W 8117  26.598  27.100  14.351
35704W        W 8118  22.730  25.160  14.819
35705W        W 8119   8.729  26.972   5.186
35706W        W 8120  23.512  41.309  10.591
35707W        W 8121  34.455  37.505   1.908
35708W        W 8122  24.657   5.201   1.280
35709W        W 8123   6.294  11.228   3.695
35710W        W 8124  37.875  24.070   1.399
35711W        W 8125  33.943  27.147  12.530
35712W        W 8126  34.414  18.789   3.311
35713W        W 8127   2.729  20.707   1.351
35714W        W 8128  27.493  13.207   4.796
35715W        W 8129   7.675   7.303   2.877
35716W        W 8130   1.848  42.885   0.942
35717W        W 8131  34.424  35.432   4.158
35718W        W 8132  10.747  39.502   2.771
35719W        W 8133  35.510  13.314  10.918
35720W        W 8134  18.769  39.016   2.391
35721W        W 8135  18.279  10.725   3.300
35722W        W 8136  43.854  25.145   2.373
35723W        W 8137   2.251  38.904  11.487
35724W        W 8138  15.598   3.892  10.983
35725W        W 8139  13.145  27.511  10.471
35726W        W 8140  10.840  10.696  14.387
35727W        W 8141  22.695  30.641   4.625
35728W        W 8142   5.435  41.369  10.936
35729W        W 8143   9.728  18.074  11.069
35730W        W 8144  31.530  30.007   3.702
35731W        W 8145  12.215   3.310  11.073
35732W        W 8146  26.048  44.467  14.509
35733W        W 8147  43.991   4.419  10.521
35734W        W 8148  42.807  23.189   3.810
35735W        W 8149  20.701  25.635   3.193
35736W        W 8150  37.904  11.688   3.834
35737W        W 8151  44.301  37.011   4.253
35738W        W 8152  17.669   2.775   4.683
35739W        W 8153  25.022  43.370  14.279
35740W        W 8154  26.589   8.774   0.880
35741W        W 8155  37.481  18.242  13.868
35742W        W 8156  32.559  34.982  12.061
35743W        W 8157  14.668  19.143   1.699
35744W        W 8158   6.274  33.474   1.840
35745W        W 8159  13.647   7.341  12.456
35746W        W 8160  36.060  26.578  10.533
35747W        W 8161  41.890  40.476   0.447
35748W        W 8162   9.394   2.823  12.075
35749W        W 8163  19.686  14.276  10.910
35750W        W 8164  20.100  19.718   4.775
35751W        W 8165  37.510  24.627  14.472
35752W        W 8166  34.097  21.615  13.942
35753W        W 8167  16.258  31.147  14.436
35754W        W 8168  16.763   5.913   4.769
35755W        W 8169  11.656  33.012  14.774
35756W        W 8170  26.629  26.106   4.265
35757W        W 8171  18.296  19.627  11.926
35758W        W 8172  30.537   2.387   3.328
35759W        W 8173  27.604  14.797  13.058
35760W        W 8174  41.514  24.681  12.850
35761W        W 8175   4.368  35.973  11.968
35762W        W 8176  26.539   3.941  13.505
35763W        W 8177   1.468  12.282   0.950
35764W        W 8178  30.026  29.481   4.278
35765W        W 8179  39.521  41.335   4.314
35766W        W 8180  35.854  36.452  13.038
35767W        W 8181  42.871  35.376  13.525
35768W        W 8182  33.087   1.456   2.193
35769W        W 8183  43.881  29.919  12.437
35770W        W 8184  34.990  38.387   1.761
35771W        W 8185   2.871  12.641  13.512
35772W        W 8186  38.871  31.011   1.218
35773W        W 8187  20.144  38.946   4.787
35774W        W 8188  40.954  12.807   4.808
35775W        W 8189  35.048   6.371  12.429
35776W        W 8190  12.128  44.809   0.793
35777W        W 8191  27.643  13.828   1.217
35778W        W 8192  10.743   9.728  14.425
35779W        W 8193  38.357  14.337  10.405
35780W        W 8194  31.098  20.766  13.038
35781W        W 8195  26.535  24.144  11.090
35782W        W 8196  17.724  38.547   2.791
35783W        W 8197  14.593   2.852   3.152
35784W        W 8198  17.655   0.355   0.425
35785W        W 8199   7.824  29.587  13.826
35786W        W 8200   7.217  12.363  11.374
35787W        W 8201  28.584  38.009   4.203
35788W        W 8202   1.468  15.732  12.470
35789W        W 8203   0.787  43.313  13.047
35790W        W 8204  44.907  28.134  13.884
35791W        W 8205  36.949  25.084   2.276
35792W        W 8206  30.080   7.191  10.940
35793W        W 8207  43.377  36.394   0.385
35794W        W 8208   7.864   8.789   5.297
35795W        W 8209  23.121  33.553   1.326
35796W        W 8210  14.766  27.181  11.580
35797W        W 8211  18.241  32.540  14.761
35798W        W 8212  11.309  34.035  11.871
35799W        W 8213   2.963   6.724   4.613
35800W        W 8214  36.899  35.441  10.996
35801W        W 8215  24.017  13.785   3.312
35802W        W 8216   4.700  36.956  10.476
35803W        W 8217  44.451  24.008  14.920
35804W        W 8218  10.340  32.018   2.194
35805W        W 8219  33.380  44.945   1.366
35806W        W 8220  28.133  23.567   2.685
35807W        W 8221  22.571  41.997   0.964
35808W        W 8222   9.191  22.646   2.898
35809W        W 8223  37.979  33.963  10.151
35810W        W 8224  23.084  38.434   2.704
35811W        W 8225   2.242  24.227   2.182
35812W        W 8226   2.298  30.520   2.782
35813W        W 8227  32.109  30.029   0.380
35814W        W 8228  22.066  39.557  14.923
35815W        W 8229  36.542  35.359   9.497
35816W        W 8230  42.366   4.706   3.846
35817W        W 8231  11.698  39.822  13.391
35818W        W 8232  35.599  30.998   3.855
35819W        W 8233   9.888   2.909   0.313
35820W        W 8234  15.787  20.234  14.348
35821W        W 8235  18.121  41.510  12.508
35822W        W 8236   5.324   1.935   1.251
35823W        W 8237  22.109  29.633   0.926
35824W        W 8238  10.767  27.064   3.705
35825W        W 8239  24.005  17.801  14.812
35826W        W 8240  41.307  31.449   2.239
35827W        W 8241  23.065  31.119  14.809
35828W        W 8242  22.152  21.251   2.314
35829W        W 8243   7.696  37.388   3.868
35830W        W 8244  23.118  10.640  10.974
35831W        W 8245  19.210  24.229  13.307
35832W        W 8246   0.293  44.927   0.924
35833W        W 8247  21.678  31.500  11.016
35834W        W 8248  28.492  11.309  13.499
35835W        W 8249  36.907  43.373   3.317
35836W        W 8250   7.762  25.592  10.944
35837W        W 8251  17.131  44.778  14.287
35838W        W 8252  15.612   7.233  11.594
35839W        W 8253  17.757  35.372  10.922
35840W        W 8254  26.142  10.274  13.473
35841W        W 8255  25.599   2.396   5.195
35842W        W 8256  38.451  12.331  10.583
35843W        W 8257  38.038  34.007   1.249
35844W        W 8258  43.968  35.007   1.819
35845W        W 8259  39.449  39.320   3.810
35846W        W 8260  33.537   5.746  10.947
35847W        W 8261   8.342   9.795   3.863
35848W        W 8262  29.005  27.166   0.433
35849W        W 8263  16.580  34.429   2.678
35850W        W 8264  21.674  44.268   0.898
35851W        W 8265  11.326  29.162   0.287
35852W        W 8266  21.694  12.771   4.175
35853W        W 8267  14.595  39.518   0.803
35854W        W 8268  31.522  13.640  13.792
35855W        W 8269   4.843  38.043  13.978
35856W        W 8270  34.450  33.042  11.054
35857W        W 8271  43.786   0.336   2.410
35858W        W 8272   3.405   0.292  10.995
35859W        W 8273  40.832  24.719  11.381
35860W        W 8274  14.804  44.369  12.993
35861W        W 8275  35.503  11.804  11.858
35862W        W 8276  20.750  38.020  11.110
35863W        W 8277  19.163   1.341   4.243
35864W        W 8278  28.940  14.243   3.334
35865W        W 8279  39.455  10.364   0.954
35866W        W 8280  16.168  13.182   4.716
35867W        W 8281  32.454  26.698   2.837
35868W        W 8282  26.677   7.869   5.216
35869W        W 8283  11.753  23.198  14.780
35870W        W 8284  39.411  27.980   2.226
35871W        W 8285  36.961  24.637  12.894
35872W        W 8286  44.335  11.827   5.268
35873W        W 8287   1.318  39.820  10.998
35874W        W 8288  37.866  17.749  11.012
35875W        W 8289  38.564  14.254  11.603
35876W        W 8290  25.588  30.943  11.951
35877W        W 8291  24.998   6.207  11.087
35878W        W 8292  41.040  28.023  14.452
35879W        W 8293  29.639  41.022  11.856
35880W        W 8294  35.574  24.192   4.600
35881W        W 8295   5.864   4.916   2.710
35882W        W 8296   6.231  22.135  14.992
35883W        W 8297  29.587  42.849   0.433
35884W        W 8298  28.156   1.348   0.339
35885W        W 8299   0.335  13.279  14.430
35886W        W 8300  12.716  13.280   1.840
35887W        W 8301   2.727  28.958  13.835
35888W        W 8302  28.665  32.507  10.505
35889W        W 8303  20.546  24.014  10.439
35890W        W 8304  26.538  28.050  12.915
35891W        W 8305   8.273  36.098  14.791
35892W        W 8306  42.331  19.255   4.216
35893W        W 8307  23.052  29.067   2.770
35894W        W 8308  21.642   0.798  11.387
35895W        W 8309  31.593  31.064   0.476
35896W        W 8310  33.024  12.727  12.018
35897W        W 8311  31.511  10.361   3.208
35898W        W 8312  36.959  43.831   1.339
35899W        W 8313  39.483   9.716   1.380
35900W        W 8314   6.183  16.778   4.713
35901W        W 8315  42.478  10.638  13.465
35902W        W 8316  42.499  10.343   3.676
35903W        W 8317  17.641  20.592   4.755
35904W        W 8318   2.409  19.541   4.818
35905W        W 8319  32.613   4.368   2.771
35906W        W 8320  30.028  14.701  12.872
35907W        W 8321  13.249  14.291  11.455
35908W        W 8322  11.159  42.851  14.950
35909W        W 8323  15.714  40.055  10.080
35910W        W 8324  27.065  22.591   0.441
35911W        W 8325  34.527  25.098  13.488
35912W        W 8326  23.033   6.807  10.578
35913W        W 8327  27.487  28.082  12.979
35914W        W 8328  14.218  17.283  13.947
35915W        W 8329   9.710   4.877  10.462
35916W        W 8330  27.944  36.978  13.439
35917W        W 8331  29.943  14.187  13.516
35918W        W 8332  38.893   7.379   2.189
35919W        W 8333   2.904  25.017  11.101
35920W        W 8334  28.494   5.214   4.283
35921W        W 8335  23.137  17.139   4.625
35922W        W 8336  42.363  10.166  13.900
35923W        W 8337  17.103  34.096   3.235
35924W        W 8338   4.336  29.972   0.322
35925W        W 8339  25.656  31.099  11.543
35926W        W 8340   7.908  32.107   0.273
35927W        W 8341  28.952  28.965  12.855
35928W        W 8342  28.468   7.327   2.283
35929W        W 8343  16.742  15.598  14.958
35930W        W 8344  35.056  36.566  10.942
35931W        W 8345  22.572  23.491   4.715
35932W        W 8346  28.652  42.989   0.462
35933W        W 8347  19.062  11.751  11.436
35934W        W 8348  20.109  11.840  13.361
35935W        W 8349  42.368  33.016   0.768
35936W        W 8350   1.470  26.562  11.052
35937W        W 8351  44.323  35.036  13.930
35938W        W 8352  13.603  38.014  10.581
35939W        W 8353  40.455  37.345   2.275
35940W        W 8354  10.318  27.940  13.514
35941W        W 8355  13.184  17.292  12.849
35942W        W 8356  13.331  23.008  13.488
35943W        W 8357  31.044   9.801   4.270
35944W        W 8358  38.398  31.569  10.644
35945W        W 8359  28.516  24.160   2.714
35946W        W 8360  34.027  42.515  13.314
35947W        W 8361   0.472  42.801  12.488
35948W        W 8362   3.805  19.060  11.593
35949W        W 8363  29.922   2.741   1.405
35950W        W 8364   6.786  12.744  10.511
35951W        W 8365  36.472  22.151  14.315
35952W        W 8366  19.151  44.384  10.471
35953W        W 8367  40.857  22.733  12.006
35954W        W 8368  15.814  32.062  10.100
35955W        W 8369  33.934  25.566   2.310
35956W        W 8370   1.438  11.720  13.043
35957W        W 8371  12.271  25.217  11.549
35958W        W 8372  25.633   9.755  10.554
35959W        W 8373  24.611  32.406   2.724
35960W        W 8374  34.902  12.172  11.925
35961W        W 8375   4.214   3.891  14.332
35962W        W 8376  20.222  14.153   2.375
35963W        W 8377  31.941   1.387  13.022
35964W        W 8378  18.674  26.069  12.931
35965W        W 8379  39.480   8.826   0.381
35966W        W 8380  19.255  31.598  13.970
35967W        W 8381  30.511   0.981   3.796
35968W        W 8382   4.719  39.373   0.247
35969W        W 8383  43.777  40.397  14.937
35970W        W 8384  14.110  39.516  14.870
35971W        W 8385   5.288  10.842  13.462
35972W        W 8386  42.397  31.570  13.855
35973W        W 8387   5.286  16.253  13.056
35974W        W 8388  43.272  37.411  14.406
35975W        W 8389  25.663  13.169   3.751
35976W        W 8390  25.219  32.489  12.039
35977W        W 8391   5.751  23.153   4.679
35978W        W 8392  21.261  33.990   4.726
35979W        W 8393  10.706  43.839  13.510
35980W        W 8394  31.472   6.328   2.287
35981W        W 8395  15.795  25.183   2.765
35982W        W 8396  34.964  22.620   2.871
35983W        W 8397  44.475  11.838  14.801
35984W        W 8398  24.524  29.155   4.709
35985W        W 8399   5.841   4.210   4.214
35986W        W 8400   8.781   1.481   2.887
35987W        W 8401  38.525  24.085   2.721
35988W        W 8402  31.422  11.303   2.897
35989W        W 8403   8.176   2.962  11.070
35990W        W 8404   9.188  16.724   4.278
35991W        W 8405  10.705   7.822   3.173
35992W        W 8406   5.721  30.559  11.023
35993W        W 8407   1.868  25.196   0.302
35994W        W 8408  21.182  43.961  13.484
35995W        W 8409  44.761   1.858   5.086
35996W        W 8410   0.968  29.932   1.292
35997W        W 8411   9.814  38.968   3.852
35998W        W 8412  11.176   4.207   3.274
35999W        W 8413  32.091  20.746   2.875
36000W        W 8414   3.267  26.077   3.667
36001W        W 8415  24.082  33.999   0.247
36002W        W 8416  30.932  37.890   2.815
36003W        W 8417  26.089   7.728   4.810
36004W        W 8418  23.688  30.486  14.336
36005W        W 8419  42.026  40.886  14.448
36006W        W 8420  32.009  20.587  13.544
36007W        W 8421  35.020  14.320   4.200
36008W        W 8422  19.228  26.581   2.897
36009W        W 8423  44.923   6.254   3.207
36010W        W 8424  20.095  20.657  12.490
36011W        W 8425  14.305  22.159  10.142
36012W        W 8426  27.662  28.596   4.739
36013W        W 8427  10.381  30.115  11.372
36014W        W 8428  44.889  40.857  11.443
36015W        W 8429  36.081  31.637  13.877
36016W        W 8430  18.693   2.943  13.335
36017W        W 8431  38.335  29.062   0.456
36018W        W 8432  29.567  31.539  10.973
36019W        W 8433  40.928   4.237  12.910
36020W        W 8434  32.515  36.869   1.331
36021W        W 8435  36.392  17.114   4.646
36022W        W 8436  31.574  36.417  14.029
36023W        W 8437  33.981  32.576  11.548
36024W        W 8438  30.521  26.988  11.587
36025W        W 8439  41.522   2.387   2.319
36026W        W 8440  12.650  42.317  13.547
36027W        W 8441  14.815  30.126   4.172
36028W        W 8442  15.167  20.234   4.761
36029W        W 8443  38.061  29.013  11.867
36030W        W 8444   7.699  11.286  14.288
36031W        W 8445   7.706  42.899  10.552
36032W        W 8446  14.699  37.846  10.426
36033W        W 8447   1.887  25.177  13.854
36034W        W 8448  44.278  31.577   3.360
36035W        W 8449  29.144   1.817   1.389
36036W        W 8450  11.811  44.008   4.783
36037W        W 8451  26.636  33.582  14.956
36038W        W 8452   8.703  37.018  14.861
36039W        W 8453  42.902   6.190  14.873
36040W        W 8454  29.465  26.646  13.493
36041W        W 8455  13.157   5.323   1.928
36042W        W 8456  36.568   4.217  10.905
36043W        W 8457  39.455  16.233   3.348
36044W        W 8458  29.970  18.058  13.866
36045W        W 8459  42.512  17.611   1.907
36046W        W 8460  23.130  28.110   3.263
36047W        W 8461  17.195   6.732   2.782
36048W        W 8462   5.379  28.173  11.459
36049W        W 8463  40.007  39.047  13.512
36050W        W 8464  16.273   0.362   3.300
36051W        W 8465  23.686  26.048   4.703
36052W        W 8466  13.683  20.228  12.490
36053W        W 8467  32.537  28.987   1.314
36054W        W 8468  44.776   7.244   4.616
36055W        W 8469   5.874   6.817  10.627
36056W        W 8470  28.443  34.931  14.458
36057W        W 8471  43.967  13.838  11.447
36058W        W 8472  33.449  30.025  14.014
36059W        W 8473  23.711  11.646   0.937
36060W        W 8474  19.672  14.320  14.847
36061W        W 8475  23.231  37.575   0.332
36062W        W 8476  24.572  35.377   3.161
36063W        W 8477  28.662   1.880  14.022
36064W        W 8478  35.506   4.731  10.612
36065W        W 8479  22.240   6.846  11.885
36066W        W 8480  14.634  34.892  14.401
36067W        W 8481  34.003  44.503  14.316
36068W        W 8482  27.095   0.988  10.015
36069W        W 8483   0.330  23.537  14.307
36070W        W 8484  41.398   0.295  13.309
36071W        W 8485  39.874  25.619   4.737
36072W        W 8486   2.734  36.372   2.891
36073W        W 8487  12.713  26.670  11.473
36074W        W 8488  15.608  37.967  12.023
36075W        W 8489   3.339   9.277   4.210
36076W        W 8490  40.049   4.717   3.806
36077W        W 8491   6.839   5.710   4.115
36078W        W 8492  31.463  40.975   4.828
36079W        W 8493  26.664  21.195  11.019
36080W        W 8494  21.236  17.660   3.701
36081W        W 8495  30.014   9.809  14.837
36082W        W 8496  27.679  15.208   1.441
36083W        W 8497  29.427  34.517  13.878
36084W        W 8498   9.264  17.065  11.604
36085W        W 8499  31.930  26.599  12.439
36086W        W 8500  26.164  11.284   2.334
36087W        W 8501  26.195  43.832   4.784
36088W        W 8502  24.026  19.277   4.695
36089W        W 8503  31.013  25.186  14.341
36090W        W 8504  41.461   9.351   3.196
36091W        W 8505  38.000  11.243  13.803
36092W        W 8506  15.113  32.991  11.420
36093W        W 8507  43.809  42.510  11.575
36094W        W 8508  20.608  32.563   3.252
36095W        W 8509  11.649  34.951   3.850
36096W        W 8510  15.125  10.787  10.948
36097W        W 8511  33.113  18.609   0.863
36098W        W 8512  17.170   4.906   3.191
36099W        W 8513  37.074  43.788  13.365
36100W        W 8514   4.701  15.272   4.340
36101W        W 8515  16.796   4.267   2.382
36102W        W 8516   2.444  11.721   1.872
36103W        W 8517  21.243   0.439   1.783
36104W        W 8518  12.270  16.111  13.941
36105W        W 8519  12.211  43.490   0.960
36106W        W 8520  35.983  16.812   0.399
36107W        W 8521  23.492  39.377   1.752
36108W        W 8522  39.843   1.288   3.791
36109W        W 8523   9.257  20.244   3.759
36110W        W 8524  10.690  13.653   4.226
36111W        W 8525  25.481  44.296   0.904
36112W        W 8526   7.231  33.921  14.962
36113W        W 8527  21.642   6.225   0.348
36114W        W 8528  31.984   5.809  10.412
36115W        W 8529  40.457  24.094  10.404
36116W        W 8530  23.544  33.492   0.290
36117W        W 8531   1.351   0.283  10.470
36118W        W 8532  24.502  17.079  12.385
36119W        W 8533  25.661  37.064   3.770
36120W        W 8534  22.181  34.523  13.988
36121W        W 8535   4.291  27.953  11.389
36122W        W 8536  23.598  43.282  13.864
36123W        W 8537   4.334  26.603  14.840
36124W        W 8538   0.836   8.198   2.286
36125W        W 8539  23.198  14.190  10.895
36126W        W 8540   8.299  36.476  14.001
36127W        W 8541  18.164   5.206   4.742
36128W        W 8542  16.137  39.519   1.831
36129W        W 8543  16.133  43.449   3.759
36130W        W 8544  24.137  35.032  12.034
36131W        W 8545  36.978  30.967   3.384
36132W        W 8546   6.855   5.426   3.316
36133W        W 8547   6.215  31.553   1.791
36134W        W 8548  41.340  11.804  10.565
36135W        W 8549   5.206  34.069  13.828
36136W        W 8550  26.084  27.499   1.877
36137W        W 8551  22.145  39.857   3.806
36138W        W 8552  19.700  39.820  12.830
36139W        W 8553  30.419  28.517   3.199
36140W        W 8554   6.730  36.438  14.312
36141W        W 8555  22.584   5.815   4.600
36142W        W 8556  29.055  12.840   0.890
36143W        W 8557  19.613  15.668  14.506
36144W        W 8558   9.297   5.860  13.501
36145W        W 8559  43.922  30.656   0.728
36146W        W 8560  36.957  11.766   1.380
36147W        W 8561  23.001  13.132  10.889
36148W        W 8562  35.912  15.217  14.863
36149W        W 8563  26.543  31.137   2.664
36150W        W 8564  21.088  23.578  12.885
36151W        W 8565  41.321  39.373  14.982
36152W        W 8566  17.294  36.373  11.481
36153W        W 8567   9.807  19.538  14.962
36154W        W 8568  20.227  28.133  10.968
36155W        W 8569  37.928   2.840   3.867
36156W        W 8570  38.538  35.955  12.025
36157W        W 8571  32.624  42.840   4.742
36158W        W 8572  29.613   3.298  10.530
36159W        W 8573  19.086  32.589  10.598
36160W        W 8574   9.699  22.034  14.938
36161W        W 8575  19.701   8.301  10.586
36162W        W 8576  25.675  21.717  14.773
36163W        W 8577  12.171  19.713  14.957
36164W        W 8578  41.401  19.659   2.667
36165W        W 8579  30.507   2.926  13.472
36166W        W 8580  17.712  43.837  11.480
36167W        W 8581  26.557  28.074  14.932
36168W        W 8582  26.561  23.616  10.549
36169W        W 8583  35.572  44.323   1.241
36170W        W 8584   1.738   0.901  10.528
36171W        W 8585  44.289  11.151   3.807
36172W        W 8586  24.580  32.483  14.840
36173W        W 8587   0.370   0.293   4.802
36174W        W 8588  20.700  10.818   4.121
36175W        W 8589  27.562  39.408   0.783
36176W        W 8590  41.849  26.152   2.676
36177W        W 8591  33.528  15.262  12.530
36178W        W 8592  42.320  33.420   1.897
36179W        W 8593  28.526   2.252  11.421
36180W        W 8594  27.127  33.399  12.377
36181W        W 8595  32.025  34.872  10.501
36182W        W 8596  20.698  29.130  14.764
36183W        W 8597  13.291   1.745   3.631
36184W        W 8598  18.743  38.914   3.834
36185W        W 8599  34.389   4.737  10.636
36186W        W 8600  13.226   9.162  11.898
36187W        W 8601   5.820  30.955   4.195
36188W        W 8602  22.665  36.936   1.287
36189W        W 8603  43.459  18.679   2.330
36190W        W 8604  31.506  27.154  13.049
36191W        W 8605  41.337   1.875  12.399
36192W        W 8606  16.808  26.967  12.842
36193W        W 8607  22.715  12.294  13.307
36194W        W 8608  17.199  26.043  10.444
36195W        W 8609  19.556  18.135   3.827
36196W        W 8610  17.722   2.425   3.207
36197W        W 8611  32.419  31.037  13.499
36198W        W 8612  35.440   7.325  12.917
36199W        W 8613  12.853  37.339  11.957
36200W        W 8614  39.889  17.233  14.780
36201W        W 8615  37.360   9.668   1.881
36202W        W 8616  15.084  35.410   0.800
36203W        W 8617  40.969  42.330  11.378
36204W        W 8618  19.623  24.645   1.272
36205W        W 8619  29.992   1.438  13.954
36206W        W 8620  15.146  27.517   2.352
36207W        W 8621  37.087  20.735   2.769
36208W        W 8622   7.254   1.420   1.260
36209W        W 8623  18.195  41.507   2.768
36210W        W 8624  17.151  34.379   4.628
36211W        W 8625  10.802  16.650  11.431
36212W        W 8626  33.975  24.541  12.420
36213W        W 8627  42.962  28.948  10.596
36214W        W 8628  22.553  26.691   5.274
36215W        W 8629  41.376   4.248   0.244
36216W        W 8630   6.307  33.037   3.178
36217W        W 8631  30.568  44.809  14.814
36218W        W 8632  10.706  36.009  12.824
36219W        W 8633  44.294  18.262   3.241
36220W        W 8634  15.230  34.449  12.974
36221W        W 8635  32.427   0.487   3.756
36222W        W 8636  27.168  34.571   5.232
36223W        W 8637  43.342   9.852   1.428
36224W        W 8638  40.445  41.316   0.389
36225W        W 8639  32.509  21.642   3.701
36226W        W 8640  20.682  27.007  14.353
36227W        W 8641  27.044  35.054  11.928
36228W        W 8642  33.403  37.943  11.033
36229W        W 8643  17.101   3.751   4.247
36230W        W 8644  44.299  27.093  12.933
36231W        W 8645  27.564  19.209  14.880
36232W        W 8646  15.613  39.523   5.134
36233W        W 8647  32.936  38.885   4.607
36234W        W 8648  43.973   8.233  10.516
36235W        W 8649   2.959   1.941  14.762
36236W        W 8650  44.361  11.801   0.730
36237W        W 8651  23.573  36.453  11.403
36238W        W 8652   6.322  35.990   5.090
36239W        W 8653  30.420  10.304  12.438
36240W        W 8654   0.871  35.097   4.207
36241W        W 8655   9.311  29.441   2.291
36242W        W 8656  17.285  14.721   0.336
36243W        W 8657  44.000  39.840  12.902
36244W        W 8658  37.351  30.970   3.724
36245W        W 8659  10.156  15.578  12.553
36246W        W 8660   8.215   6.918   4.817
36247W        W 8661  32.514  37.372  10.908
36248W        W 8662  40.826  15.629   4.684
36249W        W 8663  31.514  41.796  14.817
36250W        W 8664  32.533  22.105   4.643
36251W        W 8665  36.432  30.651  13.517
36252W        W 8666  14.805  10.680   3.801
36253W        W 8667   4.263   8.850  14.902
36254W        W 8668  33.114  27.190   3.213
36255W        W 8669   6.357  32.477  12.951
36256W        W 8670  17.183  43.376   0.860
36257W        W 8671  42.909  15.312   4.349
36258W        W 8672   5.250  42.345   2.681
36259W        W 8673  41.937  14.253  11.911
36260W        W 8674  27.121  19.538   2.700
36261W        W 8675   4.413  22.557   0.821
36262W        W 8676   2.960  38.366   0.329
36263W        W 8677  37.560  40.485  12.045
36264W        W 8678   8.897  38.956  12.450
36265W        W 8679   1.281  12.132   3.198
36266W        W 8680  22.111  16.196   3.297
36267W        W 8681  18.268  39.478  12.473
36268W        W 8682  36.547  11.139  13.831
36269W        W 8683   6.376   8.862   4.158
36270W        W 8684  31.576   8.379   4.767
36271W        W 8685   7.357   4.873   0.332
36272W        W 8686   6.417  23.168  12.517
36273W        W 8687  19.211   6.911  10.903
36274W        W 8688  12.245  32.516   1.836
36275W        W 8689  17.657  29.122   1.731
36276W        W 8690   3.896  11.654  13.856
36277W        W 8691   2.358  28.681   2.279
36278W        W 8692  23.562  21.547  12.549
36279W        W 8693  24.485  17.631   2.858
36280W        W 8694  42.867   8.815  14.991
36281W        W 8695  26.545  17.667   0.796
36282W        W 8696   1.380  31.151   0.366
36283W        W 8697  35.518  44.466   0.775
36284W        W 8698  37.473   2.721  13.325
36285W        W 8699  19.214  23.690   4.612
36286W        W 8700  33.612  28.099  10.936
36287W        W 8701  18.722  18.658   3.742
36288W        W 8702  27.998  30.621  14.423
36289W        W 8703  35.857  32.498  14.498
36290W        W 8704  38.947  10.229   0.275
36291W        W 8705   9.187  14.294  11.998
36292W        W 8706   4.820  44.972   1.414
36293W        W 8707  30.477   0.316   4.705
36294W        W 8708  28.668  16.285   3.786
36295W        W 8709  41.993  28.583   1.893
36296W        W 8710   3.736  35.901  11.393
36297W        W 8711  26.134  21.667   0.814
36298W        W 8712   0.988  29.976   0.939
36299W        W 8713  36.400  12.331  10.413
36300W        W 8714   1.348  12.295  11.991
36301W        W 8715  13.211  16.110   2.803
36302W        W 8716  38.493  12.654   3.209
36303W        W 8717  39.479  11.645   2.227
36304W        W 8718  27.096  41.831  14.372
36305W        W 8719  35.009  33.513  13.825
36306W        W 8720  13.836  20.555   2.808
36307W        W 8721   0.802   2.424   4.734
36308W        W 8722   9.832  17.216   2.818
36309W        W 8723   0.802  10.260  13.846
36310W        W 8724   0.382   3.415   1.921
36311W        W 8725  24.997   6.195   3.684
36312W        W 8726  41.400  36.347   1.420
36313W        W 8727   0.749  41.447  10.997
36314W        W 8728  16.713  24.528  13.545
36315W        W 8729  14.112  43.920   4.710
36316W        W 8730  25.588  42.381   2.293
36317W        W 8731  22.693  32.040   3.257
36318W        W 8732  36.933  41.302  10.968
36319W        W 8733   2.371  11.845  13.321
36320W        W 8734   8.792  27.677   1.286
36321W        W 8735  22.557  33.092   3.855
36322W        W 8736  33.904  26.689  11.971
36323W        W 8737  36.588  40.867  11.888
36324W        W 8738   3.934  16.785  11.115
36325W        W 8739  18.641  17.570  12.516
36326W        W 8740   9.695   2.936  14.483
36327W        W 8741  23.674  32.979   0.759
36328W        W 8742   9.680   6.402   1.265
36329W        W 8743   3.875  40.416  11.411
36330W        W 8744  35.100  17.292  13.869
36331W        W 8745  16.162  42.387   4.625
36332W        W 8746  37.882  14.604   1.261
36333W        W 8747   5.406  12.852  10.113
36334W        W 8748  18.684  24.625   4.800
36335W        W 8749   6.812  32.934   4.727
36336W        W 8750  32.076  36.405  11.988
36337W        W 8751  23.519  31.071  12.982
36338W        W 8752  23.073   0.315   2.744
36339W        W 8753  35.978  19.218  13.428
36340W        W 8754   3.799   4.326   1.768
36341W        W 8755   2.436  40.822   5.128
36342W        W 8756  23.616   2.802   2.710
36343W        W 8757  24.675  16.609   0.854
36344W        W 8758  18.764  26.606  13.391
36345W        W 8759  25.679  32.101   1.882
36346W        W 8760   3.387  35.517   2.180
36347W        W 8761  37.402  10.660   0.452
36348W        W 8762  33.000  36.388   1.714
36349W        W 8763  40.917   0.909   4.293
36350W        W 8764   8.869  28.483   1.846
36351W        W 8765  26.057  29.122   0.950
36352W        W 8766  11.160  16.295  14.787
36353W        W 8767  29.159   9.720   1.382
36354W        W 8768  43.516  23.095  10.536
36355W        W 8769  16.292   7.217  13.047
36356W        W 8770  34.036  44.456  12.490
36357W        W 8771   7.688  11.254  10.034
36358W        W 8772  30.627   1.451   2.774
36359W        W 8773  37.079  16.191   0.273
36360W        W 8774   3.236  36.934   1.780
36361W        W 8775  26.565   9.839   1.869
36362W        W 8776   1.382  31.078   1.780
36363W        W 8777  19.171   3.867   2.193
36364W        W 8778   6.821   2.409   2.266
36365W        W 8779  10.859   5.753  12.025
36366W        W 8780  30.929  17.092   2.324
36367W        W 8781  30.503  29.011  12.441
36368W        W 8782  28.589  25.666  13.489
36369W        W 8783   9.775  38.402  12.978
36370W        W 8784   5.853   0.753  14.863
36371W        W 8785  44.385  17.756   4.216
36372W        W 8786  39.362   3.426   0.482
36373W        W 8787  31.996  25.130  11.005
36374W        W 8788  38.489  28.596  13.984
36375W        W 8789   6.412   2.288  11.396
36376W        W 8790  40.981  13.664  13.980
36377W        W 8791   2.352  26.649   0.835
36378W        W 8792   0.940  30.909   0.288
36379W        W 8793  26.135  33.430   0.940
36380W        W 8794  31.642  37.523  11.949
36381W        W 8795  30.161  22.092  14.979
36382W        W 8796  25.993  44.463  12.025
36383W        W 8797  29.941  28.051  11.502
36384W        W 8798  31.405  35.102  11.559
36385W        W 8799   3.418  30.010  12.957
36386W        W 8800  11.747   2.967   4.818
36387W        W 8801   9.644   7.360   3.669
36388W        W 8802  25.020  16.795  14.015
36389W        W 8803  28.121  44.432  12.881
36390W        W 8804  10.668   4.933  12.530
36391W        W 8805  13.307  21.624  14.030
36392W        W 8806  28.464  14.604  13.516
36393W        W 8807   9.887  18.584   0.769
36394W        W 8808  30.112  26.071  13.352
36395W        W 8809  19.741  22.677  10.475
36396W        W 8810   6.703  24.160  14.943
36397W        W 8811  40.816  13.621   1.868
36398W        W 8812  40.527   9.704  13.519
36399W        W 8813  10.161  18.213   3.786
36400W        W 8814  19.556  17.265  13.510
36401W        W 8815  10.232   0.894  14.989
36402W        W 8816  14.265  16.118   0.431
36403W        W 8817  39.986  40.929   4.607
36404W        W 8818  17.742  10.362   1.828
36405W        W 8819  19.642  20.110   4.280
36406W        W 8820   4.710  38.416  13.838
36407W        W 8821  30.937  28.158   1.818
36408W        W 8822   6.313  42.441  13.055
36409W        W 8823  43.925  39.555   1.214
36410W        W 8824   6.311  28.102   0.292
36411W        W 8825  20.214  17.663   1.826
36412W        W 8826  15.765  18.627   1.411
36413W        W 8827  26.063   4.231   1.273
36414W        W 8828   5.312  10.346  11.905
36415W        W 8829  25.047  36.499  13.985
36416W        W 8830   7.705  15.643   2.205
36417W        W 8831  25.126  16.228   2.234
36418W        W 8832  24.597  38.445   0.422
36419W        W 8833  40.449  12.701  10.031
36420W        W 8834  12.804  22.177  12.520
36421W        W 8835  14.283  39.469  10.633
36422W        W 8836  35.600  22.557  10.092
36423W        W 8837  16.106  29.542   4.648
36424W        W 8838  39.893  33.047  13.331
36425W        W 8839   2.365  40.860   4.253
36426W        W 8840  15.121  42.352  13.957
36427W        W 8841  44.274  31.904  13.372
36428W        W 8842  23.648  13.248   2.344
36429W        W 8843  31.140  20.172   4.185
36430W        W 8844  30.467  40.942  10.555
36431W        W 8845  12.825  15.718  14.413
36432W        W 8846  44.921  42.880  13.974
36433W        W 8847  30.454   0.910  11.435
36434W        W 8848  27.501   9.337   0.285
36435W        W 8849  13.618   7.355   1.451
36436W        W 8850  28.653   9.332   4.121
36437W        W 8851  30.089  20.031  12.836
36438W        W 8852  15.096  42.915   4.295
36439W        W 8853  41.468   0.921   0.836
36440W        W 8854  21.736  40.465   9.993
36441W        W 8855  13.105  33.551  14.414
36442W        W 8856  40.038  15.687   3.182
36443W        W 8857  15.578  12.718   3.812
36444W        W 8858   6.726  30.918   1.860
36445W        W 8859  20.528  27.648   4.330
36446W        W 8860  42.342  10.683  12.419
36447W        W 8861  13.762  37.046   3.804
36448W        W 8862  34.923  23.492  14.761
36449W        W 8863   9.672  12.847   4.709
36450W        W 8864  34.558  27.644  12.913
36451W        W 8865   3.901  37.352   2.742
36452W        W 8866  24.645   4.399   2.806
36453W        W 8867  31.612  20.216   0.736
36454W        W 8868  15.155  27.969  14.938
36455W        W 8869  27.648  17.070  13.945
36456W        W 8870  17.202  24.229   0.769
36457W        W 8871  39.952  18.771   0.903
36458W        W 8872  20.694  20.145  10.534
36459W        W 8873  36.063  27.547  14.297
36460W        W 8874  22.590   3.938  11.124
36461W        W 8875   8.900  35.405   4.127
36462W        W 8876   5.360  25.625  13.847
36463W        W 8877  24.563  42.463   2.897
36464W        W 8878   6.295  21.531  10.946
36465W        W 8879  36.515   2.302  12.073
36466W        W 8880  12.198  22.659  13.865
36467W        W 8881  21.539  13.601  11.457
36468W        W 8882  41.798  34.546   1.829
36469W        W 8883   1.941  40.360   0.417
36470W        W 8884   8.296  24.091   1.924
36471W        W 8885   0.350  35.499   1.898
36472W        W 8886   4.739   1.480   3.373
36473W        W 8887  33.937   9.880   2.696
36474W        W 8888  34.972  23.179  13.860
36475W        W 8889  36.503  10.727   4.752
36476W        W 8890  22.635  16.286   4.230
36477W        W 8891  31.097  41.015   4.735
36478W        W 8892   2.306  27.662   4.775
36479W        W 8893  44.385   9.204   2.389
36480W        W 8894  33.594  44.994   3.370
36481W        W 8895  33.049  21.188   3.305
36482W        W 8896  24.039  10.238  13.947
36483W        W 8897  23.180   3.868  13.311
36484W        W 8898   0.274  39.934   0.419
36485W        W 8899   5.433  42.330   0.812
36486W        W 8900  27.689  18.718  11.953
36487W        W 8901  10.743  22.562   1.781
36488W        W 8902  13.608  38.925  12.064
36489W        W 8903   7.825  43.277   3.710
36490W        W 8904   4.772  23.566   1.719
36491W        W 8905  30.543  33.506   0.851
36492W        W 8906  34.887  24.623   2.849
36493W        W 8907   1.292  30.916  14.899
36494W        W 8908  17.789  43.419   1.857
36495W        W 8909  39.011  31.052  12.886
36496W        W 8910  28.625  20.769   2.680
36497W        W 8911  15.286   6.350  14.475
36498W        W 8912  29.516   9.248   3.636
36499W        W 8913   5.709  33.928   3.794
36500W        W 8914  18.599  24.587   4.274
36501W        W 8915   5.920   9.170  11.469
36502W        W 8916  27.956  11.646   0.763
36503W        W 8917  10.761  12.168  11.503
36504W        W 8918  27.525  18.632  13.895
36505W        W 8919  17.727  19.712   0.373
36506W        W 8920  23.077  13.216   2.862
36507W        W 8921  22.705  20.667   0.761
36508W        W 8922  30.494  13.115   2.749
36509W        W 8923  35.915  43.785  13.900
36510W        W 8924  35.450   3.865   2.416
36511W        W 8925   9.319  35.503   1.218
36512W        W 8926  21.717  33.510   4.231
36513W        W 8927  20.575  28.110   4.686
36514W        W 8928  41.816  15.600  14.018
36515W        W 8929  44.427  21.029   5.273
36516W        W 8930  20.718  36.520   4.630
36517W        W 8931  32.420  24.131  12.839
36518W        W 8932  22.235   7.377  12.083
36519W        W 8933  39.427   8.389   0.831
36520W        W 8934   5.207  26.510  14.822
36521W        W 8935  39.056  44.376  13.926
36522W        W 8936  23.671   3.761   4.700
36523W        W 8937  21.164  34.441   4.782
36524W        W 8938  14.635  15.102  11.997
36525W        W 8939  11.814  30.640  11.551
36526W        W 8940  14.264  14.175  14.006
36527W        W 8941  33.912  24.107   4.628
36528W        W 8942   1.409   4.279   3.223
36529W        W 8943  35.029  11.717  10.599
36530W        W 8944  13.644  23.133   0.786
36531W        W 8945  13.674  19.664   5.593
36532W        W 8946  22.674  36.581   0.449
36533W        W 8947  21.149  23.119   2.726
36534W        W 8948   2.417   5.411  14.941
36535W        W 8949  28.505  36.438   4.722
36536W        W 8950   5.272   9.304  14.360
36537W        W 8951  32.579   0.412  12.843
36538W        W 8952  41.538   0.327   4.206
36539W        W 8953   5.721  39.414   1.907
36540W        W 8954  24.976  36.531   2.687
36541W        W 8955  10.678  13.837  11.080
36542W        W 8956  18.653  39.519  11.006
36543W        W 8957  33.575   9.228  11.529
36544W        W 8958  36.423  11.300  10.537
36545W        W 8959  27.136  11.182  11.495
36546W        W 8960  11.695  16.691  11.475
36547W        W 8961  15.176  35.952  13.417
36548W        W 8962   7.691  23.536   3.251
36549W        W 8963  42.812  35.386   4.197
36550W        W 8964  27.497  38.351  13.914
36551W        W 8965   2.284  34.601  13.389
36552W        W 8966   9.757  38.844  12.092
36553W        W 8967  38.031  16.141  10.587
36554W        W 8968  27.178  18.666   3.361
36555W        W 8969  37.577   9.882   2.352
36556W        W 8970   5.232   5.230   1.802
36557W        W 8971   4.738  31.917  14.378
36558W        W 8972  43.992  23.638   2.233
36559W        W 8973  34.434  35.922  11.393
36560W        W 8974  42.899  27.645   4.250
36561W        W 8975  44.482  40.942   0.258
36562W        W 8976  17.789  40.032   4.144
36563W        W 8977  27.617  44.986   4.778
36564W        W 8978  12.234  22.601   3.292
36565W        W 8979  28.606  18.129   3.210
36566W        W 8980  32.903  22.622   9.619
36567W        W 8981  38.839  20.260   2.861
36568W        W 8982  44.984  42.968   3.657
36569W        W 8983  36.522  30.129   1.287
36570W        W 8984  12.341   6.303   0.888
36571W        W 8985  38.911   8.768   4.149
36572W        W 8986  35.953  22.502  10.624
36573W        W 8987   6.779  10.796  12.823
36574W        W 8988  13.326  41.867  11.016
36575W        W 8989  44.460  15.202   2.672
36576W        W 8990   4.241   2.348  13.468
36577W        W 8991  12.720  31.020   2.197
36578W        W 8992  10.836  12.817   0.911
36579W        W 8993  23.108   3.422   1.884
36580W        W 8994  15.244   9.325  11.876
36581W        W 8995  24.038  35.890  13.457
36582W        W 8996  22.595  23.158  13.454
36583W        W 8997   1.736  13.639   0.382
36584W        W 8998  24.986  25.548   4.638
36585W        W 8999  24.664  13.664   0.870
36586W        W 9000  25.604   3.858  10.478
36587W        W 9001   6.734  37.574   4.829
36588W        W 9002  42.996   4.940  13.510
36589W        W 9003  30.524  14.747  14.293
36590W        W 9004  26.188  41.801   3.847
36591W        W 9005  17.090  44.913   2.272
36592W        W 9006  14.623  21.032  14.422
36593W        W 9007  18.111  33.876  10.941
36594W        W 9008   6.359   6.746  10.428
36595W        W 9009   2.947  36.447   1.797
36596W        W 9010  44.289  43.909   3.784
36597W        W 9011  14.828  30.981   1.802
36598W        W 9012  44.350  20.210   5.267
36599W        W 9013  43.951  33.391   4.139
36600W        W 9014   1.329  33.979   4.653
36601W        W 9015  32.569  38.465   1.793
36602W        W 9016  11.705   9.751  14.975
36603W        W 9017   8.209  21.525  11.889
36604W        W 9018  43.299  11.137   0.797
36605W        W 9019  11.669  31.038  13.919
36606W        W 9020  18.094  19.693   4.345
36607W        W 9021   6.770   5.730  13.018
36608W        W 9022   7.693   1.935   1.426
36609W        W 9023   9.195  43.806   1.794
36610W        W 9024  10.297  11.172   3.650
36611W        W 9025  21.128   3.326   3.816
36612W        W 9026  41.039  29.556   2.266
36613W        W 9027  23.147  11.209   0.430
36614W        W 9028  43.334  27.475   1.837
36615W        W 9029  39.359  18.163  11.607
36616W        W 9030  20.256  28.600  14.931
36617W        W 9031  28.641   1.436  11.497
36618W        W 9032  29.598  10.665  13.914
36619W        W 9033   9.666  14.258  12.524
36620W        W 9034  15.729  43.923   1.896
36621W        W 9035   2.432  13.283  14.300
36622W        W 9036  20.042  18.565  13.386
36623W        W 9037  20.673  43.942  13.828
36624W        W 9038  25.638  10.294   4.623
36625W        W 9039  29.091  35.459   3.805
36626W        W 9040  12.352  22.737  12.368
36627W        W 9041  27.063  25.965   1.862
36628W        W 9042  42.929  37.879  12.061
36629W        W 9043  24.507   1.259  10.975
36630W        W 9044  42.281  32.579   0.837
36631W        W 9045  41.458  16.313   3.320
36632W        W 9046  16.119  39.003  10.070
36633W        W 9047  23.055  22.017   2.378
36634W        W 9048  22.633  41.328  14.418
36635W        W 9049  33.130  28.472   0.805
36636W        W 9050  37.085  28.023   3.687
36637W        W 9051  31.608  17.668   3.694
36638W        W 9052   7.247   7.834   0.416
36639W        W 9053  36.506  31.962   3.368
36640W        W 9054   0.910   5.907   3.256
36641W        W 9055  38.982  44.870  13.314
36642W        W 9056  38.988  10.213  14.349
36643W        W 9057   0.802  38.514   1.906
36644W        W 9058  33.941  44.402  13.831
36645W        W 9059  29.036  40.853  10.547
36646W        W 9060  30.130  44.356  13.020
36647W        W 9061  41.301   9.854  13.963
36648W        W 9062  42.955   3.426   3.247
36649W        W 9063  32.530  15.720  13.854
36650W        W 9064   9.307  24.578   1.757
36651W        W 9065  15.632  19.125   0.277
36652W        W 9066  42.010  27.502  13.976
36653W        W 9067   7.771  34.372   1.329
36654W        W 9068  38.400  28.679   3.658
36655W        W 9069   1.391  10.187  10.429
36656W        W 9070  27.107  14.268   1.877
36657W        W 9071  35.926  27.566   2.221
36658W        W 9072   1.971  42.784  11.889
36659W        W 9073  38.896  23.539   1.249
36660W        W 9074   3.773  42.880  14.292
36661W        W 9075  30.439  39.509   0.384
36662W        W 9076  40.387  19.635   4.717
36663W        W 9077   2.855  38.944  13.969
36664W        W 9078  26.141  29.462   0.846
36665W        W 9079  19.628  23.642   0.769
36666W        W 9080  12.788  33.474  14.889
36667W        W 9081  39.534   5.209   4.135
36668W        W 9082   5.233  21.167  13.961
36669W        W 9083  31.547  11.287   0.258
36670W        W 9084   2.295  11.297  11.487
36671W        W 9085   3.260  27.969   0.462
36672W        W 9086  29.163  42.492  11.422
36673W        W 9087   3.262  24.080   2.216
36674W        W 9088  27.529  43.913   0.926
36675W        W 9089  36.500  28.183   3.678
36676W        W 9090   1.428  40.538  13.044
36677W        W 9091   2.923  33.042   0.361
36678W        W 9092  44.275  33.114   2.413
36679W        W 9093  30.518  22.628  11.873
36680W        W 9094  41.920  15.250   2.847
36681W        W 9095  33.959  31.978  10.630
36682W        W 9096  30.449  16.717   2.747
36683W        W 9097  31.059  28.057   4.122
36684W        W 9098  26.082  40.962   0.735
36685W        W 9099  25.194  39.379  11.031
36686W        W 9100  27.127  26.176   3.798
36687W        W 9101  19.745  23.040  12.988
36688W        W 9102  40.913  11.331  13.895
36689W        W 9103  25.026  18.713  10.512
36690W        W 9104   4.794  38.070  14.872
36691W        W 9105   7.214  33.569  12.058
36692W        W 9106  39.978  43.971   3.728
36693W        W 9107  19.703   5.932   1.399
36694W        W 9108  23.689  26.554  14.804
36695W        W 9109  15.651  25.058   4.736
36696W        W 9110  34.043   9.839   0.370
36697W        W 9111   5.385  16.740   0.397
36698W        W 9112  35.006   4.918  11.465
36699W        W 9113  33.929  44.950   1.795
36700W        W 9114   3.287  30.013  13.904
36701W        W 9115  44.994   6.279   3.850
36702W        W 9116  22.643   6.348   1.365
36703W        W 9117  43.814  40.342  12.555
36704W        W 9118  28.959  42.888   5.168
36705W        W 9119  27.966  19.276  11.510
36706W        W 9120  30.084  36.969  10.583
36707W        W 9121  42.959   0.978  10.949
36708W        W 9122   6.382  37.399   4.629
36709W        W 9123  31.978  10.278   3.149
36710W        W 9124  28.585  31.032  10.585
36711W        W 9125  37.996  43.279   1.842
36712W        W 9126  13.125  23.726   0.918
36713W        W 9127   1.295   2.780   1.723
36714W        W 9128  15.734  33.409  12.065
36715W        W 9129  26.961  19.213  10.924
36716W        W 9130  24.203  39.325  14.847
36717W        W 9131   3.776   3.783   4.643
36718W        W 9132  38.953  34.915  12.982
36719W        W 9133  19.767  29.596   3.252
36720W        W 9134  34.086  30.148   0.942
36721W        W 9135   6.278  22.069  13.970
36722W        W 9136   0.842   8.883   4.722
36723W        W 9137  33.041   5.220  13.878
36724W        W 9138  12.353   3.433  11.985
36725W        W 9139  11.636  34.415   2.185
36726W        W 9140  42.790   1.782  13.511
36727W        W 9141  18.289  16.793   4.287
36728W        W 9142  31.435  11.354  13.435
36729W        W 9143  44.997  22.202   3.250
36730W        W 9144  38.370  20.211  13.920
36731W        W 9145  33.405  41.416   2.838
36732W        W 9146   5.700  18.103  13.846
36733W        W 9147  38.371   5.755  11.082
36734W        W 9148   3.456   4.362   4.727
36735W        W 9149  35.042  10.647   0.445
36736W        W 9150  14.684   0.840   3.754
36737W        W 9151  10.233  27.113   3.863
36738W        W 9152   4.249  38.467   0.406
36739W        W 9153  15.247  38.970   9.935
36740W        W 9154  37.518  20.692  13.013
36741W        W 9155  18.587  37.975   0.876
36742W        W 9156   4.381  39.436   5.306
36743W        W 9157  16.660  16.318  12.444
36744W        W 9158  24.992   6.359  13.497
36745W        W 9159  28.526  18.177   3.748
36746W        W 9160  11.367   9.703   4.289
36747W        W 9161   9.248  19.182  11.499
36748W        W 9162  17.770  44.944   2.744
36749W        W 9163  32.897  26.142  12.093
36750W        W 9164  22.011  31.529   2.326
36751W        W 9165  37.944   0.478  12.930
36752W        W 9166  17.658  30.450   1.877
36753W        W 9167  38.403   7.201  12.830
36754W        W 9168  21.583  44.802   1.759
36755W        W 9169  13.616  43.270   0.735
36756W        W 9170   9.809  32.102   1.856
36757W        W 9171  13.662  32.423  12.900
36758W        W 9172  28.109  34.027   3.810
36759W        W 9173  23.515  16.238  14.939
36760W        W 9174  31.058  20.110   4.668
36761W        W 9175   6.409  32.954  13.350
36762W        W 9176  21.145  43.830   0.748
36763W        W 9177  27.555  11.662  12.478
36764W        W 9178  19.624  28.021  13.850
36765W        W 9179  40.476   3.825  11.520
36766W        W 9180  18.124  25.058   4.742
36767W        W 9181  13.157  30.917   0.242
36768W        W 9182  40.942  19.603  12.854
36769W        W 9183  43.841  17.673  12.973
36770W        W 9184   0.874  26.137   4.640
36771W        W 9185  20.622  21.181   3.328
36772W        W 9186   3.953   7.696  12.496
36773W        W 9187  11.204   0.376  14.972
36774W        W 9188  37.055  19.657   2.187
36775W        W 9189   6.375  33.958   3.841
36776W        W 9190   4.793  33.581  13.523
36777W        W 9191   2.951  22.624  10.450
36778W        W 9192  29.142  42.496  14.502
36779W        W 9193  44.903  16.696  13.323
36780W        W 9194  20.119   3.342  10.566
36781W        W 9195   0.294  31.051   0.293
36782W        W 9196  36.972  35.888  12.392
36783W        W 9197   4.843  22.713   2.788
36784W        W 9198   7.838  25.116   0.448
36785W        W 9199  17.074   0.900  11.594
36786W        W 9200  25.476  39.908   0.949
36787W        W 9201  13.755  26.509  10.428
36788W        W 9202  13.278  13.695   2.262
36789W        W 9203   8.225  20.119  10.981
36790W        W 9204  25.127   8.895   5.192
36791W        W 9205  27.954  43.335   0.943
36792W        W 9206  37.336  44.411  11.564
36793W        W 9207  15.709   6.779   9.963
36794W        W 9208  22.027  31.561   1.884
36795W        W 9209  39.941  20.170  10.999
36796W        W 9210  23.996   4.737   2.239
36797W        W 9211   8.854  44.347  13.878
36798W        W 9212   2.370  17.715  12.384
36799W        W 9213  24.125  19.574   3.759
36800W        W 9214  17.237  12.830   4.291
36801W        W 9215  41.347   0.885   0.258
36802W        W 9216  13.259  15.681  14.992
36803W        W 9217  33.914  16.229  13.342
36804W        W 9218  32.972  21.573  13.030
36805W        W 9219  25.032  12.271   2.244
36806W        W 9220  30.453  26.670   2.416
36807W        W 9221  21.748  19.713  14.312
36808W        W 9222  43.466   2.954   1.843
36809W        W 9223   8.860  38.335  12.487
36810W        W 9224  35.089  23.144   4.701
36811W        W 9225  34.928   0.915   3.343
36812W        W 9226  39.891  11.288   1.810
36813W        W 9227  21.094   5.295  13.384
36814W        W 9228   0.374  10.685  12.567
36815W        W 9229  30.917  44.815   3.324
36816W        W 9230   0.959   7.904   4.687
36817W        W 9231  26.957   2.963  11.401
36818W        W 9232  10.786   6.784   3.650
36819W        W 9233  15.698  32.486  14.434
36820W        W 9234  12.304  42.430   2.882
36821W        W 9235   6.760  30.093  13.369
36822W        W 9236  10.360  10.833  11.101
36823W        W 9237  29.522  15.187  13.451
36824W        W 9238  26.559  25.064   1.301
36825W        W 9239  41.464   9.339  12.859
36826W        W 9240   4.758   3.955  14.837
36827W        W 9241  16.569  30.438   4.713
36828W        W 9242  32.551  42.479  13.509
36829W        W 9243  26.487  40.006   2.872
36830W        W 9244   8.405   4.394   2.303
36831W        W 9245  35.091  42.394  11.906
36832W        W 9246  13.648  26.175   4.184
36833W        W 9247   0.844   7.830   2.799
36834W        W 9248  32.614  26.577  13.874
36835W        W 9249  24.014  43.359   4.802
36836W        W 9250  22.678  25.527   3.830
36837W        W 9251  23.494  18.123   5.632
36838W        W 9252  29.110  27.481   1.404
36839W        W 9253  32.500  34.435  14.874
36840W        W 9254  40.923  19.633   2.845
36841W        W 9255  15.780  13.288  12.089
36842W        W 9256  17.067   7.246   4.139
36843W        W 9257  28.119  40.892   2.187
36844W        W 9258  38.400  16.694   4.127
36845W        W 9259  18.676  21.121  12.542
36846W        W 9260  42.437  21.522   4.142
36847W        W 9261  19.130  10.245  11.473
36848W        W 9262  17.225  13.162   2.715
36849W        W 9263  25.471   4.810  13.334
36850W        W 9264  25.676  27.452  11.067
36851W        W 9265  30.434  25.984   1.235
36852W        W 9266  31.474  21.054   2.756
36853W        W 9267   8.775  33.056  14.303
36854W        W 9268   9.171  15.202  12.498
36855W        W 9269  28.026  23.133  12.080
36856W        W 9270   7.746  14.151  12.368
36857W        W 9271   5.413  24.507  12.909
36858W        W 9272  40.874   7.368  14.402
36859W        W 9273  21.070  39.892  14.861
36860W        W 9274  43.399   1.293  12.541
36861W        W 9275  41.488  38.515  11.898
36862W        W 9276  25.616  21.126   0.433
36863W        W 9277  29.592   2.468  10.424
36864W        W 9278   5.221  40.330   0.779
36865W        W 9279   9.716  13.638  13.386
36866W        W 9280  42.507  42.450  13.507
36867W        W 9281  40.452  42.778   1.904
36868W        W 9282  37.847  10.700   3.286
36869W        W 9283   8.180  41.534  10.439
36870W        W 9284  34.920  35.958   1.330
36871W        W 9285   1.943  25.561  14.991
36872W        W 9286   1.385  39.848  11.891
36873W        W 9287  43.463  26.978  12.903
36874W        W 9288   3.350  44.988   4.259
36875W        W 9289  23.189   1.973  12.043
36876W        W 9290  14.224  10.260  13.796
36877W        W 9291   3.393  27.959   1.760
36878W        W 9292  33.486  15.133   0.734
36879W        W 9293  22.581  18.213   0.467
36880W        W 9294  17.741  42.425  14.925
36881W        W 9295  29.063  10.220   3.161
36882W        W 9296  37.340  42.386   1.713
36883W        W 9297  13.668   1.825   3.735
36884W        W 9298  40.349  25.647  14.879
36885W        W 9299   6.206   3.249   5.283
36886W        W 9300  23.022  23.653  11.507
36887W        W 9301  23.049  34.404  11.435
36888W        W 9302  10.224  40.832   4.280
36889W        W 9303  18.222  29.019   2.789
36890W        W 9304  44.946  24.661   4.302
36891W        W 9305  39.519  37.904   1.704
36892W        W 9306  11.366  24.019   3.300
36893W        W 9307  11.263  35.364   1.734
36894W        W 9308  14.156  10.762   4.654
36895W        W 9309  19.272  25.587  10.897
36896W        W 9310   7.859  38.563   0.759
36897W        W 9311  29.592  13.324   0.483
36898W        W 9312  41.837   9.304   3.773
36899W        W 9313  39.377  14.787  13.417
36900W        W 9314  36.924  40.399  10.899
36901W        W 9315  38.030  31.116  12.426
36902W        W 9316  11.802  44.452  14.765
36903W        W 9317  20.272  10.778   2.884
36904W        W 9318  35.475  44.929  11.073
36905W        W 9319  40.310  40.863  12.547
36906W        W 9320  16.740  15.228   4.192
36907W        W 9321  41.831  31.505  12.936
36908W        W 9322  27.198  20.579   0.443
36909W        W 9323  37.445  22.030   9.955
36910W        W 9324   1.975  26.677   1.785
36911W        W 9325  17.602   5.238  11.568
36912W        W 9326  14.104  41.847   5.312
36913W        W 9327   3.266  15.259  12.343
36914W        W 9328  40.965  23.671   0.737
36915W        W 9329  36.512  37.879  13.401
36916W        W 9330  38.826   7.365  14.305
36917W        W 9331   3.822  41.466  13.501
36918W        W 9332  29.041  12.133  14.434
36919W        W 9333  34.913  22.693  11.467
36920W        W 9334  44.390  41.346  13.044
36921W        W 9335  12.335  41.002  13.793
36922W        W 9336  13.255  29.919   2.346
36923W        W 9337  42.445  22.073   0.767
36924W        W 9338  26.040  40.351  13.814
36925W        W 9339  12.145  38.453   1.351
36926W        W 9340  30.437  34.121  12.524
36927W        W 9341   7.775  19.071  10.949
36928W        W 9342  27.459  30.964   1.807
36929W        W 9343  14.108  43.866   2.862
36930W        W 9344   1.820  14.700  12.393
36931W        W 9345   2.345  41.456  14.439
36932W        W 9346  42.329  12.813   3.384
36933W        W 9347   6.215  35.886   1.447
36934W        W 9348  30.544   8.804   0.450
36935W        W 9349  39.510  18.065  14.387
36936W        W 9350  24.091  41.339   0.767
36937W        W 9351  14.624  10.834  14.990
36938W        W 9352  25.098  27.502   3.211
36939W        W 9353  12.319  27.605  10.592
36940W        W 9354  21.262  24.626   4.791
36941W        W 9355  16.739  13.302  13.978
36942W        W 9356  22.027  29.661  12.977
36943W        W 9357  40.885  32.461   1.701
36944W        W 9358  34.546  31.057  13.912
36945W        W 9359  37.890   8.367   1.794
36946W        W 9360  42.466  15.684  13.522
36947W        W 9361  25.560  42.281  14.823
36948W        W 9362  16.722  34.440  11.879
36949W        W 9363  39.346  10.249   5.166
36950W        W 9364   2.771  17.703   2.675
36951W        W 9365  43.922  29.923  11.510
36952W        W 9366  16.704  38.927  14.391
36953W        W 9367   2.418  44.387  13.888
36954W        W 9368  27.509   2.278   4.837
36955W        W 9369  16.802  44.290   5.144
36956W        W 9370  42.799  17.622   3.690
36957W        W 9371  36.042  20.252   0.450
36958W        W 9372  38.516  33.052   3.709
36959W        W 9373   0.844  18.099  10.542
36960W        W 9374  34.369  30.151  14.030
36961W        W 9375  43.955  19.161   0.768
36962W        W 9376  16.235  22.661   9.950
36963W        W 9377  29.624  40.536   1.391
36964W        W 9378  39.894   0.492  13.936
36965W        W 9379  23.076  37.345   3.229
36966W        W 9380  33.900  20.106   2.843
36967W        W 9381   4.385  38.423   3.197
36968W        W 9382  44.409  14.805  14.391
36969W        W 9383  43.307  18.745  13.852
36970W        W 9384  27.121  30.995  14.923
36971W        W 9385   6.383  44.324   0.939
36972W        W 9386   9.711  21.601  11.107
36973W        W 9387  21.197  13.146   3.157
36974W        W 9388  20.092  24.622  10.939
36975W        W 9389  36.383  39.480  11.466
36976W        W 9390  22.733  11.314   1.318
36977W        W 9391  37.426  15.607  10.122
36978W        W 9392  19.608  24.073   4.177
36979W        W 9393   2.467   8.684   2.339
36980W        W 9394  41.445  20.702   3.687
36981W        W 9395  26.497  27.672  11.050
36982W        W 9396  22.228  14.677  14.821
36983W        W 9397  36.048  28.978  12.944
36984W        W 9398  29.120   2.768   4.129
36985W        W 9399  22.007   5.242  12.476
36986W        W 9400  17.579   9.300   2.403
36987W        W 9401  23.712  13.264   0.896
36988W        W 9402  18.282  21.616  10.408
36989W        W 9403  18.226   5.890  11.377
36990W        W 9404   8.698  22.667  13.985
36991W        W 9405   9.786  13.322  10.933
36992W        W 9406  14.724  19.764  10.494
36993W        W 9407  22.524  33.581   3.240
36994W        W 9408   9.352  40.032   1.432
36995W        W 9409  12.617  20.273  12.473
36996W        W 9410   7.667   1.897   2.823
36997W        W 9411  20.230  40.302  14.405
36998W        W 9412  33.961  13.704  10.642
36999W        W 9413  42.465  27.608   1.270
37000W        W 9414  31.020   5.261   2.230
37001W        W 9415  28.935  34.610  10.567
37002W        W 9416  28.644   6.805  11.901
37003W        W 9417  38.941   0.914   4.674
37004W        W 9418  13.206  28.621   2.193
37005W        W 9419  33.881   6.858  11.022
37006W        W 9420  42.864   5.849   2.817
37007W        W 9421   3.382  19.711   4.336
37008W        W 9422  16.604   0.883  14.431
37009W        W 9423  22.113  16.100  12.078
37010W        W 9424  36.002  30.119  10.927
37011W        W 9425  12.738  23.692  12.898
37012W        W 9426  18.138  19.096  12.346
37013W        W 9427   3.905  14.673   3.725
37014W        W 9428  33.496  42.839   0.375
37015W        W 9429  16.609  19.285  14.910
37016W        W 9430  39.965  39.528   1.416
37017W        W 9431  24.063  24.103   1.439
37018W        W 9432  34.973  37.930   0.935
37019W        W 9433  31.082  28.131   0.460
37020W        W 9434  31.083   0.818  13.015
37021W        W 9435  42.515  11.326   0.259
37022W        W 9436   9.800  10.326   3.719
37023W        W 9437   9.316   1.892   4.269
37024W        W 9438  15.590  34.892  11.480
37025W        W 9439   6.317  37.395   2.836
37026W        W 9440  28.638  32.607   1.417
37027W        W 9441  12.121  22.726  14.987
37028W        W 9442   3.712   3.431  10.897
37029W        W 9443  20.531  28.475   1.333
37030W        W 9444   7.778  43.780   0.429
37031W        W 9445  12.173   6.914  11.506
37032W        W 9446  17.253   5.304  10.449
37033W        W 9447  36.037  39.541   3.311
37034W        W 9448  25.667  44.364  14.811
37035W        W 9449  44.279  43.376  13.982
37036W        W 9450  26.505  33.049   9.972
37037W        W 9451  41.914  30.532  11.039
37038W        W 9452  30.436   3.819   0.882
37039W        W 9453  39.814  18.125  13.338
37040W        W 9454  42.476  29.459  14.981
37041W        W 9455  13.693  29.500   4.190
37042W        W 9456   5.725  39.849  10.503
37043W        W 9457   3.940  21.564   0.307
37044W        W 9458  40.967  28.534  12.096
37045W        W 9459  26.019   6.243   4.230
37046W        W 9460   2.369  35.472  11.518
37047W        W 9461  15.254  11.267   2.379
37048W        W 9462  30.154   7.348  14.394
37049W        W 9463  32.031   3.222  13.535
37050W        W 9464  36.440  23.143   1.755
37051W        W 9465  22.512  13.617   1.725
37052W        W 9466  33.578  23.080  14.987
37053W        W 9467  30.643  29.548  10.993
37054W        W 9468   8.869  27.041  11.111
37055W        W 9469  21.069   9.299   2.794
37056W        W 9470  34.450  34.543  11.060
37057W        W 9471   9.363  24.173  10.472
37058W        W 9472  32.585  24.581  12.830
37059W        W 9473  37.473  37.874  14.313
37060W        W 9474  32.396  35.046   0.469
37061W        W 9475  42.336  40.804  10.427
37062W        W 9476  42.283  12.820  10.888
37063W        W 9477  20.265  31.909   1.258
37064W        W 9478   7.369  12.255  12.831
37065W        W 9479  31.632  32.557  14.451
37066W        W 9480  29.532  21.704  13.874
37067W        W 9481  39.515  22.600  14.957
37068W        W 9482  38.930  40.937  13.529
37069W        W 9483  10.704  21.552  12.016
37070W        W 9484  36.934  35.441  10.135
37071W        W 9485   4.764   7.370   1.819
37072W        W 9486   9.879  24.018  13.369
37073W        W 9487  40.896  32.054  14.876
37074W        W 9488  26.164  19.779   3.370
37075W        W 9489  34.068  32.068  12.412
37076W        W 9490  18.567  16.616  14.460
37077W        W 9491   6.772  14.715   2.252
37078W        W 9492  41.945  24.636   2.696
37079W        W 9493  20.163  26.038   4.216
37080W        W 9494  22.024  29.570  13.353
37081W        W 9495   1.387  42.327  10.896
37082W        W 9496   3.755  20.148   2.250
37083W        W 9497  27.986  42.424  13.343
37084W        W 9498  41.323  21.065   0.799
37085W        W 9499  21.602  32.022  14.835
37086W        W 9500   5.243   9.857  14.475
37087W        W 9501  36.491  17.718   3.187
37088W        W 9502  23.611   2.280   4.813
37089W        W 9503   6.327   8.259   4.229
37090W        W 9504  43.961  43.444  10.497
37091W        W 9505   6.328  14.277   4.743
37092W        W 9506   8.821  16.663  11.999
37093W        W 9507  11.157  41.922  12.074
37094W        W 9508   2.932  31.077   0.290
37095W        W 9509   0.266  17.706  10.596
37096W        W 9510  38.486  31.104   2.798
37097W        W 9511   3.437   7.801  11.512
37098W        W 9512  41.801  20.217  14.387
37099W        W 9513  23.617   4.887   1.300
37100W        W 9514  13.694  25.009   0.330
37101W        W 9515  36.889   6.217  13.414
37102W        W 9516  37.070   6.782  12.453
37103W        W 9517  28.174  28.141  14.909
37104W        W 9518  14.239  16.769  14.504
37105W        W 9519  16.728  15.702  11.560
37106W        W 9520   4.748  36.523  10.459
37107W        W 9521   2.896   5.693  14.428
37108W        W 9522  20.759  13.108   0.389
37109W        W 9523  16.253  34.077   4.337
37110W        W 9524   1.295  41.521   3.190
37111W        W 9525  10.354   6.332   4.689
37112W        W 9526  20.583  23.191  10.539
37113W        W 9527  23.187   7.779   2.666
37114W        W 9528  12.725  23.686   4.772
37115W        W 9529  40.399   7.715   0.373
37116W        W 9530  12.665   6.677   5.288
37117W        W 9531   7.897  30.123   0.906
37118W        W 9532  41.534  10.640  10.992
37119W        W 9533  29.133  25.499  13.891
37120W        W 9534  28.621  41.978   2.822
37121W        W 9535  34.948  27.079  10.593
37122W        W 9536  17.181   3.432   9.963
37123W        W 9537  14.211  22.188  11.971
37124W        W 9538  17.661   4.870   0.822
37125W        W 9539   2.245  26.615  10.058
37126W        W 9540  27.600  33.545   2.184
37127W        W 9541  12.853  16.315  11.058
37128W        W 9542  30.994  29.435   4.133
37129W        W 9543  24.161  13.666  14.453
37130W        W 9544  31.920  32.132  11.934
37131W        W 9545  22.178  34.914  14.384
37132W        W 9546  35.470  38.550  11.382
37133W        W 9547  30.136  42.394  10.967
37134W        W 9548  28.664  19.086  12.468
37135W        W 9549  37.980  28.941   1.769
37136W        W 9550  38.449  12.146   2.187
37137W        W 9551  34.918  29.999   2.903
37138W        W 9552  11.351  18.213  10.496
37139W        W 9553   9.816  17.640   0.730
37140W        W 9554   4.879  16.305   2.197
37141W        W 9555  19.185  25.033   4.829
37142W        W 9556  18.050  30.916  11.092
37143W        W 9557   0.303   1.816   2.808
37144W        W 9558  26.695   1.429   2.728
37145W        W 9559  26.468   8.336  13.367
37146W        W 9560  44.003  26.579  10.466
37147W        W 9561  34.913  24.712  14.867
37148W        W 9562  13.289  39.999   2.286
37149W        W 9563  10.287   5.201   2.312
37150W        W 9564  33.060  16.746   3.861
37151W        W 9565   1.760  40.911   2.278
37152W        W 9566   4.796  11.706   1.368
37153W        W 9567  25.994  31.428  11.485
37154W        W 9568  12.118  25.684   0.382
37155W        W 9569  42.458   7.294   0.366
37156W        W 9570  32.410  24.486  12.516
37157W        W 9571  22.624  22.669   0.933
37158W        W 9572  31.446  40.992  12.506
37159W        W 9573  19.726  32.506  13.376
37160W        W 9574   8.823  22.650   2.265
37161W        W 9575  29.068   3.321   0.854
37162W        W 9576  38.526  39.833  14.939
37163W        W 9577  43.306  24.624   4.167
37164W        W 9578  35.893  40.531   1.736
37165W        W 9579  11.860   7.176   2.185
37166W        W 9580  10.233  16.193   4.668
37167W        W 9581  37.487  27.640  11.048
37168W        W 9582  15.659  11.189   0.316
37169W        W 9583  15.304   1.898  10.474
37170W        W 9584   9.833  14.648  14.448
37171W        W 9585  28.574  37.082   2.818
37172W        W 9586  16.125  12.674   0.895
37173W        W 9587  22.083   9.703  13.408
37174W        W 9588   2.862   2.317  12.847
37175W        W 9589  44.261  15.267   3.336
37176W        W 9590  26.611  16.267   0.245
37177W        W 9591  22.518  41.397  13.489
37178W        W 9592  13.197   0.257   0.934
37179W        W 9593  41.997  17.147  11.606
37180W        W 9594   2.927  43.325  12.875
37181W        W 9595  17.066  34.505   1.883
37182W        W 9596  36.352  40.893   4.322
37183W        W 9597  18.291  44.860   0.806
37184W        W 9598  33.038  11.703   0.310
37185W        W 9599  11.185  17.612  13.506
37186W        W 9600   6.331  28.133  13.880
37187W        W 9601  11.131  15.595   1.212
37188W        W 9602  19.646  12.629  10.578
37189W        W 9603  27.998  43.501  10.635
37190W        W 9604  14.146   9.202  13.418
37191W        W 9605  21.133   6.844   1.325
37192W        W 9606  39.477   1.960   3.641
37193W        W 9607  26.480   9.845  13.990
37194W        W 9608  34.601   5.703   1.797
37195W        W 9609   0.414  31.547  13.528
37196W        W 9610  37.434  24.660   0.342
37197W        W 9611  44.470  14.623   4.236
37198W        W 9612  26.640  30.559  12.866
37199W        W 9613  17.583  37.911   2.884
37200W        W 9614  25.116  43.477   3.835
37201W        W 9615  44.915  28.630  13.469
37202W        W 9616   1.826   1.900  14.466
37203W        W 9617  38.334  27.037   1.436
37204W        W 9618  14.670  38.001  13.518
37205W        W 9619  41.310  18.607   0.409
37206W        W 9620  35.599  28.163  11.933
37207W        W 9621  44.448  15.669   1.744
37208W        W 9622  12.666   4.399   2.336
37209W        W 9623  37.977  17.731   2.285
37210W        W 9624  19.685  25.557   0.908
37211W        W 9625   6.326  15.276  10.125
37212W        W 9626  13.710   5.410  13.877
37213W        W 9627  36.415   5.723   2.191
37214W        W 9628  36.454  16.091  13.987
37215W        W 9629  40.808  30.042   0.927
37216W        W 9630   3.235  29.648  12.465
37217W        W 9631  15.087  44.340   3.735
37218W        W 9632  43.981  43.836  13.040
37219W        W 9633  34.385  11.351   3.642
37220W        W 9634  23.239  37.032   2.693
37221W        W 9635  44.937   3.720   3.711
37222W        W 9636  18.200  13.766  10.916
37223W        W 9637   0.843  34.044   2.203
37224W        W 9638  25.624   2.394  11.534
37225W        W 9639  35.095   0.409   0.469
37226W        W 9640  16.129  30.053   1.855
37227W        W 9641   4.293  40.384   1.729
37228W        W 9642   1.874  41.320  13.372
37229W        W 9643   5.768  33.041  14.401
37230W        W 9644  12.701  41.314  12.921
37231W        W 9645  30.531  11.182  10.482
37232W        W 9646  39.007  43.768  11.935
37233W        W 9647  19.160  22.655   1.758
37234W        W 9648  11.268  44.476  10.978
37235W        W 9649  28.680  36.498  14.485
37236W        W 9650   5.285   4.396  12.944
37237W        W 9651  16.093  22.110   3.706
37238W        W 9652  40.406  32.936   4.695
37239W        W 9653  40.455  33.903  11.604
37240W        W 9654  26.577  43.277  14.282
37241W        W 9655  15.154  37.524   3.860
37242W        W 9656  41.822   6.233   2.372
37243W        W 9657  40.914  13.331  14.763
37244W        W 9658  42.471  18.747   2.698
37245W        W 9659  26.574  18.698   5.157
37246W        W 9660  22.078   4.849  13.008
37247W        W 9661  44.805  24.620   2.864
37248W        W 9662  15.724  30.616  11.493
37249W        W 9663  15.638  14.728  11.875
37250W        W 9664  19.199  22.613   4.789
37251W        W 9665  37.372  25.031   4.270
37252W        W 9666  31.517  34.063   0.299
37253W        W 9667  42.381   0.448   1.246
37254W        W 9668  42.894   8.184   3.158
37255W        W 9669  41.980  10.325  13.019
37256W        W 9670  25.061  21.599   3.267
37257W        W 9671  22.643  20.652  11.386
37258W        W 9672  43.389  36.519  11.891
37259W        W 9673   4.399   3.258  12.013
37260W        W 9674   4.450  13.788   4.688
37261W        W 9675   2.318   8.382  13.919
37262W        W 9676  25.606  14.829   0.943
37263W        W 9677  10.638  13.178   2.805
37264W        W 9678   6.763  42.459   4.184
37265W        W 9679  39.006  15.715   1.264
37266W        W 9680  29.091  12.655  11.515
37267W        W 9681  34.050  24.486   2.334
37268W        W 9682  13.732  13.781   0.901
37269W        W 9683  44.353   3.442   3.788
37270W        W 9684  36.991   6.902   1.297
37271W        W 9685   3.860  26.551  11.878
37272W        W 9686  10.269  12.676   3.744
37273W        W 9687   1.367   5.194  14.951
37274W        W 9688  15.264  37.881   0.437
37275W        W 9689  38.449  25.517   2.768
37276W        W 9690  37.509  44.415   0.769
37277W        W 9691  23.657  11.731  10.440
37278W        W 9692  14.231  38.492   4.298
37279W        W 9693   7.775  12.611   1.785
37280W        W 9694  22.026  24.714   0.388
37281W        W 9695   5.297  18.571  13.546
37282W        W 9696  37.435  34.018  12.946
37283W        W 9697  19.084   9.754  14.991
37284W        W 9698  28.654  17.681  14.793
37285W        W 9699  40.038   2.268   1.324
37286W        W 9700  42.423  13.152   3.289
37287W        W 9701   6.744  15.247  13.504
37288W        W 9702  12.170  12.270  14.767
37289W        W 9703  30.917  33.093   2.199
37290W        W 9704  21.605  38.369  10.576
37291W        W 9705  30.009  17.789  12.450
37292W        W 9706  34.546   3.811  14.477
37293W        W 9707  19.696  40.932  10.538
37294W        W 9708  41.476  43.499  11.485
37295W        W 9709   9.742   5.818   2.189
37296W        W 9710  36.863  29.614  12.414
37297W        W 9711  40.381  14.689   0.786
37298W        W 9712  24.063   2.737  13.497
37299W        W 9713  37.971   6.875  10.914
37300W        W 9714  27.115  32.121  14.320
37301W        W 9715  15.237   2.762   1.450
37302W        W 9716   5.836  23.088   0.766
37303W        W 9717   3.227  11.769  14.000
37304W        W 9718  26.539  28.181   3.228
37305W        W 9719  35.923  38.872   0.288
37306W        W 9720   2.956  24.070  11.086
37307W        W 9721  32.525  26.528   4.805
37308W        W 9722  33.118  13.738  13.976
37309W        W 9723  12.680  44.335  12.575
37310W        W 9724  38.891   3.460  14.505
37311W        W 9725  40.548  31.529  13.898
37312W        W 9726   2.868   7.198   3.244
37313W        W 9727  40.501  34.928  12.375
37314W        W 9728   5.228  34.962  13.428
37315W        W 9729  26.196  21.179   1.263
37316W        W 9730  40.325  15.773  13.493
37317W        W 9731  11.811  39.315  14.864
37318W        W 9732  10.848   7.207   0.750
37319W        W 9733  16.574  43.291   0.794
37320W        W 9734  32.064  12.206   2.740
37321W        W 9735  21.039  11.754  11.116
37322W        W 9736  39.980  33.574  14.288
37323W        W 9737  20.723  30.161  12.439
37324W        W 9738  39.361  43.908  12.365
37325W        W 9739  19.547   7.811   3.711
37326W        W 9740  10.348  38.460   1.402
37327W        W 9741  14.597  28.524  12.430
37328W        W 9742   3.792   2.317  12.026
37329W        W 9743  43.437  30.946  13.793
37330W        W 9744  32.446  23.158  12.868
37331W        W 9745  35.919   0.431   0.902
37332W        W 9746  18.232  15.595  10.536
37333W        W 9747   0.759  18.580  12.498
37334W        W 9748  44.009  13.660   1.414
37335W        W 9749  34.434  34.422  11.509
37336W        W 9750  37.935  11.662   1.705
37337W        W 9751  22.027  15.701  14.886
37338W        W 9752  40.054  33.010  14.009
37339W        W 9753  29.561  32.400   0.836
37340W        W 9754  18.551   5.749   3.751
37341W        W 9755   7.801  16.183   2.368
37342W        W 9756   3.785  38.426   0.791
37343W        W 9757  33.955   0.861   1.424
37344W        W 9758   3.233  21.044   1.714
37345W        W 9759  14.833  41.987   1.833
37346W        W 9760  28.462  37.927   0.343
37347W        W 9761   9.875  33.996  12.036
37348W        W 9762  25.006   4.270  13.003
37349W        W 9763   8.783  14.153   2.270
37350W        W 9764   9.644   2.234   3.349
37351W        W 9765   9.769  33.911   2.283
37352W        W 9766  44.780  35.366  12.980
37353W        W 9767  40.934  28.583  14.763
37354W        W 9768   1.926   5.267  11.488
37355W        W 9769  11.295  30.565   1.805
37356W        W 9770   8.233  41.524  13.992
37357W        W 9771   5.917   7.852   4.672
37358W        W 9772   0.259   9.229  13.936
37359W        W 9773  16.114   3.853  13.827
37360W        W 9774   2.943  29.993  14.880
37361W        W 9775  23.016  34.083  14.442
37362W        W 9776   0.481  10.748   3.870
37363W        W 9777  12.797  43.866   3.370
37364W        W 9778  38.494   9.167   1.288
37365W        W 9779  12.674  31.896  13.875
37366W        W 9780  15.123  27.647  13.933
37367W        W 9781   4.270  37.344   4.705
37368W        W 9782  24.159  38.063   1.886
37369W        W 9783   5.361  23.098  10.953
37370W        W 9784  20.125  28.009   1.269
37371W        W 9785  29.644  30.628  11.509
37372W        W 9786  22.532  14.677   2.716
37373W        W 9787   4.896  10.759  14.315
37374W        W 9788  12.816  40.019   0.345
37375W        W 9789  12.761  23.537  13.441
37376W        W 9790  34.938   9.748   2.233
37377W        W 9791  33.425  29.123   3.233
37378W        W 9792  29.070   3.877  12.836
37379W        W 9793  36.010  39.983  13.922
37380W        W 9794  25.024  39.337   1.351
37381W        W 9795  24.540  19.252  10.588
37382W        W 9796   6.848  16.771  11.391
37383W        W 9797  43.352  12.328  14.290
37384W        W 9798  42.286  12.693   1.822
37385W        W 9799  41.836   8.392   2.719
37386W        W 9800  10.213  44.472   5.127
37387W        W 9801  31.008  43.443   3.729
37388W        W 9802  11.197  23.163   4.835
37389W        W 9803  26.542  18.105   4.767
37390W        W 9804  17.186  19.141   4.250
37391W        W 9805  32.068  25.962  11.111
37392W        W 9806  37.442  42.942   1.235
37393W        W 9807  30.071  19.067   4.150
37394W        W 9808   1.387   2.435   4.163
37395W        W 9809  41.967   2.849  11.458
37396W        W 9810   2.812  15.686   4.714
37397W        W 9811  36.502  30.469  11.869
37398W        W 9812  33.988  14.128  14.997
37399W        W 9813   6.844  16.315   4.815
37400W        W 9814  25.695  38.864  13.034
37401W        W 9815  37.975  18.219   4.689
37402W        W 9816  16.089  34.119   1.375
37403W        W 9817   8.202  40.803  11.021
37404W        W 9818  17.588  11.636  11.870
37405W        W 9819   1.800  36.581   4.821
37406W        W 9820  17.767  42.333  11.866
37407W        W 9821   3.822  26.066   1.716
37408W        W 9822  43.427  28.053   4.739
37409W        W 9823  22.574  17.688  13.859
37410W        W 9824   7.721  14.804  13.941
37411W        W 9825  11.742  22.058   0.439
37412W        W 9826  22.679  41.415  11.091
37413W        W 9827   1.928  17.723   1.710
37414W        W 9828  33.561   3.825   1.812
37415W        W 9829  35.373  26.992  12.461
37416W        W 9830  38.504  34.880  10.477
37417W        W 9831  37.991   3.798  13.403
37418W        W 9832  34.088  16.676  13.530
37419W        W 9833  28.124  36.536   4.809
37420W        W 9834  22.646  35.567  13.814
37421W        W 9835   4.441  29.977   0.888
37422W        W 9836   9.797  23.241   0.276
37423W        W 9837  27.466  28.439   3.655
37424W        W 9838   5.860  13.607   3.345
37425W        W 9839   7.682  20.104  12.559
37426W        W 9840  20.191  17.762  11.971
37427W        W 9841  42.814   8.251  10.422
37428W        W 9842  14.739  22.239  14.405
37429W        W 9843  38.849  32.124   5.118
37430W        W 9844  16.203  33.486   3.660
37431W        W 9845  16.582   8.183   1.252
37432W        W 9846   5.805  18.280   0.292
37433W        W 9847  32.511  33.907  10.488
37434W        W 9848  20.075  13.631   2.265
37435W        W 9849  33.093  20.205  12.494
37436W        W 9850  42.845  32.051  10.955
37437W        W 9851  39.863  32.486   4.644
37438W        W 9852  40.051  13.743  10.529
37439W        W 9853  22.532  40.389   3.372
37440W        W 9854  27.101  29.086   2.864
37441W        W 9855   8.200  34.540  13.889
37442W        W 9856   8.759  37.087   1.749
37443W        W 9857  16.137   5.811   9.583
37444W        W 9858   8.742  23.539  12.032
37445W        W 9859  28.581  34.877   4.134
37446W        W 9860  31.418  33.034   4.710
37447W        W 9861  11.788  43.880   2.811
37448W        W 9862  43.502  34.015   0.961
37449W        W 9863  25.563  30.432   2.734
37450W        W 9864  16.699   7.304  13.965
37451W        W 9865  42.481  41.885  11.542
37452W        W 9866  13.351  44.287   4.284
37453W        W 9867   1.455  14.684  13.353
37454W        W 9868  13.116  39.524  13.507
37455W        W 9869  14.122  44.935  10.413
37456W        W 9870  36.037  41.325  13.001
37457W        W 9871  16.236   4.211   4.817
37458W        W 9872   0.387  34.092  11.588
37459W        W 9873  19.643  12.776   3.266
37460W        W 9874  36.376  14.692   3.789
37461W        W 9875  38.408  41.835   2.236
37462W        W 9876   3.378   1.297  12.831
37463W        W 9877  16.111   4.292  10.439
37464W        W 9878  17.107  29.561   0.326
37465W        W 9879   4.289  31.515  12.894
37466W        W 9880  37.438  16.607  10.637
37467W        W 9881   0.989   2.876  13.312
37468W        W 9882  41.793   9.869   4.115
37469W        W 9883  37.382  24.635  11.509
37470W        W 9884   0.988  43.830   0.339
37471W        W 9885  34.501  12.838   2.286
37472W        W 9886  43.837   8.165  12.852
37473W        W 9887  29.554  25.069  14.468
37474W        W 9888  13.249  20.699  14.934
37475W        W 9889  29.133  21.204  12.538
37476W        W 9890  26.463   2.390   5.194
37477W        W 9891   2.460  26.127  11.050
37478W        W 9892  28.624  33.964  12.484
37479W        W 9893  42.340  30.991  14.290
37480W        W 9894  28.493   1.845  13.310
37481W        W 9895  12.624  18.665   1.716
37482W        W 9896  19.266  16.790  11.120
37483W        W 9897  41.299  43.912  11.560
37484W        W 9898  17.774  15.265   0.827
37485W        W 9899  21.023  27.181  13.408
37486W        W 9900  24.542  22.169   1.821
37487W        W 9901  31.918   3.745   3.693
37488W        W 9902  34.434  18.245  14.337
37489W        W 9903  17.648  38.392   0.784
37490W        W 9904   2.898  11.137  14.870
37491W        W 9905  12.301  14.239  12.970
37492W        W 9906  11.687  27.675  12.931
37493W        W 9907  31.896   8.755   3.722
37494W        W 9908  41.538   2.295  11.569
37495W        W 9909  31.436  17.771   4.800
37496W        W 9910   1.322  23.595   0.807
37497W        W 9911  41.369  34.406  11.973
37498W        W 9912  30.471  38.840   0.354
37499W        W 9913  22.135   0.924   4.165
37500W        W 9914   9.663  33.935   0.442
37501W        W 9915  22.569  43.317   4.739
37502W        W 9916  26.971   8.834  13.481
37503W        W 9917  21.195  18.710  13.318
37504W        W 9918  12.750  20.232  12.861
37505W        W 9919   0.419  21.262   3.811
37506W        W 9920  25.963  13.104  13.416
37507W        W 9921  14.153   3.233   4.713
37508W        W 9922  40.845  28.019  14.803
37509W        W 9923  35.101  12.705  13.920
37510W        W 9924  26.977   6.784   2.861
37511W        W 9925  30.909  33.086   1.695
37512W        W 9926   0.335  13.111   2.764
37513W        W 9927   0.271  33.989   0.406
37514W        W 9928   4.775  19.682  11.387
37515W        W 9929  34.439  17.179  14.848
37516W        W 9930  40.010  32.500   2.227
37517W        W 9931  23.550  36.366  14.945
37518W        W 9932   4.222  38.399   3.737
37519W        W 9933  41.353  17.281  13.821
37520W        W 9934  22.091  19.677   3.280
37521W        W 9935   1.811   8.772   4.202
37522W        W 9936  34.055  39.510   1.321
37523W        W 9937   2.384  39.359  12.838
37524W        W 9938  34.897  35.465  10.619
37525W        W 9939  41.971  44.891  14.281
37526W        W 9940   0.330  23.626  13.412
37527W        W 9941  21.257  42.493  14.506
37528W        W 9942  26.145  31.128  14.793
37529W        W 9943  24.641  34.584  10.897
37530W        W 9944   3.231  13.279   0.777
37531W        W 9945  39.408   4.211   0.384
37532W        W 9946   1.358  33.988  10.907
37533W        W 9947  21.700  29.046   3.871
37534W        W 9948  31.532  44.878  12.054
37535W        W 9949   1.379   4.215   1.796
37536W        W 9950  22.228  10.698  11.950
37537W        W 9951  16.288   3.769   4.288
37538W        W 9952   4.791  18.207  12.489
37539W        W 9953  14.744  20.247   1.438
37540W        W 9954  24.068  13.837  12.925
37541W        W 9955  25.494  30.938   4.223
37542W        W 9956  29.161  24.158   1.805
37543W        W 9957  27.122  20.108  13.043
37544W        W 9958  40.929  43.979  10.634
37545W        W 9959  31.406   5.294   0.301
37546W        W 9960  16.605  37.877  10.553
37547W        W 9961  10.147   9.329  14.501
37548W        W 9962  37.405  21.148   3.209
37549W        W 9963  19.101   5.695  11.376
37550W        W 9964  11.166  41.044   4.309
37551W        W 9965  27.467  40.908  14.822
37552W        W 9966  26.117  36.860   4.754
37553W        W 9967   5.869  16.123   2.867
37554W        W 9968  44.422   9.792   1.781
37555W        W 9969  39.847  27.552  13.337
37556W        W 9970  36.585  20.527   4.268
37557W        W 9971  44.006  11.861  11.889
37558W        W 9972  35.551  30.558   3.680
37559W        W 9973  14.194  17.590   5.288
37560W        W 9974   8.763  33.428  11.492
37561W        W 9975  10.793  37.851   1.372
37562W        W 9976  22.691  42.322   4.326
37563W        W 9977  44.435  20.680   3.242
37564W        W 9978  11.772  32.462   2.692
37565W        W 9979   0.436  35.852   0.736
37566W        W 9980  12.723   0.455  12.415
37567W        W 9981  39.493  41.373  11.945
37568W        W 9982  27.675  23.997   3.306
37569W        W 9983  44.905  14.147   1.866
37570W        W 9984  27.558  25.631  12.943
37571W        W 9985  12.724   9.205  11.991
37572W        W 9986  10.868  11.180   2.731
37573W        W 9987  36.934  33.625  10.968
37574W        W 9988   5.761  19.152  14.012
37575W        W 9989  30.057  13.176   2.240
37576W        W 9990  25.530  18.749  11.961
37577W        W 9991  13.807   1.240   4.146
37578W        W 9992  25.676  13.290  11.887
37579W        W 9993  44.362  24.619  12.413
37580W        W 9994  14.637  15.220  11.037
37581W        W 9995  33.071   8.354  11.037
37582W        W 9996  14.595  24.544   0.790
37583W        W 9997   2.257  35.581  13.007
37584W        W 9998  18.654  43.435  13.389
37585W        W 9999   3.431  23.230  13.539
37586W        W10000   3.225  36.452   0.433
37587W        W10001  17.650  13.258  13.340
37588W        W10002  28.046  16.582  13.315
37589W        W10003   0.491  24.014  13.896
37590W        W10004  38.074  40.511   4.684
37591W        W10005   6.346   1.799  13.881
37592W        W10006  18.093  12.743   4.691
37593W        W10007  33.961  13.157   1.335
37594W        W10008  18.060   3.424   0.878
37595W        W10009  39.484  32.565   0.306
37596W        W10010  38.917   9.316  12.529
37597W        W10011  41.328  25.076   2.874
37598W        W10012  10.229  36.451   0.834
37599W        W10013  34.485  39.476   0.786
37600W        W10014  14.714  17.281   0.443
37601W        W10015  18.237  11.281   3.269
37602W        W10016  10.166  16.192   1.735
37603W        W10017  16.618   3.894   0.886
37604W        W10018  36.915  32.405  11.563
37605W        W10019  15.736  17.746   4.717
37606W        W10020  29.110  12.764   1.321
37607W        W10021  37.964   0.289  13.878
37608W        W10022   4.725  17.623   4.733
37609W        W10023  44.297  43.282   5.131
37610W        W10024  23.560  22.160   3.842
37611W        W10025   7.331   7.702   1.221
37612W        W10026  23.735  16.673   2.868
37613W        W10027  43.922  33.076   2.762
37614W        W10028  33.946  36.926  11.551
37615W        W10029  37.355  42.293  12.534
37616W        W10030  16.601  31.495  13.061
37617W        W10031  21.091  27.023   1.721
37618W        W10032  42.777  22.051   3.854
37619W        W10033   1.298  10.164   1.247
37620W        W10034  27.559  33.563   1.262
37621W        W10035  17.142  37.899  14.796
37622W        W10036   5.914   9.681  12.060
37623W        W10037  21.745   4.263  14.870
37624W        W10038  35.531  29.078   4.184
37625W        W10039   3.856   8.757   3.158
37626W        W10040  26.497  42.843  10.619
37627W        W10041  22.240  43.786  13.333
37628W        W10042  37.957  27.561   4.230
37629W        W10043  20.268  32.585   0.762
37630W        W10044   7.415   1.777   4.687
37631W        W10045   8.307  28.141  12.943
37632W        W10046  15.307   6.254  14.845
37633W        W10047   5.275  22.656  11.925
37634W        W10048  38.468  34.997   0.402
37635W        W10049  16.683   1.310   2.255
37636W        W10050  33.121   4.722  14.456
37637W        W10051  39.840  22.604  10.506
37638W        W10052  25.665  19.619  11.856
37639W        W10053  42.328  19.630  10.414
37640W        W10054   3.377  18.655   2.215
37641W        W10055  12.224  19.141   4.343
37642W        W10056   0.820   0.257  10.933
37643W        W10057  15.136  37.852   2.330
37644W        W10058  28.658  11.766  14.484
37645W        W10059  25.133  11.158  12.429
37646W        W10060   5.858  21.184  13.796
37647W        W10061   2.356  13.796   2.783
37648W        W10062   4.912  33.994  14.359
37649W        W10063   3.913  28.584  10.619
37650W        W10064   4.846   1.241  10.901
37651W        W10065  41.799   6.838  12.048
37652W        W10066  26.496   5.276  13.307
37653W        W10067  14.741   3.458   0.803
37654W        W10068  26.535  37.990  12.568
37655W        W10069  37.921  41.015   4.306
37656W        W10070   7.792  22.151  13.488
37657W        W10071  13.771  28.674  11.562
37658W        W10072  25.610  38.501  14.880
37659W        W10073  23.218  28.470  14.284
37660W        W10074  28.043   0.750   3.310
37661W        W10075  29.946   9.340  12.899
37662W        W10076  17.152  26.603  13.410
37663W        W10077  33.534  21.587  10.482
37664W        W10078  44.887  25.656  13.384
37665W        W10079  28.155  30.522   4.722
37666W        W10080  24.976  34.996   4.683
37667W        W10081  29.068  32.029  13.521
37668W        W10082   5.316   3.870  14.365
37669W        W10083  28.592  40.385   1.819
37670W        W10084  14.781  10.828  14.367
37671W        W10085   4.341  23.593   1.318
37672W        W10086  41.418  29.526  10.642
37673W        W10087   8.778   3.215  10.943
37674W        W10088  38.067   7.326   4.299
37675W        W10089   5.742  14.173  11.941
37676W        W10090  30.596  31.564  14.345
37677W        W10091  13.107  30.041  14.514
37678W        W10092  17.719  25.009  13.847
37679W        W10093  27.981  30.031  14.847
37680W        W10094  33.070  22.193   5.602
37681W        W10095  28.127  31.090   0.482
37682W        W10096   1.270  28.175  13.377
37683W        W10097   0.374  26.977   1.880
37684W        W10098   5.826  32.442   1.399
37685W        W10099   3.930  30.110  14.977
37686W        W10100   8.221  34.523   1.928
37687W        W10101  18.682   8.353   0.752
37688W        W10102  14.815  12.688   2.880
37689W        W10103  30.087  26.469   1.381
37690W        W10104  36.844  43.816   3.648
37691W        W10105  26.968  15.702   0.726
37692W        W10106  20.089  39.541  12.371
37693W        W10107  18.570  21.075  10.926
37694W        W10108  32.408  20.139  11.073
37695W        W10109  32.009   1.348  12.498
37696W        W10110  12.794  42.869  14.452
37697W        W10111  11.730  25.604   2.313
37698W        W10112  37.045  27.969  13.997
37699W        W10113  22.024  10.252   4.268
37700W        W10114  18.633  19.619  11.447
37701W        W10115  39.033  44.341  14.807
37702W        W10116  25.712  12.695   4.141
37703W        W10117  38.365  18.181  12.572
37704W        W10118  38.985  23.134   3.186
37705W        W10119  21.059   2.246  13.947
37706W        W10120  14.633  24.977   1.344
37707W        W10121  35.035   7.329   3.871
37708W        W10122   7.370  16.290  10.506
37709W        W10123  34.377  15.644  14.374
37710W        W10124  28.054  23.233   3.827
37711W        W10125  36.094  37.542   3.865
37712W        W10126  14.613  32.038   3.239
37713W        W10127  20.653  13.150  13.529
37714W        W10128  28.657  30.121   3.730
37715W        W10129   9.324  33.055   0.293
37716W        W10130  37.870  15.140  14.856
37717W        W10131   5.414  19.683  10.483
37718W        W10132  43.786  19.712   1.813
37719W        W10133   0.327  43.960   1.437
37720W        W10134  21.671  34.497   0.815
37721W        W10135  20.551  30.469   4.235
37722W        W10136  44.829  39.463   2.704
37723W        W10137  40.921  33.123  11.029
37724W        W10138  37.880  38.014   1.261
37725W        W10139  42.291  24.153  14.847
37726W        W10140  36.037  26.660  13.931
37727W        W10141   1.848   6.922  14.918
37728W        W10142  44.804  18.716   2.900
37729W        W10143  19.140  42.460   5.627
37730W        W10144  18.292  33.606  14.820
37731W        W10145  14.184  42.966   2.257
37732W        W10146  18.721  34.088   1.430
37733W        W10147  10.853   4.259   1.928
37734W        W10148  24.540  33.073   0.320
37735W        W10149  36.446   9.317   4.807
37736W        W10150  39.413   0.331  10.541
37737W        W10151  44.816  43.853   0.888
37738W        W10152  19.194   1.445   3.380
37739W        W10153  19.192   4.259   0.934
37740W        W10154  18.159  41.897   4.286
37741W        W10155  36.865  22.207   0.938
37742W        W10156  33.412  21.125  11.532
37743W        W10157  18.261   2.316   1.437
37744W        W10158  13.156  16.642  11.559
37745W        W10159  21.642  23.505   4.668
37746W        W10160  41.820  39.424   4.150
37747W        W10161   7.685  41.926  13.467
37748W        W10162   9.753  10.828   2.291
37749W        W10163  37.518  17.112   3.729
37750W        W10164   1.760  38.040   1.292
37751W        W10165   0.838  23.111  13.347
37752W        W10166  41.357   3.923  12.063
37753W        W10167  41.933  37.422   1.736
37754W        W10168   6.277  28.138   9.958
37755W        W10169  19.641  34.025   1.277
37756W        W10170  21.068  28.637  12.922
37757W        W10171  23.128  24.130   4.714
37758W        W10172   3.224  38.466  11.895
37759W        W10173   9.244  31.560   0.446
37760W        W10174  28.170  10.694   3.184
37761W        W10175  37.345  29.606   4.659
37762W        W10176  17.268  15.192  12.413
37763W        W10177  43.829  30.007  14.995
37764W        W10178  36.940  32.014   4.262
37765W        W10179   6.365   4.869   9.954
37766W        W10180  28.662  42.454  14.464
37767W        W10181  11.146  12.704   1.254
37768W        W10182   2.271  13.787  13.424
37769W        W10183  15.728  20.105   4.681
37770W        W10184  35.505   5.250  11.037
37771W        W10185  21.512  19.708  11.410
37772W        W10186  38.959   4.219   4.144
37773W        W10187  27.449  40.864   4.202
37774W        W10188  20.206   8.756  11.569
37775W        W10189  25.580  39.521   3.295
37776W        W10190  15.295  40.986  14.979
37777W        W10191   1.255  31.632   0.390
37778W        W10192  26.182  20.031   1.808
37779W        W10193   7.369  43.447   0.352
37780W        W10194  41.348  38.846  10.159
37781W        W10195   6.700  30.020  12.918
37782W        W10196  37.082   7.190   2.680
37783W        W10197  42.883  20.217   4.751
37784W        W10198   8.385  37.451   0.343
37785W        W10199  35.061  41.941  12.972
37786W        W10200   3.331   8.664   0.914
37787W        W10201  32.577  12.336  10.945
37788W        W10202   3.439  12.837   4.132
37789W        W10203   2.291  27.673   2.886
37790W        W10204   6.863  18.732   0.278
37791W        W10205  43.366  31.630  14.379
37792W        W10206   5.314   2.764  14.978
37793W        W10207   0.473  25.514   1.269
37794W        W10208  14.683  23.693  13.392
37795W        W10209  38.356  44.364   0.738
37796W        W10210  32.056  26.563   2.747
37797W        W10211   8.719  34.373   0.833
37798W        W10212  41.004  38.340   2.687
37799W        W10213  21.621  33.966   2.794
37800W        W10214  18.579   9.174   0.444
37801W        W10215  26.208  41.294  12.434
37802W        W10216  22.076  25.570   1.884
37803W        W10217  30.944   7.720   4.837
37804W        W10218   6.292  18.787   0.948
37805W        W10219   7.245  10.810  11.878
37806W        W10220  44.271  44.941   0.903
37807W        W10221  26.018  40.445  13.058
37808W        W10222  27.050  28.003   1.360
37809W        W10223  25.483  41.009   3.701
37810W        W10224  43.468  12.310   2.901
37811W        W10225   3.745  19.771   3.222
37812W        W10226  30.978   8.267   2.268
37813W        W10227   1.254   3.459   4.636
37814W        W10228  42.976   9.347   3.357
37815W        W10229  44.962  38.328  13.803
37816W        W10230   2.445  43.873   4.782
37817W        W10231   0.855  16.268  13.964
37818W        W10232  41.878  34.548  11.376
37819W        W10233  24.060  40.882   3.188
37820W        W10234  19.095   3.799  11.924
37821W        W10235  11.777   4.806   2.903
37822W        W10236   3.792  25.983  14.024
37823W        W10237  32.933  38.907  11.395
37824W        W10238   7.724  15.304  14.382
37825W        W10239  16.313  31.583  13.971
37826W        W10240   1.262   9.326   4.793
37827W        W10241  42.505   1.913   1.903
37828W        W10242  33.544   6.205   0.407
37829W        W10243  27.155  25.519   1.325
37830W        W10244  16.579  41.862  10.911
37831W        W10245  29.094  37.569   4.316
37832W        W10246   4.894  12.843  13.877
37833W        W10247  31.520  20.202   2.181
37834W        W10248  29.960   2.903  10.541
37835W        W10249  36.582  20.187  13.792
37836W        W10250  44.264  25.192   2.381
37837W        W10251  12.804  22.629   0.927
37838W        W10252  21.050  14.205  10.532
37839W        W10253  18.652   9.367  13.027
37840W        W10254  31.471   2.230   3.337
37841W        W10255  41.421  29.471   2.306
37842W        W10256  25.165  19.133   1.770
37843W        W10257  27.596  43.461   2.700
37844W        W10258  36.424  23.163  13.913
37845W        W10259  27.626  20.526  14.814
37846W        W10260  40.804  39.867   1.802
37847W        W10261  33.476   2.779   2.775
37848W        W10262  12.158  28.437  12.512
37849W        W10263  34.389  29.663  12.480
37850W        W10264   5.404  21.059   2.854
37851W        W10265  39.539  17.727  10.492
37852W        W10266  33.903  19.125   2.413
37853W        W10267  31.108  18.287   1.799
37854W        W10268   1.262  23.709   1.251
37855W        W10269  25.688  30.079   2.737
37856W        W10270  33.085   7.859   0.751
37857W        W10271   5.212  26.168   9.672
37858W        W10272  40.823  20.629  13.496
37859W        W10273  29.949   8.747  12.005
37860W        W10274  30.619  21.222  10.993
37861W        W10275  17.167  35.404  14.420
37862W        W10276  10.351   3.266   1.866
37863W        W10277  20.529   5.741  11.391
37864W        W10278   5.832  18.226  11.532
37865W        W10279  39.919   2.369  11.408
37866W        W10280  32.090  25.133   4.828
37867W        W10281   5.426  42.369  12.933
37868W        W10282  19.178  20.090   0.738
37869W        W10283   0.304  38.068  14.998
37870W        W10284  33.509  14.164   5.263
37871W        W10285  30.540  18.707  13.884
37872W        W10286   9.680   6.856   2.201
37873W        W10287  24.181  12.749  11.073
37874W        W10288   8.720   9.193  14.340
37875W        W10289  15.228   7.390   2.278
37876W        W10290  21.231  27.050   1.389
37877W        W10291  15.680   6.341  11.578
37878W        W10292  17.176   5.774  14.003
37879W        W10293   9.181  29.545   4.178
37880W        W10294  32.540   3.348  12.862
37881W        W10295  42.947  21.738  10.897
37882W        W10296  39.831  33.033   1.782
37883W        W10297  24.189  43.982  12.847
37884W        W10298  14.627  14.186   2.703
37885W        W10299  15.298   9.647   1.852
37886W        W10300   8.668  11.796  13.027
37887W        W10301  33.504  14.335   3.798
37888W        W10302  13.198  20.255   0.358
37889W        W10303  39.815   6.266  14.781
37890W        W10304  17.291   5.791   1.822
37891W        W10305  23.138  44.807   4.268
37892W        W10306  13.158  19.066   4.838
37893W        W10307  26.556  27.168  11.514
37894W        W10308  32.474  40.325  14.977
37895W        W10309  37.870  12.659   4.308
37896W        W10310  18.619  41.495  14.811
37897W        W10311  11.270  29.525  12.081
37898W        W10312  25.161  40.375  12.931
37899W        W10313  12.679  14.782  11.454
37900W        W10314  19.082  32.907  11.892
37901W        W10315  22.147   3.725  14.841
37902W        W10316  35.003  10.327   5.143
37903W        W10317  28.593  26.984   4.810
37904W        W10318   9.188   4.730  12.493
37905W        W10319  10.304  41.361   5.146
37906W        W10320  26.550  12.333  12.052
37907W        W10321  44.294  31.959   5.235
37908W        W10322   2.817   2.251   4.826
37909W        W10323  43.797  39.502   0.934
37910W        W10324   3.943  42.487   1.916
37911W        W10325  17.269  35.433  12.404
37912W        W10326  19.671  41.941  12.009
37913W        W10327  12.299  41.296  10.954
37914W        W10328  12.721  21.542  13.921
37915W        W10329  16.748  44.876   5.592
37916W        W10330  11.742  32.996   4.119
37917W        W10331   0.387  14.738   0.765
37918W        W10332  16.120   0.324  12.081
37919W        W10333  42.368  38.010   2.257
37920W        W10334  20.669  35.001   2.875
37921W        W10335  26.172  19.771   4.801
37922W        W10336  19.563  14.252  13.855
37923W        W10337  10.246  20.263   4.126
37924W        W10338  15.672  33.543  12.579
37925W        W10339  16.231  35.015   3.208
37926W        W10340  27.100  40.447  11.039
37927W        W10341  28.142  25.055   2.306
37928W        W10342  37.835  43.474  12.480
37929W        W10343  28.083  40.532  10.470
37930W        W10344  10.857  13.723  12.899
37931W        W10345  31.630  33.981  14.986
37932W        W10346  35.367  17.611  14.020
37933W        W10347   0.367  40.442   1.317
37934W        W10348  24.536   4.771  11.884
37935W        W10349  16.087  31.565  11.046
37936W        W10350  19.644  15.275   2.235
37937W        W10351  29.613  31.407   2.206
37938W        W10352  34.965  21.725   2.252
37939W        W10353  15.166  28.632  11.915
37940W        W10354  37.425   7.340   1.844
37941W        W10355  33.576  12.154  13.342
37942W        W10356  25.099  28.154  14.436
37943W        W10357  42.813  11.333  10.630
37944W        W10358  24.999  25.113  12.496
37945W        W10359  31.481  10.261  14.923
37946W        W10360  28.043  31.059   1.902
37947W        W10361  25.147  42.888   1.846
37948W        W10362  33.085  42.824   3.734
37949W        W10363   8.728  33.579   0.474
37950W        W10364  26.160  32.007  14.321
37951W        W10365  16.796   8.889  14.311
37952W        W10366  24.706  39.357  10.517
37953W        W10367  30.509  30.114  11.557
37954W        W10368  28.033  20.608   2.351
37955W        W10369  17.124  12.678   5.120
37956W        W10370  41.954   6.920   2.800
37957W        W10371  14.195  14.834  12.060
37958W        W10372  40.012   5.401  14.460
37959W        W10373  20.596   9.230  13.458
37960W        W10374  10.143  17.081  14.856
37961W        W10375  20.210   1.919  11.884
37962W        W10376  28.552  25.008   2.386
37963W        W10377   6.257   1.382  13.829
37964W        W10378   3.874   3.783   0.788
37965W        W10379   6.289  17.596   2.364
37966W        W10380   4.345  22.609  10.424
37967W        W10381  28.095  15.110   2.693
37968W        W10382  40.524   9.681  11.478
37969W        W10383   9.290  33.114  10.524
37970W        W10384   3.754  10.812   0.393
37971W        W10385  27.031  20.036   1.874
37972W        W10386  16.315  25.548   2.855
37973W        W10387  19.221  10.728   2.805
37974W        W10388  34.027   7.679  12.847
37975W        W10389  31.969  11.829   3.222
37976W        W10390  18.138  42.487   1.317
37977W        W10391  11.214  11.864   3.786
37978W        W10392   2.467   3.346  11.985
37979W        W10393   3.933  16.709  10.505
37980W        W10394   2.817  16.692  11.542
37981W        W10395  31.900  34.943   2.264
37982W        W10396  15.722  24.605  14.844
37983W        W10397  12.165  23.560   4.333
37984W        W10398   8.207  23.208  11.495
37985W        W10399  21.602  36.900  12.524
37986W        W10400  37.479  40.883  14.015
37987W        W10401   0.403  24.556  11.888
37988W        W10402   3.730  19.110  10.910
37989W        W10403   9.168  43.281   0.416
37990W        W10404  30.497  24.518  12.013
37991W        W10405  28.017  24.585  11.927
37992W        W10406   1.321  43.784   0.449
37993W        W10407  12.765  16.114   1.778
37994W        W10408  17.799   2.238  13.958
37995W        W10409  36.870   7.331   0.959
37996W        W10410   3.859  24.030  12.011
37997W        W10411  22.600   4.900  13.333
37998W        W10412  42.884  32.113   0.935
37999W        W10413  27.446  15.278  14.959
38000W        W10414  13.777  39.948  14.928
38001W        W10415  36.999  12.303   4.740
38002W        W10416   7.886  25.212  11.447
38003W        W10417  31.130  14.632   1.375
38004W        W10418  21.586   9.327   4.328
38005W        W10419  26.035  40.407  13.400
38006W        W10420  10.230  39.503  11.014
38007W        W10421  26.679   8.340   3.752
38008W        W10422   5.411  38.031   1.890
38009W        W10423  32.468   8.668   3.644
38010W        W10424  11.206  11.219   4.629
38011W        W10425   6.342  24.544   0.849
38012W        W10426   6.893  23.577  13.021
38013W        W10427  16.618  43.351  14.832
38014W        W10428  16.720  12.346  11.508
38015W        W10429  27.691   7.306   2.686
38016W        W10430  20.590  26.647   1.787
38017W        W10431  30.543  42.507   0.803
38018W        W10432  39.321  30.626   4.707
38019W        W10433  28.112  26.530  14.362
38020W        W10434  22.020  13.703  14.501
38021W        W10435  26.698  22.730   0.815
38022W        W10436  16.313   0.804  10.141
38023W        W10437   4.376  37.010  11.888
38024W        W10438  17.670  28.071   1.269
38025W        W10439  18.093   1.855  13.510
38026W        W10440  17.094  30.658  12.550
38027W        W10441  37.947  11.147  13.483
38028W        W10442  20.116  28.596  10.979
38029W        W10443  15.582  41.857  10.975
38030W        W10444  31.487  12.189  12.053
38031W        W10445  31.941  42.291  12.541
38032W        W10446  23.165  33.499   4.808
38033W        W10447  31.646  41.990  10.963
38034W        W10448   5.297  21.576  11.526
38035W        W10449  43.920  24.570  11.863
38036W        W10450  43.909  34.884  11.959
38037W        W10451  32.426   5.771   0.888
38038W        W10452  34.552  41.404   1.775
38039W        W10453  35.461  31.963  10.622
38040W        W10454  17.665  41.368  14.819
38041W        W10455  34.574  21.679   1.904
38042W        W10456   7.191   1.265   4.114
38043W        W10457  24.012  39.941  10.002
38044W        W10458  22.524  26.013  12.952
38045W        W10459  41.302  38.878  11.936
38046W        W10460  44.764  31.900  13.857
38047W        W10461   7.404  13.628  13.794
38048W        W10462   9.369  17.695  13.988
38049W        W10463  37.044  30.120  14.785
38050W        W10464   6.857  25.490   1.746
38051W        W10465   3.348   0.450  12.513
38052W        W10466   0.933  30.066  13.465
38053W        W10467  21.683   2.947   1.777
38054W        W10468  13.649  11.756  13.814
38055W        W10469  30.068   0.370   0.785
38056W        W10470   0.927  42.280  12.501
38057W        W10471  33.886  36.355   3.286
38058W        W10472  32.439  41.009   3.669
38059W        W10473  42.290  13.267   1.765
38060W        W10474  37.351  32.423   3.772
38061W        W10475   1.467  42.014  13.548
38062W        W10476   7.174  39.455   2.268
38063W        W10477  37.481  23.609   3.192
38064W        W10478   7.839   6.349   0.306
38065W        W10479   9.351  24.686  12.987
38066W        W10480  23.616   0.957   0.750
38067W        W10481  17.104  19.675  11.953
38068W        W10482  28.474  27.477  11.903
38069W        W10483  14.240   6.798  10.637
38070W        W10484  16.791  35.418   3.342
38071W        W10485  40.822  19.060   3.245
38072W        W10486  19.220  33.585   0.826
38073W        W10487  38.975  30.535  13.014
38074W        W10488  16.801  12.834  11.602
38075W        W10489  15.178  32.009  11.392
38076W        W10490  29.037  34.918   2.388
38077W        W10491  37.837  30.636   0.749
38078W        W10492  35.948  40.358   3.861
38079W        W10493  25.173   1.449  14.453
38080W        W10494  23.630  25.657  11.377
38081W        W10495  43.417  15.597   4.715
38082W        W10496   1.284  27.972  11.073
38083W        W10497  10.716  35.412  10.985
38084W        W10498   9.843  13.706   3.182
38085W        W10499   7.316  36.062   4.318
38086W        W10500  25.523  30.427  14.412
38087W        W10501  25.614  19.147  10.906
38088W        W10502  35.530  38.506   0.757
38089W        W10503  25.547  31.557   3.275
38090W        W10504   7.197   0.770   1.227
38091W        W10505   6.908  31.946  12.944
38092W        W10506  20.767   7.340   0.762
38093W        W10507   7.414   6.914   2.843
38094W        W10508  19.183  14.789   2.903
38095W        W10509  10.311  15.756   3.644
38096W        W10510  23.626  34.465   0.932
38097W        W10511   8.393  20.573  11.041
38098W        W10512   8.792  33.993   0.452
38099W        W10513  44.850  26.103  11.858
38100W        W10514  26.561  24.127   5.280
38101W        W10515  35.368  38.038   4.817
38102W        W10516  35.367  42.981   4.615
38103W        W10517   3.726   7.248  13.930
38104W        W10518  10.721  42.803  14.344
38105W        W10519  18.215  19.255  13.039
38106W        W10520   3.763  32.481  10.439
38107W        W10521  32.104   1.937   2.702
38108W        W10522   8.348  41.461   2.213
38109W        W10523  41.316  36.897   4.779
38110W        W10524  25.484  13.840  13.990
38111W        W10525   2.297  42.812   2.808
38112W        W10526  10.370  38.450   0.957
38113W        W10527  32.032  37.861   3.342
38114W        W10528  24.057  36.867   3.368
38115W        W10529  35.950  27.084  10.909
38116W        W10530   8.281  19.142   1.696
38117W        W10531  31.519  12.189   0.363
38118W        W10532  32.478  14.162  12.927
38119W        W10533  43.488  43.852  12.569
38120W        W10534   2.334  10.362  11.469
38121W        W10535   9.338   5.710   0.370
38122W        W10536  32.418  18.076   2.679
38123W        W10537   4.834  39.557   2.346
38124W        W10538  39.340  42.371  13.904
38125W        W10539  36.081  34.875   1.240
38126W        W10540  29.047  37.080  14.027
38127W        W10541   8.340   5.428   4.151
38128W        W10542  15.617  27.639  10.480
38129W        W10543  24.716  16.742   3.637
38130W        W10544   9.181  37.962  10.408
38131W        W10545   2.326  43.298   1.714
38132W        W10546  10.275  42.372   1.283
38133W        W10547  15.711  43.336  10.971
38134W        W10548  24.988  16.211  14.282
38135W        W10549   1.898  30.005  12.339
38136W        W10550  28.045  22.225   2.303
38137W        W10551  42.901  17.759  11.384
38138W        W10552  15.277  23.179   0.367
38139W        W10553  27.179  32.576   0.299
38140W        W10554   6.820  29.600   1.846
38141W        W10555   3.721  10.200  14.847
38142W        W10556  17.260  26.079   0.822
38143W        W10557  33.451  36.522   2.785
38144W        W10558  13.127  25.134   0.839
38145W        W10559  25.569  12.120   0.288
38146W        W10560  26.187  40.948  10.551
38147W        W10561  23.062  13.687   2.771
38148W        W10562  33.124   2.292  14.989
38149W        W10563  36.423  13.614  13.486
38150W        W10564  31.125  16.131   0.753
38151W        W10565   8.332  29.923  14.965
38152W        W10566   0.938  40.315  13.875
38153W        W10567  31.452  14.622   1.776
38154W        W10568  27.087   1.382   3.817
38155W        W10569  42.823  17.604   1.768
38156W        W10570  33.505  19.773   0.463
38157W        W10571  33.053  22.672  13.536
38158W        W10572  42.959  42.812   0.763
38159W        W10573  19.762  33.995  10.513
38160W        W10574   6.829  23.573  10.492
38161W        W10575  44.896  22.604   3.212
38162W        W10576  34.406   1.947   1.271
38163W        W10577  23.052  38.379   1.422
38164W        W10578  23.591  41.481   4.688
38165W        W10579  33.955   7.357   1.420
38166W        W10580  20.580   0.349  11.609
38167W        W10581  44.423   8.701   3.309
38168W        W10582  33.404  15.271   3.656
38169W        W10583  10.292  23.599   1.737
38170W        W10584  40.442   4.827   2.877
38171W        W10585  31.961  39.980  14.815
38172W        W10586   9.163  17.063  10.144
38173W        W10587  12.292  19.554  12.899
38174W        W10588  20.621  41.444  11.915
38175W        W10589  16.640  43.921  11.064
38176W        W10590   8.657  32.584  14.774
38177W        W10591  42.998   9.849   3.708
38178W        W10592  26.518  44.290  11.509
38179W        W10593  12.227  26.154  11.459
38180W        W10594  32.106   2.453  12.896
38181W        W10595  31.581  14.751  11.471
38182W        W10596   5.824  27.554   2.758
38183W        W10597  40.394  19.779   5.279
38184W        W10598  29.131  38.347  12.502
38185W        W10599  41.949  44.419   2.305
38186W        W10600  20.227  12.165   4.678
38187W        W10601  41.835   1.785  11.415
38188W        W10602  35.887   8.247   1.915
38189W        W10603  20.049  17.615   2.219
38190W        W10604  17.598   1.351   4.150
38191W        W10605  44.922  10.816  13.530
38192W        W10606  13.335  14.715   1.792
38193W        W10607  31.420   8.833   1.286
38194W        W10608  33.080  35.036  11.587
38195W        W10609   1.464   6.723   3.859
38196W        W10610  34.073  37.384   1.824
38197W        W10611  20.239  25.483  12.391
38198W        W10612  31.413   9.782  14.468
38199W        W10613   8.814  40.517  13.871
38200W        W10614  26.030  14.232  12.566
38201W        W10615  32.005  30.972   3.686
38202W        W10616  27.949  18.712   2.409
38203W        W10617  30.062   4.877  10.915
38204W        W10618  26.600  44.878  14.950
38205W        W10619  23.986  44.283  14.874
38206W        W10620   9.843  41.817  11.948
38207W        W10621   4.309  24.073   4.322
38208W        W10622  20.145  39.966  10.889
38209W        W10623  10.207   7.380   0.339
38210W        W10624  30.096   2.251  12.531
38211W        W10625  30.088  42.802  12.524
38212W        W10626  37.056   9.837  10.906
38213W        W10627  39.919  36.867   3.377
38214W        W10628  33.961   6.745   2.290
38215W        W10629  43.961  19.209   2.778
38216W        W10630  35.407   4.721   3.204
38217W        W10631  37.525  32.058  13.975
38218W        W10632  34.546  23.683   5.591
38219W        W10633  17.165  41.313   4.344
38220W        W10634   1.371  38.950  13.336
38221W        W10635  25.704  30.002  13.898
38222W        W10636  39.880  28.053  14.836
38223W        W10637  26.130   0.384  13.000
38224W        W10638  33.032  31.629  12.407
38225W        W10639  15.820  39.913   1.733
38226W        W10640  23.602  39.920   1.276
38227W        W10641   5.879   5.201   0.786
38228W        W10642  36.367  23.527  11.612
38229W        W10643  20.669  41.954  13.871
38230W        W10644  34.431  16.592  11.436
38231W        W10645   1.941  32.039   1.269
38232W        W10646   5.328  43.407  13.453
38233W        W10647  38.011  20.685   0.281
38234W        W10648  30.050  39.449   3.729
38235W        W10649  37.338  23.554   1.439
38236W        W10650  37.004  27.996   0.481
38237W        W10651  34.997  11.292   0.865
38238W        W10652  32.095  28.121   4.696
38239W        W10653  42.984  35.913   4.200
38240W        W10654  17.170  24.014   1.839
38241W        W10655  44.284   1.802  11.897
38242W        W10656   1.951  23.155   0.446
38243W        W10657  23.571  14.748  14.314
38244W        W10658  14.605  13.197  11.088
38245W        W10659  29.462  34.949   3.154
38246W        W10660   5.426  17.674   1.905
38247W        W10661  38.496  14.204   1.311
38248W        W10662  12.682  32.400   1.725
38249W        W10663   7.242  32.046  10.967
38250W        W10664  43.871  15.228  11.123
38251W        W10665   9.263  31.539   4.747
38252W        W10666  43.948  16.808   4.145
38253W        W10667  38.541   9.258  14.976
38254W        W10668  26.530   0.358  10.048
38255W        W10669   5.292  22.544   2.716
38256W        W10670  19.225  10.781   1.934
38257W        W10671  21.087  35.854   4.744
38258W        W10672  18.094  43.469   2.260
38259W        W10673  20.030  12.310   3.258
38260W        W10674  17.101   7.847   2.191
38261W        W10675   7.191   1.861   0.742
38262W        W10676   7.264  35.016  13.468
38263W        W10677  34.536  30.920  13.321
38264W        W10678  36.419   1.439   0.443
38265W        W10679  18.709  37.356   5.147
38266W        W10680   4.230  44.811  12.984
38267W        W10681  24.664  27.107  10.995
38268W        W10682   3.789  42.432   2.823
38269W        W10683   7.763  34.604   3.384
38270W        W10684   4.401  31.029  14.020
38271W        W10685  12.259   9.697  13.393
38272W        W10686  30.420  34.387   1.253
38273W        W10687  37.925   3.229   3.764
38274W        W10688  21.148   6.364   5.258
38275W        W10689  14.629  18.234   2.382
38276W        W10690  35.017  18.239  14.514
38277W        W10691   4.726  13.648   4.755
38278W        W10692  10.246  14.736  12.993
38279W        W10693   5.932   4.333  11.467
38280W        W10694  29.667  21.598   2.882
38281W        W10695   7.686  42.448  13.340
38282W        W10696  17.242  19.566  11.494
38283W        W10697  23.177   3.271  13.864
38284W        W10698  11.781   3.227  14.304
38285W        W10699  18.149  36.849   2.416
38286W        W10700  17.722  32.928  12.517
38287W        W10701  27.539   8.791   3.217
38288W        W10702  39.484  43.430  11.515
38289W        W10703   1.731  37.467   0.917
38290W        W10704   0.385   3.843   1.352
38291W        W10705   2.406  24.482  10.529
38292W        W10706  21.710   9.886  12.095
38293W        W10707  38.997  15.651   4.262
38294W        W10708   7.342  28.134   2.243
38295W        W10709  19.198  29.930   1.225
38296W        W10710  38.961  15.120   3.823
38297W        W10711  24.648  13.112   2.799
38298W        W10712  34.600   5.759  14.511
38299W        W10713  15.127  15.237   4.135
38300W        W10714   3.287  43.989   2.398
38301W        W10715  11.694  39.534  12.544
38302W        W10716   4.399  17.120   3.239
38303W        W10717  29.534  32.907   1.360
38304W        W10718   1.777  41.474   3.770
38305W        W10719   2.803  11.134   0.350
38306W        W10720  18.198  27.684   4.132
38307W        W10721   1.736   6.309   0.848
38308W        W10722  30.104   2.859  13.902
38309W        W10723  25.487  10.842   2.321
38310W        W10724   5.370  27.945   1.421
38311W        W10725  39.967  41.293   2.804
38312W        W10726  16.108  16.734  14.925
38313W        W10727  17.699  18.555   3.277
38314W        W10728  11.828  10.858   4.157
38315W        W10729   9.307  20.130  14.491
38316W        W10730  21.677  11.227  13.464
38317W        W10731  37.887  26.165  10.494
38318W        W10732  16.763   5.421   0.344
38319W        W10733  24.051  42.830  14.819
38320W        W10734  41.321  27.971  11.903
38321W        W10735   3.378  19.608   0.355
38322W        W10736  13.167  28.986  11.030
38323W        W10737  40.960  21.715   0.791
38324W        W10738   6.787  39.031   3.776
38325W        W10739  26.613  29.095   1.757
38326W        W10740   4.901   2.744  11.869
38327W        W10741  20.698  16.579   0.756
38328W        W10742  29.513  17.271   2.404
38329W        W10743  27.119  17.208  12.858
38330W        W10744  35.914  39.891  11.051
38331W        W10745  11.308  37.391   0.392
38332W        W10746  28.513  44.007   0.826
38333W        W10747  38.529  16.692  14.843
38334W        W10748   9.166  27.997   4.661
38335W        W10749  36.536  19.693  13.840
38336W        W10750   5.211  31.985  14.953
38337W        W10751  38.013  14.719   4.147
38338W        W10752  28.040  34.019  13.380
38339W        W10753   9.850  29.004  10.624
38340W        W10754  37.374  19.053   4.723
38341W        W10755  13.164  15.596   3.184
38342W        W10756  36.050  33.106   1.210
38343W        W10757  19.763  10.633   2.691
38344W        W10758   6.218   6.733   4.236
38345W        W10759  44.804  22.133   4.214
38346W        W10760  19.200  44.309   1.783
38347W        W10761  37.945  37.904  10.624
38348W        W10762  25.074  18.665  13.901
38349W        W10763  23.168  28.981   0.891
38350W        W10764  22.076  28.015  12.827
38351W        W10765  31.927  16.796  11.509
38352W        W10766  26.608  16.659  12.345
38353W        W10767   3.305  25.124  12.884
38354W        W10768  29.635  37.446   4.792
38355W        W10769  34.444  22.145   3.242
38356W        W10770  35.912  13.228   3.246
38357W        W10771  42.342  29.497   4.834
38358W        W10772  30.571  15.584  10.491
38359W        W10773  21.670  43.864  11.068
38360W        W10774   5.277  20.702   2.261
38361W        W10775  40.326   9.307   2.865
38362W        W10776  12.226   8.297  10.423
38363W        W10777  12.676   7.174   4.253
38364W        W10778  44.767  12.218   0.952
38365W        W10779  20.675  37.951   3.218
38366W        W10780  14.708  41.875   1.230
38367W        W10781  33.094  37.346  12.531
38368W        W10782  36.081  33.973  14.998
38369W        W10783  22.246  23.109   1.406
38370W        W10784  32.135  40.336  10.998
38371W        W10785  34.600  13.735  14.384
38372W        W10786   4.814   3.268   0.481
38373W        W10787  32.044  14.316   9.922
38374W        W10788  29.997   8.789  12.428
38375W        W10789  29.071  38.047  11.000
38376W        W10790  20.168  44.005  14.009
38377W        W10791  43.012  20.229   2.193
38378W        W10792  16.249  33.912  12.505
38379W        W10793  17.561  21.751  12.440
38380W        W10794  10.860  17.662  13.897
38381W        W10795  16.691   1.931  12.049
38382W        W10796   1.925  41.329  10.475
38383W        W10797   2.803  12.842   3.844
38384W        W10798  18.280  38.043   2.274
38385W        W10799  26.187  44.995   0.926
38386W        W10800   4.207  30.512   4.833
38387W        W10801  36.412  38.854  10.152
38388W        W10802   5.257  19.245  10.451
38389W        W10803   9.175   1.261   0.278
38390W        W10804  12.792  12.200   1.367
38391W        W10805   4.319  37.375  12.373
38392W        W10806  15.107  30.988   1.387
38393W        W10807   1.823   5.232  12.037
38394W        W10808  27.122  44.920   0.261
38395W        W10809  15.601  16.596  12.339
38396W        W10810  21.196  36.466  13.438
38397W        W10811  27.972  44.928   3.634
38398W        W10812   7.404   0.424  14.889
38399W        W10813  11.750  27.487  10.969
38400W        W10814  31.988   9.645   1.448
38401W        W10815  11.372  44.940   1.814
38402W        W10816  40.545  31.008   3.865
38403W        W10817  13.796  10.228   2.731
38404W        W10818  29.542  27.484   3.184
38405W        W10819  30.645   1.903   2.263
38406W        W10820  40.012  19.213  13.839
38407W        W10821  24.541  41.345  10.460
38408W        W10822  40.477   7.232   1.745
38409W        W10823   3.409   2.351   0.436
38410W        W10824   3.294   2.324  11.084
38411W        W10825  23.119  10.329   1.806
38412W        W10826  36.024   2.472   3.265
38413W        W10827  16.732  24.166  14.863
38414W        W10828  23.037  34.550   0.920
38415W        W10829   0.283  23.147  14.012
38416W        W10830  39.366   7.712   0.443
38417W        W10831  17.255  15.594  12.983
38418W        W10832  10.698  28.967   0.951
38419W        W10833  15.160  19.695  13.873
38420W        W10834  16.595  34.111  12.461
38421W        W10835  29.623  14.791  14.492
38422W        W10836  40.377   5.933   4.652
38423W        W10837   3.726   4.719   4.809
38424W        W10838   5.340  43.406   2.363
38425W        W10839   9.694  20.093  10.616
38426W        W10840  13.277  34.059  14.513
38427W        W10841  37.835  43.392  14.989
38428W        W10842   1.483  38.076  11.990
38429W        W10843   2.803  12.846  13.029
38430W        W10844  18.076   2.924  11.860
38431W        W10845  12.611  21.707  12.439
38432W        W10846   3.883  28.938  11.395
38433W        W10847  12.299  12.153  12.464
38434W        W10848  27.474  30.064   0.826
38435W        W10849   4.313  44.316   1.840
38436W        W10850  41.343  23.697  14.834
38437W        W10851  38.941   3.755  10.978
38438W        W10852  35.911  19.250  10.448
38439W        W10853  22.181  40.381  12.848
38440W        W10854   9.208  24.680   4.312
38441W        W10855   6.874  17.186  14.293
38442W        W10856  17.294  15.738  14.446
38443W        W10857  25.105  21.516   1.804
38444W        W10858  38.025  41.002  10.579
38445W        W10859  12.812  42.984  14.803
38446W        W10860  40.038  22.205   1.889
38447W        W10861   8.235   7.878   0.343
38448W        W10862   6.843   4.866   0.430
38449W        W10863  30.147  15.778   4.263
38450W        W10864  31.059  29.039   5.088
38451W        W10865  34.876  43.340  10.531
38452W        W10866   1.961  11.861   3.317
38453W        W10867  38.503  40.419   3.322
38454W        W10868  11.819  31.112  13.041
38455W        W10869   6.258   0.838   1.913
38456W        W10870  39.505  21.749   4.295
38457W        W10871  23.684  42.920   0.967
38458W        W10872  29.937  26.510   0.418
38459W        W10873   8.825  42.291   1.911
38460W        W10874  39.043  29.976  12.037
38461W        W10875  25.516  39.920   1.891
38462W        W10876  43.340  33.418   4.765
38463W        W10877  33.387  12.321   0.814
38464W        W10878  17.102  13.843  14.339
38465W        W10879   5.889   1.846   2.663
38466W        W10880  13.346  21.084   4.787
38467W        W10881  12.855  17.176  11.112
38468W        W10882  28.089  42.860   1.857
38469W        W10883  41.389  22.506  11.986
38470W        W10884  11.803   5.198   0.959
38471W        W10885   4.820  16.163   1.896
38472W        W10886  22.225  34.115   3.285
38473W        W10887  12.139  13.702  13.453
38474W        W10888   7.792  44.763   2.229
38475W        W10889  40.008  39.924   4.714
38476W        W10890  37.365  38.014  13.954
38477W        W10891  19.216  20.543   2.268
38478W        W10892   3.233  39.354   4.235
38479W        W10893  31.054  35.910   0.411
38480W        W10894   0.802  34.074   4.115
38481W        W10895   7.198  35.005   0.843
38482W        W10896   7.803  34.565   0.748
38483W        W10897   2.865  34.043  10.421
38484W        W10898  27.085  44.795  10.943
38485W        W10899  43.795  19.171  10.519
38486W        W10900  36.527  25.698   4.266
38487W        W10901  24.197  39.366   2.833
38488W        W10902  36.353  33.524   1.776
38489W        W10903  30.530  28.046  10.522
38490W        W10904  38.839  40.406   5.201
38491W        W10905  36.093  43.890   2.223
38492W        W10906   8.391  36.460  10.502
38493W        W10907   4.819  33.098  11.025
38494W        W10908  16.201  31.564   1.930
38495W        W10909  29.522  15.212  11.004
38496W        W10910   1.480  22.167   4.336
38497W        W10911  16.567  19.082  13.402
38498W        W10912  41.838  42.520  14.946
38499W        W10913  28.544   2.897  10.610
38500W        W10914  32.977  42.871   0.808
38501W        W10915  42.791  10.728  14.377
38502W        W10916   0.350  26.074  14.413
38503W        W10917   5.885  37.993   0.863
38504W        W10918  24.554  38.449  11.408
38505W        W10919  40.521  42.993  13.989
38506W        W10920  34.434  32.993   4.791
38507W        W10921  24.551  30.656   0.428
38508W        W10922   0.410   0.375  12.084
38509W        W10923   3.381  41.407   1.697
38510W        W10924  25.139  40.883  13.437
38511W        W10925  16.621  31.598   1.395
38512W        W10926  21.207  36.377  14.492
38513W        W10927   0.326  33.555  13.925
38514W        W10928  44.479  28.120  13.993
38515W        W10929  40.897  39.370  13.919
38516W        W10930   8.313  22.705  14.763
38517W        W10931  17.575  41.530   2.745
38518W        W10932  20.743  21.607   1.825
38519W        W10933  20.546  25.618  14.512
38520W        W10934  38.048  18.128  13.842
38521W        W10935  34.007  31.937   4.630
38522W        W10936   3.363  34.925   5.178
38523W        W10937  24.015  36.496  12.367
38524W        W10938   0.921  44.982   3.190
38525W        W10939  38.962  28.073  14.996
38526W        W10940  33.493  10.354  11.039
38527W        W10941  29.577  30.483   2.849
38528W        W10942  42.409   9.846  13.452
38529W        W10943  20.070  32.894  13.906
38530W        W10944  44.762  42.791   4.260
38531W        W10945  11.624  44.981   4.799
38532W        W10946   3.286  39.872  11.557
38533W        W10947  18.782  31.090   1.224
38534W        W10948  30.522  21.734   1.243
38535W        W10949  33.542  35.958  13.524
38536W        W10950  40.941  42.362   0.414
38537W        W10951  26.021  36.462   1.702
38538W        W10952  43.370  26.510   2.178
38539W        W10953  27.094   5.410   1.702
38540W        W10954  14.772  25.095  12.478
38541W        W10955  28.052   0.417  13.976
38542W        W10956  11.646  20.253   2.739
38543W        W10957  44.759  38.072   0.855
38544W        W10958   6.244  44.767  13.944
38545W        W10959  32.496  19.259   1.876
38546W        W10960  31.597  44.773   0.474
38547W        W10961   5.743  37.528   0.839
38548W        W10962  42.523   5.422   0.760
38549W        W10963  43.004  31.565  10.944
38550W        W10964  41.525  40.328   1.716
38551W        W10965   6.758  42.963  13.060
38552W        W10966  29.636   0.776   2.871
38553W        W10967   1.257  24.049   4.603
38554W        W10968  22.193  25.963  10.999
38555W        W10969  13.729  37.837  14.307
38556W        W10970  13.247  28.579   0.432
38557W        W10971  27.557  23.045   1.394
38558W        W10972  36.971  23.639  14.872
38559W        W10973   8.857   7.389  11.053
38560W        W10974  12.811  20.183   1.780
38561W        W10975  38.038   0.478   2.877
38562W        W10976  14.327  20.183  13.061
38563W        W10977  15.206  33.008   2.668
38564W        W10978  21.711   9.384   2.412
38565W        W10979  13.138  35.400   1.212
38566W        W10980  38.381  11.791  14.408
38567W        W10981  42.481  42.293  12.946
38568W        W10982  12.811  13.604   2.238
38569W        W10983   7.197  20.571  12.429
38570W        W10984   6.312   2.443  13.420
38571W        W10985  33.572  36.544  13.883
38572W        W10986  40.909  19.220  14.760
38573W        W10987   5.884  39.816   0.890
38574W        W10988  42.795  23.708   4.625
38575W        W10989  29.128  27.561  11.399
38576W        W10990   4.838  39.048   1.741
38577W        W10991  32.598  33.426  13.318
38578W        W10992  28.567  17.751  14.464
38579W        W10993  42.962  26.062   0.357
38580W        W10994  36.485  25.648  13.358
38581W        W10995   2.264   6.332   4.825
38582W        W10996  25.177  44.483  14.347
38583W        W10997  10.783  21.207  11.386
38584W        W10998  33.489  25.127   1.820
38585W        W10999  28.667  19.584  14.831
38586W        W11000  10.288   1.771   0.371
38587W        W11001   8.345  34.425   2.328
38588W        W11002  33.492  13.794   3.246
38589W        W11003  30.929  24.708  13.465
38590W        W11004  43.361  40.022   1.741
38591W        W11005  26.145   3.234   4.700
38592W        W11006  36.509  25.206   2.254
38593W        W11007  25.177  36.875  13.343
38594W        W11008  42.835  39.825  11.530
38595W        W11009  39.938  16.811  12.055
38596W        W11010  20.568  41.862   3.684
38597W        W11011  43.019  28.452   3.655
38598W        W11012   9.177  36.055  14.987
38599W        W11013  34.097  31.030  11.025
38600W        W11014  11.860  11.628  10.442
38601W        W11015  18.223  31.485  14.299
38602W        W11016  38.362   2.425   1.390
38603W        W11017  29.537  10.199  10.002
38604W        W11018  19.672  24.157  10.444
38605W        W11019  38.458  41.424  12.003
38606W        W11020  24.141  31.062   2.698
38607W        W11021  10.160  16.146   0.931
38608W        W11022  13.271   7.776   5.285
38609W        W11023  35.974   9.221   1.733
38610W        W11024  17.587   5.420   3.689
38611W        W11025  22.016  18.129  14.471
38612W        W11026  11.725  18.168  14.350
38613W        W11027  16.075  17.148  10.092
38614W        W11028  30.935  37.511   2.812
38615W        W11029  21.566  19.634   5.199
38616W        W11030  15.714  19.664   0.759
38617W        W11031  31.642  11.624   2.731
38618W        W11032  34.559   1.453  12.489
38619W        W11033  14.594   6.327   2.301
38620W        W11034  41.900  24.034  12.487
38621W        W11035  13.107   1.371  14.432
38622W        W11036  43.376  23.167   2.665
38623W        W11037  22.548  25.590  12.886
38624W        W11038   4.388  30.458   2.815
38625W        W11039   0.854  18.065   3.256
38626W        W11040  19.255  42.417  11.044
38627W        W11041  13.261  36.076   4.250
38628W        W11042  33.623   8.696   3.855
38629W        W11043  42.915  14.287   1.809
38630W        W11044  40.540   8.403   3.310
38631W        W11045  42.986  43.771  14.432
38632W        W11046  44.389  20.766  14.822
38633W        W11047  44.493  16.590   4.340
38634W        W11048  37.432  33.511   0.370
38635W        W11049  27.975  29.083  10.626
38636W        W11050  33.921  28.594  10.427
38637W        W11051   0.419   2.801   2.748
38638W        W11052   4.906  24.529  12.905
38639W        W11053  26.472  41.535  11.127
38640W        W11054  17.602  36.988   0.339
38641W        W11055  18.772  38.529  14.941
38642W        W11056   1.427  32.625  14.953
38643W        W11057  15.680  26.562   5.152
38644W        W11058   8.790  32.960   3.297
38645W        W11059   8.655  35.427  13.955
38646W        W11060  10.675   9.210   3.210
38647W        W11061  43.452  30.004  12.571
38648W        W11062   7.806  33.618  10.591
38649W        W11063   7.736  37.398  13.524
38650W        W11064  14.203   1.837  14.410
38651W        W11065  44.428  19.759   2.749
38652W        W11066  15.083  38.417   2.681
38653W        W11067  26.076  25.547  12.843
38654W        W11068  14.331  24.991   4.135
38655W        W11069  43.299  40.972  11.478
38656W        W11070  14.220  32.083  14.962
38657W        W11071  43.416  35.476   3.148
38658W        W11072   4.719  32.111  10.940
38659W        W11073  41.314  16.261  13.516
38660W        W11074  22.153   6.404  14.010
38661W        W11075  17.791  36.082  13.938
38662W        W11076  43.008  29.588  10.426
38663W        W11077  37.545  29.056   2.295
38664W        W11078  32.405   1.945   3.240
38665W        W11079  33.029  31.146  12.545
38666W        W11080  40.361  21.242   4.127
38667W        W11081  38.359  31.985   0.259
38668W        W11082  18.762  43.292  11.076
38669W        W11083  44.429  30.131   3.759
38670W        W11084  42.797  19.699  11.101
38671W        W11085   5.769  10.229   2.251
38672W        W11086  38.498  43.905  10.558
38673W        W11087  16.290  15.736  13.384
38674W        W11088  14.187   5.856   4.798
38675W        W11089  40.900  29.110  14.450
38676W        W11090  36.057   8.274  12.509
38677W        W11091  38.377  13.199  10.488
38678W        W11092  42.904  35.442   0.896
38679W        W11093  22.562  38.426   1.694
38680W        W11094  12.326  27.068   4.180
38681W        W11095  17.675  34.893  14.818
38682W        W11096  14.146   9.856  14.373
38683W        W11097  40.455  26.062   3.851
38684W        W11098  33.993  42.882   1.357
38685W        W11099  36.064  15.610   0.857
38686W        W11100  33.085  33.000  11.547
38687W        W11101   1.245  17.066   4.799
38688W        W11102  42.941  28.034   4.616
38689W        W11103   1.896  13.654  11.526
38690W        W11104  14.746  26.628  12.976
38691W        W11105  25.977   4.859  13.953
38692W        W11106  38.913  19.641   0.445
38693W        W11107  33.472  13.691   1.430
38694W        W11108  44.929  19.091   1.748
38695W        W11109  16.295  30.094   4.611
38696W        W11110  22.544   4.737  14.404
38697W        W11111   1.917  35.503  10.488
38698W        W11112  42.986   8.804   4.176
38699W        W11113  28.086  28.644  13.527
38700W        W11114   1.409  13.635  11.421
38701W        W11115  37.520  12.132   3.700
38702W        W11116   9.753  27.093   0.263
38703W        W11117  16.634   9.711  12.895
38704W        W11118  12.148  31.439  12.091
38705W        W11119  20.086  10.172   4.600
38706W        W11120  26.557  39.822   0.264
38707W        W11121  30.156  10.140  14.448
38708W        W11122   4.207  26.204   4.277
38709W        W11123  32.104  23.096  12.971
38710W        W11124  12.238  39.961   0.787
38711W        W11125  40.548  38.459  12.023
38712W        W11126  44.874  13.321  12.830
38713W        W11127  34.098  19.096   4.322
38714W        W11128  38.073  40.890  12.467
38715W        W11129   3.428   2.864  10.586
38716W        W11130  42.922  27.679   0.827
38717W        W11131  41.353  35.451  13.021
38718W        W11132  12.201  20.196  12.365
38719W        W11133  37.863   8.246   4.210
38720W        W11134   4.379  34.553  14.357
38721W        W11135  30.611   0.483   4.163
38722W        W11136  21.603   7.734  12.401
38723W        W11137   6.229  16.310   4.268
38724W        W11138  10.139  20.064   1.786
38725W        W11139   3.905  19.557  14.814
38726W        W11140  16.195  41.537   0.429
38727W        W11141  38.848  28.025   4.736
38728W        W11142   9.149  22.717  10.452
38729W        W11143  42.449  27.116  14.304
38730W        W11144  19.163   4.221   3.323
38731W        W11145  21.636  30.148   0.245
38732W        W11146  12.631  43.361   3.187
38733W        W11147  38.021   6.732  14.971
38734W        W11148  42.971  16.689  10.434
38735W        W11149   8.389  37.451  13.380
38736W        W11150  24.545  24.609   1.929
38737W        W11151   6.858  44.795   0.771
38738W        W11152  33.571   0.483   1.895
38739W        W11153  12.747  35.991  13.021
38740W        W11154  44.439   7.270  12.477
38741W        W11155  34.464  26.996   4.802
38742W        W11156   8.779  18.557  14.404
38743W        W11157  31.404   6.303   4.807
38744W        W11158   3.409   5.842  12.089
38745W        W11159  44.376  38.525   4.334
38746W        W11160  42.892  12.317   0.350
38747W        W11161  44.489  42.888   3.297
38748W        W11162   0.264  36.073  11.001
38749W        W11163  17.705   1.365  12.840
38750W        W11164  32.129  10.783  11.100
38751W        W11165  29.040  44.756   2.314
38752W        W11166  22.715  16.272  13.839
38753W        W11167  35.588   1.335  13.994
38754W        W11168  42.378   5.429   2.384
38755W        W11169  28.577  21.145  14.480
38756W        W11170  37.434  33.951  10.623
38757W        W11171  14.110  28.451   4.665
38758W        W11172  33.989  28.586   2.191
38759W        W11173  18.553   4.370   4.249
38760W        W11174  19.593   7.415   1.372
38761W        W11175  21.726  21.750  10.523
38762W        W11176  28.000  15.147  12.970
38763W        W11177   0.293  40.366  10.498
38764W        W11178  25.577   5.430   2.899
38765W        W11179  24.559  21.058   2.873
38766W        W11180  12.710  22.683  14.307
38767W        W11181   6.354  35.543   0.274
38768W        W11182  14.811   6.891  11.520
38769W        W11183  42.334   8.695  14.282
38770W        W11184  10.770  16.150   4.203
38771W        W11185  31.074  11.704   0.865
38772W        W11186  18.236   3.372   2.233
38773W        W11187  36.495  41.487  10.480
38774W        W11188   6.814  41.995  13.364
38775W        W11189   6.269  12.777   1.362
38776W        W11190  19.196  37.516  14.901
38777W        W11191  23.570  27.046  12.359
38778W        W11192  18.113  19.643   3.709
38779W        W11193  41.905  29.141   0.308
38780W        W11194   6.693   0.934   3.815
38781W        W11195  42.498  16.286  11.529
38782W        W11196   0.760   8.390  10.986
38783W        W11197  26.635  21.032  11.585
38784W        W11198  26.001  38.527  13.052
38785W        W11199  28.510  13.269  10.982
38786W        W11200  26.104  26.461   4.809
38787W        W11201   2.421  23.545  12.442
38788W        W11202  41.309  17.772  13.429
38789W        W11203   7.713  34.115  12.955
38790W        W11204  29.086  36.004   3.779
38791W        W11205  39.393  18.283   2.839
38792W        W11206  14.094   7.760   9.930
38793W        W11207   6.733  37.384   3.267
38794W        W11208  26.004  10.176   3.150
38795W        W11209  23.001   0.476   0.805
38796W        W11210  16.595  36.378   1.898
38797W        W11211  28.141  40.338   3.351
38798W        W11212   8.748  41.944   0.764
38799W        W11213  20.754  29.168  10.415
38800W        W11214  23.016  18.255  12.384
38801W        W11215   9.244  23.097   2.390
38802W        W11216  30.415  22.600   1.419
38803W        W11217  30.638   2.775   2.682
38804W        W11218  30.531  37.014  11.464
38805W        W11219   7.264  24.230   2.748
38806W        W11220  44.964  37.483   4.118
38807W        W11221  35.863   5.735  11.380
38808W        W11222  16.696   1.864  12.554
38809W        W11223  20.111  35.970  10.921
38810W        W11224  41.306  32.947  13.315
38811W        W11225  24.113  35.500   1.846
38812W        W11226  27.645  16.697  10.627
38813W        W11227  18.790   5.293  10.638
38814W        W11228  14.632  24.986   9.929
38815W        W11229  22.501  20.205   2.238
38816W        W11230  20.563   0.256   4.839
38817W        W11231  22.997  28.013  11.384
38818W        W11232  40.527  32.485  13.311
38819W        W11233  33.533  10.775  10.917
38820W        W11234  19.090   2.737  12.917
38821W        W11235  15.239   2.293   2.304
38822W        W11236  19.055   2.773   2.217
38823W        W11237  11.131  18.554  13.336
38824W        W11238   0.374   4.446  11.066
38825W        W11239  24.211   5.741  13.853
38826W        W11240  40.482  38.381  13.427
38827W        W11241   2.284  36.567  10.558
38828W        W11242  38.075  33.926   2.365
38829W        W11243  18.743  36.929  12.580
38830W        W11244   9.177  41.400   1.243
38831W        W11245  12.219  32.887   2.848
38832W        W11246  36.013  11.661  14.779
38833W        W11247  37.568  29.575   5.299
38834W        W11248  16.180  36.968   2.815
38835W        W11249  32.635   9.874  13.854
38836W        W11250   9.387  18.190   4.632
38837W        W11251  30.922   9.244   0.290
38838W        W11252   7.793  32.012   3.751
38839W        W11253  25.597   9.338   1.283
38840W        W11254  15.657   1.835   4.620
38841W        W11255   3.879  32.523  11.444
38842W        W11256  20.150  12.331   0.788
38843W        W11257  33.406   1.850   0.378
38844W        W11258   3.881  30.535   2.178
38845W        W11259  13.656  36.539  12.017
38846W        W11260  28.572  13.288   4.223
38847W        W11261  13.249  18.617   4.273
38848W        W11262  44.426  30.116  13.387
38849W        W11263  27.606  28.533  12.014
38850W        W11264  28.054  26.531  10.494
38851W        W11265  36.421  41.002  14.826
38852W        W11266   4.789  27.112  12.906
38853W        W11267  18.656  32.464  12.070
38854W        W11268  27.117  31.432   2.382
38855W        W11269  26.117  18.783   9.945
38856W        W11270   6.412  44.787  11.422
38857W        W11271  15.708  36.414   4.158
38858W        W11272   3.785   9.794   0.394
38859W        W11273  33.410  21.623  12.996
38860W        W11274   8.818  33.514   2.240
38861W        W11275  42.785  37.944  13.526
38862W        W11276  41.317   1.961  13.977
38863W        W11277   7.222  39.957  13.523
38864W        W11278  25.013  39.953  11.593
38865W        W11279   5.687   1.271  14.456
38866W        W11280  39.515  38.828  14.898
38867W        W11281  22.121  28.073   0.900
38868W        W11282  34.121  20.127  12.931
38869W        W11283  13.176  14.697   0.384
38870W        W11284  35.528   7.778   2.191
38871W        W11285   7.846  13.741   3.763
38872W        W11286   0.761  43.416  13.491
38873W        W11287  30.066  11.633   2.394
38874W        W11288  32.935  42.866  14.338
38875W        W11289  39.505   0.786   3.163
38876W        W11290  11.796  34.592   1.366
38877W        W11291  24.986  43.290   0.906
38878W        W11292  31.120  18.547   3.367
38879W        W11293  10.209  10.750  13.063
38880W        W11294  33.427  12.294  14.891
38881W        W11295  30.571  40.879  11.072
38882W        W11296  16.747  37.991  14.868
38883W        W11297  37.457  39.510  12.403
38884W        W11298  22.702  37.063  13.426
38885W        W11299   5.918  33.540   2.665
38886W        W11300  23.582   6.910   3.337
38887W        W11301  27.174  14.277   2.853
38888W        W11302  29.980  42.943   0.816
38889W        W11303  16.762  22.068   2.875
38890W        W11304  41.331  29.035  10.481
38891W        W11305  28.453  37.896  14.961
38892W        W11306  29.100  39.520  14.914
38893W        W11307  12.302  18.742   4.137
38894W        W11308   2.935  41.896   4.748
38895W        W11309  34.964  33.097   0.745
38896W        W11310  26.010  43.929  13.026
38897W        W11311  30.045  12.757   3.844
38898W        W11312  19.773   7.357  12.464
38899W        W11313  22.069  17.144  11.406
38900W        W11314  27.595  11.760  12.966
38901W        W11315  41.892  30.628   9.935
38902W        W11316  25.058   9.321   2.325
38903W        W11317  32.083   7.858  14.002
38904W        W11318   3.234  17.127  14.400
38905W        W11319  44.326   9.782  11.067
38906W        W11320  10.836  24.050   3.198
38907W        W11321  26.204  26.527   3.384
38908W        W11322  25.578   5.760  13.804
38909W        W11323   5.699  29.524   1.253
38910W        W11324  28.059   8.403   0.362
38911W        W11325   4.390  39.458  11.506
38912W        W11326   3.784   3.297  14.944
38913W        W11327  15.722  35.978  10.120
38914W        W11328  41.931   8.688   4.240
38915W        W11329  38.479  34.908  10.033
38916W        W11330  16.660  21.245  12.835
38917W        W11331  40.405  19.593   3.850
38918W        W11332  15.205  28.015  13.063
38919W        W11333  18.254  22.593  10.589
38920W        W11334   7.826  29.026   2.712
38921W        W11335  17.070  37.405  14.861
38922W        W11336  16.790  19.062   1.850
38923W        W11337  20.639  32.396  13.525
38924W        W11338  10.775  11.702  14.344
38925W        W11339  41.523  27.536  10.954
38926W        W11340  41.438   0.335   1.879
38927W        W11341  22.652  24.220  12.554
38928W        W11342  25.143  17.720   4.270
38929W        W11343  29.984  15.134  14.307
38930W        W11344  33.015   2.799  13.052
38931W        W11345   2.280  26.642   2.866
38932W        W11346  16.226  31.569   0.389
38933W        W11347   8.733  42.923  10.550
38934W        W11348  16.257  18.175   3.667
38935W        W11349   6.285  37.992  11.924
38936W        W11350  30.550  38.394  14.500
38937W        W11351  21.164   6.813  13.908
38938W        W11352  34.608  23.625  13.478
38939W        W11353  17.780  23.205   1.402
38940W        W11354  41.026  38.882  11.466
38941W        W11355  28.137  40.974  12.067
38942W        W11356  39.365  12.205   3.867
38943W        W11357  33.969  26.608   3.778
38944W        W11358  35.565  25.036  13.975
38945W        W11359  31.565  30.448   2.862
38946W        W11360   0.414  16.650  13.504
38947W        W11361  31.929  17.616   0.247
38948W        W11362  25.538  44.453  11.891
38949W        W11363  10.265  16.736   2.719
38950W        W11364  16.667  15.187  10.640
38951W        W11365  28.115  26.497  11.538
38952W        W11366  12.649  44.762  14.393
38953W        W11367  41.342   5.216  12.387
38954W        W11368   7.267   6.853   4.183
38955W        W11369  12.306  33.472   3.838
38956W        W11370   8.237  10.290   2.825
38957W        W11371  37.482  37.526   0.337
38958W        W11372  10.287   0.453   0.825
38959W        W11373   9.809   1.380   4.828
38960W        W11374   9.341  28.640   1.777
38961W        W11375  44.460  15.705  14.445
38962W        W11376   3.455  17.726  11.545
38963W        W11377  11.129  11.741  13.544
38964W        W11378  16.592  32.403   1.326
38965W        W11379  10.312  43.906   2.855
38966W        W11380  15.271  20.566  11.074
38967W        W11381  27.970  25.158   2.751
38968W        W11382  32.900  26.998  12.850
38969W        W11383  21.513   7.802   4.834
38970W        W11384  17.761  14.191   2.280
38971W        W11385   4.742  16.791   0.435
38972W        W11386  21.549  41.949   0.361
38973W        W11387  10.301   5.767   1.732
38974W        W11388  41.496  28.157   4.658
38975W        W11389  29.998  25.472   2.408
38976W        W11390  44.264  32.975  12.531
38977W        W11391  32.912  31.999  12.353
38978W        W11392   3.418  20.204  11.434
38979W        W11393  12.810   4.388   0.855
38980W        W11394  13.840  24.049   2.280
38981W        W11395  39.478  18.051   4.810
38982W        W11396  17.570  22.074   2.727
38983W        W11397  24.118  40.436  10.602
38984W        W11398  17.251  28.990   1.391
38985W        W11399  31.405  32.927   3.723
38986W        W11400  16.648  23.541  13.022
38987W        W11401  34.071  12.764   4.684
38988W        W11402  39.396  24.598  11.443
38989W        W11403  12.194   6.243   3.635
38990W        W11404  25.027   8.391   2.858
38991W        W11405  43.482   4.775   4.830
38992W        W11406   8.204   0.975  10.471
38993W        W11407  41.903  41.834   2.690
38994W        W11408  33.916  20.066   0.894
38995W        W11409  30.453  10.728   2.354
38996W        W11410  21.717   1.406  12.842
38997W        W11411  25.067  34.009  12.912
38998W        W11412  11.277  10.140  11.939
38999W        W11413  37.929   4.358  14.339
39000W        W11414   9.349  32.612   0.777
39001W        W11415  38.530  24.524   4.321
39002W        W11416  12.214  32.006   3.224
39003W        W11417  12.224   4.228   3.637
39004W        W11418  18.125  24.050   3.668
39005W        W11419  11.793  25.205  10.500
39006W        W11420  40.338  41.420  10.994
39007W        W11421   2.895  39.991  11.981
39008W        W11422  33.887  28.074  10.951
39009W        W11423  30.084  31.067   2.834
39010W        W11424  41.518   4.257   2.196
39011W        W11425   9.786   5.231   1.920
39012W        W11426  39.438  42.853   3.372
39013W        W11427  16.738   9.355  10.462
39014W        W11428  25.986  24.077  14.798
39015W        W11429  39.841  22.010  10.528
39016W        W11430  42.419  23.694  12.916
39017W        W11431  25.997  15.136   2.775
39018W        W11432  39.528   6.409   2.318
39019W        W11433  39.515  30.973   1.771
39020W        W11434  14.324  13.638  10.471
39021W        W11435  29.459  25.994   4.607
39022W        W11436  29.983  11.155   0.387
39023W        W11437  39.332   7.875  11.496
39024W        W11438  36.032  21.575  13.889
39025W        W11439  16.567  24.658   3.172
39026W        W11440  33.093   1.451  11.966
39027W        W11441   7.734   8.258   3.162
39028W        W11442  14.198  29.057   2.221
39029W        W11443  37.924  37.451   2.192
39030W        W11444  10.172  44.923  10.987
39031W        W11445  28.668   0.293   0.735
39032W        W11446  16.288  38.381   4.254
39033W        W11447  39.920  43.415   0.883
39034W        W11448  25.148   3.223  14.767
39035W        W11449  28.994   6.808  11.962
39036W        W11450  31.586  25.571   4.129
39037W        W11451  27.503  41.522  12.880
39038W        W11452  18.713  32.036  10.159
39039W        W11453   0.488  27.559  12.462
39040W        W11454  13.735  13.207  14.836
39041W        W11455  24.479  41.876  13.939
39042W        W11456  39.342  43.403  12.579
39043W        W11457  11.148  44.331   2.823
39044W        W11458  39.495  25.975   3.772
39045W        W11459  43.317  27.996   0.795
39046W        W11460  10.306  15.743   0.910
39047W        W11461  23.013  31.137  11.477
39048W        W11462  21.018  14.810   0.745
39049W        W11463  35.092  10.755  14.432
39050W        W11464   5.831  36.904   3.671
39051W        W11465  14.282  15.183  11.462
39052W        W11466  17.619   9.855  13.475
39053W        W11467  36.904  19.727  12.945
39054W        W11468   5.727   3.854  10.605
39055W        W11469  31.056  19.091  11.100
39056W        W11470  31.146   9.217  12.419
39057W        W11471  35.925  13.129  14.437
39058W        W11472  42.389  34.436   0.316
39059W        W11473  33.624   7.238  10.949
39060W        W11474  38.332  35.408   4.781
39061W        W11475  24.142   7.719   4.835
39062W        W11476   4.779   5.853   0.799
39063W        W11477  20.636  33.927   2.272
39064W        W11478  16.642  42.355   4.808
39065W        W11479  25.513  24.011   1.925
39066W        W11480  31.472  35.907  11.078
39067W        W11481  37.925  38.888  13.521
39068W        W11482  16.104  43.895   2.687
39069W        W11483   7.826  31.512   0.867
39070W        W11484   6.379  41.810   2.338
39071W        W11485  24.124   1.753  13.436
39072W        W11486  40.444  29.657   1.447
39073W        W11487   1.852  15.159  13.460
39074W        W11488  22.667  40.509  10.486
39075W        W11489   8.292  22.234  10.519
39076W        W11490  24.111   5.246   4.216
39077W        W11491  43.880  21.072   4.691
39078W        W11492   8.880  37.436   5.154
39079W        W11493  39.814  21.167  10.612
39080W        W11494  14.218  21.551   3.337
39081W        W11495  21.215  26.998   2.307
39082W        W11496  24.986  26.633   2.699
39083W        W11497  36.513  30.103   3.372
39084W        W11498  35.562  39.024   0.808
39085W        W11499  43.802  28.529  12.565
39086W        W11500  40.998  32.616   1.369
39087W        W11501  37.448  24.651  13.910
39088W        W11502  32.418   5.272  14.811
39089W        W11503  14.670   6.211   5.590
39090W        W11504  25.611  17.567  11.513
39091W        W11505  33.880   8.723   1.772
39092W        W11506  37.970  26.584   4.176
39093W        W11507  12.209   2.960   2.328
39094W        W11508  10.305  19.679   0.901
39095W        W11509  35.990  16.728   1.382
39096W        W11510   0.926  10.271   1.317
39097W        W11511  41.387  24.723   4.133
39098W        W11512   0.258  33.115  12.053
39099W        W11513  28.606  28.455   3.691
39100W        W11514  24.672  25.986  11.026
39101W        W11515  14.313  19.197   1.280
39102W        W11516  11.174  18.553  10.981
39103W        W11517  37.494   8.683   0.737
39104W        W11518  14.685   2.866  12.063
39105W        W11519  27.127  23.214  10.570
39106W        W11520   6.235  10.288  10.968
39107W        W11521  34.445  36.359   3.652
39108W        W11522  32.998  37.477  12.056
39109W        W11523  37.019  23.489   3.342
39110W        W11524  30.158  35.915   3.699
39111W        W11525   4.419  43.401   5.210
39112W        W11526  26.577  25.047  11.514
39113W        W11527   1.738  20.553  10.557
39114W        W11528   1.778  33.620  11.550
39115W        W11529  15.116  32.405   2.714
39116W        W11530  41.330  10.293  11.389
39117W        W11531  36.550  12.143  14.472
39118W        W11532   4.341  19.534  10.942
39119W        W11533   4.315  41.363   0.756
39120W        W11534  43.777  31.538   1.753
39121W        W11535  26.508  37.557  11.875
39122W        W11536  10.281  11.790   1.246
39123W        W11537  23.680  10.749   0.917
39124W        W11538  35.365  13.203  13.503
39125W        W11539  17.162  44.315  14.878
39126W        W11540  19.583  25.050   2.418
39127W        W11541  16.293  32.089  12.983
39128W        W11542  26.457  15.723  12.409
39129W        W11543  24.725  34.416   1.776
39130W        W11544  44.449   6.887  11.955
39131W        W11545  41.337  42.370  12.422
39132W        W11546  22.631  13.115  13.327
39133W        W11547  20.665   2.265   4.614
39134W        W11548  18.255  42.944  12.451
39135W        W11549  15.175  13.652   4.650
39136W        W11550  43.891  14.325   1.371
39137W        W11551  14.159   3.805  13.469
39138W        W11552  33.561   8.260  13.420
39139W        W11553   7.192  41.009   0.377
39140W        W11554  41.005   8.403  10.935
39141W        W11555  23.115   6.406  14.026
39142W        W11556  14.227  34.048  10.986
39143W        W11557  35.033  15.188   0.311
39144W        W11558  13.655   0.269   2.239
39145W        W11559   7.177  14.602  12.433
39146W        W11560   1.765  36.403  10.453
39147W        W11561   8.211  38.853  11.070
39148W        W11562  28.161  10.242  12.981
39149W        W11563  25.075  26.605   1.399
39150W        W11564  44.811  32.477  14.408
39151W        W11565  44.489  19.254   3.869
39152W        W11566   8.689  14.292  13.542
39153W        W11567  17.123  21.054   0.383
39154W        W11568  37.834  26.642   2.237
39155W        W11569   0.810  20.693   1.250
39156W        W11570  27.999  17.267  14.429
39157W        W11571  44.335   3.903   3.869
39158W        W11572  25.122  33.064   2.205
39159W        W11573   2.465  27.065  11.477
39160W        W11574  17.563  16.726   3.666
39161W        W11575  29.028  17.724   2.711
39162W        W11576  35.533  11.815  12.978
39163W        W11577  12.358  23.545  11.540
39164W        W11578   2.772  41.948  11.866
39165W        W11579  39.953  10.272  12.551
39166W        W11580   0.316  15.135   4.661
39167W        W11581  30.482  16.687   4.814
39168W        W11582  36.550   3.301  14.362
39169W        W11583  18.569  20.163   2.354
39170W        W11584   8.392   7.674  11.428
39171W        W11585  32.110  37.357   2.877
39172W        W11586  17.743  14.749   2.369
39173W        W11587   4.763  34.608  10.939
39174W        W11588  14.186  22.071   1.250
39175W        W11589  44.328  29.011  11.466
39176W        W11590  32.535   5.790   0.364
39177W        W11591  40.859  29.516  11.958
39178W        W11592   2.785  30.463   1.758
39179W        W11593  19.243   8.295  13.999
39180W        W11594  41.907  14.252  12.879
39181W        W11595  27.689  19.638   4.302
39182W        W11596   6.350  21.674   0.364
39183W        W11597  23.682  42.941  13.500
39184W        W11598  44.366  43.452  12.939
39185W        W11599   5.829  17.087   4.314
39186W        W11600  28.991   1.960  11.455
39187W        W11601  15.683  34.052  11.956
39188W        W11602   5.768   4.818   4.323
39189W        W11603   0.361  28.468   3.383
39190W        W11604   9.374  41.814  12.361
39191W        W11605   5.897  23.705   1.878
39192W        W11606  11.791  18.162   4.225
39193W        W11607  44.839  34.874   0.967
39194W        W11608   7.239  17.555  12.452
39195W        W11609   0.424  28.663   3.788
39196W        W11610  22.677  19.674  12.005
39197W        W11611  17.102  24.988   4.253
39198W        W11612  34.533  11.862   1.914
39199W        W11613   3.221  26.144  12.883
39200W        W11614  35.093  34.384   1.772
39201W        W11615  28.971   2.745  13.415
39202W        W11616   7.200   8.869  11.945
39203W        W11617   8.346   0.482  13.027
39204W        W11618   4.288  13.797  14.347
39205W        W11619   7.801  22.508  12.379
39206W        W11620  33.474  39.466   4.657
39207W        W11621  37.966   9.310  13.061
39208W        W11622   3.353  19.668   1.390
39209W        W11623  20.631  31.451  14.775
39210W        W11624  16.808  19.685  12.862
39211W        W11625  35.031  40.857  13.937
39212W        W11626  21.049  43.993   9.989
39213W        W11627  16.219  25.051  14.783
39214W        W11628  22.576  21.672  14.316
39215W        W11629  12.256  12.258   4.699
39216W        W11630   2.456  11.284  12.900
39217W        W11631  11.686  33.394  10.444
39218W        W11632  44.793  21.243  11.462
39219W        W11633  14.101  28.003  10.568
39220W        W11634  19.556  13.662  13.051
39221W        W11635  29.919  13.778  13.511
39222W        W11636   4.233  30.045   2.869
39223W        W11637  25.966  32.914   1.444
39224W        W11638  20.075  11.263   0.441
39225W        W11639  14.330  29.937   1.927
39226W        W11640  30.000   4.294   0.925
39227W        W11641   3.371  29.430  11.893
39228W        W11642  13.125  22.746  14.788
39229W        W11643  30.994  18.549  13.040
39230W        W11644  10.676  36.412  13.334
39231W        W11645   9.839  32.917   4.599
39232W        W11646  11.218  27.008  12.568
39233W        W11647  30.473  29.468   1.887
39234W        W11648  14.094   6.264  12.498
39235W        W11649  24.593  40.028   2.342
39236W        W11650  24.585  25.988   4.302
39237W        W11651  23.613  40.836   4.166
39238W        W11652  44.459  18.055  14.497
39239W        W11653  19.720  18.606  14.891
39240W        W11654  24.222   1.755   1.257
39241W        W11655  27.583  23.637  11.867
39242W        W11656  11.836   7.720  10.628
39243W        W11657   5.202  23.050   1.381
39244W        W11658   7.783   5.362  10.958
39245W        W11659   4.416  11.778  13.897
39246W        W11660  17.300   2.839  13.388
39247W        W11661  12.324   1.890   1.805
39248W        W11662  17.745  29.454  13.993
39249W        W11663  30.462  15.714   4.600
39250W        W11664  30.965  20.619  14.001
39251W        W11665  34.490  18.219   4.338
39252W        W11666  35.404   4.274   0.477
39253W        W11667  40.542  29.554  13.891
39254W        W11668   8.664  34.565  13.831
39255W        W11669  13.184   4.824  11.052
39256W        W11670   2.280   6.863   3.211
39257W        W11671  24.056  42.895  11.001
39258W        W11672  16.796  23.553  13.903
39259W        W11673  26.973  24.624  10.502
39260W        W11674  38.065  21.128   4.754
39261W        W11675  12.736   2.961   2.338
39262W        W11676  31.059  35.469  11.101
39263W        W11677   9.774  17.221  13.504
39264W        W11678  31.967  41.534  11.410
39265W        W11679  33.099  40.355   0.247
39266W        W11680  19.134  40.535  11.110
39267W        W11681  16.681  24.157   4.629
39268W        W11682  27.510   8.846  11.426
39269W        W11683   0.417   5.437  11.088
39270W        W11684   8.246  34.435   0.247
39271W        W11685  44.797   1.288  11.452
39272W        W11686  13.227  19.655  12.475
39273W        W11687   0.433   7.226  13.455
39274W        W11688  14.669  31.098   3.763
39275W        W11689  18.220   1.331   3.631
39276W        W11690  33.894  23.558  13.913
39277W        W11691  29.106  22.503  11.507
39278W        W11692  29.165  27.029  11.001
39279W        W11693  10.152  16.589   1.817
39280W        W11694  12.845  11.845  12.480
39281W        W11695  20.637  16.700  12.868
39282W        W11696   8.265  34.516  14.494
39283W        W11697  34.422  14.227   1.262
39284W        W11698   3.312  16.083  14.482
39285W        W11699   2.268  32.397   3.820
39286W        W11700  25.647  39.870   2.322
39287W        W11701  27.957  20.122  10.955
39288W        W11702  34.575  42.430   0.837
39289W        W11703  34.920  24.114   0.755
39290W        W11704  14.732  40.453  13.312
39291W        W11705  10.749  35.083  11.390
39292W        W11706  33.091  43.777  14.918
39293W        W11707  37.407   1.406  10.539
39294W        W11708  32.465   7.341   0.840
39295W        W11709  41.970  35.958  10.404
39296W        W11710  25.609  12.276   1.931
39297W        W11711  35.388  25.057   0.765
39298W        W11712  25.593  36.509   3.372
39299W        W11713   7.186   3.227  13.041
39300W        W11714   5.347  13.281  10.428
39301W        W11715  25.578   5.416   2.187
39302W        W11716  37.554  38.491  13.855
39303W        W11717  33.933  29.574   4.186
39304W        W11718  25.165  27.486   4.116
39305W        W11719  32.455  41.928   3.151
39306W        W11720  18.640  43.414  14.455
39307W        W11721  34.457  28.006  11.569
39308W        W11722  15.149  40.978   0.417
39309W        W11723  12.260  27.119   4.752
39310W        W11724  37.454  28.182  14.014
39311W        W11725  44.958  34.441  12.999
39312W        W11726  16.672  36.932  12.895
39313W        W11727   7.893  26.633  10.987
39314W        W11728  23.011  26.633   0.958
39315W        W11729   8.875  13.770   0.741
39316W        W11730   0.936  21.703   0.814
39317W        W11731   6.378   0.477   3.764
39318W        W11732  31.566  30.931  13.320
39319W        W11733  10.800   6.264   1.289
39320W        W11734  27.636   8.849   0.295
39321W        W11735  30.485  18.220   1.355
39322W        W11736  36.445  14.632   0.301
39323W        W11737  32.944  42.423   2.787
39324W        W11738  18.706   4.821  13.902
39325W        W11739  44.903  22.704   2.244
39326W        W11740   0.439  31.533   4.784
39327W        W11741  15.124   3.336   0.735
39328W        W11742  26.985   2.431   1.849
39329W        W11743   9.770   0.392  10.894
39330W        W11744  25.101  22.543   3.171
39331W        W11745  17.142  22.100   4.698
39332W        W11746   7.386  38.975  12.054
39333W        W11747   4.295   6.352  10.570
39334W        W11748  15.264  12.191   1.753
39335W        W11749  18.076  37.884   4.345
39336W        W11750  15.692  44.995  10.424
39337W        W11751  38.047  22.559   1.915
39338W        W11752   4.918   2.834   3.749
39339W        W11753  32.042  22.125  13.963
39340W        W11754   1.369  13.177  11.391
39341W        W11755   0.780  27.547   2.892
39342W        W11756  24.519   8.256   3.289
39343W        W11757  10.821  16.762  10.937
39344W        W11758  32.889  23.070   0.878
39345W        W11759   1.910  29.939   2.832
39346W        W11760   4.884  33.892   2.319
39347W        W11761   3.270  15.770   4.130
39348W        W11762  10.832   7.807   0.854
39349W        W11763  44.873   9.750  14.332
39350W        W11764   6.763  26.110  14.341
39351W        W11765  32.446  11.363   4.684
39352W        W11766  19.628  40.496  12.086
39353W        W11767  32.046  18.758  12.550
39354W        W11768  13.673  19.658   4.173
39355W        W11769  38.411  43.379  13.415
39356W        W11770   9.271  34.054   2.385
39357W        W11771  42.859  20.641  12.908
39358W        W11772  24.998   3.327  11.437
39359W        W11773  34.071  21.583  11.921
39360W        W11774  41.013   0.888  12.501
39361W        W11775  31.951  15.659  13.431
39362W        W11776   8.707  31.024   1.428
39363W        W11777  12.206  15.278   1.284
39364W        W11778  22.111  14.596   2.212
39365W        W11779  38.421  27.472  14.462
39366W        W11780  22.663  33.513   4.141
39367W        W11781   3.242  37.359  14.892
39368W        W11782  33.521  13.688   2.793
39369W        W11783   3.431  42.527  11.999
39370W        W11784  19.147  30.463   2.210
39371W        W11785  35.073  17.712   4.739
39372W        W11786   6.745  44.985   3.716
39373W        W11787  39.916  38.538   3.664
39374W        W11788  19.581  10.170   4.762
39375W        W11789  21.262   9.742  14.389
39376W        W11790  10.138   2.402  13.496
39377W        W11791  37.887  10.232   3.308
39378W        W11792  13.206  24.505  10.900
39379W        W11793  42.404   7.878   4.257
39380W        W11794  34.092  16.596   2.290
39381W        W11795  14.193  38.485  11.887
39382W        W11796  16.281   7.724   0.474
39383W        W11797  43.885  42.908   4.744
39384W        W11798  23.708  43.412   2.253
39385W        W11799  27.101  23.595   0.316
39386W        W11800   9.730  22.635  14.863
39387W        W11801  10.863  39.377  12.054
39388W        W11802   1.311  29.670   0.809
39389W        W11803  22.030  17.073  11.861
39390W        W11804  38.877  30.456  11.499
39391W        W11805  35.370  36.972  12.551
39392W        W11806  31.111   5.716  10.567
39393W        W11807  18.140  15.323  10.420
39394W        W11808   3.825  13.721  10.428
39395W        W11809  13.343   0.941   5.279
39396W        W11810  21.056   3.828  13.429
39397W        W11811  39.029  28.069   3.250
39398W        W11812  10.669  17.692   3.709
39399W        W11813  41.938  27.081  13.384
39400W        W11814  14.134  19.719  10.122
39401W        W11815  13.142   5.317   1.229
39402W        W11816  11.247  27.083  14.415
39403W        W11817  35.854  22.721   2.862
39404W        W11818   4.906   6.699   2.831
39405W        W11819  11.162  40.860  10.602
39406W        W11820  32.459  22.741   9.955
39407W        W11821   8.888  23.574   0.377
39408W        W11822   1.418  16.201   3.258
39409W        W11823  40.995  28.437  11.533
39410W        W11824  35.094   2.751  14.334
39411W        W11825  16.280  11.214  10.588
39412W        W11826  28.653  25.657   1.782
39413W        W11827  11.348   6.252   0.895
39414W        W11828   8.231  17.101  11.055
39415W        W11829  11.638   2.281   1.697
39416W        W11830  35.868  20.168   2.825
39417W        W11831  24.142   9.671  12.391
39418W        W11832   0.814  22.093   1.303
39419W        W11833  18.129  40.970  14.869
39420W        W11834  30.493   0.367  13.544
39421W        W11835  23.576  28.095  10.560
39422W        W11836  19.251  34.899  12.876
39423W        W11837   3.368  31.504   4.315
39424W        W11838  20.230  33.572   0.329
39425W        W11839  36.999  28.967  12.533
39426W        W11840  17.757  21.691   3.734
39427W        W11841   4.751  15.235   2.732
39428W        W11842   8.368  11.316   3.664
39429W        W11843  33.562  42.013  12.009
39430W        W11844  16.167  19.703   1.446
39431W        W11845   2.266   0.867  10.988
39432W        W11846   9.706   9.154  11.594
39433W        W11847  15.656  20.222   5.088
39434W        W11848  41.840   9.181   2.881
39435W        W11849   9.385  12.670  12.403
39436W        W11850  34.451   4.938   4.694
39437W        W11851  34.007  29.661   0.277
39438W        W11852  35.476   5.687   3.308
39439W        W11853  36.023  34.024   5.281
39440W        W11854  12.756  33.571   1.387
39441W        W11855  33.951  22.695  12.565
39442W        W11856  22.744  18.279   3.220
39443W        W11857  25.709  14.721   4.239
39444W        W11858  39.827  14.168   4.270
39445W        W11859  29.172   5.349   1.396
39446W        W11860  19.216  40.828  10.560
39447W        W11861   1.930  43.924   2.267
39448W        W11862  36.545  15.229   2.733
39449W        W11863  38.859  19.753  14.500
39450W        W11864   3.440  11.737   1.383
39451W        W11865  13.771  43.472   0.248
39452W        W11866  23.033  38.911  14.022
39453W        W11867  24.004   7.711  14.304
39454W        W11868  22.560  17.267   4.350
39455W        W11869  30.485   3.788   2.410
39456W        W11870   7.876  11.780   2.221
39457W        W11871  40.946  26.959  12.940
39458W        W11872  34.566   8.337   3.304
39459W        W11873  34.090  12.793  12.900
39460W        W11874  34.452  18.639  12.994
39461W        W11875  42.942  37.076  14.890
39462W        W11876  15.748  12.270   0.347
39463W        W11877  14.219  38.564  13.357
39464W        W11878  17.162  22.560  10.540
39465W        W11879  40.432  36.499   3.190
39466W        W11880  27.450  24.068  12.565
39467W        W11881   7.719  41.833  12.366
39468W        W11882  17.705  42.408  14.019
39469W        W11883  17.175  22.505  12.048
39470W        W11884  10.344  39.008   0.835
39471W        W11885  30.046  15.644   3.280
39472W        W11886  42.955  34.593   1.849
39473W        W11887   4.792  29.652  12.859
39474W        W11888  27.534  32.561  13.392
39475W        W11889  43.271  31.045  14.988
39476W        W11890  16.678  35.596   4.296
39477W        W11891   4.860  28.568   9.948
39478W        W11892  16.715  41.893   1.393
39479W        W11893   7.780   1.321   1.252
39480W        W11894   0.455  20.594  11.009
39481W        W11895  22.733  23.107  10.914
39482W        W11896  11.225  14.721   1.285
39483W        W11897  38.956  26.458   3.202
39484W        W11898  32.979  31.087   2.746
39485W        W11899  30.492  23.183  11.480
39486W        W11900   4.812  31.576   3.831
39487W        W11901  19.180  41.433   1.833
39488W        W11902  32.974  22.738   4.212
39489W        W11903  30.001  24.519   1.885
39490W        W11904  41.900  22.069   3.763
39491W        W11905  14.665  19.703   4.263
39492W        W11906  29.065  10.146   0.289
39493W        W11907  22.588  19.057  11.418
39494W        W11908  15.674  10.172  10.979
39495W        W11909   8.879   1.313  13.411
39496W        W11910   3.798  37.931   0.831
39497W        W11911  22.053  17.229  10.944
39498W        W11912  24.597  30.004   0.799
39499W        W11913   8.253  18.288  13.969
39500W        W11914  38.396  18.209   4.217
39501W        W11915  24.669  21.262   4.718
39502W        W11916  19.207  14.678  13.401
39503W        W11917  33.498  15.720  12.531
39504W        W11918   4.774  17.739   0.440
39505W        W11919  30.052  34.000  13.866
39506W        W11920  30.986  23.130  13.397
39507W        W11921  14.324  11.140  14.391
39508W        W11922   0.324  16.808  12.355
39509W        W11923   1.896   4.811   3.775
39510W        W11924   1.320  34.872   1.405
39511W        W11925  16.168  25.699   1.813
39512W        W11926   4.260   4.319   4.747
39513W        W11927  40.321   1.930  13.992
39514W        W11928  19.283   1.900   0.939
39515W        W11929  34.939  27.131   2.226
39516W        W11930   5.794  38.370   4.689
39517W        W11931  44.762   5.786  13.811
39518W        W11932  34.462   5.745  10.962
39519W        W11933  25.164  43.010  13.844
39520W        W11934  24.670  20.654   4.288
39521W        W11935  25.505   7.386  12.081
39522W        W11936  30.614  33.913  10.563
39523W        W11937   0.832  43.407   0.764
39524W        W11938  33.068  11.130  12.006
39525W        W11939  32.611   1.821   1.821
39526W        W11940  25.986  16.582  13.981
39527W        W11941  35.571  43.490   4.691
39528W        W11942  18.617  18.077   2.811
39529W        W11943  34.429  43.824  11.072
39530W        W11944  38.911   8.250  12.902
39531W        W11945  43.511  31.952  11.932
39532W        W11946  41.007  38.044  14.796
39533W        W11947   0.383  32.109  11.436
39534W        W11948  21.644  28.491  12.373
39535W        W11949   7.266  29.433   0.268
39536W        W11950   8.875  33.426   4.285
39537W        W11951   1.461  25.145  11.025
39538W        W11952  25.147  40.499   2.846
39539W        W11953   5.422  16.736  11.395
39540W        W11954  12.751  18.771   3.862
39541W        W11955  27.449  37.085  13.337
39542W        W11956   9.284  10.313  11.007
39543W        W11957  12.756  34.968   1.242
39544W        W11958   8.336   3.311   4.188
39545W        W11959   2.321  23.230  13.939
39546W        W11960   8.879  34.607   3.310
39547W        W11961  44.912   5.354   2.662
39548W        W11962  38.823  11.185   1.855
39549W        W11963  35.953  40.453   4.193
39550W        W11964   4.355  38.510  10.415
39551W        W11965  14.616  20.567   0.877
39552W        W11966  11.777  36.412   3.386
39553W        W11967   8.776   6.820  11.983
39554W        W11968  15.770   7.303  13.051
39555W        W11969   1.329  34.440  10.982
39556W        W11970   6.712  37.493   4.140
39557W        W11971  33.060  28.166  13.344
39558W        W11972   5.777  27.489  13.973
39559W        W11973  29.133  13.338   4.730
39560W        W11974  28.948  44.504  11.080
39561W        W11975  20.042  17.069  13.377
39562W        W11976  33.588  32.886   0.398
39563W        W11977   7.713  11.660  13.392
39564W        W11978  19.740   2.786   1.419
39565W        W11979  10.820  37.374  13.492
39566W        W11980  13.144  34.492  11.054
39567W        W11981  32.102  12.296  10.516
39568W        W11982   1.290  34.405  12.950
39569W        W11983  13.612   9.260   0.755
39570W        W11984  36.592  40.892  11.397
39571W        W11985  35.867  12.768   3.313
39572W        W11986  15.710  26.607   0.479
39573W        W11987  31.114  26.988   4.229
39574W        W11988   0.417  12.151  13.055
39575W        W11989   2.361  19.278   4.338
39576W        W11990  38.456  23.159  14.759
39577W        W11991  27.188   1.411   1.339
39578W        W11992  33.572  39.998   3.343
39579W        W11993  43.927  13.165   0.389
39580W        W11994  19.589  43.486  12.551
39581W        W11995  13.718  23.505   1.861
39582W        W11996  33.423   6.686   0.874
39583W        W11997  35.068  23.147   4.334
39584W        W11998  43.293   6.848  12.473
39585W        W11999  36.869  21.754   3.194
39586W        W12000  20.722  40.332  10.903
39587W        W12001  41.480  27.449   3.251
39588W        W12002  11.751  41.474  11.605
39589W        W12003  31.973  21.602   1.440
39590W        W12004  40.891  44.333   0.924
39591W        W12005  29.981  30.103   4.337
39592W        W12006   3.419  13.323  12.087
39593W        W12007  23.056  28.473   4.242
39594W        W12008   3.222  13.685  13.009
39595W        W12009  39.011  43.463  12.867
39596W        W12010  28.496  28.049   3.214
39597W        W12011  29.007  10.871   0.454
39598W        W12012   2.255  26.069  14.999
39599W        W12013   2.414  19.266   0.392
39600W        W12014  14.239  24.023   4.785
39601W        W12015   2.388  39.351   2.888
39602W        W12016   8.235  17.639   2.266
39603W        W12017  41.300  10.794  11.479
39604W        W12018  26.046  20.128  13.454
39605W        W12019  20.066  42.881   4.263
39606W        W12020  17.247  19.662   1.236
39607W        W12021  23.154   2.262  14.454
39608W        W12022  15.793   3.825  10.427
39609W        W12023  44.414  24.501  14.968
39610W        W12024  12.218  26.020  14.013
39611W        W12025  35.463  26.541  14.472
39612W        W12026  43.356  28.466  12.042
39613W        W12027   2.789  29.041  14.352
39614W        W12028   1.367   5.766   1.729
39615W        W12029  38.848  39.325  14.411
39616W        W12030  41.486  14.799   2.773
39617W        W12031  35.578   9.380  11.015
39618W        W12032  21.656   3.402   2.385
39619W        W12033  22.705  38.489   4.796
39620W        W12034   2.863  43.931   3.857
39621W        W12035  23.127  23.096   2.190
39622W        W12036  34.505  14.289   4.639
39623W        W12037  24.009  42.839  11.601
39624W        W12038   0.850  11.283   2.252
39625W        W12039  21.247  38.044  11.525
39626W        W12040  35.505  20.219  11.568
39627W        W12041  40.331  20.131  10.450
39628W        W12042   9.346  29.658  12.496
39629W        W12043  28.051  17.210  11.987
39630W        W12044  19.756  23.053   3.267
39631W        W12045  34.407   1.742  12.912
39632W        W12046  35.880  43.001   1.818
39633W        W12047  36.012  23.069  11.996
39634W        W12048   4.708  21.051   1.879
39635W        W12049  26.081   1.407   1.765
39636W        W12050  22.629  21.214  11.118
39637W        W12051  26.959  11.172  13.949
39638W        W12052  42.399   6.713   0.325
39639W        W12053  38.824   3.774   2.768
39640W        W12054   8.839  16.254   0.748
39641W        W12055  10.709   2.412   4.806
39642W        W12056  18.126  17.190  12.832
39643W        W12057  44.923  21.213   4.272
39644W        W12058  31.904   9.672   3.671
39645W        W12059  39.422   1.480  14.457
39646W        W12060   5.198  39.894   4.248
39647W        W12061  43.425  12.737  11.937
39648W        W12062   8.771  31.467  14.006
39649W        W12063   8.355  42.998   3.752
39650W        W12064   0.349  31.008   3.298
39651W        W12065  11.814  25.536  13.998
39652W        W12066  26.145   4.935   2.698
39653W        W12067   5.298   9.325   0.955
39654W        W12068   8.859   4.914  10.916
39655W        W12069  34.915  38.875  12.861
39656W        W12070   3.401  37.075   2.380
39657W        W12071  33.051  17.218  14.915
39658W        W12072  15.322  42.336  11.924
39659W        W12073  12.191   8.864  13.976
39660W        W12074  25.618  23.070  10.492
39661W        W12075  37.506  38.496   1.437
39662W        W12076  44.857  15.612   4.783
39663W        W12077  35.968   5.795  13.419
39664W        W12078   4.249  29.457  12.495
39665W        W12079  31.554  39.547   0.356
39666W        W12080   7.234  34.036   4.681
39667W        W12081   2.815  15.596  12.554
39668W        W12082  31.001  30.547  14.776
39669W        W12083  38.976   6.817   2.751
39670W        W12084  42.380  22.500  13.351
39671W        W12085  27.090   8.796   3.789
39672W        W12086  33.909   1.255   4.824
39673W        W12087  27.465  26.692   1.398
39674W        W12088  39.046  38.432  11.373
39675W        W12089  14.272  28.154  14.431
39676W        W12090  25.982   1.807  12.958
39677W        W12091  17.576  35.093   0.727
39678W        W12092  42.942  40.412   1.725
39679W        W12093  44.430  13.183   3.848
39680W        W12094  18.750  41.952   3.834
39681W        W12095  36.530  26.541  11.875
39682W        W12096   6.702  20.058  11.526
39683W        W12097   6.725  40.881  12.409
39684W        W12098  34.591  29.629   0.844
39685W        W12099  28.142   0.859   2.226
39686W        W12100  16.703  18.657   0.881
39687W        W12101   3.924  33.956   4.306
39688W        W12102   2.297  38.902   2.370
39689W        W12103  19.208  36.935   0.420
39690W        W12104   5.285  10.730  13.929
39691W        W12105  12.225   0.403  13.041
39692W        W12106  24.029  25.093   3.200
39693W        W12107  24.701  14.658  11.014
39694W        W12108  17.580  41.827  12.072
39695W        W12109  44.852  10.302   2.844
39696W        W12110  28.997  16.582  10.927
39697W        W12111  25.004  32.591   1.296
39698W        W12112  40.919   1.779  14.951
39699W        W12113   1.732   0.451   1.409
39700W        W12114  32.898  10.806   3.655
39701W        W12115  13.625  10.329  13.490
39702W        W12116  14.118  44.488  13.920
39703W        W12117  20.121  43.466   3.862
39704W        W12118  21.758  43.845   4.752
39705W        W12119  35.396  14.783  10.424
39706W        W12120  37.469  30.011   1.795
39707W        W12121  16.192  17.690   1.924
39708W        W12122  19.628  11.200   2.403
39709W        W12123  44.273  28.518  13.880
39710W        W12124  32.621  29.618   1.898
39711W        W12125  34.098  25.521   0.319
39712W        W12126  42.474  12.753  11.462
39713W        W12127  34.531  37.408  11.499
39714W        W12128  44.498  15.659   5.102
39715W        W12129   1.277   0.885  10.933
39716W        W12130   8.345  15.232   2.342
39717W        W12131   3.777  23.126   2.819
39718W        W12132  23.078  23.619   1.278
39719W        W12133  10.787  22.232   1.828
39720W        W12134  36.431  39.500   4.344
39721W        W12135  17.078  15.094   2.314
39722W        W12136  40.807   4.750   1.699
39723W        W12137  25.962  13.160  12.963
39724W        W12138  36.867   4.801  14.931
39725W        W12139  31.093  37.998  12.950
39726W        W12140  21.262  36.547  11.882
39727W        W12141  38.357  12.720  13.855
39728W        W12142  42.406  26.623  10.535
39729W        W12143  11.217  33.464  14.004
39730W        W12144  15.704  11.286   1.780
39731W        W12145  31.953  28.539  12.424
39732W        W12146  15.599  41.821  12.886
39733W        W12147   5.923  36.544   4.737
39734W        W12148   7.234   5.425  12.471
39735W        W12149  43.330  37.948  11.382
39736W        W12150  33.383  12.144   3.229
39737W        W12151   9.353  22.739  12.848
39738W        W12152  39.892  38.851   0.333
39739W        W12153  18.772  34.026   2.668
39740W        W12154  38.907  19.203   0.908
39741W        W12155  18.641  38.859  11.856
39742W        W12156  13.796   5.398   3.634
39743W        W12157  44.003  42.482   2.670
39744W        W12158   5.822  21.162   0.744
39745W        W12159   1.381  37.339   2.344
39746W        W12160  34.447  14.731   1.303
39747W        W12161   0.298  18.247   0.478
39748W        W12162  41.830   2.313  13.951
39749W        W12163  29.595  27.946   2.765
39750W        W12164   4.851  13.258   3.283
39751W        W12165  10.708  25.181   4.645
39752W        W12166   6.204  37.083   4.257
39753W        W12167  25.597  27.468  13.457
39754W        W12168  11.790  29.960   3.232
39755W        W12169  41.936   3.384  14.850
39756W        W12170  24.068  20.600  12.362
39757W        W12171   7.300  22.630   4.136
39758W        W12172  38.542  23.211   3.745
39759W        W12173  20.676  31.931  10.604
39760W        W12174  25.030  16.682   0.903
39761W        W12175  24.511   6.404   0.266
39762W        W12176  29.585   5.275   1.429
39763W        W12177  17.569  37.020   1.396
39764W        W12178  31.589  24.056  11.445
39765W        W12179   3.851  28.178  14.445
39766W        W12180   3.733  30.109  10.933
39767W        W12181  24.697  11.270  14.361
39768W        W12182  43.971   0.824  11.123
39769W        W12183  34.016  15.794  12.856
39770W        W12184   3.863   3.297  11.945
39771W        W12185  25.056  24.687  14.020
39772W        W12186  25.698  24.055   1.430
39773W        W12187  33.574  14.185   1.268
39774W        W12188  42.786   1.252  10.595
39775W        W12189   6.263  42.496   4.623
39776W        W12190  11.677  42.806  11.035
39777W        W12191   3.309  38.003  10.449
39778W        W12192  26.464  44.434   9.607
39779W        W12193   1.793  33.443   1.409
39780W        W12194  28.076  17.774   3.810
39781W        W12195  41.838  41.459  10.053
39782W        W12196  23.573  33.066  11.870
39783W        W12197  10.837  21.223  12.503
39784W        W12198  15.685   8.346  12.444
39785W        W12199  27.474  39.835  13.444
39786W        W12200  20.204  40.351  11.483
39787W        W12201  19.273  15.132   0.357
39788W        W12202  41.304  31.999  12.915
39789W        W12203  27.684  19.546  14.357
39790W        W12204  23.157  13.640  13.851
39791W        W12205  15.300  33.616   2.713
39792W        W12206  39.489   3.798  11.112
39793W        W12207  43.778  42.425  10.584
39794W        W12208   4.304  32.426  13.053
39795W        W12209  23.189   7.241  12.495
39796W        W12210  40.949  21.108  12.025
39797W        W12211  36.439  31.613  13.316
39798W        W12212  31.131  17.667   3.792
39799W        W12213   9.750  23.017   1.747
39800W        W12214  31.616  26.510   9.994
39801W        W12215  23.555  44.989  11.405
39802W        W12216   3.445  18.599   2.804
39803W        W12217   4.830  15.644   0.896
39804W        W12218  21.109  40.890   0.323
39805W        W12219  19.064  31.596  12.473
39806W        W12220   8.288  17.098   4.717
39807W        W12221  29.132  31.038  12.378
39808W        W12222  37.533  22.040  14.766
39809W        W12223   2.249  37.404  13.991
39810W        W12224  41.538  38.043   2.716
39811W        W12225  21.636  31.953   2.387
39812W        W12226  40.527  14.614  13.494
39813W        W12227  16.100   4.719  12.355
39814W        W12228  31.120  15.744   1.287
39815W        W12229  14.192  33.899   1.409
39816W        W12230  19.578  40.386   2.230
39817W        W12231  21.620   4.886  12.505
39818W        W12232  23.175  31.003   2.794
39819W        W12233  17.163  17.736   1.436
39820W        W12234  33.088  36.893   0.812
39821W        W12235  35.058  28.159  13.334
39822W        W12236  32.439  43.826  13.480
39823W        W12237   5.754  35.458   2.853
39824W        W12238   4.760  33.576   2.205
39825W        W12239  13.827  14.284   4.722
39826W        W12240  19.744  36.975   0.250
39827W        W12241  36.418   6.307  12.435
39828W        W12242  31.056  24.991   3.185
39829W        W12243  41.925  44.480   5.290
39830W        W12244  43.345  35.868  14.285
39831W        W12245  38.532   7.755  13.015
39832W        W12246   3.878  35.408   0.874
39833W        W12247  10.196  44.010   4.201
39834W        W12248  24.532  19.154  11.096
39835W        W12249   6.360  24.056  12.932
39836W        W12250  36.487   9.850  11.966
39837W        W12251  19.600   9.839  10.516
39838W        W12252  41.497  37.443   4.193
39839W        W12253  12.222   3.775  14.759
39840W        W12254  13.803  21.166   3.198
39841W        W12255  11.662  11.369   0.315
39842W        W12256  23.669   3.794  11.543
39843W        W12257  27.682  44.785  12.021
39844W        W12258  20.667  38.962  10.978
39845W        W12259  44.393   2.243  13.310
39846W        W12260  25.172  23.562  10.895
39847W        W12261  28.645  38.463   1.915
39848W        W12262   2.901   4.705   1.383
39849W        W12263  40.377  18.627  12.449
39850W        W12264   7.877  41.393  13.872
39851W        W12265  33.468  14.783  12.575
39852W        W12266  32.891  20.729  13.960
39853W        W12267   4.315   4.262  12.354
39854W        W12268  26.162  26.111  13.547
39855W        W12269  19.632   4.206  11.092
39856W        W12270  17.066  20.130  12.997
39857W        W12271  34.611  19.123   1.285
39858W        W12272  32.604  22.041  12.914
39859W        W12273   2.342   3.718  11.007
39860W        W12274  36.463   0.867   1.230
39861W        W12275   2.371  28.672   3.282
39862W        W12276  38.940  13.727   1.707
39863W        W12277  34.869  42.935  10.629
39864W        W12278  43.284  30.627   1.272
39865W        W12279  39.979   3.895   2.388
39866W        W12280  43.951  40.406  11.556
39867W        W12281  19.632  39.040   1.908
39868W        W12282  18.078  17.733   1.231
39869W        W12283  27.667   0.360  11.864
39870W        W12284  25.551  33.463   5.201
39871W        W12285   8.773  35.569  11.091
39872W        W12286   2.390  24.166   3.782
39873W        W12287  11.143  17.656   2.772
39874W        W12288  28.999  12.214   0.890
39875W        W12289  14.192  37.963  12.828
39876W        W12290  24.556  22.654   0.384
39877W        W12291  15.806  39.955   3.258
39878W        W12292  29.920  29.991   4.785
39879W        W12293  16.312  10.373  14.913
39880W        W12294  40.008  19.683  13.053
39881W        W12295   4.912  35.510  13.010
39882W        W12296  27.188   2.451   2.857
39883W        W12297  18.624  26.478  10.117
39884W        W12298   4.736   0.960   3.163
39885W        W12299  34.407  14.176  13.491
39886W        W12300  12.830  35.505   0.756
39887W        W12301  32.961  14.597   3.348
39888W        W12302  32.473  23.189   1.886
39889W        W12303  11.270  29.524  13.325
39890W        W12304   0.822   4.816  10.927
39891W        W12305  44.759   2.741  12.464
39892W        W12306  43.460   8.766   2.747
39893W        W12307  43.951   9.183   4.231
39894W        W12308  31.581  19.043  12.959
39895W        W12309  33.892  33.073  13.850
39896W        W12310  36.987  27.690   1.228
39897W        W12311  29.097  28.148  12.998
39898W        W12312  34.392  17.259  14.395
39899W        W12313  13.665  38.535  11.050
39900W        W12314  18.681   2.735   4.655
39901W        W12315  11.779   0.811  14.326
39902W        W12316  37.849  43.017   5.219
39903W        W12317   9.163  32.607   0.350
39904W        W12318  38.558  15.096  11.374
39905W        W12319  40.514  22.611   1.449
39906W        W12320  11.253  37.353   4.618
39907W        W12321  31.071  40.368   2.198
39908W        W12322  38.533  32.899   0.788
39909W        W12323  25.220   3.852  13.940
39910W        W12324   8.683  22.613   3.871
39911W        W12325  33.910  22.051   0.335
39912W        W12326  24.717  26.553   4.686
39913W        W12327  33.457  33.593  12.981
39914W        W12328  24.078  15.166   3.340
39915W        W12329  25.585  42.368  11.498
39916W        W12330  22.603   2.817  13.819
39917W        W12331  41.337   8.661   4.326
39918W        W12332  30.992  43.402  13.828
39919W        W12333  35.360  25.203   2.273
39920W        W12334  37.890  30.981  14.322
39921W        W12335   4.756   5.731  11.069
39922W        W12336  22.205   7.375   2.327
39923W        W12337  32.480  23.210  10.965
39924W        W12338  38.907   2.947   3.382
39925W        W12339  35.943   5.263   3.722
39926W        W12340  37.969   5.418  11.113
39927W        W12341   5.322  24.577  12.419
39928W        W12342  22.159  39.975   2.285
39929W        W12343  32.912  37.520  10.898
39930W        W12344   6.208   7.747   0.828
39931W        W12345  22.732   8.161  14.782
39932W        W12346  29.588   2.405   4.648
39933W        W12347  24.118   0.392   3.175
39934W        W12348  19.706  40.041  14.325
39935W        W12349  43.820  35.062  11.104
39936W        W12350  22.672  26.582  14.496
39937W        W12351  16.161  34.595   1.442
39938W        W12352  43.403   8.320   4.794
39939W        W12353  29.533  14.291  12.917
39940W        W12354  42.968  42.459  13.848
39941W        W12355  19.603   2.817  13.937
39942W        W12356  26.125  31.101  11.957
39943W        W12357  14.770  27.031   4.747
39944W        W12358  31.100  39.321   1.778
39945W        W12359  19.746   7.384  10.498
39946W        W12360   8.663   1.475  10.501
39947W        W12361   7.865  35.044  12.442
39948W        W12362  40.358   0.353   1.451
39949W        W12363   4.704  21.141   4.207
39950W        W12364  38.381  10.269   4.148
39951W        W12365  33.074  41.484  13.024
39952W        W12366  31.932   4.773  11.974
39953W        W12367  32.952  28.134  11.425
39954W        W12368  20.752  24.613   3.232
39955W        W12369  33.546  12.839   0.380
39956W        W12370  16.104  18.616  11.444
39957W        W12371   8.670  10.153   2.797
39958W        W12372  22.605  29.594   2.672
39959W        W12373   7.362  28.157  11.025
39960W        W12374   2.314   2.885  10.634
39961W        W12375  39.912  30.083   4.607
39962W        W12376  39.928   9.357   3.855
39963W        W12377  32.019  12.636  13.383
39964W        W12378  29.499  16.600  11.076
39965W        W12379  31.552   1.276   1.853
39966W        W12380  13.764  24.212  11.857
39967W        W12381  42.018  12.117   4.699
39968W        W12382  44.352  41.788   0.922
39969W        W12383  36.038  18.162  14.302
39970W        W12384  43.767  38.005   0.244
39971W        W12385  42.370  24.489  13.444
39972W        W12386  11.682  28.619  12.046
39973W        W12387  30.079  33.073   0.953
39974W        W12388  42.928  41.479  11.128
39975W        W12389  31.962   3.295  12.918
39976W        W12390  21.090   6.768  13.529
39977W        W12391  11.131  15.672  12.578
39978W        W12392  44.979  31.585  13.838
39979W        W12393   2.721  20.524   2.305
39980W        W12394  15.629   2.400   2.286
39981W        W12395  19.764  16.697   2.889
39982W        W12396  19.643   0.279   2.839
39983W        W12397  14.820  12.190  12.560
39984W        W12398  43.013   7.813   4.191
39985W        W12399  43.399  28.162  11.918
39986W        W12400   8.384  44.399  10.459
39987W        W12401   5.350  30.452  11.595
39988W        W12402  10.811  13.327   3.844
39989W        W12403  28.657  35.854  14.392
39990W        W12404  36.441  42.409  14.415
39991W        W12405  31.027  35.436  11.467
39992W        W12406   5.428  27.508   1.334
39993W        W12407  35.959  31.079  12.377
39994W        W12408  20.561  28.031   2.359
39995W        W12409  30.009  31.021   4.251
39996W        W12410  44.499  38.554   5.117
39997W        W12411  42.841   3.275   1.432
39998W        W12412   8.404  29.998  11.040
39999W        W12413  10.854  19.593  13.338
40000W        W12414  36.002  35.058   1.844
40001W        W12415   4.288   1.806   1.433
40002W        W12416  32.442  31.956   4.674
40003W        W12417  37.455  23.999   4.127
40004W        W12418  19.180  24.213   3.293
40005W        W12419   3.787   2.928   4.762
40006W        W12420  35.937  30.995  13.329
40007W        W12421  40.417  37.498  10.980
40008W        W12422  31.417  19.189   0.944
40009W        W12423   9.221  11.842  11.966
40010W        W12424   3.937  36.438   2.840
40011W        W12425  38.968  32.946  13.361
40012W        W12426  12.284   4.821  13.915
40013W        W12427  25.059   0.403  12.035
40014W        W12428   1.479   2.805   3.778
40015W        W12429  18.664  18.190   0.402
40016W        W12430  40.020  23.492   2.287
40017W        W12431  10.712  12.341  14.957
40018W        W12432  21.519  37.466   3.342
40019W        W12433  33.883   5.896  10.452
40020W        W12434   8.207  21.625  10.607
40021W        W12435  21.144  34.400  12.544
40022W        W12436  43.449  23.079  14.490
40023W        W12437  42.834   3.410  10.611
40024W        W12438   9.865  36.974  10.908
40025W        W12439   6.738  22.012  14.296
40026W        W12440  25.197  16.770  13.323
40027W        W12441  26.520  17.691  14.515
40028W        W12442  25.622   2.761   3.666
40029W        W12443   5.238  12.850  12.411
40030W        W12444  19.111  41.966  12.963
40031W        W12445  35.006  14.628   0.786
40032W        W12446  41.030   6.315   2.302
40033W        W12447  34.003   4.322   1.426
40034W        W12448  37.908   2.949  12.828
40035W        W12449  33.998  19.730   1.811
40036W        W12450  22.164   7.780  11.024
40037W        W12451  33.113   1.969  14.445
40038W        W12452  43.766  32.447   3.202
40039W        W12453   5.911  23.518  14.452
40040W        W12454   3.416  27.978   3.265
40041W        W12455  20.040   0.775   3.273
40042W        W12456   0.922  32.927   2.388
40043W        W12457  17.235  25.096   4.631
40044W        W12458   5.266  35.947   4.190
40045W        W12459   1.950  44.927   3.369
40046W        W12460  10.301  11.338   3.216
40047W        W12461  21.614  24.047  12.389
40048W        W12462  21.145  44.393  12.989
40049W        W12463  16.179  26.104   2.211
40050W        W12464  26.986  23.566   1.229
40051W        W12465   9.266  19.161  10.992
40052W        W12466  28.446  34.477  14.354
40053W        W12467   6.363  36.433  13.052
40054W        W12468  34.116   1.378  13.877
40055W        W12469   7.773  26.498  10.085
40056W        W12470  31.513   7.280  11.992
40057W        W12471  25.177  17.067  13.950
40058W        W12472  23.723  41.873   2.838
40059W        W12473  43.365  39.408  13.833
40060W        W12474  35.912  26.188   4.807
40061W        W12475  41.517  31.033   4.761
40062W        W12476  38.550  16.198   2.885
40063W        W12477  42.831  16.211  10.424
40064W        W12478  15.649  27.068  10.554
40065W        W12479  30.917  19.758   3.328
40066W        W12480   5.693  41.823   0.408
40067W        W12481  37.917  28.488   4.734
40068W        W12482   0.453  30.479  13.849
40069W        W12483  19.181  34.407   0.802
40070W        W12484  32.482   6.831  13.874
40071W        W12485  29.567  32.420   2.342
40072W        W12486   2.307   0.942   4.696
40073W        W12487  15.270  19.752  10.002
40074W        W12488  15.681   6.714   0.932
40075W        W12489  11.866   4.379  12.525
40076W        W12490   5.271  24.140   2.877
40077W        W12491   9.356  12.645   4.706
40078W        W12492  34.940  41.799  11.571
40079W        W12493  19.627  28.040  12.363
40080W        W12494  28.551  31.050  13.484
40081W        W12495  15.254  32.572   4.327
40082W        W12496  35.389  28.567  14.011
40083W        W12497  15.104  19.187   2.374
40084W        W12498  14.301  42.307  12.568
40085W        W12499  33.616  15.260  13.534
40086W        W12500   3.713  17.171  14.428
40087W        W12501  36.551   6.680   0.799
40088W        W12502  11.769  19.753   4.132
40089W        W12503  29.015   1.909   0.426
40090W        W12504  33.078  28.477   2.703
40091W        W12505  34.071   9.370   0.246
40092W        W12506   4.751  35.582   0.317
40093W        W12507  39.475  42.376  11.526
40094W        W12508  10.724  18.140  11.601
40095W        W12509   1.795  43.884   3.321
40096W        W12510   8.247  21.544   3.655
40097W        W12511   4.356  11.630  11.479
40098W        W12512  31.554  31.580  13.332
40099W        W12513  19.752   5.747   3.715
40100W        W12514  34.524  10.147   2.319
40101W        W12515  43.430  43.483  14.348
40102W        W12516  31.050   6.372  12.376
40103W        W12517   0.829  33.105  12.464
40104W        W12518  28.614  35.514   0.952
40105W        W12519  37.833   3.842   0.280
40106W        W12520  28.675  38.552  13.485
40107W        W12521  36.386   2.872   0.478
40108W        W12522   3.931  18.595  14.467
40109W        W12523  18.116  22.196  14.396
40110W        W12524  29.659   5.822   2.404
40111W        W12525  42.822  36.069  13.384
40112W        W12526  32.491  35.494  12.359
40113W        W12527  29.022  12.625   0.446
40114W        W12528  13.154   0.298  12.933
40115W        W12529   0.967  12.298   0.337
40116W        W12530  16.158  28.468   0.334
40117W        W12531  14.156  19.153  12.089
40118W        W12532  20.069  31.026  13.872
40119W        W12533  14.602  16.165  12.502
40120W        W12534   6.687  15.172  14.820
40121W        W12535  13.108   3.883  13.825
40122W        W12536  29.081  14.664   4.314
40123W        W12537  21.546   8.242   0.244
40124W        W12538  24.518   1.870  10.903
40125W        W12539  29.613  10.293   5.147
40126W        W12540  25.185  29.928   4.702
40127W        W12541  37.008  27.667  13.384
40128W        W12542   4.210  25.685  12.003
40129W        W12543  43.924  13.611   0.834
40130W        W12544   9.661  31.979  14.941
40131W        W12545  39.901  37.030  10.985
40132W        W12546  30.421   6.321   2.350
40133W        W12547  12.171  32.448  13.941
40134W        W12548  21.652  32.091   1.734
40135W        W12549   9.373  32.575   1.732
40136W        W12550  37.529   6.265  10.956
40137W        W12551   0.926  29.011  14.364
40138W        W12552  16.745  16.769   1.809
40139W        W12553   7.839  43.909   1.319
40140W        W12554  14.223  36.020  13.948
40141W        W12555  23.603  16.662  13.984
40142W        W12556  33.911  24.499  12.838
40143W        W12557  43.847  28.673  13.364
40144W        W12558   9.866   4.271   0.446
40145W        W12559  20.599  33.433   0.445
40146W        W12560  18.735  40.025   2.710
40147W        W12561  17.192  29.922   2.832
40148W        W12562  19.050   5.317  12.343
40149W        W12563  31.056  34.551  13.815
40150W        W12564   5.786   2.404   2.769
40151W        W12565   6.346  36.072  11.082
40152W        W12566  23.086  14.305   1.865
40153W        W12567  35.432  19.582  12.394
40154W        W12568  14.618  37.388  10.004
40155W        W12569   2.899  14.690   3.731
40156W        W12570  15.291  29.164   2.802
40157W        W12571  26.976  21.093  13.387
40158W        W12572   2.928  10.139  12.914
40159W        W12573   8.898  34.983  14.430
40160W        W12574  40.985   8.813   0.339
40161W        W12575   4.872  39.489   3.266
40162W        W12576  10.837  19.547   0.775
40163W        W12577  14.674  11.354  12.839
40164W        W12578  38.395  12.209  11.520
40165W        W12579  29.086   9.685   2.410
40166W        W12580  11.767  20.248  11.049
40167W        W12581  43.827  31.429   2.811
40168W        W12582  14.210  32.448  10.613
40169W        W12583  21.564  14.206  11.608
40170W        W12584  42.869  43.794   4.838
40171W        W12585  34.408  36.509  14.964
40172W        W12586  13.702   1.436   2.789
40173W        W12587  35.070  15.682   2.827
40174W        W12588  32.109   8.263  11.985
40175W        W12589  11.668  23.591   1.891
40176W        W12590  40.032  37.529  12.439
40177W        W12591  43.828  37.435   0.481
40178W        W12592   8.874  44.359  10.894
40179W        W12593  24.585  30.975  13.523
40180W        W12594  33.053  22.672  14.848
40181W        W12595  38.966  40.920  10.010
40182W        W12596  35.400  17.749  10.405
40183W        W12597  38.477  24.086   3.308
40184W        W12598  40.542   1.322   1.267
40185W        W12599   1.422   8.299  14.434
40186W        W12600  32.468  28.150  14.490
40187W        W12601  44.766  38.546   2.365
40188W        W12602  14.777  37.476  10.958
40189W        W12603   1.395  16.253   2.355
40190W        W12604  21.583  11.760   0.373
40191W        W12605   7.668  33.602  12.877
40192W        W12606  39.021   1.849   5.166
40193W        W12607   2.929  25.543  11.536
40194W        W12608  18.570  33.001  12.916
40195W        W12609  35.065  22.609   9.491
40196W        W12610  11.269  16.677  13.029
40197W        W12611   1.480  39.031   2.835
40198W        W12612  16.242  34.582  14.812
40199W        W12613  28.014  29.953  12.500
40200W        W12614  21.589  29.568  12.890
40201W        W12615  39.817  11.180   4.288
40202W        W12616  23.597  27.074  12.979
40203W        W12617  14.319   7.787  12.881
40204W        W12618  12.328  29.163  12.059
40205W        W12619  42.512  27.955   0.464
40206W        W12620  36.996  32.888   9.522
40207W        W12621   2.886  20.702   0.957
40208W        W12622  38.335   1.844  11.076
40209W        W12623   9.390  26.692   2.707
40210W        W12624  11.189   1.457   1.825
40211W        W12625  28.645  44.284   4.169
40212W        W12626  29.503  10.263  13.376
40213W        W12627   4.285  31.142   4.631
40214W        W12628   2.772  17.182   3.690
40215W        W12629   3.260  18.564   3.629
40216W        W12630   2.239  40.315  14.498
40217W        W12631   5.212   3.321  10.548
40218W        W12632  39.957  27.517  10.461
40219W        W12633  39.424  10.373   2.684
40220W        W12634  37.048  28.571  12.974
40221W        W12635  25.058  30.445   3.753
40222W        W12636  22.702   3.247   4.776
40223W        W12637  41.361   5.343   1.302
40224W        W12638  40.043  11.660   2.762
40225W        W12639  42.941   1.844  10.453
40226W        W12640  34.997  29.491  14.784
40227W        W12641  34.055  31.140   4.714
40228W        W12642  18.552   8.161   2.403
40229W        W12643  24.163   2.808  12.839
40230W        W12644  12.186  34.967   2.663
40231W        W12645  11.341  43.282  12.448
40232W        W12646  32.487  19.272   2.400
40233W        W12647  44.873   8.669   4.838
40234W        W12648  37.425  21.723  12.442
40235W        W12649  22.091   2.780  12.074
40236W        W12650  44.808  34.911   0.372
40237W        W12651  22.648  15.249  11.032
40238W        W12652  33.420  32.906   4.215
40239W        W12653  14.680  43.932   4.231
40240W        W12654  35.378  14.683  10.954
40241W        W12655   5.231  16.125  12.042
40242W        W12656  19.189  37.941  12.921
40243W        W12657  30.647  31.467   2.403
40244W        W12658  25.559  32.993  14.851
40245W        W12659  27.460  11.688   3.790
40246W        W12660  21.735  43.856   0.423
40247W        W12661  16.784  36.590   4.807
40248W        W12662   3.890  29.966  13.983
40249W        W12663  40.003   5.342   3.165
40250W        W12664   0.977  27.661   0.306
40251W        W12665  30.570  25.044  11.372
40252W        W12666   9.333  36.989  12.967
40253W        W12667  21.748  26.465  12.476
40254W        W12668  36.982  20.057   4.305
40255W        W12669  15.178   8.882   0.350
40256W        W12670   4.883  34.543   3.659
40257W        W12671  37.471  16.092   0.308
40258W        W12672  22.644  27.058   2.691
40259W        W12673   8.292  27.956   2.208
40260W        W12674  26.060   0.785  13.946
40261W        W12675  11.733  21.141  11.883
40262W        W12676  25.506  27.134   0.265
40263W        W12677  44.758  28.016   1.824
40264W        W12678  36.423  14.830  13.346
40265W        W12679   3.452  29.460  14.300
40266W        W12680  44.754  17.658   1.277
40267W        W12681   8.667   8.402   2.696
40268W        W12682  39.900   6.210  10.506
40269W        W12683  38.377  27.109  13.447
40270W        W12684  15.607  30.061   0.453
40271W        W12685  31.584   2.840   2.254
40272W        W12686  28.115  42.333  14.373
40273W        W12687   2.349  20.727  13.502
40274W        W12688  41.377   5.815   4.208
40275W        W12689   6.681  26.111   0.812
40276W        W12690  35.563  18.744  12.927
40277W        W12691  11.327  24.192   0.314
40278W        W12692   8.810  23.579  11.450
40279W        W12693  16.568  16.678  10.512
40280W        W12694  19.274  39.422  14.363
40281W        W12695  21.052  38.042  10.585
40282W        W12696  27.150  39.031   1.270
40283W        W12697  30.970  26.562   2.303
40284W        W12698  41.388   4.859   4.725
40285W        W12699  29.094  24.520   1.306
40286W        W12700  37.021   1.889  10.543
40287W        W12701  20.231  13.842   1.767
40288W        W12702   5.321  31.553  11.506
40289W        W12703  34.907  14.780  13.472
40290W        W12704  26.620  18.153  12.828
40291W        W12705   0.752  39.317   4.599
40292W        W12706   7.388  23.599  13.537
40293W        W12707  18.085  21.750  12.477
40294W        W12708  12.321  35.100   0.864
40295W        W12709  11.800  35.918   0.832
40296W        W12710  10.151  10.231  11.887
40297W        W12711   4.800  16.744  14.985
40298W        W12712  26.059  27.484  11.403
40299W        W12713  13.211  29.958  12.433
40300W        W12714   3.312   3.901  14.799
40301W        W12715  44.853   0.868   3.803
40302W        W12716  44.820  25.028  12.039
40303W        W12717  20.708  14.138  13.035
40304W        W12718  10.192  20.177   3.870
40305W        W12719  23.532  43.380  11.922
40306W        W12720  25.522  17.239   2.365
40307W        W12721  31.123   7.361   0.871
40308W        W12722  16.270  12.116   4.185
40309W        W12723  35.884  17.075  14.793
40310W        W12724   6.883   4.377  11.919
40311W        W12725   4.782  10.321   5.197
40312W        W12726   6.256  23.084   4.656
40313W        W12727   8.656  28.094   2.222
40314W        W12728  27.051   5.747   4.789
40315W        W12729  18.185  10.648   4.814
40316W        W12730  39.330   2.354   1.847
40317W        W12731  16.711   8.247  11.124
40318W        W12732   5.842  10.302  14.002
40319W        W12733  13.735   2.840   4.259
40320W        W12734   9.156  23.495  13.863
40321W        W12735  41.989   2.350  13.320
40322W        W12736  19.545  23.611  11.991
40323W        W12737  23.081  33.548   1.805
40324W        W12738  33.452  26.161   0.786
40325W        W12739   9.773   1.868   1.308
40326W        W12740  40.819  38.369   0.330
40327W        W12741  18.756  21.576  13.860
40328W        W12742  42.522   9.191  12.902
40329W        W12743  19.534   7.768   2.380
40330W        W12744   0.471   0.967   3.308
40331W        W12745  15.312   3.843  12.963
40332W        W12746  35.026  11.162  10.634
40333W        W12747   2.231  41.310   5.672
40334W        W12748  33.041   2.780  11.489
40335W        W12749   2.442  11.705   2.209
40336W        W12750  34.918  41.473  13.063
40337W        W12751  27.991  31.456  11.476
40338W        W12752  14.620   9.668  11.506
40339W        W12753   6.290  31.994  14.291
40340W        W12754   1.419  11.308   2.261
40341W        W12755  26.114   8.773  11.055
40342W        W12756  34.865  42.389  13.816
40343W        W12757  10.207  15.582  11.957
40344W        W12758  36.538  21.216  12.559
40345W        W12759  21.657   0.785  13.338
40346W        W12760  43.516  43.462   3.787
40347W        W12761   6.804  26.089   2.840
40348W        W12762   2.309   4.811  10.642
40349W        W12763  27.538  25.994   3.800
40350W        W12764   2.375   6.704   2.670
40351W        W12765  10.736  36.456  11.027
40352W        W12766   5.894  12.303   2.221
40353W        W12767   8.717   0.317   0.438
40354W        W12768   7.197  27.650   0.920
40355W        W12769  18.203  14.713   0.806
40356W        W12770  38.029  26.049  11.540
40357W        W12771   2.952  32.481   1.337
40358W        W12772  29.571  28.073  14.966
40359W        W12773  21.170  31.404   2.345
40360W        W12774  13.114   5.709  14.767
40361W        W12775  22.680  37.361   3.366
40362W        W12776  21.656  25.578  14.474
40363W        W12777  27.020  28.123  14.374
40364W        W12778  22.235  27.195   3.196
40365W        W12779  26.635  42.803  12.993
40366W        W12780  17.608  13.342   2.753
40367W        W12781  13.330  44.916   1.738
40368W        W12782  22.212   0.468   2.684
40369W        W12783   3.345  33.891  14.509
40370W        W12784  43.960  44.305  13.807
40371W        W12785  23.076  19.653   1.233
40372W        W12786  11.251  31.592  10.931
40373W        W12787  12.140  32.401   3.152
40374W        W12788  26.043  30.122   2.720
40375W        W12789  11.230  29.034  12.851
40376W        W12790  38.559   3.824  14.425
40377W        W12791  34.375  30.585  10.516
40378W        W12792   8.313  42.433   0.866
40379W        W12793  21.523  38.423  12.874
40380W        W12794  34.083  42.870  13.433
40381W        W12795  19.253   6.279  14.906
40382W        W12796   6.240  27.473  13.363
40383W        W12797  40.003  23.184  11.381
40384W        W12798  26.475  44.886  14.392
40385W        W12799  14.194  27.454   4.147
40386W        W12800  42.806  33.907   4.696
40387W        W12801  26.049   3.788  11.390
40388W        W12802  31.030  19.663  13.398
40389W        W12803  38.532  27.476  12.933
40390W        W12804  37.372  29.428   0.285
40391W        W12805  26.484  30.088   0.920
40392W        W12806  13.811  35.427  10.437
40393W        W12807  31.567  38.908  11.494
40394W        W12808  26.116  12.757   3.780
40395W        W12809  39.381  42.505   3.265
40396W        W12810  11.774  11.820  12.866
40397W        W12811  28.464   8.388   0.864
40398W        W12812  18.105  26.536  11.011
40399W        W12813   3.443  27.472  13.931
40400W        W12814  10.244  41.432   1.932
40401W        W12815  34.500  34.570  11.877
40402W        W12816   9.713  44.857   2.240
40403W        W12817  38.449  30.642  10.998
40404W        W12818  33.061   1.918   3.751
40405W        W12819  20.738  32.585   0.862
40406W        W12820  25.508  24.495  13.912
40407W        W12821  21.042  18.787  12.935
40408W        W12822   9.299  15.728  10.083
40409W        W12823  23.123  16.611  10.918
40410W        W12824  21.526  16.607  14.821
40411W        W12825  44.965   1.784  12.409
40412W        W12826  20.655  26.132   4.750
40413W        W12827  40.848   6.197   4.787
40414W        W12828  30.095  38.065   3.784
40415W        W12829  18.556  44.849  13.957
40416W        W12830  23.083  16.755  11.908
40417W        W12831   7.298  25.102  11.915
40418W        W12832   9.280  15.145   3.827
40419W        W12833  21.038  31.068   0.796
40420W        W12834  13.820  26.593  10.983
40421W        W12835  35.062  41.984  12.078
40422W        W12836  29.919  42.519  13.498
40423W        W12837   2.797  17.101   3.250
40424W        W12838  11.150   3.897   0.446
40425W        W12839  41.810  29.155   3.331
40426W        W12840  40.440  15.210  12.015
40427W        W12841   4.785  43.889  12.446
40428W        W12842  37.953  21.252   0.966
40429W        W12843  36.531  12.249   4.631
40430W        W12844  40.480  29.121  13.947
40431W        W12845  32.395  42.026   1.755
40432W        W12846  23.113  20.650  10.510
40433W        W12847  43.376  21.038   0.836
40434W        W12848  43.353  42.354   2.276
40435W        W12849  31.443   1.417   4.838
40436W        W12850  11.722   1.828  10.135
40437W        W12851   6.376   8.264   3.336
40438W        W12852  33.130  26.569  12.074
40439W        W12853  24.129  16.263   0.905
40440W        W12854  17.095  21.133   0.868
40441W        W12855  25.085   4.775   3.219
40442W        W12856  16.708  21.547  14.922
40443W        W12857  12.264  19.538   2.761
40444W        W12858  10.341  28.051  12.567
40445W        W12859  16.293  28.175  12.479
40446W        W12860  10.336  38.383  10.459
40447W        W12861  16.627  29.017   0.402
40448W        W12862  24.544  30.119   4.314
40449W        W12863  24.648  18.675  13.487
40450W        W12864  14.142   1.840   3.383
40451W        W12865  11.338  35.397   4.671
40452W        W12866  28.449   5.387   1.371
40453W        W12867  22.038  32.131  13.971
40454W        W12868   5.245  21.719  11.891
40455W        W12869  37.945   3.784   4.193
40456W        W12870  30.988  26.957  10.594
40457W        W12871  14.143  36.504   0.960
40458W        W12872  12.146  25.018   0.867
40459W        W12873   5.694  44.326   4.646
40460W        W12874  26.591   2.761  13.828
40461W        W12875   9.301  12.262  13.516
40462W        W12876  16.127  26.495   5.154
40463W        W12877  33.423   5.294   2.810
40464W        W12878   4.919   7.764   0.750
40465W        W12879   6.410  12.762  10.571
40466W        W12880  15.096   4.376  11.887
40467W        W12881  11.624  23.217   3.367
40468W        W12882  24.064  11.295  10.632
40469W        W12883  41.515  33.444   4.643
40470W        W12884  29.018   9.755  11.855
40471W        W12885  32.454  22.693  11.897
40472W        W12886  11.369  17.560   3.660
40473W        W12887  14.724  24.064  11.514
40474W        W12888   5.361  43.355  11.566
40475W        W12889  42.318  12.144   0.862
40476W        W12890  23.165  17.615  13.402
40477W        W12891  22.636  28.111  11.376
40478W        W12892  12.203  18.188  10.889
40479W        W12893  30.600   3.409  13.968
40480W        W12894  34.377  36.970   2.276
40481W        W12895  35.574  20.650  11.112
40482W        W12896   7.835   7.312  10.570
40483W        W12897  18.684  30.964  13.455
40484W        W12898  18.558   6.232  11.082
40485W        W12899  35.418  34.898   1.389
40486W        W12900  19.138   5.433  10.996
40487W        W12901   0.892   1.451   1.898
40488W        W12902   3.845   6.202  11.030
40489W        W12903   9.886  20.700  11.529
40490W        W12904  33.516  40.899  14.454
40491W        W12905  17.128  12.615  12.496
40492W        W12906  32.547   7.334  10.124
40493W        W12907  27.184  31.028   2.365
40494W        W12908   5.263  15.323   2.696
40495W        W12909  40.911  22.719   0.870
40496W        W12910   4.290  10.834   1.245
40497W        W12911  14.600  17.583   1.260
40498W        W12912   3.313  10.791   4.728
40499W        W12913  44.351  25.567  12.345
40500W        W12914   7.261   0.388   0.339
40501W        W12915   9.273   9.877   3.260
40502W        W12916  30.967  34.020  10.611
40503W        W12917  38.552  20.643  10.915
40504W        W12918  44.854   6.266   4.683
40505W        W12919  17.222  29.502  14.358
40506W        W12920  37.411   2.344  12.006
40507W        W12921  14.746  35.038   0.916
40508W        W12922  32.413  42.358  10.635
40509W        W12923  19.149   1.277   0.813
40510W        W12924  20.659  44.489   4.328
40511W        W12925  12.642  16.085   0.843
40512W        W12926  16.252  30.129  10.930
40513W        W12927  30.963  27.666   0.882
40514W        W12928  42.872  39.353   0.741
40515W        W12929  28.011  32.577  11.995
40516W        W12930  27.001  21.653  11.973
40517W        W12931  18.273  10.239   2.723
40518W        W12932  12.622  22.146  11.545
40519W        W12933  17.174  17.080  12.072
40520W        W12934  14.790  40.001  11.593
40521W        W12935  25.101  13.675   4.658
40522W        W12936  28.617  22.212  11.865
40523W        W12937  41.849  35.896   1.329
40524W        W12938  10.358  16.293  10.905
40525W        W12939  20.222  26.078   2.338
40526W        W12940  39.379  44.384  12.066
40527W        W12941  24.700   8.251   4.610
40528W        W12942  35.429  24.545   4.693
40529W        W12943   0.481  40.536  14.311
40530W        W12944   5.393  36.919   0.475
40531W        W12945  22.222  37.460  14.303
40532W        W12946  25.630  24.580  14.818
40533W        W12947  43.018  32.577   5.122
40534W        W12948  23.999  43.437   4.342
40535W        W12949   9.722  13.164   1.412
40536W        W12950   5.225  21.542  14.501
40537W        W12951  39.329  10.680  14.370
40538W        W12952  26.023   6.421   3.216
40539W        W12953  12.696  17.611   2.831
40540W        W12954  36.524  41.975  12.051
40541W        W12955  38.341  43.951   1.385
40542W        W12956  21.207  22.148   1.340
40543W        W12957   6.888  22.705   0.472
40544W        W12958  28.069  31.964   2.831
40545W        W12959   7.751   0.907   1.306
40546W        W12960  22.549  33.107  12.017
40547W        W12961  20.038  13.237  11.972
40548W        W12962  27.126  31.025  10.990
40549W        W12963  31.595  41.499   2.271
40550W        W12964   8.239  23.563   3.209
40551W        W12965  35.039  37.864   4.140
40552W        W12966   5.918  21.730   4.173
40553W        W12967  14.591   8.240  14.480
40554W        W12968  27.116  37.994  13.482
40555W        W12969  12.655  39.533  11.878
40556W        W12970   0.284  29.047   3.278
40557W        W12971  39.854   8.728  11.612
40558W        W12972  15.732   3.820  11.594
40559W        W12973  38.841  27.041   3.677
40560W        W12974  19.619  29.548  13.821
40561W        W12975   3.768   4.350  14.345
40562W        W12976  33.440  22.226  14.815
40563W        W12977   7.283   8.247   4.642
40564W        W12978  31.909  28.000   3.279
40565W        W12979   6.863  20.113  10.986
40566W        W12980  25.665  40.384   4.204
40567W        W12981  20.248   1.749  11.112
40568W        W12982  31.604  13.632  12.853
40569W        W12983  37.080  25.103   3.200
40570W        W12984  30.419  10.727  11.958
40571W        W12985  22.108  22.658   3.383
40572W        W12986   1.866  26.042  14.967
40573W        W12987  36.563  34.467   4.239
40574W        W12988  29.439  13.696  11.053
40575W        W12989  17.598  32.392  12.531
40576W        W12990  24.506  16.733  14.380
40577W        W12991  27.101   9.322  13.322
40578W        W12992  22.200  16.731   9.936
40579W        W12993   1.239  29.541  11.435
40580W        W12994   2.950  40.001   9.439
40581W        W12995   0.906  19.641  10.463
40582W        W12996  30.151  36.444   2.386
40583W        W12997  35.484  36.566  13.483
40584W        W12998   0.789  15.610   5.203
40585W        W12999  22.689  42.892   3.824
40586W        W13000  23.198   0.861  14.441
40587W        W13001  22.592  31.589   0.859
40588W        W13002  35.039  19.656   3.631
40589W        W13003  11.236  22.614   4.790
40590W        W13004  25.153  12.302  13.020
40591W        W13005  23.195   0.914  14.902
40592W        W13006  18.154  32.615  10.454
40593W        W13007  12.744  29.620  11.613
40594W        W13008   9.258  42.435   3.241
40595W        W13009  21.666  30.452  11.387
40596W        W13010   3.890  27.195   3.373
40597W        W13011  19.684  21.100   5.237
40598W        W13012   0.752  36.870  14.465
40599W        W13013  27.503  31.016   3.751
40600W        W13014  25.104  40.342  14.917
40601W        W13015   0.435  40.451  12.956
40602W        W13016   6.686  28.965   1.864
40603W        W13017  13.308  14.334  14.289
40604W        W13018  13.109  22.517   0.814
40605W        W13019   7.289  13.697   4.767
40606W        W13020   8.174  20.099   4.714
40607W        W13021  36.524  13.303  12.369
40608W        W13022  22.223  43.475   1.279
40609W        W13023  24.029   6.762   0.429
40610W        W13024   5.409  12.756  13.339
40611W        W13025  23.657  37.398   1.395
40612W        W13026  33.607  24.225   2.342
40613W        W13027  26.971  30.100   1.355
40614W        W13028  44.403  43.330   2.192
40615W        W13029  33.439  27.476   4.218
40616W        W13030  24.070  40.353   3.827
40617W        W13031   3.897  33.018  11.876
40618W        W13032  20.126  44.866  13.934
40619W        W13033   7.893   3.297  14.316
40620W        W13034   4.730  10.240   0.877
40621W        W13035   8.198  24.195  11.495
40622W        W13036  18.279  26.554  10.592
40623W        W13037   0.425  31.984   3.289
40624W        W13038  25.992  29.093   3.713
40625W        W13039  18.700  28.633   4.731
40626W        W13040  40.979   1.852   2.196
40627W        W13041  35.512  25.522   3.765
40628W        W13042  33.501  13.265  12.003
40629W        W13043   5.369  14.207   3.169
40630W        W13044  20.569  42.289   2.400
40631W        W13045  18.659  35.046  13.435
40632W        W13046  38.959  23.588  14.501
40633W        W13047  43.998  14.135  13.995
40634W        W13048   6.349   5.366   3.648
40635W        W13049   3.227   3.220   1.380
40636W        W13050  16.186  25.519   3.797
40637W        W13051  36.871  17.128  10.935
40638W        W13052  35.525  40.405  13.463
40639W        W13053   2.914  23.583   1.312
40640W        W13054  42.339  32.571  14.350
40641W        W13055  14.187   3.903   2.415
40642W        W13056  35.077  21.711   2.748
40643W        W13057  18.275  26.131   1.362
40644W        W13058  13.706   0.974  11.054
40645W        W13059  27.508  20.672   4.135
40646W        W13060  16.271   4.407   0.815
40647W        W13061  44.884  41.027  13.022
40648W        W13062  37.067  31.446   1.696
40649W        W13063   0.457  41.884  10.504
40650W        W13064  15.591  29.458  12.341
40651W        W13065  22.157  27.498  11.552
40652W        W13066  24.165  20.190   1.395
40653W        W13067  38.522  18.583   1.835
40654W        W13068  17.558  23.006  11.893
40655W        W13069   1.384  13.143  13.424
40656W        W13070  32.968  15.231   0.924
40657W        W13071   1.889  16.685  13.469
40658W        W13072   6.724  22.998   3.368
40659W        W13073  42.823  27.513  12.414
40660W        W13074  16.788  10.688  14.403
40661W        W13075  32.604  21.525   0.292
40662W        W13076  17.181  37.477  12.912
40663W        W13077  27.647  11.712   0.273
40664W        W13078  15.303   6.254  13.460
40665W        W13079   9.862  42.285  14.776
40666W        W13080  38.441  34.586   0.727
40667W        W13081  36.404  13.737  11.432
40668W        W13082  34.489  12.782  11.108
40669W        W13083  33.449  28.672   3.269
40670W        W13084  35.442  21.663   2.894
40671W        W13085  43.820  12.699  13.018
40672W        W13086  19.235  20.120  11.073
40673W        W13087  38.378  38.337   4.298
40674W        W13088  32.618  37.352  14.399
40675W        W13089   7.671   8.712   2.414
40676W        W13090  31.523  29.151   1.736
40677W        W13091  39.403  34.031  13.930
40678W        W13092  10.142   6.873   4.676
40679W        W13093  12.845  11.308   1.755
40680W        W13094  18.277  28.163  12.011
40681W        W13095  10.716  20.767   4.141
40682W        W13096  25.498  32.573  14.865
40683W        W13097   2.932   4.765  12.072
40684W        W13098   0.857  39.004   0.483
40685W        W13099   4.313   0.785   3.367
40686W        W13100  38.505  15.087   1.753
40687W        W13101  22.630  12.234   4.744
40688W        W13102  13.279   5.213   3.208
40689W        W13103   9.277  37.932   3.196
40690W        W13104  42.978  35.073   5.206
40691W        W13105  37.891  42.407  10.487
40692W        W13106   8.689   5.731   3.856
40693W        W13107  40.351  33.990  13.548
40694W        W13108  31.921  43.347   4.183
40695W        W13109   9.718   7.257  11.506
40696W        W13110  13.166  33.003  10.635
40697W        W13111  28.489   7.669   0.395
40698W        W13112   3.945  38.406   1.257
40699W        W13113  28.561   0.787  14.786
40700W        W13114  28.539  16.678  12.547
40701W        W13115  13.131  21.171  12.470
40702W        W13116   4.751  42.340  10.121
40703W        W13117  26.475  26.501  10.545
40704W        W13118  21.538  37.888  13.411
40705W        W13119  43.768   7.788   2.182
40706W        W13120  35.484   9.300   2.263
40707W        W13121  21.262  42.873  10.153
40708W        W13122  18.720  29.613  10.538
40709W        W13123  30.045  11.780   3.361
40710W        W13124  42.479  38.471  14.014
40711W        W13125  26.599  42.370   4.231
40712W        W13126  28.521  22.690   2.692
40713W        W13127  17.247  20.228   4.236
40714W        W13128  34.108  18.581  13.867
40715W        W13129  38.469   8.393  14.436
40716W        W13130  12.242  18.755   1.759
40717W        W13131   3.927  41.529  11.456
40718W        W13132  19.720  28.988  10.540
40719W        W13133  22.018  27.951  11.057
40720W        W13134  26.155  10.641  10.476
40721W        W13135  42.030  25.609  12.569
40722W        W13136   3.859  19.101  14.978
40723W        W13137  21.598  12.197  14.294
40724W        W13138  20.036  18.224   5.095
40725W        W13139  37.056  34.430   2.318
40726W        W13140  39.044   1.892   4.607
40727W        W13141  31.480  25.586  14.811
40728W        W13142  26.614   2.771  11.862
40729W        W13143  40.511  38.397   1.283
40730W        W13144   0.453  23.989   3.215
40731W        W13145  18.131  14.706   1.909
40732W        W13146  32.027  15.727  13.968
40733W        W13147  35.873  42.453   0.441
40734W        W13148   2.407  13.802   5.180
40735W        W13149   1.871  10.320  14.892
40736W        W13150   8.321  12.794  13.510
40737W        W13151   4.755  42.962  11.602
40738W        W13152   4.860   5.753  13.490
40739W        W13153  17.780  25.658  11.998
40740W        W13154  23.018  27.618  13.927
40741W        W13155  26.001   5.839   4.238
40742W        W13156   0.830  24.033  14.799
40743W        W13157  34.938  31.428  12.529
40744W        W13158  12.651  11.361   3.322
40745W        W13159   6.352   9.179   4.657
40746W        W13160  15.780   5.878  10.470
40747W        W13161   5.245  41.896   4.221
40748W        W13162  30.091   7.229  12.079
40749W        W13163  18.102  37.436   0.372
40750W        W13164  23.548   4.247  13.915
40751W        W13165  25.639  17.293  12.056
40752W        W13166   1.845  22.108   3.359
40753W        W13167  27.050  33.075  10.463
40754W        W13168  31.404  12.210   3.798
40755W        W13169  38.974  25.158   0.890
40756W        W13170  32.429   5.311   1.318
40757W        W13171  37.905  12.653   1.286
40758W        W13172   9.233  20.534  10.484
40759W        W13173  11.716  24.129   0.814
40760W        W13174  34.514  28.969   3.673
40761W        W13175  14.678   2.320  14.345
40762W        W13176  19.732  24.644   3.656
40763W        W13177  36.548  10.802  12.549
40764W        W13178  24.500  28.099   0.405
40765W        W13179  28.634  10.160   4.625
40766W        W13180  24.043  42.299   4.137
40767W        W13181  42.817  34.373  11.393
40768W        W13182   2.807   1.241  14.474
40769W        W13183  40.800  14.169  12.075
40770W        W13184  19.718  22.682   1.783
40771W        W13185  17.652  10.849   4.229
40772W        W13186  42.924  22.213   4.819
40773W        W13187   0.486  34.026   4.711
40774W        W13188  18.164  34.918  14.327
40775W        W13189  27.516  30.134  14.484
40776W        W13190  41.909  24.614   0.257
40777W        W13191  27.648  26.582   4.245
40778W        W13192  24.032  34.097  13.487
40779W        W13193  27.062  18.208  13.367
40780W        W13194  18.777  31.501  13.795
40781W        W13195  39.923   3.717   1.344
40782W        W13196   4.434  39.847   2.895
40783W        W13197  22.615   9.270   3.683
40784W        W13198   3.806  14.192   3.193
40785W        W13199  43.298  10.809   0.444
40786W        W13200  12.280  42.343  11.991
40787W        W13201  42.463  29.038   1.242
40788W        W13202  12.306   1.266   0.815
40789W        W13203  21.028  34.016  13.917
40790W        W13204   3.441  41.379  14.978
40791W        W13205   5.836   1.819   1.794
40792W        W13206  23.491   5.235   0.414
40793W        W13207  43.005  18.115   4.193
40794W        W13208  12.331  34.484   3.360
40795W        W13209  17.624  14.647   0.913
40796W        W13210  12.853  41.441   0.922
40797W        W13211  41.038  30.100   4.603
40798W        W13212  31.970  24.687   1.904
40799W        W13213  15.112  40.460  12.982
40800W        W13214  22.006  44.804   0.284
40801W        W13215  35.037  39.385  13.012
40802W        W13216  32.113  33.613  11.083
40803W        W13217   3.880   1.912  12.868
40804W        W13218  27.002  19.549  13.834
40805W        W13219  40.517  15.602   2.295
40806W        W13220  28.067  34.381  12.996
40807W        W13221   2.404  40.809   2.779
40808W        W13222  18.261  21.259  10.463
40809W        W13223  12.758  19.596   0.743
40810W        W13224  33.997  44.405  13.376
40811W        W13225  25.101  12.200  10.948
40812W        W13226  22.064  41.399  10.540
40813W        W13227  13.719  42.999  11.446
40814W        W13228  14.693   5.820  10.426
40815W        W13229  12.180  28.017   0.795
40816W        W13230  10.240  40.544  12.067
40817W        W13231  16.245   0.830   3.870
40818W        W13232  30.525  37.575  14.458
40819W        W13233  20.592  15.764   2.885
40820W        W13234  40.984  22.546  11.448
40821W        W13235   8.763  19.047  12.447
40822W        W13236   5.904  10.286  14.408
40823W        W13237  14.319   0.263  11.473
40824W        W13238  24.637  35.474   2.299
40825W        W13239   6.711   6.298   2.195
40826W        W13240  39.464   8.849   1.402
40827W        W13241  23.590   8.315  11.452
40828W        W13242  18.729  38.997   3.180
40829W        W13243  34.551   4.905  14.978
40830W        W13244   0.343  22.709  10.574
40831W        W13245  28.539  19.584   3.866
40832W        W13246  14.772   5.760  14.009
40833W        W13247  26.609  36.453   0.356
40834W        W13248   8.776  40.964  13.856
40835W        W13249  11.227  24.521  13.026
40836W        W13250  24.681  16.610   4.806
40837W        W13251  27.991  44.381   1.213
40838W        W13252  21.164  30.516  13.376
40839W        W13253  30.554  34.470   3.237
40840W        W13254  42.378  19.050  14.377
40841W        W13255  11.330   4.396  12.077
40842W        W13256  35.499  39.544  10.529
40843W        W13257   2.847  27.081   4.598
40844W        W13258  16.292  39.454  11.463
40845W        W13259  24.497  20.079   0.419
40846W        W13260  14.110   7.191  13.856
40847W        W13261  26.043  13.835   1.855
40848W        W13262   9.675  34.985   3.864
40849W        W13263   6.707  31.147  10.954
40850W        W13264  35.418  41.462  14.359
40851W        W13265  39.895  37.966   4.201
40852W        W13266  41.525  37.886  11.098
40853W        W13267  42.000   9.257  11.455
40854W        W13268  17.097  19.599  14.381
40855W        W13269  43.944   4.348  14.835
40856W        W13270  33.416   9.373   2.320
40857W        W13271  29.525  44.788  13.931
40858W        W13272  40.816  44.985  10.405
40859W        W13273   6.254  42.980   1.321
40860W        W13274  27.603  28.479  14.319
40861W        W13275  16.205  28.500   1.278
40862W        W13276  18.224  39.350   1.728
40863W        W13277  23.120  15.680   2.368
40864W        W13278  20.156  35.937   2.800
40865W        W13279  14.742  33.535  10.106
40866W        W13280  26.591  22.682   3.821
40867W        W13281  34.922  24.494   3.632
40868W        W13282  26.147  35.424   4.798
40869W        W13283   7.399  12.623  12.386
40870W        W13284  13.138  37.407   3.790
40871W        W13285  25.082   0.264   1.889
40872W        W13286  22.169  15.191  13.836
40873W        W13287  41.836  36.049   4.268
40874W        W13288   8.321  44.766  13.013
40875W        W13289  14.260  41.361  13.531
40876W        W13290   1.270  44.316   4.769
40877W        W13291  40.948  21.075  14.816
40878W        W13292  44.480  43.337   0.256
40879W        W13293  36.076  17.061   4.636
40880W        W13294  14.195  33.887   2.802
40881W        W13295   7.273  17.181   3.654
40882W        W13296  12.773  29.949   1.235
40883W        W13297  14.673  21.149  11.455
40884W        W13298  38.334  32.505   2.710
40885W        W13299  17.603  40.513  13.800
40886W        W13300  21.154   9.836  11.379
40887W        W13301  29.952  44.883  10.470
40888W        W13302  13.770  16.805  11.520
40889W        W13303  33.459  16.244   2.395
40890W        W13304  12.217  44.374   4.301
40891W        W13305  23.513  34.978   3.798
40892W        W13306  12.844  18.168   4.756
40893W        W13307  26.689  44.852  12.930
40894W        W13308  39.419  41.488   3.184
40895W        W13309  18.772  20.129   1.700
40896W        W13310  23.597   8.177  13.002
40897W        W13311  25.496  35.438   4.661
40898W        W13312  43.871  30.992  13.344
40899W        W13313   5.759  15.698  11.387
40900W        W13314   4.819   4.926  11.431
40901W        W13315  27.583  24.603   1.735
40902W        W13316  22.035  44.493  10.576
40903W        W13317   7.871  44.316  13.533
40904W        W13318  16.731  27.073   2.794
40905W        W13319  10.154  21.552  12.073
40906W        W13320   0.808  16.149  10.954
40907W        W13321   2.815  21.595  14.449
40908W        W13322   9.211   0.396   1.279
40909W        W13323  19.545   7.295   4.765
40910W        W13324  16.751  27.622  11.926
40911W        W13325  11.260   9.284  12.566
40912W        W13326   4.446  37.014   3.634
40913W        W13327  34.107   7.386   1.838
40914W        W13328  25.004  23.549   9.982
40915W        W13329  37.955   8.803  13.007
40916W        W13330  37.512  28.474   0.834
40917W        W13331   9.661  42.392   1.394
40918W        W13332  35.983   0.285  14.967
40919W        W13333   3.460  37.576   4.157
40920W        W13334  26.584  22.070   0.958
40921W        W13335  38.940  25.122   4.338
40922W        W13336  40.862  24.145  11.030
40923W        W13337  22.138  28.604  10.543
40924W        W13338  40.413  19.586  13.017
40925W        W13339  17.301  12.762   3.854
40926W        W13340  18.577  34.932  10.152
40927W        W13341  25.533  33.513  10.427
40928W        W13342   0.934  43.451  14.392
40929W        W13343  11.244  18.720   3.307
40930W        W13344  38.373  23.713  14.479
40931W        W13345  16.718  12.235   2.293
40932W        W13346  28.131  30.031   1.223
40933W        W13347  37.375  38.352  10.471
40934W        W13348  33.516  33.521  10.548
40935W        W13349  18.087  30.040  10.536
40936W        W13350  43.988  32.998  12.041
40937W        W13351  21.650  38.845  10.574
40938W        W13352  10.143   7.263   1.373
40939W        W13353  20.625  36.872   4.182
40940W        W13354  26.546  38.948  11.086
40941W        W13355  37.033  34.991   2.233
40942W        W13356   8.338  40.882   4.300
40943W        W13357  10.745  33.965   3.775
40944W        W13358  12.249   2.384   0.479
40945W        W13359   0.803  30.603   2.711
40946W        W13360  16.072   7.709   4.294
40947W        W13361   5.693  23.238   3.360
40948W        W13362  38.862  25.155  14.335
40949W        W13363   7.691  18.278   0.475
40950W        W13364  38.984  11.373  13.372
40951W        W13365  21.236  10.779  14.876
40952W        W13366  16.100  30.955  13.366
40953W        W13367   8.402  32.083   0.849
40954W        W13368   6.290  42.883  14.973
40955W        W13369  35.901  31.914  13.947
40956W        W13370  33.060  18.566  11.383
40957W        W13371  39.968  21.683  11.422
40958W        W13372  15.179  36.842  12.545
40959W        W13373  33.035  32.610  10.966
40960W        W13374  34.544   0.910   2.683
40961W        W13375  12.294  24.514  10.894
40962W        W13376   3.366   0.860  11.909
40963W        W13377  36.433  34.061   3.293
40964W        W13378  36.843  36.433   9.554
40965W        W13379  38.895  10.686   0.480
40966W        W13380  17.199  40.838  14.442
40967W        W13381  41.826  42.853   0.431
40968W        W13382  40.409  36.466  11.894
40969W        W13383  12.358  32.946  13.991
40970W        W13384  28.527  25.682   2.205
40971W        W13385  34.605  37.004   3.262
40972W        W13386   2.251  20.102   2.739
40973W        W13387  35.964   6.400  13.973
40974W        W13388  16.079   1.445   1.441
40975W        W13389  16.613  17.615   2.852
40976W        W13390  29.994  25.642  10.563
40977W        W13391  26.561  15.590   4.236
40978W        W13392  28.967   8.832   4.617
40979W        W13393   3.354  15.739  13.944
40980W        W13394   9.159  21.211   4.701
40981W        W13395  22.100  32.021  14.766
40982W        W13396  32.134  25.640   2.315
40983W        W13397  37.501  35.413   5.639
40984W        W13398  22.142   4.413  13.468
40985W        W13399   8.205  28.131   3.338
40986W        W13400   6.379  16.274   9.960
40987W        W13401  36.496  36.067  14.829
40988W        W13402  26.048  26.035   2.800
40989W        W13403  27.499  37.576   4.602
40990W        W13404  42.492  28.121  10.626
40991W        W13405   1.820  44.368  12.058
40992W        W13406   5.423  10.659  14.358
40993W        W13407  27.192   0.468   1.403
40994W        W13408  18.712  14.326   1.445
40995W        W13409  34.542  14.644  12.403
40996W        W13410  17.063  36.458   3.841
40997W        W13411   4.220  42.888  12.072
40998W        W13412   1.266  29.150  12.448
40999W        W13413  22.522  34.974  12.913
41000W        W13414   5.265  34.525   4.775
41001W        W13415  25.612  37.051  10.930
41002W        W13416  33.966  42.913  12.054
41003W        W13417  32.135  27.125   2.878
41004W        W13418  13.672   7.275   0.738
41005W        W13419  35.083  32.460  10.594
41006W        W13420  35.598  22.710  12.954
41007W        W13421   5.435   8.209   4.818
41008W        W13422  14.728  11.863   0.798
41009W        W13423  34.368  12.245   0.881
41010W        W13424  16.709  22.533  10.898
41011W        W13425  43.408   7.174   4.135
41012W        W13426  28.052   2.788  13.380
41013W        W13427  40.441  33.517   9.921
41014W        W13428  19.568  19.200  12.533
41015W        W13429   9.810   4.760   1.702
41016W        W13430  35.411  11.822  10.928
41017W        W13431  40.525  32.045   3.163
41018W        W13432   3.848   1.939   1.826
41019W        W13433  42.952  25.594  12.949
41020W        W13434  20.154  13.846   4.677
41021W        W13435  26.547   8.242  13.792
41022W        W13436  42.482  37.019   1.367
41023W        W13437   1.951   8.696  12.963
41024W        W13438  35.993  40.523  11.410
41025W        W13439  19.549   7.842  13.405
41026W        W13440  39.432   6.681  14.859
41027W        W13441  28.589  33.044  12.979
41028W        W13442  21.220  11.865  10.624
41029W        W13443  29.572   1.800  14.777
41030W        W13444  23.512  20.684  11.558
41031W        W13445  28.499  43.328  10.438
41032W        W13446  17.601  40.825  12.083
41033W        W13447   6.313  27.958   1.783
41034W        W13448   0.876   3.371  12.529
41035W        W13449  33.956  22.114  12.008
41036W        W13450  12.283  36.852  14.851
41037W        W13451  19.264  20.119   3.647
41038W        W13452  19.652  38.860  11.435
41039W        W13453   9.725  44.430  11.454
41040W        W13454  25.524  42.837   2.202
41041W        W13455  33.574   1.778  14.417
41042W        W13456  12.308  39.917   2.220
41043W        W13457  19.076  31.003   0.839
41044W        W13458  22.683  28.087  14.492
41045W        W13459  14.195  25.990   4.338
41046W        W13460  16.725   1.304  12.966
41047W        W13461  40.925  25.180   4.816
41048W        W13462  30.451  19.263  12.564
41049W        W13463  13.122  34.495  13.849
41050W        W13464  31.077  40.883  12.490
41051W        W13465  20.120   4.250  14.335
41052W        W13466   9.789  34.492   1.771
41053W        W13467   1.433  42.826  11.473
41054W        W13468  14.594  32.511  11.442
41055W        W13469  11.810  42.809   0.885
41056W        W13470   6.830   6.334  14.430
41057W        W13471  15.760  26.551  13.802
41058W        W13472  33.123  13.703  12.882
41059W        W13473  23.075  30.956   3.345
41060W        W13474  40.975  36.398  14.903
41061W        W13475  28.446   0.794   4.321
41062W        W13476  18.152  27.574  12.342
41063W        W13477   2.901  12.749  10.049
41064W        W13478   9.154  18.243   1.211
41065W        W13479  40.036  22.158   2.840
41066W        W13480  32.889   5.414   2.698
41067W        W13481  19.749   4.919   2.389
41068W        W13482  44.390  35.603  13.808
41069W        W13483  23.659  28.498   0.276
41070W        W13484  11.306   8.204   0.918
41071W        W13485   3.812  39.419   5.752
41072W        W13486  27.123  11.696   0.954
41073W        W13487  43.976  41.033  13.871
41074W        W13488  42.863  31.049   2.418
41075W        W13489   4.728   5.345  14.426
41076W        W13490  39.390  37.435   1.702
41077W        W13491   0.809  15.106   1.863
41078W        W13492  30.615   3.406  14.866
41079W        W13493  41.987  26.166   0.878
41080W        W13494   4.234  22.665   3.657
41081W        W13495   6.194  44.933   3.715
41082W        W13496  23.119   9.803  11.423
41083W        W13497  15.160  10.753  13.969
41084W        W13498  12.127   4.846   1.747
41085W        W13499  21.200  31.484   4.251
41086W        W13500  18.058  20.676  14.907
41087W        W13501  32.127  16.625  14.481
41088W        W13502   0.264  30.009   3.693
41089W        W13503  24.558  40.465  11.997
41090W        W13504  44.875  18.177  11.073
41091W        W13505  32.566  36.047  11.895
41092W        W13506  11.767  19.558   5.257
41093W        W13507  11.776  18.759   3.157
41094W        W13508  28.504  13.230   4.775
41095W        W13509  28.485  13.840  11.060
41096W        W13510  25.171   6.279   0.937
41097W        W13511  27.173   9.729  14.437
41098W        W13512  20.252  37.050   0.480
41099W        W13513  18.744  25.605  11.021
41100W        W13514  32.104  34.613  12.034
41101W        W13515  13.739  10.307  10.019
41102W        W13516   9.789  31.939   2.200
41103W        W13517  10.254  44.935  14.982
41104W        W13518  14.160  44.434   4.233
41105W        W13519  34.600  21.745   1.310
41106W        W13520  17.085  35.554   0.846
41107W        W13521  17.078  30.543   2.219
41108W        W13522  13.745  12.261  14.407
41109W        W13523  21.687  31.067  14.765
41110W        W13524  16.190  25.035   3.848
41111W        W13525  31.084  38.892  10.516
41112W        W13526  22.222  25.592  12.020
41113W        W13527  42.425  35.977  13.804
41114W        W13528  14.123  16.302  12.913
41115W        W13529   4.926  25.987  12.843
41116W        W13530  41.398  34.393  11.078
41117W        W13531   9.830  31.567  11.575
41118W        W13532   8.718  37.013   0.363
41119W        W13533   8.271   2.331   4.150
41120W        W13534  35.862   7.709   3.384
41121W        W13535  19.749   0.940   1.902
41122W        W13536  15.115  10.212   3.867
41123W        W13537  18.594   6.263   2.810
41124W        W13538   7.245  29.652  14.429
41125W        W13539  36.852  13.313   4.293
41126W        W13540   2.281  38.903   1.746
41127W        W13541  17.678  18.601   4.170
41128W        W13542  31.945  30.430  11.527
41129W        W13543  23.616   8.839  14.491
41130W        W13544  11.218   1.392  14.832
41131W        W13545  13.682  10.198  12.043
41132W        W13546  30.949   7.207  13.872
41133W        W13547  31.604   9.805  13.014
41134W        W13548  44.999  24.702   2.239
41135W        W13549  18.158  18.285  14.895
41136W        W13550  27.023  42.461   4.770
41137W        W13551  36.354   8.712  11.462
41138W        W13552  30.962  33.121  11.951
41139W        W13553  23.661  11.173  10.579
41140W        W13554  19.720  23.684   3.188
41141W        W13555  23.510  35.493   2.763
41142W        W13556  20.199  16.224   2.235
41143W        W13557  24.025   1.367  10.001
41144W        W13558  39.924  35.005   1.237
41145W        W13559  44.992   5.379  13.049
41146W        W13560  20.148  31.513  14.858
41147W        W13561  28.092  16.697   0.890
41148W        W13562  27.951  38.910   1.855
41149W        W13563   7.215  21.262   3.171
41150W        W13564  28.569   9.158  12.358
41151W        W13565  14.340  23.092   0.853
41152W        W13566  26.490   0.930  10.905
41153W        W13567  28.645  41.438   4.717
41154W        W13568  29.008  11.347  11.575
41155W        W13569  41.789  44.932   3.304
41156W        W13570   4.750  23.121   4.336
41157W        W13571  27.943  21.095  12.039
41158W        W13572  20.138  41.487  13.528
41159W        W13573  39.956  32.604  11.949
41160W        W13574  42.901  35.109   4.747
41161W        W13575  24.478  28.096   3.801
41162W        W13576   9.794  12.238   0.384
41163W        W13577  13.266  40.458  12.833
41164W        W13578  36.436  38.562   2.790
41165W        W13579  16.276  19.633  14.025
41166W        W13580  28.492   0.752  13.973
41167W        W13581  15.152   4.262   3.711
41168W        W13582  18.732  37.505   2.805
41169W        W13583   7.892  37.053   3.869
41170W        W13584  14.690  16.314  14.367
41171W        W13585  24.214  28.596   0.901
41172W        W13586   9.220  30.583  13.325
41173W        W13587   9.671  24.188  12.407
41174W        W13588  11.340   5.248   3.329
41175W        W13589  33.996  37.050  12.510
41176W        W13590   1.259  33.114   4.611
41177W        W13591  43.320  11.651  13.943
41178W        W13592  41.390  25.173  13.917
41179W        W13593   7.800  32.582   4.804
41180W        W13594  18.561  31.568  13.064
41181W        W13595  17.204  36.080  10.566
41182W        W13596  30.574   0.805   2.250
41183W        W13597  34.504  15.304   4.636
41184W        W13598  21.131  12.228   4.830
41185W        W13599  33.078  33.883  10.935
41186W        W13600  29.118  24.506  12.541
41187W        W13601   8.724   2.440   1.699
41188W        W13602  36.580   0.907  13.454
41189W        W13603   9.314  37.940   0.860
41190W        W13604   2.879  24.537  11.128
41191W        W13605   6.346  33.074  11.484
41192W        W13606  27.460  14.647   2.376
41193W        W13607  20.725  16.582   4.318
41194W        W13608  41.429  15.695  13.876
41195W        W13609   7.369  12.327  14.956
41196W        W13610  34.413  26.493   4.663
41197W        W13611   3.955  12.637  12.389
41198W        W13612  23.600  34.535  13.353
41199W        W13613  29.570  24.042  10.061
41200W        W13614   5.692  38.401   4.326
41201W        W13615  24.673  43.473  14.436
41202W        W13616  16.773  32.499  10.506
41203W        W13617  38.972  15.643  11.983
41204W        W13618  21.140   2.727   0.285
41205W        W13619  17.259   7.200   0.453
41206W        W13620  19.155  29.034   4.751
41207W        W13621  12.231  22.626   1.835
41208W        W13622  23.168  15.198   3.686
41209W        W13623  25.117   8.304   3.210
41210W        W13624  26.019   8.316  14.464
41211W        W13625  28.568  10.239   3.711
41212W        W13626  26.699  36.930  10.986
41213W        W13627  40.344  16.242  13.060
41214W        W13628  28.640  29.153  11.507
41215W        W13629  37.888  22.247  14.380
41216W        W13630  32.888  36.397   2.201
41217W        W13631  22.056   4.784   4.182
41218W        W13632  24.597  34.587   4.321
41219W        W13633  29.564  27.500   1.240
41220W        W13634  14.199  27.610  11.445
41221W        W13635  23.118  12.738   4.226
41222W        W13636   3.871  15.160  13.922
41223W        W13637  41.945  25.094   5.186
41224W        W13638   2.465   2.317   1.407
41225W        W13639  19.117   4.858   4.628
41226W        W13640  25.189  43.852  10.050
41227W        W13641   3.861  39.411  10.887
41228W        W13642  20.643  33.480   3.378
41229W        W13643   6.320  13.627   1.335
41230W        W13644  22.587  28.185   5.271
41231W        W13645  26.194  31.641   1.749
41232W        W13646  33.391  16.206  13.952
41233W        W13647   9.870  10.760  13.828
41234W        W13648  40.014   7.184  12.059
41235W        W13649  32.986  42.505  10.526
41236W        W13650  14.289   8.278  10.137
41237W        W13651  16.086  43.832  12.413
41238W        W13652  25.089  26.578  12.017
41239W        W13653   2.842  10.845  12.488
41240W        W13654  28.443  23.603   3.661
41241W        W13655  35.048   5.435   1.368
41242W        W13656  38.040  24.095   2.851
41243W        W13657  38.336   4.773   2.779
41244W        W13658  22.076   6.769   2.417
41245W        W13659  38.353   7.282   0.727
41246W        W13660   4.268  33.570   2.901
41247W        W13661   9.197  25.523  14.764
41248W        W13662  15.223  14.819   1.382
41249W        W13663  24.098  12.198   1.881
41250W        W13664   6.769  27.575  13.998
41251W        W13665  39.888  34.490  13.488
41252W        W13666   5.730  28.945   1.450
41253W        W13667  25.069  31.598  11.945
41254W        W13668  36.927   2.269  10.942
41255W        W13669  21.570  28.022   1.312
41256W        W13670  15.584  15.713   1.433
41257W        W13671   0.396   9.252   3.863
41258W        W13672  14.130   9.205  11.535
41259W        W13673   4.840  31.036   3.191
41260W        W13674  12.688  40.538  13.793
41261W        W13675   6.249  42.885   2.746
41262W        W13676  24.039  20.075  13.981
41263W        W13677  29.485  21.684  14.858
41264W        W13678  29.946  18.761   2.300
41265W        W13679  31.908  13.771   3.868
41266W        W13680  16.259  24.231  11.069
41267W        W13681  42.978  17.614   2.378
41268W        W13682  27.581   9.369  14.297
41269W        W13683  32.131   3.289   5.120
41270W        W13684  11.259   2.283   2.354
41271W        W13685  38.500  30.455   3.693
41272W        W13686  10.144  16.806   0.298
41273W        W13687  42.943  17.151   1.904
41274W        W13688  40.340  15.593   1.282
41275W        W13689  31.014  10.333   0.862
41276W        W13690  39.833  25.045   1.241
41277W        W13691   7.788  29.579   0.767
41278W        W13692  23.645  17.599   0.899
41279W        W13693  15.303  16.801   5.182
41280W        W13694   9.832   1.447   3.249
41281W        W13695  26.042  27.613   0.949
41282W        W13696   7.317  31.922   2.353
41283W        W13697   6.841  15.729  10.566
41284W        W13698  25.167   4.402   0.882
41285W        W13699  10.715  25.473   4.118
41286W        W13700  43.840   2.368   2.278
41287W        W13701  37.375  42.810  14.941
41288W        W13702  33.420  38.999   3.330
41289W        W13703  11.736  37.504   3.148
41290W        W13704   2.878  37.480   1.452
41291W        W13705   9.223  15.805   4.700
41292W        W13706  24.659  44.289   1.755
41293W        W13707  29.557  12.649  12.002
41294W        W13708  31.570  35.018   2.340
41295W        W13709   7.201  42.952   2.349
41296W        W13710  29.037   5.709   1.245
41297W        W13711  41.304   1.827   2.339
41298W        W13712  28.995   7.233   2.834
41299W        W13713  12.625  35.042  10.526
41300W        W13714   6.184   4.232   4.782
41301W        W13715  43.810   9.325   1.404
41302W        W13716  13.700  27.012  12.058
41303W        W13717   0.935  28.098   1.895
41304W        W13718  35.975  10.369  10.563
41305W        W13719  41.879  12.182   2.841
41306W        W13720  34.615   8.363   1.382
41307W        W13721  23.716  32.127  12.456
41308W        W13722  36.925   0.423  10.495
41309W        W13723  32.546   1.893   0.381
41310W        W13724  21.133   7.341  13.509
41311W        W13725  20.079  39.957  14.856
41312W        W13726  40.931   7.351   0.823
41313W        W13727  41.475  30.646   0.413
41314W        W13728  41.815  33.548  12.391
41315W        W13729  15.179  29.499  14.942
41316W        W13730   1.468  26.982   1.223
41317W        W13731  15.152  27.964  13.428
41318W        W13732  40.339  39.846  12.484
41319W        W13733  41.862  25.705  13.035
41320W        W13734  34.978  43.808   3.711
41321W        W13735   5.298   9.681   3.829
41322W        W13736  41.486   8.314   2.797
41323W        W13737  23.111  21.542  13.818
41324W        W13738  41.869  26.070   1.276
41325W        W13739  13.744  18.140   3.328
41326W        W13740  42.960  16.731   0.473
41327W        W13741  36.543  40.450   0.337
41328W        W13742   5.816  27.613  12.341
41329W        W13743   0.933   5.222  12.048
41330W        W13744  37.918  25.110   2.719
41331W        W13745  15.754  18.124   4.221
41332W        W13746  12.737  25.515   3.842
41333W        W13747  38.420  32.626   5.278
41334W        W13748  28.568  40.495  14.368
41335W        W13749  17.712  21.030   0.897
41336W        W13750  31.936  39.851   0.769
41337W        W13751  32.124  41.031   1.354
41338W        W13752  40.801   4.896   4.121
41339W        W13753  28.452   1.754   0.727
41340W        W13754   5.239  42.981  14.511
41341W        W13755   9.791  17.706  12.514
41342W        W13756  37.488  31.558  14.457
41343W        W13757  20.195   0.974  13.981
41344W        W13758  40.374  38.945   0.439
41345W        W13759  29.482  38.913   1.923
41346W        W13760  35.857  24.492  10.586
41347W        W13761  11.210  43.292   0.469
41348W        W13762  22.024   8.345  13.924
41349W        W13763  42.422  13.245   4.128
41350W        W13764  43.794  13.281  14.277
41351W        W13765  25.060  26.178   3.764
41352W        W13766  41.878  14.231  14.327
41353W        W13767  12.261  27.623  12.909
41354W        W13768  12.262  43.988  11.857
41355W        W13769  23.661  26.676  12.557
41356W        W13770  30.435  38.410   1.818
41357W        W13771  29.927  43.000   2.679
41358W        W13772  34.115  36.091  11.452
41359W        W13773  36.920  27.445   3.373
41360W        W13774   2.870   5.783  13.044
41361W        W13775  28.596  38.398  14.348
41362W        W13776  18.651  16.100  14.873
41363W        W13777  42.858  43.816  13.340
41364W        W13778   7.857   6.836  14.339
41365W        W13779  37.435   2.282  14.826
41366W        W13780  22.523  38.907  14.492
41367W        W13781  33.088   3.314   5.194
41368W        W13782   8.698  15.617   3.187
41369W        W13783   7.796   0.956   0.415
41370W        W13784  21.030  25.699   3.840
41371W        W13785  10.285  17.102  10.160
41372W        W13786  38.328  27.014   1.784
41373W        W13787  40.026  36.550   0.783
41374W        W13788  31.027   6.827   0.293
41375W        W13789  20.192  29.972  10.640
41376W        W13790   3.778  44.945  14.499
41377W        W13791  21.170  32.513  14.870
41378W        W13792   1.840  20.103   1.776
41379W        W13793   1.920   8.273   0.386
41380W        W13794  12.764  44.777   0.840
41381W        W13795  18.253  25.643  10.555
41382W        W13796  24.999  11.170  12.013
41383W        W13797  38.462   9.321  13.042
41384W        W13798  30.557  25.143   0.327
41385W        W13799  22.047   5.894   2.371
41386W        W13800  21.675  15.151  11.922
41387W        W13801  22.999  18.190   1.887
41388W        W13802  36.903   6.320   1.827
41389W        W13803  14.624  37.395  14.959
41390W        W13804  14.180  34.886   0.302
41391W        W13805  25.217  24.005  13.394
41392W        W13806  22.169   2.406  14.870
41393W        W13807  14.726  15.774  13.880
41394W        W13808  14.688  40.034   3.165
41395W        W13809  24.533  22.579   4.187
41396W        W13810   5.373   4.389  10.537
41397W        W13811  28.143  13.266  14.310
41398W        W13812  44.500  37.023  11.594
41399W        W13813  21.569  21.090  11.515
41400W        W13814  10.148  14.207  11.420
41401W        W13815   7.193  12.719   1.430
41402W        W13816  34.498  22.691   0.824
41403W        W13817  34.003  21.703  10.096
41404W        W13818   9.767  22.558  11.119
41405W        W13819  23.128  17.103   3.154
41406W        W13820  42.505  17.744  12.879
41407W        W13821  28.658  43.339  12.028
41408W        W13822  37.493  35.909  14.861
41409W        W13823  36.947  10.846   3.362
41410W        W13824   2.949  12.667   0.273
41411W        W13825  11.755  11.268  11.373
41412W        W13826  11.357  35.949   3.256
41413W        W13827  44.405  30.424   5.281
41414W        W13828  29.628   4.229   3.338
41415W        W13829  39.882  17.579   4.770
41416W        W13830  25.647  21.656   0.268
41417W        W13831  22.510  42.361  10.618
41418W        W13832   0.387   3.841   2.889
41419W        W13833  26.509   1.773  14.818
41420W        W13834   6.275   3.938   2.753
41421W        W13835  36.487  16.770   2.767
41422W        W13836  41.882  20.219   1.422
41423W        W13837   5.879  10.702  11.103
41424W        W13838  22.184   2.430   3.817
41425W        W13839  30.432  21.643  12.466
41426W        W13840  43.355  35.909  11.512
41427W        W13841  31.137  44.301   1.357
41428W        W13842  41.458   1.733   1.868
41429W        W13843  43.828   5.854   0.920
41430W        W13844  41.821   7.776  14.507
41431W        W13845  18.752  17.292   4.684
41432W        W13846  39.392   8.229  14.802
41433W        W13847  40.527  20.543  13.989
41434W        W13848   2.911  29.115   2.265
41435W        W13849  40.863  32.521  11.924
41436W        W13850  26.683   1.874   2.798
41437W        W13851  27.103  23.701   4.233
41438W        W13852   9.303  17.630   4.783
41439W        W13853  13.832  27.621  14.436
41440W        W13854  13.609  18.778  11.589
41441W        W13855   6.723  38.860  10.980
41442W        W13856  23.660  15.798  12.945
41443W        W13857  35.886  14.639  13.470
41444W        W13858  23.650  38.407  10.972
41445W        W13859  37.002  18.695   3.868
41446W        W13860  41.828  39.556  12.489
41447W        W13861   2.371  34.560  11.993
41448W        W13862  43.445   9.173   4.795
41449W        W13863  43.017   8.262   0.754
41450W        W13864   1.396  41.988   4.653
41451W        W13865  29.585  14.771   0.767
41452W        W13866  27.667   7.248  11.053
41453W        W13867   4.818   6.270  11.012
41454W        W13868  38.481  37.518   0.863
41455W        W13869  15.264  26.008  14.464
41456W        W13870  12.295   1.455  13.460
41457W        W13871  25.508  41.494   0.862
41458W        W13872  43.412  25.495   2.351
41459W        W13873  32.603   2.850   1.880
41460W        W13874  12.203  35.574   2.806
41461W        W13875  34.567   3.781   3.676
41462W        W13876  41.844   1.458  13.871
41463W        W13877  12.332  29.068   2.872
41464W        W13878  42.803  21.027  14.515
41465W        W13879  26.654  38.515   3.364
41466W        W13880  24.999  41.419  10.934
41467W        W13881  13.652  32.966   3.675
41468W        W13882  10.315  17.071   4.692
41469W        W13883   2.359  19.587  13.355
41470W        W13884  25.481  12.679   2.390
41471W        W13885  25.205   5.735   1.307
41472W        W13886  22.560  43.938  14.900
41473W        W13887  29.539  13.159   1.273
41474W        W13888   5.891  39.450  14.463
41475W        W13889  43.435   2.305   4.766
41476W        W13890  17.228  32.029  12.543
41477W        W13891  31.598  30.451  12.083
41478W        W13892  25.003  17.791  13.882
41479W        W13893   2.904  32.531   0.928
41480W        W13894   0.338  23.619   4.616
41481W        W13895   3.339  13.622   5.212
41482W        W13896   4.250  11.345   0.305
41483W        W13897  30.597  38.069   3.359
41484W        W13898  15.582  19.167  10.936
41485W        W13899  38.846  16.739   4.275
41486W        W13900   6.383  14.279  10.465
41487W        W13901  39.049  41.014   2.805
41488W        W13902  27.123   5.801  10.983
41489W        W13903  22.252   7.242   3.709
41490W        W13904  13.115   6.737   0.389
41491W        W13905  19.588  14.304   4.753
41492W        W13906  38.979  31.606   0.742
41493W        W13907  20.121  19.189  13.949
41494W        W13908  16.707  28.949   4.330
41495W        W13909  12.676   0.769   1.746
41496W        W13910  44.888  24.540   0.935
41497W        W13911  10.876  16.151   4.618
41498W        W13912  12.774  43.397  13.005
41499W        W13913  40.938  39.438  12.397
41500W        W13914  40.030   8.346  14.363
41501W        W13915   2.897   8.883   1.765
41502W        W13916  28.076  30.079   0.293
41503W        W13917  15.662  38.927  10.500
41504W        W13918  43.943  44.326  12.437
41505W        W13919  35.914  29.106  14.876
41506W        W13920  19.182  15.257   2.799
41507W        W13921  22.630  26.966   1.326
41508W        W13922   2.962   6.381   0.752
41509W        W13923   4.373  37.986   2.818
41510W        W13924  44.415  35.980  13.042
41511W        W13925  13.831  23.578  11.869
41512W        W13926  22.544  13.710  12.421
41513W        W13927   0.288  26.052  12.472
41514W        W13928  15.774  32.112  11.496
41515W        W13929   9.780   0.874  12.384
41516W        W13930  12.139   7.340   1.742
41517W        W13931  39.998  26.541   0.363
41518W        W13932  13.298  23.032   3.662
41519W        W13933  21.107  11.849   1.323
41520W        W13934  35.505  24.647   3.187
41521W        W13935  38.351   6.883   1.784
41522W        W13936  43.458   3.753   4.274
41523W        W13937  42.294  17.649   3.661
41524W        W13938  36.907  19.637  13.535
41525W        W13939   2.939  38.858   1.228
41526W        W13940  19.175   7.777  11.063
41527W        W13941   2.939  23.518   2.397
41528W        W13942  26.117  11.679   1.269
41529W        W13943  35.107  35.024  12.360
41530W        W13944  34.883  28.476   2.247
41531W        W13945   2.325  42.007   2.675
41532W        W13946  13.295  40.525   5.181
41533W        W13947  17.240  12.331   1.393
41534W        W13948  23.169  41.453  13.995
41535W        W13949  19.626  44.325   0.364
41536W        W13950  42.945  17.117   4.652
41537W        W13951  23.041  13.638   2.195
41538W        W13952  12.212  34.925  12.025
41539W        W13953  32.077   0.319   4.292
41540W        W13954  38.457  15.786  12.003
41541W        W13955   2.790  37.562  13.927
41542W        W13956  31.612   9.370   1.285
41543W        W13957  21.169  20.681  10.575
41544W        W13958  31.094  31.918   9.982
41545W        W13959   3.802  23.990  14.501
41546W        W13960  28.467  18.656   4.325
41547W        W13961  32.605  15.804  10.070
41548W        W13962   4.405  15.140  13.819
41549W        W13963  41.533  36.575   2.353
41550W        W13964  21.158   4.802  11.418
41551W        W13965  30.159  28.669  11.407
41552W        W13966  41.988   2.285  12.077
41553W        W13967  31.026  26.152   0.730
41554W        W13968  34.413  37.430   3.769
41555W        W13969  41.310  13.687   0.348
41556W        W13970  41.971  23.689   1.365
41557W        W13971  43.422  14.823  11.423
41558W        W13972  24.673  37.950   3.332
41559W        W13973  41.322  34.927  12.506
41560W        W13974  30.005  20.131   1.730
41561W        W13975  36.095  22.647   0.731
41562W        W13976   7.247  22.580   1.819
41563W        W13977   9.794  21.744  11.925
41564W        W13978  37.416  30.601  14.483
41565W        W13979  25.105  36.551   3.274
41566W        W13980  29.012   1.352   3.163
41567W        W13981  27.188  20.704  12.983
41568W        W13982  40.953  38.439  11.544
41569W        W13983  15.279  29.033   3.667
41570W        W13984  24.675  11.306   3.865
41571W        W13985  37.915  43.955  12.487
41572W        W13986  26.591   7.197   2.736
41573W        W13987  11.312  42.940  10.569
41574W        W13988  14.789   0.799   1.451
41575W        W13989  12.335   7.368  13.343
41576W        W13990  32.468  44.473   0.933
41577W        W13991  17.621  35.101   4.714
41578W        W13992   6.715  27.172  13.005
41579W        W13993   9.357  21.659   0.460
41580W        W13994   1.741  30.473   4.248
41581W        W13995  28.162  42.487  12.378
41582W        W13996  11.833  37.424   4.322
41583W        W13997  26.678   5.831  13.376
41584W        W13998  18.095  44.484  11.872
41585W        W13999  32.568   1.482   1.290
41586W        W14000   9.355   7.258   3.378
41587W        W14001   5.885  35.014   2.715
41588W        W14002  43.817  11.231  10.929
41589W        W14003  34.979   6.773   0.304
41590W        W14004  40.999  11.262   0.459
41591W        W14005   6.747  31.125   2.890
41592W        W14006  40.045  27.178  14.827
41593W        W14007  37.428  37.416  10.090
41594W        W14008  30.156  26.087  13.821
41595W        W14009   6.702  44.421   4.304
41596W        W14010   2.359  19.549   9.977
41597W        W14011  11.693   8.366  11.932
41598W        W14012  10.153  25.588  11.957
41599W        W14013  29.945  38.511   4.278
41600W        W14014  18.135  42.361  14.891
41601W        W14015  41.946  11.623  10.574
41602W        W14016   3.884   9.211   0.735
41603W        W14017  19.662   0.281   9.459
41604W        W14018  23.688   5.232   1.786
41605W        W14019  15.166   9.784  10.891
41606W        W14020  40.046  44.808   2.301
41607W        W14021   3.778  10.636  13.792
41608W        W14022  44.480  26.078   2.776
41609W        W14023  30.979   9.264  14.481
41610W        W14024  28.544  35.015   3.205
41611W        W14025  42.420  44.843  14.983
41612W        W14026  16.104   2.762  11.023
41613W        W14027  29.930  37.488   5.265
41614W        W14028  35.361  10.331  14.880
41615W        W14029  14.691  25.968  10.611
41616W        W14030  29.968   4.809   4.243
41617W        W14031  24.205  24.089  14.482
41618W        W14032   0.902  42.955   9.967
41619W        W14033  30.097  23.508   3.311
41620W        W14034  41.832   4.211  14.326
41621W        W14035  26.204  42.517   2.368
41622W        W14036  29.475  28.665   1.268
41623W        W14037   7.860   4.258  11.486
41624W        W14038  33.925  39.551  11.124
41625W        W14039  18.788  19.642  10.159
41626W        W14040  15.705  31.622   3.202
41627W        W14041  18.756  21.130   3.650
41628W        W14042  26.688  27.964   3.729
41629W        W14043  34.438  20.228  10.492
41630W        W14044  22.658   6.206   3.274
41631W        W14045  21.203  16.606  14.371
41632W        W14046  25.650  16.566  14.886
41633W        W14047  13.291  43.505   1.747
41634W        W14048  41.381  34.963  11.509
41635W        W14049  10.691  26.139   1.889
41636W        W14050  14.742  24.486   4.619
41637W        W14051  13.176   3.738  11.120
41638W        W14052  44.753  35.367  12.365
41639W        W14053  28.498   9.692   2.873
41640W        W14054  17.672  34.914   2.730
41641W        W14055  26.194  22.537   0.283
41642W        W14056   8.250  43.465  11.964
41643W        W14057   8.664  22.182  11.071
41644W        W14058  41.951  29.429  13.011
41645W        W14059  33.614  37.839  13.535
41646W        W14060  30.100  21.118  12.034
41647W        W14061   5.801  23.557   2.232
41648W        W14062  29.653  23.494  11.543
41649W        W14063  35.872  42.361   2.721
41650W        W14064  19.129  37.034  11.938
41651W        W14065  29.598  41.365  11.889
41652W        W14066  40.506  41.981  10.435
41653W        W14067   9.384  37.882  14.771
41654W        W14068  27.174  38.462   3.649
41655W        W14069  42.508  42.922   0.877
41656W        W14070  23.616  39.438   4.203
41657W        W14071  23.059  34.063   4.670
41658W        W14072  12.254  13.235  10.511
41659W        W14073  32.107   7.853   2.287
41660W        W14074   5.710  44.908   1.811
41661W        W14075  16.108  23.016  12.471
41662W        W14076  14.225  24.142  13.468
41663W        W14077  22.527  11.841   5.253
41664W        W14078  38.518  12.166   4.242
41665W        W14079  32.919  22.664   0.341
41666W        W14080  14.147  33.061  12.355
41667W        W14081  23.027  27.692   3.308
41668W        W14082  37.850  22.553  10.911
41669W        W14083  20.032  32.013  12.428
41670W        W14084  44.775  38.550   4.304
41671W        W14085  27.604  14.624  13.424
41672W        W14086   7.887  14.726  14.403
41673W        W14087  12.140  10.192   3.308
41674W        W14088   3.289  15.293   3.334
41675W        W14089   7.744   1.350   4.602
41676W        W14090  28.111  17.266  11.069
41677W        W14091   5.877  27.494   3.724
41678W        W14092  28.605  20.588   0.417
41679W        W14093  24.566  23.227   1.356
41680W        W14094  24.514  35.062  13.428
41681W        W14095   0.929  44.278  14.801
41682W        W14096  28.127  43.939   0.944
41683W        W14097  35.976   5.263  13.515
41684W        W14098  37.411  13.669  12.920
41685W        W14099  41.849  23.994   4.812
41686W        W14100   1.748  12.772   3.841
41687W        W14101  32.480  30.424  13.537
41688W        W14102  25.603  37.831  12.038
41689W        W14103  38.527  16.122   1.438
41690W        W14104  37.908  19.058  11.027
41691W        W14105  32.126  42.473   4.331
41692W        W14106   0.946  11.801  12.992
41693W        W14107  29.470   4.898  14.302
41694W        W14108  11.328  40.381  14.984
41695W        W14109   3.785  24.983  10.541
41696W        W14110  42.361  38.040  13.515
41697W        W14111  10.633  33.049  14.386
41698W        W14112  14.293  37.923   0.368
41699W        W14113  13.326   5.324   3.781
41700W        W14114  21.256  28.531   0.842
41701W        W14115  33.081  27.986   4.626
41702W        W14116  21.568  11.774  14.830
41703W        W14117  12.796  16.699   4.625
41704W        W14118  23.688  10.328  14.302
41705W        W14119   4.845  40.993  10.475
41706W        W14120  31.627  14.772   3.331
41707W        W14121  30.133  29.443  12.500
41708W        W14122  38.034  34.447   3.382
41709W        W14123  29.452   3.399   0.841
41710W        W14124  12.849  29.502   0.242
41711W        W14125  26.595  24.674   3.220
41712W        W14126  13.747  26.590   9.976
41713W        W14127   0.909  41.806   2.693
41714W        W14128  28.028   7.697  11.558
41715W        W14129  41.987  40.817   1.365
41716W        W14130  19.640   0.428  11.894
41717W        W14131  17.801  29.945  10.529
41718W        W14132  40.018   1.774   1.442
41719W        W14133  33.069  27.599  10.622
41720W        W14134  15.162  29.941   4.644
41721W        W14135  14.632  27.572  11.048
41722W        W14136  28.058  39.463  12.029
41723W        W14137  10.842   4.744  14.928
41724W        W14138  31.491   5.832   0.483
41725W        W14139  43.306   2.762  10.488
41726W        W14140   6.717  24.559  14.508
41727W        W14141   0.478  42.477   0.472
41728W        W14142  43.948   7.247   2.201
41729W        W14143  20.212  10.817   4.296
41730W        W14144  31.109  43.342  12.361
41731W        W14145  28.039   9.735  13.927
41732W        W14146  25.138  39.901  13.853
41733W        W14147  41.848  12.165  14.013
41734W        W14148  21.748  29.933  14.417
41735W        W14149  16.232  39.020  11.925
41736W        W14150   2.250  26.136  13.973
41737W        W14151   0.377  32.558  10.995
41738W        W14152   6.193  30.052  10.598
41739W        W14153   5.366  15.326   4.228
41740W        W14154  31.040  36.456  13.403
41741W        W14155  43.842  21.082   3.281
41742W        W14156  25.203  36.010   1.906
41743W        W14157  23.108  30.554   0.943
41744W        W14158  41.960  42.883   9.992
41745W        W14159   1.299  11.633  11.062
41746W        W14160  31.474   4.717  13.873
41747W        W14161  42.506  41.342  10.566
41748W        W14162  15.715   6.346   4.769
41749W        W14163  16.203  40.899  11.028
41750W        W14164  12.286   9.300  12.550
41751W        W14165  30.520  33.567   2.238
41752W        W14166   1.352  34.080  12.889
41753W        W14167  31.992  39.391   2.808
41754W        W14168   7.724  39.447   0.931
41755W        W14169   7.196   6.194   0.434
41756W        W14170  18.554   9.252  14.429
41757W        W14171  44.846  13.754  14.820
41758W        W14172  29.667  39.345   1.315
41759W        W14173   8.893   0.370   3.224
41760W        W14174  44.467  44.760  14.891
41761W        W14175  26.134  10.228  12.401
41762W        W14176  13.302  23.033  14.313
41763W        W14177  12.854   9.366   2.825
41764W        W14178  17.588  12.293  12.091
41765W        W14179  42.983  14.822   2.337
41766W        W14180  34.088   4.812   2.403
41767W        W14181  10.183   8.671   4.720
41768W        W14182   8.403  18.585   1.259
41769W        W14183   9.364   1.776   0.482
41770W        W14184  40.393  40.802  13.442
41771W        W14185  16.093  40.985  13.501
41772W        W14186  37.518  42.328   1.314
41773W        W14187   6.272   0.989  14.931
41774W        W14188  40.380  27.500  12.975
41775W        W14189  25.016  12.142  12.063
41776W        W14190  29.068  44.282  12.391
41777W        W14191  37.919   9.180   3.722
41778W        W14192  21.138   3.846  10.628
41779W        W14193  27.127  13.332  11.376
41780W        W14194   6.852  29.983  14.020
41781W        W14195   3.855  12.651   4.214
41782W        W14196   4.822  27.013   2.230
41783W        W14197  38.452  34.099  12.829
41784W        W14198  41.479  31.144   2.391
41785W        W14199  19.627  30.416  14.822
41786W        W14200  17.583  40.355   4.137
41787W        W14201  40.993  30.623   0.272
41788W        W14202  23.628  38.951   4.743
41789W        W14203  10.764  33.541  10.509
41790W        W14204  21.647  41.428   2.830
41791W        W14205  38.922  44.910  12.393
41792W        W14206  44.385   5.372  10.951
41793W        W14207  13.338  23.527   3.283
41794W        W14208  11.323  21.672   1.710
41795W        W14209  32.933   4.746   0.734
41796W        W14210   8.727  28.474   3.804
41797W        W14211  25.696  36.860  10.404
41798W        W14212  30.451  12.616   1.232
41799W        W14213   7.174  25.704   4.788
41800W        W14214  16.796   0.356  12.965
41801W        W14215   7.732  14.233  10.423
41802W        W14216   9.315  18.687  14.805
41803W        W14217  16.163   9.378  14.993
41804W        W14218  33.471  29.040   5.270
41805W        W14219   4.759  31.941   3.647
41806W        W14220  33.581  21.578   4.331
41807W        W14221  43.936  27.590   3.203
41808W        W14222  42.500  35.573   0.360
41809W        W14223  30.142  24.485  13.025
41810W        W14224  18.070  23.515   0.727
41811W        W14225  23.622  21.236  12.541
41812W        W14226   3.869  38.452   1.894
41813W        W14227  13.734  42.284   0.333
41814W        W14228  10.266  43.817   1.913
41815W        W14229  40.540   7.354  11.497
41816W        W14230   1.447  41.973  14.855
41817W        W14231   6.229  40.534   0.307
41818W        W14232  28.665  34.952   1.378
41819W        W14233  12.266  16.652  10.457
41820W        W14234  31.622  21.116   4.330
41821W        W14235  26.206  44.394  11.053
41822W        W14236   0.954  20.743  11.986
41823W        W14237   3.894  32.588  13.821
41824W        W14238  25.706   8.675   0.855
41825W        W14239  16.803  18.289   3.248
41826W        W14240  21.686  36.003   5.177
41827W        W14241   0.852  10.868  12.367
41828W        W14242  41.983   0.831   4.312
41829W        W14243  34.556  18.079   1.239
41830W        W14244  17.066   1.776   5.119
41831W        W14245   3.894  44.769  11.483
41832W        W14246  15.817  44.316  11.919
41833W        W14247  32.621  36.907   0.420
41834W        W14248   9.754  27.554   1.257
41835W        W14249  34.986  16.200  13.856
41836W        W14250  34.611  22.726  14.431
41837W        W14251  37.539  14.679   2.866
41838W        W14252  13.744  43.469  12.548
41839W        W14253   9.743  11.811  14.475
41840W        W14254  32.937  10.695  12.484
41841W        W14255  25.200  30.980   2.185
41842W        W14256   5.902  39.019   4.689
41843W        W14257   9.763   8.787   0.895
41844W        W14258  16.657  28.665  10.414
41845W        W14259   3.914   5.306   4.755
41846W        W14260  41.455  44.955   0.320
41847W        W14261  15.798  21.079   4.664
41848W        W14262  13.250   3.814  10.414
41849W        W14263   3.851  16.185  10.953
41850W        W14264   6.424  41.526  12.480
41851W        W14265  24.516   4.244   3.634
41852W        W14266   4.721  40.409   4.741
41853W        W14267  43.831  36.553  13.487
41854W        W14268  27.691  11.623   1.250
41855W        W14269  17.714  34.529  10.948
41856W        W14270  35.590  20.163   0.355
41857W        W14271  27.672  21.207   3.813
41858W        W14272  39.956  39.913  14.768
41859W        W14273  11.688  35.450  14.282
41860W        W14274  16.134   5.267  12.053
41861W        W14275  15.794   4.286   2.812
41862W        W14276  31.527  22.143  12.409
41863W        W14277  10.676   1.397  14.313
41864W        W14278  24.053   7.779   0.746
41865W        W14279   5.703   5.734  11.406
41866W        W14280   1.760  37.009  14.391
41867W        W14281   1.785   2.954  13.444
41868W        W14282   9.277   2.407   0.862
41869W        W14283  28.587  15.153   0.958
41870W        W14284  19.705   3.790  13.491
41871W        W14285   8.286  24.209  10.997
41872W        W14286  12.804  15.733   3.148
41873W        W14287   7.773  28.996   9.925
41874W        W14288  18.238  34.098   1.768
41875W        W14289   6.384  21.215   4.152
41876W        W14290  21.553   5.249  10.485
41877W        W14291   8.287  44.889   3.216
41878W        W14292  12.134  41.862  12.519
41879W        W14293  44.814  36.365  11.897
41880W        W14294  31.902  29.085  13.007
41881W        W14295   7.707  43.765   3.827
41882W        W14296  43.898   9.689   2.324
41883W        W14297  17.118  44.423   1.362
41884W        W14298  39.982  30.510   4.249
41885W        W14299   4.868  11.693   2.903
41886W        W14300   7.221  38.885   3.207
41887W        W14301  18.189   9.351   0.873
41888W        W14302  40.820  40.895   2.255
41889W        W14303  25.143   1.833   4.712
41890W        W14304  38.465   8.203  13.883
41891W        W14305   3.880   8.887  13.910
41892W        W14306  34.899  34.566   4.649
41893W        W14307  23.019  21.261   1.929
41894W        W14308  29.127  19.594  10.414
41895W        W14309  38.875  40.442  10.561
41896W        W14310  16.167  34.075   2.394
41897W        W14311  42.821  30.519  10.513
41898W        W14312  12.163   9.324  14.966
41899W        W14313  34.410  35.361  11.526
41900W        W14314  11.780   9.314  11.461
41901W        W14315  19.677   2.462   4.155
41902W        W14316  44.903  34.882   2.863
41903W        W14317  10.697  37.549   1.701
41904W        W14318  35.473  28.083   4.326
41905W        W14319  33.036   8.275  13.335
41906W        W14320  23.650  16.732  11.997
41907W        W14321   4.334  23.629  11.403
41908W        W14322   5.296   1.421   3.653
41909W        W14323  20.536  16.303  10.410
41910W        W14324  18.186  24.496   2.223
41911W        W14325  17.249  16.655   1.422
41912W        W14326  29.646  21.067  13.389
41913W        W14327  39.859  25.549  13.911
41914W        W14328  40.451   4.268   1.350
41915W        W14329  37.539  10.669  11.022
41916W        W14330  27.478  42.798  13.881
41917W        W14331  42.960  33.543  12.351
41918W        W14332   5.785  41.985   3.766
41919W        W14333  12.822  25.621   4.752
41920W        W14334  24.064  41.351  13.339
41921W        W14335  11.703  44.393  10.537
41922W        W14336   8.391  23.709  12.511
41923W        W14337  22.108   8.391  10.964
41924W        W14338  23.713   7.365  10.598
41925W        W14339   5.915   2.271  13.843
41926W        W14340  23.512  21.193   3.243
41927W        W14341  14.304  30.985  11.379
41928W        W14342  15.165  42.480   2.209
41929W        W14343  38.887  34.580   2.895
41930W        W14344  16.613  26.576  13.919
41931W        W14345  26.540  21.199   4.680
41932W        W14346  31.909   0.274  11.042
41933W        W14347  43.297  42.283   1.801
41934W        W14348  11.682  20.609   0.826
41935W        W14349  23.519  19.167  14.974
41936W        W14350  31.609   2.821   4.351
41937W        W14351  33.907  24.721   0.307
41938W        W14352  34.513  29.435   1.350
41939W        W14353  27.982  12.181   0.291
41940W        W14354   5.420  34.874  13.899
41941W        W14355  25.186  15.329   4.631
41942W        W14356  22.007   9.173  13.837
41943W        W14357  39.918  29.432   0.425
41944W        W14358  26.016  38.964  10.606
41945W        W14359  13.223  35.364   2.722
41946W        W14360  31.923  12.826  10.981
41947W        W14361  17.749  28.062   4.814
41948W        W14362  43.367  19.131  12.991
41949W        W14363  19.098   4.726   3.338
41950W        W14364  33.096  44.415  12.075
41951W        W14365  27.586   6.857  11.891
41952W        W14366  36.472  16.235   0.826
41953W        W14367  26.542   7.671  11.452
41954W        W14368  14.714  35.536  11.578
41955W        W14369   7.869  13.762   3.347
41956W        W14370  27.538  13.753   0.833
41957W        W14371  23.061  26.667  14.843
41958W        W14372   3.222  14.696   1.255
41959W        W14373   9.816  25.503   1.728
41960W        W14374  13.623  28.092  13.976
41961W        W14375   8.748  41.988  11.995
41962W        W14376  29.600  31.922   3.344
41963W        W14377  21.072  38.011  12.410
41964W        W14378  39.005  13.188   1.440
41965W        W14379  29.986  19.040  11.551
41966W        W14380   9.310  13.783  14.980
41967W        W14381  37.886  32.459  12.068
41968W        W14382  15.112  15.180  14.283
41969W        W14383   9.163  33.891   4.271
41970W        W14384  40.474  43.780   4.685
41971W        W14385   3.712  29.928   3.676
41972W        W14386   9.761  40.314   4.796
41973W        W14387  20.706  19.132   4.613
41974W        W14388  20.255  39.501   3.825
41975W        W14389  43.371  30.020  11.391
41976W        W14390   9.252  39.499  14.980
41977W        W14391  10.186  34.591  13.986
41978W        W14392  35.076  34.016   4.772
41979W        W14393  14.194  10.356  12.034
41980W        W14394   8.266   9.168  10.438
41981W        W14395  38.494  28.482   1.761
41982W        W14396   7.812  23.052   2.684
41983W        W14397  34.572  11.679  14.335
41984W        W14398   3.366  38.463   3.735
41985W        W14399  24.681  24.722  13.988
41986W        W14400  42.327   9.376   0.372
41987W        W14401  43.776  12.642  10.998
41988W        W14402  18.191  24.496  12.373
41989W        W14403  42.918  12.349  13.313
41990W        W14404  38.010  20.169  14.356
41991W        W14405  21.125   5.305   3.739
41992W        W14406  20.259  18.653   0.750
41993W        W14407  41.820  23.724   4.213
41994W        W14408  37.989   9.296   0.463
41995W        W14409  23.043  25.135   3.270
41996W        W14410   3.836   1.820   4.746
41997W        W14411   4.359  36.546  13.803
41998W        W14412   6.423  42.014   2.694
41999W        W14413   8.697   3.455   2.779
42000W        W14414  41.374  44.968   2.223
42001W        W14415  31.992  44.472  12.365
42002W        W14416  10.639  32.968   4.620
42003W        W14417  17.076   3.444  14.488
42004W        W14418  27.474  44.280  13.462
42005W        W14419   9.200  43.007   0.332
42006W        W14420  22.671  10.194  12.440
42007W        W14421  22.210  22.544  11.552
42008W        W14422  14.191  11.261  10.534
42009W        W14423   4.766   6.783  13.007
42010W        W14424  28.670   7.414  14.003
42011W        W14425  40.469  35.852   0.367
42012W        W14426  18.625   0.773   0.872
42013W        W14427  40.416  34.961  14.966
42014W        W14428  11.734  38.508  12.385
42015W        W14429   5.308   7.290  11.501
42016W        W14430   0.909  42.850  14.384
42017W        W14431   4.377  40.385  12.349
42018W        W14432  37.571  18.695  13.359
42019W        W14433  16.283  30.486   0.750
42020W        W14434   7.764  21.178   2.892
42021W        W14435  14.601   5.721   4.277
42022W        W14436   6.414  32.521  14.274
42023W        W14437  27.117  20.584  12.048
42024W        W14438  36.861  22.104  11.982
42025W        W14439  25.022  21.220   1.911
42026W        W14440   4.820  32.900   4.817
42027W        W14441  16.566  19.222   3.204
42028W        W14442  35.944  41.008  14.884
42029W        W14443  32.617  26.082  10.928
42030W        W14444  36.545  38.436  10.536
42031W        W14445   3.768  42.798   5.249
42032W        W14446   0.855  42.299  14.854
42033W        W14447   9.875  30.986   2.721
42034W        W14448   8.229   1.794   2.344
42035W        W14449   9.325  20.163   2.206
42036W        W14450   7.805   0.389  14.387
42037W        W14451  35.556  26.660   1.773
42038W        W14452  27.012  34.097  12.997
42039W        W14453   4.265  37.037   1.378
42040W        W14454  43.768  27.965  11.001
42041W        W14455  42.371  40.318   2.713
42042W        W14456  16.111  23.623   1.860
42043W        W14457   3.765   4.441  11.944
42044W        W14458  35.370  20.114   4.687
42045W        W14459   3.902  20.223  13.540
42046W        W14460   3.879  25.065   3.854
42047W        W14461   4.813  43.379  10.425
42048W        W14462  10.290  30.493   4.797
42049W        W14463  36.999  22.702  12.844
42050W        W14464   1.318  17.076  12.422
42051W        W14465   4.722  31.468  10.438
42052W        W14466  19.088  19.140  10.417
42053W        W14467  40.941  26.585  11.028
42054W        W14468  34.395  11.848   3.756
42055W        W14469  11.229  31.988   2.380
42056W        W14470  25.623  25.581  10.566
42057W        W14471   6.841   2.268  12.916
42058W        W14472  24.016  43.958   0.287
42059W        W14473   2.411  44.378   2.310
42060W        W14474  44.472  13.642  12.973
42061W        W14475   3.865  10.682   4.805
42062W        W14476  15.128  22.026   1.349
42063W        W14477  37.509  20.075   2.890
42064W        W14478  16.727  13.215   2.304
42065W        W14479  14.172  16.811   3.160
42066W        W14480  41.016   1.293  11.587
42067W        W14481  37.085  34.423  13.409
42068W        W14482   8.345  43.954   0.947
42069W        W14483  13.169  14.122   2.754
42070W        W14484   4.402  24.099  14.983
42071W        W14485  26.595  22.594  10.995
42072W        W14486  37.982  43.375   3.209
42073W        W14487  35.043  37.395   4.605
42074W        W14488  29.130  27.002   1.435
42075W        W14489  18.569  42.472   1.843
42076W        W14490  32.938  31.934   3.288
42077W        W14491  16.800  42.996   3.159
42078W        W14492   9.802  33.388   4.634
42079W        W14493   8.310   8.261   0.379
42080W        W14494  15.583  16.809  10.602
42081W        W14495  13.297  44.276  12.999
42082W        W14496  27.522  12.671  14.485
42083W        W14497  34.439   4.794  10.942
42084W        W14498  30.128  18.187   3.727
42085W        W14499   6.813  37.060  14.444
42086W        W14500   5.327  17.260   1.311
42087W        W14501  36.920  22.519   4.671
42088W        W14502  14.665  16.318  13.502
42089W        W14503  30.158  34.083   0.419
42090W        W14504   2.898   8.378   1.824
42091W        W14505  11.703  19.099  12.847
42092W        W14506  37.979   1.878  10.054
42093W        W14507   1.335  31.534  12.868
42094W        W14508   6.816  41.295   0.285
42095W        W14509  15.814  10.296  12.985
42096W        W14510  15.323  31.559   1.849
42097W        W14511  37.561   3.234  13.051
42098W        W14512   0.489  29.435  12.894
42099W        W14513   6.251  27.663   0.747
42100W        W14514  41.811   3.300  12.377
42101W        W14515  25.679   4.761   1.385
42102W        W14516  37.554  15.715   1.440
42103W        W14517   4.707  33.896  12.895
42104W        W14518  38.973  38.509   1.793
42105W        W14519  24.643   2.909   4.341
42106W        W14520  44.912   0.461  10.577
42107W        W14521  14.664  13.753   4.750
42108W        W14522  32.540   9.388   4.237
42109W        W14523  22.671   6.303  11.520
42110W        W14524   7.201  33.567   0.393
42111W        W14525  39.382  43.296   2.708
42112W        W14526  17.625  14.797   3.737
42113W        W14527  30.119  15.620   3.794
42114W        W14528  17.571  10.652   0.883
42115W        W14529   6.418   0.850  13.009
42116W        W14530  15.763   2.877  13.465
42117W        W14531  11.148   0.903   0.386
42118W        W14532   9.881  25.043  12.903
42119W        W14533  42.294  39.339   4.650
42120W        W14534   5.806  34.417  14.830
42121W        W14535  31.033  33.387  11.991
42122W        W14536  13.303  44.306  12.031
42123W        W14537  44.412  38.425  11.587
42124W        W14538  40.803  20.633  11.413
42125W        W14539  36.591  21.075  11.967
42126W        W14540   9.223   6.279   2.713
42127W        W14541  18.695  38.987  13.878
42128W        W14542  25.041  23.130  14.295
42129W        W14543  22.652   2.794  11.384
42130W        W14544  27.191  34.555   0.781
42131W        W14545  12.616  36.061  10.633
42132W        W14546  44.873  15.328  11.945
42133W        W14547  14.681  40.528   0.728
42134W        W14548  43.971   2.454   4.241
42135W        W14549  12.297  25.509   3.339
42136W        W14550  14.136  34.591  12.965
42137W        W14551  23.730  22.043   1.325
42138W        W14552  34.089   6.293  10.548
42139W        W14553   4.359  42.451   2.378
42140W        W14554  11.681   5.870   3.751
42141W        W14555  18.174   3.783   2.877
42142W        W14556  24.563  44.402  10.094
42143W        W14557   4.402   8.246   4.618
42144W        W14558  20.168  23.733  11.933
42145W        W14559  21.180  41.846  11.092
42146W        W14560  25.674  16.073   9.618
42147W        W14561  40.029  18.096   3.863
42148W        W14562  24.649  36.584   2.746
42149W        W14563  18.108  26.700   4.726
42150W        W14564  12.337  27.057   1.849
42151W        W14565  16.620  15.589   3.848
42152W        W14566  43.769  19.190  14.348
42153W        W14567   3.407  36.980   0.757
42154W        W14568  31.994   1.390   3.373
42155W        W14569  20.185  26.131  13.037
42156W        W14570  12.303  18.128  11.875
42157W        W14571  25.703  10.162  11.967
42158W        W14572  41.387  16.310  13.929
42159W        W14573  12.301  43.904  12.344
42160W        W14574   0.818  14.683   1.737
42161W        W14575   7.196  35.592   3.763
42162W        W14576  29.065  38.393   4.310
42163W        W14577  23.734  29.581   0.317
42164W        W14578  38.881   5.329  10.908
42165W        W14579  28.934  10.211  13.796
42166W        W14580   4.426  29.509   0.776
42167W        W14581  14.691  18.179  14.477
42168W        W14582  12.786  39.998  14.912
42169W        W14583   0.881   5.903   0.306
42170W        W14584  26.508   1.870   1.726
42171W        W14585  16.774  42.316  11.578
42172W        W14586  11.258   5.280  14.367
42173W        W14587  39.831  43.816  13.967
42174W        W14588  13.229  17.162  12.492
42175W        W14589  25.649   6.348   2.292
42176W        W14590  30.612  17.281   4.254
42177W        W14591  41.359  14.148  14.376
42178W        W14592   0.781  12.636  11.553
42179W        W14593  16.242  10.356  13.900
42180W        W14594  19.191   1.905  12.838
42181W        W14595  42.416  20.593   4.709
42182W        W14596  28.006  44.865  13.804
42183W        W14597  32.483  27.617  12.511
42184W        W14598  12.769  24.627   2.255
42185W        W14599   8.248  10.148  10.560
42186W        W14600  11.835   2.830  13.498
42187W        W14601  28.944  25.112   2.179
42188W        W14602   5.888  23.210  11.047
42189W        W14603  10.785  14.185  13.912
42190W        W14604  23.710  34.554   3.686
42191W        W14605  28.505  23.720   0.288
42192W        W14606   0.250  18.565  10.900
42193W        W14607  16.156  13.267  11.498
42194W        W14608  21.700   4.393   3.813
42195W        W14609  37.853  44.401   2.267
42196W        W14610   1.451  28.176   2.859
42197W        W14611  16.633  32.989  12.002
42198W        W14612  21.689  10.748   4.339
42199W        W14613   8.221  36.433  11.400
42200W        W14614  25.007  25.122   3.641
42201W        W14615  15.095  31.924  10.609
42202W        W14616  10.192   4.324  13.393
42203W        W14617   1.272  38.055   4.628
42204W        W14618  38.981   6.774  11.556
42205W        W14619  13.218  15.673   2.863
42206W        W14620  10.704  44.422  13.355
42207W        W14621  40.996  43.005   2.890
42208W        W14622  35.558   2.842   4.270
42209W        W14623  44.457  21.201   0.350
42210W        W14624   6.743  36.919   2.807
42211W        W14625  20.199  20.680  10.917
42212W        W14626  26.078   2.469   3.850
42213W        W14627   8.824  37.560  13.958
42214W        W14628  20.196   2.722   4.762
42215W        W14629   4.753   0.314   2.291
42216W        W14630  13.229   4.763  14.410
42217W        W14631  16.575  18.757  12.401
42218W        W14632  40.499  24.688  13.502
42219W        W14633  26.630  31.431  10.433
42220W        W14634  16.194  43.304   3.236
42221W        W14635  41.480  11.828  11.585
42222W        W14636   8.339  10.822  14.784
42223W        W14637  24.550   9.850   1.411
42224W        W14638  15.089  19.171  10.489
42225W        W14639  11.835  33.964  13.494
42226W        W14640  25.074  42.330  11.018
42227W        W14641  12.240  11.803  11.909
42228W        W14642  30.463  26.029   0.871
42229W        W14643  39.425   2.962   3.272
42230W        W14644  37.861  11.648  14.293
42231W        W14645  14.125  29.065   4.703
42232W        W14646  33.947  36.472  14.860
42233W        W14647  33.071  38.025  13.536
42234W        W14648  43.466  21.541   1.399
42235W        W14649  14.194  26.646   4.300
42236W        W14650  11.171  32.071   1.246
42237W        W14651  24.571   6.357  10.584
42238W        W14652  38.976  27.497  11.982
42239W        W14653   9.255  17.751   0.900
42240W        W14654  42.431  10.827   1.362
42241W        W14655  43.328  37.967   4.603
42242W        W14656  29.546  23.179   1.918
42243W        W14657  27.466  36.887   4.278
42244W        W14658  31.494   8.204   0.298
42245W        W14659  11.367  15.689   0.767
42246W        W14660  34.518  38.527   4.742
42247W        W14661  25.656   1.843   3.849
42248W        W14662  36.487  32.046   3.631
42249W        W14663  33.415  23.991  14.825
42250W        W14664  19.777   4.825  14.466
42251W        W14665  24.082  17.650   3.282
42252W        W14666  31.909   8.842  14.343
42253W        W14667  13.835  11.211  11.952
42254W        W14668  12.310  24.111  14.359
42255W        W14669  36.388   3.377  14.835
42256W        W14670   0.747  31.440  10.556
42257W        W14671   9.846   7.678   4.760
42258W        W14672  11.756  44.343   0.806
42259W        W14673   2.783  37.493  12.871
42260W        W14674  26.957  25.485   2.892
42261W        W14675  20.128  18.104   4.174
42262W        W14676   4.788  14.728  12.968
42263W        W14677  13.754   6.900  11.915
42264W        W14678  42.921  40.982  14.274
42265W        W14679  27.180  22.214   0.861
42266W        W14680  17.670  25.059   0.256
42267W        W14681  36.575  28.072   4.657
42268W        W14682  31.004  18.078  14.773
42269W        W14683  28.078  13.112   0.285
42270W        W14684  34.476   3.374  13.825
42271W        W14685  18.081  17.148   0.459
42272W        W14686  21.135  42.366   0.967
42273W        W14687  21.543  42.883   0.814
42274W        W14688  30.080  19.675  11.470
42275W        W14689  12.840  19.164   2.839
42276W        W14690  24.004  26.099  13.897
42277W        W14691  16.685  44.993  14.820
42278W        W14692  42.366  12.121   3.155
42279W        W14693  22.716  18.098   2.729
42280W        W14694   5.248  21.578   4.644
42281W        W14695  20.247   3.905  12.864
42282W        W14696  14.184  25.640   3.811
42283W        W14697   8.778  13.809   1.834
42284W        W14698   7.264  44.898  11.580
42285W        W14699  31.532  26.553  14.960
42286W        W14700  44.391  14.685   1.371
42287W        W14701  39.511  21.030   4.830
42288W        W14702  21.077  11.702  12.489
42289W        W14703  38.954  11.270  12.979
42290W        W14704  39.927  14.155   4.696
42291W        W14705   9.190  30.536  13.003
42292W        W14706  10.648   9.813   3.721
42293W        W14707   6.408   5.211  13.794
42294W        W14708  27.612   5.321  14.450
42295W        W14709  28.503  14.776   2.313
42296W        W14710  24.990  18.568   4.292
42297W        W14711   8.812  14.723   1.902
42298W        W14712   0.384  30.143  13.921
42299W        W14713  19.736  21.198  12.459
42300W        W14714  31.531  30.484  11.533
42301W        W14715  21.706  35.912   0.941
42302W        W14716  26.021  28.114  11.419
42303W        W14717  43.884  33.409   4.652
42304W        W14718  43.803  34.896  11.560
42305W        W14719  39.031   8.721  10.444
42306W        W14720  23.712  37.505   3.333
42307W        W14721  22.114  28.554  14.382
42308W        W14722   9.338  30.441   0.825
42309W        W14723  41.506   5.909  14.394
42310W        W14724  13.230  29.078   9.998
42311W        W14725  42.780  20.060   3.694
42312W        W14726  38.997  14.649   4.805
42313W        W14727  41.335  40.003  12.413
42314W        W14728  24.982  42.374  12.544
42315W        W14729   0.247  42.894  10.988
42316W        W14730  15.815  41.852   2.380
42317W        W14731   7.246  27.183   0.829
42318W        W14732  29.560  21.522   0.363
42319W        W14733   6.321  38.441   1.229
42320W        W14734  29.943  35.952   0.402
42321W        W14735  30.452  11.268  13.508
42322W        W14736   6.858  14.121   0.430
42323W        W14737  17.211  23.050  14.846
42324W        W14738  14.121  29.152   1.840
42325W        W14739  31.052   3.771   3.719
42326W        W14740  33.006   0.896  14.474
42327W        W14741  30.556   6.241  14.918
42328W        W14742  24.137  37.541   0.965
42329W        W14743  21.632  39.016   3.865
42330W        W14744  10.757  40.983   4.325
42331W        W14745  21.192  11.269  12.484
42332W        W14746  43.972  43.394   0.419
42333W        W14747  34.389  40.355   0.733
42334W        W14748  28.662  31.481   4.175
42335W        W14749  12.740  38.040  14.881
42336W        W14750  43.979  14.734   0.424
42337W        W14751  44.995  44.918  12.916
42338W        W14752  17.261  40.975   0.472
42339W        W14753  31.078   9.235  11.466
42340W        W14754  30.950  21.139  13.465
42341W        W14755  11.313  39.965  12.573
42342W        W14756  18.773  17.150   0.805
42343W        W14757  18.733  23.678   1.430
42344W        W14758  43.823  32.957   2.313
42345W        W14759  27.503  12.760   4.710
42346W        W14760  16.162  21.611  13.048
42347W        W14761  17.733  20.164   2.260
42348W        W14762  33.606  16.566  13.029
42349W        W14763  27.684   2.237  13.027
42350W        W14764  22.511   4.253   3.740
42351W        W14765  31.534  35.064  12.483
42352W        W14766  11.640  17.118   0.417
42353W        W14767   1.333  10.246   0.303
42354W        W14768  31.928  26.123  14.762
42355W        W14769   3.293   7.836  11.104
42356W        W14770  40.518  24.116   4.822
42357W        W14771  21.739  26.006  13.344
42358W        W14772  15.257  38.982  14.807
42359W        W14773  42.883  27.588  12.957
42360W        W14774  35.947   3.763   5.221
42361W        W14775  28.161  27.604   2.257
42362W        W14776  38.963  43.407  13.797
42363W        W14777  27.448   5.827   4.768
42364W        W14778  18.152  26.079  14.323
42365W        W14779  29.919  27.591   4.733
42366W        W14780  17.112  17.575  13.373
42367W        W14781  38.876  24.160   1.319
42368W        W14782  32.596  33.084  12.079
42369W        W14783   8.782  14.737   0.447
42370W        W14784  22.655  23.018   2.297
42371W        W14785  14.797  25.485  14.450
42372W        W14786  24.685   8.797   1.803
42373W        W14787  44.791  12.240   3.258
42374W        W14788  43.922  17.575   1.390
42375W        W14789  17.625  24.058  11.495
42376W        W14790  32.459   8.350   4.278
42377W        W14791  42.953  21.130  11.458
42378W        W14792  40.491  25.656  12.097
42379W        W14793  42.382   3.296   5.274
42380W        W14794  17.169   7.694  10.991
42381W        W14795  42.950  14.781  13.448
42382W        W14796   4.280  15.172   4.330
42383W        W14797  20.119  27.947   2.285
42384W        W14798  15.205   8.826   3.212
42385W        W14799  15.314  41.816   3.839
42386W        W14800  32.100  40.384   2.327
42387W        W14801   6.774  13.803  14.276
42388W        W14802   3.343  25.687   1.253
42389W        W14803  37.978  36.368   4.605
42390W        W14804  44.345  34.998  14.469
42391W        W14805  26.179  30.620   2.367
42392W        W14806   6.874  16.091   1.894
42393W        W14807  20.675  13.200  13.043
42394W        W14808  28.058  36.894   4.321
42395W        W14809  16.578  10.350   1.240
42396W        W14810   6.874   5.807  11.023
42397W        W14811  13.787   6.359   2.412
42398W        W14812  27.664   7.693   3.171
42399W        W14813  43.278  29.504   3.793
42400W        W14814  13.256  37.428   2.229
42401W        W14815   5.769  31.039   3.738
42402W        W14816  39.817   9.265   3.151
42403W        W14817  14.165  33.050  10.521
42404W        W14818   9.248  16.286   1.862
42405W        W14819  28.047  43.387   2.783
42406W        W14820  44.975  15.260   0.423
42407W        W14821  29.517  13.741  12.566
42408W        W14822  21.168  21.056  12.341
42409W        W14823  41.324  41.956   0.858
42410W        W14824  17.686  22.592   1.739
42411W        W14825  15.788  13.627   4.293
42412W        W14826   1.915  13.608   1.246
42413W        W14827  28.524  10.721   3.666
42414W        W14828  44.498  15.299   3.675
42415W        W14829   2.395  20.201  12.415
42416W        W14830  29.019  25.530  14.292
42417W        W14831  34.565  29.119   4.174
42418W        W14832  23.563  35.601  12.939
42419W        W14833  21.735  17.206  13.940
42420W        W14834   6.403  41.853  14.935
42421W        W14835   8.263  39.869   3.320
42422W        W14836  19.761   4.346   2.693
42423W        W14837  17.716  26.689  13.904
42424W        W14838   8.405  41.435  14.325
42425W        W14839  44.437   9.174   2.886
42426W        W14840  20.047  18.112  11.418
42427W        W14841   1.812  38.849  10.950
42428W        W14842  42.354  38.449  12.847
42429W        W14843  37.519  37.894   1.282
42430W        W14844  12.346   8.382   2.403
42431W        W14845  15.733   3.277   3.347
42432W        W14846  17.770   9.207   4.813
42433W        W14847  38.888  28.110   1.419
42434W        W14848  24.588  35.433  13.370
42435W        W14849  29.969  33.495  10.537
42436W        W14850   1.758   9.351   2.819
42437W        W14851  24.156  29.436   1.740
42438W        W14852  32.029  35.867  11.529
42439W        W14853   8.750  33.938  12.508
42440W        W14854  31.514  20.188  10.409
42441W        W14855  28.136   1.380   2.770
42442W        W14856  19.222  35.433  12.490
42443W        W14857  28.620  40.044  12.551
42444W        W14858  13.614  20.207   3.207
42445W        W14859  22.114  29.100  14.026
42446W        W14860  42.458  35.077  12.052
42447W        W14861   9.377  22.502  14.442
42448W        W14862  16.239   3.734   0.464
42449W        W14863  16.288  40.870   1.768
42450W        W14864   1.828  40.880  14.907
42451W        W14865   0.849  32.420  12.089
42452W        W14866  15.163  21.601  11.476
42453W        W14867   9.199  18.248   2.820
42454W        W14868  29.554   3.420  13.928
42455W        W14869  10.294  44.782  13.351
42456W        W14870   6.416  22.520  12.901
42457W        W14871  21.715   3.249   4.674
42458W        W14872  38.521  37.554  12.825
42459W        W14873   6.409  15.114  14.866
42460W        W14874  26.184  12.751   0.445
42461W        W14875  42.941  40.403   3.705
42462W        W14876   2.346  13.752   1.230
42463W        W14877  26.634   8.392   1.895
42464W        W14878   4.296   1.277   2.193
42465W        W14879  13.682  41.920   2.226
42466W        W14880  43.890  11.129   2.372
42467W        W14881   8.882   1.816  11.983
42468W        W14882  15.096  22.620   3.243
42469W        W14883  14.714  27.521  11.410
42470W        W14884  23.508   0.493  12.385
42471W        W14885  30.038  15.583   2.241
42472W        W14886   2.360  10.193  13.997
42473W        W14887  44.862  12.626  10.507
42474W        W14888   4.359  29.479   2.816
42475W        W14889   3.814  24.217   3.345
42476W        W14890  14.285   3.299   1.760
42477W        W14891  38.518   5.795   2.668
42478W        W14892  29.033  24.162  13.388
42479W        W14893  23.175  28.520   4.762
42480W        W14894   1.339  42.319   4.265
42481W        W14895  14.276  16.283   1.756
42482W        W14896  32.449   4.362  13.530
42483W        W14897  32.421   3.902  11.404
42484W        W14898  21.584  37.425  13.543
42485W        W14899  40.003  43.346  12.544
42486W        W14900  12.714  13.824  12.465
42487W        W14901  11.345   5.272  14.900
42488W        W14902  17.271  23.132   0.953
42489W        W14903  34.473  29.982  13.446
42490W        W14904  36.547  17.165   1.871
42491W        W14905  39.439   3.805  12.524
42492W        W14906  20.662  12.302  14.916
42493W        W14907  30.013  32.916  11.570
42494W        W14908   0.955  38.354  11.079
42495W        W14909   6.247   8.879   9.944
42496W        W14910  20.763   6.227   4.254
42497W        W14911   6.740  36.863  13.385
42498W        W14912  20.645  14.143   1.713
42499W        W14913  20.751  35.052  14.332
42500W        W14914  43.400  22.040  12.542
42501W        W14915   4.401  17.278   1.285
42502W        W14916  39.439  15.134  14.498
42503W        W14917   1.779  27.474   2.788
42504W        W14918  42.831  24.654  10.997
42505W        W14919  20.669  38.549  11.091
42506W        W14920  37.050   1.239  10.992
42507W        W14921  43.341  30.158  14.475
42508W        W14922  42.875   7.754  13.062
42509W        W14923   9.319  20.091   1.719
42510W        W14924  23.057  13.168  12.415
42511W        W14925  25.571  26.555  11.486
42512W        W14926  14.609  22.576  11.971
42513W        W14927  24.193  22.706   1.213
42514W        W14928  14.628  22.068   3.173
42515W        W14929  21.560   4.875   1.347
42516W        W14930  19.146  27.181  10.621
42517W        W14931   2.405  32.980   4.122
42518W        W14932  17.724  24.513  11.098
42519W        W14933  24.208  23.558   0.427
42520W        W14934  17.223  10.781  11.964
42521W        W14935  21.216  15.187   1.847
42522W        W14936  41.404   5.395  11.915
42523W        W14937  39.560  25.986  10.574
42524W        W14938  42.492  32.083  11.516
42525W        W14939  36.866  35.897   3.230
42526W        W14940  13.227  31.972  12.474
42527W        W14941  41.869  14.118   0.389
42528W        W14942  25.019  42.947  10.636
42529W        W14943  16.808  35.399   4.736
42530W        W14944  32.428  31.597  12.555
42531W        W14945  11.271   6.870  11.877
42532W        W14946  26.064  38.849   4.124
42533W        W14947  20.594  22.191  10.569
42534W        W14948  16.220  19.680   2.363
42535W        W14949   7.210  36.412   3.742
42536W        W14950  33.946  24.061  12.044
42537W        W14951  36.517  25.169  13.440
42538W        W14952  39.530  34.408  13.827
42539W        W14953  21.201  16.748   3.197
42540W        W14954   8.397  30.949  11.399
42541W        W14955  23.986  10.253  11.084
42542W        W14956  31.636  18.693  11.967
42543W        W14957   8.868  42.956  14.319
42544W        W14958  27.666   5.423  10.482
42545W        W14959  27.632   5.760   2.311
42546W        W14960  36.526   4.380   0.439
42547W        W14961  39.936  10.784  13.529
42548W        W14962   6.246  12.296   2.859
42549W        W14963   4.449  26.019  13.025
42550W        W14964  10.208  34.491   2.378
42551W        W14965  42.372   6.294   1.829
42552W        W14966  26.535  25.010   3.164
42553W        W14967  15.235   7.840  10.474
42554W        W14968  32.467   5.857  11.494
42555W        W14969  25.589  33.408  10.124
42556W        W14970  28.445  24.718   0.939
42557W        W14971  34.964  25.611   2.899
42558W        W14972  33.469  30.656   5.263
42559W        W14973  44.323  31.519   3.687
42560W        W14974  33.936  34.429  11.989
42561W        W14975   8.309  27.495   1.317
42562W        W14976  39.821  23.715   1.303
42563W        W14977  27.566  32.951   4.796
42564W        W14978  11.262  13.844  14.286
42565W        W14979  40.477   6.349   5.303
42566W        W14980  13.211  19.239   3.357
42567W        W14981  10.262  21.107  10.412
42568W        W14982   3.892  41.966   3.359
42569W        W14983  35.977   7.895  12.883
42570W        W14984  39.346  25.175  12.091
42571W        W14985  38.918  33.465  13.804
42572W        W14986  34.520  36.896   1.268
42573W        W14987   3.422  14.708  12.558
42574W        W14988  22.067  43.494  10.622
42575W        W14989  41.827   2.749   3.816
42576W        W14990  12.138  13.731  10.461
42577W        W14991  40.525   4.265   3.334
42578W        W14992  18.082  19.110   2.831
42579W        W14993  37.388  42.314  13.375
42580W        W14994  42.459  44.421  13.358
42581W        W14995  15.195   4.238   4.822
42582W        W14996  26.063  29.620   3.341
42583W        W14997  44.776  42.952  14.906
42584W        W14998  43.473  29.488   4.253
42585W        W14999  34.550  43.504  10.412
42586W        W15000  39.859  39.354   0.829
42587W        W15001  27.593  23.226  10.568
42588W        W15002  41.966  15.282   2.288
42589W        W15003   0.849  42.299  13.532
42590W        W15004  13.145  13.784   3.781
42591W        W15005   2.788   0.415  11.486
42592W        W15006   8.655  10.292  11.531
42593W        W15007  20.096  40.992  13.906
42594W        W15008  23.099  34.565   1.292
42595W        W15009  22.214  22.595   4.280
42596W        W15010  21.038  12.257  11.514
42597W        W15011  13.117  27.458   2.231
42598W        W15012  19.117  26.178   3.667
42599W        W15013  26.119  31.051   4.667
42600W        W15014  43.882  35.396  11.470
42601W        W15015  22.550  35.020  13.489
42602W        W15016  26.456   7.348  10.951
42603W        W15017  11.261  43.360   3.741
42604W        W15018  21.236   6.871  12.503
42605W        W15019   6.724  23.214   0.890
42606W        W15020  13.240   1.331   4.743
42607W        W15021  17.568   5.200  10.505
42608W        W15022   8.269  11.778  12.094
42609W        W15023   2.333  15.245   3.850
42610W        W15024   8.360  32.004  12.940
42611W        W15025  33.592  21.069   1.741
42612W        W15026  43.489   8.307   2.779
42613W        W15027  17.640   6.419  10.005
42614W        W15028   5.265  40.950   0.400
42615W        W15029  24.583  15.607   2.262
42616W        W15030  40.033  39.896   4.280
42617W        W15031  30.029  39.360   4.280
42618W        W15032  35.411  22.634   4.810
42619W        W15033  37.553   0.308  13.046
42620W        W15034   4.717   0.398  11.994
42621W        W15035  19.771  44.900  12.451
42622W        W15036  25.198  18.239  10.619
42623W        W15037  43.310   8.731   3.770
42624W        W15038   8.736  24.555   1.242
42625W        W15039  36.880  19.662   1.699
42626W        W15040  20.719  13.197  11.601
42627W        W15041  37.923   6.383   4.124
42628W        W15042  40.425  44.407   5.269
42629W        W15043  21.642   7.344  14.369
42630W        W15044  33.086  35.049   0.756
42631W        W15045  24.208   0.978   9.583
42632W        W15046  15.627   0.350  10.443
42633W        W15047  31.907  13.744  11.529
42634W        W15048   3.315   8.658   0.324
42635W        W15049  19.157  31.933   3.145
42636W        W15050   6.188  18.208   2.804
42637W        W15051   7.184  41.344  10.998
42638W        W15052   8.170  27.587  12.576
42639W        W15053  28.496   0.392  11.114
42640W        W15054  31.014  29.084   0.746
42641W        W15055  25.712  10.309  14.365
42642W        W15056  34.031  15.729  14.367
42643W        W15057  21.255  44.004   1.832
42644W        W15058  37.352  11.709   0.290
42645W        W15059  40.956  15.237  11.888
42646W        W15060  24.994  44.952   2.729
42647W        W15061  26.973  29.005   1.356
42648W        W15062   3.712  32.041  10.441
42649W        W15063  28.013  31.631   3.310
42650W        W15064  30.115  33.044   2.835
42651W        W15065   2.333  26.002   3.214
42652W        W15066  38.028  42.910   3.815
42653W        W15067  43.364  21.561  12.506
42654W        W15068  35.077   2.844  13.016
42655W        W15069   5.727  36.018  13.477
42656W        W15070   6.769  18.284  14.417
42657W        W15071  21.211  40.003  14.511
42658W        W15072  28.110  39.972   1.846
42659W        W15073  39.004   3.768   2.323
42660W        W15074   9.384  26.578  11.597
42661W        W15075   8.686  17.606   1.885
42662W        W15076  17.596   3.234   4.116
42663W        W15077  10.239  36.037  14.915
42664W        W15078   2.733  35.559   3.278
42665W        W15079  18.593  27.100   2.248
42666W        W15080  28.452  22.624  14.818
42667W        W15081  12.635  13.223  12.446
42668W        W15082  22.133  26.011  14.959
42669W        W15083  10.370  32.934  13.350
42670W        W15084  27.477  43.942  11.372
42671W        W15085  38.933  22.185   3.303
42672W        W15086  10.361  24.166   3.648
42673W        W15087  16.786  41.824  12.379
42674W        W15088  40.843  26.199   3.238
42675W        W15089  14.767  31.938   1.717
42676W        W15090  27.031  32.487  14.903
42677W        W15091  22.078  42.793  14.890
42678W        W15092   6.878  26.481  12.035
42679W        W15093  40.523  33.079   0.782
42680W        W15094   9.169   7.839  13.398
42681W        W15095  44.301   9.349  13.889
42682W        W15096   3.780  38.507  13.869
42683W        W15097  36.925  33.594   1.696
42684W        W15098  28.163  14.720  14.411
42685W        W15099   8.728  34.482  12.093
42686W        W15100  12.725   4.362   1.712
42687W        W15101  11.851  24.572  13.425
42688W        W15102  36.084  35.933  11.901
42689W        W15103  15.244  26.604  10.972
42690W        W15104  31.921  28.547  10.460
42691W        W15105  41.485  32.484  11.032
42692W        W15106  37.856  39.358  13.974
42693W        W15107  23.563  27.578  11.887
42694W        W15108  23.628  28.595  14.842
42695W        W15109   3.946  26.127   2.713
42696W        W15110  35.359   4.343  14.860
42697W        W15111   8.205  29.577  13.023
42698W        W15112  32.516  40.395   2.213
42699W        W15113  36.999  18.671  11.008
42700W        W15114  10.654  11.249  10.445
42701W        W15115   4.436  38.855  14.834
42702W        W15116  44.457  30.637   2.275
42703W        W15117   9.686  20.558  11.955
42704W        W15118   6.298  42.354  12.450
42705W        W15119   9.711   4.818   2.238
42706W        W15120  14.152  19.247   4.196
42707W        W15121  42.418   5.701  11.438
42708W        W15122  24.658  19.639  10.970
42709W        W15123  32.919  10.632   4.157
42710W        W15124  18.265  12.743   3.385
42711W        W15125  40.894  13.667  13.534
42712W        W15126  36.593   2.300   0.831
42713W        W15127  32.513   1.352  13.901
42714W        W15128   1.877  34.430  13.013
42715W        W15129   6.757  12.323   1.267
42716W        W15130  23.990  40.459   2.741
42717W        W15131  22.506   5.423   1.331
42718W        W15132  39.060  35.523   1.806
42719W        W15133  29.620  14.289  10.581
42720W        W15134  24.142  23.705   2.679
42721W        W15135   9.149  21.069  12.913
42722W        W15136  21.081   6.275  10.620
42723W        W15137  11.746   9.362  10.616
42724W        W15138  44.811  17.236   3.230
42725W        W15139   4.721  32.428   0.276
42726W        W15140  43.869   2.736  13.489
42727W        W15141  10.381  23.106   4.792
42728W        W15142   8.856  34.374  14.516
42729W        W15143   1.869  12.173   2.299
42730W        W15144  33.591   8.387  11.916
42731W        W15145  30.058  15.780  11.078
42732W        W15146  13.280  33.015  14.485
42733W        W15147  21.197   1.425   0.776
42734W        W15148  44.003   1.783   4.311
42735W        W15149  19.629  11.224   4.244
42736W        W15150  37.426  12.318  13.978
42737W        W15151  20.211  28.095   2.842
42738W        W15152   0.423  42.370   3.796
42739W        W15153  42.894  21.194   3.319
42740W        W15154  17.160  13.263  14.786
42741W        W15155   9.848  20.168  12.554
42742W        W15156  39.453  39.939   4.287
42743W        W15157  36.450   4.771  13.383
42744W        W15158  22.060  31.947   1.694
42745W        W15159  12.328  19.088  12.924
42746W        W15160  29.957  34.968  11.397
42747W        W15161  36.378  22.058  12.011
42748W        W15162  17.764  11.648   1.794
42749W        W15163   2.824  30.116  13.430
42750W        W15164  29.007  33.069   0.299
42751W        W15165   8.871  40.356   2.352
42752W        W15166  28.662   3.767   2.382
42753W        W15167  24.678   4.722  13.473
42754W        W15168   1.467  39.488   3.319
42755W        W15169   4.902   3.740  12.423
42756W        W15170   0.350  33.440  11.124
42757W        W15171  26.677  36.593  14.917
42758W        W15172  16.112  38.840  14.448
42759W        W15173  30.630   1.464  12.361
42760W        W15174  23.198  42.513   4.665
42761W        W15175  17.205   7.388   1.772
42762W        W15176  14.769   9.240   5.802
42763W        W15177  14.736  37.491   4.806
42764W        W15178  26.065  44.495  10.438
42765W        W15179   9.856  17.760   1.214
42766W        W15180  11.669  17.634   1.886
42767W        W15181  23.236  35.478  14.461
42768W        W15182   7.861  19.768  14.860
42769W        W15183  29.156   3.890   4.141
42770W        W15184  36.869  31.507  12.066
42771W        W15185  38.418   9.839   0.308
42772W        W15186   7.809   6.332   3.729
42773W        W15187   9.161  23.996  12.070
42774W        W15188   1.908  22.204  13.440
42775W        W15189  20.625  11.685  10.949
42776W        W15190  25.110  43.828   3.297
42777W        W15191  10.328  44.897   2.815
42778W        W15192  29.656   3.902   3.206
42779W        W15193  23.566  21.063   4.792
42780W        W15194   6.206  27.459  14.918
42781W        W15195  13.624  37.478  10.911
42782W        W15196  23.199  14.672   4.620
42783W        W15197  37.870  39.992  10.406
42784W        W15198  10.188  23.106   3.269
42785W        W15199  31.946   9.254  11.999
42786W        W15200   6.723   6.282  11.041
42787W        W15201  35.997  41.023   3.199
42788W        W15202  35.509  28.979   2.732
42789W        W15203   1.969   1.377  11.532
42790W        W15204  19.544  17.229   4.140
42791W        W15205   2.449  43.399  10.952
42792W        W15206  21.222  11.662   3.374
42793W        W15207  10.173   0.343  12.913
42794W        W15208   9.858   5.285  14.943
42795W        W15209   3.768  23.187   1.775
42796W        W15210  39.993  15.285   2.741
42797W        W15211  40.941  16.093  14.999
42798W        W15212  24.076  32.588  14.427
42799W        W15213  22.158  26.598   2.767
42800W        W15214  29.158   1.352   3.854
42801W        W15215   4.718  12.286   1.760
42802W        W15216   5.252  38.362  14.386
42803W        W15217  11.333  24.669  10.619
42804W        W15218   4.337  28.960   4.710
42805W        W15219  23.123  18.632   5.245
42806W        W15220  19.766  23.095  14.286
42807W        W15221  26.183  39.534  10.994
42808W        W15222  38.929   9.312  12.868
42809W        W15223  33.406  17.690  12.361
42810W        W15224  14.609  36.589  10.495
42811W        W15225  20.145  10.294  10.601
42812W        W15226  10.776  13.342  10.478
42813W        W15227  32.536   1.746  13.445
42814W        W15228  29.077  24.622   0.750
42815W        W15229   9.716   7.769   3.237
42816W        W15230  30.912  44.942   1.273
42817W        W15231  11.221   5.722   4.725
42818W        W15232   3.723   5.437  11.976
42819W        W15233   3.755  26.200   5.320
42820W        W15234   1.911  33.435   2.209
42821W        W15235  27.158  39.026  12.505
42822W        W15236  32.985  21.523  13.335
42823W        W15237  34.903  23.681  11.008
42824W        W15238  14.640  20.754  14.457
42825W        W15239  22.620  20.588  11.975
42826W        W15240   1.800  18.146   2.370
42827W        W15241  15.797  19.700  12.093
42828W        W15242  44.352  43.838  13.496
42829W        W15243  28.450   0.901  14.362
42830W        W15244  26.700  21.177   2.668
42831W        W15245  42.370  18.092   2.778
42832W        W15246  13.165  33.467  14.863
42833W        W15247  20.093   4.388   3.823
42834W        W15248  37.362  27.521   3.155
42835W        W15249  10.856   4.827   2.770
42836W        W15250  39.411  43.768  10.541
42837W        W15251   9.865  28.547  12.385
42838W        W15252  26.011  37.893  10.596
42839W        W15253   6.252  13.829  12.869
42840W        W15254   4.262  24.597   0.746
42841W        W15255  10.662  37.880   0.360
42842W        W15256   7.300  21.134   1.758
42843W        W15257   6.327  18.225   0.331
42844W        W15258  25.011  44.786  10.592
42845W        W15259  13.634   3.772   2.285
42846W        W15260  41.963  28.434  14.289
42847W        W15261  12.187  14.246  13.963
42848W        W15262   6.845  17.592   3.262
42849W        W15263  36.412   3.337   2.814
42850W        W15264  40.518   4.834  12.964
42851W        W15265  19.188  15.234   3.303
42852W        W15266  22.188   1.951   4.708
42853W        W15267  25.524  24.025  10.429
42854W        W15268  38.845   4.316   2.797
42855W        W15269  29.033  24.078   0.883
42856W        W15270  18.640   5.905   2.400
42857W        W15271  25.692  26.493  13.830
42858W        W15272  35.584   6.246   3.751
42859W        W15273  28.183  32.397   0.249
42860W        W15274   5.337  42.417   3.639
42861W        W15275  23.509  35.925  10.968
42862W        W15276  16.590  31.445  13.455
42863W        W15277  41.368   0.765  13.505
42864W        W15278  25.974  14.168  11.557
42865W        W15279  28.178  38.948  12.027
42866W        W15280  40.314  43.380  14.281
42867W        W15281  25.123  41.954   1.254
42868W        W15282  25.704  40.487   1.214
42869W        W15283  17.208   6.224  11.902
42870W        W15284  12.685   8.805  12.847
42871W        W15285  20.565  10.703   2.838
42872W        W15286  42.929  27.549   0.325
42873W        W15287  42.014  43.310  14.824
42874W        W15288   3.860  40.023  11.866
42875W        W15289  28.037   4.862  12.854
42876W        W15290  34.057  23.492   4.775
42877W        W15291  21.615  41.311  12.066
42878W        W15292  42.974  43.845   2.791
42879W        W15293   3.887   7.358   0.834
42880W        W15294  24.693  26.560  11.480
42881W        W15295  28.471   3.918   0.433
42882W        W15296   2.843  32.030  14.987
42883W        W15297   1.911   0.414   2.411
42884W        W15298  11.758   6.913   3.829
42885W        W15299   6.803  33.994  11.600
42886W        W15300  12.157  13.210   3.208
42887W        W15301  13.147  33.958   3.843
42888W        W15302   4.760  26.516   5.319
42889W        W15303   1.775   8.316   0.771
42890W        W15304  39.983  15.660  14.446
42891W        W15305  29.947  32.945   4.131
42892W        W15306  18.772  36.429  12.958
42893W        W15307   6.289  13.607  13.956
42894W        W15308  21.556  25.597   0.392
42895W        W15309  12.333  27.987   2.343
42896W        W15310  24.095  39.317   4.633
42897W        W15311  14.181  30.588  13.477
42898W        W15312  19.664  14.298  14.317
42899W        W15313  42.293  30.966  14.848
42900W        W15314  19.678  13.299  10.896
42901W        W15315  23.645   3.873  12.976
42902W        W15316  24.647  10.781   2.845
42903W        W15317  41.819  11.206  13.315
42904W        W15318   2.451   0.311  13.833
42905W        W15319  38.419  25.979  14.848
42906W        W15320  35.898  44.005   4.836
42907W        W15321   7.417  31.112   4.827
42908W        W15322   0.435  21.735  14.999
42909W        W15323  40.513  22.213   1.264
42910W        W15324  14.672  22.672   3.793
42911W        W15325   4.422  41.523  12.922
42912W        W15326   3.753  41.317   2.742
42913W        W15327  18.161   5.261  12.390
42914W        W15328  28.079   2.912  12.396
42915W        W15329  28.478  11.646  10.590
42916W        W15330  34.533   0.868   4.777
42917W        W15331  35.991  29.536  11.421
42918W        W15332  15.657  35.424   4.832
42919W        W15333  17.279  29.101  10.537
42920W        W15334   5.834   6.261  12.499
42921W        W15335  12.287  33.024   0.799
42922W        W15336  38.492  40.045  10.934
42923W        W15337  24.653   2.240  11.075
42924W        W15338  32.566  29.499  10.414
42925W        W15339  32.407  17.189   0.459
42926W        W15340  36.423   1.409  14.349
42927W        W15341  10.356  13.322  13.391
42928W        W15342   9.748  14.652   3.380
42929W        W15343  39.436  34.958   2.199
42930W        W15344  11.266  27.647  13.896
42931W        W15345  34.512  16.249  14.913
42932W        W15346  23.992  20.663   1.927
42933W        W15347  18.192  10.161  10.997
42934W        W15348  28.934  10.697   3.776
42935W        W15349  12.816  24.580   4.774
42936W        W15350  17.094   8.750  14.815
42937W        W15351  16.091  12.325   0.893
42938W        W15352   3.931  25.516  11.382
42939W        W15353  22.580  22.022  13.810
42940W        W15354  23.019  37.887  14.861
42941W        W15355  36.889  30.076  13.005
42942W        W15356  38.484  21.748   4.678
42943W        W15357  11.744  26.051   4.610
42944W        W15358  36.354  36.482  11.100
42945W        W15359  30.593  20.087   2.369
42946W        W15360   1.273  35.058   0.405
42947W        W15361  19.096   3.927  13.408
42948W        W15362  41.376  17.172  12.846
42949W        W15363  26.179  30.554  11.084
42950W        W15364  27.036  35.870  13.944
42951W        W15365  17.739  27.595  13.404
42952W        W15366  12.300  43.309   3.264
42953W        W15367  23.189  24.694   3.725
42954W        W15368  41.953  37.987  13.527
42955W        W15369  32.106  36.870  13.376
42956W        W15370  14.113  18.056   3.819
42957W        W15371  27.075  10.672  12.571
42958W        W15372  40.431  34.915   3.747
42959W        W15373  13.325  26.467  14.438
42960W        W15374  18.784  26.062   3.376
42961W        W15375  15.316  32.573  11.434
42962W        W15376  40.010  33.067  12.581
42963W        W15377  27.165   5.285  12.049
42964W        W15378  33.508   0.325  14.360
42965W        W15379  33.099  12.203   2.825
42966W        W15380  13.736   3.302   2.859
42967W        W15381  29.610  13.268   4.202
42968W        W15382  26.611   1.466   2.249
42969W        W15383  44.905   7.703   3.632
42970W        W15384  32.400  37.990  12.013
42971W        W15385  32.533  24.569   0.252
42972W        W15386  18.576  32.442   1.869
42973W        W15387  17.795  21.131  11.608
42974W        W15388  25.484  32.011  11.568
42975W        W15389  20.550  28.623  14.836
42976W        W15390   5.713   1.913  11.411
42977W        W15391  27.995  30.565  14.862
42978W        W15392  32.426  10.739  11.473
42979W        W15393  16.165   3.407   2.318
42980W        W15394  20.585  12.707   1.723
42981W        W15395  22.168  28.097  13.351
42982W        W15396  15.581  41.879   4.337
42983W        W15397  30.489  32.589  11.502
42984W        W15398  15.789  43.465   3.835
42985W        W15399  14.294  42.493   1.760
42986W        W15400  43.877   9.343   2.876
42987W        W15401  24.997  12.838   0.366
42988W        W15402  22.115  28.097  10.481
42989W        W15403  15.226  11.128   1.881
42990W        W15404  27.114   3.370   0.479
42991W        W15405  28.435   7.814   0.813
42992W        W15406  27.114  18.791   4.349
42993W        W15407  30.643  12.847  12.063
42994W        W15408   2.903  11.807  14.021
42995W        W15409  34.373  33.575   3.324
42996W        W15410   0.896   1.431  12.960
42997W        W15411  42.476  20.271   1.803
42998W        W15412   1.840  31.011   0.272
42999W        W15413  34.029  13.627   4.774
43000W        W15414  44.814  31.590   4.316
43001W        W15415  34.903  16.605   4.809
43002W        W15416   4.230  28.496  14.434
43003W        W15417  41.454  28.672   0.446
43004W        W15418  18.248  40.433  14.313
43005W        W15419  44.958  43.980   3.681
43006W        W15420  10.292  41.318   2.903
43007W        W15421   7.794  13.151   1.364
43008W        W15422  29.172  23.231   2.415
43009W        W15423   3.322  15.817  12.071
43010W        W15424  33.481  20.653  14.430
43011W        W15425  40.876  12.795  11.953
43012W        W15426  15.666  13.764   4.704
43013W        W15427  42.282  38.881  11.471
43014W        W15428  25.539  26.061  13.040
43015W        W15429  27.687  36.386  14.294
43016W        W15430  11.843   9.160   0.304
43017W        W15431  40.444  28.049  14.472
43018W        W15432   0.767  20.531  13.462
43019W        W15433  13.789  22.648   0.911
43020W        W15434  35.418  17.735   3.268
43021W        W15435  21.717  23.070   4.602
43022W        W15436  28.624  15.809  13.311
43023W        W15437  35.993  16.690   4.683
43024W        W15438  11.777  40.437   0.438
43025W        W15439  41.844  41.024   4.765
43026W        W15440  34.959  28.036   4.346
43027W        W15441  34.475  43.994   1.912
43028W        W15442   7.811  31.508   0.272
43029W        W15443  42.795   2.885   2.840
43030W        W15444   0.388   8.828   0.822
43031W        W15445  29.965  25.511   3.328
43032W        W15446  35.492  20.682  14.462
43033W        W15447   3.806  43.975   0.872
43034W        W15448  19.667  42.306   2.770
43035W        W15449  24.678   9.392   1.744
43036W        W15450  22.052  37.038  10.408
43037W        W15451  14.144  28.079  13.820
43038W        W15452   0.810  20.550   0.859
43039W        W15453  20.579   8.762   1.831
43040W        W15454  43.501   5.844  10.440
43041W        W15455   4.755  20.155   1.761
43042W        W15456  17.064  34.932   4.278
43043W        W15457  18.575  13.262  10.475
43044W        W15458  34.481  20.595   2.716
43045W        W15459  28.164  33.388   0.859
43046W        W15460  11.830  31.595  14.951
43047W        W15461  27.119  38.029   2.761
43048W        W15462  36.558  18.169  13.361
43049W        W15463  43.994  24.508   3.295
43050W        W15464  19.734  18.637   0.845
43051W        W15465  11.640  28.612   0.297
43052W        W15466   9.305   3.922  14.286
43053W        W15467  34.555  22.711   4.142
43054W        W15468  26.536  15.729   0.835
43055W        W15469  34.041  44.443  13.003
43056W        W15470   7.834  25.150  10.575
43057W        W15471  39.886  35.981   0.931
43058W        W15472   2.735  23.021  14.771
43059W        W15473   1.937  25.219   4.763
43060W        W15474   5.253  11.799  11.579
43061W        W15475   8.314  15.665  14.436
43062W        W15476  18.158  16.637   1.435
43063W        W15477  13.244  17.560   4.299
43064W        W15478  13.821  44.281  10.502
43065W        W15479  38.029  21.595   1.270
43066W        W15480  44.891  27.504  13.845
43067W        W15481  30.568   0.853   0.781
43068W        W15482  27.055  18.286  12.897
43069W        W15483  28.970  36.931   0.259
43070W        W15484   0.976  15.163   0.381
43071W        W15485  24.004  23.687   4.319
43072W        W15486  16.226  26.103  11.422
43073W        W15487   9.831  26.520  14.024
43074W        W15488  26.096  36.564  14.403
43075W        W15489  30.054  33.052   3.632
43076W        W15490  26.533  18.557   3.778
43077W        W15491  26.600  41.440   2.697
43078W        W15492  30.534   3.940  13.937
43079W        W15493  36.548  26.173   4.142
43080W        W15494  36.848   3.242  12.390
43081W        W15495   6.791  13.289   3.632
43082W        W15496  33.046   5.420  13.546
43083W        W15497  20.718  41.992  13.313
43084W        W15498  37.499   7.698   0.459
43085W        W15499   5.402  37.409  13.475
43086W        W15500  13.721  26.612   5.129
43087W        W15501  31.143   5.212  12.476
43088W        W15502  34.891  36.456  14.032
43089W        W15503  17.242  43.410  12.040
43090W        W15504  20.646  24.602  14.490
43091W        W15505   7.322   1.267  14.936
43092W        W15506  41.329  15.308   4.625
43093W        W15507   2.805  42.375   4.290
43094W        W15508  13.295  20.669   4.826
43095W        W15509  24.686  30.922   2.327
43096W        W15510  13.662  43.506  10.953
43097W        W15511  40.860  36.948  10.454
43098W        W15512  12.174   1.475  11.593
43099W        W15513  26.106  25.702  13.982
43100W        W15514  14.773  29.598  14.422
43101W        W15515  30.581  29.036   1.934
43102W        W15516  26.078  23.211   1.822
43103W        W15517  23.518  37.358  11.107
43104W        W15518  16.633  30.034  12.899
43105W        W15519  20.240  27.543  12.976
43106W        W15520  14.191   7.328   9.930
43107W        W15521  27.591  42.823   5.186
43108W        W15522  39.497  22.514   4.191
43109W        W15523  19.098   2.368  10.575
43110W        W15524  10.178  21.743  10.462
43111W        W15525  20.740  23.049   2.661
43112W        W15526  35.379  31.646  12.565
43113W        W15527  21.626   2.966  10.921
43114W        W15528   6.365   6.205  13.937
43115W        W15529   0.441  32.636   1.404
43116W        W15530  11.222  14.670   0.331
43117W        W15531  42.976   8.383   1.412
43118W        W15532  44.410  18.740   3.758
43119W        W15533  12.796  39.809   4.142
43120W        W15534  10.154  11.262  14.455
43121W        W15535  40.930  20.652   4.213
43122W        W15536  38.878  41.002   1.243
43123W        W15537  13.163   6.292   3.157
43124W        W15538   7.882  24.017   1.759
43125W        W15539  36.019  20.202  14.967
43126W        W15540  35.025  33.481  11.019
43127W        W15541  44.472   7.199  10.561
43128W        W15542  32.999  25.471  14.983
43129W        W15543  38.951  37.058  14.471
43130W        W15544  43.826  25.052  11.001
43131W        W15545  32.468  15.794   4.241
43132W        W15546   0.441  10.313   2.418
43133W        W15547  30.946  24.157  11.025
43134W        W15548  37.462  12.695  12.538
43135W        W15549  44.489  10.865  12.978
43136W        W15550   7.353  20.030  12.488
43137W        W15551   5.419  33.120  12.364
43138W        W15552  23.703  11.771   2.196
43139W        W15553  33.071  30.613   0.740
43140W        W15554  25.135  18.586   1.352
43141W        W15555  13.233  19.074   3.733
43142W        W15556   1.955  39.510   1.796
43143W        W15557  37.009  44.262  12.087
43144W        W15558  24.213  31.134   1.890
43145W        W15559  36.503  32.019   4.280
43146W        W15560   5.318   3.793  12.922
43147W        W15561   9.222   9.245   4.722
43148W        W15562  35.529  31.943  12.879
43149W        W15563  25.017  38.913  14.343
43150W        W15564  41.895  36.019   3.365
43151W        W15565  21.061  29.088   3.699
43152W        W15566  21.637  40.934   4.632
43153W        W15567   0.390  17.606  13.038
43154W        W15568  10.183  27.580   1.750
43155W        W15569  14.290  38.036   4.219
43156W        W15570   9.691   6.253  11.582
43157W        W15571   9.324  33.047  12.869
43158W        W15572  16.691   7.399  11.061
43159W        W15573  13.204  23.566   2.237
43160W        W15574  19.277  38.524   3.305
43161W        W15575   5.799  11.635   0.939
43162W        W15576  29.918  36.981  12.462
43163W        W15577   2.372  33.924   3.861
43164W        W15578   8.658  14.250  14.803
43165W        W15579  29.483  40.520   3.652
43166W        W15580  27.692  17.098   2.180
43167W        W15581  43.819  21.231  12.950
43168W        W15582  22.701  29.110  13.040
43169W        W15583  34.107  43.947  11.935
43170W        W15584  25.617  22.142   3.849
43171W        W15585  44.334  44.880  13.056
43172W        W15586   3.789  42.324  13.015
43173W        W15587   2.237  40.949  10.643
43174W        W15588  21.158   3.833   1.861
43175W        W15589  14.281   4.332  13.971
43176W        W15590  42.315  26.520   1.849
43177W        W15591   1.745  25.610   1.326
43178W        W15592  33.958   8.656  11.533
43179W        W15593   5.211  29.008  12.085
43180W        W15594  44.462  36.896   0.858
43181W        W15595  41.402  27.122   0.473
43182W        W15596  22.648  39.837  10.899
43183W        W15597  43.384  41.792   4.797
43184W        W15598  17.598   5.382  14.406
43185W        W15599  24.622  26.075  14.969
43186W        W15600  16.800  41.490   3.738
43187W        W15601  23.189   4.757   3.249
43188W        W15602  34.009   4.923  10.928
43189W        W15603  28.466  42.806   4.182
43190W        W15604  23.226  38.348  12.445
43191W        W15605  36.572  12.853   1.296
43192W        W15606  32.566  30.146   4.723
43193W        W15607  36.503  30.524  14.397
43194W        W15608  14.733  11.714  12.408
43195W        W15609  14.163  22.670   4.339
43196W        W15610  27.063  26.182  10.902
43197W        W15611   9.384  37.465  10.027
43198W        W15612  30.946  27.590   0.370
43199W        W15613  34.552  19.665   4.231
43200W        W15614   6.252   7.201   0.752
43201W        W15615  26.489   3.781  11.106
43202W        W15616  28.578  40.005   2.832
43203W        W15617  43.272  33.396   0.835
43204W        W15618  16.154  25.653   4.156
43205W        W15619   2.781  28.589   1.211
43206W        W15620  36.507   6.255  11.375
43207W        W15621  27.975   1.810  12.032
43208W        W15622  42.913  18.055  12.379
43209W        W15623  13.275  12.708  12.865
43210W        W15624   3.733  40.834   4.681
43211W        W15625   3.257  32.010   3.783
43212W        W15626  19.115  40.384  11.866
43213W        W15627  38.362   7.303  12.036
43214W        W15628  10.765  31.997   3.344
43215W        W15629   3.931  14.250   5.217
43216W        W15630  41.448  31.041   4.336
43217W        W15631  12.275  31.542   0.899
43218W        W15632  40.372  36.466   4.650
43219W        W15633  37.998  34.980  14.347
43220W        W15634  26.676   4.361  13.538
43221W        W15635  44.301  16.306   2.788
43222W        W15636   4.849  16.129  14.358
43223W        W15637  42.017  22.220   0.937
43224W        W15638  39.985  30.027  10.958
43225W        W15639  25.995  27.075  12.579
43226W        W15640  26.555  41.878  14.792
43227W        W15641  18.134  12.348  13.932
43228W        W15642  13.729  20.197   2.721
43229W        W15643  35.551  16.772  10.893
43230W        W15644  12.716  39.907   3.691
43231W        W15645  32.976  32.904  11.020
43232W        W15646   3.802  18.165   5.261
43233W        W15647  10.746  18.740   0.802
43234W        W15648  26.127  15.127  12.512
43235W        W15649  38.036  26.162   2.773
43236W        W15650  26.584  11.282   2.701
43237W        W15651  17.263  17.664   3.226
43238W        W15652  17.304  30.597   1.412
43239W        W15653  31.902  24.173  14.778
43240W        W15654  40.389   0.805   9.973
43241W        W15655   0.328  23.548   1.734
43242W        W15656  13.643  22.196  14.768
43243W        W15657  18.079  40.013  11.436
43244W        W15658  18.122  13.730  14.018
43245W        W15659   9.254  31.033   2.223
43246W        W15660  37.921  12.633   2.690
43247W        W15661   2.743  30.107   1.278
43248W        W15662  17.287   2.943   1.707
43249W        W15663  29.023  28.179  13.422
43250W        W15664  18.135  13.182  11.464
43251W        W15665   8.388  30.443   0.964
43252W        W15666   8.334  11.350   3.362
43253W        W15667  44.420  35.060   0.261
43254W        W15668  25.197   1.845  14.386
43255W        W15669  10.771   5.832   3.179
43256W        W15670  41.960   4.253  13.377
43257W        W15671  41.011  14.794   4.168
43258W        W15672  38.848  27.084  14.851
43259W        W15673   5.857   7.222  10.440
43260W        W15674   6.875  26.487   5.242
43261W        W15675   5.715  32.077   3.277
43262W        W15676   3.864  39.983   5.685
43263W        W15677  34.500  32.468  11.066
43264W        W15678  37.581  24.669  12.358
43265W        W15679  19.633   2.231  12.535
43266W        W15680   7.340  36.957  11.385
43267W        W15681  33.416  22.712   3.225
43268W        W15682  27.532  17.093  13.322
43269W        W15683  34.086  30.442  11.032
43270W        W15684  13.272  44.822  12.985
43271W        W15685   6.420  39.529  13.368
43272W        W15686   7.835  10.689  14.384
43273W        W15687   2.381   1.380  12.012
43274W        W15688  16.298  40.523  11.863
43275W        W15689  19.262  14.738   3.673
43276W        W15690  22.652  35.367   0.874
43277W        W15691  32.104   5.753   3.707
43278W        W15692  28.066  24.596   4.703
43279W        W15693  37.350  13.251  12.845
43280W        W15694   1.391  13.247  14.878
43281W        W15695  13.310   6.417   5.179
43282W        W15696  28.034   2.425  13.373
43283W        W15697   8.368  24.695   2.198
43284W        W15698  39.393   8.697  13.313
43285W        W15699   2.917  14.802   9.618
43286W        W15700  23.490   6.688  14.507
43287W        W15701  21.624   9.275   3.285
43288W        W15702  20.198  26.116  12.041
43289W        W15703  22.086   9.841   1.874
43290W        W15704  30.582  16.682  14.759
43291W        W15705  11.310  30.164  12.359
43292W        W15706  23.516  13.836  12.045
43293W        W15707  32.506  43.840  13.044
43294W        W15708  22.530  30.116  11.941
43295W        W15709   3.377  17.719   2.312
43296W        W15710  40.344  12.823  10.985
43297W        W15711  42.901  18.101  10.089
43298W        W15712   0.785   3.227   3.803
43299W        W15713  13.793  18.174   0.860
43300W        W15714  13.640   7.866  11.959
43301W        W15715  35.556  38.033  14.954
43302W        W15716  37.020   8.789   1.780
43303W        W15717  25.187   7.336   4.277
43304W        W15718   6.196  15.623   4.132
43305W        W15719   8.393   1.944   0.454
43306W        W15720  10.314  24.170  13.452
43307W        W15721   9.284   2.289  11.392
43308W        W15722  42.831   4.380   0.965
43309W        W15723  43.846  33.482  11.906
43310W        W15724  27.569  11.205   3.683
43311W        W15725  12.754   5.281  11.094
43312W        W15726  25.485  44.377  13.455
43313W        W15727   0.784  21.559   4.339
43314W        W15728   0.303  17.154  10.413
43315W        W15729  36.359  20.622   2.399
43316W        W15730   0.841  32.637   1.347
43317W        W15731  41.422  25.068   0.940
43318W        W15732  43.808   1.760  12.459
43319W        W15733  37.068   6.304  14.949
43320W        W15734   1.970  40.054  12.053
43321W        W15735  11.639  36.949  13.895
43322W        W15736  18.262  41.032   3.699
43323W        W15737   3.260  22.719   0.939
43324W        W15738  28.602   7.244   3.258
43325W        W15739  41.488  17.646  11.547
43326W        W15740  41.920  13.803  13.446
43327W        W15741  12.626   1.436   3.285
43328W        W15742  22.590  12.217   4.310
43329W        W15743   1.296   7.412   0.313
43330W        W15744  16.271  12.817   0.349
43331W        W15745  29.619  21.556  11.560
43332W        W15746  20.548  17.194   1.698
43333W        W15747  28.120   1.266  13.864
43334W        W15748  14.779  14.810   2.887
43335W        W15749  16.689   3.815  13.310
43336W        W15750  35.905  15.649  11.981
43337W        W15751   7.329  10.166  11.441
43338W        W15752   3.271   0.457   3.838
43339W        W15753   1.380   3.242  11.947
43340W        W15754  41.807  37.049   1.787
43341W        W15755  16.149  18.198  14.786
43342W        W15756   6.351  32.433  11.556
43343W        W15757   6.213  40.490  14.456
43344W        W15758  28.655  29.426   4.137
43345W        W15759  37.968  29.999   0.346
43346W        W15760  42.925  25.976  13.020
43347W        W15761  12.314  18.141  13.349
43348W        W15762  12.742  14.654  11.869
43349W        W15763   7.311  36.923  14.765
43350W        W15764  16.120  14.142  11.975
43351W        W15765   5.255  19.075   1.715
43352W        W15766  20.685   8.179   2.732
43353W        W15767  20.646  43.283   4.352
43354W        W15768  33.954  32.439  13.874
43355W        W15769  42.835  11.338   4.130
43356W        W15770  22.622  32.603   2.885
43357W        W15771  17.793  10.223   4.833
43358W        W15772  31.542  41.015   1.211
43359W        W15773  26.619  14.256   3.182
43360W        W15774  10.711  30.018  13.040
43361W        W15775  34.389  11.819  13.920
43362W        W15776  20.648  21.027   4.114
43363W        W15777   3.246  30.100  14.306
43364W        W15778  33.396  30.080  14.802
43365W        W15779  12.750  10.373  10.404
43366W        W15780  32.058  28.969  14.472
43367W        W15781  39.353   5.426  11.463
43368W        W15782  38.020  19.235  13.868
43369W        W15783  36.844  29.976  12.555
43370W        W15784  21.093  23.236   4.615
43371W        W15785  10.346  39.437  13.387
43372W        W15786  17.229  10.297  12.072
43373W        W15787   7.855  37.068  12.941
43374W        W15788  25.701  13.260  13.534
43375W        W15789  27.655  21.073  10.424
43376W        W15790  27.150  16.088   1.389
43377W        W15791   4.413  40.811   0.246
43378W        W15792  28.065  23.588   0.817
43379W        W15793  25.028  39.902   3.221
43380W        W15794  28.552  29.148   2.274
43381W        W15795  13.248  16.109   4.193
43382W        W15796   5.315  14.179   1.750
43383W        W15797   9.675  41.006   4.278
43384W        W15798  13.329  20.274  11.043
43385W        W15799  29.436   5.698  10.915
43386W        W15800  36.537   2.254   0.380
43387W        W15801  11.658  40.906   0.816
43388W        W15802  40.516   2.371   2.879
43389W        W15803  22.509  40.023   2.314
43390W        W15804  41.338  20.611  13.452
43391W        W15805   1.242  11.762   4.643
43392W        W15806  32.609  12.224  11.561
43393W        W15807   3.720  34.433   3.752
43394W        W15808  25.650  25.659   1.894
43395W        W15809  29.594  27.472   2.832
43396W        W15810  11.677  26.518   3.749
43397W        W15811   1.909   7.833   3.222
43398W        W15812  13.226  37.954   1.263
43399W        W15813  13.296  21.580   0.355
43400W        W15814  39.989  16.758   4.672
43401W        W15815  27.959  33.111  13.027
43402W        W15816  20.239  19.587   3.758
43403W        W15817   9.781  22.741   4.816
43404W        W15818  23.546  16.189   3.695
43405W        W15819  10.802   1.474   3.169
43406W        W15820  43.489  23.596  13.850
43407W        W15821  24.153  35.034  14.409
43408W        W15822   0.286  10.658   4.669
43409W        W15823  38.352  20.604   1.281
43410W        W15824  23.123  29.989   1.788
43411W        W15825  41.413  22.645   5.237
43412W        W15826  19.218  34.942   2.846
43413W        W15827  34.967  38.565  12.983
43414W        W15828   7.398  16.182  14.324
43415W        W15829   1.318  29.564   1.892
43416W        W15830  22.232  33.017  14.346
43417W        W15831   6.787  37.431   2.789
43418W        W15832  10.647  11.136  13.310
43419W        W15833  28.153  38.992  10.500
43420W        W15834   0.800  34.070  12.054
43421W        W15835  37.042  15.762   4.679
43422W        W15836  34.541  33.408   4.809
43423W        W15837  23.030  19.779   0.256
43424W        W15838  12.207  24.142   4.146
43425W        W15839  11.765  18.073  12.474
43426W        W15840  10.344  32.108  11.098
43427W        W15841  20.651   9.161   4.332
43428W        W15842  27.445  26.674  14.384
43429W        W15843  19.256  33.468  11.581
43430W        W15844  43.431  34.598   3.214
43431W        W15845  16.122  29.925  11.913
43432W        W15846  31.484  32.124   3.773
43433W        W15847   4.343  21.574  13.362
43434W        W15848   3.273  34.433  12.017
43435W        W15849  39.994  32.448  10.425
43436W        W15850  20.607  43.822   3.702
43437W        W15851   8.213  19.191  12.952
43438W        W15852  23.693  34.514   3.259
43439W        W15853  30.961  19.779   4.340
43440W        W15854  30.562  24.084   3.360
43441W        W15855   9.761  32.530   2.663
43442W        W15856  27.656   1.341   3.778
43443W        W15857  19.679  12.156   4.723
43444W        W15858   9.308  25.592   4.338
43445W        W15859  19.178  12.241  14.513
43446W        W15860  43.285  22.502  12.377
43447W        W15861  38.906   4.786   3.230
43448W        W15862  10.863  33.424   2.663
43449W        W15863  16.220  27.073   4.192
43450W        W15864   9.340  38.886   4.326
43451W        W15865  40.926  42.313  10.894
43452W        W15866  27.117  16.631  12.485
43453W        W15867  31.145   4.282   4.187
43454W        W15868   8.339  41.803  10.934
43455W        W15869   6.854  32.899  13.330
43456W        W15870  13.301  36.477   2.780
43457W        W15871  36.354  41.819   3.250
43458W        W15872  18.686  25.644  12.434
43459W        W15873   5.882  25.204  13.991
43460W        W15874  17.164  22.567   1.711
43461W        W15875  21.247  30.080  13.398
43462W        W15876   6.413  18.764   4.608
43463W        W15877   3.259  15.205   1.397
43464W        W15878   5.336  11.710  14.875
43465W        W15879  13.757  34.539   4.683
43466W        W15880  28.973  39.510   2.377
43467W        W15881  14.691  12.267  10.591
43468W        W15882   2.756  12.286  14.508
43469W        W15883   6.229   0.262   1.822
43470W        W15884  15.104  26.568   0.892
43471W        W15885   5.915   5.424   2.716
43472W        W15886   3.888  38.450   3.177
43473W        W15887  29.137  25.615   1.294
43474W        W15888  33.457  21.208   3.731
43475W        W15889  10.768  27.620   2.756
43476W        W15890  18.063   6.262  12.849
43477W        W15891  32.555  17.123  11.878
43478W        W15892  11.228  43.440  13.795
43479W        W15893  26.106  32.893   4.659
43480W        W15894  23.689  44.861  13.941
43481W        W15895  10.831  34.574   1.390
43482W        W15896  10.226   2.341  12.497
43483W        W15897   9.228  16.739   2.244
43484W        W15898  39.514  18.746   1.920
43485W        W15899  11.791  32.094   3.335
43486W        W15900  27.664  33.520  14.394
43487W        W15901  41.908  27.983   2.357
43488W        W15902   3.333  44.282   5.287
43489W        W15903  15.277   2.421  14.461
43490W        W15904   1.922  16.080  14.424
43491W        W15905  37.459  43.876  11.891
43492W        W15906  23.515  42.787   2.665
43493W        W15907  14.823  40.329  13.883
43494W        W15908   7.774  24.716   1.369
43495W        W15909  43.469   8.159  14.368
43496W        W15910   2.809   7.351   4.772
43497W        W15911  11.225  33.428  11.590
43498W        W15912  37.854  41.025  11.529
43499W        W15913  16.601  34.562   2.248
43500W        W15914  13.727  41.839   1.244
43501W        W15915   4.776  24.634  14.950
43502W        W15916  39.036  15.683   9.985
43503W        W15917  26.131  34.470  14.381
43504W        W15918  19.620  18.667  11.467
43505W        W15919  16.576  34.951  12.950
43506W        W15920  31.542  10.676   4.600
43507W        W15921  36.973  19.590   0.281
43508W        W15922   5.349  39.427  13.485
43509W        W15923  24.542  44.398  13.377
43510W        W15924  42.508   0.930  10.623
43511W        W15925  13.838  42.363  13.995
43512W        W15926  36.539  30.944  13.380
43513W        W15927   0.400   9.868  12.020
43514W        W15928  20.739  41.881  12.068
43515W        W15929  42.831  41.368  13.048
43516W        W15930  22.137  23.647   4.201
43517W        W15931  28.964  23.541  11.440
43518W        W15932  30.001  41.789  12.441
43519W        W15933  33.945  40.036   0.815
43520W        W15934  24.539   1.337   5.159
43521W        W15935  11.765  10.296   2.396
43522W        W15936   5.266  29.040  13.311
43523W        W15937  33.918  21.166   2.700
43524W        W15938  39.479   5.821   3.729
43525W        W15939  21.262   3.890   0.264
43526W        W15940  37.491  36.989   4.680
43527W        W15941  26.536  25.494  10.897
43528W        W15942  40.396  10.383   1.335
43529W        W15943  32.102   6.866   1.902
43530W        W15944  15.702  43.887   4.808
43531W        W15945  29.931  22.595  12.029
43532W        W15946  24.119   7.853  10.603
43533W        W15947  15.088  18.144  13.326
43534W        W15948  44.462  34.427  14.497
43535W        W15949  10.196   7.854  14.832
43536W        W15950  26.696   1.920   3.175
43537W        W15951  30.485  38.847   1.346
43538W        W15952  20.080  24.091   4.768
43539W        W15953  32.904  38.552   3.662
43540W        W15954  35.863  33.890  10.642
43541W        W15955  42.919  26.131   3.747
43542W        W15956  11.683  33.054   1.297
43543W        W15957  14.765  36.863  12.521
43544W        W15958  32.063   8.678  11.002
43545W        W15959  43.314  18.190   0.461
43546W        W15960  24.173  33.497   2.214
43547W        W15961  38.356  29.635  10.551
43548W        W15962  15.116  39.315  11.600
43549W        W15963  43.486  29.501   0.934
43550W        W15964  43.355  30.456   3.192
43551W        W15965  15.601  17.617   5.087
43552W        W15966  27.636   8.359  12.472
43553W        W15967  26.526  18.664   1.238
43554W        W15968   5.207   0.414   1.234
43555W        W15969  36.884  39.530  14.429
43556W        W15970  44.325  10.310  13.991
43557W        W15971   5.920   5.710   2.733
43558W        W15972  14.105  38.965  13.911
43559W        W15973  13.751  22.011  11.379
43560W        W15974   4.912  40.374   0.799
43561W        W15975  25.700  24.628   4.723
43562W        W15976  31.495  28.489   3.812
43563W        W15977  40.318  35.495   2.750
43564W        W15978  29.002  38.526   2.293
43565W        W15979  44.360  13.148   0.436
43566W        W15980   6.411   9.677   2.851
43567W        W15981  10.718  34.401  14.777
43568W        W15982  19.584  10.738  12.401
43569W        W15983  42.884   5.434   3.146
43570W        W15984   2.254  16.773   1.296
43571W        W15985   8.161   6.307   1.228
43572W        W15986  35.414  26.181  13.849
43573W        W15987  39.826   0.832  13.867
43574W        W15988  36.428  19.760  11.567
43575W        W15989  18.612   8.713  10.109
43576W        W15990   5.792   5.206  13.953
43577W        W15991  19.591  41.525  14.919
43578W        W15992  37.892  33.573   0.245
43579W        W15993  19.549  12.728  11.937
43580W        W15994  44.924  31.561   2.841
43581W        W15995  11.759   1.309   3.711
43582W        W15996  23.539  41.403   3.184
43583W        W15997   4.229  44.870   4.804
43584W        W15998   6.694   1.468  14.420
43585W        W15999  43.373   0.746  10.544
43586W        W16000   6.274   5.263  10.979
43587W        W16001  42.359  10.786   4.116
43588W        W16002  34.091   4.435   3.856
43589W        W16003  27.633  10.864  11.098
43590W        W16004  20.646   5.405   0.840
43591W        W16005   0.746   3.797   1.902
43592W        W16006  30.447   6.253   1.282
43593W        W16007  10.731   3.800   3.182
43594W        W16008  26.618  25.128   3.799
43595W        W16009  17.194  16.088   2.719
43596W        W16010   7.727  25.661  13.019
43597W        W16011  33.083  23.135  13.889
43598W        W16012  37.550  17.072  10.933
43599W        W16013  42.996  15.805  11.386
43600W        W16014  23.010  22.185  12.558
43601W        W16015  16.208  14.829  14.775
43602W        W16016  14.638  39.496   1.339
43603W        W16017  30.601  34.930  13.518
43604W        W16018  10.155   4.775  12.403
43605W        W16019  32.415  40.421   1.238
43606W        W16020  34.552  44.891  12.496
43607W        W16021  43.447  40.446  13.348
43608W        W16022   6.832   6.890  11.034
43609W        W16023  34.030  35.872   2.365
43610W        W16024  37.472  29.028   3.749
43611W        W16025   5.267  19.574  14.892
43612W        W16026  38.858  42.492   0.353
43613W        W16027  19.255  30.125   4.205
43614W        W16028  31.605   9.330  11.999
43615W        W16029  19.739  32.437   3.227
43616W        W16030   9.342  30.420  14.337
43617W        W16031  27.506  22.724   3.859
43618W        W16032  35.075  32.580   3.206
43619W        W16033  20.596  14.269   0.385
43620W        W16034   3.356  16.233  11.055
43621W        W16035  27.175  22.694  12.495
43622W        W16036  10.704  35.362   4.326
43623W        W16037   6.308  17.099   2.784
43624W        W16038  10.373  37.422   0.746
43625W        W16039  31.027  17.303  11.940
43626W        W16040  21.173  13.133  13.962
43627W        W16041   1.905  24.654  14.833
43628W        W16042   0.316   6.352  12.040
43629W        W16043  38.040  23.695   2.664
43630W        W16044  37.336  29.146  12.893
43631W        W16045   6.301  38.931  11.944
43632W        W16046  27.552  43.425   4.661
43633W        W16047  11.865  33.624   1.778
43634W        W16048  29.433  12.202  12.825
43635W        W16049  38.343  32.459   0.482
43636W        W16050  41.873   7.770   3.150
43637W        W16051  34.436  34.441   4.670
43638W        W16052  14.113  14.211   1.783
43639W        W16053  34.479  40.491   1.400
43640W        W16054  28.576  11.344   1.274
43641W        W16055   2.234   2.438   3.366
43642W        W16056  27.117  34.931  13.544
43643W        W16057  10.740  23.682   0.353
43644W        W16058  38.994  20.123  13.819
43645W        W16059  15.240  20.261  11.000
43646W        W16060   8.672  21.615  10.421
43647W        W16061  21.748  22.665  10.542
43648W        W16062  37.967  26.972  12.422
43649W        W16063  31.503  22.582   2.721
43650W        W16064  40.497  10.764   1.799
43651W        W16065  37.920   2.281   3.178
43652W        W16066  16.797  21.049   0.819
43653W        W16067   1.407  22.596   0.792
43654W        W16068  41.352  23.053  13.054
43655W        W16069  40.977  14.194  13.359
43656W        W16070   1.444   9.152   4.124
43657W        W16071  15.603  43.021  11.905
43658W        W16072  36.029  20.033  11.041
43659W        W16073  34.915   9.301  13.859
43660W        W16074  41.978  41.507  14.838
43661W        W16075   2.384  21.749   0.319
43662W        W16076  13.168  32.911   0.915
43663W        W16077  23.718  31.924  13.046
43664W        W16078  44.295  34.451   1.851
43665W        W16079  44.932  41.410   0.392
43666W        W16080  43.014  26.135   2.887
43667W        W16081   3.335  40.304   4.343
43668W        W16082  10.199  20.243  12.000
43669W        W16083  13.349  28.165   4.142
43670W        W16084  26.603  35.004  14.314
43671W        W16085  41.864  26.700  11.088
43672W        W16086  14.313   3.755  11.438
43673W        W16087  39.948  24.695  14.905
43674W        W16088  20.171  21.721   0.455
43675W        W16089  22.206  34.368  14.337
43676W        W16090  32.545  23.986  12.050
43677W        W16091  35.546  44.309  13.972
43678W        W16092  43.338   6.187  13.515
43679W        W16093  42.482   1.958   3.360
43680W        W16094  20.636  36.953   3.819
43681W        W16095  14.790   0.468  13.520
43682W        W16096  37.871  31.153  13.324
43683W        W16097  34.119  25.159  11.904
43684W        W16098  21.701  31.602   3.684
43685W        W16099  42.341  42.822  10.466
43686W        W16100  31.061  34.381   2.784
43687W        W16101   7.814  36.055   2.264
43688W        W16102  43.913  37.076  12.421
43689W        W16103   2.929  28.491   0.378
43690W        W16104  37.488  33.393   2.732
43691W        W16105  27.084  41.486  13.540
43692W        W16106   9.156  40.900   1.847
43693W        W16107  31.913  26.652  14.288
43694W        W16108  24.047  16.667  14.793
43695W        W16109   6.427   5.432  12.837
43696W        W16110   0.322  23.586  14.812
43697W        W16111   0.443   8.194  13.056
43698W        W16112  33.542  28.596  10.041
43699W        W16113  33.448  40.469  10.437
43700W        W16114   2.397  30.611   3.167
43701W        W16115  23.650  23.011   4.304
43702W        W16116  41.337  14.258   2.791
43703W        W16117   4.779   4.853   0.470
43704W        W16118  27.034  20.737   1.710
43705W        W16119  21.680  13.248   2.286
43706W        W16120  21.176  30.985   2.224
43707W        W16121   7.785   9.342   1.229
43708W        W16122   4.316  41.489  14.884
43709W        W16123  30.468  12.789   0.443
43710W        W16124  10.196   3.368   0.942
43711W        W16125  22.242  20.032   0.467
43712W        W16126  29.105  20.036   4.283
43713W        W16127  43.864   0.896   4.163
43714W        W16128  39.064  15.821  10.419
43715W        W16129  41.468  41.794  14.767
43716W        W16130   3.727  12.784   0.261
43717W        W16131  28.178   4.803   4.691
43718W        W16132  10.258  18.205   2.669
43719W        W16133   5.859   1.825  12.833
43720W        W16134  33.125  38.470  14.379
43721W        W16135  15.680  36.438  13.329
43722W        W16136  16.704  43.005  14.973
43723W        W16137  39.426  34.952  12.907
43724W        W16138  18.172   9.205  11.987
43725W        W16139  44.296  33.577   3.275
43726W        W16140  19.535  29.573  14.438
43727W        W16141  39.057  32.031  12.040
43728W        W16142  42.785  18.245   2.292
43729W        W16143  30.068  44.502  13.975
43730W        W16144   7.405  21.745  13.377
43731W        W16145   4.736  33.069  11.481
43732W        W16146  20.762  34.898  12.412
43733W        W16147  39.539  35.983   2.219
43734W        W16148  22.146  41.000   1.444
43735W        W16149  25.210  13.166  12.953
43736W        W16150  13.108  44.914  11.117
43737W        W16151   4.408  12.299   3.690
43738W        W16152  11.803  20.563  14.381
43739W        W16153  41.896  11.745  12.372
43740W        W16154  16.792  40.371   0.897
43741W        W16155  14.730  38.520   2.796
43742W        W16156  41.999  42.328   3.387
43743W        W16157   4.749   8.859   5.193
43744W        W16158  19.058  36.542  11.517
43745W        W16159  39.356  42.286  14.908
43746W        W16160   0.798  31.559  14.425
43747W        W16161  43.891  18.052  13.966
43748W        W16162   2.885  34.059   0.893
43749W        W16163  28.070   3.934  14.412
43750W        W16164  30.156  16.301   4.311
43751W        W16165  41.816  38.406   2.791
43752W        W16166  40.314  24.145   3.644
43753W        W16167  14.738  35.582  13.050
43754W        W16168   8.385  12.678   0.800
43755W        W16169  15.115  42.031  14.995
43756W        W16170  24.989  36.533   4.124
43757W        W16171  39.004  12.270  14.905
43758W        W16172  42.364  16.112   2.348
43759W        W16173  13.770  29.554  12.355
43760W        W16174  26.084  17.734   3.270
43761W        W16175  14.685   4.767  10.493
43762W        W16176  33.013  31.549   1.845
43763W        W16177  25.093  41.524  13.959
43764W        W16178   8.386  10.766   1.370
43765W        W16179   6.315  31.419  13.865
43766W        W16180  15.730   0.761  11.018
43767W        W16181  25.670  28.936   2.337
43768W        W16182   4.217  27.124  13.334
43769W        W16183  44.999  36.031  13.829
43770W        W16184  27.182  13.751  10.933
43771W        W16185  42.025  36.019  12.863
43772W        W16186  28.147  25.496   2.828
43773W        W16187   6.203  23.512   5.297
43774W        W16188  16.287  23.619   0.402
43775W        W16189  32.564  39.439   0.933
43776W        W16190  36.002  23.692   0.933
43777W        W16191   7.894  11.162   4.835
43778W        W16192  27.613   1.336   1.921
43779W        W16193   3.920  16.700  13.961
43780W        W16194  33.625   2.931  14.845
43781W        W16195   1.847  13.762   1.853
43782W        W16196  41.324   5.796  12.876
43783W        W16197  19.568  15.617  14.788
43784W        W16198  16.728  10.745   1.813
43785W        W16199  34.001   5.715  14.012
43786W        W16200  44.288  13.340   1.878
43787W        W16201  42.945   4.310  13.034
43788W        W16202  24.555   3.326   2.858
43789W        W16203  40.848  37.358  11.600
43790W        W16204  28.462  12.794  12.463
43791W        W16205  27.530  39.545   4.787
43792W        W16206  30.427  35.094  12.857
43793W        W16207  32.040   1.793  13.885
43794W        W16208  18.295  23.143  11.441
43795W        W16209  11.362  16.108  12.576
43796W        W16210  42.400  25.171   2.370
43797W        W16211  20.728  36.570  14.836
43798W        W16212  35.435  27.976  11.038
43799W        W16213  41.317  16.575   2.201
43800W        W16214  17.231  43.360   1.259
43801W        W16215   4.237  22.683  13.485
43802W        W16216  10.837   4.803   3.278
43803W        W16217  37.433  19.733   1.857
43804W        W16218  15.162  15.709  11.079
43805W        W16219  15.731   8.387  14.361
43806W        W16220  31.422  13.113   2.302
43807W        W16221  22.675   7.673   5.214
43808W        W16222  31.460  32.890   0.318
43809W        W16223   1.962  31.051  14.815
43810W        W16224  32.410   9.741  11.419
43811W        W16225  23.076  35.889   0.300
43812W        W16226  28.186   8.825   2.395
43813W        W16227   2.767  42.496   1.806
43814W        W16228   4.878  39.382  12.069
43815W        W16229  34.067  14.294   0.353
43816W        W16230  19.192  32.906   4.244
43817W        W16231   0.754  14.100   4.835
43818W        W16232  16.725  42.929  11.908
43819W        W16233  37.933  12.227   2.237
43820W        W16234   4.751  31.032  14.946
43821W        W16235  21.721  18.650   2.798
43822W        W16236  29.028  32.501   3.736
43823W        W16237  16.077  17.659  14.787
43824W        W16238  40.429  21.631  10.500
43825W        W16239  36.449  28.439   2.224
43826W        W16240   8.820  28.592  13.991
43827W        W16241  40.508  34.519   3.700
43828W        W16242  16.590  20.191   1.272
43829W        W16243   9.877  43.394   3.176
43830W        W16244  29.651  12.857  10.597
43831W        W16245  23.122  14.200   2.355
43832W        W16246  37.923  28.680  12.470
43833W        W16247  25.218  22.215   3.364
43834W        W16248  25.967  11.790   4.269
43835W        W16249   8.176   2.879   3.754
43836W        W16250   4.866   0.473   1.827
43837W        W16251   6.693  29.144  14.907
43838W        W16252  44.999  11.278  10.411
43839W        W16253   2.346   7.900   2.805
43840W        W16254  12.795  30.956   4.183
43841W        W16255   3.826  12.618   2.809
43842W        W16256  42.313  37.906   0.434
43843W        W16257  15.603  41.039   0.410
43844W        W16258  18.055  40.950   3.262
43845W        W16259  17.556  13.286  13.006
43846W        W16260  19.108  40.864  14.324
43847W        W16261  16.588  37.954   2.814
43848W        W16262   2.762   3.387  11.865
43849W        W16263   6.357  43.962   0.765
43850W        W16264  30.937   9.181   4.607
43851W        W16265  36.359   1.791  13.995
43852W        W16266  25.703   2.428  11.041
43853W        W16267  17.753   5.835  10.918
43854W        W16268  17.108  14.717   1.811
43855W        W16269   7.234  11.792  13.791
43856W        W16270  40.974  42.992   4.266
43857W        W16271  27.081  38.028   0.435
43858W        W16272  34.064   1.410   2.263
43859W        W16273  16.613  21.109  11.493
43860W        W16274  27.102  10.168   3.633
43861W        W16275  31.404  20.739  12.863
43862W        W16276  24.706  26.189  10.416
43863W        W16277  23.121  23.641  12.991
43864W        W16278  16.593  35.542  14.833
43865W        W16279   0.463  27.154   2.309
43866W        W16280  12.805  23.637  11.467
43867W        W16281  20.717  16.642   3.243
43868W        W16282  27.946  30.555   2.739
43869W        W16283   5.321  19.615   2.304
43870W        W16284   2.959   7.692   3.753
43871W        W16285   6.365   5.319  14.468
43872W        W16286  43.428  29.918   3.328
43873W        W16287  19.264  15.262   3.816
43874W        W16288  42.280  40.486  14.401
43875W        W16289  36.496  40.501  11.065
43876W        W16290  29.933  19.685   0.468
43877W        W16291  42.289  23.119  13.464
43878W        W16292  33.549  26.181   3.751
43879W        W16293  21.557  13.301  11.448
43880W        W16294   2.926  29.447   0.321
43881W        W16295  26.172   3.388   4.305
43882W        W16296  25.208  24.592   2.873
43883W        W16297  39.982  28.538  13.857
43884W        W16298  19.602   6.883   4.629
43885W        W16299  26.553  40.830   2.231
43886W        W16300  32.443  17.265   2.693
43887W        W16301  16.190  42.460   3.178
43888W        W16302  40.469  35.491  11.605
43889W        W16303  24.631  20.669  12.441
43890W        W16304  31.073  11.147   0.872
43891W        W16305  39.942  22.624   1.901
43892W        W16306  14.291  24.227   1.425
43893W        W16307   8.269  35.983   3.297
43894W        W16308  15.821  41.885   1.712
43895W        W16309  31.133  25.965  12.010
43896W        W16310  35.033  32.569   0.356
43897W        W16311  25.578  44.347  11.034
43898W        W16312  23.644  14.719  10.538
43899W        W16313  19.658  14.626   3.384
43900W        W16314  16.217  44.483   4.709
43901W        W16315  34.947  31.055  14.920
43902W        W16316  20.065  33.573   2.821
43903W        W16317  18.784  33.395   3.663
43904W        W16318  12.134   3.902  11.085
43905W        W16319   8.697  39.399   3.654
43906W        W16320   2.905  29.595   1.307
43907W        W16321  23.996  38.497   4.187
43908W        W16322  22.163   4.406  10.425
43909W        W16323  34.976  24.058  11.874
43910W        W16324  14.102   1.335   2.322
43911W        W16325  24.183  14.175   9.972
43912W        W16326   7.385  23.023   3.838
43913W        W16327  37.397   4.368   3.193
43914W        W16328  30.090  18.550  10.939
43915W        W16329   6.394  42.987   0.417
43916W        W16330   6.293  14.136   2.309
43917W        W16331  43.457  38.497  11.064
43918W        W16332  12.149   8.664  12.090
43919W        W16333  23.004  34.079   0.483
43920W        W16334  40.039  16.680  11.514
43921W        W16335  32.132  25.536  13.389
43922W        W16336  24.707  40.357   2.296
43923W        W16337   7.282  11.715  11.996
43924W        W16338   1.332  23.050  10.908
43925W        W16339   2.739  39.386  14.473
43926W        W16340  38.362   8.747  10.512
43927W        W16341  17.564  14.608  11.068
43928W        W16342  29.425  15.820  10.051
43929W        W16343   2.940  18.125   2.812
43930W        W16344  13.193  39.424   0.431
43931W        W16345   2.364  31.487  12.548
43932W        W16346   6.237  10.801   3.814
43933W        W16347   0.945  36.046   2.266
43934W        W16348  44.982  16.668   0.439
43935W        W16349  25.485  18.761  12.385
43936W        W16350   8.264  22.157   3.866
43937W        W16351  25.683  41.339   5.310
43938W        W16352   7.671  19.255   1.821
43939W        W16353  25.557  17.131   4.623
43940W        W16354  26.052  28.459  13.319
43941W        W16355  10.853  33.591   1.257
43942W        W16356  44.972  28.939   0.780
43943W        W16357  28.017   7.219  14.278
43944W        W16358   0.796  23.581  14.359
43945W        W16359  42.930  21.537  13.830
43946W        W16360  25.047  33.439   1.812
43947W        W16361  14.152  44.835   2.301
43948W        W16362  43.485  14.279   1.449
43949W        W16363  43.939  23.076   0.957
43950W        W16364  31.575  21.193  14.817
43951W        W16365  29.174  11.848  13.952
43952W        W16366  19.765  35.002   4.630
43953W        W16367   7.838   4.391   1.438
43954W        W16368  39.890  32.038   0.362
43955W        W16369  16.736  19.134   4.720
43956W        W16370  35.891  21.183   2.734
43957W        W16371  34.883   6.319  14.892
43958W        W16372  24.663  19.089   3.207
43959W        W16373  42.518  13.242   2.289
43960W        W16374  10.652  36.352  12.480
43961W        W16375  20.726  25.113  11.559
43962W        W16376  34.593   8.245  11.917
43963W        W16377  40.968  39.420  11.065
43964W        W16378  34.954  16.107  11.540
43965W        W16379  44.487  35.872   2.375
43966W        W16380  15.162  17.714  11.872
43967W        W16381  22.668   2.278  14.893
43968W        W16382  36.939  29.050   4.633
43969W        W16383   5.196  23.690  11.541
43970W        W16384  20.559   9.703  13.447
43971W        W16385  37.427  44.350  14.345
43972W        W16386  11.230  11.146   2.223
43973W        W16387  43.432  35.376  11.006
43974W        W16388  12.801  12.324   4.266
43975W        W16389  23.696  27.059   3.774
43976W        W16390  20.255  27.532   2.714
43977W        W16391  20.028  37.502  14.379
43978W        W16392  12.663  36.400   3.243
43979W        W16393  42.377  13.829   2.348
43980W        W16394   8.264  30.569   4.233
43981W        W16395  10.704  15.312  11.064
43982W        W16396  36.997   0.808  12.445
43983W        W16397  23.653  30.451  11.416
43984W        W16398  41.358  38.897  10.459
43985W        W16399  18.744  37.573   1.721
43986W        W16400  22.169  23.230  12.863
43987W        W16401   8.378  20.183   2.754
43988W        W16402  14.265  40.828   2.182
43989W        W16403  36.462  44.924  11.433
43990W        W16404  43.370  34.036   3.225
43991W        W16405   1.474   4.770   4.220
43992W        W16406  13.144  38.878  11.435
43993W        W16407  25.565  26.146   1.443
43994W        W16408   1.362  41.834   1.232
43995W        W16409  28.503   4.365  10.445
43996W        W16410  28.040  35.486  14.803
43997W        W16411  10.184   5.278  13.358
43998W        W16412   3.237  13.668  14.295
43999W        W16413  13.685  40.038  11.031
44000W        W16414  28.023  38.456  12.498
44001W        W16415   9.817  12.354   3.725
44002W        W16416   7.203  22.500  14.303
44003W        W16417  36.523  14.337  13.423
44004W        W16418  19.137   0.249   0.748
44005W        W16419  44.425  39.987  13.904
44006W        W16420  28.176  18.573   2.761
44007W        W16421  30.633  32.583  10.594
44008W        W16422   0.315  15.198   0.483
44009W        W16423  39.526  13.298  14.454
44010W        W16424  11.189  40.843  12.895
44011W        W16425  36.853  12.768   2.207
44012W        W16426  17.127   0.275   1.412
44013W        W16427   4.265  14.273  13.474
44014W        W16428  41.827   9.827   1.783
44015W        W16429   7.326   7.412   1.277
44016W        W16430  41.518  15.250  13.986
44017W        W16431  13.613  40.875   0.360
44018W        W16432  34.525  29.595  11.032
44019W        W16433  15.669  19.677   5.729
44020W        W16434  19.731  20.575   1.399
44021W        W16435  21.095  17.130  13.494
44022W        W16436  24.171   3.251   2.700
44023W        W16437  35.903  31.039  11.072
44024W        W16438  13.658   6.325   1.301
44025W        W16439  27.691  38.566  12.918
44026W        W16440  34.869  28.013  12.460
44027W        W16441   5.292   6.807  13.352
44028W        W16442  21.081  18.617   1.884
44029W        W16443  25.092  20.041  10.592
44030W        W16444  43.491  43.428   2.734
44031W        W16445  43.471  33.526   3.840
44032W        W16446  19.548   0.938   3.296
44033W        W16447   4.260  30.076   3.367
44034W        W16448   1.419  20.243   3.215
44035W        W16449  40.882  34.443  14.495
44036W        W16450  17.126   9.697   2.315
44037W        W16451  10.723  41.830  14.419
44038W        W16452  43.417  32.912   4.820
44039W        W16453  16.652   9.827   2.741
44040W        W16454  39.423  39.952   0.904
44041W        W16455  32.516  10.633   3.701
44042W        W16456  37.490   0.897  14.850
44043W        W16457   1.394  31.060  11.600
44044W        W16458  22.680  22.647   5.200
44045W        W16459  20.219   3.889   3.744
44046W        W16460  17.251  22.060  11.589
44047W        W16461  24.708  12.664   0.860
44048W        W16462  32.135  38.988   4.234
44049W        W16463  22.657  28.175   3.649
44050W        W16464  18.583  27.633  10.447
44051W        W16465  35.061  28.021  14.846
44052W        W16466  36.429  39.327   2.797
44053W        W16467  28.440  34.497   2.844
44054W        W16468  30.956  15.318  13.937
44055W        W16469  14.122  21.023  12.023
44056W        W16470  37.432  22.591   3.292
44057W        W16471  29.079  41.863  12.982
44058W        W16472  13.121  15.205  13.935
44059W        W16473  29.941  23.074  14.894
44060W        W16474  44.465  10.852   1.706
44061W        W16475  11.638  42.799  11.964
44062W        W16476   1.922  43.485   1.243
44063W        W16477  38.827  13.731  12.364
44064W        W16478  42.778  28.611  11.047
44065W        W16479   6.724  22.145  11.377
44066W        W16480  42.843   6.761   0.250
44067W        W16481  33.050  13.722   0.944
44068W        W16482  25.094  30.139  11.120
44069W        W16483  25.132  15.599   1.818
44070W        W16484  19.248  42.953   1.747
44071W        W16485  34.604  26.149  12.419
44072W        W16486  41.937  23.719  13.470
44073W        W16487  16.780  39.534   4.256
44074W        W16488   9.253  35.444   2.819
44075W        W16489  16.608  37.036   2.769
44076W        W16490  14.632  43.382  11.004
44077W        W16491  31.137  34.374   3.280
44078W        W16492  23.086  43.882   1.830
44079W        W16493  27.533  36.480   4.242
44080W        W16494  24.152  26.645  12.423
44081W        W16495  13.294   5.759   9.587
44082W        W16496  27.096  33.016   2.238
44083W        W16497  42.399  41.826   0.904
44084W        W16498  19.234   9.231   3.204
44085W        W16499  28.185   5.193   2.395
44086W        W16500   8.898   8.367  14.918
44087W        W16501  12.222  34.918  12.472
44088W        W16502  44.471  33.021  12.969
44089W        W16503  30.966  23.069   4.232
44090W        W16504  42.500  28.065  12.913
44091W        W16505  18.052  26.524   2.786
44092W        W16506  26.957   4.725  13.523
44093W        W16507  22.676  15.663   4.660
44094W        W16508  29.622  31.955  11.453
44095W        W16509   5.757  17.705  14.898
44096W        W16510   6.794  23.096   4.702
44097W        W16511  28.002  31.039  14.926
44098W        W16512  35.995  12.849  12.048
44099W        W16513  31.036  28.657   0.416
44100W        W16514  23.529   6.379   1.733
44101W        W16515  27.949  42.332  12.858
44102W        W16516  39.399  41.494   2.721
44103W        W16517  41.842  31.451   1.322
44104W        W16518  43.985  15.612  10.135
44105W        W16519   8.702  42.810   3.344
44106W        W16520  19.603  32.597  10.426
44107W        W16521   5.832  22.130   4.625
44108W        W16522  10.170   0.338  11.515
44109W        W16523  14.298  16.121   4.648
44110W        W16524   4.305   4.320   4.287
44111W        W16525  25.124  17.770   3.703
44112W        W16526  25.990   3.863  14.320
44113W        W16527  17.244   7.198  14.352
44114W        W16528  30.613   2.226   1.778
44115W        W16529  32.604  31.408  13.523
44116W        W16530   9.769   9.310   0.295
44117W        W16531  16.634  13.702   3.658
44118W        W16532  36.518  11.315  13.457
44119W        W16533  21.703  16.241   1.236
44120W        W16534   4.226  24.064  12.042
44121W        W16535  30.481  17.763   2.741
44122W        W16536  42.941  17.568   2.735
44123W        W16537  17.271  26.690  12.528
44124W        W16538  39.948   0.393   2.319
44125W        W16539   8.338  26.005  13.821
44126W        W16540   8.665  30.114  13.056
44127W        W16541  22.119   3.732   3.826
44128W        W16542   3.803  37.079   1.923
44129W        W16543  30.919   4.238  12.096
44130W        W16544  29.060  14.654   2.722
44131W        W16545  38.821  41.433   0.772
44132W        W16546  33.448  44.419   4.130
44133W        W16547  16.637   9.150   2.350
44134W        W16548   0.938   6.855   3.833
44135W        W16549  17.580  39.943   0.796
44136W        W16550  11.631   5.748   2.409
44137W        W16551   3.236  22.099  14.922
44138W        W16552  33.020  39.439  13.959
44139W        W16553   6.682  13.284  11.566
44140W        W16554  28.625  38.943  12.959
44141W        W16555   0.295  14.704  12.920
44142W        W16556  44.851  18.789   4.812
44143W        W16557  41.850  28.672   3.832
44144W        W16558  34.558  35.561  12.047
44145W        W16559  16.093  20.265   0.324
44146W        W16560  20.041   6.743  14.462
44147W        W16561  39.437  40.407  12.996
44148W        W16562  10.192  21.189  13.937
44149W        W16563  29.621  10.244  11.056
44150W        W16564  20.535  26.625  11.997
44151W        W16565  22.690  10.765   1.274
44152W        W16566  39.553  13.693   3.775
44153W        W16567  27.570   9.253  11.601
44154W        W16568  37.916   3.860  11.534
44155W        W16569  23.706  36.381  12.958
44156W        W16570   3.803  36.978  12.931
44157W        W16571   8.892  19.539  12.044
44158W        W16572   2.334  30.428   3.789
44159W        W16573  11.263  29.027  13.409
44160W        W16574  35.029  12.268  13.524
44161W        W16575  27.028  10.174   1.857
44162W        W16576   2.745  26.578  10.592
44163W        W16577   2.423  14.216  12.567
44164W        W16578  23.015  18.653  11.050
44165W        W16579  35.380  13.831   2.814
44166W        W16580   7.226  31.994  12.094
44167W        W16581  15.314   9.656   2.396
44168W        W16582  17.599   7.759  10.949
44169W        W16583  40.987  17.638  14.807
44170W        W16584  42.976  37.567  13.307
44171W        W16585  16.208  44.308  14.486
44172W        W16586  41.003  23.021  10.603
44173W        W16587  30.913  39.367  14.295
44174W        W16588  14.306  19.548  13.888
44175W        W16589  18.646  21.739  12.391
44176W        W16590  16.084  21.657   4.656
44177W        W16591  42.985  24.611  12.437
44178W        W16592  23.654  39.969  13.373
44179W        W16593   6.728  22.196  11.987
44180W        W16594   7.877  11.247   3.730
44181W        W16595  35.555  32.636   3.208
44182W        W16596  19.542  36.395   4.329
44183W        W16597  20.754  32.029  11.465
44184W        W16598  34.942   1.474   2.227
44185W        W16599  22.582  18.231  14.813
44186W        W16600  11.130  42.848   3.348
44187W        W16601  25.122  29.055  12.929
44188W        W16602  21.672  33.906   3.221
44189W        W16603   2.965  43.925   1.887
44190W        W16604  13.607  33.878   4.199
44191W        W16605   8.832  36.912  14.313
44192W        W16606   3.874  28.605   5.089
44193W        W16607  12.834  23.659   0.384
44194W        W16608   5.811  26.541  13.337
44195W        W16609  40.958  29.593  10.957
44196W        W16610  16.266  15.741  10.481
44197W        W16611  38.427  44.367  10.643
44198W        W16612   8.840   4.806   3.833
44199W        W16613  16.796  38.515  11.129
44200W        W16614  25.470  35.477  12.870
44201W        W16615   1.847  22.138   1.932
44202W        W16616  11.624  38.973   2.891
44203W        W16617  44.982  37.920   0.251
44204W        W16618  36.392   6.799   4.341
44205W        W16619   4.333  26.048  12.432
44206W        W16620  40.381  42.821   3.267
44207W        W16621   4.266  16.277  11.389
44208W        W16622   5.784   0.459  11.592
44209W        W16623   6.348   6.805  12.932
44210W        W16624   9.780  42.328   4.833
44211W        W16625   5.869  12.644   5.794
44212W        W16626  35.887  31.916  11.374
44213W        W16627  23.631  26.524   1.403
44214W        W16628  12.260  27.197  12.934
44215W        W16629  13.694   0.890  10.634
44216W        W16630  12.323  36.973   2.202
44217W        W16631  27.104  10.731   4.661
44218W        W16632  22.175   5.768  12.547
44219W        W16633   1.760  10.730  13.976
44220W        W16634  29.942  19.169   3.310
44221W        W16635  34.002  11.786  14.764
44222W        W16636  43.806  20.145  13.423
44223W        W16637  33.502  30.659  11.534
44224W        W16638  14.734  44.315   2.279
44225W        W16639  16.674   7.396   2.305
44226W        W16640  35.936  23.557  12.519
44227W        W16641   0.346  41.803   4.670
44228W        W16642  12.158   0.817  12.395
44229W        W16643  26.508  35.020   1.284
44230W        W16644  33.552   0.950   0.341
44231W        W16645  16.170  22.725   4.180
44232W        W16646   3.322   6.869  11.873
44233W        W16647  37.886  35.035  12.483
44234W        W16648  36.058  40.923   4.696
44235W        W16649  16.684  15.708  12.015
44236W        W16650  36.477  24.554   0.735
44237W        W16651  33.056  13.255   0.330
44238W        W16652   7.262  24.158   4.115
44239W        W16653   0.803  18.288   2.227
44240W        W16654  12.828   3.728   1.252
44241W        W16655  42.940  26.189  10.918
44242W        W16656  19.540  12.778  11.019
44243W        W16657   0.891   8.221  14.858
44244W        W16658  32.543  20.659   3.215
44245W        W16659   8.194  36.908  10.989
44246W        W16660  31.053  33.108   3.749
44247W        W16661  17.727  22.604   1.222
44248W        W16662   9.727  17.251   2.203
44249W        W16663  13.183  33.526  13.826
44250W        W16664  32.483   3.224  10.136
44251W        W16665   5.743   8.709   2.203
44252W        W16666  17.092  28.585  14.985
44253W        W16667  13.844   2.254  14.789
44254W        W16668  30.942  40.456   0.443
44255W        W16669  30.988  36.841   0.449
44256W        W16670  42.389  38.019   0.918
44257W        W16671  37.577  34.054  14.313
44258W        W16672   0.769  31.453   1.336
44259W        W16673  43.431   2.325  13.945
44260W        W16674  35.456  32.416   4.779
44261W        W16675  34.490  40.321   3.733
44262W        W16676   1.766  24.571  13.365
44263W        W16677  24.027  43.959   1.272
44264W        W16678  10.341  29.104   3.745
44265W        W16679  15.620   4.856   1.866
44266W        W16680  38.399  25.706   1.782
44267W        W16681  25.561   9.187   4.206
44268W        W16682   0.828  38.930   5.186
44269W        W16683   9.329  20.721  12.367
44270W        W16684  23.534  19.157  12.523
44271W        W16685  34.051   7.409   3.200
44272W        W16686   0.456   9.767   4.228
44273W        W16687  38.072  13.715  13.410
44274W        W16688  41.422   9.264   4.307
44275W        W16689  33.033  18.687  12.370
44276W        W16690  16.803  30.605   2.745
44277W        W16691   1.472  33.395   2.676
44278W        W16692  42.406   2.727  12.917
44279W        W16693  37.468  21.683   1.929
44280W        W16694   3.242  20.735  10.632
44281W        W16695  37.842   6.898  13.381
44282W        W16696   8.168   1.435  14.970
44283W        W16697  11.240   9.298  14.430
44284W        W16698  42.432  33.468  11.890
44285W        W16699  15.713  40.416  10.470
44286W        W16700   0.943   4.888   2.233
44287W        W16701  41.322  21.174   2.405
44288W        W16702  23.557   4.270  12.496
44289W        W16703   5.252  18.240  12.496
44290W        W16704   9.692  16.586   0.348
44291W        W16705  39.941  10.761  11.417
44292W        W16706  20.542  19.263   0.853
44293W        W16707  13.151  23.083  12.853
44294W        W16708   6.826  43.776   1.794
44295W        W16709  36.404   6.766   4.680
44296W        W16710   4.282  13.724  12.858
44297W        W16711  21.056  42.454   3.177
44298W        W16712  25.013  36.864   4.352
44299W        W16713  22.225  16.661   1.350
44300W        W16714  41.034  18.782   1.389
44301W        W16715  43.318  41.371  11.061
44302W        W16716  37.997  39.810  11.948
44303W        W16717  35.073  33.478   9.920
44304W        W16718  33.123  32.590  10.409
44305W        W16719  42.886  41.814   2.821
44306W        W16720  20.739   5.259   2.675
44307W        W16721   1.775   8.270   3.286
44308W        W16722  20.091  20.762   1.897
44309W        W16723  33.959  13.319  14.905
44310W        W16724  23.097  34.090  12.061
44311W        W16725  26.086   8.717   1.338
44312W        W16726  32.449  24.983   3.821
44313W        W16727  44.302  14.246   1.322
44314W        W16728  41.459  29.436   4.290
44315W        W16729   6.253  43.971  10.560
44316W        W16730  15.593   3.811   3.156
44317W        W16731  44.478  32.437   3.334
44318W        W16732  21.104   9.392  10.562
44319W        W16733   5.924  10.382  13.390
44320W        W16734  40.455  26.625  14.437
44321W        W16735  19.722  13.821  13.469
44322W        W16736  19.533   4.357  14.944
44323W        W16737  24.181   1.429   4.812
44324W        W16738  41.887  31.533   0.429
44325W        W16739  43.919   1.825   1.291
44326W        W16740  17.147   4.708   5.162
44327W        W16741  38.407   0.325   2.747
44328W        W16742   1.826  21.070  12.458
44329W        W16743  18.230  10.757  13.002
44330W        W16744   1.820  33.525   3.225
44331W        W16745  14.757  21.560   3.853
44332W        W16746  40.384   4.291   0.346
44333W        W16747   2.937  13.788  12.360
44334W        W16748  39.825   5.894  12.048
44335W        W16749  15.687   5.882  12.018
44336W        W16750  28.619  11.693  13.432
44337W        W16751  12.241  20.550   3.803
44338W        W16752  34.402   9.193  12.449
44339W        W16753  42.327  35.931  10.442
44340W        W16754  23.115  18.721   2.324
44341W        W16755   6.426  19.202  13.384
44342W        W16756  41.799  11.169  11.014
44343W        W16757  43.390   8.768  12.485
44344W        W16758  18.652  32.934   1.788
44345W        W16759  37.039  28.067  14.779
44346W        W16760  29.960  44.903  13.486
44347W        W16761  18.068  35.442   3.831
44348W        W16762   3.716  23.115  12.392
44349W        W16763  38.943  21.178  14.336
44350W        W16764  24.631  17.621  12.935
44351W        W16765   2.399  17.754   0.886
44352W        W16766   6.776  24.086   1.806
44353W        W16767  24.105  23.147   3.742
44354W        W16768   2.283  23.171   3.829
44355W        W16769  17.642  44.328   4.318
44356W        W16770  37.053  40.438  11.534
44357W        W16771  12.753  22.061  14.838
44358W        W16772  19.760   6.775  11.057
44359W        W16773  12.261  33.423   0.360
44360W        W16774  17.139  31.637  10.914
44361W        W16775  44.774  18.117  13.341
44362W        W16776  12.155   8.343   0.741
44363W        W16777  17.622  36.556   0.963
44364W        W16778  21.666  23.704   2.363
44365W        W16779   7.290  22.191  13.322
44366W        W16780  29.164  32.044  10.114
44367W        W16781  33.448   3.896  12.479
44368W        W16782  37.024   8.331  10.641
44369W        W16783  16.753  26.994   1.758
44370W        W16784   7.751  32.058  13.043
44371W        W16785   1.441  32.923   0.252
44372W        W16786  37.485  25.660  10.430
44373W        W16787   3.913  12.802   3.369
44374W        W16788  38.556   0.491  13.472
44375W        W16789  12.815  33.604   0.409
44376W        W16790   8.822  16.792  10.435
44377W        W16791  15.132  19.651   3.717
44378W        W16792  15.265  18.058   2.241
44379W        W16793  23.080   1.348   1.873
44380W        W16794  16.757  11.337  12.461
44381W        W16795  10.358   8.331  11.013
44382W        W16796   2.424  17.684   3.367
44383W        W16797   3.431   2.412   3.213
44384W        W16798  20.091  44.296   5.802
44385W        W16799  18.141  29.547  10.409
44386W        W16800  31.093   0.975   4.759
44387W        W16801  30.131   0.937   4.752
44388W        W16802  28.675   3.850   2.700
44389W        W16803  38.852  23.631   4.343
44390W        W16804   4.308  23.674   0.863
44391W        W16805  30.444  21.658   2.355
44392W        W16806  29.051  13.620   3.743
44393W        W16807   7.809  25.969   4.837
44394W        W16808   8.664  14.790   3.768
44395W        W16809  30.559  36.888   4.715
44396W        W16810   4.746  20.196   3.712
44397W        W16811   7.285  18.687  14.837
44398W        W16812   7.886  13.266   4.626
44399W        W16813  23.604   4.703  10.481
44400W        W16814   4.710  16.786   0.835
44401W        W16815  18.111  19.767   2.380
44402W        W16816   9.762  29.617   0.481
44403W        W16817  11.141  41.410  11.373
44404W        W16818   7.393   2.361  12.428
44405W        W16819  21.039   0.378  10.486
44406W        W16820  34.073   3.939   2.306
44407W        W16821   3.384  25.174  11.971
44408W        W16822  44.354  16.654  14.332
44409W        W16823   4.886  11.805  13.314
44410W        W16824  39.056   9.646  14.032
44411W        W16825   7.199  18.619  11.890
44412W        W16826  37.531  11.780   3.772
44413W        W16827  35.887  19.086  14.845
44414W        W16828   7.779  37.474  12.008
44415W        W16829  31.001  13.130   2.260
44416W        W16830  43.969   4.390   1.894
44417W        W16831  24.034  18.259  11.928
44418W        W16832  31.968   2.780   1.384
44419W        W16833  18.165  33.958  13.541
44420W        W16834  15.280  39.336   3.860
44421W        W16835  36.393  21.749   0.787
44422W        W16836   6.350  16.127   1.256
44423W        W16837  44.009  20.531  11.543
44424W        W16838   8.263  13.338  12.423
44425W        W16839   6.234  41.899  12.544
44426W        W16840   4.868  18.285   1.711
44427W        W16841   3.797   2.310   4.299
44428W        W16842   4.230  33.616   0.280
44429W        W16843   0.489  12.140  11.070
44430W        W16844  23.222  14.672   1.709
44431W        W16845  19.543  22.076  13.513
44432W        W16846  10.368  44.402  12.498
44433W        W16847  44.411  20.687   3.664
44434W        W16848  44.857  20.718   4.209
44435W        W16849  29.568   7.326   2.254
44436W        W16850  17.126  36.371  14.315
44437W        W16851  13.803  27.152  12.524
44438W        W16852  14.167  30.518  12.038
44439W        W16853  44.323  35.869  11.580
44440W        W16854  33.113  21.055   2.183
44441W        W16855   9.181   3.334   5.271
44442W        W16856  28.560  17.255  10.404
44443W        W16857  40.931  42.418  14.955
44444W        W16858  13.844  41.429  13.414
44445W        W16859  13.649  23.673  10.626
44446W        W16860  12.284  27.592  13.849
44447W        W16861  29.993  27.033   0.826
44448W        W16862  37.846  14.153   0.265
44449W        W16863  29.089   4.427   4.209
44450W        W16864  40.446  13.276  12.476
44451W        W16865   5.727  36.488  11.075
44452W        W16866  11.830  41.331  13.512
44453W        W16867  37.488  18.209   4.338
44454W        W16868  18.116   0.350  10.897
44455W        W16869   1.357  22.730  13.442
44456W        W16870  25.129  10.355   3.286
44457W        W16871  44.261  18.204   4.698
44458W        W16872  32.521  27.093  11.066
44459W        W16873  42.015  31.912  12.897
44460W        W16874   7.356  14.723  10.499
44461W        W16875  11.788  23.109  13.971
44462W        W16876  37.467  23.509   0.810
44463W        W16877  28.442  33.992  13.355
44464W        W16878  11.353  33.544   2.672
44465W        W16879  37.545  25.022  10.134
44466W        W16880  10.773  43.412   1.367
44467W        W16881  21.033  41.438  11.372
44468W        W16882  41.477  12.334  10.510
44469W        W16883  25.015  20.546   2.845
44470W        W16884   1.903   1.397   4.771
44471W        W16885  19.245  31.042   1.394
44472W        W16886  13.108  30.600   1.244
44473W        W16887  32.068  30.451  14.908
44474W        W16888   9.269  27.502  10.924
44475W        W16889  23.524  41.346  14.958
44476W        W16890  16.259  29.146  14.489
44477W        W16891  16.747  33.122  12.879
44478W        W16892  25.029  28.180  10.610
44479W        W16893  25.574  12.221   0.915
44480W        W16894  22.006   4.916  10.964
44481W        W16895   3.453  28.626  12.865
44482W        W16896  14.751   8.898   5.242
44483W        W16897  22.155   8.161   1.432
44484W        W16898  14.781  37.931   2.891
44485W        W16899  19.179   8.340   4.606
44486W        W16900  42.962   8.675  13.812
44487W        W16901  20.688  12.166  13.977
44488W        W16902  16.730  28.145  14.422
44489W        W16903  20.752  30.080   2.344
44490W        W16904  34.488   6.263   0.879
44491W        W16905  24.675  23.010   2.742
44492W        W16906  18.251  40.967   1.442
44493W        W16907  15.629   8.165  10.539
44494W        W16908  40.805  41.898  12.537
44495W        W16909  37.887  41.986  13.431
44496W        W16910   4.435   7.696  14.024
44497W        W16911   1.928  28.026   2.793
44498W        W16912  19.191  35.018  11.956
44499W        W16913  16.309  37.514  12.881
44500W        W16914   4.208  39.505  13.311
44501W        W16915  43.021  28.070   2.780
44502W        W16916   1.245   8.247   4.343
44503W        W16917  14.790  35.492  12.451
44504W        W16918  28.664   5.344  13.487
44505W        W16919  29.947   6.382   1.230
44506W        W16920  37.888  26.072  13.844
44507W        W16921   4.209  30.505  11.383
44508W        W16922  16.692  39.027  11.869
44509W        W16923   7.417  38.570  12.990
44510W        W16924  10.815  40.048  13.451
44511W        W16925  23.050  25.079  13.328
44512W        W16926  25.614   0.442   2.704
44513W        W16927  40.940  20.574  14.809
44514W        W16928  43.966  15.815  13.870
44515W        W16929  24.087  33.571  12.999
44516W        W16930  17.668  33.051   4.210
44517W        W16931  12.729  32.072  12.015
44518W        W16932  24.716  38.032   1.798
44519W        W16933  23.112  33.593  13.412
44520W        W16934  39.386   5.325   0.317
44521W        W16935  15.253  35.439  13.061
44522W        W16936  36.511  22.542   3.702
44523W        W16937  24.144  36.001  10.158
44524W        W16938  27.950  44.350  14.997
44525W        W16939   6.253  19.646   0.756
44526W        W16940  10.339  11.659   4.697
44527W        W16941  39.376  28.456  11.434
44528W        W16942  15.607  32.545  12.384
44529W        W16943  36.552  29.144   3.643
44530W        W16944  43.981  34.429   2.848
44531W        W16945  11.336   2.729   1.905
44532W        W16946   8.776  23.667   0.953
44533W        W16947  18.182   5.890  13.910
44534W        W16948   2.371  31.587  10.518
44535W        W16949  28.938   6.768   1.899
44536W        W16950  40.437  34.576   1.918
44537W        W16951  24.605  16.135  10.899
44538W        W16952  44.771  39.967   0.377
44539W        W16953  10.304   1.893  11.434
44540W        W16954  16.239  18.127  11.574
44541W        W16955   4.784  41.496  10.995
44542W        W16956  22.563  32.493   0.931
44543W        W16957  25.671  25.510   3.201
44544W        W16958  31.584  25.538  12.569
44545W        W16959  27.502  22.699   4.701
44546W        W16960  40.864   3.408   4.822
44547W        W16961  42.299  23.552  13.930
44548W        W16962  39.945  15.231  14.874
44549W        W16963   0.969  26.691   2.726
44550W        W16964  42.396  21.141  14.981
44551W        W16965   1.471  33.051   3.853
44552W        W16966  26.195  15.719   2.710
44553W        W16967   7.181   1.387  11.064
44554W        W16968  29.433  37.488   3.775
44555W        W16969  35.498  23.127   1.785
44556W        W16970  12.236  34.066   1.337
44557W        W16971  39.924  18.058   2.268
44558W        W16972  28.443  41.970   3.323
44559W        W16973  26.082  10.293  10.566
44560W        W16974  35.401  27.016  13.373
44561W        W16975  15.684  32.943  10.463
44562W        W16976  28.437  16.738  14.877
44563W        W16977   5.300  21.215  12.452
44564W        W16978   3.751  12.809   2.344
44565W        W16979  10.380  44.272   1.256
44566W        W16980   9.838  14.266   0.332
44567W        W16981  30.061  18.755   2.736
44568W        W16982   5.377  10.648   1.212
44569W        W16983  24.204  36.021   2.359
44570W        W16984  20.591  43.773   5.308
44571W        W16985  14.660   7.729  11.123
44572W        W16986   0.830  21.056   1.233
44573W        W16987  17.688  32.446   4.633
44574W        W16988  38.868  15.215   2.334
44575W        W16989  14.299  14.654  14.437
44576W        W16990  34.982  25.668   0.767
44577W        W16991   1.377   9.682  13.971
44578W        W16992   1.272  39.931   4.765
44579W        W16993  17.697  15.657  13.004
44580W        W16994  13.193  12.143  11.914
44581W        W16995   1.893  33.554   0.739
44582W        W16996   5.838  17.785  13.866
44583W        W16997  37.940  25.592  12.047
44584W        W16998  23.692  42.888   0.374
44585W        W16999   0.424  15.214   3.233
44586W        W17000  23.565   7.872  14.914
44587W        W17001  38.919  43.970   2.268
44588W        W17002   5.754   1.337   3.343
44589W        W17003   4.293   6.873   2.412
44590W        W17004   4.289   2.259   2.378
44591W        W17005   2.767   1.386  11.972
44592W        W17006  33.047  32.968  12.843
44593W        W17007  28.461  17.779  10.414
44594W        W17008  19.724  41.954   3.649
44595W        W17009  11.719  16.231   2.363
44596W        W17010  23.017  22.582   3.821
44597W        W17011  34.041  24.580  12.081
44598W        W17012  44.451  43.376   4.813
44599W        W17013  40.038  42.327  13.851
44600W        W17014   1.439  12.765   1.227
44601W        W17015  23.009  39.336   1.398
44602W        W17016  11.687  12.186   2.367
44603W        W17017  32.932  26.562  11.584
44604W        W17018  24.166  33.106   0.474
44605W        W17019  40.312   8.866   5.294
44606W        W17020  23.123  25.662   3.867
44607W        W17021   5.392  21.093   1.313
44608W        W17022  29.127  14.145  13.991
44609W        W17023  39.901  13.193  11.569
44610W        W17024  14.640  24.183   1.223
44611W        W17025  32.469   2.291  12.534
44612W        W17026   6.877  15.095   2.186
44613W        W17027  16.785  26.696  13.350
44614W        W17028  15.816  37.933  10.477
44615W        W17029  25.600  36.972  14.514
44616W        W17030  42.853  31.977   3.737
44617W        W17031  33.938   2.412  12.381
44618W        W17032   6.801  34.406  11.588
44619W        W17033  26.135   0.307   4.341
44620W        W17034  13.631  23.236   0.371
44621W        W17035   8.225  19.126   0.937
44622W        W17036   9.690  15.584   1.438
44623W        W17037  31.471  26.521  10.484
44624W        W17038  40.436  41.520  11.431
44625W        W17039  33.932  30.448  14.316
44626W        W17040  24.552  44.284  11.581
44627W        W17041  40.536  11.763  14.510
44628W        W17042   0.485  44.290   4.133
44629W        W17043  21.078  21.738   1.297
44630W        W17044  35.453   0.783  12.995
44631W        W17045  41.427  28.605   1.294
44632W        W17046  17.570  42.302  11.413
44633W        W17047  23.115   0.490  11.875
44634W        W17048  15.772  37.986  12.538
44635W        W17049  44.987   0.295  12.382
44636W        W17050  10.266  16.757  12.360
44637W        W17051  38.926  12.785   1.392
44638W        W17052   4.420   4.376  13.018
44639W        W17053  28.947  15.741   2.207
44640W        W17054   8.796  29.166  10.606
44641W        W17055  40.394  32.572  14.932
44642W        W17056   8.214  18.209   2.308
44643W        W17057  23.194  28.160   9.985
44644W        W17058   2.300   9.710  13.371
44645W        W17059  43.878  20.706   2.776
44646W        W17060  19.096   4.450   1.886
44647W        W17061  14.641  36.969   4.778
44648W        W17062  40.843  24.501  14.889
44649W        W17063  15.299   2.747  13.849
44650W        W17064  21.599   2.836   1.373
44651W        W17065  32.083  41.492  10.069
44652W        W17066  17.091  16.615  12.845
44653W        W17067  38.890  28.037  13.824
44654W        W17068  44.312  35.434  11.508
44655W        W17069   7.240  37.482   1.362
44656W        W17070  15.773  26.179  13.997
44657W        W17071  37.441  35.910  11.093
44658W        W17072  12.242  35.090  13.413
44659W        W17073  40.878  41.518  10.540
44660W        W17074  15.655  17.171   4.732
44661W        W17075  40.447  15.162   2.412
44662W        W17076  36.058  23.590   5.259
44663W        W17077  16.650  26.952   3.279
44664W        W17078  10.319  27.447   3.689
44665W        W17079  43.320  16.202   3.743
44666W        W17080  32.635  44.363   2.706
44667W        W17081   5.887  20.702  14.878
44668W        W17082  16.719  42.394   1.314
44669W        W17083   0.304   2.962  14.407
44670W        W17084   1.463  35.014  11.937
44671W        W17085  44.788  28.143  12.456
44672W        W17086  10.635  26.513  11.109
44673W        W17087  23.099  35.384  13.433
44674W        W17088  41.992  25.012  11.524
44675W        W17089  43.414   9.361   1.856
44676W        W17090   4.923  26.538   0.913
44677W        W17091  32.607   1.970   2.377
44678W        W17092  22.155  20.581   3.229
44679W        W17093  20.657  30.115   3.862
44680W        W17094  16.647  34.445  14.392
44681W        W17095  35.941  37.912   1.722
44682W        W17096  34.092  36.973   3.857
44683W        W17097  36.577  32.100  10.032
44684W        W17098  34.547  13.208  13.894
44685W        W17099  12.162  44.919   1.429
44686W        W17100   9.688   5.430   3.233
44687W        W17101  38.411  41.497   3.713
44688W        W17102  25.962   8.702   4.788
44689W        W17103   3.884   6.198  14.027
44690W        W17104  27.088  26.523   9.973
44691W        W17105  29.512  44.936  14.935
44692W        W17106   1.285  19.133   3.316
44693W        W17107  29.160  23.165  14.462
44694W        W17108   1.290  24.629  13.500
44695W        W17109  43.825   4.297   1.213
44696W        W17110  18.754  40.338  14.889
44697W        W17111  43.449   3.896  14.428
44698W        W17112  36.482  27.026  10.428
44699W        W17113   4.822   7.846  12.874
44700W        W17114  19.752  32.951  14.430
44701W        W17115  31.970  32.425  12.543
44702W        W17116   7.203  38.993  12.494
44703W        W17117  27.192  19.550   3.753
44704W        W17118  36.549  35.034  12.417
44705W        W17119  20.634   8.406   4.787
44706W        W17120  43.270  27.138  14.389
44707W        W17121  41.355   1.364  14.776
44708W        W17122   1.758  35.047  11.117
44709W        W17123  44.944   3.717   0.951
44710W        W17124   1.840  36.973   0.880
44711W        W17125  43.788  22.684  14.874
44712W        W17126  19.077  28.443   0.390
44713W        W17127   4.761  11.357  13.922
44714W        W17128  12.783   6.870   4.348
44715W        W17129  43.277   5.314  13.871
44716W        W17130  23.508  39.872  12.567
44717W        W17131  33.532  10.632   2.820
44718W        W17132  42.010   1.811   2.847
44719W        W17133  36.001  11.750  12.915
44720W        W17134   9.180  25.178  12.011
44721W        W17135   3.431   4.936   4.701
44722W        W17136   5.777  41.490   1.341
44723W        W17137  18.554  21.545   2.709
44724W        W17138  28.647  19.096   0.762
44725W        W17139  34.520   6.917   1.275
44726W        W17140   3.949   1.424   2.285
44727W        W17141  17.584  43.432  14.974
44728W        W17142  24.226  20.547  10.416
44729W        W17143  25.082   7.819  14.306
44730W        W17144  26.638  25.162  10.424
44731W        W17145   9.380  24.618   2.729
44732W        W17146   2.343  29.488  12.558
44733W        W17147   5.342  19.210   3.693
44734W        W17148  23.564  30.948  14.990
44735W        W17149   2.443  31.522  13.876
44736W        W17150   7.745   3.323   0.312
44737W        W17151   9.844  44.357   0.321
44738W        W17152  40.384  41.335  13.064
44739W        W17153  28.101  21.581   3.333
44740W        W17154   1.325  36.902  10.890
44741W        W17155   0.344  11.750  11.516
44742W        W17156  27.986   9.366  14.767
44743W        W17157   5.351  22.137   0.250
44744W        W17158  20.740  30.578   2.224
44745W        W17159  30.070  44.005  10.474
44746W        W17160  21.519   8.315  14.817
44747W        W17161  17.615  27.128   4.236
44748W        W17162   8.200   0.487  14.467
44749W        W17163  33.967  40.407  12.071
44750W        W17164   5.821  41.901   5.261
44751W        W17165  23.695  23.725   4.753
44752W        W17166   3.877  22.567  11.939
44753W        W17167  20.697   0.277   2.771
44754W        W17168  39.901  37.519   1.268
44755W        W17169  42.033  44.849  10.429
44756W        W17170  20.230  23.206   1.214
44757W        W17171   2.915  34.961   1.442
44758W        W17172  39.827   6.698   1.247
44759W        W17173  13.269  12.306   0.885
44760W        W17174  12.157  41.946   3.847
44761W        W17175  32.020  16.156   0.329
44762W        W17176   1.452  15.133   0.420
44763W        W17177  44.375   4.437  11.052
44764W        W17178   6.230   6.791   1.320
44765W        W17179  44.845  40.308   9.966
44766W        W17180  29.089  20.241   2.191
44767W        W17181   1.760  31.063  12.063
44768W        W17182  30.977  24.130  13.023
44769W        W17183  41.863  39.397  13.848
44770W        W17184  39.548  24.076  13.880
44771W        W17185   1.964   2.269   1.293
44772W        W17186  32.049  11.215  10.944
44773W        W17187  15.750   6.807   3.153
44774W        W17188  36.083  25.576   1.362
44775W        W17189  23.194  19.201  14.484
44776W        W17190  39.027  20.651  11.092
44777W        W17191  43.936  14.195  12.086
44778W        W17192   1.882  23.153   1.717
44779W        W17193  28.982  29.112  12.003
44780W        W17194   9.372  19.754   9.976
44781W        W17195   3.740  16.247  13.369
44782W        W17196  42.358  26.174   4.305
44783W        W17197  20.525   8.714  12.576
44784W        W17198  29.927  33.598  14.763
44785W        W17199  22.569  31.420   3.153
44786W        W17200  17.111  19.710  10.155
44787W        W17201   4.301   3.318   3.310
44788W        W17202  29.970  35.571  14.436
44789W        W17203  32.939  25.026  13.021
44790W        W17204  28.621  36.570  13.524
44791W        W17205  33.920  10.656  10.591
44792W        W17206  43.934   7.190   1.725
44793W        W17207  15.680   3.301   1.429
44794W        W17208  15.134  24.051  11.934
44795W        W17209  25.090  35.909  13.878
44796W        W17210  33.882  17.206   3.189
44797W        W17211  44.779  44.787   0.915
44798W        W17212  26.516   5.404  10.459
44799W        W17213  32.495  33.093   1.826
44800W        W17214  12.222  22.611  10.496
44801W        W17215   9.711   8.707   4.270
44802W        W17216   5.799  11.205  13.458
44803W        W17217  16.570   6.402  11.393
44804W        W17218  36.530  34.107   3.832
44805W        W17219   0.327  23.099   4.609
44806W        W17220  24.538   7.187   0.467
44807W        W17221  17.282  39.054   2.868
44808W        W17222  13.230  34.920   3.197
44809W        W17223  35.109  32.896  13.522
44810W        W17224  28.614   2.384  10.480
44811W        W17225  25.620  30.629   4.252
44812W        W17226  12.650   6.252   0.851
44813W        W17227  20.129   9.805   0.800
44814W        W17228   1.897  42.332   1.439
44815W        W17229  30.964  34.586   1.333
44816W        W17230  20.219   0.775  14.378
44817W        W17231  21.087  30.517   0.840
44818W        W17232  33.496   7.378   4.743
44819W        W17233  39.927  36.920  11.489
44820W        W17234  27.969  13.635  10.417
44821W        W17235  28.944  40.985   1.271
44822W        W17236  37.034  18.547   2.393
44823W        W17237  36.963   4.736  12.836
44824W        W17238   6.813  24.673  13.818
44825W        W17239  33.100  10.741   3.313
44826W        W17240  37.465   5.893  13.499
44827W        W17241  22.674  14.116   4.734
44828W        W17242  33.583  37.399   0.461
44829W        W17243   6.799  34.374  14.370
44830W        W17244   2.950  26.516  12.451
44831W        W17245   2.889  16.203   3.677
44832W        W17246  34.456  15.206  13.021
44833W        W17247  19.078  17.102  12.430
44834W        W17248   4.342   7.308   1.446
44835W        W17249   7.823  19.112  13.348
44836W        W17250   3.267   7.730   1.448
44837W        W17251  14.238  18.147  13.402
44838W        W17252  44.412  22.040  12.940
44839W        W17253   1.943  10.864   1.853
44840W        W17254   3.254  21.211  12.875
44841W        W17255  37.370  43.930   0.865
44842W        W17256  23.688  37.405   2.800
44843W        W17257  18.192  36.887  14.324
44844W        W17258  40.873  32.403   3.178
44845W        W17259  41.409  17.590   1.925
44846W        W17260   5.228  19.063  14.790
44847W        W17261  14.193  28.469   0.902
44848W        W17262  36.523   1.937  13.063
44849W        W17263  22.583  40.975   1.377
44850W        W17264  38.355  10.793  10.946
44851W        W17265   0.426  39.372  11.397
44852W        W17266  26.653  27.476  13.494
44853W        W17267  40.360  33.102   1.261
44854W        W17268  22.124  30.460   2.385
44855W        W17269  30.134  29.070  11.503
44856W        W17270  21.701  32.006  14.321
44857W        W17271  31.640  27.125   3.679
44858W        W17272  18.544   2.317   0.371
44859W        W17273  24.612  33.977  14.452
44860W        W17274  22.521  38.454  12.993
44861W        W17275   6.408  30.610  13.390
44862W        W17276  20.532   4.206   0.423
44863W        W17277  17.158  33.556  12.456
44864W        W17278   6.788  38.528   4.730
44865W        W17279   1.762  32.896  14.448
44866W        W17280  34.998   9.791  12.011
44867W        W17281  19.119  35.444  10.607
44868W        W17282  22.722  17.121  14.473
44869W        W17283  41.909  14.247   4.601
44870W        W17284   9.666  11.295  11.055
44871W        W17285   6.748  26.559  11.561
44872W        W17286   3.231  28.109   2.230
44873W        W17287  34.018   0.477  11.518
44874W        W17288   0.776  43.804  11.485
44875W        W17289  24.665   1.354  13.052
44876W        W17290  16.073   9.283   3.692
44877W        W17291  20.208  21.640   3.190
44878W        W17292  22.160  10.860   0.853
44879W        W17293  12.677  18.154   9.994
44880W        W17294  27.617  25.530  12.558
44881W        W17295  13.713   1.365   0.936
44882W        W17296  39.837  35.464  12.057
44883W        W17297  17.209  14.631   0.904
44884W        W17298  22.738  23.146   3.164
44885W        W17299  35.503   2.299   4.691
44886W        W17300  41.932  20.216   3.799
44887W        W17301  17.070  22.631   1.407
44888W        W17302  42.317  32.427  11.986
44889W        W17303  36.399  32.905   1.715
44890W        W17304  23.648  44.898   4.341
44891W        W17305  21.057  44.459   4.632
44892W        W17306   3.718   2.756  14.456
44893W        W17307  37.343  22.032  14.294
44894W        W17308  14.636  19.737  14.379
44895W        W17309   2.415   7.810  13.032
44896W        W17310  39.928  17.737  14.434
44897W        W17311  40.416  13.802   1.351
44898W        W17312   5.829   4.935  11.541
44899W        W17313   3.939  17.156   4.745
44900W        W17314  20.109  27.045  14.479
44901W        W17315  30.512  37.931  12.518
44902W        W17316  10.654  13.131   4.270
44903W        W17317  35.042  30.511  14.406
44904W        W17318   0.430  13.617   4.767
44905W        W17319  41.294   5.693  12.516
44906W        W17320   8.178  32.452  14.403
44907W        W17321  36.350  14.702   0.898
44908W        W17322  30.043  23.705  11.380
44909W        W17323  32.921   4.380  10.538
44910W        W17324  22.605  27.133  12.346
44911W        W17325  34.907  20.570  14.005
44912W        W17326  38.548  39.534  11.391
44913W        W17327  41.968  16.305  11.515
44914W        W17328  21.211  19.621   0.304
44915W        W17329  23.571  25.658  10.540
44916W        W17330   0.975  35.571  14.817
44917W        W17331  16.663   3.318   3.336
44918W        W17332   9.820  28.544   3.189
44919W        W17333   2.258  43.940   3.840
44920W        W17334  11.701  35.385   2.672
44921W        W17335  34.598  19.601   1.765
44922W        W17336  19.592   6.905   2.692
44923W        W17337   9.876  14.744   4.348
44924W        W17338   3.883  35.064   0.912
44925W        W17339  43.796   7.359   3.213
44926W        W17340  37.903  29.936   2.780
44927W        W17341  38.931  12.173  10.547
44928W        W17342  29.957  42.471   2.241
44929W        W17343  24.618   7.184  11.941
44930W        W17344  11.171  34.019  13.912
44931W        W17345  31.564  24.482   2.300
44932W        W17346  35.876  19.195  11.438
44933W        W17347  42.823  40.533  11.095
44934W        W17348  22.625  11.709   0.901
44935W        W17349  41.850  27.164   4.825
44936W        W17350  40.924  26.975   1.872
44937W        W17351  43.454  27.459  10.520
44938W        W17352  10.213  26.153   1.242
44939W        W17353  26.203  31.549   3.753
44940W        W17354  16.093  25.103   4.639
44941W        W17355  20.109  43.927   4.663
44942W        W17356  38.044  12.274  13.968
44943W        W17357  37.520  17.615   0.807
44944W        W17358  25.088  14.332  12.972
44945W        W17359  13.182  13.755   4.171
44946W        W17360  24.219   3.927  12.393
44947W        W17361  13.129  24.189  14.319
44948W        W17362  26.104   1.253  13.951
44949W        W17363  39.386   0.989  14.920
44950W        W17364  30.485  19.551  14.331
44951W        W17365  20.701  37.416  14.761
44952W        W17366  14.259  14.245  12.476
44953W        W17367  32.907  14.769  14.403
44954W        W17368  10.780  25.626  13.496
44955W        W17369  38.056  21.230   1.850
44956W        W17370   5.250  44.392   3.206
44957W        W17371   6.902  25.620   3.314
44958W        W17372  40.919  37.501  13.314
44959W        W17373  10.738   4.401  12.073
44960W        W17374  37.422  24.034   3.379
44961W        W17375  33.925   5.357  14.441
44962W        W17376  25.970  15.616   0.458
44963W        W17377  30.636  41.954   1.227
44964W        W17378  39.475  13.328   4.753
44965W        W17379  25.617  18.699  14.321
44966W        W17380   6.920  10.650  11.963
44967W        W17381  36.923  32.395  11.083
44968W        W17382  17.615  41.948  12.378
44969W        W17383  36.042   8.762   2.760
44970W        W17384  14.285  21.125   2.892
44971W        W17385  22.119   2.740   0.879
44972W        W17386  24.501  43.021   1.835
44973W        W17387   1.423  13.734   0.438
44974W        W17388  13.184  30.020  14.976
44975W        W17389  21.592  28.667   1.917
44976W        W17390   0.983  34.040   3.810
44977W        W17391   9.241  15.167  12.064
44978W        W17392   4.352  26.672   4.673
44979W        W17393  32.393  39.808  11.930
44980W        W17394  30.598  30.053  11.953
44981W        W17395  38.535  26.631   2.400
44982W        W17396  43.349  14.616  10.488
44983W        W17397  15.682   8.774  12.480
44984W        W17398  38.826  26.165  12.074
44985W        W17399  38.982  25.674  13.310
44986W        W17400  21.756  13.122   1.895
44987W        W17401   2.342  21.203  11.524
44988W        W17402  26.087   3.308  13.864
44989W        W17403  33.474  19.728   0.776
44990W        W17404  32.464  42.493   4.146
44991W        W17405  44.279  33.477   4.792
44992W        W17406  24.521   5.270  13.341
44993W        W17407  29.122  27.678  11.891
44994W        W17408  20.176  15.741   3.384
44995W        W17409  30.119   4.939   0.890
44996W        W17410  18.727   7.784  10.610
44997W        W17411  18.735  10.684  12.483
44998W        W17412  32.476  30.655   4.835
44999W        W17413  29.137  25.085   3.703
45000W        W17414  30.093   4.325  14.812
45001W        W17415  41.018  33.462  13.035
45002W        W17416   8.847   2.390  14.286
45003W        W17417  42.499  16.299   4.708
45004W        W17418   7.384  33.958  14.417
45005W        W17419  16.269  34.976   0.351
45006W        W17420  35.941  27.003   1.339
45007W        W17421  30.443  32.036  10.088
45008W        W17422  27.196  35.060  10.969
45009W        W17423  25.199  40.504  11.563
45010W        W17424  28.112  15.294  14.294
45011W        W17425  14.662  41.386   1.221
45012W        W17426   3.856  31.123  13.998
45013W        W17427   5.833  28.624   3.818
45014W        W17428  37.921  26.564   0.846
45015W        W17429  42.951  36.590  14.434
45016W        W17430  38.884  27.605   1.702
45017W        W17431  28.511  31.129   1.905
45018W        W17432  33.991  43.329  13.429
45019W        W17433   9.645  21.263   3.692
45020W        W17434  32.954   4.397  11.080
45021W        W17435  16.119  19.634   0.781
45022W        W17436  42.854  32.041  13.793
45023W        W17437  29.613  32.895   2.317
45024W        W17438  27.684  26.565  12.075
45025W        W17439  22.538  37.566   0.483
45026W        W17440   9.162  43.772   4.683
45027W        W17441  10.149  39.414   1.851
45028W        W17442  15.660  22.564   4.319
45029W        W17443   8.702  23.541   3.326
45030W        W17444   5.298  30.440  10.629
45031W        W17445  33.071  36.501  13.522
45032W        W17446  16.808  43.951   5.211
45033W        W17447  11.193  16.733   1.310
45034W        W17448   0.823  38.567   2.822
45035W        W17449  32.017  26.688   4.823
45036W        W17450   2.445  25.966   3.738
45037W        W17451  32.040   2.314  10.418
45038W        W17452   7.287  34.603  10.991
45039W        W17453  10.755  37.554  10.996
45040W        W17454  26.578  12.294  12.831
45041W        W17455   2.858  14.641  10.130
45042W        W17456  12.218  15.603   1.874
45043W        W17457  26.150  42.318   0.353
45044W        W17458  20.614  40.442  11.893
45045W        W17459   5.760  36.923  11.068
45046W        W17460  41.473  19.197  12.513
45047W        W17461  25.697  24.507  12.953
45048W        W17462  26.488  29.431  13.040
45049W        W17463  30.938  30.131  12.847
45050W        W17464  42.475  13.123  13.902
45051W        W17465  25.187  18.772   5.225
45052W        W17466  12.754  35.364  12.097
45053W        W17467   8.262  41.466  12.500
45054W        W17468   4.886  18.752   9.921
45055W        W17469   4.925  10.648   2.271
45056W        W17470   3.870   0.896   4.339
45057W        W17471  10.866  33.486  12.575
45058W        W17472   2.881  36.409   0.257
45059W        W17473  34.903   8.221  12.369
45060W        W17474   9.815  33.906  11.375
45061W        W17475  21.605   3.796  12.031
45062W        W17476  31.921  21.030  12.527
45063W        W17477  33.094  14.822  11.503
45064W        W17478  36.385   7.678  11.954
45065W        W17479   0.882  32.438  11.111
45066W        W17480  18.772  12.336   1.732
45067W        W17481  29.503  31.596  10.530
45068W        W17482  44.487  40.528  12.939
45069W        W17483  28.496  15.640  14.853
45070W        W17484   4.715  29.619   2.330
45071W        W17485  11.193  30.642   0.921
45072W        W17486  29.172  32.906   1.709
45073W        W17487   6.258   6.197  14.767
45074W        W17488  40.984   5.410   3.765
45075W        W17489  13.149  10.765   4.749
45076W        W17490   5.207   8.392   1.870
45077W        W17491  35.078   3.269  10.919
45078W        W17492   5.867  11.714  13.388
45079W        W17493  44.332  32.430  13.492
45080W        W17494  42.871   4.904   2.675
45081W        W17495  12.163  38.999  11.903
45082W        W17496  43.498  15.201  14.281
45083W        W17497   4.232  41.461  13.898
45084W        W17498  31.083  42.860   3.273
45085W        W17499  13.214   4.909  10.041
45086W        W17500  26.642  11.361  10.456
45087W        W17501   7.356  13.625  10.584
45088W        W17502  29.651   5.421   0.885
45089W        W17503   3.418  23.014   4.174
45090W        W17504  11.372  27.618   4.824
45091W        W17505  15.137   1.811  12.834
45092W        W17506  28.022  34.910   2.234
45093W        W17507   4.907  40.912  13.322
45094W        W17508  35.503  14.314   0.749
45095W        W17509  44.468  34.076   1.765
45096W        W17510  26.506  34.446  12.499
45097W        W17511   1.258  35.437  11.524
45098W        W17512  17.693  27.616  14.965
45099W        W17513  37.956  29.080  11.015
45100W        W17514  33.512  26.057  12.463
45101W        W17515  10.717  31.946  11.566
45102W        W17516  39.546  25.095   3.672
45103W        W17517  32.950   2.250  14.362
45104W        W17518  30.059  24.170  14.972
45105W        W17519   6.346  15.641  13.889
45106W        W17520  15.659   1.295  10.504
45107W        W17521  44.401  17.129  11.950
45108W        W17522  35.575  31.445   0.394
45109W        W17523  26.061  29.454   4.813
45110W        W17524   5.793  22.706  13.802
45111W        W17525  33.444   7.282   1.271
45112W        W17526  18.615  14.593   4.702
45113W        W17527  10.277  18.629  11.061
45114W        W17528  21.583  38.919   0.857
45115W        W17529  38.347  29.050  10.494
45116W        W17530   1.762   4.937  12.051
45117W        W17531  17.275  22.529   2.332
45118W        W17532  10.187  36.972   0.800
45119W        W17533   8.854   4.757   1.412
45120W        W17534  34.568  24.024  10.040
45121W        W17535   4.924  29.642   5.255
45122W        W17536  41.941   7.403  12.479
45123W        W17537   4.280  16.657  10.891
45124W        W17538  29.651   9.223  10.409
45125W        W17539  36.977  22.652  12.398
45126W        W17540  16.748  17.701   9.593
45127W        W17541  44.266  12.218  13.317
45128W        W17542   5.377  20.688  13.827
45129W        W17543  22.524  25.549   1.741
45130W        W17544  19.116  24.605  13.544
45131W        W17545   9.208  17.141  13.445
45132W        W17546  34.461  37.397  13.913
45133W        W17547  24.604  25.544  13.908
45134W        W17548  14.283   0.898   2.308
45135W        W17549  21.227   3.415  12.942
45136W        W17550  21.629  35.975  14.032
45137W        W17551  43.469  10.369  12.930
45138W        W17552  11.130  36.050  11.029
45139W        W17553  18.564   5.782   1.306
45140W        W17554   8.318  24.497   3.676
45141W        W17555  39.990   3.380  13.448
45142W        W17556  11.836  19.556   3.275
45143W        W17557   3.840   2.439  12.557
45144W        W17558  36.363   5.693   1.740
45145W        W17559  35.588  23.044   5.207
45146W        W17560  18.699   2.304  11.377
45147W        W17561   1.264   5.713   1.263
45148W        W17562   2.742  27.477   1.245
45149W        W17563   8.256  24.067  13.371
45150W        W17564  24.199  12.755   4.169
45151W        W17565  22.067  44.913   2.215
45152W        W17566  42.919  40.809  12.891
45153W        W17567  29.005  30.956  10.969
45154W        W17568  23.717  32.511  11.025
45155W        W17569  29.502   4.211   4.757
45156W        W17570  33.508  18.281  14.408
45157W        W17571  43.479  31.128   0.271
45158W        W17572   2.350  44.398   4.280
45159W        W17573  27.086  19.091   3.692
45160W        W17574  39.527   4.905   2.843
45161W        W17575  15.622  12.182   1.333
45162W        W17576  35.472  25.135  13.528
45163W        W17577  31.431  27.064   1.851
45164W        W17578   4.879  41.369  13.861
45165W        W17579   0.481  19.204   2.803
45166W        W17580  14.286   6.291  12.887
45167W        W17581  38.860  15.713  12.835
45168W        W17582  44.280  38.017   2.761
45169W        W17583  36.369  19.698  10.953
45170W        W17584  13.106  16.573  11.859
45171W        W17585   5.357   8.820  12.479
45172W        W17586   7.785  19.196  12.381
45173W        W17587  31.945  19.561   1.924
45174W        W17588  31.982  41.465  11.126
45175W        W17589  25.011   5.857  10.403
45176W        W17590  30.532  44.352   4.174
45177W        W17591  36.472  44.354  14.809
45178W        W17592  21.254  39.989  10.644
45179W        W17593  11.150  10.683  10.950
45180W        W17594  30.472   2.406   5.161
45181W        W17595   3.442  14.185  11.061
45182W        W17596   2.756   7.284  11.006
45183W        W17597  19.757  26.972   0.948
45184W        W17598   2.289  10.186  14.913
45185W        W17599  42.014  21.158  14.469
45186W        W17600   0.931   0.868  14.893
45187W        W17601  29.534  42.308  11.375
45188W        W17602  37.837   2.427   3.667
45189W        W17603   4.434  18.606  11.562
45190W        W17604  36.872  20.720   3.291
45191W        W17605   7.334   0.960  11.867
45192W        W17606  43.976  32.470  12.396
45193W        W17607  38.552   5.899   3.860
45194W        W17608  16.249  19.676   3.630
45195W        W17609  13.156  40.047  14.979
45196W        W17610   3.926  20.169  10.415
45197W        W17611   9.765  23.674   1.719
45198W        W17612   4.411   3.423  10.440
45199W        W17613  40.987  30.078   1.330
45200W        W17614  33.532  36.934   4.801
45201W        W17615   5.812  38.006  12.379
45202W        W17616   2.834  25.497   4.264
45203W        W17617  44.359  34.087  12.469
45204W        W17618  18.665  34.505   2.410
45205W        W17619  30.921  44.390   3.206
45206W        W17620  37.050  30.962  14.837
45207W        W17621  26.539  16.628   4.712
45208W        W17622  30.608  26.000  12.567
45209W        W17623  15.592  43.931  10.478
45210W        W17624  22.540   2.423   4.349
45211W        W17625   8.867  25.185  10.475
45212W        W17626  42.512   5.401   3.250
45213W        W17627  29.455  29.157   3.843
45214W        W17628   0.782  10.374  10.563
45215W        W17629  37.995  17.639   2.849
45216W        W17630  23.108  23.241   4.705
45217W        W17631  10.168   1.878  10.014
45218W        W17632   6.692  22.610  11.997
45219W        W17633  39.498   9.330   3.264
45220W        W17634  44.366  14.337  13.535
45221W        W17635  31.124  30.576  11.086
45222W        W17636   8.779   1.353   0.910
45223W        W17637  21.114  28.486  14.324
45224W        W17638  10.250   1.451  13.836
45225W        W17639  29.573  21.651  13.526
45226W        W17640  24.036  16.576  14.513
45227W        W17641  31.905  25.609   1.286
45228W        W17642   2.788  39.327  11.600
45229W        W17643  30.505  13.604  13.878
45230W        W17644  33.389  12.278   2.307
45231W        W17645  32.948  44.847  11.499
45232W        W17646  21.573  39.887   4.314
45233W        W17647  33.989  19.717  11.414
45234W        W17648  16.652  30.546  11.458
45235W        W17649  20.610  23.178  14.031
45236W        W17650  43.008  40.808  14.878
45237W        W17651  23.627   3.889  11.991
45238W        W17652   8.884  26.980   4.211
45239W        W17653  35.530  37.521   0.932
45240W        W17654  41.373  15.247   3.160
45241W        W17655  44.271  31.594  14.869
45242W        W17656  15.613  20.536   0.453
45243W        W17657  34.471  19.616  10.434
45244W        W17658  40.530  43.955  12.351
45245W        W17659   0.842   6.403   1.761
45246W        W17660  25.174   2.919   1.305
45247W        W17661   5.912  12.330  13.428
45248W        W17662  42.442  18.559  14.874
45249W        W17663   3.264   9.292  11.079
45250W        W17664  43.009  25.163  11.384
45251W        W17665  20.183  38.486   3.801
45252W        W17666  17.093  37.082  12.509
45253W        W17667  43.832  32.109  10.629
45254W        W17668  33.448   4.358   2.662
45255W        W17669  11.297  10.829  12.947
45256W        W17670  29.629  27.120  11.984
45257W        W17671  28.007  27.678  11.858
45258W        W17672  28.031  41.822  13.360
45259W        W17673   3.228  34.951  14.031
45260W        W17674  36.844  14.147   3.229
45261W        W17675  29.956  27.488   0.318
45262W        W17676   5.744  33.929   1.440
45263W        W17677   6.304  19.630   0.295
45264W        W17678  24.218   2.735   3.250
45265W        W17679   4.721  11.344   3.237
45266W        W17680  10.674  44.985   1.398
45267W        W17681  12.646  37.414  10.631
45268W        W17682  42.381  30.049   3.191
45269W        W17683  40.906   4.745   2.328
45270W        W17684  39.396  14.678   0.858
45271W        W17685  23.591   8.777  12.519
45272W        W17686   6.732  19.650  14.281
45273W        W17687  31.545  12.247   2.879
45274W        W17688  14.330  10.788  13.547
45275W        W17689  11.156  20.562  13.438
45276W        W17690   0.473  26.560  10.491
45277W        W17691  38.887  29.433   0.746
45278W        W17692  28.023   8.405  13.390
45279W        W17693  11.308  33.435  11.873
45280W        W17694   7.287  34.589  14.761
45281W        W17695  14.260  36.914   2.349
45282W        W17696  29.424  18.572  13.408
45283W        W17697  13.609  11.737  14.955
45284W        W17698  23.517  24.003   4.735
45285W        W17699  15.810  29.118   2.765
45286W        W17700  24.174  32.043  12.425
45287W        W17701  43.861  42.803   2.846
45288W        W17702  34.462   2.428  13.338
45289W        W17703   9.754  41.936   3.844
45290W        W17704  17.292  25.664   4.653
45291W        W17705  32.480  23.620   3.284
45292W        W17706  15.615  32.130   0.760
45293W        W17707   8.360   3.844  13.956
45294W        W17708  40.348  39.368   4.128
45295W        W17709   3.407  18.602   5.202
45296W        W17710  12.349  35.886  10.979
45297W        W17711  10.806  21.058  11.016
45298W        W17712  31.631  22.150  11.485
45299W        W17713  16.273   6.865   0.273
45300W        W17714  38.993   9.321   2.397
45301W        W17715   1.874   1.877   0.283
45302W        W17716  24.692  39.989   4.302
45303W        W17717  12.854  17.614   1.421
45304W        W17718  41.038  43.955   3.862
45305W        W17719   1.312   0.423   2.379
45306W        W17720  28.676  38.835  11.461
45307W        W17721  13.226  19.099   5.716
45308W        W17722  16.811  37.336  14.357
45309W        W17723  38.397  39.443  14.766
45310W        W17724   8.793   0.745   5.161
45311W        W17725  23.166   1.276  12.978
45312W        W17726  43.423  26.100   0.855
45313W        W17727   7.328  39.337   0.360
45314W        W17728  26.092  17.653  12.954
45315W        W17729  28.165  26.611   3.259
45316W        W17730  11.372  29.127   0.928
45317W        W17731  33.087  16.123  12.459
45318W        W17732  37.931  42.338   3.712
45319W        W17733  32.425  32.940  12.947
45320W        W17734  28.109   6.247  10.531
45321W        W17735   3.778  17.275   9.931
45322W        W17736  41.831  27.597   3.868
45323W        W17737   1.442  16.774   1.253
45324W        W17738  17.265  38.969   4.750
45325W        W17739  26.627   9.786   2.744
45326W        W17740   6.280  39.324   2.254
45327W        W17741  24.521  16.086   5.309
45328W        W17742  16.596  30.071   4.242
45329W        W17743  23.140  25.602   0.364
45330W        W17744  11.835  17.133   3.695
45331W        W17745   5.426  17.626  14.479
45332W        W17746  20.636  40.840  10.501
45333W        W17747  30.029   6.885   1.874
45334W        W17748  34.937  40.438  14.450
45335W        W17749  13.814  31.010  12.340
45336W        W17750   0.791  15.305   0.729
45337W        W17751   1.350  29.085  12.832
45338W        W17752  27.635  19.573  13.529
45339W        W17753  27.613  26.120  14.940
45340W        W17754  13.117  37.021   4.759
45341W        W17755  39.414  34.485   1.923
45342W        W17756  20.236  28.643   4.256
45343W        W17757  28.044  21.723  13.031
45344W        W17758  24.045  43.305  13.352
45345W        W17759   1.872  34.375   4.830
45346W        W17760  12.203   0.743  14.479
45347W        W17761  36.950  22.227   3.800
45348W        W17762  17.263  33.393   3.815
45349W        W17763  22.595  24.072  12.999
45350W        W17764   8.320  19.550   0.786
45351W        W17765  27.562  15.683   1.711
45352W        W17766  32.500  23.112   1.413
45353W        W17767  18.059  41.005   0.406
45354W        W17768  36.587  29.492  12.043
45355W        W17769  32.017  28.585  11.860
45356W        W17770   3.457  14.170   1.361
45357W        W17771  40.306  22.163   0.357
45358W        W17772   5.433  18.665   0.736
45359W        W17773  15.186  36.889  14.387
45360W        W17774  22.077  34.601   4.264
45361W        W17775   3.735   2.863  14.894
45362W        W17776  14.193  18.125   3.313
45363W        W17777  30.541  31.483   0.756
45364W        W17778  32.101  36.944  13.857
45365W        W17779  33.951  41.488   2.347
45366W        W17780  28.154  25.701   3.289
45367W        W17781  18.236  33.381   0.426
45368W        W17782  32.576  40.323   4.807
45369W        W17783  20.246   6.680   0.883
45370W        W17784  24.995  29.538   2.337
45371W        W17785  33.532   4.872  10.620
45372W        W17786  10.150   8.668  13.958
45373W        W17787  17.189  18.672  14.460
45374W        W17788  38.023   2.423  11.101
45375W        W17789  33.545  17.075  10.087
45376W        W17790  44.893   7.706  11.086
45377W        W17791  39.048  19.240   1.834
45378W        W17792   1.951  37.937   0.929
45379W        W17793   5.817  30.619   0.350
45380W        W17794  21.051  28.480   4.265
45381W        W17795  42.864  44.301   5.094
45382W        W17796   8.405  27.117   2.308
45383W        W17797  16.106  36.358   0.254
45384W        W17798  24.054  20.662  14.985
45385W        W17799  11.670  14.223  14.296
45386W        W17800  35.018  40.992   3.226
45387W        W17801  24.136  41.812  14.019
45388W        W17802  24.723   0.825   9.938
45389W        W17803   5.876  14.204  13.423
45390W        W17804  41.311  40.352  11.584
45391W        W17805  37.578  21.151   1.365
45392W        W17806   5.919  15.718  14.516
45393W        W17807  30.938  13.776   0.775
45394W        W17808  35.940   8.879  12.948
45395W        W17809  11.653  28.182   2.303
45396W        W17810   8.702  10.825   2.328
45397W        W17811  17.233  40.528  11.864
45398W        W17812  10.348  31.103  11.012
45399W        W17813   4.853   7.911   4.647
45400W        W17814  19.667   8.817  14.932
45401W        W17815  19.062  19.218   2.192
45402W        W17816  43.908   5.870   2.299
45403W        W17817   1.918  18.593  11.120
45404W        W17818  12.699   2.237   2.387
45405W        W17819  14.094  10.738  10.611
45406W        W17820  44.316  44.343   3.312
45407W        W17821  31.954  14.768   2.895
45408W        W17822   8.758  23.060   0.881
45409W        W17823  27.624  19.191  12.472
45410W        W17824  35.522  34.110   4.163
45411W        W17825  24.612  24.986   3.191
45412W        W17826   9.661  20.202   0.967
45413W        W17827  22.744  24.184   2.689
45414W        W17828  42.394   7.196  13.842
45415W        W17829  24.649   0.948  12.370
45416W        W17830  39.322  30.110  11.036
45417W        W17831  29.977   8.810   5.178
45418W        W17832   8.230   1.457   2.684
45419W        W17833   0.377  38.989   2.357
45420W        W17834   7.300  37.856  10.909
45421W        W17835   6.848  43.424  10.502
45422W        W17836  11.658   5.897  14.996
45423W        W17837  40.922   2.730  13.968
45424W        W17838  32.601  40.306  11.988
45425W        W17839  11.795  16.691   1.276
45426W        W17840   9.167  10.773  13.832
45427W        W17841  17.710   3.835   2.417
45428W        W17842  22.106  37.406  11.398
45429W        W17843   4.322  32.487  14.503
45430W        W17844  15.140  15.115   3.303
45431W        W17845   5.332  33.930  11.917
45432W        W17846  35.439   2.842   2.329
45433W        W17847  23.026   6.759   2.312
45434W        W17848  33.502  18.761  11.599
45435W        W17849   4.872   0.470  11.012
45436W        W17850  36.463  35.001   2.262
45437W        W17851  31.099  16.162   1.274
45438W        W17852   3.272  28.606  13.875
45439W        W17853  34.416  29.642   2.767
45440W        W17854  22.503  41.931   1.370
45441W        W17855   3.281   2.435  12.058
45442W        W17856  31.072  26.515   5.104
45443W        W17857  42.998  28.174  12.437
45444W        W17858  18.688  25.068   3.216
45445W        W17859  18.100   1.245   0.477
45446W        W17860  17.263  38.412  14.435
45447W        W17861  16.090  18.624   5.645
45448W        W17862   6.185  38.040   0.289
45449W        W17863  41.436  17.604  14.983
45450W        W17864  41.498  22.737  11.549
45451W        W17865  23.121  18.140   1.359
45452W        W17866   8.879  10.308  10.414
45453W        W17867  37.987  10.342   4.804
45454W        W17868   4.384  22.591   2.303
45455W        W17869  36.031  13.307   2.206
45456W        W17870  42.361  22.630  10.589
45457W        W17871  38.070  31.066  14.958
45458W        W17872  22.607   1.466   4.739
45459W        W17873  14.758  26.691  14.349
45460W        W17874  23.620  36.088   3.674
45461W        W17875   0.256  11.628   3.801
45462W        W17876  12.824  32.542  12.479
45463W        W17877  17.235  31.519  10.015
45464W        W17878   8.344   8.882  14.356
45465W        W17879   7.683  31.015   2.746
45466W        W17880  37.350  25.219  14.286
45467W        W17881  26.527   5.801  11.554
45468W        W17882  36.895  13.656   2.743
45469W        W17883  41.444  14.272  10.621
45470W        W17884  33.484   1.973   4.665
45471W        W17885  34.390  19.596   0.443
45472W        W17886   1.277  36.523  14.809
45473W        W17887   8.208  44.924  11.428
45474W        W17888  38.424  25.119   2.277
45475W        W17889  21.603  25.993  10.556
45476W        W17890  33.561  35.061   4.295
45477W        W17891  12.312  20.043  10.515
45478W        W17892   1.845  44.436   4.352
45479W        W17893  26.982  19.657  10.564
45480W        W17894  20.199  28.167   9.965
45481W        W17895  20.145  27.031  12.085
45482W        W17896  17.641  37.905   0.271
45483W        W17897   8.255  28.003  12.475
45484W        W17898   4.890  24.635   2.199
45485W        W17899  30.432  21.543  10.611
45486W        W17900  32.489  20.690  12.932
45487W        W17901  17.725  44.290  14.390
45488W        W17902   2.467  27.110   2.353
45489W        W17903   4.822  26.571   1.726
45490W        W17904   8.818  43.270   4.711
45491W        W17905  42.022  31.590   2.834
45492W        W17906  43.359  33.918  14.956
45493W        W17907  35.571   9.299  11.506
45494W        W17908   4.829  28.455   1.737
45495W        W17909   3.936  40.955   2.345
45496W        W17910   6.356  37.009  11.501
45497W        W17911  18.115  44.891   2.788
45498W        W17912  31.537   7.213   3.362
45499W        W17913   0.761  21.727  13.841
45500W        W17914  18.705  23.734  10.925
45501W        W17915  36.887  20.673   1.879
45502W        W17916   8.668  39.027   3.316
45503W        W17917  14.099  20.742  14.782
45504W        W17918  21.219  21.182  10.890
45505W        W17919  12.324   4.712   4.795
45506W        W17920  41.510   9.766  11.509
45507W        W17921  26.027  11.151   2.901
45508W        W17922  31.458  39.898  12.940
45509W        W17923   3.460  26.671  12.896
45510W        W17924  40.367  29.980  13.400
45511W        W17925  28.162  26.135  14.799
45512W        W17926  32.628  41.914  10.487
45513W        W17927  33.095  10.789  14.871
45514W        W17928  22.008  14.263  14.821
45515W        W17929   9.868   3.459   2.707
45516W        W17930   3.776   9.743   2.890
45517W        W17931   6.829  36.026  10.571
45518W        W17932  27.554  36.557   2.708
45519W        W17933   3.248  13.761   2.236
45520W        W17934  31.594  18.704  12.570
45521W        W17935  12.168  19.551  13.486
45522W        W17936   6.381  21.123   1.710
45523W        W17937  25.158  10.763  14.321
45524W        W17938   9.688  32.019   0.825
45525W        W17939  10.834  27.078  12.988
45526W        W17940  12.318   5.918  14.800
45527W        W17941  15.721   1.414  11.966
45528W        W17942  37.354  35.076   4.124
45529W        W17943  26.667  43.977   4.683
45530W        W17944  26.962  31.120   0.842
45531W        W17945  29.472  28.069  11.523
45532W        W17946  38.922  23.514  12.877
45533W        W17947  13.616  16.155  12.085
45534W        W17948  12.121  33.486   1.212
45535W        W17949   2.321  26.661  13.425
45536W        W17950  12.358  22.043  14.341
45537W        W17951  23.180  20.660  11.081
45538W        W17952  16.247  31.427  14.833
45539W        W17953  24.693  21.620  13.361
45540W        W17954  33.617  14.733  14.401
45541W        W17955  32.893  20.668   1.258
45542W        W17956   0.288  38.349  13.366
45543W        W17957  35.100   0.778   1.241
45544W        W17958  33.457  11.828  12.349
45545W        W17959  39.511  43.406  13.828
45546W        W17960   9.341  40.935  14.933
45547W        W17961  23.660  14.209   3.811
45548W        W17962  32.126  21.259   4.147
45549W        W17963  23.713  11.329   0.940
45550W        W17964  41.012  32.625  10.412
45551W        W17965  23.040  39.037   3.671
45552W        W17966  19.599   8.763   2.238
45553W        W17967  30.413  21.211   4.681
45554W        W17968  28.990  38.993   1.866
45555W        W17969  10.176  16.282  13.374
45556W        W17970  44.849  27.997  12.852
45557W        W17971  37.892  13.769   3.288
45558W        W17972  35.941  28.486  10.960
45559W        W17973  19.705  32.970  10.466
45560W        W17974  21.215   3.785   5.144
45561W        W17975  41.932  28.567  14.947
45562W        W17976   6.908  39.896   2.821
45563W        W17977  13.640  44.339   2.259
45564W        W17978  13.683  40.303   1.823
45565W        W17979  19.263  42.811  14.478
45566W        W17980  20.225   3.331   2.213
45567W        W17981  20.176   6.261   1.371
45568W        W17982  29.973  25.634   3.705
45569W        W17983  19.556  40.322  12.566
45570W        W17984  36.985  19.164   2.339
45571W        W17985  40.530  21.176   4.633
45572W        W17986  28.602  28.995  13.319
45573W        W17987  40.914   0.906  11.569
45574W        W17988  28.524  14.616  10.926
45575W        W17989   6.354  33.081   2.185
45576W        W17990  35.397  26.546  11.469
45577W        W17991  32.514  41.352  14.964
45578W        W17992   2.886  20.747  11.931
45579W        W17993  15.611  13.690  12.932
45580W        W17994  11.164  29.926  11.488
45581W        W17995  36.062   6.880   0.477
45582W        W17996  18.236   3.818  10.887
45583W        W17997  12.822  15.086   4.223
45584W        W17998  43.772  10.801  12.084
45585W        W17999  38.926  29.655   3.800
45586W        W18000   8.793  25.181  13.989
45587W        W18001  15.802  24.656  11.526
45588W        W18002  30.070  35.990   3.147
45589W        W18003  10.804  31.605  14.487
45590W        W18004   1.776   7.341   3.648
45591W        W18005  21.213  11.836  14.849
45592W        W18006  25.498  22.518   4.150
45593W        W18007  13.111  28.973   4.789
45594W        W18008  39.316  29.517  13.334
45595W        W18009   5.889  44.269  13.987
45596W        W18010   9.253  34.095   4.676
45597W        W18011  42.851   9.330  12.922
45598W        W18012   8.719  43.486  12.563
45599W        W18013  23.609  24.629  12.960
45600W        W18014  16.714  23.628   2.287
45601W        W18015  38.509  25.660  12.543
45602W        W18016  44.910  26.189  11.480
45603W        W18017  30.056  44.793   3.701
45604W        W18018  40.455  26.610   0.942
45605W        W18019   3.221  29.061  10.477
45606W        W18020  14.774  26.995   0.401
45607W        W18021  10.262   6.384  10.141
45608W        W18022  34.576  39.558  14.943
45609W        W18023   5.258  20.629   1.933
45610W        W18024  44.860  20.124   4.761
45611W        W18025  31.982  18.558   4.629
45612W        W18026  35.929  41.468  11.017
45613W        W18027  44.954  20.570  12.340
45614W        W18028   3.948   5.928  12.063
45615W        W18029  31.454  40.431   1.265
45616W        W18030  36.045  26.677   4.318
45617W        W18031   6.729  10.148   1.864
45618W        W18032   9.320  44.305   3.775
45619W        W18033   5.434  37.568  11.902
45620W        W18034  28.518  26.103   4.678
45621W        W18035  25.597   2.849  13.546
45622W        W18036  43.289  16.585  14.281
45623W        W18037  25.000   5.714  12.894
45624W        W18038  27.092  28.560   3.798
45625W        W18039  14.189  30.494  12.551
45626W        W18040  27.143  25.114   0.421
45627W        W18041  36.982  29.094  14.356
45628W        W18042  28.659  39.414  10.427
45629W        W18043  13.834  16.634  13.866
45630W        W18044   6.768  11.334  12.873
45631W        W18045   3.955  43.472   0.807
45632W        W18046   3.296  40.889  10.944
45633W        W18047  22.577   8.725  10.499
45634W        W18048  18.114  28.570  10.629
45635W        W18049  30.546  41.308  10.948
45636W        W18050   7.385  41.935  13.424
45637W        W18051  35.886   7.766  11.997
45638W        W18052  37.381  21.634  12.021
45639W        W18053  25.181  29.463   0.834
45640W        W18054  10.737  21.147   4.618
45641W        W18055  28.089  26.167   4.692
45642W        W18056   7.384  11.823  10.603
45643W        W18057  29.484   1.782   3.690
45644W        W18058   6.309  44.437  14.892
45645W        W18059  15.194   7.202   0.848
45646W        W18060  17.720  28.165   2.247
45647W        W18061  15.254  25.211   3.801
45648W        W18062  40.415  26.474  12.418
45649W        W18063  14.193  26.566   3.304
45650W        W18064  31.147   3.721   2.891
45651W        W18065  39.491  34.008   4.761
45652W        W18066  13.723   1.294   0.288
45653W        W18067   9.855  11.847   0.746
45654W        W18068  30.623  22.656   1.799
45655W        W18069  27.034  21.252  14.433
45656W        W18070  17.112  16.091  14.781
45657W        W18071  22.663  34.544   1.352
45658W        W18072  32.107  21.564   3.372
45659W        W18073  43.451  15.243   0.878
45660W        W18074  39.039  25.655  12.050
45661W        W18075  34.871  14.304  10.045
45662W        W18076  33.887  31.488   3.764
45663W        W18077   3.929  10.350  10.914
45664W        W18078   4.280  15.164  10.475
45665W        W18079   9.220  31.902   0.769
45666W        W18080   2.741  27.996  10.638
45667W        W18081   7.391  23.210   2.248
45668W        W18082   4.810  42.351   5.642
45669W        W18083   1.859  16.147  11.872
45670W        W18084   8.701   3.890  14.415
45671W        W18085  18.544  15.586  14.348
45672W        W18086  17.779  12.206  14.017
45673W        W18087  28.537  25.469   3.677
45674W        W18088  40.526   3.893  14.342
45675W        W18089  38.413  26.035  12.473
45676W        W18090  22.531   5.310  11.396
45677W        W18091   2.421   2.945   4.309
45678W        W18092  21.113  25.501  11.960
45679W        W18093  23.212  32.510   1.759
45680W        W18094   0.843  15.120  10.612
45681W        W18095   4.261  25.049  10.562
45682W        W18096   6.677  12.696   0.749
45683W        W18097  37.925  15.628  11.908
45684W        W18098  27.972   4.287  13.491
45685W        W18099  27.664  40.836  14.313
45686W        W18100  26.479  31.944  14.931
45687W        W18101  27.150   6.188  11.465
45688W        W18102  21.097  28.094  11.602
45689W        W18103  10.751  15.606   0.954
45690W        W18104  30.658  20.274   3.363
45691W        W18105  43.305  40.826  11.074
45692W        W18106  41.309  42.878   1.263
45693W        W18107  36.045  13.815  13.472
45694W        W18108   8.255  20.621  11.487
45695W        W18109  38.004  39.554   2.804
45696W        W18110  15.329  44.353  13.977
45697W        W18111  40.452  11.261  12.358
45698W        W18112  21.021  40.906   0.893
45699W        W18113  11.203  27.036   2.818
45700W        W18114  28.011  34.017  11.101
45701W        W18115  39.039  17.618  14.340
45702W        W18116   7.331  34.582   3.297
45703W        W18117  18.666  31.532   3.342
45704W        W18118  37.441   9.329   4.747
45705W        W18119   4.377  38.912   1.312
45706W        W18120  35.430  10.647   3.841
45707W        W18121  19.224   6.358   0.268
45708W        W18122  17.636   3.287  10.502
45709W        W18123  14.326   0.303   0.246
45710W        W18124  35.929  14.727   2.885
45711W        W18125  28.931  13.161  13.040
45712W        W18126  25.695  20.117  12.910
45713W        W18127   2.874  24.206   4.114
45714W        W18128  41.986  42.365   1.801
45715W        W18129  34.552   8.828   4.661
45716W        W18130  25.619  25.202  11.390
45717W        W18131  35.876  25.007  10.554
45718W        W18132  23.560  43.990  12.015
45719W        W18133  18.067   0.477  13.315
45720W        W18134  30.582   5.824  11.436
45721W        W18135  12.756   0.409   4.824
45722W        W18136  13.175  17.558  14.404
45723W        W18137   7.743  40.547  13.057
45724W        W18138  28.029  36.021  13.311
45725W        W18139   5.333  37.515  14.860
45726W        W18140  15.758  32.077  14.277
45727W        W18141  22.137   9.311   3.321
45728W        W18142  11.224  37.456   0.887
45729W        W18143  10.253  32.049  13.379
45730W        W18144  39.980  25.180  14.795
45731W        W18145  44.413  32.587  11.084
45732W        W18146  14.802  43.993  12.357
45733W        W18147  19.672  38.342   2.380
45734W        W18148  20.597  40.980   4.146
45735W        W18149  37.362  27.010   3.782
45736W        W18150  39.006  40.464  11.413
45737W        W18151  32.021  11.759   1.343
45738W        W18152  30.519  33.441  11.522
45739W        W18153  25.639  26.500  14.924
45740W        W18154   9.230  33.913  14.391
45741W        W18155  30.583  32.928   1.426
45742W        W18156   5.281  13.736  11.395
45743W        W18157  42.977   3.809  14.844
45744W        W18158   0.284   1.789  10.618
45745W        W18159  43.393   0.473   1.718
45746W        W18160  12.816  34.027  12.893
45747W        W18161  22.026  28.578  11.043
45748W        W18162  13.637  35.427   0.941
45749W        W18163  12.838  37.882   0.270
45750W        W18164   9.851   2.897  14.896
45751W        W18165  17.730  12.327  10.625
45752W        W18166   5.819  28.555   2.268
45753W        W18167   8.791  11.224  11.552
45754W        W18168  15.680   4.945  10.938
45755W        W18169   4.769  44.924   1.709
45756W        W18170  10.780  33.130  13.334
45757W        W18171  43.355  40.337   2.843
45758W        W18172  23.022  22.609   0.800
45759W        W18173   4.208  24.708   1.260
45760W        W18174  36.525  12.701   5.213
45761W        W18175  37.500  21.650  13.949
45762W        W18176  29.531  43.353   1.412
45763W        W18177  19.631   2.965   0.465
45764W        W18178   4.360  11.255   1.843
45765W        W18179  20.593  20.650  12.033
45766W        W18180  11.183  42.872   2.246
45767W        W18181  42.369  38.373   3.647
45768W        W18182   6.784  27.468   3.222
45769W        W18183  17.574  36.461  10.622
45770W        W18184  19.639  42.951   1.282
45771W        W18185  33.972  19.724   5.299
45772W        W18186  14.200  30.536  14.421
45773W        W18187  11.768  11.369   4.206
45774W        W18188  32.111  18.764  13.816
45775W        W18189  25.627  23.151   4.722
45776W        W18190  22.663  22.562   1.403
45777W        W18191   3.309   0.908   1.720
45778W        W18192  30.130  13.120   4.310
45779W        W18193  17.687  44.351  11.498
45780W        W18194  43.321  22.153  10.419
45781W        W18195   1.253  36.049   3.296
45782W        W18196  26.181   3.883  12.532
45783W        W18197  10.848  31.544   2.839
45784W        W18198  41.949   2.721   4.601
45785W        W18199  20.607  14.660   3.868
45786W        W18200  32.586  15.748  14.832
45787W        W18201  26.104  16.650   3.784
45788W        W18202   4.721   7.778  12.434
45789W        W18203  33.074  38.828   1.831
45790W        W18204  24.721  40.032  12.847
45791W        W18205  20.665  26.077  13.838
45792W        W18206  26.479  16.720   0.755
45793W        W18207  15.814  26.202  12.877
45794W        W18208  14.164   6.695   0.729
45795W        W18209  24.490  16.634   0.401
45796W        W18210  18.086   3.253   4.128
45797W        W18211  20.210   8.228   4.119
45798W        W18212  30.942  34.984  12.902
45799W        W18213  23.721  20.069  12.359
45800W        W18214  40.429  41.529  10.130
45801W        W18215  17.215   7.366   4.724
45802W        W18216  22.723  37.508   3.822
45803W        W18217  37.410  23.215  12.350
45804W        W18218  23.119  43.450  12.541
45805W        W18219   7.269  16.313   2.286
45806W        W18220  13.779  20.137   4.746
45807W        W18221  43.923   2.825  14.878
45808W        W18222  35.521   8.384  13.459
45809W        W18223   5.696  20.686  13.044
45810W        W18224   3.899   9.319  12.489
45811W        W18225  44.851  13.333   1.392
45812W        W18226  19.712  41.965  13.840
45813W        W18227  11.146  17.215  14.009
45814W        W18228  28.102  32.086  14.909
45815W        W18229  43.877  38.444  12.094
45816W        W18230   6.862  44.801  11.034
45817W        W18231  37.459  13.192  12.050
45818W        W18232   8.204  29.030   1.236
45819W        W18233  44.421  25.071  12.894
45820W        W18234  27.464  39.891   3.384
45821W        W18235  26.955  32.132   0.733
45822W        W18236  26.533  44.822   9.974
45823W        W18237  14.672  25.978   2.274
45824W        W18238  33.603   7.775   3.834
45825W        W18239  26.515  26.002  10.538
45826W        W18240  27.652   3.321  10.641
45827W        W18241   5.798  12.646  11.864
45828W        W18242  14.835  16.745  10.641
45829W        W18243  38.968  20.116   3.345
45830W        W18244  34.039  12.838   0.315
45831W        W18245   0.330  15.186   2.251
45832W        W18246  12.290  34.879   4.827
45833W        W18247  11.705  34.528  14.919
45834W        W18248  18.246  36.362  10.998
45835W        W18249  22.127  30.497  14.277
45836W        W18250  38.471   9.731  13.822
45837W        W18251  11.824  13.350   2.297
45838W        W18252  29.572  43.471  13.383
45839W        W18253   7.685  43.924   0.953
45840W        W18254  36.567  28.993   1.820
45841W        W18255   2.859   7.683   0.471
45842W        W18256   2.273  18.236   1.434
45843W        W18257   7.404  40.376   3.722
45844W        W18258   2.260  10.142  10.597
45845W        W18259  30.530  13.333   1.759
45846W        W18260  28.114  16.265   4.793
45847W        W18261  19.075  29.112   3.735
45848W        W18262   8.790  21.238  10.611
45849W        W18263   4.283  39.831   9.502
45850W        W18264   4.813  15.788  13.887
45851W        W18265  42.916   8.761  10.584
45852W        W18266  42.311  26.041   4.630
45853W        W18267  11.305   2.294   3.832
45854W        W18268   1.866  33.119  10.929
45855W        W18269  22.514  10.237   4.714
45856W        W18270  32.920  14.197  12.888
45857W        W18271  27.631  44.368  14.407
45858W        W18272  43.976  19.634  11.519
45859W        W18273  37.413  19.187  14.986
45860W        W18274  15.784  30.523   3.656
45861W        W18275  35.909  15.647   5.097
45862W        W18276  11.831  32.131   1.814
45863W        W18277   0.801  14.336   9.952
45864W        W18278  20.681   6.880  13.844
45865W        W18279  36.875  29.930   1.265
45866W        W18280   6.898  33.413   4.705
45867W        W18281  16.309  25.981   0.825
45868W        W18282  35.369   9.157   4.741
45869W        W18283  42.831  19.674   3.665
45870W        W18284  12.709  39.376   4.169
45871W        W18285   6.303  11.800   4.678
45872W        W18286   8.176   5.753  14.437
45873W        W18287  22.049  15.268  11.883
45874W        W18288   2.725  39.895  10.159
45875W        W18289  42.447  20.200   1.359
45876W        W18290   9.254  20.070   0.429
45877W        W18291  36.087   3.923   3.836
45878W        W18292  10.734   9.858  13.942
45879W        W18293  40.864  32.982   2.254
45880W        W18294  36.904  11.232   2.303
45881W        W18295  29.613  20.075   4.340
45882W        W18296  43.793  12.637   4.700
45883W        W18297  21.632  23.512  13.459
45884W        W18298  39.385  40.973  12.542
45885W        W18299   4.264  18.052  13.384
45886W        W18300  23.533  42.302  11.127
45887W        W18301  39.041  39.331   3.728
45888W        W18302  43.927  26.175  13.055
45889W        W18303   5.263  14.802  10.033
45890W        W18304  30.916  39.987  13.046
45891W        W18305  13.171  29.498  14.291
45892W        W18306  43.956  38.452  11.069
45893W        W18307  21.549   9.732  10.504
45894W        W18308   9.157  31.430  14.377
45895W        W18309  34.895  41.924   0.405
45896W        W18310  21.578  21.181   3.646
45897W        W18311  32.897  40.394  11.963
45898W        W18312  23.663   6.858   4.689
45899W        W18313  44.412   0.973   1.825
45900W        W18314  10.650  20.761  11.047
45901W        W18315  22.076  41.902   1.212
45902W        W18316  39.525  10.181  11.090
45903W        W18317  12.723  22.123  13.531
45904W        W18318  21.061  14.757   3.381
45905W        W18319  11.789   4.343   0.839
45906W        W18320  14.625  18.263   3.757
45907W        W18321  13.646  28.029  11.561
45908W        W18322  40.975  34.924   1.734
45909W        W18323  33.402   1.453   4.610
45910W        W18324  22.042  38.990   0.856
45911W        W18325  27.110   0.258  14.005
45912W        W18326  12.262  36.357   0.483
45913W        W18327  43.436  41.921   3.839
45914W        W18328  12.231   7.871   2.368
45915W        W18329   4.845  28.607  12.387
45916W        W18330  32.425  32.438   4.785
45917W        W18331  35.496  19.208   4.257
45918W        W18332  27.985  31.411  12.901
45919W        W18333  10.306  19.645  14.783
45920W        W18334  11.867  44.814  14.916
45921W        W18335  32.929   9.683  14.999
45922W        W18336   1.260  24.479  12.068
45923W        W18337   2.965   3.940   1.262
45924W        W18338   8.693  41.357  13.050
45925W        W18339  22.141  41.838  14.359
45926W        W18340  20.136   4.262  10.575
45927W        W18341   8.314  14.194  11.600
45928W        W18342  23.549   2.309  12.572
45929W        W18343   4.749  28.120  14.874
45930W        W18344   6.774  25.518  11.432
45931W        W18345   7.295  40.502  14.324
45932W        W18346  34.942   4.370  14.905
45933W        W18347  26.026  18.081   0.756
45934W        W18348  23.570  35.853   2.333
45935W        W18349   2.827  20.534  12.530
45936W        W18350  17.079  44.859  12.479
45937W        W18351  13.337  14.652  13.957
45938W        W18352  36.899  42.895   1.389
45939W        W18353  25.602  23.115   3.683
45940W        W18354  23.076   1.266   3.687
45941W        W18355   3.818  17.214   3.357
45942W        W18356   5.932  26.025  13.524
45943W        W18357  33.474  39.544   4.299
45944W        W18358  11.669  12.173  11.890
45945W        W18359  34.057  40.843   4.713
45946W        W18360  21.536  34.087   0.880
45947W        W18361   9.211   6.832  14.446
45948W        W18362  22.043   5.316  11.923
45949W        W18363  31.427   0.483  14.759
45950W        W18364  16.305   4.251  12.856
45951W        W18365  16.107  14.749  11.587
45952W        W18366  36.542  38.061  12.534
45953W        W18367  16.167  31.033   1.433
45954W        W18368  44.449  27.046  13.852
45955W        W18369  31.513  36.560   3.742
45956W        W18370   1.794  29.102  14.350
45957W        W18371  43.861  44.356  11.472
45958W        W18372  34.531  32.454  12.919
45959W        W18373  38.482  12.283   1.726
45960W        W18374  42.929  44.396  14.989
45961W        W18375  39.002  37.968   0.794
45962W        W18376  22.162  33.491   3.745
45963W        W18377  30.909  14.706  13.405
45964W        W18378  26.009  44.419   0.865
45965W        W18379  15.111  32.093   0.837
45966W        W18380  37.950   2.428  11.892
45967W        W18381  40.958  36.987  10.982
45968W        W18382  44.900  10.284   2.275
45969W        W18383   0.486   5.847  12.348
45970W        W18384   4.750  43.836  13.822
45971W        W18385  12.813  41.816   3.293
45972W        W18386   7.888   3.943  11.382
45973W        W18387  16.143  35.890  11.450
45974W        W18388  32.952  38.566  11.000
45975W        W18389  15.682  22.732   3.237
45976W        W18390   9.889   2.820   3.771
45977W        W18391  15.812   2.228  14.432
45978W        W18392  39.885   2.830   2.666
45979W        W18393  17.622  18.667   1.732
45980W        W18394  43.909  15.730   2.230
45981W        W18395  44.458  42.350  11.541
45982W        W18396  23.601  31.591  12.958
45983W        W18397  12.188  37.065  12.031
45984W        W18398   0.892  12.789  13.547
45985W        W18399  24.571   8.662  14.760
45986W        W18400  26.523  44.835   3.204
45987W        W18401   3.786  35.106  11.547
45988W        W18402  14.602   0.349   3.215
45989W        W18403  23.574  25.639   1.703
45990W        W18404   0.858  26.965  11.530
45991W        W18405  24.514  25.586   1.928
45992W        W18406   2.328  21.047  10.898
45993W        W18407  28.173   6.326   9.980
45994W        W18408   7.416  20.690   3.722
45995W        W18409  23.129  24.645  13.942
45996W        W18410  26.980  14.121  10.974
45997W        W18411  23.581  30.597  13.060
45998W        W18412  10.846   6.692  14.007
45999W        W18413  39.486  42.509  14.304
46000W        W18414  17.750  13.245   0.933
46001W        W18415  14.787  24.026  11.092
46002W        W18416   4.923  20.272  11.038
46003W        W18417  23.214  31.985  11.524
46004W        W18418  42.424  27.614  14.993
46005W        W18419  38.395  25.529  14.377
46006W        W18420  16.219   5.423   1.360
46007W        W18421   3.272  26.131  11.051
46008W        W18422  28.642   6.763   3.727
46009W        W18423  11.735  25.677  13.446
46010W        W18424  18.746  32.481   4.159
46011W        W18425  26.123  11.224  12.899
46012W        W18426  16.581   4.234  14.798
46013W        W18427  29.658  11.159  14.935
46014W        W18428  41.912  28.089   1.852
46015W        W18429  34.470  21.590   0.893
46016W        W18430  14.176   1.862   0.767
46017W        W18431  24.218  36.933   4.214
46018W        W18432  38.350   3.381   1.217
46019W        W18433  40.936  22.160   4.148
46020W        W18434  27.158   6.401   0.376
46021W        W18435  10.734   0.910  13.896
46022W        W18436  37.418  26.468  13.890
46023W        W18437  39.490  10.377   3.823
46024W        W18438  15.110  44.993  11.444
46025W        W18439  30.156  43.360   1.406
46026W        W18440  13.231  31.908   9.926
46027W        W18441  14.306  26.115  10.643
46028W        W18442   0.420  19.175   1.697
46029W        W18443  26.113  36.085   1.405
46030W        W18444  36.906  13.743   0.867
46031W        W18445   3.952   1.414  12.859
46032W        W18446  14.788   0.759  13.317
46033W        W18447  38.341  34.561  11.107
46034W        W18448  33.402   0.294  13.369
46035W        W18449  16.268  32.956   2.792
46036W        W18450  12.350  22.586   0.783
46037W        W18451  19.619  36.573  11.012
46038W        W18452  11.369  39.517   0.435
46039W        W18453  12.278  20.233   2.834
46040W        W18454  25.041   3.215  14.511
46041W        W18455  27.076   5.273   4.726
46042W        W18456  19.771  14.834  11.582
46043W        W18457  13.182  32.957   4.344
46044W        W18458  37.525  21.027   0.743
46045W        W18459  22.030  27.159  13.895
46046W        W18460   4.759  44.479   4.638
46047W        W18461  39.028  34.010  11.602
46048W        W18462  38.967  39.967  14.020
46049W        W18463   9.294  24.219   1.933
46050W        W18464  39.957   9.818   2.880
46051W        W18465  38.911  28.467  14.392
46052W        W18466  44.863   4.345  13.005
46053W        W18467  15.142  34.612  13.948
46054W        W18468   1.466  26.661  14.306
46055W        W18469  14.253  44.326  14.321
46056W        W18470  35.900  34.530   3.707
46057W        W18471  18.695   0.258  14.479
46058W        W18472   1.349  24.582   4.310
46059W        W18473  37.962  30.152   0.831
46060W        W18474  22.207  42.389  11.855
46061W        W18475  30.476   0.750   0.463
46062W        W18476  25.113   2.824  14.920
46063W        W18477  21.548  16.107   1.913
46064W        W18478  10.661  15.178   1.236
46065W        W18479  12.620  31.121   0.731
46066W        W18480  29.144  22.669  11.033
46067W        W18481   7.388  20.755   2.192
46068W        W18482   7.778  40.901   2.877
46069W        W18483  14.298  13.610  14.929
46070W        W18484  32.987   7.236  10.976
46071W        W18485   1.848   2.351   3.277
46072W        W18486   5.779  31.558  13.492
46073W        W18487  43.779  27.164   3.319
46074W        W18488  21.643  15.320  12.503
46075W        W18489  23.007  23.521  10.939
46076W        W18490  19.588  42.380  13.060
46077W        W18491  34.382  26.499  11.609
46078W        W18492   7.851  28.098  14.318
46079W        W18493  34.103  31.407  10.522
46080W        W18494  40.800  43.350   3.693
46081W        W18495   5.731   8.263   1.698
46082W        W18496  44.809  40.006  12.418
46083W        W18497  37.035  35.367   1.767
46084W        W18498   9.823  44.976  11.501
46085W        W18499  11.134  17.282  12.411
46086W        W18500  40.517  37.473   0.862
46087W        W18501  32.022  38.944  11.045
46088W        W18502  44.355  16.767   2.766
46089W        W18503  44.284  17.747   1.273
46090W        W18504   2.384  27.161  11.122
46091W        W18505  14.314  23.680  12.947
46092W        W18506  15.741  35.890   3.339
46093W        W18507   9.802  27.474  13.845
46094W        W18508  37.062  18.081  11.418
46095W        W18509  37.056  28.106   2.691
46096W        W18510   9.665   0.296  12.824
46097W        W18511  24.041  36.968  14.333
46098W        W18512  28.578  21.569   3.258
46099W        W18513  34.475  44.382  12.018
46100W        W18514  35.982  27.178  12.031
46101W        W18515  44.998  16.754  14.441
46102W        W18516  29.946   5.870  12.918
46103W        W18517   4.937  36.850  14.372
46104W        W18518  15.732  18.120  14.393
46105W        W18519   3.223  21.199   1.298
46106W        W18520   8.876  31.931  14.829
46107W        W18521  16.703   7.403   1.396
46108W        W18522  11.222  42.859   3.734
46109W        W18523  17.613  33.384   2.856
46110W        W18524  40.329  30.918   3.233
46111W        W18525  32.416  27.993  11.559
46112W        W18526  32.973  23.145   2.376
46113W        W18527  29.039  11.231   2.370
46114W        W18528  33.609  27.031   3.382
46115W        W18529  13.645  39.328   2.837
46116W        W18530   3.824  43.861  14.506
46117W        W18531  17.250   9.232  10.054
46118W        W18532   4.432  31.017  10.411
46119W        W18533   0.346  42.446  13.841
46120W        W18534   3.446  33.016   3.290
46121W        W18535  29.073  14.136  14.942
46122W        W18536  23.219   5.203   2.198
46123W        W18537  17.717  28.467  10.892
46124W        W18538  15.174  29.435  11.109
46125W        W18539   6.261  39.383   4.774
46126W        W18540  10.216   0.819  11.127
46127W        W18541  41.430  19.610  13.932
46128W        W18542  25.565  18.190   2.684
46129W        W18543  10.753   8.263   2.331
46130W        W18544  24.591  35.475  11.995
46131W        W18545  11.659  16.607   4.149
46132W        W18546   1.426  24.531   1.837
46133W        W18547  11.282  41.929  10.491
46134W        W18548  32.914  15.106   3.186
46135W        W18549  41.336  10.657   3.813
46136W        W18550   2.445   0.895  10.054
46137W        W18551  22.149  31.426  14.344
46138W        W18552  19.591  43.482   2.218
46139W        W18553  31.923  30.133   3.750
46140W        W18554  22.740  13.118   0.842
46141W        W18555  34.959  33.047   0.360
46142W        W18556   0.312   6.366   0.848
46143W        W18557  40.545  20.185   2.403
46144W        W18558  41.810   7.255  11.092
46145W        W18559  25.033  37.013   1.827
46146W        W18560   3.253  37.389  11.890
46147W        W18561  41.435   8.294   2.239
46148W        W18562   7.787  24.605   0.311
46149W        W18563   7.187  43.334  13.532
46150W        W18564  40.952  16.673  12.417
46151W        W18565  17.691  29.000  14.986
46152W        W18566  22.626  10.865   0.258
46153W        W18567  16.180   6.766  12.390
46154W        W18568   8.864  20.656  12.841
46155W        W18569  13.346  28.959  12.447
46156W        W18570  19.570  42.992  11.000
46157W        W18571  39.359   5.406   0.799
46158W        W18572  26.487  12.236  11.116
46159W        W18573  20.524   6.711  11.053
46160W        W18574  19.688   2.771  13.026
46161W        W18575  42.364  19.638  12.928
46162W        W18576  43.959  34.540  11.876
46163W        W18577  25.539   4.398   0.257
46164W        W18578  33.425  23.592  10.615
46165W        W18579   6.714   7.255  12.563
46166W        W18580   4.215   6.835   3.693
46167W        W18581  41.002   4.348   4.325
46168W        W18582   9.395  40.829  13.868
46169W        W18583  31.560  11.819  10.960
46170W        W18584  23.579  23.181  11.106
46171W        W18585  38.471  16.588  11.388
46172W        W18586  20.155   1.343   4.191
46173W        W18587  44.753  42.884  12.879
46174W        W18588  38.926  32.568  11.543
46175W        W18589  35.579  27.551   1.915
46176W        W18590   7.270  19.613  14.781
46177W        W18591   9.667  10.263   1.304
46178W        W18592  31.077  22.205   1.880
46179W        W18593  39.501  20.142  12.033
46180W        W18594  16.135  20.569   0.906
46181W        W18595  16.726   1.924   3.676
46182W        W18596  14.647  41.868   2.363
46183W        W18597  27.505  38.425   2.340
46184W        W18598  22.083   7.393  12.573
46185W        W18599  32.956  27.194   1.381
46186W        W18600  34.477  34.483  13.425
46187W        W18601  39.971  29.454   4.822
46188W        W18602   1.361   7.849  14.306
46189W        W18603  34.475  40.834  11.055
46190W        W18604  25.561   9.644  13.852
46191W        W18605  22.730   8.330   0.822
46192W        W18606   5.335  19.771  14.496
46193W        W18607  38.412  19.723  11.120
46194W        W18608  14.325  17.141  12.833
46195W        W18609  35.965  23.566  12.079
46196W        W18610  28.935  41.979   2.204
46197W        W18611  16.079  25.145  10.408
46198W        W18612   4.781  35.936  14.419
46199W        W18613  20.070  30.442   3.711
46200W        W18614  17.609  20.708  13.378
46201W        W18615  18.556  44.911   4.710
46202W        W18616  14.803  10.178  12.543
46203W        W18617  33.032  24.486   4.713
46204W        W18618   6.290   8.381   0.409
46205W        W18619   0.885  44.771   3.840
46206W        W18620  35.946  27.985  10.634
46207W        W18621  26.070  39.012  12.008
46208W        W18622   7.237  24.674   4.310
46209W        W18623  17.719  32.522   2.413
46210W        W18624  28.100  28.006  10.607
46211W        W18625  38.371  44.763   2.381
46212W        W18626  33.400   5.718   4.600
46213W        W18627  20.188  38.494  13.981
46214W        W18628  18.699   1.300  10.409
46215W        W18629  40.358   9.849  12.974
46216W        W18630  25.623  28.160   3.774
46217W        W18631  40.341  25.040   0.407
46218W        W18632   6.799   5.388  13.349
46219W        W18633  30.915  42.349  10.448
46220W        W18634  25.165  38.432   0.894
46221W        W18635  31.078  36.078  10.097
46222W        W18636  15.748  10.354  14.858
46223W        W18637  31.990  24.995   2.216
46224W        W18638  35.456  19.185  12.540
46225W        W18639  36.974  36.064   0.375
46226W        W18640  10.330  20.228  10.411
46227W        W18641   6.857   3.733   0.912
46228W        W18642  14.303  22.550   0.780
46229W        W18643  24.095  31.489   4.115
46230W        W18644  23.527  37.539   9.952
46231W        W18645   0.334  39.961   3.642
46232W        W18646  23.138   6.753  12.065
46233W        W18647  12.852   7.894   1.398
46234W        W18648  16.782  12.674   4.295
46235W        W18649   0.439  40.887   0.882
46236W        W18650  25.678  28.562   2.353
46237W        W18651  37.929  12.197  10.450
46238W        W18652  38.525  41.016   1.230
46239W        W18653   7.686  43.817   3.362
46240W        W18654  40.980  22.081  10.471
46241W        W18655  38.959   4.438  14.918
46242W        W18656  18.235  40.939  13.887
46243W        W18657  19.284  42.454  12.929
46244W        W18658  31.140   6.326  11.541
46245W        W18659  10.760  20.251  12.985
46246W        W18660  21.089   7.875  13.409
46247W        W18661  35.590  44.273  14.418
46248W        W18662  35.967  43.474  12.915
46249W        W18663  35.047  12.126   2.683
46250W        W18664  17.604  39.332   2.801
46251W        W18665  13.309   7.258   3.249
46252W        W18666  12.644   2.326   2.866
46253W        W18667  17.598  42.859  11.376
46254W        W18668   2.285  35.004   0.475
46255W        W18669  31.086   8.213   0.895
46256W        W18670   1.971  24.486  12.570
46257W        W18671   1.759  16.766  13.871
46258W        W18672   9.861   3.339  14.288
46259W        W18673  10.717  21.153   1.305
46260W        W18674  21.157   9.656   1.694
46261W        W18675  28.057  11.250   2.668
46262W        W18676  31.996   0.442   1.324
46263W        W18677  30.145   7.286   3.672
46264W        W18678  31.062  37.466   3.667
46265W        W18679  22.092  35.510  13.028
46266W        W18680  28.157  24.113  14.988
46267W        W18681  37.414  41.850  11.095
46268W        W18682  18.566  42.968  10.465
46269W        W18683  44.970   4.834  13.041
46270W        W18684   3.253  33.565   0.393
46271W        W18685   5.915  24.011   4.618
46272W        W18686  32.425  31.145   0.283
46273W        W18687   4.783  32.032  13.530
46274W        W18688  30.564  32.022   0.276
46275W        W18689  39.553  25.681   4.207
46276W        W18690  36.354  36.364   4.221
46277W        W18691  16.701  18.584   2.257
46278W        W18692  43.782  41.012  14.295
46279W        W18693  42.359  25.063  14.354
46280W        W18694  24.167  29.077  11.948
46281W        W18695   1.866   7.856   3.802
46282W        W18696   9.688   1.877   0.260
46283W        W18697  32.490  15.722   0.316
46284W        W18698  21.128   3.355  13.477
46285W        W18699   0.456   0.910  14.923
46286W        W18700   5.431   5.839   2.689
46287W        W18701  37.491   9.208   3.691
46288W        W18702  35.866  35.995  11.075
46289W        W18703   1.827  30.417  11.500
46290W        W18704  13.726   3.222  13.812
46291W        W18705  17.285   8.212   3.823
46292W        W18706  32.982  41.373  13.399
46293W        W18707  15.217   8.750   0.858
46294W        W18708  18.162  35.407  13.894
46295W        W18709   8.177  30.975   0.475
46296W        W18710   6.785  25.972   4.200
46297W        W18711  18.719  39.004   4.669
46298W        W18712  15.091  36.884   2.804
46299W        W18713  41.509  12.717  12.011
46300W        W18714  21.030  27.127  13.853
46301W        W18715  34.992   8.870   2.256
46302W        W18716  40.434  28.578   4.319
46303W        W18717  30.956  32.012  14.463
46304W        W18718  31.569  13.196   3.798
46305W        W18719  33.533  20.671   3.780
46306W        W18720  13.664  20.245   1.853
46307W        W18721  33.538  41.533   0.770
46308W        W18722  38.956  43.824   4.273
46309W        W18723   6.314   4.316   4.192
46310W        W18724  39.822  39.526  10.580
46311W        W18725  11.290  22.249   3.678
46312W        W18726  34.413  25.108   1.934
46313W        W18727  38.342   0.373  14.376
46314W        W18728  20.142  18.626   0.272
46315W        W18729   7.224  21.213   3.800
46316W        W18730  11.783  23.090  12.031
46317W        W18731  29.958  44.828  12.906
46318W        W18732  30.440  23.165  13.356
46319W        W18733  19.280  33.033  14.966
46320W        W18734  18.245  26.184   2.885
46321W        W18735   2.397   6.222  13.892
46322W        W18736   1.473  22.549   4.698
46323W        W18737  33.889  40.944  11.897
46324W        W18738  30.089  27.684   3.643
46325W        W18739  40.937  17.594  11.098
46326W        W18740   6.207   2.950   4.771
46327W        W18741  14.768  25.962   2.894
46328W        W18742  18.706  43.286   2.219
46329W        W18743   1.869  32.925   2.216
46330W        W18744  27.098   0.815  11.118
46331W        W18745  34.520  41.815   1.723
46332W        W18746  24.982  22.126   4.152
46333W        W18747  10.180  29.645   2.378
46334W        W18748   8.837  30.601   9.973
46335W        W18749  30.643  13.835  14.982
46336W        W18750  21.595  11.370  12.084
46337W        W18751  19.172  31.493  10.588
46338W        W18752  15.788  28.600  10.522
46339W        W18753  19.563   3.720   4.213
46340W        W18754  14.663   5.327   5.623
46341W        W18755  21.246  33.046   4.125
46342W        W18756  41.386  41.449  13.931
46343W        W18757   6.868  13.255  12.520
46344W        W18758  21.642  43.503  10.632
46345W        W18759  41.946  32.569  11.944
46346W        W18760  44.364  44.814  11.584
46347W        W18761  44.846  17.222   0.733
46348W        W18762  38.438  39.904  12.987
46349W        W18763   8.372  39.892  12.850
46350W        W18764  14.804  12.276   0.460
46351W        W18765  25.696  26.459  12.830
46352W        W18766  12.309  15.579  13.794
46353W        W18767  37.434  30.124  14.974
46354W        W18768  32.086  20.146  11.103
46355W        W18769   6.428   2.965  14.352
46356W        W18770  13.659   8.863   0.269
46357W        W18771  12.685  38.889   0.744
46358W        W18772   1.391  20.220  14.386
46359W        W18773  25.667   0.357  13.542
46360W        W18774  31.099  24.592   2.665
46361W        W18775  15.101  36.507   1.412
46362W        W18776  34.464   7.912  12.471
46363W        W18777  39.474   3.374  13.856
46364W        W18778  34.423  10.650   2.289
46365W        W18779   2.795  30.506   4.333
46366W        W18780  11.239  42.858  13.792
46367W        W18781   9.789  14.793   2.697
46368W        W18782  14.644   9.346   5.269
46369W        W18783  41.293  18.652  10.639
46370W        W18784  15.317  40.403   0.874
46371W        W18785   2.923  14.661  10.635
46372W        W18786  38.040  21.525   0.459
46373W        W18787  34.065   8.402  12.096
46374W        W18788  29.535  43.407  14.772
46375W        W18789  29.986  31.515  13.987
46376W        W18790  29.553  40.464   0.261
46377W        W18791  26.117  16.110   4.721
46378W        W18792  42.426   6.326  14.017
46379W        W18793  29.960  13.767   1.437
46380W        W18794  31.135  17.568  12.908
46381W        W18795  41.033  40.042  13.362
46382W        W18796  23.075  32.981   0.364
46383W        W18797  18.053  14.759  13.391
46384W        W18798  44.385   6.313  12.908
46385W        W18799  12.224   3.728   1.753
46386W        W18800  29.160  12.227   2.709
46387W        W18801  13.838   9.875   0.797
46388W        W18802   0.771  40.987   3.335
46389W        W18803  30.440   3.216   2.687
46390W        W18804   2.279  31.418   0.888
46391W        W18805  42.023  19.243  11.455
46392W        W18806  26.543   2.444  12.837
46393W        W18807  21.657  44.849  10.587
46394W        W18808  33.002  13.743   2.892
46395W        W18809  33.422  21.655  14.375
46396W        W18810  17.155  37.981  11.952
46397W        W18811   9.163  37.386  12.419
46398W        W18812  38.003  31.936   2.817
46399W        W18813  26.499  27.970   2.727
46400W        W18814  30.074  40.044  13.504
46401W        W18815  16.111   9.196   1.260
46402W        W18816  24.710  23.235   4.188
46403W        W18817   6.896  44.451  13.906
46404W        W18818  37.920  36.860  11.500
46405W        W18819  29.048  27.634   4.703
46406W        W18820  31.637  37.860   1.835
46407W        W18821  36.054  10.660  12.860
46408W        W18822  30.500   6.845   0.964
46409W        W18823  44.999  41.813  11.111
46410W        W18824   3.450  10.337   1.322
46411W        W18825   5.751  12.335   2.903
46412W        W18826   3.954   1.818   1.350
46413W        W18827   2.821  28.163  11.041
46414W        W18828  17.124  10.725  14.829
46415W        W18829  26.082  18.652  10.629
46416W        W18830  39.899  35.592  14.339
46417W        W18831  27.054  35.873  12.868
46418W        W18832  22.710  15.243   4.643
46419W        W18833  35.901   9.243  10.542
46420W        W18834  40.358  18.226   3.341
46421W        W18835  26.666   1.477   1.229
46422W        W18836  12.831  43.501   4.307
46423W        W18837   2.945  31.106   0.832
46424W        W18838  12.749   1.242   4.211
46425W        W18839  30.978  31.558   0.481
46426W        W18840   0.399  43.889   3.750
46427W        W18841  24.664  37.403   0.803
46428W        W18842  21.188  20.613  12.988
46429W        W18843  21.057  26.539  14.366
46430W        W18844   0.377   5.850  14.427
46431W        W18845  27.576  43.818  12.913
46432W        W18846  11.302  10.153  13.881
46433W        W18847  24.521  10.275   1.251
46434W        W18848  17.782  16.614  11.901
46435W        W18849  10.848  38.950   4.800
46436W        W18850  38.545  40.946  12.827
46437W        W18851  40.461  19.050   2.242
46438W        W18852   1.841   7.833   0.824
46439W        W18853  21.704  20.039  11.080
46440W        W18854   2.908   5.739  13.416
46441W        W18855   7.885   3.748   0.391
46442W        W18856  33.541   6.913   2.773
46443W        W18857  29.528  11.193   1.901
46444W        W18858  11.828  16.618  14.353
46445W        W18859  35.499  19.600   3.657
46446W        W18860   2.849   7.697   1.830
46447W        W18861  17.700  33.440  14.957
46448W        W18862  16.126  28.070  10.499
46449W        W18863   2.232  22.071  10.594
46450W        W18864  21.733  41.929   2.261
46451W        W18865  44.884  21.660  12.051
46452W        W18866   1.245  25.689   2.301
46453W        W18867  16.095  31.072  13.989
46454W        W18868   3.416  42.807  10.114
46455W        W18869  32.991   4.264   4.269
46456W        W18870  12.288  40.456   2.784
46457W        W18871  27.077  11.779  11.587
46458W        W18872  14.747  42.809  14.958
46459W        W18873  42.792   4.791   2.417
46460W        W18874  11.820   2.882   3.210
46461W        W18875   5.230  14.336  12.001
46462W        W18876  21.098  23.103   0.741
46463W        W18877  20.730   4.342   2.364
46464W        W18878  32.008   0.988  13.059
46465W        W18879  32.602  13.158   4.250
46466W        W18880  35.886   0.826  13.896
46467W        W18881  42.806   6.421   0.823
46468W        W18882  30.048  28.095   3.705
46469W        W18883  43.316  34.430   4.747
46470W        W18884  23.162  30.131  10.939
46471W        W18885  23.210  33.517  14.990
46472W        W18886   3.297  10.878   0.361
46473W        W18887  31.588  32.973  14.862
46474W        W18888   7.382  11.335   3.825
46475W        W18889  10.187   4.746   5.291
46476W        W18890  36.982  22.553  14.889
46477W        W18891  39.430   4.907  11.109
46478W        W18892  21.620  17.659   1.763
46479W        W18893   1.362  33.933  13.360
46480W        W18894  36.579  38.529  14.372
46481W        W18895  12.317  24.126   2.669
46482W        W18896   9.251  39.383  13.530
46483W        W18897  13.614  11.310  13.329
46484W        W18898  23.669  17.231  14.007
46485W        W18899  13.112   7.830  13.944
46486W        W18900   6.353   7.731  13.397
46487W        W18901  33.883  23.663  11.426
46488W        W18902  10.348  20.620   2.869
46489W        W18903  31.417  26.110  12.923
46490W        W18904  21.703   2.771   0.903
46491W        W18905  24.573   5.341   4.343
46492W        W18906  33.885   9.868  11.055
46493W        W18907  38.503  29.531   1.307
46494W        W18908  23.508   2.895  12.508
46495W        W18909  36.393  25.680  10.921
46496W        W18910  34.118  14.198  12.453
46497W        W18911   4.908  17.789  12.474
46498W        W18912  16.730   7.314   1.811
46499W        W18913   1.386  25.140   1.215
46500W        W18914  24.042   3.874  14.351
46501W        W18915  14.196  27.688   0.817
46502W        W18916   9.788  24.171   2.819
46503W        W18917  18.547  31.501  14.965
46504W        W18918  38.423  15.637   4.129
46505W        W18919  20.671   1.386  13.460
46506W        W18920  20.550   7.226   4.222
46507W        W18921  12.299  39.890  11.040
46508W        W18922  20.207  19.768   1.318
46509W        W18923  26.630  17.739  13.847
46510W        W18924  27.039  27.607  13.868
46511W        W18925  15.795  15.609  13.915
46512W        W18926  28.489   1.960  10.535
46513W        W18927  10.643  19.148   0.437
46514W        W18928  31.619   7.213   2.234
46515W        W18929  10.336  20.673  14.027
46516W        W18930  38.986  12.220  13.408
46517W        W18931  39.006  34.007   1.243
46518W        W18932  43.000  14.720  13.023
46519W        W18933  11.864  13.845   1.288
46520W        W18934   2.365  23.013  12.500
46521W        W18935  26.010  34.915  12.969
46522W        W18936   5.261  23.597   3.173
46523W        W18937  33.115  20.119   3.240
46524W        W18938  13.316  41.365   4.269
46525W        W18939   2.851  38.331   3.177
46526W        W18940  44.494  20.557   0.343
46527W        W18941  39.527  11.792  11.602
46528W        W18942  16.269  44.308   0.244
46529W        W18943  38.928  41.862   0.316
46530W        W18944  21.193  43.918  12.437
46531W        W18945  33.574  43.466  11.519
46532W        W18946  14.313  21.259  10.480
46533W        W18947  39.513   3.244   3.689
46534W        W18948  18.167  28.158   3.360
46535W        W18949  11.357  21.141   0.320
46536W        W18950  35.968  14.176  14.993
46537W        W18951  18.191   4.373   2.337
46538W        W18952   6.293  26.983  14.440
46539W        W18953  19.744  24.548  13.408
46540W        W18954   6.270  29.633  12.974
46541W        W18955  23.113  30.110  14.440
46542W        W18956   4.217  37.338  10.997
46543W        W18957   7.393  43.356  11.457
46544W        W18958  29.534  27.683  11.091
46545W        W18959  10.778  14.101   0.355
46546W        W18960  39.524  25.511   2.240
46547W        W18961   1.273  21.567  10.574
46548W        W18962   6.354   5.851   0.755
46549W        W18963  10.166   5.351  14.343
46550W        W18964  23.605  17.567   1.331
46551W        W18965  35.569  34.545   1.799
46552W        W18966  21.565  24.180   4.349
46553W        W18967  13.150  24.679   3.246
46554W        W18968  20.637  19.619  12.508
46555W        W18969  31.631  24.535  12.995
46556W        W18970  13.278   9.367  14.322
46557W        W18971  34.108   1.354   1.779
46558W        W18972  19.617   8.320   2.192
46559W        W18973   8.859   8.298  13.058
46560W        W18974   2.375  37.996  10.900
46561W        W18975  41.456  41.326  11.882
46562W        W18976  26.071  23.224  14.379
46563W        W18977  41.919   4.289   1.315
46564W        W18978  23.235  41.425   3.661
46565W        W18979  13.828   8.366   4.344
46566W        W18980   0.342  35.456   0.819
46567W        W18981  31.020   1.450  13.338
46568W        W18982  44.833  30.964  11.925
46569W        W18983  18.653  44.322   0.938
46570W        W18984  42.857  26.478  14.364
46571W        W18985  32.074  25.063   3.186
46572W        W18986  35.916  26.693  10.982
46573W        W18987  20.131  33.908   4.749
46574W        W18988  16.288   2.370   4.597
46575W        W18989  40.995  33.471   0.471
46576W        W18990  37.084  41.826  12.360
46577W        W18991  44.922  44.376   2.324
46578W        W18992  34.586   4.260  13.508
46579W        W18993  39.896  14.830  11.076
46580W        W18994  22.737  24.515   2.275
46581W        W18995  44.924  21.557   2.726
46582W        W18996   4.357  21.679   1.886
46583W        W18997  30.064   5.356   1.316
46584W        W18998  40.829   6.920  14.778
46585W        W18999   9.326  12.662  13.916
46586W        W19000  26.669  43.514  10.897
46587W        W19001   4.925  29.174   3.220
46588W        W19002  12.691   0.849   0.243
46589W        W19003  43.879  44.796   1.730
46590W        W19004  28.577   0.853   0.323
46591W        W19005  18.641  29.483  11.920
46592W        W19006  23.206   4.925  13.973
46593W        W19007  34.404  28.576   2.843
46594W        W19008   3.454  41.327  13.999
46595W        W19009  32.020   6.904   3.704
46596W        W19010   5.876  23.160  14.905
46597W        W19011  42.414  19.156  12.388
46598W        W19012   7.785   1.300  11.425
46599W        W19013  19.251  41.327  13.547
46600W        W19014  34.544  23.178   9.525
46601W        W19015  38.475  26.682  12.897
46602W        W19016  31.589   5.883   1.411
46603W        W19017  28.135  18.126   0.953
46604W        W19018  19.709  22.527   0.411
46605W        W19019  32.020   6.826   0.387
46606W        W19020   4.262   6.682   3.378
46607W        W19021   1.948   7.398   0.319
46608W        W19022  14.632  32.006  12.404
46609W        W19023  13.693  26.545   3.750
46610W        W19024  28.644  28.551  13.833
46611W        W19025  40.432   1.267   0.794
46612W        W19026   2.461  25.551   2.883
46613W        W19027  17.598  27.048   0.891
46614W        W19028  22.619  21.639  14.825
46615W        W19029   0.753  40.935  13.906
46616W        W19030  38.935  19.599   9.965
46617W        W19031  21.611  14.093   2.313
46618W        W19032  10.356  28.179   1.386
46619W        W19033  10.259  22.576   5.274
46620W        W19034  44.872  12.855   3.371
46621W        W19035  16.222  22.216  14.784
46622W        W19036   2.469  29.427   2.219
46623W        W19037   1.758  40.925  13.024
46624W        W19038  36.941  31.086   4.293
46625W        W19039  23.114  30.619   1.258
46626W        W19040  15.746  18.581   4.809
46627W        W19041  36.398  43.481   1.755
46628W        W19042   3.760  19.666   0.265
46629W        W19043  11.728  10.646   1.829
46630W        W19044  43.471  39.946  13.041
46631W        W19045  16.273  36.847  12.486
46632W        W19046  36.005   6.685   0.730
46633W        W19047  18.205  16.666  12.475
46634W        W19048  29.158  15.118  13.543
46635W        W19049   1.794  37.486  13.918
46636W        W19050  16.238  23.025  12.892
46637W        W19051  43.967  20.076   1.908
46638W        W19052  17.097  12.332  12.079
46639W        W19053  10.309  12.340  11.486
46640W        W19054  28.155  42.845   4.602
46641W        W19055  20.623  13.309   1.855
46642W        W19056   0.792  11.664  10.940
46643W        W19057  18.059  21.532  11.014
46644W        W19058   2.778  35.932   4.160
46645W        W19059  18.550   0.808  12.509
46646W        W19060  27.958  43.819  11.384
46647W        W19061  26.075  30.943  11.028
46648W        W19062  41.427  17.590  14.024
46649W        W19063  26.149  16.785   9.608
46650W        W19064  19.605   0.373  10.968
46651W        W19065  10.758  40.387   1.852
46652W        W19066  36.961  35.858   4.785
46653W        W19067   1.810  30.433   0.801
46654W        W19068  27.666  21.193   0.897
46655W        W19069  16.108  13.620   0.425
46656W        W19070  37.905   3.372  12.038
46657W        W19071  11.686  18.195  10.585
46658W        W19072  27.502   2.340   4.324
46659W        W19073  15.298  33.501  13.795
46660W        W19074  19.141   2.406  13.472
46661W        W19075  21.061  40.327   5.101
46662W        W19076   0.252  20.171  11.923
46663W        W19077  28.069  13.141   3.148
46664W        W19078  28.142   6.769  13.868
46665W        W19079  32.532  11.778   2.872
46666W        W19080  34.054  12.746   4.270
46667W        W19081  19.226  35.588   1.721
46668W        W19082  24.694  30.124  14.424
46669W        W19083   3.771   0.263   2.857
46670W        W19084  33.046  30.061  13.502
46671W        W19085   2.788  36.090  12.837
46672W        W19086  40.540  16.250  11.885
46673W        W19087  35.439   4.410  13.063
46674W        W19088  30.439  44.845   0.273
46675W        W19089  24.101  11.706   3.822
46676W        W19090  26.180  42.465  11.961
46677W        W19091  18.101  26.983  10.513
46678W        W19092  33.943  16.805  13.948
46679W        W19093  19.542  13.649   4.260
46680W        W19094   9.169  23.584   9.991
46681W        W19095   6.288   3.221   4.628
46682W        W19096  23.598  31.571  13.393
46683W        W19097  14.709  23.677  11.567
46684W        W19098  36.516  18.567   0.386
46685W        W19099  36.581   6.404  10.415
46686W        W19100  28.670   6.389  14.492
46687W        W19101  30.429  13.155   3.773
46688W        W19102  34.525  39.359   2.275
46689W        W19103  35.461  10.262  13.461
46690W        W19104  27.468  34.441   0.821
46691W        W19105  24.211  27.096  14.407
46692W        W19106  19.206  23.547   0.336
46693W        W19107  44.970  41.337  10.616
46694W        W19108  23.627  40.816   2.697
46695W        W19109  23.121   3.823  13.057
46696W        W19110  20.037  28.059   0.903
46697W        W19111  36.473  27.039  13.028
46698W        W19112  44.457   8.805   5.128
46699W        W19113   2.242  39.911   4.258
46700W        W19114  29.538   5.261   2.201
46701W        W19115  18.091   0.306   4.265
46702W        W19116   1.287  14.238  11.985
46703W        W19117  40.302  26.619   4.639
46704W        W19118  23.034  10.256  13.998
46705W        W19119   2.892  14.189  14.902
46706W        W19120  10.166  40.453  11.421
46707W        W19121  21.169  40.385   3.366
46708W        W19122   3.734  43.440   3.773
46709W        W19123  15.225   8.395  12.579
46710W        W19124  21.065  19.744  14.437
46711W        W19125  33.539  24.042   3.770
46712W        W19126  18.788  27.065   0.298
46713W        W19127   2.226   8.816   4.641
46714W        W19128   4.837  33.124   0.293
46715W        W19129  17.650  14.302   3.150
46716W        W19130  24.215   0.303  12.577
46717W        W19131   4.234  15.801  10.631
46718W        W19132  37.525   2.900   2.892
46719W        W19133   1.886  41.372   4.731
46720W        W19134  23.019  40.397  14.913
46721W        W19135   1.792  19.228  14.780
46722W        W19136  43.308   6.381   0.757
46723W        W19137  16.685   5.193  10.594
46724W        W19138  23.166  16.101   5.205
46725W        W19139  24.209  16.807  10.042
46726W        W19140  36.081  12.207   2.201
46727W        W19141   4.937  27.604  11.029
46728W        W19142   3.422  39.407  14.925
46729W        W19143   5.412  17.781  13.824
46730W        W19144  28.085   1.907   1.843
46731W        W19145  43.829  35.520   0.464
46732W        W19146  17.088  14.818   4.130
46733W        W19147  22.675   1.950   3.797
46734W        W19148   2.404  10.674   1.451
46735W        W19149   2.742  33.052  11.110
46736W        W19150  16.629  11.257  13.004
46737W        W19151  25.609  35.089  14.344
46738W        W19152  42.320  12.148   2.362
46739W        W19153  18.231  23.992   4.600
46740W        W19154  28.621  37.405  10.503
46741W        W19155  13.670  12.310  11.868
46742W        W19156  28.577  16.262  14.775
46743W        W19157  37.868   4.214  13.870
46744W        W19158   8.805  19.277  14.952
46745W        W19159  35.383  11.349  12.550
46746W        W19160  15.320  44.812  11.073
46747W        W19161   6.894  16.254   2.384
46748W        W19162  17.128   7.872  12.512
46749W        W19163   7.372  32.898   1.806
46750W        W19164  18.173  21.188  14.378
46751W        W19165   2.458  25.524  13.893
46752W        W19166   7.870   8.179  11.444
46753W        W19167   3.865  22.229  10.913
46754W        W19168  35.054  36.852  11.027
46755W        W19169  13.197  14.680   4.614
46756W        W19170  32.436  31.469   3.826
46757W        W19171   8.781  36.564  13.928
46758W        W19172   5.199  39.038  10.944
46759W        W19173  32.621  26.191  11.871
46760W        W19174  35.524  28.657   0.384
46761W        W19175  38.932   9.647  14.880
46762W        W19176  33.410   5.759   0.769
46763W        W19177  14.317  14.131  10.979
46764W        W19178  27.563  25.685   3.761
46765W        W19179  14.148  42.482  11.071
46766W        W19180   8.270  44.873  10.960
46767W        W19181  15.192   5.833   4.184
46768W        W19182  39.356  11.727   0.467
46769W        W19183  24.035  42.443  13.816
46770W        W19184  38.526  43.928   0.755
46771W        W19185  37.034  19.238   0.859
46772W        W19186   4.283  24.193   3.161
46773W        W19187  38.385  20.682   4.209
46774W        W19188  21.755   5.738   3.684
46775W        W19189  31.107  14.315   3.214
46776W        W19190  17.671  11.297   3.802
46777W        W19191  13.166  34.519   0.961
46778W        W19192  33.529   1.270  13.462
46779W        W19193  21.041   2.434   4.635
46780W        W19194  16.299  35.041  10.904
46781W        W19195  40.853  32.505   2.346
46782W        W19196  14.166   3.729  14.424
46783W        W19197  27.078  19.101  10.625
46784W        W19198  39.952  44.356  10.928
46785W        W19199  21.192  13.628  11.494
46786W        W19200  35.404  29.583   3.273
46787W        W19201   6.258  15.790  12.991
46788W        W19202  35.017  10.326  12.404
46789W        W19203   4.724   3.954  10.948
46790W        W19204  11.859  22.117   2.199
46791W        W19205  17.584  28.082   4.217
46792W        W19206  15.294  16.186  10.889
46793W        W19207   3.437  11.353  12.064
46794W        W19208   2.410  32.038  12.921
46795W        W19209  43.426  35.886   1.897
46796W        W19210  42.515  13.212  11.052
46797W        W19211  10.164  36.048   4.815
46798W        W19212  42.518  31.912   3.726
46799W        W19213  38.328   7.231   2.898
46800W        W19214  16.805  26.514  11.422
46801W        W19215   7.801  39.810   1.931
46802W        W19216  20.083  12.830   2.322
46803W        W19217  36.568  25.578  12.362
46804W        W19218   3.762  37.895  14.883
46805W        W19219  28.574  42.961  12.528
46806W        W19220   6.190  23.035   4.296
46807W        W19221   2.926  18.773   4.149
46808W        W19222  30.156   9.732   3.324
46809W        W19223  26.492   7.373  13.337
46810W        W19224  32.496  17.103   1.864
46811W        W19225   7.377   2.952  14.341
46812W        W19226  42.291  40.824  14.367
46813W        W19227  32.956  25.120   3.226
46814W        W19228  18.205   2.313   0.854
46815W        W19229   5.362  36.027   3.823
46816W        W19230   3.286  37.894   2.289
46817W        W19231  32.896  14.744   0.367
46818W        W19232  24.539  42.849  11.081
46819W        W19233  11.735  38.443   2.888
46820W        W19234  21.155  32.600   0.886
46821W        W19235  24.087   7.832  12.926
46822W        W19236  17.197   3.869  11.442
46823W        W19237  22.231  22.029   4.117
46824W        W19238   0.955  32.493   3.801
46825W        W19239  16.670   6.280   2.796
46826W        W19240  32.108  38.541  14.480
46827W        W19241   8.775  44.406  13.417
46828W        W19242  12.154  39.876   1.423
46829W        W19243  34.010  18.782  13.473
46830W        W19244   7.310   2.471  13.892
46831W        W19245   6.830  26.115  10.486
46832W        W19246  32.561  44.445  13.816
46833W        W19247   6.363   7.695  14.788
46834W        W19248  17.719  38.530  11.563
46835W        W19249  35.977  17.155  10.592
46836W        W19250  36.911  19.545  10.635
46837W        W19251  23.129  19.533   3.243
46838W        W19252  11.262  41.322   2.831
46839W        W19253   0.933  16.602  13.910
46840W        W19254  20.657  38.528   4.199
46841W        W19255  18.073  37.470   1.236
46842W        W19256  39.444  34.501  12.428
46843W        W19257   2.722  26.520  11.385
46844W        W19258  33.543   4.319   2.293
46845W        W19259  34.558  15.155  10.410
46846W        W19260  35.501  33.124   2.705
46847W        W19261  16.704  26.164   1.290
46848W        W19262  36.014  41.923  14.969
46849W        W19263   2.899  40.436   4.597
46850W        W19264  30.951   1.286   1.846
46851W        W19265  28.565  32.500  14.318
46852W        W19266  18.628  25.194   1.776
46853W        W19267  19.164  28.562  12.345
46854W        W19268  31.016   1.242  14.932
46855W        W19269  13.756  43.910   0.965
46856W        W19270  25.580  34.482  12.862
46857W        W19271  17.217  17.142  11.107
46858W        W19272  38.334  23.063   1.418
46859W        W19273  38.025  37.917  12.845
46860W        W19274  17.801  23.220   0.937
46861W        W19275   6.747  27.065  11.053
46862W        W19276  40.396  27.057   3.358
46863W        W19277   1.902  26.696  10.462
46864W        W19278  41.794  26.036   4.755
46865W        W19279   2.956  13.176   2.708
46866W        W19280  38.363  14.335   0.402
46867W        W19281  32.538  10.372  12.875
46868W        W19282  23.100  12.699  12.946
46869W        W19283   8.724  39.869  13.387
46870W        W19284  30.942   7.205  11.003
46871W        W19285  24.225  34.494  10.624
46872W        W19286  28.633  35.496  13.923
46873W        W19287  13.846  26.607  12.359
46874W        W19288  39.939   1.243   1.704
46875W        W19289  17.599   9.368   1.440
46876W        W19290  24.024  37.492   1.790
46877W        W19291   9.764  35.029   2.827
46878W        W19292  44.886   2.943  11.500
46879W        W19293  33.070   5.897   1.779
46880W        W19294  16.766  27.479   0.358
46881W        W19295   2.266   7.904   1.406
46882W        W19296   8.219  11.827  10.627
46883W        W19297  43.505   5.347   3.793
46884W        W19298  40.461  17.696   4.261
46885W        W19299   1.288   7.401  12.480
46886W        W19300   6.718   7.755   4.657
46887W        W19301   7.326   5.324   0.392
46888W        W19302  14.260  20.653  14.024
46889W        W19303  39.370  16.730  14.445
46890W        W19304  32.452  35.465   3.653
46891W        W19305  29.545  33.916   4.279
46892W        W19306  34.918   2.296  11.872
46893W        W19307  42.780  32.493  13.940
46894W        W19308   3.375  12.151  10.470
46895W        W19309  44.853   6.190   0.412
46896W        W19310  14.137   8.724   2.841
46897W        W19311   1.379  21.114  12.579
46898W        W19312  26.057  44.965  13.459
46899W        W19313  12.758  33.041  11.965
46900W        W19314  14.250  24.089   3.371
46901W        W19315  34.117  31.096   3.198
46902W        W19316  39.820  42.811  14.306
46903W        W19317  24.559  37.984   4.277
46904W        W19318  22.012  34.983  13.459
46905W        W19319  44.862  39.316   0.375
46906W        W19320  20.632  11.771   0.432
46907W        W19321  17.779  33.940  13.851
46908W        W19322  41.924  14.293  14.773
46909W        W19323   1.314   4.738  10.532
46910W        W19324  35.601  31.965  11.074
46911W        W19325  40.013   5.776   1.443
46912W        W19326  22.614  13.316  12.545
46913W        W19327  42.483   6.827  13.872
46914W        W19328   3.931   2.282   2.409
46915W        W19329  23.629  33.467   2.810
46916W        W19330  15.287   7.267  11.536
46917W        W19331   4.789  32.604  13.316
46918W        W19332  19.645  12.817  11.378
46919W        W19333  20.215  44.812  12.053
46920W        W19334  31.112  10.807  14.940
46921W        W19335  40.507  18.181  14.420
46922W        W19336   3.845  14.618  10.451
46923W        W19337  16.596  37.509  13.495
46924W        W19338  39.545  18.692   0.367
46925W        W19339  17.639  32.929  13.813
46926W        W19340  37.973  14.129   4.346
46927W        W19341   4.770  44.778  10.579
46928W        W19342  35.364   5.370  13.804
46929W        W19343  14.652  41.040   2.352
46930W        W19344  43.394  18.175  13.871
46931W        W19345  10.308  26.641   4.161
46932W        W19346  24.519  24.595   1.286
46933W        W19347   8.392   5.762   3.344
46934W        W19348  31.025  16.661  13.460
46935W        W19349  14.657  36.023  12.050
46936W        W19350  31.628   3.382  12.018
46937W        W19351   2.241  30.926  11.890
46938W        W19352  17.251  17.730   3.802
46939W        W19353  12.146  26.507  14.847
46940W        W19354  15.585  16.271   0.965
46941W        W19355  24.119  10.272   1.427
46942W        W19356   3.418  44.327   0.751
46943W        W19357  11.622  11.317  14.366
46944W        W19358  21.204  39.382   3.732
46945W        W19359  33.904  11.826   1.419
46946W        W19360   4.407  28.125   4.734
46947W        W19361  31.115  19.593   0.338
46948W        W19362  30.055   5.900   4.178
46949W        W19363  37.838   1.833   0.392
46950W        W19364  40.514  28.940  13.367
46951W        W19365  19.124   1.345   2.887
46952W        W19366  13.207  16.136  12.885
46953W        W19367  30.039  20.723   0.907
46954W        W19368  12.847   2.772   4.113
46955W        W19369  12.242  18.251   0.475
46956W        W19370  34.395  12.818   0.465
46957W        W19371  17.670  36.401  13.480
46958W        W19372  30.005  33.060  10.467
46959W        W19373  10.697  25.014  10.507
46960W        W19374   8.348  44.773  13.320
46961W        W19375  19.120  36.879  10.558
46962W        W19376   9.223  44.949   1.418
46963W        W19377  36.066   8.214  10.520
46964W        W19378  13.823  40.389   4.818
46965W        W19379  44.416  33.537   4.223
46966W        W19380  30.601  20.608   1.281
46967W        W19381  44.761  23.029   2.400
46968W        W19382   0.941  31.071  11.031
46969W        W19383  10.656  31.025   4.226
46970W        W19384  39.962  36.430  12.381
46971W        W19385   4.701   6.705   1.837
46972W        W19386  13.675  44.308   4.307
46973W        W19387  11.241   2.258   0.300
46974W        W19388   8.700  12.751   4.331
46975W        W19389  25.702  32.975   3.379
46976W        W19390  26.193   5.842  14.461
46977W        W19391  10.290  42.524  14.922
46978W        W19392  38.495   7.360  13.791
46979W        W19393  21.083   8.277   4.810
46980W        W19394  12.742  44.829  13.867
46981W        W19395   5.212  34.112  12.491
46982W        W19396  16.658  14.232   4.126
46983W        W19397  22.149  21.757  12.053
46984W        W19398  16.154  19.765  12.849
46985W        W19399  25.546   2.751  11.084
46986W        W19400  15.781  38.383   4.228
46987W        W19401   8.827  23.215   4.233
46988W        W19402   1.946   7.805   1.288
46989W        W19403  29.032   3.427  12.379
46990W        W19404  32.444   0.320   4.188
46991W        W19405   0.450  37.336   4.611
46992W        W19406  12.838  29.626  14.859
46993W        W19407  27.964   2.373  13.940
46994W        W19408   0.786   2.783  11.090
46995W        W19409  15.123  33.962  12.966
46996W        W19410  26.971  12.278   3.275
46997W        W19411  42.779  18.158  13.938
46998W        W19412  16.266  44.985   3.659
46999W        W19413  29.634  42.396  13.468
47000W        W19414   0.314   0.913   1.402
47001W        W19415  39.017  24.495   0.967
47002W        W19416   3.268  18.247  10.413
47003W        W19417  30.564  16.202  12.531
47004W        W19418   6.183  37.571  13.847
47005W        W19419  37.554  35.110  13.798
47006W        W19420  28.462  23.042  11.480
47007W        W19421  38.550  30.072   1.285
47008W        W19422  35.397  13.765  14.770
47009W        W19423   8.308  38.355   3.820
47010W        W19424  32.434  42.809  11.492
47011W        W19425  36.941  24.515  14.322
47012W        W19426  19.223  44.483   4.697
47013W        W19427  21.670  21.084  13.337
47014W        W19428  33.614  42.779   3.209
47015W        W19429  40.469  14.205  12.050
47016W        W19430  16.104   7.830   4.801
47017W        W19431   2.963  12.266  12.579
47018W        W19432  15.107   7.737   1.344
47019W        W19433  40.388  24.610   3.354
47020W        W19434  26.101   5.721  12.394
47021W        W19435  25.576  26.466  11.129
47022W        W19436   1.856  17.786  11.400
47023W        W19437   4.231  14.239  11.461
47024W        W19438  20.177  15.672  10.948
47025W        W19439  33.988  37.576  12.055
47026W        W19440   1.400  39.350  11.563
47027W        W19441  25.606  36.353  14.981
47028W        W19442  38.458  33.932  14.953
47029W        W19443  34.496  16.229  10.538
47030W        W19444  35.957   0.452   2.674
47031W        W19445  41.881  40.420  11.987
47032W        W19446  44.477  27.060   4.270
47033W        W19447  41.935  42.344  11.507
47034W        W19448  36.985   3.277  11.046
47035W        W19449  36.424  37.972   1.865
47036W        W19450  33.889  29.162  12.952
47037W        W19451  41.455  25.211  10.606
47038W        W19452  38.482  15.236  10.517
47039W        W19453  40.026   4.252   3.831
47040W        W19454   7.733  18.723  14.865
47041W        W19455   6.714  39.412  12.407
47042W        W19456   9.675  32.636   3.246
47043W        W19457  15.148  23.094   4.299
47044W        W19458  26.034  25.194   3.152
47045W        W19459  35.907  34.595   1.243
47046W        W19460  16.701  23.597   1.915
47047W        W19461   0.258  29.934   1.847
47048W        W19462  35.426   4.340  13.898
47049W        W19463  24.027   3.237   4.144
47050W        W19464   6.349  38.825  13.823
47051W        W19465  13.232   9.688  10.510
47052W        W19466  15.795  38.389  14.776
47053W        W19467   8.248  31.513  13.836
47054W        W19468  31.026  39.534   3.802
47055W        W19469  42.936  11.662  13.500
47056W        W19470  10.753  23.001  13.865
47057W        W19471  34.927  40.321   1.399
47058W        W19472  13.769  38.028   2.205
47059W        W19473  29.598  38.401   1.386
47060W        W19474   2.330  10.733   3.147
47061W        W19475  21.633  28.459   3.235
47062W        W19476  28.105  15.094  10.961
47063W        W19477  41.297  12.680  10.960
47064W        W19478   2.299   1.907  12.841
47065W        W19479  33.432  34.923   3.809
47066W        W19480   6.368  29.652   4.224
47067W        W19481  16.297   1.845  14.378
47068W        W19482  15.128  10.700   1.725
47069W        W19483  16.242  35.017  12.390
47070W        W19484  11.312  11.833  14.484
47071W        W19485  44.917  34.377  11.879
47072W        W19486  43.278  15.744  10.026
47073W        W19487  42.430  28.933  13.860
47074W        W19488   2.825  23.570   0.784
47075W        W19489  31.526  15.743  13.445
47076W        W19490  31.920  38.366  10.930
47077W        W19491  18.115  39.353  10.459
47078W        W19492  21.632  12.789  12.970
47079W        W19493  39.062  14.651   2.684
47080W        W19494  27.659  40.403  13.865
47081W        W19495  44.264   4.249   2.262
47082W        W19496   8.758   9.231  14.953
47083W        W19497  22.040  43.943  14.480
47084W        W19498  19.538  39.943  11.089
47085W        W19499  29.094  35.461  12.032
47086W        W19500   4.773  15.626  11.964
47087W        W19501  22.684   6.680  13.388
47088W        W19502   2.940  41.373   3.327
47089W        W19503  29.571  17.200  14.913
47090W        W19504  10.165  21.588   0.761
47091W        W19505   4.930  23.998   2.329
47092W        W19506  29.961  18.619  10.558
47093W        W19507  16.681  21.104  13.343
47094W        W19508   2.389   2.271  13.515
47095W        W19509  26.607  32.487   4.658
47096W        W19510   5.879  13.685   3.836
47097W        W19511  26.966  13.773   1.759
47098W        W19512  40.378  36.059   1.318
47099W        W19513  40.519  37.462   0.364
47100W        W19514  29.010   6.905  12.348
47101W        W19515  15.677   3.836   3.774
47102W        W19516  11.747  44.410   3.313
47103W        W19517  31.626   0.350  11.491
47104W        W19518  12.666   4.754   4.745
47105W        W19519  37.519  12.622  10.064
47106W        W19520  26.000  39.951  14.024
47107W        W19521  14.627   7.673   0.336
47108W        W19522  22.128  30.950  13.431
47109W        W19523   5.264  32.919  10.466
47110W        W19524  31.550  36.051   2.706
47111W        W19525   5.403  10.263  14.778
47112W        W19526  43.928   5.247  13.535
47113W        W19527  22.642  39.965  14.019
47114W        W19528  27.182  41.302  12.411
47115W        W19529  34.539  38.499  13.871
47116W        W19530   1.339  44.781   0.949
47117W        W19531  24.624  44.444   2.368
47118W        W19532  24.042  16.137   1.930
47119W        W19533  19.690  30.124   4.281
47120W        W19534  40.533  40.471   3.368
47121W        W19535   9.350  31.924  14.416
47122W        W19536  26.579  33.044  12.557
47123W        W19537  42.932   2.870  11.120
47124W        W19538  19.167  25.549   1.885
47125W        W19539  29.476  18.236  11.540
47126W        W19540  20.221  35.476   0.926
47127W        W19541  33.061  22.512  11.405
47128W        W19542  25.216   8.680  11.053
47129W        W19543  34.438   8.869   3.640
47130W        W19544   7.308  28.601  12.040
47131W        W19545  10.356  42.500   3.702
47132W        W19546   9.693  38.362  11.509
47133W        W19547  40.360  29.463   4.250
47134W        W19548  27.074  24.570  14.412
47135W        W19549  28.105  20.271   2.240
47136W        W19550  23.568  44.940   3.150
47137W        W19551  30.120   4.346  11.520
47138W        W19552  43.811  40.836   1.414
47139W        W19553  23.590  34.006   1.243
47140W        W19554  22.726  38.349  14.806
47141W        W19555  22.072  38.921  14.997
47142W        W19556  11.146   4.259  14.927
47143W        W19557  38.954  37.042   4.747
47144W        W19558   6.766  21.541  14.962
47145W        W19559  40.532   7.283   4.631
47146W        W19560   2.819  15.220   5.155
47147W        W19561  35.529   7.238  10.477
47148W        W19562  19.216  14.714  12.923
47149W        W19563  39.381   6.390  12.524
47150W        W19564  19.700   2.228  13.800
47151W        W19565  11.166  41.302   2.389
47152W        W19566   9.222   8.265   0.373
47153W        W19567  36.071  11.271   0.421
47154W        W19568  32.050  14.768   2.378
47155W        W19569  19.629  13.832   3.668
47156W        W19570  34.000  24.627  14.408
47157W        W19571  10.646   1.344  10.934
47158W        W19572  35.473  14.674  12.922
47159W        W19573  24.058  24.509  13.313
47160W        W19574  24.534   9.206  14.998
47161W        W19575   5.845  26.083   4.272
47162W        W19576   9.359  19.746   2.730
47163W        W19577   7.880  11.252  10.936
47164W        W19578   0.427  21.699   2.823
47165W        W19579   1.757  35.603  12.832
47166W        W19580  21.554  15.276  11.438
47167W        W19581   0.930   6.410   2.191
47168W        W19582  40.434  35.012   4.327
47169W        W19583  18.274  30.476   0.332
47170W        W19584  35.473   7.706  11.404
47171W        W19585  37.436  44.501   4.129
47172W        W19586  27.485  39.828   2.692
47173W        W19587   5.871  27.104  13.000
47174W        W19588  13.326  40.888   2.663
47175W        W19589  41.414   6.371  10.973
47176W        W19590   5.709  23.608  12.071
47177W        W19591  17.266  14.250   2.270
47178W        W19592  16.097  33.121  11.102
47179W        W19593  31.437   5.904  12.938
47180W        W19594  29.596  44.417   4.129
47181W        W19595  16.596  19.101  12.377
47182W        W19596  10.316   5.417   3.853
47183W        W19597  31.104  15.640  10.929
47184W        W19598  32.629  37.861  10.527
47185W        W19599  17.723   5.870  10.514
47186W        W19600  23.665  24.510  13.328
47187W        W19601   4.746  28.451  11.550
47188W        W19602   3.712  41.882   4.259
47189W        W19603  22.127  31.430  10.433
47190W        W19604  13.319   9.670   4.814
47191W        W19605  40.330   2.340  12.419
47192W        W19606   1.322  40.354  10.938
47193W        W19607  41.021  17.656   2.809
47194W        W19608  25.502  44.418  10.502
47195W        W19609  26.208  19.743  13.914
47196W        W19610  19.071  30.451   3.353
47197W        W19611  20.718  12.658   1.400
47198W        W19612  22.626  35.547   3.795
47199W        W19613   3.426   6.821   0.805
47200W        W19614  16.279  17.596  11.408
47201W        W19615  19.695  18.173   1.866
47202W        W19616  24.557  12.647  11.375
47203W        W19617  29.921  32.025  12.859
47204W        W19618   7.223  36.428  13.982
47205W        W19619  28.609  21.215  12.446
47206W        W19620  38.337   9.861   4.778
47207W        W19621  21.257  44.388  11.898
47208W        W19622   0.490  13.675   0.371
47209W        W19623  21.623  14.305  12.574
47210W        W19624  25.127  42.855  11.903
47211W        W19625  30.576  44.389   4.625
47212W        W19626  34.871   4.267   3.658
47213W        W19627  16.250  36.026  14.877
47214W        W19628   5.413  28.148  10.449
47215W        W19629  44.262  29.174   0.908
47216W        W19630  17.733  20.535   3.852
47217W        W19631  15.613  10.723   1.858
47218W        W19632   7.282  23.496   4.216
47219W        W19633  34.891  31.422  14.475
47220W        W19634  38.455   9.321   2.799
47221W        W19635  16.727  37.842   2.205
47222W        W19636   8.884  33.044  12.927
47223W        W19637  12.617   5.229   2.701
47224W        W19638  42.472  25.977   2.869
47225W        W19639   9.759  22.204  12.076
47226W        W19640  13.608  37.842   2.886
47227W        W19641  27.519  20.102   3.149
47228W        W19642  16.713  17.203   2.288
47229W        W19643  20.727  18.564   1.794
47230W        W19644  32.447   6.313   4.130
47231W        W19645  14.722  11.768   2.740
47232W        W19646  33.420  36.026   1.828
47233W        W19647   7.172  20.162  11.445
47234W        W19648  37.906  24.620   0.897
47235W        W19649  13.724  40.330   2.724
47236W        W19650  33.470   2.435  11.475
47237W        W19651  17.738  19.086   3.775
47238W        W19652  40.522  12.320   0.466
47239W        W19653  22.557   5.895   4.353
47240W        W19654  28.519  26.562   3.821
47241W        W19655  43.791  35.491   0.783
47242W        W19656  33.574  16.790  11.938
47243W        W19657  34.413  36.055   0.282
47244W        W19658   9.746   9.651   1.212
47245W        W19659  37.446  44.463   1.230
47246W        W19660  25.997  16.798  14.363
47247W        W19661  44.492  21.677  12.837
47248W        W19662  25.080  15.717   3.812
47249W        W19663  20.686  31.050   4.765
47250W        W19664  33.565  39.978   2.843
47251W        W19665  33.893  11.755  10.527
47252W        W19666  29.176   6.909   0.365
47253W        W19667  39.851   9.237  10.573
47254W        W19668   0.854  30.631  10.525
47255W        W19669  20.558  18.198   3.813
47256W        W19670   1.415  17.222  13.028
47257W        W19671  14.817  37.012   4.328
47258W        W19672  36.420  30.089  13.889
47259W        W19673   4.290  24.004  12.415
47260W        W19674   7.860  35.448   0.817
47261W        W19675  32.404   7.379  13.037
47262W        W19676  10.874  17.563  13.444
47263W        W19677  21.702  35.507  11.378
47264W        W19678  19.145  20.064  10.639
47265W        W19679   4.942   1.302  14.808
47266W        W19680  23.090  13.302   0.299
47267W        W19681  31.026  34.927  11.390
47268W        W19682  41.871  26.198  14.391
47269W        W19683  31.018  39.408  13.398
47270W        W19684  36.562   5.704  13.863
47271W        W19685  22.728  23.183   4.336
47272W        W19686  35.919  31.625   2.800
47273W        W19687   8.230  31.517   2.880
47274W        W19688  40.934  32.417  14.803
47275W        W19689   0.437  37.357   4.186
47276W        W19690  39.395   6.338  11.980
47277W        W19691  41.495  21.597  12.854
47278W        W19692   9.878  43.986  14.399
47279W        W19693  38.428  15.160   3.830
47280W        W19694   8.812   5.831  13.457
47281W        W19695  37.980  22.508  14.416
47282W        W19696  30.635  21.645  14.319
47283W        W19697  16.121  38.037  12.915
47284W        W19698  37.541   2.915   3.153
47285W        W19699  25.692  41.827   4.210
47286W        W19700   7.798  28.139  11.900
47287W        W19701  13.653  28.074  14.998
47288W        W19702  16.114  13.700  10.604
47289W        W19703   7.669  39.390   4.283
47290W        W19704   6.702  26.632  11.081
47291W        W19705  29.991   8.290   3.681
47292W        W19706  19.723  35.871  14.890
47293W        W19707  12.338  18.634   3.708
47294W        W19708   4.841  20.272   2.268
47295W        W19709  38.819  36.553   3.208
47296W        W19710  23.232  42.309   0.929
47297W        W19711  23.679  33.557   2.192
47298W        W19712  44.328  36.477   4.706
47299W        W19713  16.790  22.188   0.398
47300W        W19714  20.144   2.254  13.521
47301W        W19715  34.970  37.007  12.045
47302W        W19716  11.193  26.115   2.256
47303W        W19717   9.748   3.808   2.762
47304W        W19718  44.323  39.323  11.038
47305W        W19719  16.605  34.983  10.967
47306W        W19720   1.272  14.225   1.783
47307W        W19721  44.335  15.103   1.424
47308W        W19722  33.513  30.096  10.458
47309W        W19723  22.661   7.750   2.897
47310W        W19724  11.316  13.231  11.019
47311W        W19725  24.034  23.704  12.555
47312W        W19726   2.752  36.979  10.613
47313W        W19727   6.344  27.034  11.573
47314W        W19728   5.721  41.460   2.835
47315W        W19729  24.076  21.616  13.542
47316W        W19730  33.416  10.803  13.815
47317W        W19731  20.715  16.719   3.867
47318W        W19732  31.425  27.965   0.269
47319W        W19733   6.413  14.247   0.376
47320W        W19734  40.375  16.717   1.371
47321W        W19735  23.502  23.731   1.695
47322W        W19736  33.585  22.211  12.015
47323W        W19737  30.554  40.457  13.820
47324W        W19738  15.679  20.267   2.742
47325W        W19739   4.207   0.840  13.801
47326W        W19740   8.726  24.079  11.083
47327W        W19741  15.794   5.218  10.538
47328W        W19742  26.993  37.406   1.713
47329W        W19743  36.512  15.606   2.779
47330W        W19744   3.736  21.134  12.086
47331W        W19745  19.190  14.608  14.942
47332W        W19746  12.239   6.326   4.261
47333W        W19747   1.764  33.524  12.950
47334W        W19748  37.842   6.732  11.991
47335W        W19749  29.141   7.266   3.226
47336W        W19750  19.727   7.871   3.246
47337W        W19751  32.470  27.098  12.476
47338W        W19752  10.731  44.448   3.247
47339W        W19753  29.587  41.836   2.196
47340W        W19754  38.360  15.580  10.487
47341W        W19755  22.590   3.393  13.409
47342W        W19756  17.720  10.144  11.904
47343W        W19757  17.169  21.528  11.503
47344W        W19758  41.796  30.513  14.500
47345W        W19759  29.118  27.123  12.882
47346W        W19760  25.514   9.196  14.437
47347W        W19761  15.104   0.362   2.784
47348W        W19762  14.285  30.044   1.423
47349W        W19763   6.353  14.708  10.992
47350W        W19764  40.493  31.985   4.326
47351W        W19765  15.824  37.059  11.866
47352W        W19766   9.702   7.894  13.448
47353W        W19767  10.329   1.272  10.584
47354W        W19768  31.128  35.424   2.223
47355W        W19769  44.295  10.147  14.397
47356W        W19770  41.473  33.893   4.666
47357W        W19771  22.723  12.708   1.907
47358W        W19772  38.998   1.821  13.943
47359W        W19773   3.918  24.676  12.954
47360W        W19774  30.963  15.646   9.988
47361W        W19775  29.145  23.627  11.963
47362W        W19776   4.757  28.488   4.232
47363W        W19777  41.471  44.891  12.447
47364W        W19778  23.212  26.562   3.166
47365W        W19779   2.325  30.425  10.939
47366W        W19780  25.113   0.973   1.806
47367W        W19781  26.533  39.947  13.061
47368W        W19782  44.967  34.087  12.561
47369W        W19783  19.089  43.441   9.939
47370W        W19784  38.915  30.503   4.340
47371W        W19785  35.104  22.059   4.680
47372W        W19786  37.409  31.951   3.710
47373W        W19787  19.259  39.894  14.862
47374W        W19788  44.304   2.772  13.860
47375W        W19789  29.498  12.236   1.233
47376W        W19790   5.403  33.984   3.207
47377W        W19791  14.226   1.789  14.928
47378W        W19792  18.104  14.737  14.959
47379W        W19793  26.972  28.947  12.534
47380W        W19794  13.736  25.467  12.984
47381W        W19795   6.840  30.446   3.149
47382W        W19796  25.516   7.710  14.914
47383W        W19797  21.093   2.956  13.460
47384W        W19798  28.650  17.706  11.432
47385W        W19799  31.529   2.785  12.957
47386W        W19800  13.820  21.546   4.129
47387W        W19801  16.229  37.865   1.227
47388W        W19802  18.701  42.451   4.136
47389W        W19803  15.269  39.031  11.941
47390W        W19804  22.162  19.195  10.437
47391W        W19805  19.155  22.719   2.888
47392W        W19806  27.500  24.135   0.765
47393W        W19807   9.643  24.521   0.297
47394W        W19808  35.502  29.522  14.510
47395W        W19809   2.277   4.934   3.347
47396W        W19810  42.987   4.438  10.584
47397W        W19811  34.522  26.566  12.342
47398W        W19812  24.505  38.839  11.892
47399W        W19813  44.980  37.831   1.915
47400W        W19814  33.568   1.429  14.285
47401W        W19815  29.085  21.640  10.544
47402W        W19816  17.162  16.195   4.812
47403W        W19817  25.176   8.292  10.430
47404W        W19818  42.282  33.006  11.118
47405W        W19819  30.568  17.198  13.334
47406W        W19820  24.563  23.196   0.473
47407W        W19821  12.336  22.618  11.527
47408W        W19822  41.790  17.278   1.920
47409W        W19823  42.918  30.161  14.933
47410W        W19824  41.972   8.186   2.206
47411W        W19825  21.231  38.059   1.257
47412W        W19826   0.425  32.472  14.492
47413W        W19827   5.265  36.584  10.576
47414W        W19828   5.302  27.601   1.736
47415W        W19829  19.050  26.505   1.935
47416W        W19830   9.215  26.992   3.246
47417W        W19831  30.141   7.778  11.999
47418W        W19832  28.056  33.956   0.474
47419W        W19833  29.561  30.470   1.447
47420W        W19834   1.828  35.360   3.318
47421W        W19835  38.060   1.356   0.311
47422W        W19836  38.074  24.554  13.897
47423W        W19837  12.336  21.541   2.876
47424W        W19838   5.194   8.678   3.753
47425W        W19839   5.293   6.800  10.439
47426W        W19840  28.473  13.622  14.324
47427W        W19841  43.985  26.577   3.634
47428W        W19842  24.150  37.066  13.912
47429W        W19843  39.901  44.465  12.852
47430W        W19844   6.816  34.547  12.898
47431W        W19845   5.912   2.904   0.943
47432W        W19846   9.294  24.711   0.819
47433W        W19847  39.917   2.414  14.835
47434W        W19848  19.283  32.445  12.062
47435W        W19849  31.575  11.324   1.311
47436W        W19850   9.177  21.073   2.823
47437W        W19851  15.635  43.402  13.318
47438W        W19852  26.487  44.380   4.270
47439W        W19853  18.738  15.675  11.126
47440W        W19854   4.266  13.313  13.889
47441W        W19855  29.660  28.092   1.729
47442W        W19856  44.399  44.428   5.127
47443W        W19857  28.546  40.463  11.593
47444W        W19858  37.869  23.690  11.920
47445W        W19859  23.730  22.554   3.175
47446W        W19860  10.699  19.637   1.432
47447W        W19861  42.289  12.694  12.478
47448W        W19862   5.756  35.012  14.354
47449W        W19863  37.466   4.380  13.887
47450W        W19864  28.493  31.627  10.430
47451W        W19865   9.678  28.101  12.375
47452W        W19866   6.185  26.114   3.362
47453W        W19867   1.734  25.675  13.988
47454W        W19868   0.470  17.737  11.613
47455W        W19869   8.795  13.228  12.567
47456W        W19870  28.501  43.424  10.923
47457W        W19871   6.299   3.837  13.811
47458W        W19872  21.123  41.874  14.991
47459W        W19873  20.236  15.217  11.949
47460W        W19874  16.744   0.788  10.952
47461W        W19875  31.589  26.661  13.926
47462W        W19876   2.309  20.734  13.842
47463W        W19877  16.226  24.227  12.085
47464W        W19878  39.874  12.784  14.344
47465W        W19879  21.571  10.746   3.321
47466W        W19880  11.685  24.620   4.744
47467W        W19881  14.689  33.044  14.879
47468W        W19882   7.401  27.520   0.419
47469W        W19883  44.381   5.209  11.562
47470W        W19884   5.333   1.294   2.808
47471W        W19885  13.218  43.769  12.924
47472W        W19886  24.724  29.026   0.344
47473W        W19887  14.719   0.373   9.946
47474W        W19888  36.910  23.227   4.140
47475W        W19889  26.703  43.322   3.781
47476W        W19890  19.204  12.847  11.379
47477W        W19891   5.331  40.318   0.247
47478W        W19892  23.225  26.986   2.702
47479W        W19893   8.273  29.605   3.714
47480W        W19894  11.774  32.950   2.226
47481W        W19895  21.072   3.440   4.823
47482W        W19896  26.091  34.004   4.284
47483W        W19897   0.413   1.775  13.951
47484W        W19898   3.452  40.953  14.297
47485W        W19899  38.359   3.382  10.058
47486W        W19900  17.241   4.711   1.858
47487W        W19901  42.439  17.137  10.585
47488W        W19902  22.159  41.350  12.092
47489W        W19903  37.555   2.369   3.794
47490W        W19904  29.519   4.726  11.548
47491W        W19905  26.532  32.494  13.408
47492W        W19906  19.093   0.252  10.594
47493W        W19907  16.240  32.430  11.561
47494W        W19908  32.950  42.779   2.390
47495W        W19909  30.084  40.949   1.443
47496W        W19910  25.550   2.261  12.866
47497W        W19911  42.457  27.091   3.380
47498W        W19912  25.167  10.688  12.376
47499W        W19913  25.598  31.150  10.911
47500W        W19914  44.982  42.297  11.948
47501W        W19915  14.659  44.832  10.978
47502W        W19916  15.751  19.088   3.713
47503W        W19917  38.521  16.245   0.936
47504W        W19918  39.048   6.790  13.513
47505W        W19919  37.425  37.508   4.264
47506W        W19920   0.424  42.445  14.493
47507W        W19921   5.339  11.171  12.836
47508W        W19922  33.464  44.359   9.959
47509W        W19923  35.097  43.791  13.339
47510W        W19924  22.621  12.854   2.267
47511W        W19925  12.274  14.615  12.054
47512W        W19926  33.609   7.263  13.958
47513W        W19927  19.565  28.595   0.789
47514W        W19928  25.548  38.066   4.173
47515W        W19929  22.697   6.819   4.196
47516W        W19930  25.139   3.349   4.680
47517W        W19931  14.254   7.277   1.319
47518W        W19932  32.903  33.103   0.837
47519W        W19933  38.974  14.724  10.992
47520W        W19934  30.597   7.835  13.490
47521W        W19935  23.726  27.549   0.334
47522W        W19936  20.702  31.503   3.169
47523W        W19937  39.464  42.883  13.811
47524W        W19938  25.664  21.679  12.956
47525W        W19939  17.726  24.511  14.858
47526W        W19940  16.627  21.056   5.283
47527W        W19941  33.399  24.577   1.857
47528W        W19942  36.880   7.266   1.855
47529W        W19943  33.911  32.432   0.459
47530W        W19944   4.322  16.643   4.204
47531W        W19945   8.386   5.927  12.918
47532W        W19946  17.188  24.652  13.841
47533W        W19947  34.909  12.619   1.695
47534W        W19948   7.324  28.496   4.140
47535W        W19949   1.430  10.661  12.993
47536W        W19950  29.454  39.551  14.286
47537W        W19951  27.483  35.913   2.386
47538W        W19952  16.707  13.699   2.787
47539W        W19953  25.637  20.081  11.397
47540W        W19954   7.831  29.070   0.347
47541W        W19955   6.679  10.190   2.679
47542W        W19956  22.537   9.855  13.402
47543W        W19957   6.776  17.229  13.791
47544W        W19958   5.734   1.962   3.315
47545W        W19959  38.505   6.192   2.281
47546W        W19960  29.598  11.290  14.483
47547W        W19961  34.101   1.428  14.321
47548W        W19962  16.805   1.477  12.532
47549W        W19963   4.262   4.437  11.406
47550W        W19964  10.205   7.331  14.464
47551W        W19965  43.506  31.485   0.382
47552W        W19966  31.433  22.156   4.722
47553W        W19967  34.905   0.855  14.956
47554W        W19968  20.083  37.912  11.526
47555W        W19969   3.458  14.735   3.682
47556W        W19970  15.635  13.721   3.302
47557W        W19971  27.948  23.169  14.401
47558W        W19972  18.054  24.493   2.848
47559W        W19973   1.733   1.952  11.015
47560W        W19974  32.493  32.124  11.894
47561W        W19975  20.253  29.534  14.464
47562W        W19976  17.710  38.903   4.783
47563W        W19977  13.282  14.765  12.933
47564W        W19978  11.665  36.516  11.978
47565W        W19979  10.736  11.232   3.224
47566W        W19980  25.010  33.068   3.744
47567W        W19981  28.604   6.249   1.754
47568W        W19982  24.548  25.591  11.558
47569W        W19983  28.004  22.244   3.719
47570W        W19984  15.211  10.739   4.747
47571W        W19985   4.401  34.026  13.041
47572W        W19986  42.945  29.959   1.390
47573W        W19987  22.647  42.434   1.837
47574W        W19988  19.044  20.077  13.515
47575W        W19989  11.145   1.956  13.800
47576W        W19990  37.071   5.922   4.634
47577W        W19991  17.194   8.796  11.573
47578W        W19992  44.348  19.169   4.816
47579W        W19993  28.092   5.261   0.391
47580W        W19994  11.129  17.079  11.558
47581W        W19995  39.452   0.870  10.637
47582W        W19996  37.388   0.912  13.448
47583W        W19997  23.033  20.651  13.968
47584W        W19998  33.984   9.237  11.121
47585W        W19999  38.480  44.833  10.615
47586W        W20000  35.877   8.301   1.251
47587W        W20001  20.759  21.050   1.310
47588W        W20002  44.796   3.411  12.850
47589W        W20003  11.675  23.656  10.918
47590W        W20004  30.547  42.928  10.895
47591W        W20005  22.628  34.378   9.923
47592W        W20006   9.192  17.258   4.312
47593W        W20007  19.285  15.320  13.036
47594W        W20008  23.211   5.812   0.833
47595W        W20009   8.670   5.429  11.927
47596W        W20010  33.948  39.839  11.419
47597W        W20011  21.696   4.418  11.088
47598W        W20012  33.902  21.715  11.121
47599W        W20013  33.082  37.954  12.473
47600W        W20014  25.175  38.525  11.415
47601W        W20015  42.992  35.453  13.933
47602W        W20016  15.748   3.259   2.715
47603W        W20017  16.659  40.964  14.501
47604W        W20018  10.314  26.164  14.967
47605W        W20019   1.360  32.395  12.872
47606W        W20020  27.194  13.263   2.680
47607W        W20021  44.766  26.653  10.536
47608W        W20022  42.402  30.633   2.237
47609W        W20023  39.509  15.774   4.716
47610W        W20024  44.431  19.641   4.746
47611W        W20025   2.953   1.334   2.771
47612W        W20026  16.315   0.749  11.038
47613W        W20027  43.373  28.653  12.508
47614W        W20028   4.883  13.318   2.824
47615W        W20029  36.044  20.717  12.564
47616W        W20030   3.876  34.013   0.434
47617W        W20031  18.255  37.473   2.720
47618W        W20032  42.848  41.873  14.987
47619W        W20033  42.469  38.982   2.667
47620W        W20034  25.215   1.907  10.927
47621W        W20035   8.876   3.227   0.484
47622W        W20036  34.473  22.744   2.371
47623W        W20037   2.858  40.882   5.105
47624W        W20038  17.219  10.849  11.401
47625W        W20039  13.804  19.190   0.766
47626W        W20040  11.661  14.181   2.885
47627W        W20041   5.346   1.899  11.914
47628W        W20042  35.862  20.754  10.915
47629W        W20043  30.121  20.037  14.779
47630W        W20044  33.876   5.214  10.518
47631W        W20045  40.051  16.766   4.353
47632W        W20046   8.185   2.416  13.900
47633W        W20047  40.474  39.999   3.806
47634W        W20048  21.028   2.347  11.967
47635W        W20049  33.942  33.511  12.373
47636W        W20050  41.842  42.870  12.851
47637W        W20051  24.982  42.010   4.253
47638W        W20052  34.480  39.360  12.986
47639W        W20053  36.348  22.679   3.211
47640W        W20054   5.801  38.335   0.423
47641W        W20055   3.401  39.349   1.847
47642W        W20056  22.744  17.698  13.462
47643W        W20057  40.858  17.166   0.852
47644W        W20058  40.393  36.579  10.625
47645W        W20059  44.826   4.747  13.916
47646W        W20060  24.040  26.640   2.418
47647W        W20061  17.137  34.879  12.869
47648W        W20062   5.357  31.153   2.704
47649W        W20063  39.532  39.449  12.061
47650W        W20064  13.728   2.825  13.902
47651W        W20065  33.444   5.698   0.301
47652W        W20066  16.282  32.631  12.996
47653W        W20067  33.534  29.537  11.942
47654W        W20068  19.569   1.756  13.859
47655W        W20069  29.988  35.943   1.323
47656W        W20070  26.600  32.946  11.583
47657W        W20071  34.423  20.649   0.443
47658W        W20072  28.036  38.519   1.907
47659W        W20073   3.267   8.338  12.399
47660W        W20074   5.789  15.085  11.062
47661W        W20075   0.449  12.148   4.146
47662W        W20076  34.610  32.133   3.236
47663W        W20077  28.063  20.754  11.927
47664W        W20078  41.788   0.969   1.859
47665W        W20079   1.356  27.134   1.875
47666W        W20080  30.976   2.326   2.254
47667W        W20081  28.645  38.931  14.992
47668W        W20082  34.909  19.093   4.161
47669W        W20083  19.736  25.106   3.668
47670W        W20084  13.652  13.678   0.454
47671W        W20085   8.361  32.488  12.538
47672W        W20086  31.507   9.288  12.950
47673W        W20087  21.662  24.988  11.562
47674W        W20088  35.481  36.358   4.654
47675W        W20089  17.095  18.787  13.402
47676W        W20090  17.745   2.291   1.695
47677W        W20091   7.905  19.094   0.840
47678W        W20092   9.792   9.691   0.331
47679W        W20093  38.984  30.521   2.851
47680W        W20094  10.728  35.409   1.382
47681W        W20095   9.761   5.276  14.299
47682W        W20096   9.183  15.090  11.421
47683W        W20097  20.730  19.110   1.919
47684W        W20098  12.840  25.024   3.795
47685W        W20099   1.476  26.519   1.362
47686W        W20100  18.766  27.030   0.872
47687W        W20101   3.856  25.505   0.406
47688W        W20102   2.341  36.365  11.502
47689W        W20103  21.196  42.956  14.964
47690W        W20104  25.081  41.379  13.371
47691W        W20105  40.411  22.514   5.087
47692W        W20106  42.388  43.284  14.835
47693W        W20107  27.610  23.032  10.952
47694W        W20108  17.082  11.356   1.907
47695W        W20109   2.414  14.286  10.602
47696W        W20110  37.920  31.986   1.849
47697W        W20111  28.929  40.470   2.388
47698W        W20112  43.356  14.221   4.125
47699W        W20113  21.143  19.085  14.464
47700W        W20114  26.021  18.686  13.029
47701W        W20115  40.939  12.702  13.463
47702W        W20116  11.710   5.406  13.460
47703W        W20117  26.633  10.255  13.036
47704W        W20118  29.101  15.819  11.098
47705W        W20119  41.538   2.868  10.911
47706W        W20120  18.655  36.894  11.407
47707W        W20121  34.943  24.508   4.262
47708W        W20122  23.730  27.625  12.386
47709W        W20123  22.028  25.008  10.550
47710W        W20124   3.426   2.843   2.665
47711W        W20125   1.865   7.891   4.330
47712W        W20126  32.624  44.820  11.494
47713W        W20127  16.739  36.977  10.625
47714W        W20128  29.621  13.338  11.945
47715W        W20129  21.071  44.997  13.521
47716W        W20130  38.986  37.906  13.861
47717W        W20131  13.640  27.550  10.920
47718W        W20132   3.405   5.819   3.347
47719W        W20133   3.754  32.020   0.897
47720W        W20134  36.059  25.061  14.884
47721W        W20135  39.811  44.965  13.810
47722W        W20136  42.984   5.759  14.493
47723W        W20137  18.205  37.978   1.711
47724W        W20138  31.914  24.548   3.796
47725W        W20139  31.571  33.552  11.405
47726W        W20140  44.314   8.776   0.950
47727W        W20141  15.250  22.738  14.487
47728W        W20142  31.060  35.422  10.645
47729W        W20143  11.672  34.953   4.733
47730W        W20144  42.512  16.222  12.832
47731W        W20145  13.790  12.719   1.432
47732W        W20146   4.403   7.715  14.292
47733W        W20147  24.033  17.686   1.859
47734W        W20148  33.584  18.580   0.246
47735W        W20149  44.827  36.921   1.297
47736W        W20150  24.162  42.806  13.970
47737W        W20151  34.408  37.348  14.496
47738W        W20152  39.046  27.017   0.303
47739W        W20153  44.974  21.166  14.851
47740W        W20154   8.246  28.651  12.859
47741W        W20155  18.073  27.152  12.959
47742W        W20156  19.689  11.247  14.416
47743W        W20157  41.443   3.719   3.365
47744W        W20158  36.538  23.628  14.991
47745W        W20159  38.017  24.530  12.998
47746W        W20160  28.514   2.310   4.339
47747W        W20161  21.639   6.804   0.372
47748W        W20162  37.526  11.272  13.009
47749W        W20163   7.216  35.600   4.749
47750W        W20164  25.545   1.844  14.770
47751W        W20165  16.670  30.497   0.921
47752W        W20166   2.346  22.055   3.752
47753W        W20167   7.692  17.563  11.864
47754W        W20168  44.878  27.992  11.385
47755W        W20169  37.967  31.948  10.613
47756W        W20170   6.837  20.041  12.427
47757W        W20171  19.083  14.600  10.440
47758W        W20172  22.624  37.339   2.340
47759W        W20173  17.146  28.176   1.910
47760W        W20174  30.144  35.578  12.023
47761W        W20175  40.491  20.143   3.727
47762W        W20176  19.284  25.193  11.977
47763W        W20177  27.970  14.318  11.409
47764W        W20178  30.059  39.398  10.417
47765W        W20179  36.443  37.568   5.173
47766W        W20180  34.953   8.803   2.741
47767W        W20181   3.859  13.739   3.267
47768W        W20182  35.974  34.375  12.859
47769W        W20183   0.295  37.843   0.382
47770W        W20184  43.403  17.233   3.822
47771W        W20185   3.806  16.584  12.421
47772W        W20186   8.848  28.010   0.397
47773W        W20187   2.402  37.570  13.022
47774W        W20188   2.248   1.484  14.366
47775W        W20189   7.405  33.040   3.632
47776W        W20190   3.831  42.023   2.272
47777W        W20191  31.497  11.626   4.701
47778W        W20192  33.571   0.337   3.638
47779W        W20193  29.087   6.332   2.245
47780W        W20194  12.351   5.929  11.862
47781W        W20195   7.399   9.824   1.369
47782W        W20196   4.418  34.429  10.889
47783W        W20197  39.944  30.569   0.743
47784W        W20198  23.115  22.565   0.471
47785W        W20199  31.898  29.669  10.537
47786W        W20200   6.218  24.007  10.956
47787W        W20201  40.911  31.526   4.606
47788W        W20202  13.671  31.969   0.440
47789W        W20203   5.928  30.063   2.263
47790W        W20204  32.611  20.041  12.441
47791W        W20205   4.863  14.207  12.849
47792W        W20206  36.449  23.155  11.047
47793W        W20207  31.003  28.674  14.420
47794W        W20208  38.840  23.016  12.499
47795W        W20209  42.392  23.177  14.331
47796W        W20210  23.574  25.680   4.824
47797W        W20211  26.204  26.965  13.454
47798W        W20212   9.226  24.559   3.195
47799W        W20213  36.070  36.040   0.446
47800W        W20214   0.351   1.301   1.881
47801W        W20215  21.131   2.378   4.165
47802W        W20216  29.652   0.343   1.439
47803W        W20217  33.015   0.372   0.765
47804W        W20218  17.728  21.530  10.930
47805W        W20219   1.459   5.845   0.749
47806W        W20220  20.547  25.588  14.921
47807W        W20221   1.765  27.081   2.883
47808W        W20222  41.439  38.877   4.264
47809W        W20223  11.139   7.756   2.789
47810W        W20224  23.195   9.809  10.510
47811W        W20225  15.109  43.970   2.227
47812W        W20226  24.998  36.917  11.100
47813W        W20227  38.471  10.174  12.579
47814W        W20228  16.743  27.010  13.487
47815W        W20229   8.722   9.213   0.354
47816W        W20230   4.437  28.603  11.521
47817W        W20231  19.236  13.309   1.363
47818W        W20232  23.029  21.714  14.838
47819W        W20233  10.773  27.076  13.506
47820W        W20234   7.310   4.845  12.379
47821W        W20235  29.955  35.937  10.568
47822W        W20236  38.350   0.349  10.447
47823W        W20237  40.344  35.556   4.655
47824W        W20238  30.974  44.902   4.805
47825W        W20239  35.914  14.723   2.288
47826W        W20240  15.165  40.519  13.488
47827W        W20241  31.013  29.083  14.946
47828W        W20242  39.421  15.710  13.343
47829W        W20243  30.561   5.808   4.703
47830W        W20244  25.135   2.782  13.891
47831W        W20245   7.880  39.021  13.993
47832W        W20246   0.852  10.809   4.705
47833W        W20247  17.589  11.133  11.538
47834W        W20248  14.336  14.639   2.677
47835W        W20249  15.315  33.444   4.339
47836W        W20250  16.647  14.216   1.839
47837W        W20251  22.035  38.062  13.316
47838W        W20252  32.485  18.768   2.379
47839W        W20253  38.432  31.921  10.479
47840W        W20254  10.634  34.997  14.028
47841W        W20255  35.960   2.351  13.866
47842W        W20256  39.516   1.373  12.470
47843W        W20257   6.741  37.397  14.324
47844W        W20258  16.771  15.324   3.765
47845W        W20259   4.917  23.719  12.891
47846W        W20260  13.718  17.157   2.892
47847W        W20261   8.899   4.812  12.896
47848W        W20262   2.796   7.707  10.988
47849W        W20263   4.261  22.173   4.705
47850W        W20264  41.355  34.565   0.347
47851W        W20265  25.643  22.196   4.619
47852W        W20266  11.152  33.069  11.897
47853W        W20267  15.093  42.782  10.150
47854W        W20268  13.170  27.029  13.836
47855W        W20269  24.675  16.188   3.315
47856W        W20270   5.806  33.492  14.396
47857W        W20271  21.179  42.962  13.404
47858W        W20272  15.251  24.551  14.516
47859W        W20273  32.139  22.063  12.061
47860W        W20274   7.219   3.392   2.817
47861W        W20275  25.631  14.708   1.905
47862W        W20276  30.989  12.220  13.041
47863W        W20277   3.733  30.481  14.789
47864W        W20278  35.949  44.895  14.979
47865W        W20279  42.920   9.867   0.777
47866W        W20280  16.582  11.274  14.498
47867W        W20281   0.891   3.783   0.825
47868W        W20282   1.968  28.970  12.010
47869W        W20283   3.843   5.390   1.736
47870W        W20284  42.514  22.159  13.932
47871W        W20285  26.494   5.309   3.764
47872W        W20286  32.099  27.645  13.865
47873W        W20287   5.386  27.172  13.834
47874W        W20288  38.050  39.432  14.365
47875W        W20289  34.482  40.885   0.254
47876W        W20290  38.376  13.619   3.262
47877W        W20291  37.978  44.299   0.846
47878W        W20292  31.548  33.513   2.259
47879W        W20293  16.762  21.601  12.857
47880W        W20294   2.291  27.128   3.837
47881W        W20295  34.423  42.409   0.473
47882W        W20296   2.388  16.679  11.528
47883W        W20297  29.470  23.120  14.867
47884W        W20298  31.903  21.038  12.028
47885W        W20299   3.879  14.294  13.978
47886W        W20300  33.047  19.767   3.213
47887W        W20301  36.846  26.558   4.245
47888W        W20302   3.805  42.850   3.863
47889W        W20303  34.010  28.154   2.321
47890W        W20304  42.472  41.309  13.412
47891W        W20305   6.706  40.504   2.784
47892W        W20306   5.880  26.099   9.537
47893W        W20307  37.492  31.120  13.356
47894W        W20308   0.262  17.099   3.823
47895W        W20309  40.968  37.488   4.155
47896W        W20310  30.608   3.311   0.738
47897W        W20311  41.361   1.384   4.688
47898W        W20312  32.097   8.367   1.860
47899W        W20313  18.197   5.274   2.842
47900W        W20314  17.662   2.756  10.907
47901W        W20315  17.086   2.323   1.795
47902W        W20316   4.784   2.927  13.542
47903W        W20317   4.903  18.682  13.440
47904W        W20318  24.101  42.515  12.062
47905W        W20319  22.159   6.220   0.334
47906W        W20320   8.359  16.679  13.476
47907W        W20321  19.040  18.206   4.722
47908W        W20322  14.293  21.106  13.952
47909W        W20323   9.308  13.286  10.483
47910W        W20324  31.043  15.274   1.762
47911W        W20325  19.676  32.457  12.459
47912W        W20326   3.906  27.995   2.315
47913W        W20327  33.995  31.909  10.997
47914W        W20328   1.453  13.623   2.845
47915W        W20329  15.170   5.711   4.776
47916W        W20330  33.903  41.856   1.437
47917W        W20331   0.395  23.230  10.411
47918W        W20332  24.056  34.532  14.907
47919W        W20333   9.837  27.945   2.324
47920W        W20334   3.768  30.117   4.656
47921W        W20335  22.627  22.018  14.963
47922W        W20336   2.460  44.915  10.531
47923W        W20337  32.893   2.870  13.473
47924W        W20338  21.748  10.242   4.765
47925W        W20339  31.642  37.967  13.938
47926W        W20340  24.080  44.823   3.187
47927W        W20341  34.963  11.373   3.283
47928W        W20342  11.832  41.870   1.323
47929W        W20343  30.071  42.931  11.374
47930W        W20344  19.577  39.437  10.557
47931W        W20345  19.566  43.004  11.561
47932W        W20346  20.546  19.231  11.102
47933W        W20347   4.764   6.315   2.736
47934W        W20348  27.949   8.187  11.953
47935W        W20349  29.125   5.873  12.987
47936W        W20350  18.583   6.218  13.897
47937W        W20351  26.109  33.886   0.778
47938W        W20352  31.520  18.629   2.216
47939W        W20353  28.055  39.472   1.755
47940W        W20354  15.630  32.014   4.180
47941W        W20355  16.727  18.630   0.437
47942W        W20356   4.352  15.267  11.581
47943W        W20357  35.068  11.831  13.957
47944W        W20358  32.085  31.120  13.935
47945W        W20359  30.603  33.892   2.762
47946W        W20360   9.160  10.739  11.943
47947W        W20361   5.893  44.930  12.424
47948W        W20362  13.690   9.778  11.571
47949W        W20363  15.791  42.307   2.346
47950W        W20364   9.822  13.713   3.731
47951W        W20365  37.088  22.611  11.565
47952W        W20366  32.435  19.209  10.962
47953W        W20367  27.191  29.629   4.769
47954W        W20368  34.389  10.191   4.686
47955W        W20369  22.022  32.419  13.497
47956W        W20370  23.617  10.834   3.186
47957W        W20371  11.253  32.020  14.308
47958W        W20372   3.788  38.954   0.800
47959W        W20373  32.613  11.715  12.345
47960W        W20374   4.861   7.237  10.146
47961W        W20375  28.496  34.444  13.895
47962W        W20376   2.268  27.638   1.917
47963W        W20377  10.817  11.655   2.359
47964W        W20378  21.064  30.113  12.828
47965W        W20379  37.926   3.827   0.946
47966W        W20380  11.207   6.794  11.502
47967W        W20381  24.033  44.345   9.973
47968W        W20382  16.601  39.413  11.495
47969W        W20383  18.703  15.274  13.512
47970W        W20384  31.446   1.928  13.933
47971W        W20385  33.896   0.853   3.739
47972W        W20386  42.888   0.335  14.797
47973W        W20387  31.092  27.083  11.936
47974W        W20388  17.580  27.097  14.461
47975W        W20389  21.020  38.387  13.051
47976W        W20390  25.048  35.403  11.578
47977W        W20391  20.272  14.683  12.948
47978W        W20392   6.330  26.151   2.696
47979W        W20393  32.038  21.221   0.800
47980W        W20394  10.873   3.221   0.438
47981W        W20395  39.879  12.760  11.567
47982W        W20396  31.425  44.000  11.501
47983W        W20397   7.740  31.522  12.838
47984W        W20398  35.368  29.589   0.324
47985W        W20399  44.485  39.876   4.194
47986W        W20400  13.222  41.512  12.956
47987W        W20401  34.873  37.955   1.260
47988W        W20402  20.643   2.765   4.160
47989W        W20403  41.395  10.874  14.939
47990W        W20404  41.813   9.754   2.789
47991W        W20405  12.796  40.990  12.054
47992W        W20406  29.158  35.884   4.321
47993W        W20407  11.237  12.352   4.665
47994W        W20408  36.497  28.185  10.067
47995W        W20409  40.529  33.443   4.332
47996W        W20410   1.930   1.255   2.806
47997W        W20411  15.637  34.096  12.931
47998W        W20412  23.612  21.715   3.363
47999W        W20413  14.803  12.670   9.930
48000W        W20414  44.335   5.759   4.304
48001W        W20415  27.552   0.951  12.997
48002W        W20416   8.301  32.044   0.389
48003W        W20417  25.672  24.076  11.918
48004W        W20418  38.448  40.534   2.835
48005W        W20419  24.985  34.069   0.324
48006W        W20420  30.579  25.046  14.869
48007W        W20421  17.234  19.046   3.346
48008W        W20422  20.740  20.749   1.791
48009W        W20423  10.783  36.857   1.234
48010W        W20424  11.357  18.712  14.919
48011W        W20425  38.326  42.027   1.841
48012W        W20426  30.463  39.064   3.241
48013W        W20427  25.509  28.498   4.200
48014W        W20428  42.354  20.093   4.253
48015W        W20429  13.339  27.590   1.352
48016W        W20430  13.717  25.183   1.871
48017W        W20431   6.919  17.209   0.399
48018W        W20432  25.137  10.355  10.519
48019W        W20433  32.536  36.918  14.906
48020W        W20434  12.843  40.830  10.911
48021W        W20435  37.478  18.232  12.889
48022W        W20436   5.400  25.005   4.235
48023W        W20437   2.447  38.004  13.343
48024W        W20438  28.998  13.246   2.240
48025W        W20439   9.670   2.420   2.849
48026W        W20440  35.411  37.539  11.981
48027W        W20441  29.624  39.364   3.634
48028W        W20442  25.498  34.443  13.495
48029W        W20443  10.737  11.676  10.917
48030W        W20444  12.682  42.488   4.714
48031W        W20445  22.197  15.824   1.739
48032W        W20446  21.602  14.266   3.651
48033W        W20447  17.665  20.123   2.739
48034W        W20448   8.901  10.220  10.974
48035W        W20449  15.249   6.380   2.244
48036W        W20450  39.469  18.736  11.568
48037W        W20451   3.234  41.993  14.791
48038W        W20452  26.669  42.443   4.652
48039W        W20453  21.539  12.766   0.942
48040W        W20454  17.602   6.841  11.593
48041W        W20455   1.293   8.684  11.427
48042W        W20456  36.547  28.524  10.523
48043W        W20457   0.396  39.454   2.852
48044W        W20458  40.948  12.836   3.809
48045W        W20459  25.573  42.369   0.282
48046W        W20460  40.819  34.457  11.061
48047W        W20461  28.082  32.030  12.409
48048W        W20462   4.807  25.973   4.621
48049W        W20463  36.019  15.724  11.611
48050W        W20464  39.354  19.180   3.344
48051W        W20465  40.956  13.291   2.893
48052W        W20466  11.814  39.932   4.622
48053W        W20467  17.224   5.423  12.016
48054W        W20468  21.101  22.534  12.546
48055W        W20469  39.346   2.258  14.475
48056W        W20470   1.764  23.658  14.309
48057W        W20471  11.649  29.433   4.238
48058W        W20472  28.440  21.674   0.316
48059W        W20473   8.686  26.464  13.875
48060W        W20474  28.553  13.267  14.878
48061W        W20475   8.876   7.896  14.898
48062W        W20476  44.399  15.717   2.313
48063W        W20477  30.012  19.729  12.369
48064W        W20478  23.115  29.009  10.636
48065W        W20479  34.484  11.183  13.325
48066W        W20480  32.423  17.303   0.753
48067W        W20481  37.501  26.118  12.435
48068W        W20482   4.786   8.269  14.934
48069W        W20483  20.185   4.342   0.300
48070W        W20484  41.860  19.242  12.544
48071W        W20485   1.399  44.961   1.796
48072W        W20486  17.305  28.133   0.794
48073W        W20487   5.386  42.427   9.611
48074W        W20488  41.912  10.680  10.897
48075W        W20489  26.071  17.119  11.028
48076W        W20490  39.851  31.594   3.668
48077W        W20491   2.939   3.219  13.934
48078W        W20492  32.920  26.675   0.257
48079W        W20493  36.460  42.862   1.450
48080W        W20494   9.828  14.160   4.703
48081W        W20495  30.553   6.205  13.041
48082W        W20496  40.875  18.766  12.876
48083W        W20497   3.379  28.518   0.881
48084W        W20498  18.583  16.572   0.252
48085W        W20499   2.238  22.050  13.475
48086W        W20500  23.034  44.282   3.314
48087W        W20501  30.581  13.196  14.333
48088W        W20502  23.036  11.774  10.438
48089W        W20503   2.869   3.945   2.309
48090W        W20504  32.063  32.025   3.786
48091W        W20505  19.120  44.781   0.260
48092W        W20506  35.031   2.372  12.429
48093W        W20507  17.584  12.834  12.905
48094W        W20508  32.571  17.156  12.548
48095W        W20509  37.355  22.634  12.354
48096W        W20510  24.157  44.795  12.428
48097W        W20511  35.542  37.430  14.887
48098W        W20512  28.157   7.828   4.213
48099W        W20513  12.774  30.146   2.196
48100W        W20514  24.478  14.812  14.500
48101W        W20515   4.922  33.969  13.439
48102W        W20516  35.866  14.196   1.386
48103W        W20517  37.396  42.880   3.373
48104W        W20518   7.263  21.666   0.353
48105W        W20519  22.651  40.384  12.488
48106W        W20520   3.822   6.904   2.735
48107W        W20521  17.277  22.130  11.942
48108W        W20522   5.871  29.115   0.380
48109W        W20523  22.682  38.850  10.436
48110W        W20524   4.840  32.528   1.921
48111W        W20525  11.625  37.503   3.717
48112W        W20526  28.118  31.446  10.432
48113W        W20527   5.387  34.986   0.311
48114W        W20528   0.853   9.256   2.812
48115W        W20529  38.836  14.134   4.315
48116W        W20530  28.497  39.417  14.293
48117W        W20531   2.867  14.128   4.127
48118W        W20532  27.012  37.900  11.413
48119W        W20533  25.688  24.704   3.352
48120W        W20534   2.455  35.400  13.975
48121W        W20535  14.661  19.187  14.343
48122W        W20536   0.332  42.320  10.568
48123W        W20537  31.113  37.852   3.857
48124W        W20538  26.472  30.915   1.334
48125W        W20539  19.081  28.171   1.222
48126W        W20540   7.400  20.044   0.415
48127W        W20541  28.063  42.019   0.299
48128W        W20542  10.341  30.614   1.411
48129W        W20543  23.232  11.196  14.948
48130W        W20544  41.944  38.331  13.924
48131W        W20545  30.519   1.443   2.272
48132W        W20546   8.885  13.350   0.965
48133W        W20547   0.799  16.244   1.305
48134W        W20548  20.682  26.112   0.798
48135W        W20549  27.015  34.487   1.235
48136W        W20550   7.269  44.779  12.881
48137W        W20551   4.298  21.560   2.373
48138W        W20552  25.215  31.009   4.289
48139W        W20553  28.628  30.490   4.806
48140W        W20554  27.022  34.428   3.854
48141W        W20555  28.672  11.788   2.399
48142W        W20556  15.603  31.007  14.023
48143W        W20557   7.246  22.522  11.924
48144W        W20558   7.362  22.211  10.595
48145W        W20559  26.593  29.551   3.716
48146W        W20560  30.580  31.635  13.476
48147W        W20561   5.324  23.598   0.300
48148W        W20562   9.854  19.212   1.882
48149W        W20563  34.533  32.612   0.772
48150W        W20564  23.062  40.335   0.936
48151W        W20565   7.240  42.835  12.373
48152W        W20566   8.824  24.572   0.298
48153W        W20567   8.850  40.993   2.809
48154W        W20568  18.582  40.026   1.352
48155W        W20569  40.435  34.022  14.427
48156W        W20570  42.978  29.977  14.331
48157W        W20571  10.823  28.478  11.000
48158W        W20572  25.630  20.734   3.769
48159W        W20573  17.222  40.898   4.745
48160W        W20574  21.744  23.125   3.677
48161W        W20575  16.169  20.725   1.217
48162W        W20576  32.510   8.200  11.584
48163W        W20577  12.310  37.368   4.748
48164W        W20578  43.373  43.289  11.989
48165W        W20579  18.643   1.754   9.927
48166W        W20580   5.893  40.547  14.845
48167W        W20581  38.535  12.304   3.706
48168W        W20582  30.552  16.234  11.470
48169W        W20583  32.050   3.311   4.166
48170W        W20584  22.620  17.640   4.230
48171W        W20585  29.488   8.750  12.450
48172W        W20586  22.075  28.145  14.863
48173W        W20587  24.119  15.773  11.513
48174W        W20588  29.019   0.303   0.405
48175W        W20589  22.747   2.269   2.268
48176W        W20590  18.663  26.043   1.793
48177W        W20591  19.613  36.383  10.429
48178W        W20592  32.995  30.958   0.741
48179W        W20593  34.481  24.093  13.548
48180W        W20594  26.127  17.197   0.438
48181W        W20595  21.175  23.573  10.603
48182W        W20596  17.297   7.384   1.216
48183W        W20597  22.729  23.542   2.396
48184W        W20598  24.986   4.728   3.763
48185W        W20599  14.128  31.000  12.345
48186W        W20600  18.171  13.643  13.486
48187W        W20601   4.832  33.588   3.365
48188W        W20602   6.748  39.961  12.984
48189W        W20603  28.550  27.140   2.837
48190W        W20604  11.253  22.164   0.354
48191W        W20605  38.570   5.242  12.351
48192W        W20606  12.777   3.817   4.628
48193W        W20607  15.752   6.710  11.884
48194W        W20608  36.352  13.114   1.296
48195W        W20609  39.864  34.906   1.836
48196W        W20610  43.981  24.518   4.625
48197W        W20611   3.910  29.958   3.173
48198W        W20612   0.290  27.109   1.434
48199W        W20613  44.279  22.175   1.231
48200W        W20614  43.832  42.874   2.405
48201W        W20615  16.649  39.503   1.366
48202W        W20616  38.564  24.523  14.490
48203W        W20617  42.489  14.825  14.433
48204W        W20618   7.788   1.413  14.386
48205W        W20619  19.215   8.263  14.407
48206W        W20620  25.054  26.656  10.940
48207W        W20621  24.032  41.320   3.283
48208W        W20622  40.331  15.299   3.687
48209W        W20623  36.004  41.013  13.893
48210W        W20624  10.162   1.467   0.414
48211W        W20625  16.755  27.466  13.968
48212W        W20626  21.080   7.787   4.150
48213W        W20627   2.463  19.594  11.043
48214W        W20628  43.772   6.740   2.867
48215W        W20629   6.240   4.432   1.812
48216W        W20630  10.826  23.591  14.355
48217W        W20631  20.100  27.965  13.060
48218W        W20632   2.813  38.348  14.871
48219W        W20633   3.325   4.718  13.463
48220W        W20634  13.117   2.470   4.123
48221W        W20635   8.251   7.377   2.737
48222W        W20636  23.735   6.281   2.379
48223W        W20637   3.946  35.937   4.621
48224W        W20638  40.534  10.278  13.060
48225W        W20639   7.720   8.293   2.669
48226W        W20640  17.625   1.407  13.876
48227W        W20641  33.558  33.975   0.277
48228W        W20642  35.102  31.584  11.584
48229W        W20643  44.434  22.250   3.714
48230W        W20644  42.356  14.631   4.652
48231W        W20645  43.323  17.260   4.194
48232W        W20646  25.964   6.259  11.549
48233W        W20647   9.160  36.486  11.037
48234W        W20648  11.677  37.075   0.968
48235W        W20649  36.861  35.094   4.241
48236W        W20650  35.513  34.873   2.853
48237W        W20651   2.232  44.818  14.974
48238W        W20652   2.432  28.173   0.244
48239W        W20653  20.100  31.538   0.302
48240W        W20654  11.297  34.564  14.927
48241W        W20655  11.839  32.468   3.714
48242W        W20656  32.092  26.203   3.159
48243W        W20657  42.869  42.415  11.919
48244W        W20658   6.315   7.698  14.300
48245W        W20659  14.770  20.102  11.572
48246W        W20660  24.090   2.401  11.584
48247W        W20661  16.232   1.797  13.429
48248W        W20662  18.098  29.065   0.380
48249W        W20663  27.645  10.774   1.847
48250W        W20664  32.936  27.551   1.306
48251W        W20665  39.346  41.524   3.739
48252W        W20666  37.851  22.672   1.313
48253W        W20667  15.268  37.051  13.044
48254W        W20668  12.186  15.743  11.114
48255W        W20669  30.498  28.495   1.701
48256W        W20670   8.723  37.915   3.188
48257W        W20671  14.095   0.820   2.797
48258W        W20672   5.229   3.232  13.906
48259W        W20673   2.909  34.074  12.092
48260W        W20674  37.082   1.253   0.432
48261W        W20675  23.497  27.641   1.728
48262W        W20676   7.774  31.143  11.942
48263W        W20677   1.280   9.844   0.286
48264W        W20678  28.002  43.903  10.525
48265W        W20679  24.020  22.006  14.999
48266W        W20680  27.093  31.434  13.468
48267W        W20681   8.384  39.916  11.063
48268W        W20682  28.510  17.600   4.331
48269W        W20683   6.767  41.395   2.288
48270W        W20684   8.842  42.458  10.493
48271W        W20685   7.757  28.508   2.706
48272W        W20686  23.179   8.664  11.532
48273W        W20687  24.198  25.066   2.295
48274W        W20688   6.919  17.618  14.889
48275W        W20689   0.844  37.356  12.844
48276W        W20690  43.889  29.440  12.546
48277W        W20691   3.410   4.705   1.239
48278W        W20692  24.982  12.295  14.855
48279W        W20693  16.773  30.004  14.804
48280W        W20694  20.133   9.229  11.019
48281W        W20695  44.316  44.777  11.962
48282W        W20696  14.174   0.478  13.386
48283W        W20697  19.544  44.264  13.878
48284W        W20698  21.108  16.159  12.975
48285W        W20699  33.539  18.748   4.197
48286W        W20700  37.954  19.189   0.881
48287W        W20701  24.152  27.569   4.784
48288W        W20702  26.198  42.324  12.944
48289W        W20703  14.135   0.491   1.329
48290W        W20704  16.161  20.256  13.921
48291W        W20705  31.996  11.674   5.174
48292W        W20706  11.842  14.795   0.964
48293W        W20707  27.596  15.324  12.544
48294W        W20708  22.695   2.428  13.954
48295W        W20709  35.487  24.037  14.441
48296W        W20710  43.932  42.967  12.572
48297W        W20711   8.367  24.125   2.901
48298W        W20712  16.271  10.248   0.250
48299W        W20713  20.560  43.803   0.324
48300W        W20714  30.135  27.174  14.374
48301W        W20715  42.435  39.062   4.206
48302W        W20716  28.515   5.264  14.787
48303W        W20717  27.466  28.558   2.181
48304W        W20718  37.365  44.317  12.452
48305W        W20719  37.342  18.050  11.901
48306W        W20720  13.625  43.882  14.771
48307W        W20721  25.165  32.941  11.523
48308W        W20722  13.656  30.522   4.666
48309W        W20723   4.702  37.464   1.298
48310W        W20724  27.662  37.844   3.291
48311W        W20725  42.997  31.545   3.868
48312W        W20726  39.873   7.836  10.546
48313W        W20727   9.340   0.255  12.454
48314W        W20728  36.549  24.163   4.838
48315W        W20729  30.030  34.977   0.390
48316W        W20730  39.878  26.034   1.297
48317W        W20731  35.533  39.988   4.170
48318W        W20732  36.863  44.943  14.770
48319W        W20733  31.143  29.524  13.432
48320W        W20734  28.956   7.372   3.694
48321W        W20735  28.937   3.233   1.770
48322W        W20736  37.490  13.162   3.163
48323W        W20737  26.149  36.477   4.232
48324W        W20738  10.201  19.579  11.983
48325W        W20739  24.708  29.572   4.700
48326W        W20740  28.633  40.329  14.968
48327W        W20741  19.180   6.293  11.533
48328W        W20742  24.091  19.099   5.713
48329W        W20743  26.525  16.195   0.824
48330W        W20744  14.773  20.534  10.471
48331W        W20745  42.490  28.036  11.938
48332W        W20746  31.929  30.940  12.574
48333W        W20747  10.710   0.402  11.603
48334W        W20748  40.803  22.715   2.178
48335W        W20749  12.831   7.331  10.134
48336W        W20750   9.362  16.303   0.741
48337W        W20751   8.801  32.619  12.057
48338W        W20752   5.279  28.639  10.987
48339W        W20753   8.697  18.682  13.385
48340W        W20754  36.363  17.732  14.783
48341W        W20755  19.252   0.270  12.067
48342W        W20756  25.184  44.918  14.333
48343W        W20757  40.016  42.811  12.015
48344W        W20758  27.131  27.493   2.762
48345W        W20759   8.329   4.850   0.380
48346W        W20760  43.491  30.446  10.592
48347W        W20761  42.842  43.990  11.576
48348W        W20762  20.103  35.098  14.820
48349W        W20763  15.602  25.025  11.597
48350W        W20764  36.506  13.212  12.970
48351W        W20765  15.327  17.665   2.882
48352W        W20766  21.730  25.202   3.314
48353W        W20767  39.919  43.946  14.406
48354W        W20768  27.145  18.087   3.148
48355W        W20769  27.558   5.209  13.529
48356W        W20770  32.576  25.142  14.452
48357W        W20771   6.798  15.648   2.862
48358W        W20772  41.038  30.446   4.814
48359W        W20773  39.890  11.660  14.965
48360W        W20774  39.915  41.460   0.729
48361W        W20775  24.722  29.001  13.914
48362W        W20776   9.838   2.429   0.904
48363W        W20777   9.294   9.720   0.804
48364W        W20778   1.842   8.821   1.431
48365W        W20779  36.387  36.028  12.856
48366W        W20780  37.068   3.422   4.634
48367W        W20781  16.286  36.025   0.799
48368W        W20782  40.457  18.652  14.304
48369W        W20783  39.362  22.509  10.933
48370W        W20784  37.919  37.350   2.740
48371W        W20785  30.945  40.374  14.898
48372W        W20786  12.623   0.793  13.922
48373W        W20787  44.938   2.813   1.726
48374W        W20788  37.879  43.355   1.341
48375W        W20789  12.668  11.864   4.257
48376W        W20790  13.139  16.658   3.663
48377W        W20791  26.076  19.121   2.419
48378W        W20792   5.853   5.297   0.420
48379W        W20793   7.285  19.209   4.150
48380W        W20794  40.398  10.178  12.463
48381W        W20795  18.239  17.634  10.636
48382W        W20796  26.641  38.022   1.227
48383W        W20797  31.998  10.230  10.984
48384W        W20798   7.349   2.867   3.809
48385W        W20799   8.741  21.094  11.887
48386W        W20800  41.957   6.838   1.838
48387W        W20801  42.370  33.456   0.874
48388W        W20802  42.926   5.880  10.946
48389W        W20803  27.977   9.214   2.881
48390W        W20804  29.111  42.948  13.342
48391W        W20805   0.908  32.108  13.395
48392W        W20806  18.613  25.679  13.470
48393W        W20807   1.357  42.829  10.514
48394W        W20808  13.650  44.927   0.920
48395W        W20809  26.685  14.243   0.902
48396W        W20810  25.652   3.871   1.432
48397W        W20811  17.666  12.786   2.781
48398W        W20812  15.766  12.627  13.906
48399W        W20813  36.984  30.457   0.806
48400W        W20814  22.215   5.356  14.829
48401W        W20815  12.358  28.620   2.768
48402W        W20816  18.629  33.449  11.447
48403W        W20817  10.737  33.087  10.427
48404W        W20818  26.055  23.082   1.363
48405W        W20819   4.897  35.914   4.351
48406W        W20820  27.446  35.981  10.553
48407W        W20821  37.568  16.239   2.307
48408W        W20822   3.804  18.138   1.418
48409W        W20823  22.592  32.927   1.896
48410W        W20824  22.055  26.156   2.342
48411W        W20825  34.987  18.678  13.991
48412W        W20826  39.888  20.260  10.643
48413W        W20827  25.100  34.613  13.358
48414W        W20828  35.035  43.885  11.420
48415W        W20829  20.613  26.958  13.011
48416W        W20830   9.666   5.914  13.427
48417W        W20831  25.653  37.540  11.543
48418W        W20832   7.884  38.387   0.398
48419W        W20833  15.810  44.989   3.767
48420W        W20834  28.113   4.326  11.863
48421W        W20835  11.201  40.928  11.425
48422W        W20836   6.202  22.747   1.235
48423W        W20837  19.135  11.794   3.715
48424W        W20838  15.801  22.720  14.794
48425W        W20839  29.999  14.303  13.944
48426W        W20840   4.922  14.144   2.706
48427W        W20841   1.827  26.102  12.058
48428W        W20842  33.069  33.587  12.385
48429W        W20843  38.459   2.922   2.261
48430W        W20844  17.116  21.257   1.884
48431W        W20845   0.914  20.686  11.556
48432W        W20846   4.434  21.523  12.374
48433W        W20847  22.147  42.374   3.724
48434W        W20848  35.933   3.320   1.780
48435W        W20849   0.274  17.236   2.319
48436W        W20850   5.297  27.125   9.634
48437W        W20851  43.844  22.683  12.511
48438W        W20852  25.984   5.903   3.846
48439W        W20853   9.677  31.081  12.412
48440W        W20854   7.205  10.202   1.393
48441W        W20855  10.804  42.837   4.127
48442W        W20856  34.473  35.869   2.265
48443W        W20857   7.221  39.917  12.384
48444W        W20858  17.662  39.043  13.840
48445W        W20859   0.843  23.172  12.941
48446W        W20860  42.969   8.796   2.842
48447W        W20861  32.036  26.565  12.895
48448W        W20862  40.843   8.350  14.940
48449W        W20863  33.030   9.834  11.403
48450W        W20864  15.647  43.451   2.388
48451W        W20865   3.429   6.347   0.908
48452W        W20866  14.120  32.540   1.779
48453W        W20867  30.955  21.181   5.116
48454W        W20868  32.501  41.896   3.700
48455W        W20869  37.354  40.897  14.845
48456W        W20870  29.961  39.474   0.830
48457W        W20871  16.280  28.942  12.847
48458W        W20872  30.554  20.763   0.833
48459W        W20873  38.884  42.509   4.296
48460W        W20874  44.363   0.358   4.605
48461W        W20875   5.913   3.385   3.344
48462W        W20876  24.101  11.666  11.056
48463W        W20877   5.360  10.214  14.302
48464W        W20878  19.726   6.201  12.373
48465W        W20879  16.765  17.264   4.600
48466W        W20880   9.306  26.056   0.756
48467W        W20881   5.315   0.969  10.983
48468W        W20882  20.761  18.186   2.836
48469W        W20883   7.690  10.178  10.922
48470W        W20884  15.651  21.717  11.399
48471W        W20885  19.177  42.899   2.377
48472W        W20886   5.371  32.077   3.813
48473W        W20887  36.546  12.139   1.860
48474W        W20888  16.786  43.441  10.983
48475W        W20889  15.704  27.161   4.647
48476W        W20890   2.761   8.771   2.295
48477W        W20891   3.876  28.435   0.269
48478W        W20892  39.537  40.912  12.956
48479W        W20893   0.769   8.320   2.743
48480W        W20894  26.578  38.361  10.142
48481W        W20895  27.072  25.619  12.385
48482W        W20896   8.278  39.507   1.316
48483W        W20897  39.398  11.217  11.922
48484W        W20898  29.650  33.419  14.443
48485W        W20899   3.863  35.424  12.920
48486W        W20900  29.082  24.490   1.933
48487W        W20901  13.212  31.510   0.329
48488W        W20902  22.616  32.938   2.695
48489W        W20903   0.799  33.460  10.967
48490W        W20904  44.880  34.921  10.489
48491W        W20905   7.312  24.577   3.857
48492W        W20906  22.567  31.517   1.865
48493W        W20907   5.274  33.023  11.091
48494W        W20908  39.530  39.868  12.495
48495W        W20909  10.767  22.524  14.768
48496W        W20910   8.784   5.904   1.447
48497W        W20911  40.490  22.556   1.699
48498W        W20912  27.040  23.081  12.380
48499W        W20913  38.505  42.513   3.279
48500W        W20914  37.482  27.977  13.023
48501W        W20915  26.459  22.245  11.483
48502W        W20916  17.785  19.720   4.333
48503W        W20917   1.400   7.266   2.217
48504W        W20918  38.459  19.119  14.003
48505W        W20919   4.882   6.922  10.988
48506W        W20920  33.622  43.916  13.354
48507W        W20921  22.071   1.264   1.888
48508W        W20922  33.898  33.614  10.591
48509W        W20923  23.993  30.523   1.780
48510W        W20924  13.758  12.856  10.957
48511W        W20925  15.686  11.840   1.383
48512W        W20926  30.617   6.854   4.820
48513W        W20927  41.807  34.046  12.882
48514W        W20928  31.977  43.299  11.967
48515W        W20929  31.068   0.293   4.746
48516W        W20930   2.340  20.738  11.095
48517W        W20931   5.872  11.283  11.020
48518W        W20932   7.301   1.289   3.799
48519W        W20933  31.022   1.755  11.018
48520W        W20934  26.130  39.921   1.318
48521W        W20935  17.243  42.495  11.992
48522W        W20936  30.630   7.882   3.776
48523W        W20937  21.661  11.232   4.749
48524W        W20938   4.216   7.239  11.936
48525W        W20939  30.130   9.653  12.519
48526W        W20940   6.196   4.721  12.427
48527W        W20941   5.700  34.996  13.919
48528W        W20942  41.450  43.821  13.440
48529W        W20943  15.643  28.646  11.526
48530W        W20944  29.480  23.521   0.927
48531W        W20945   2.813  25.542   4.817
48532W        W20946  27.499  33.625   3.329
48533W        W20947  44.473   0.876  10.958
48534W        W20948  32.038  33.086   1.878
48535W        W20949  29.053  20.601   2.675
48536W        W20950  40.361  28.487  14.301
48537W        W20951   6.775   6.767  13.318
48538W        W20952  23.588  10.665   4.296
48539W        W20953   7.323  26.168  14.390
48540W        W20954  10.863  29.149   2.291
48541W        W20955  20.120  36.535  14.021
48542W        W20956   1.744  38.460  14.309
48543W        W20957  37.538  37.000  12.956
48544W        W20958  20.581  13.153  11.030
48545W        W20959  30.996  18.727   2.739
48546W        W20960  32.016  34.533   1.772
48547W        W20961   3.889   0.271  11.601
48548W        W20962  33.544  43.489  14.514
48549W        W20963  33.132  41.317   4.626
48550W        W20964   3.865  31.460  12.378
48551W        W20965  43.885  14.736   2.743
48552W        W20966  44.496  43.857   1.370
48553W        W20967  10.264  32.980  11.871
48554W        W20968  26.087   7.272  11.082
48555W        W20969   4.845  33.032  12.383
48556W        W20970  24.716  17.143  11.025
48557W        W20971  10.678  15.286   3.718
48558W        W20972  20.072  23.156  10.627
48559W        W20973  37.470  21.726  10.524
48560W        W20974  42.410  40.037   0.741
48561W        W20975  32.003  26.963   3.777
48562W        W20976  20.071  14.753   0.880
48563W        W20977  15.141  39.378  10.407
48564W        W20978  22.556  22.206   4.186
48565W        W20979  20.116  35.599   3.786
48566W        W20980  39.906  34.521   1.842
48567W        W20981  21.080  29.934   2.706
48568W        W20982  27.063   1.296  11.598
48569W        W20983  32.458  21.582   1.762
48570W        W20984  25.487  18.733  13.827
48571W        W20985   3.869  28.149   3.210
48572W        W20986  34.097  15.163  14.885
48573W        W20987  23.622   2.234  13.367
48574W        W20988  18.605   3.717  13.529
48575W        W20989  27.580  22.651   0.270
48576W        W20990   6.789  38.364   2.721
48577W        W20991  29.565  35.571  14.353
48578W        W20992  42.339   9.847  12.977
48579W        W20993  32.076  32.432   2.754
48580W        W20994  12.232  34.884   1.220
48581W        W20995   0.465  25.595  10.627
48582W        W20996  17.101  19.572   0.837
48583W        W20997  11.701  31.492   1.350
48584W        W20998  13.742  23.692  14.292
48585W        W20999   2.817   1.316  12.945
48586W        W21000  37.402  33.124   1.766
48587W        W21001  26.457  24.587   0.879
48588W        W21002  43.396  25.490  14.986
48589W        W21003  17.780  13.155  13.899
48590W        W21004  37.931  44.803   3.722
48591W        W21005  16.602  18.655  14.885
48592W        W21006  35.004  43.424  12.045
48593W        W21007   0.971   1.821   1.854
48594W        W21008   4.908  34.087  12.377
48595W        W21009  29.094  17.625   0.316
48596W        W21010  10.144  25.680   1.217
48597W        W21011  24.078   5.898  13.382
48598W        W21012   9.372  37.458  11.117
48599W        W21013   4.388  23.189  12.551
48600W        W21014  35.955   3.258   0.386
48601W        W21015  31.426  15.097   2.268
48602W        W21016  23.190  29.100   1.903
48603W        W21017   3.301  31.133  10.961
48604W        W21018  42.018  41.793   0.481
48605W        W21019  41.808  43.006   0.797
48606W        W21020  13.244  33.454   1.394
48607W        W21021  15.724  15.230   2.195
48608W        W21022  28.612   3.413  10.514
48609W        W21023  44.799  10.191  12.015
48610W        W21024  37.366   2.363  12.362
48611W        W21025  44.776  25.982   2.822
48612W        W21026   2.865  34.489   3.158
48613W        W21027   3.819  34.571  10.100
48614W        W21028  10.169   8.398   2.281
48615W        W21029  34.475   6.375   0.251
48616W        W21030  40.444  30.165   0.735
48617W        W21031  24.065  28.553  13.327
48618W        W21032  33.078  24.671  11.001
48619W        W21033  28.945  12.782   2.289
48620W        W21034  29.427  15.819  11.544
48621W        W21035  44.339  26.192  13.371
48622W        W21036   3.450  21.652  12.367
48623W        W21037  24.101  19.227  12.986
48624W        W21038  31.034  26.545   0.839
48625W        W21039  19.249  17.287  13.016
48626W        W21040  39.438   4.855  10.637
48627W        W21041   5.425  24.601  13.864
48628W        W21042  28.666  17.711   0.864
48629W        W21043  31.017  25.470  12.047
48630W        W21044  21.126  44.306   0.435
48631W        W21045  33.041  22.042  10.986
48632W        W21046  38.899   5.845   1.909
48633W        W21047  10.221  39.865  13.484
48634W        W21048  37.340  13.767   0.885
48635W        W21049  26.186  23.998   1.834
48636W        W21050  23.987   0.752   9.982
48637W        W21051  14.268   5.789  14.476
48638W        W21052   9.741  44.011   2.359
48639W        W21053   2.779  29.926  11.406
48640W        W21054  43.845  30.615   3.749
48641W        W21055  31.980  22.546  13.356
48642W        W21056  13.623  30.559  13.008
48643W        W21057   5.423  17.602   2.786
48644W        W21058  14.618  25.063   0.300
48645W        W21059  37.860  33.059  14.779
48646W        W21060  18.700  35.589   1.441
48647W        W21061  35.580  34.098  11.508
48648W        W21062  31.087  42.474   2.781
48649W        W21063  34.039   9.329   3.271
48650W        W21064  30.483  24.576  11.601
48651W        W21065  31.038  38.551   3.648
48652W        W21066  34.444  23.236   3.785
48653W        W21067  24.481  20.101   4.651
48654W        W21068  21.074  37.464   3.867
48655W        W21069  33.013  36.846   3.857
48656W        W21070  35.522  40.032  12.546
48657W        W21071  32.550  16.131  11.022
48658W        W21072  16.621  34.508  14.830
48659W        W21073  12.210  44.858   4.745
48660W        W21074  30.569  20.643   4.144
48661W        W21075  29.453  37.074  13.387
48662W        W21076   2.946  32.007  14.435
48663W        W21077   8.735  33.131  13.846
48664W        W21078  26.578  36.968   0.444
48665W        W21079  27.481  25.209  10.563
48666W        W21080  13.734  41.484  14.512
48667W        W21081  30.640  16.700   4.255
48668W        W21082  21.527  42.983  11.550
48669W        W21083  40.880   8.177  11.475
48670W        W21084  44.895   7.246  11.559
48671W        W21085   0.895  15.625   3.371
48672W        W21086  15.693  28.070  12.094
48673W        W21087  39.815  42.505  11.501
48674W        W21088   9.315  28.980  11.106
48675W        W21089  35.859  24.089  13.476
48676W        W21090  10.202  38.052  10.541
48677W        W21091  39.356  18.572  14.431
48678W        W21092  27.943  41.942   3.332
48679W        W21093  10.771  37.059  13.411
48680W        W21094  14.758  43.374   1.306
48681W        W21095  39.046  25.198  11.882
48682W        W21096  14.130  17.297   3.362
48683W        W21097   8.355  38.845  13.004
48684W        W21098  15.821  35.894  14.419
48685W        W21099  34.949  33.992  14.838
48686W        W21100   7.886   3.442  13.041
48687W        W21101  20.562  17.299   0.466
48688W        W21102  15.747  10.328   1.429
48689W        W21103   5.304  22.681   4.607
48690W        W21104  34.951   5.908  12.977
48691W        W21105  16.781  38.862   0.461
48692W        W21106  29.595  29.653   1.328
48693W        W21107   3.427  33.483  13.026
48694W        W21108   9.837   6.352   2.734
48695W        W21109  26.984  12.268  13.504
48696W        W21110  30.912  44.906  11.519
48697W        W21111   6.851  30.644   2.272
48698W        W21112   9.337   5.761   1.839
48699W        W21113  32.118  30.528   1.445
48700W        W21114  43.371  43.493   1.280
48701W        W21115  35.426   2.790  13.537
48702W        W21116  39.337  21.260  12.444
48703W        W21117  39.970   7.285  13.865
48704W        W21118  11.194  27.553   1.251
48705W        W21119  44.829  32.019   1.812
48706W        W21120  15.154  27.109  11.437
48707W        W21121   5.209   2.383  13.402
48708W        W21122  19.642  14.729  10.994
48709W        W21123  41.517  13.671  12.415
48710W        W21124   4.723  11.360   0.771
48711W        W21125  44.899  10.636  11.498
48712W        W21126  19.184  15.183  13.339
48713W        W21127  43.493   9.659   1.894
48714W        W21128  20.590  25.544   2.315
48715W        W21129  31.643  44.839  13.806
48716W        W21130  27.562   6.248   0.893
48717W        W21131  17.176  39.513  13.011
48718W        W21132  27.049  41.430  10.929
48719W        W21133  17.270  26.998  11.079
48720W        W21134  33.924  25.621  11.427
48721W        W21135  34.475  29.162   2.715
48722W        W21136  22.045  16.587   4.160
48723W        W21137   9.737  31.554  10.591
48724W        W21138  38.523  34.569  12.046
48725W        W21139  41.343  43.376   4.353
48726W        W21140  39.061  13.770   4.769
48727W        W21141   8.234  31.153  14.013
48728W        W21142  26.556  43.855  13.002
48729W        W21143  32.580   4.449  12.360
48730W        W21144  18.272  27.095  13.943
48731W        W21145  26.662   7.342  12.999
48732W        W21146  39.912  34.380  14.926
48733W        W21147  21.629  39.345   0.806
48734W        W21148  42.970  30.952   4.114
48735W        W21149  41.398   7.216   2.845
48736W        W21150  10.867  24.680  12.966
48737W        W21151  18.627   2.458   2.203
48738W        W21152   9.341  14.139   2.783
48739W        W21153  41.843  42.523   3.751
48740W        W21154  23.177   8.701  13.353
48741W        W21155   7.813  15.584   2.824
48742W        W21156  14.096  30.963   3.162
48743W        W21157  25.153  22.228  11.052
48744W        W21158  34.912  34.379   2.720
48745W        W21159  22.156  39.423  12.974
48746W        W21160  15.089  38.509   1.700
48747W        W21161  35.603  39.452  12.073
48748W        W21162   1.822  35.965  10.585
48749W        W21163   7.797  27.193   2.239
48750W        W21164  20.565  15.822  13.035
48751W        W21165  20.127  25.022  14.760
48752W        W21166  12.836   3.403   2.744
48753W        W21167  28.985  29.127  14.324
48754W        W21168  11.694  28.173  12.522
48755W        W21169  27.170  25.676  14.443
48756W        W21170   1.296  43.339   4.190
48757W        W21171  34.390  20.663   3.649
48758W        W21172   2.398  21.625  13.547
48759W        W21173  41.888  25.709  11.961
48760W        W21174  13.731  13.128  14.446
48761W        W21175  16.194  41.866  10.555
48762W        W21176  28.005  15.770  10.150
48763W        W21177  11.714  31.450   0.350
48764W        W21178  26.044  37.421  12.540
48765W        W21179   1.343   5.266   3.351
48766W        W21180  21.702  30.117  13.394
48767W        W21181  38.925  12.635  14.887
48768W        W21182   8.831  21.702   2.771
48769W        W21183  33.478  36.870   3.336
48770W        W21184  20.120  39.480   1.804
48771W        W21185  16.715  14.317  11.040
48772W        W21186  37.051  40.423  14.342
48773W        W21187   2.315   7.181   3.789
48774W        W21188  20.697  18.055   4.299
48775W        W21189  22.726  31.064   3.791
48776W        W21190   1.742   2.372  11.457
48777W        W21191   8.218  21.152   4.261
48778W        W21192   3.329  22.087   0.876
48779W        W21193   1.892  32.464   2.777
48780W        W21194   1.803   8.210  14.028
48781W        W21195  35.420   7.751  14.450
48782W        W21196  10.712  21.518   4.820
48783W        W21197  12.259   5.359   4.120
48784W        W21198  37.545  41.481   3.654
48785W        W21199   2.303  37.075  13.804
48786W        W21200  36.528   4.838  14.274
48787W        W21201   2.471  44.799  12.876
48788W        W21202   8.221  15.636  13.501
48789W        W21203  40.389  14.229   0.768
48790W        W21204  15.219  16.630  12.086
48791W        W21205   1.757   6.288   3.188
48792W        W21206  41.326  40.453  12.032
48793W        W21207  21.187  39.445   2.899
48794W        W21208   5.791  38.554  10.510
48795W        W21209  15.318  34.095   1.304
48796W        W21210  30.138  11.854  14.410
48797W        W21211  33.517  13.160  13.475
48798W        W21212  18.162  43.003   0.471
48799W        W21213  27.180   1.371   0.291
48800W        W21214  41.910  42.939  10.604
48801W        W21215  23.505  23.048   0.881
48802W        W21216  18.653  44.973  12.379
48803W        W21217  37.517  28.115   4.658
48804W        W21218  44.828   5.222  13.843
48805W        W21219  18.101  36.418  14.371
48806W        W21220   1.921   2.420   1.787
48807W        W21221  41.480  26.035  14.822
48808W        W21222  30.092   4.403   1.354
48809W        W21223  18.121   9.712  10.952
48810W        W21224  19.642   8.377  11.975
48811W        W21225  44.819   0.762  13.469
48812W        W21226  15.718  34.999   1.253
48813W        W21227  11.252  23.202   2.878
48814W        W21228  11.318  16.590  14.823
48815W        W21229  20.083  34.508   0.901
48816W        W21230  24.989  26.980   1.218
48817W        W21231  33.434  44.271   2.755
48818W        W21232   9.751  22.592   3.757
48819W        W21233  15.153   2.291   3.795
48820W        W21234  30.989   9.158   2.746
48821W        W21235  38.076  31.580   1.368
48822W        W21236   8.770  37.419  11.544
48823W        W21237  12.726  30.518   3.180
48824W        W21238   9.231  34.495  13.882
48825W        W21239  30.141  27.103  13.364
48826W        W21240   8.394  11.195   1.793
48827W        W21241  33.570  10.791  10.601
48828W        W21242  10.216   1.360   2.775
48829W        W21243  19.173  25.016  13.399
48830W        W21244  16.807  10.698   3.177
48831W        W21245  26.969  31.420   1.382
48832W        W21246  15.106  40.336  10.448
48833W        W21247  20.199  14.243  13.822
48834W        W21248  44.898  41.950  10.439
48835W        W21249  10.822   4.300  13.819
48836W        W21250   5.214  14.613   4.276
48837W        W21251   3.441  42.945  11.552
48838W        W21252  10.162  31.580   2.238
48839W        W21253  39.974   5.781  14.477
48840W        W21254  10.179  13.837  11.987
48841W        W21255  32.460   4.820   4.236
48842W        W21256  21.081   7.252   3.717
48843W        W21257  18.201  42.789   3.339
48844W        W21258  21.679  31.526  12.932
48845W        W21259  32.967  15.803   0.918
48846W        W21260  43.012  32.933   4.134
48847W        W21261  26.203  30.961   2.814
48848W        W21262  44.805  17.226  11.611
48849W        W21263  14.238  11.802   0.776
48850W        W21264  29.033  36.080  13.914
48851W        W21265   3.908  30.988  11.469
48852W        W21266  36.575   2.757  13.395
48853W        W21267  10.745  24.058  12.570
48854W        W21268  24.627  13.251  10.936
48855W        W21269  28.608  25.134  14.011
48856W        W21270  23.192  16.800   0.925
48857W        W21271  22.207  30.618   4.664
48858W        W21272  36.401  18.653   5.192
48859W        W21273   9.765  11.794  13.910
48860W        W21274  32.578   8.752   0.792
48861W        W21275  22.029  31.604   3.705
48862W        W21276   8.742  39.887   1.766
48863W        W21277  35.967  39.531  11.985
48864W        W21278  24.974   5.272  11.592
48865W        W21279  36.353  10.336   0.483
48866W        W21280  10.378  22.006   0.400
48867W        W21281  14.657  13.323   2.783
48868W        W21282  21.227   3.338  14.398
48869W        W21283  20.261   1.844   5.154
48870W        W21284  33.013  15.734   4.645
48871W        W21285  10.371   3.927  14.856
48872W        W21286   9.713  29.169  10.950
48873W        W21287  26.050  38.488   3.173
48874W        W21288  44.428  43.390  14.395
48875W        W21289  22.728  27.534   4.677
48876W        W21290  22.110  17.797  10.474
48877W        W21291  42.978   6.403   0.326
48878W        W21292  36.047  26.182  11.042
48879W        W21293   7.285   6.298  12.443
48880W        W21294  23.181   8.396   4.667
48881W        W21295  20.762  15.149   0.759
48882W        W21296  15.819   0.939   4.354
48883W        W21297  43.279  29.623  13.025
48884W        W21298   0.262  36.884  13.955
48885W        W21299  41.957  16.308  10.954
48886W        W21300  18.139  43.457  10.992
48887W        W21301   4.265  12.736   9.577
48888W        W21302   1.318  20.075  13.428
48889W        W21303   6.203   5.295   9.941
48890W        W21304  18.278  41.498   4.294
48891W        W21305  10.779  27.542  12.977
48892W        W21306  13.631  39.841  13.542
48893W        W21307   7.280   1.358  14.431
48894W        W21308   3.928  25.024   2.199
48895W        W21309  24.196  23.595   1.833
48896W        W21310  28.014  25.684  11.487
48897W        W21311   9.890  38.488   3.159
48898W        W21312  42.857  22.248  11.417
48899W        W21313  42.419  24.694   2.764
48900W        W21314  26.634  18.606  10.598
48901W        W21315  26.030  30.608   0.451
48902W        W21316  10.844   6.915  12.955
48903W        W21317  25.600  35.023   3.764
48904W        W21318  11.162  22.634  13.499
48905W        W21319   4.254  18.281   0.961
48906W        W21320  42.299   4.408   4.666
48907W        W21321  39.851  39.944  12.547
48908W        W21322  10.775  29.482   0.386
48909W        W21323  14.733   4.851  13.026
48910W        W21324  44.946  17.302  11.024
48911W        W21325  39.910  18.235   0.937
48912W        W21326  36.429  10.234  11.007
48913W        W21327   2.423  38.405  12.959
48914W        W21328  34.928   0.382   0.824
48915W        W21329   3.855  38.975  10.151
48916W        W21330  32.900  23.542   2.319
48917W        W21331  26.575  44.433   1.827
48918W        W21332  40.966  41.397   2.681
48919W        W21333  28.510  22.051   4.763
48920W        W21334  17.655  38.450  11.940
48921W        W21335  31.491  23.215  12.836
48922W        W21336  39.952   3.787  14.760
48923W        W21337  30.918   8.353   3.722
48924W        W21338  43.937  17.230  12.970
48925W        W21339  35.074  29.043   3.832
48926W        W21340  43.281  42.490  14.516
48927W        W21341  10.863   4.934   0.276
48928W        W21342   1.377   6.763   2.302
48929W        W21343  18.586  25.207  14.895
48930W        W21344   9.713  28.514   3.638
48931W        W21345  25.708  11.683  12.035
48932W        W21346  24.585  12.214   0.953
48933W        W21347  11.302  39.458  10.453
48934W        W21348  33.472  17.766  13.477
48935W        W21349  24.701  16.625   1.767
48936W        W21350  27.518  19.121   2.737
48937W        W21351  23.634  35.428   4.733
48938W        W21352  19.148   7.204   0.951
48939W        W21353  36.480  32.087  12.876
48940W        W21354  32.937  32.569   2.294
48941W        W21355  37.390  37.396   2.217
48942W        W21356  24.633   3.949  13.469
48943W        W21357  36.938  23.116  12.034
48944W        W21358  37.335  29.044  14.362
48945W        W21359  22.695  32.526  14.514
48946W        W21360  34.965  38.826  14.454
48947W        W21361   8.236  18.670  13.512
48948W        W21362  15.585  19.130  13.477
48949W        W21363  22.535  11.245  10.576
48950W        W21364  42.316   7.834  11.872
48951W        W21365   1.245  44.477  10.939
48952W        W21366  37.402  35.963   5.254
48953W        W21367  19.278  21.194   4.233
48954W        W21368  27.602  21.094   3.213
48955W        W21369  15.187  17.164  14.452
48956W        W21370  20.756  21.641  11.446
48957W        W21371  17.179  28.114  10.554
48958W        W21372  21.527   7.892   2.334
48959W        W21373  16.109  44.352  11.458
48960W        W21374  11.281  12.813  13.055
48961W        W21375   6.278  27.540  12.991
48962W        W21376  11.621  34.916   0.776
48963W        W21377  43.453  32.461   3.272
48964W        W21378  42.291   7.867   4.762
48965W        W21379  43.021   2.850   3.160
48966W        W21380  19.615  15.588   2.759
48967W        W21381  13.137  39.850  12.524
48968W        W21382   9.692   4.929  12.547
48969W        W21383  43.977   8.166  11.948
48970W        W21384  28.650   1.971  14.407
48971W        W21385  31.911  37.936  13.998
48972W        W21386  24.660  36.486  14.356
48973W        W21387  26.625  17.232   5.296
48974W        W21388   5.874  25.050  12.892
48975W        W21389  41.499  32.491   1.298
48976W        W21390  18.138  37.026  10.890
48977W        W21391  25.564   7.795   2.259
48978W        W21392  42.284  36.433  12.542
48979W        W21393   8.161  16.740   4.347
48980W        W21394  24.554  33.095  10.457
48981W        W21395   4.766  34.887  10.447
48982W        W21396  26.150  15.809  11.964
48983W        W21397  24.113  26.673   9.964
48984W        W21398  36.415  13.764  12.052
48985W        W21399  33.552  27.079  14.510
48986W        W21400  37.964  21.555  14.926
48987W        W21401  39.915  15.312   3.780
48988W        W21402  32.065  37.844  11.957
48989W        W21403  13.716  39.319  14.833
48990W        W21404  26.047   4.346  12.096
48991W        W21405  37.337  40.321  13.426
48992W        W21406  36.582   1.914   2.279
48993W        W21407   8.706  25.009   1.738
48994W        W21408  18.609   0.856   3.636
48995W        W21409   8.253  11.735   1.832
48996W        W21410  21.207   6.767   0.391
48997W        W21411   4.871  26.635  10.545
48998W        W21412  12.692   8.298   3.758
48999W        W21413  18.062  15.590  12.369
49000W        W21414  25.688  26.606  12.354
49001W        W21415  35.980  28.527   2.669
49002W        W21416  17.141  19.640  14.787
49003W        W21417  12.191   5.859  14.384
49004W        W21418  15.680  20.677  12.089
49005W        W21419  31.068  44.350  10.580
49006W        W21420  27.614  34.458  14.023
49007W        W21421  10.713  12.839  10.601
49008W        W21422  21.569  26.583  11.989
49009W        W21423  31.522  21.082  10.616
49010W        W21424  19.164   5.864   3.289
49011W        W21425  26.669   0.822   9.511
49012W        W21426  21.145  41.482   5.241
49013W        W21427   6.183  44.903   0.266
49014W        W21428  14.695  13.801  14.893
49015W        W21429  27.138  18.559  13.449
49016W        W21430  21.524  28.136  12.993
49017W        W21431  18.280  36.013  14.891
49018W        W21432  31.582  38.474   4.323
49019W        W21433  25.210  14.656  14.023
49020W        W21434  15.255  40.426   3.179
49021W        W21435   0.412   1.926   3.834
49022W        W21436  29.116  38.873   4.647
49023W        W21437  38.424  43.970   0.386
49024W        W21438  16.292   0.260   1.746
49025W        W21439  40.409  32.552   0.966
49026W        W21440   4.813  11.774   3.853
49027W        W21441  42.928  25.621  14.928
49028W        W21442  32.496  36.907   3.846
49029W        W21443   7.834  12.772   4.342
49030W        W21444  33.983   8.721   3.848
49031W        W21445  38.481  16.752  10.564
49032W        W21446  34.000  35.419   1.397
49033W        W21447  18.688  35.360  13.003
49034W        W21448  35.008  41.488   3.740
49035W        W21449  17.731   4.913  12.568
49036W        W21450  38.539  24.653   4.689
49037W        W21451  21.615  31.996   1.411
49038W        W21452  28.163   3.768  14.963
49039W        W21453  13.688  14.809   3.783
49040W        W21454  29.053  33.902   2.328
49041W        W21455  30.563  26.547   1.304
49042W        W21456  12.239   0.277   1.439
49043W        W21457   3.820  42.811   5.570
49044W        W21458  28.608  12.643   1.705
49045W        W21459   3.285  42.001  10.937
49046W        W21460   1.929  15.689  12.964
49047W        W21461  31.426  24.992   0.258
49048W        W21462   2.459  27.679  12.565
49049W        W21463  25.990  37.537   4.824
49050W        W21464  23.601  23.611  14.500
49051W        W21465   6.183  13.244  13.922
49052W        W21466  29.590   2.360  15.000
49053W        W21467  16.270  37.573   2.277
49054W        W21468   8.728   2.433   0.799
49055W        W21469   7.886  24.048   4.768
49056W        W21470  29.563   1.908  14.005
49057W        W21471  44.310  36.073   3.633
49058W        W21472   4.330  19.083   1.353
49059W        W21473  41.379  39.030  13.454
49060W        W21474  16.267  10.145  13.451
49061W        W21475  23.634  12.715  11.530
49062W        W21476   5.267  43.370  12.373
49063W        W21477   7.824  31.148   0.945
49064W        W21478   7.207  38.570   1.909
49065W        W21479  27.053  20.218  13.810
49066W        W21480  23.240   9.880  12.433
49067W        W21481  11.128   5.246   4.772
49068W        W21482   0.779  13.655  12.855
49069W        W21483   7.371  35.060  12.413
49070W        W21484   0.424  19.541   3.223
49071W        W21485  17.556  16.780  12.894
49072W        W21486  30.428  30.061   2.396
49073W        W21487   2.859  35.487  14.767
49074W        W21488   0.417  11.677   3.216
49075W        W21489   2.751  18.202   0.772
49076W        W21490  22.025   6.719  14.461
49077W        W21491  43.910  17.619  13.360
49078W        W21492  39.997  42.343   4.298
49079W        W21493  26.656   7.673   2.818
49080W        W21494  18.094  39.834   4.733
49081W        W21495  11.160  19.586   4.832
49082W        W21496  40.314  43.809  14.760
49083W        W21497   9.269  22.053   1.832
49084W        W21498  44.922  40.905  12.502
49085W        W21499  33.622   2.332  10.576
49086W        W21500  29.989   5.897   0.967
49087W        W21501  24.990  14.123   0.403
49088W        W21502  16.086  27.172  13.925
49089W        W21503  43.403  23.237  13.791
49090W        W21504  40.872  27.064  10.976
49091W        W21505  30.496   7.700  11.070
49092W        W21506  11.206  40.318   4.782
49093W        W21507  33.388  10.242  11.415
49094W        W21508  14.745   2.834  10.526
49095W        W21509  42.784   4.337  10.896
49096W        W21510  25.696  32.058   5.099
49097W        W21511  28.040   8.313   2.227
49098W        W21512   8.302  21.135  10.632
49099W        W21513  24.607  42.947  12.963
49100W        W21514  19.042  22.047   2.309
49101W        W21515  40.893  17.768   4.700
49102W        W21516  40.473  20.104  11.976
49103W        W21517  17.748  13.654  13.318
49104W        W21518  36.484  43.418   2.327
49105W        W21519  24.135  35.394   4.174
49106W        W21520   8.284  40.482  11.102
49107W        W21521  39.540  27.979   4.617
49108W        W21522  29.057  34.602   2.751
49109W        W21523  33.595  17.264   4.655
49110W        W21524  26.098   6.695  14.909
49111W        W21525   9.179   3.806   1.886
49112W        W21526  24.687  11.262  13.353
49113W        W21527  27.472  23.091  12.494
49114W        W21528   1.295   8.787  11.903
49115W        W21529   5.796  21.588  13.028
49116W        W21530  35.547  21.709   4.215
49117W        W21531  17.644  25.555   2.727
49118W        W21532  22.179  18.157   0.874
49119W        W21533  12.186  42.020  11.606
49120W        W21534  37.472  43.920   3.259
49121W        W21535  25.201   3.854  14.317
49122W        W21536  15.293  32.056   2.742
49123W        W21537  31.487  42.481   4.800
49124W        W21538  15.772   3.311  12.094
49125W        W21539  23.067  32.130   2.336
49126W        W21540  32.475  24.203   0.441
49127W        W21541  18.126  44.883   1.811
49128W        W21542  30.023  38.994   0.296
49129W        W21543  31.592   8.324   3.773
49130W        W21544  11.142  31.042   4.756
49131W        W21545   0.282   5.907   4.728
49132W        W21546  31.918  35.533  10.607
49133W        W21547  43.806  44.852  11.422
49134W        W21548  32.084  17.248  13.844
49135W        W21549  35.084  23.093  12.003
49136W        W21550   7.829  20.762  14.866
49137W        W21551  39.813  30.102   3.306
49138W        W21552  21.542   4.746   3.318
49139W        W21553  23.171  41.038   4.123
49140W        W21554  44.273  34.495   2.183
49141W        W21555  16.189  26.094  12.857
49142W        W21556   1.901  39.437   2.811
49143W        W21557  37.486  19.233   4.208
49144W        W21558   8.269   2.363   2.209
49145W        W21559  18.742  19.750   5.166
49146W        W21560  36.384  10.791  10.587
49147W        W21561   8.288  28.577  11.383
49148W        W21562  41.977   8.708   2.669
49149W        W21563  17.243  38.835   0.868
49150W        W21564  42.854  13.735   0.461
49151W        W21565  40.967  27.008   4.244
49152W        W21566   1.270  26.134  14.348
49153W        W21567  10.198  12.782  11.013
49154W        W21568   6.806  41.526  14.856
49155W        W21569   8.702  35.506   3.708
49156W        W21570  31.563   7.722   2.667
49157W        W21571  35.403  13.170  12.549
49158W        W21572   4.350   8.855  10.911
49159W        W21573  21.183  14.604  14.849
49160W        W21574  34.877  39.326   3.273
49161W        W21575  21.250  25.515   0.390
49162W        W21576  44.357  35.448   2.692
49163W        W21577  39.544   8.869  13.001
49164W        W21578   2.765  42.338  10.081
49165W        W21579   6.281  11.263   2.831
49166W        W21580  43.335  35.071   0.438
49167W        W21581  31.485   1.328   1.299
49168W        W21582  37.932  36.353  14.858
49169W        W21583  26.578   7.731   3.205
49170W        W21584  30.417   8.269  12.968
49171W        W21585  15.141   6.337   3.783
49172W        W21586   4.737  38.398  14.458
49173W        W21587  43.006  12.789   0.789
49174W        W21588  26.660   1.394   9.493
49175W        W21589  37.973  39.008  11.046
49176W        W21590  10.858  44.754   1.911
49177W        W21591  17.562  10.290   2.714
49178W        W21592  33.386  21.126  10.906
49179W        W21593  35.054  19.578   3.239
49180W        W21594  22.728  27.115  13.375
49181W        W21595  41.854  20.703   4.663
49182W        W21596  26.018  27.130  14.806
49183W        W21597  37.495   7.865   1.275
49184W        W21598  20.544   7.710   4.341
49185W        W21599   0.370  31.967  13.528
49186W        W21600   3.232  33.957  13.536
49187W        W21601   2.772   7.301  12.507
49188W        W21602  37.861  39.372   2.239
49189W        W21603  25.631  16.260   2.201
49190W        W21604  42.857   9.187   1.705
49191W        W21605  18.149   6.681   0.767
49192W        W21606  44.759  27.471   2.875
49193W        W21607  38.003  44.009   2.232
49194W        W21608  35.515  13.163  10.451
49195W        W21609  18.676  13.634  10.975
49196W        W21610  23.160   6.738   0.349
49197W        W21611   6.889  35.863   4.785
49198W        W21612  24.689  30.459   1.892
49199W        W21613   4.268  24.128   2.895
49200W        W21614  16.641  32.885  14.764
49201W        W21615  43.516  29.993   4.165
49202W        W21616  26.654   6.373  10.407
49203W        W21617  23.089   9.716  13.828
49204W        W21618  32.929  18.646   1.432
49205W        W21619   7.209  10.806   3.730
49206W        W21620  24.070  25.600  10.548
49207W        W21621  35.573  21.045  14.787
49208W        W21622   0.491  12.668   0.445
49209W        W21623  23.727  30.581   2.301
49210W        W21624  14.165  43.451   4.212
49211W        W21625  40.876  33.549  14.881
49212W        W21626  14.241   9.155  10.037
49213W        W21627  23.174  40.844  12.861
49214W        W21628  34.590  22.162  12.853
49215W        W21629   0.480  36.006   3.372
49216W        W21630  32.968  43.380  14.834
49217W        W21631  32.906  12.625  14.471
49218W        W21632   6.749  24.231  13.019
49219W        W21633  13.724   1.876  13.328
49220W        W21634  12.738  27.966   2.849
49221W        W21635  35.870  16.314  12.077
49222W        W21636  15.636  10.634   1.330
49223W        W21637  13.286  35.023  12.978
49224W        W21638  10.768   2.823   2.761
49225W        W21639   2.928  38.025   0.919
49226W        W21640  18.169   6.748   2.821
49227W        W21641  15.664  20.160  12.510
49228W        W21642  34.040   1.784  13.794
49229W        W21643  33.566  38.824  11.561
49230W        W21644  31.438  21.172   1.257
49231W        W21645  26.508  34.487   2.681
49232W        W21646  13.136  41.975  11.482
49233W        W21647  22.218  14.239  14.315
49234W        W21648  33.591  23.576   2.684
49235W        W21649  19.576  44.400   0.735
49236W        W21650  23.134  15.742  13.876
49237W        W21651   7.862  44.374  11.405
49238W        W21652  43.391  18.568  13.477
49239W        W21653  13.132   4.877  12.022
49240W        W21654  27.533  35.406  12.570
49241W        W21655  29.070  17.787  11.985
49242W        W21656  28.453  32.543   0.401
49243W        W21657  41.392  39.455   3.280
49244W        W21658  21.258  12.194   3.697
49245W        W21659   4.320  30.048   1.417
49246W        W21660   7.410  33.034  10.888
49247W        W21661  34.414  15.198   0.272
49248W        W21662  40.391  26.472   4.178
49249W        W21663  40.413  19.255  11.511
49250W        W21664  39.409   0.925  14.330
49251W        W21665  14.686  31.582   0.265
49252W        W21666  42.471  33.441   4.680
49253W        W21667  20.685  44.898   5.616
49254W        W21668  19.165  33.087   0.391
49255W        W21669  15.656  34.583  13.516
49256W        W21670  39.420  36.952   3.641
49257W        W21671   6.714  15.127   4.354
49258W        W21672  10.293   1.901  13.345
49259W        W21673   6.812  43.300   2.309
49260W        W21674  40.991   3.789   0.255
49261W        W21675  33.438  13.665  10.506
49262W        W21676  36.904   4.786   1.809
49263W        W21677  19.077   2.748  13.853
49264W        W21678  20.537  14.806  11.880
49265W        W21679   1.801  43.423   4.305
49266W        W21680   2.834  36.397   1.326
49267W        W21681  42.936  38.571  14.346
49268W        W21682  16.767   3.776   1.830
49269W        W21683  23.002  32.473   2.777
49270W        W21684  22.650   4.312  13.798
49271W        W21685  22.050  22.212  12.548
49272W        W21686  43.316  22.247  11.543
49273W        W21687  33.417  34.585   4.332
49274W        W21688  21.076  28.161  14.285
49275W        W21689  18.118  30.130  12.891
49276W        W21690  20.053  42.011   3.289
49277W        W21691  24.126  21.589   4.669
49278W        W21692   6.848   4.295   1.919
49279W        W21693  18.704  39.942   3.259
49280W        W21694  21.744  13.321  12.550
49281W        W21695  17.645  41.512  13.820
49282W        W21696  26.966  22.523  10.918
49283W        W21697  14.749   4.873   2.403
49284W        W21698  13.774   7.211  11.100
49285W        W21699  13.162  33.548  11.118
49286W        W21700  26.053  44.804   1.705
49287W        W21701  35.084  23.109  11.062
49288W        W21702  43.382  11.737   2.799
49289W        W21703  13.687   9.189   1.815
49290W        W21704  34.434  42.373  13.317
49291W        W21705  44.272  31.954   3.278
49292W        W21706  30.095   2.290   1.393
49293W        W21707  35.102  39.009  12.402
49294W        W21708   1.240  42.384   0.419
49295W        W21709  21.210  27.544  14.811
49296W        W21710  20.164  43.852   1.415
49297W        W21711  21.636  31.458   4.679
49298W        W21712  28.529  27.954   0.372
49299W        W21713   3.757  29.500   1.214
49300W        W21714  43.449  41.325  14.803
49301W        W21715  23.123  19.051  14.946
49302W        W21716   4.744  40.942   1.856
49303W        W21717  10.336  13.251  10.432
49304W        W21718  26.149  16.671  10.013
49305W        W21719   5.848   7.760   1.726
49306W        W21720   2.467  18.182  13.834
49307W        W21721  18.734  31.147   4.791
49308W        W21722  10.723  15.688  14.930
49309W        W21723  11.760  16.776   1.696
49310W        W21724  24.196  25.033   0.482
49311W        W21725  29.648  31.618  12.423
49312W        W21726  24.695  28.530  10.914
49313W        W21727  27.944   6.229   5.298
49314W        W21728  11.332  23.043  11.434
49315W        W21729  23.109  25.218   4.245
49316W        W21730   2.913  32.510   4.770
49317W        W21731  21.214  33.520  14.014
49318W        W21732  24.159   7.741   3.286
49319W        W21733  20.077  30.531   4.685
49320W        W21734  16.676  44.881  11.565
49321W        W21735  26.177  11.702  11.428
49322W        W21736  25.640  38.052   1.248
49323W        W21737  30.414  32.490   1.861
49324W        W21738  19.222   5.306  10.446
49325W        W21739  11.728  10.251  10.624
49326W        W21740  33.536   4.439   1.260
49327W        W21741   8.840   2.855   2.297
49328W        W21742  12.361  38.919  13.528
49329W        W21743  17.746   9.151   4.179
49330W        W21744   9.185  19.693   3.741
49331W        W21745  42.025  13.782  13.827
49332W        W21746  30.530  23.528  14.974
49333W        W21747  42.849  14.235  10.442
49334W        W21748   6.715   9.231  13.995
49335W        W21749   9.255  12.797  11.124
49336W        W21750  14.806   5.218  12.404
49337W        W21751  38.866  22.735  12.471
49338W        W21752  36.410  37.501  14.337
49339W        W21753  26.684  28.519  13.545
49340W        W21754   0.389  44.882  12.900
49341W        W21755   2.795  42.348  13.058
49342W        W21756  13.242  11.229  10.459
49343W        W21757  23.987  22.221  13.950
49344W        W21758   1.269  40.523  14.304
49345W        W21759   5.255  17.215  11.468
49346W        W21760   6.394  18.255  12.514
49347W        W21761  33.609   7.689   2.292
49348W        W21762   6.786  32.589  13.513
49349W        W21763  24.597   9.205  13.948
49350W        W21764  36.432  24.658  13.869
49351W        W21765  16.690  37.582  12.508
49352W        W21766  20.720  11.340   0.350
49353W        W21767  27.634  23.148   2.893
49354W        W21768  36.953  35.949  14.809
49355W        W21769  25.607  38.558   1.420
49356W        W21770  28.535  39.328  14.783
49357W        W21771   3.281  36.508  11.033
49358W        W21772  24.071   5.243   2.363
49359W        W21773  40.015  25.688  11.006
49360W        W21774  44.281  39.341   3.263
49361W        W21775   9.232  43.938   0.465
49362W        W21776  29.164  28.436   2.817
49363W        W21777   9.824  40.404   1.449
49364W        W21778  26.505  19.735   0.343
49365W        W21779   8.353  34.948  13.377
49366W        W21780   9.830  23.547  11.567
49367W        W21781  10.735  14.708  11.513
49368W        W21782  24.498  15.317   0.798
49369W        W21783  25.570  32.112   4.222
49370W        W21784  37.921  39.983  13.903
49371W        W21785   9.373  34.996  12.979
49372W        W21786  31.613  21.618   3.376
49373W        W21787  17.233  21.260   5.254
49374W        W21788  26.694  19.540  12.086
49375W        W21789  36.934  31.971   1.809
49376W        W21790  41.920  35.522   1.818
49377W        W21791   1.354  15.699   0.331
49378W        W21792  37.439  25.574  13.023
49379W        W21793  14.794  28.988  12.914
49380W        W21794  32.606  40.911  14.877
49381W        W21795  34.906   6.274   1.816
49382W        W21796  21.042  14.135  13.328
49383W        W21797  41.392  10.321  10.631
49384W        W21798  20.255  16.680   3.234
49385W        W21799  10.292  15.259   1.444
49386W        W21800  15.093  32.634  10.455
49387W        W21801  27.131  42.881  12.834
49388W        W21802  15.260  24.526  11.126
49389W        W21803   1.962  14.799  13.465
49390W        W21804   7.357  31.066  14.407
49391W        W21805   7.405  10.154   0.885
49392W        W21806  16.650  11.269   3.189
49393W        W21807  38.521  25.521  13.977
49394W        W21808  31.015   6.362   2.214
49395W        W21809  28.122  15.795   3.761
49396W        W21810  30.933  23.140  10.975
49397W        W21811  16.785  34.915  11.482
49398W        W21812  25.034  25.625  14.397
49399W        W21813   4.291  22.997   2.663
49400W        W21814  39.919  38.390  13.954
49401W        W21815  31.497  40.520  12.005
49402W        W21816  33.469  41.851   0.829
49403W        W21817  21.102   0.410  14.777
49404W        W21818   5.922  14.121   0.255
49405W        W21819  29.567  12.280   4.817
49406W        W21820  17.642  16.299   3.793
49407W        W21821   7.855   4.264   0.765
49408W        W21822  24.641  34.456  11.958
49409W        W21823  11.712  33.887  14.448
49410W        W21824  38.843  34.474  14.361
49411W        W21825  33.088  42.418   4.182
49412W        W21826  41.992  28.112   2.724
49413W        W21827  28.491   4.903  11.027
49414W        W21828  42.944  40.463   0.480
49415W        W21829  15.603   3.848   5.217
49416W        W21830  18.159  22.677   0.317
49417W        W21831  22.009  34.980  13.831
49418W        W21832  20.576  31.103   0.957
49419W        W21833  33.392  32.984   2.817
49420W        W21834  20.153  12.228  11.480
49421W        W21835  29.528  13.735   3.212
49422W        W21836  18.642  22.534   4.679
49423W        W21837  19.580  16.709   3.823
49424W        W21838  26.546  41.410  11.921
49425W        W21839  13.148  22.017  11.885
49426W        W21840  35.395  35.521   0.858
49427W        W21841  23.160  25.539  11.458
49428W        W21842  41.031  36.980   3.147
49429W        W21843  31.050  23.596   1.257
49430W        W21844  40.015  43.443   1.785
49431W        W21845  42.447   7.297  12.017
49432W        W21846  40.928   6.907   0.937
49433W        W21847  13.733  34.418  11.011
49434W        W21848  27.528  25.484   0.316
49435W        W21849   9.858   8.717  11.059
49436W        W21850   6.823  18.791   3.275
49437W        W21851  22.514  38.062   2.886
49438W        W21852   1.385  17.754  11.553
49439W        W21853  26.206  42.923   4.274
49440W        W21854  25.967  33.550  12.953
49441W        W21855  19.227   7.835  11.504
49442W        W21856  17.661  29.508   1.890
49443W        W21857  24.219   8.849  10.579
49444W        W21858  25.133  32.020  14.977
49445W        W21859  36.376  20.575  12.415
49446W        W21860   0.347  30.030   0.366
49447W        W21861  29.999   5.363  12.928
49448W        W21862  30.613  32.070  14.821
49449W        W21863   0.258  14.677  13.948
49450W        W21864  44.840  30.045   0.846
49451W        W21865  10.220  41.340  13.817
49452W        W21866  31.114  39.371  14.929
49453W        W21867   6.337  32.560  12.454
49454W        W21868  35.529  37.421  13.974
49455W        W21869  34.428  42.362  12.894
49456W        W21870  19.644   0.473  13.519
49457W        W21871   4.315  26.639  12.954
49458W        W21872   3.261  28.567   3.288
49459W        W21873  34.506  43.487   4.253
49460W        W21874  10.739  33.044   2.863
49461W        W21875  26.024  37.069   0.247
49462W        W21876  39.414  26.457  11.006
49463W        W21877  17.633   6.874   3.373
49464W        W21878  17.093  44.792  13.845
49465W        W21879  44.871  21.230   1.303
49466W        W21880  30.983  19.238   2.282
49467W        W21881  37.004  34.988   5.586
49468W        W21882  23.130   4.443   1.856
49469W        W21883   5.203  41.521   4.722
49470W        W21884  21.517  37.941  10.955
49471W        W21885   4.432  14.711  11.010
49472W        W21886  31.429  31.494   1.929
49473W        W21887  26.094   6.340  14.485
49474W        W21888  41.872  26.673   0.444
49475W        W21889  24.151  11.770  10.447
49476W        W21890   7.875  24.632   3.775
49477W        W21891   3.291  10.695  10.429
49478W        W21892  19.750  20.219   0.309
49479W        W21893  18.091  15.676  11.056
49480W        W21894  32.124  34.927   1.417
49481W        W21895  37.545  30.642   3.171
49482W        W21896  35.588  15.099   1.839
49483W        W21897  41.328  41.472  12.975
49484W        W21898   3.238  25.059   2.749
49485W        W21899   0.297  24.096  12.959
49486W        W21900  14.771  37.460  12.983
49487W        W21901  26.133  28.606  11.431
49488W        W21902  35.402  36.074  14.765
49489W        W21903  15.102  33.433  11.593
49490W        W21904  34.890  34.530   1.401
49491W        W21905  23.127  23.597   0.778
49492W        W21906   4.283  33.555  10.522
49493W        W21907  25.687  23.152   4.343
49494W        W21908  27.077   6.315   4.696
49495W        W21909  34.901  22.038   3.867
49496W        W21910   0.890  29.959  11.435
49497W        W21911  10.688  27.057   1.369
49498W        W21912  39.989  34.042   3.856
49499W        W21913   1.358  41.028   1.733
49500W        W21914  26.013  27.653   4.350
49501W        W21915  14.609  41.881  12.998
49502W        W21916  12.298  42.283  14.387
49503W        W21917  21.152   8.844  11.101
49504W        W21918  34.561  15.582   1.733
49505W        W21919   8.372  24.156   4.820
49506W        W21920  17.093   1.794   4.729
49507W        W21921  31.147   8.338   4.781
49508W        W21922  30.599   7.376   1.791
49509W        W21923  39.998   8.287   4.194
49510W        W21924  10.845  36.893   0.913
49511W        W21925  20.136   3.373  11.437
49512W        W21926  38.417  39.047  10.919
49513W        W21927  28.185  44.762  10.997
49514W        W21928  20.547  13.116  12.344
49515W        W21929   0.886  18.632   0.787
49516W        W21930  44.485  25.492  11.962
49517W        W21931  11.357  26.191  13.489
49518W        W21932  21.543  30.422   3.318
49519W        W21933  26.597  15.750   0.460
49520W        W21934  40.547  12.305  14.886
49521W        W21935  39.882  35.528   1.749
49522W        W21936   4.873   7.805   2.354
49523W        W21937  34.865  17.112   0.459
49524W        W21938   6.287  25.121  12.490
49525W        W21939   4.906   7.413  11.021
49526W        W21940  20.227  33.978   0.772
49527W        W21941  14.751  28.511  13.052
49528W        W21942  39.337  38.555   3.383
49529W        W21943   2.924  23.698   2.866
49530W        W21944  42.498  31.091   3.163
49531W        W21945   5.727  27.474  14.927
49532W        W21946   2.442   5.214   4.712
49533W        W21947  23.593  29.921  14.321
49534W        W21948  16.119  25.539   2.203
49535W        W21949  31.952  18.227  13.990
49536W        W21950  33.391  32.538   4.256
49537W        W21951  25.627  23.032  13.500
49538W        W21952   8.384  12.246   4.693
49539W        W21953  41.916   7.785  12.860
49540W        W21954   5.816  43.780   4.804
49541W        W21955   0.921  20.210  13.866
49542W        W21956  18.286  14.730   0.266
49543W        W21957  11.360  24.049  14.786
49544W        W21958  25.993   1.952   0.856
49545W        W21959  18.631   9.167   4.646
49546W        W21960  29.621  17.653   3.238
49547W        W21961  42.344  21.713   3.264
49548W        W21962  38.858  14.663   4.164
49549W        W21963  20.217  39.421   2.418
49550W        W21964  17.618  34.510   0.763
49551W        W21965  10.815   9.645   4.738
49552W        W21966   8.171   1.279  13.512
49553W        W21967  35.583  40.030   0.287
49554W        W21968  14.200  33.068  11.552
49555W        W21969  44.764  27.681   0.347
49556W        W21970   9.751  27.603  11.989
49557W        W21971  13.610  13.728   3.380
49558W        W21972   5.915   7.206   3.861
49559W        W21973  15.700  13.646  14.841
49560W        W21974  31.968  22.574  14.867
49561W        W21975  26.680  36.933   1.451
49562W        W21976  17.121  33.976  10.443
49563W        W21977  29.034  27.637   0.937
49564W        W21978  34.597  23.607  10.912
49565W        W21979   5.373  25.714   0.933
49566W        W21980   5.391  17.203  13.863
49567W        W21981  26.598  17.252  13.983
49568W        W21982  43.972  25.164   3.209
49569W        W21983  33.464  43.830  10.555
49570W        W21984  14.120  24.123   2.350
49571W        W21985  11.299  43.449  14.446
49572W        W21986  17.066  26.471  14.826
49573W        W21987  39.912  10.700   3.291
49574W        W21988   0.747  42.453   3.351
49575W        W21989  41.525  24.041   1.761
49576W        W21990   1.834  22.127  14.850
49577W        W21991  21.115  22.182   0.928
49578W        W21992  12.165  20.110  13.820
49579W        W21993  35.537  15.137  14.914
49580W        W21994  27.548  30.534  11.023
49581W        W21995  22.109   7.394  13.030
49582W        W21996  29.039  17.729  11.432
49583W        W21997  20.035  28.160  13.442
49584W        W21998  20.587  18.627  14.939
49585W        W21999  24.202   9.219  12.489
49586W        W22000  24.497  15.207  11.899
49587W        W22001  32.531  42.861  10.425
49588W        W22002  17.746  36.438   3.367
49589W        W22003  15.211  38.330  10.430
49590W        W22004  19.107   3.459  14.444
49591W        W22005  16.086  14.239   3.188
49592W        W22006  29.171  10.704   4.666
49593W        W22007   3.819  29.547  12.886
49594W        W22008  24.120  22.111   1.337
49595W        W22009   8.887  10.845  12.862
49596W        W22010  17.700  34.962   1.816
49597W        W22011  29.095   9.165  13.416
49598W        W22012  12.234  37.411   2.259
49599W        W22013  17.197   1.454  13.999
49600W        W22014  12.313   5.271  11.389
49601W        W22015  24.558  18.622   0.403
49602W        W22016  27.606  19.046  10.975
49603W        W22017  31.036  13.761  14.957
49604W        W22018   5.283  38.847  12.079
49605W        W22019  11.298  34.006   0.378
49606W        W22020   8.707  19.541  14.798
49607W        W22021   2.315   8.348  12.352
49608W        W22022  33.612   4.254   4.638
49609W        W22023  13.114  14.691   2.812
49610W        W22024  21.598  41.957  14.412
49611W        W22025  14.218  26.457  13.027
49612W        W22026  18.718   4.352   3.288
49613W        W22027   3.357  21.572  14.944
49614W        W22028  31.102  44.909   2.747
49615W        W22029  29.106  30.618  11.505
49616W        W22030   9.668  18.627  11.869
49617W        W22031  17.161  32.532  11.528
49618W        W22032  22.222  26.108   3.205
49619W        W22033  18.707  32.098  12.959
49620W        W22034  41.476  23.095   3.370
49621W        W22035  31.066  43.441   2.278
49622W        W22036  29.080   6.896  14.840
49623W        W22037  19.607  33.969  14.851
49624W        W22038   4.352  27.522   5.158
49625W        W22039   7.910  32.550  13.508
49626W        W22040  13.674  42.385  12.929
49627W        W22041  36.072  36.048  12.367
49628W        W22042  34.435   7.359   0.431
49629W        W22043   1.342  32.474   4.297
49630W        W22044  29.086  35.484   3.344
49631W        W22045  11.761  18.235  11.470
49632W        W22046  33.104  28.975  13.515
49633W        W22047  22.209  16.202  14.501
49634W        W22048  39.335  22.566   2.792
49635W        W22049  30.974  39.382  10.592
49636W        W22050  26.173  20.237   0.407
49637W        W22051  37.482   3.342  14.376
49638W        W22052   3.743  39.975  10.422
49639W        W22053  37.383  10.288   1.886
49640W        W22054   0.965  19.728  14.402
49641W        W22055  28.474   8.218   0.372
49642W        W22056  24.162   9.763  11.926
49643W        W22057  40.344  34.950  13.469
49644W        W22058  28.678   6.849   1.367
49645W        W22059  11.225   5.407  12.403
49646W        W22060  20.693  20.192   0.822
49647W        W22061  36.549  26.187   1.315
49648W        W22062  32.954  39.513  12.941
49649W        W22063  39.033  40.989  14.957
49650W        W22064  12.693   2.334  13.893
49651W        W22065   9.314   8.762   5.122
49652W        W22066   6.223  41.870  12.903
49653W        W22067  18.748  17.200  12.038
49654W        W22068  43.847  22.112   3.814
49655W        W22069  18.139  16.211  11.088
49656W        W22070  10.199  30.151   0.420
49657W        W22071  18.052   5.691  14.854
49658W        W22072  42.855  43.320   3.739
49659W        W22073  39.454  15.254   0.265
49660W        W22074  19.097  30.547  10.423
49661W        W22075  19.175  36.494   4.741
49662W        W22076  26.086   6.408   1.325
49663W        W22077  28.180  26.108   0.477
49664W        W22078  13.210  43.866   3.844
49665W        W22079  29.573  39.560  14.843
49666W        W22080  14.129  22.054   3.793
49667W        W22081  17.693  43.890  12.428
49668W        W22082  41.514  34.984  11.865
49669W        W22083  16.582  25.528  13.492
49670W        W22084  33.008  11.327   4.651
49671W        W22085  10.163   2.721  12.059
49672W        W22086  38.403  42.901   4.211
49673W        W22087  27.031   5.807   0.875
49674W        W22088  16.765  16.223   4.280
49675W        W22089  43.995  15.100   4.258
49676W        W22090   4.934  32.455  12.988
49677W        W22091  21.575  35.068  11.416
49678W        W22092  24.684  35.968  14.504
49679W        W22093  13.276  11.671   3.715
49680W        W22094  22.228   0.943   3.822
49681W        W22095  20.697   0.303   9.615
49682W        W22096  30.159  41.536  10.512
49683W        W22097   3.262  20.265   4.789
49684W        W22098  17.712  15.616  14.458
49685W        W22099  38.031  12.127   3.722
49686W        W22100  18.787   3.825  11.516
49687W        W22101  18.149  44.393  14.992
49688W        W22102  19.717  27.492   1.841
49689W        W22103   3.895  42.798  11.057
49690W        W22104  41.004  14.196   2.812
49691W        W22105  12.765  11.801  10.560
49692W        W22106   9.689  15.785  14.380
49693W        W22107  35.051   5.264  13.359
49694W        W22108  25.674   6.406   1.226
49695W        W22109   0.768  31.505   1.832
49696W        W22110  11.651  29.573  11.009
49697W        W22111  24.048  41.831   4.192
49698W        W22112  43.851   9.855  10.942
49699W        W22113  16.799  35.854  13.019
49700W        W22114  11.741  36.431   2.190
49701W        W22115  20.035  34.509  14.841
49702W        W22116  40.342   3.279  13.999
49703W        W22117  44.275   5.872  13.002
49704W        W22118  18.106  22.235   4.810
49705W        W22119  44.902  21.715   4.663
49706W        W22120   5.876  39.559   0.325
49707W        W22121  44.901   4.894  10.493
49708W        W22122   0.308  23.187   2.330
49709W        W22123   2.235  14.210  13.524
49710W        W22124   4.428  43.872   3.240
49711W        W22125  32.924   3.798  11.878
49712W        W22126  42.352  32.132   2.275
49713W        W22127   0.829  18.278   4.755
49714W        W22128  22.226  16.789   0.365
49715W        W22129  38.343  31.521   1.725
49716W        W22130  17.719  15.805   3.637
49717W        W22131  28.006  13.625   2.824
49718W        W22132  37.838  39.022   1.922
49719W        W22133  44.834  12.678   3.714
49720W        W22134  11.174  40.836  13.941
49721W        W22135  33.472  40.876   0.362
49722W        W22136   2.798   6.903  12.866
49723W        W22137  38.041  28.491   0.474
49724W        W22138  12.128   8.872  14.899
49725W        W22139  32.574  41.787   2.886
49726W        W22140  39.048  13.322  14.399
49727W        W22141  11.263  29.174  11.892
49728W        W22142  14.638  22.075  12.890
49729W        W22143  38.503  42.829  14.425
49730W        W22144  34.964   1.292  14.030
49731W        W22145  25.058  41.867   4.739
49732W        W22146  10.673   6.410   2.415
49733W        W22147  27.055  37.927   3.854
49734W        W22148  28.975   1.783  10.440
49735W        W22149  33.512  20.537   2.406
49736W        W22150   5.698  36.444   2.310
49737W        W22151  32.490  33.478  13.856
49738W        W22152  43.500  13.313   4.818
49739W        W22153   8.169   6.725  11.534
49740W        W22154  18.759  12.139  13.964
49741W        W22155  15.637  34.423   2.788
49742W        W22156  26.552   5.251  12.404
49743W        W22157  29.481  19.218  10.469
49744W        W22158  29.498  36.539   3.276
49745W        W22159   3.902  29.152  14.029
49746W        W22160  17.569  40.975  13.976
49747W        W22161  37.465  30.158   0.355
49748W        W22162  13.348  39.395   3.295
49749W        W22163   6.364   6.385   0.358
49750W        W22164   0.494  40.510  13.373
49751W        W22165  20.050  41.529   3.338
49752W        W22166  44.404  34.570   9.922
49753W        W22167  17.082  27.650  11.383
49754W        W22168  43.851   3.839  12.535
49755W        W22169  29.956  13.306   4.806
49756W        W22170  39.838  17.751  10.515
49757W        W22171  34.448  34.403   0.735
49758W        W22172  12.300  11.292   1.320
49759W        W22173   8.171  35.388  13.444
49760W        W22174  30.041  39.315   1.239
49761W        W22175  43.898  17.203   4.184
49762W        W22176  21.223   6.326   0.479
49763W        W22177   8.335   3.351   4.612
49764W        W22178  12.795  34.452   2.272
49765W        W22179  43.455  19.122  11.863
49766W        W22180   0.487  38.398  14.997
49767W        W22181  34.060  28.037  13.415
49768W        W22182  17.296  20.768  14.310
49769W        W22183  39.961   8.657   4.611
49770W        W22184   5.294  25.089  11.081
49771W        W22185  12.201  20.550  12.365
49772W        W22186  18.688  14.154  11.419
49773W        W22187  42.030  24.113   1.765
49774W        W22188  33.587  15.806   4.228
49775W        W22189  35.561  39.010   4.650
49776W        W22190  39.552  26.483  12.972
49777W        W22191  39.044  34.980  10.951
49778W        W22192  11.664   0.277  13.030
49779W        W22193  19.667  35.389  12.073
49780W        W22194   4.804  38.863  10.568
49781W        W22195  19.207   8.353   2.372
49782W        W22196  41.486  33.090   3.666
49783W        W22197  27.156  39.815   3.670
49784W        W22198   3.948  42.783  13.010
49785W        W22199   7.879  40.357  14.874
49786W        W22200  39.451  34.549  14.349
49787W        W22201  32.511  16.097  13.806
49788W        W22202  43.293   7.197   1.758
49789W        W22203  27.680  21.641   3.649
49790W        W22204  40.499  15.586  10.404
49791W        W22205  31.514  16.612  10.969
49792W        W22206  23.524  19.676   1.850
49793W        W22207  14.682   0.930   5.157
49794W        W22208  31.610  38.378  11.997
49795W        W22209  17.236  43.896   4.174
49796W        W22210  43.342  18.767  10.476
49797W        W22211  21.157  40.345  11.107
49798W        W22212   1.404  28.577   4.804
49799W        W22213   7.329   1.761   0.402
49800W        W22214   9.170  40.420   1.260
49801W        W22215   3.221  44.437   1.796
49802W        W22216  32.583  12.176   4.835
49803W        W22217  15.216   8.370   0.372
49804W        W22218  30.923  41.973   2.836
49805W        W22219  22.655  11.657   2.289
49806W        W22220   6.879  22.707   0.838
49807W        W22221  43.995  18.166   2.697
49808W        W22222  23.626  20.262  13.905
49809W        W22223  18.596  18.787  10.519
49810W        W22224  15.198  30.915  14.943
49811W        W22225   2.360  23.115   1.391
49812W        W22226  27.013  39.358  11.882
49813W        W22227  39.544  33.927  10.613
49814W        W22228   5.760  29.521  10.599
49815W        W22229   8.675  33.471   0.780
49816W        W22230  44.951  23.227  14.980
49817W        W22231  25.508  14.613   2.307
49818W        W22232  32.077   6.832   1.335
49819W        W22233  34.444  11.285  12.058
49820W        W22234   2.367  40.799   3.692
49821W        W22235   1.923  29.018   4.609
49822W        W22236  18.680  37.991  11.948
49823W        W22237  20.133  40.480   5.233
49824W        W22238  11.772  35.050   4.204
49825W        W22239  36.483  12.269   2.696
49826W        W22240  35.086  40.886  11.520
49827W        W22241  14.607   0.261   4.688
49828W        W22242  20.636  32.508  11.409
49829W        W22243  36.022  36.398  14.294
49830W        W22244  38.827   3.290  10.899
49831W        W22245  21.612  36.587   2.669
49832W        W22246  30.653  35.407   1.377
49833W        W22247  18.587   5.415   1.897
49834W        W22248  36.568   2.357  10.887
49835W        W22249  11.783  21.144  10.513
49836W        W22250  20.582  42.031  11.502
49837W        W22251  10.225   8.188  12.977
49838W        W22252  17.194   3.816  10.921
49839W        W22253  29.559   0.814  14.804
49840W        W22254  13.315  39.468   2.755
49841W        W22255  14.791   9.240  14.024
49842W        W22256  25.706  40.037   3.696
49843W        W22257  11.151  24.974   4.611
49844W        W22258   7.265   0.803   4.605
49845W        W22259  27.058  37.965   3.233
49846W        W22260   9.798  43.478  13.028
49847W        W22261  44.337   1.427  11.094
49848W        W22262  40.966  43.825  15.000
49849W        W22263  39.446  20.103  11.081
49850W        W22264  37.033  29.560   2.289
49851W        W22265  14.149   7.743   0.820
49852W        W22266  14.238  16.576   0.407
49853W        W22267  39.363   2.917  13.060
49854W        W22268  44.817  42.486  14.952
49855W        W22269  31.945  13.620  10.511
49856W        W22270  37.366  43.937   1.744
49857W        W22271  22.021  33.487  11.480
49858W        W22272   6.381  40.907  14.835
49859W        W22273  13.652  30.076  10.525
49860W        W22274  44.261  24.515  13.888
49861W        W22275   2.951  13.730  11.565
49862W        W22276  31.498   0.955  14.396
49863W        W22277  11.634   1.283   1.808
49864W        W22278  23.067  35.546  14.832
49865W        W22279  31.635  16.095   4.149
49866W        W22280  10.186  15.601   4.692
49867W        W22281  17.294   0.256   9.988
49868W        W22282  41.302  18.066  14.278
49869W        W22283  36.035  17.277  12.514
49870W        W22284   8.665   6.246  13.473
49871W        W22285   6.786  35.937  11.530
49872W        W22286  29.984  33.882   2.397
49873W        W22287  34.075  43.486   4.186
49874W        W22288  16.278  29.551  12.577
49875W        W22289  31.643  24.157   2.258
49876W        W22290  18.172  16.763  13.023
49877W        W22291  14.720   2.461   2.396
49878W        W22292  14.742   1.876   3.817
49879W        W22293  24.534  26.657  13.873
49880W        W22294  28.440  28.637  13.448
49881W        W22295  42.006  21.549   4.222
49882W        W22296  42.517  31.106  11.127
49883W        W22297  40.965  42.463  14.479
49884W        W22298   3.439  33.999   0.456
49885W        W22299   6.847  39.008  10.487
49886W        W22300  24.496  30.910   3.848
49887W        W22301  34.876  41.297  10.513
49888W        W22302  43.018  15.168   3.808
49889W        W22303  42.899  23.152  14.822
49890W        W22304  35.444  34.963  10.940
49891W        W22305   1.478  31.401   2.207
49892W        W22306  34.446  36.412  13.912
49893W        W22307  31.502  42.894  11.959
49894W        W22308  17.570   9.282  13.322
49895W        W22309  26.607  37.023  13.037
49896W        W22310  23.201  26.577  10.639
49897W        W22311   6.401  22.073   0.759
49898W        W22312  25.072  35.930  13.017
49899W        W22313  35.390   8.220   4.666
49900W        W22314   5.730  25.971  11.408
49901W        W22315  25.602   8.805   3.221
49902W        W22316  13.299  17.764   0.932
49903W        W22317   6.370  40.809  10.998
49904W        W22318  36.879  12.158  11.119
49905W        W22319  41.896   4.311   2.291
49906W        W22320  14.806  44.469  14.384
49907W        W22321   2.305  10.723   2.320
49908W        W22322  11.643  28.121   0.780
49909W        W22323  25.684  16.711   5.654
49910W        W22324  22.726  21.634  10.414
49911W        W22325   3.364  33.395   4.757
49912W        W22326  18.196  25.712  12.456
49913W        W22327  26.146  14.675  12.456
49914W        W22328  11.767   5.361  11.978
49915W        W22329  24.633  34.893   3.737
49916W        W22330   3.393  31.416  13.384
49917W        W22331   5.292   7.700  11.918
49918W        W22332  40.426  38.010   1.897
49919W        W22333  36.065  15.625  12.449
49920W        W22334  31.545  27.107   2.307
49921W        W22335  42.367  18.112  10.932
49922W        W22336  30.070  14.231   2.415
49923W        W22337  38.499  16.247   2.407
49924W        W22338   5.767  14.158   4.819
49925W        W22339   8.803  32.561   2.246
49926W        W22340  39.829  15.178   4.612
49927W        W22341   9.720  18.231  12.417
49928W        W22342  39.992  23.056   3.259
49929W        W22343  27.528  17.766   2.246
49930W        W22344  32.038  13.804   0.266
49931W        W22345  22.622   2.931   1.302
49932W        W22346  29.924  39.056   2.699
49933W        W22347  27.187   5.361   1.356
49934W        W22348  26.660  14.771  13.825
49935W        W22349  22.682   1.956  13.878
49936W        W22350  36.021   6.853  10.560
49937W        W22351  15.155   7.794  13.795
49938W        W22352   6.714  42.012  12.555
49939W        W22353  36.464   9.735   4.732
49940W        W22354  35.924  22.072  12.356
49941W        W22355  10.815  10.826   1.712
49942W        W22356  13.662   3.734   3.860
49943W        W22357  29.992  17.090  13.903
49944W        W22358  10.832  22.134  12.358
49945W        W22359  23.694  39.846   1.769
49946W        W22360  23.162   2.861   3.717
49947W        W22361   5.714  15.282   1.246
49948W        W22362  27.111  34.394   0.300
49949W        W22363  44.321  32.578   4.119
49950W        W22364  43.475  43.454  12.447
49951W        W22365  30.911  25.122  10.957
49952W        W22366  12.673  10.798   4.172
49953W        W22367   1.733  33.031   0.829
49954W        W22368  12.179  12.331   0.266
49955W        W22369   1.251   0.897  14.859
49956W        W22370  35.043  40.486   3.316
49957W        W22371   6.807  23.020  10.595
49958W        W22372  30.059   6.384   0.859
49959W        W22373  36.990  18.073  12.952
49960W        W22374  40.885  39.334   2.745
49961W        W22375   5.323   6.396   0.742
49962W        W22376  14.144  34.039  14.368
49963W        W22377   6.858   7.174   4.810
49964W        W22378  32.899  19.715  12.031
49965W        W22379  41.938  34.107  14.015
49966W        W22380  40.031  25.114   2.785
49967W        W22381  25.975  39.029   0.785
49968W        W22382  10.191   8.188  11.964
49969W        W22383  31.991  35.536  12.928
49970W        W22384  41.379   3.801  12.519
49971W        W22385  28.141  33.617   0.446
49972W        W22386  36.375  30.564   4.143
49973W        W22387  17.562  30.926  11.078
49974W        W22388  18.071  15.646  14.288
49975W        W22389  41.408   9.254  13.978
49976W        W22390  13.119  44.825  13.425
49977W        W22391  18.608  35.571   2.820
49978W        W22392  25.593  43.495   3.654
49979W        W22393  25.472  12.715   3.253
49980W        W22394  33.033  34.088   3.854
49981W        W22395  35.375   1.970   3.215
49982W        W22396  29.012  43.364   3.185
49983W        W22397  22.716   1.314   0.730
49984W        W22398  35.999  32.515   2.386
49985W        W22399  21.671   9.257   1.897
49986W        W22400   2.746  27.068   4.171
49987W        W22401  35.479  11.797   0.302
49988W        W22402  20.199  15.660   4.135
49989W        W22403  24.223   7.251  14.391
49990W        W22404  30.454  23.718  10.914
49991W        W22405   4.919   7.854   1.889
49992W        W22406  29.096   3.461  10.459
49993W        W22407   1.749  43.791  11.378
49994W        W22408  41.876  20.550   2.744
49995W        W22409   2.421   4.388  14.436
49996W        W22410  26.653  16.085   4.311
49997W        W22411  23.669  12.840  10.535
49998W        W22412   2.955  13.202   0.462
49999W        W22413   6.241  35.023   1.854
50000W        W22414  12.630  43.919  13.827
50001W        W22415  14.660  20.524  11.541
50002W        W22416   2.963  25.607  13.939
50003W        W22417  23.514  33.524  12.867
50004W        W22418  43.795  16.708   1.849
50005W        W22419  15.301  25.197  10.894
50006W        W22420  13.144  34.373  14.482
50007W        W22421   1.356  35.602  13.046
50008W        W22422   5.807  38.975   2.745
50009W        W22423  36.378  39.492   4.759
50010W        W22424  34.427  16.587   1.226
50011W        W22425  28.442  32.999   3.256
50012W        W22426  37.021  42.366   3.229
50013W        W22427  11.806  41.453  14.369
50014W        W22428  17.113  12.333  11.507
50015W        W22429  36.476  41.408  12.083
50016W        W22430  20.078  21.181  10.022
50017W        W22431  10.281  44.498   4.769
50018W        W22432  39.986   1.916  13.950
50019W        W22433  32.956  27.569   3.750
50020W        W22434  10.811  32.988   0.941
50021W        W22435   0.391  37.002   2.270
50022W        W22436  10.183  25.648  14.303
50023W        W22437  43.003   0.804  14.896
50024W        W22438   0.870  14.811  10.588
50025W        W22439  19.715  34.037  11.547
50026W        W22440  37.848  32.438   5.287
50027W        W22441  15.325  44.367   1.926
50028W        W22442   4.938  35.884   3.231
50029W        W22443  29.100   9.314   4.654
50030W        W22444  43.928   7.868   4.838
50031W        W22445   7.211   0.848   0.824
50032W        W22446  32.048  12.269  13.408
50033W        W22447  36.562   4.273   4.658
50034W        W22448  15.199  13.310  10.926
50035W        W22449  14.172   3.411  11.404
50036W        W22450  25.200   5.819  11.925
50037W        W22451   8.183  21.057   0.818
50038W        W22452  43.842   1.941  10.426
50039W        W22453  29.659  20.641  11.079
50040W        W22454  15.718  31.142   1.921
50041W        W22455  30.037  33.499   2.865
50042W        W22456  14.802   6.271  10.159
50043W        W22457   0.822  37.033  14.026
50044W        W22458  29.454  38.885  11.484
50045W        W22459   1.408  24.052   1.393
50046W        W22460   4.306  33.619  12.421
50047W        W22461  13.297  18.168  13.053
50048W        W22462  36.844  19.056   4.260
50049W        W22463   0.311  24.591  14.767
50050W        W22464  25.968  35.914  14.981
50051W        W22465  13.646  32.635  12.483
50052W        W22466  26.185  37.840  12.358
50053W        W22467  28.124  15.261   1.731
50054W        W22468  17.777   0.823  10.479
50055W        W22469  15.247  14.331  14.940
50056W        W22470  19.584  17.786  12.838
50057W        W22471  30.956  22.504   3.267
50058W        W22472   7.758  36.380  11.895
50059W        W22473  22.596   1.775   0.799
50060W        W22474  15.604  30.023  13.986
50061W        W22475  38.536  19.538   2.393
50062W        W22476  38.832   6.222  14.307
50063W        W22477  12.668  28.440  12.026
50064W        W22478  19.753  21.698   0.909
50065W        W22479  18.162  12.315  11.494
50066W        W22480  27.055  21.167   1.917
50067W        W22481   9.844  38.979  14.012
50068W        W22482  10.327   6.367  14.803
50069W        W22483  11.359  21.609  12.386
50070W        W22484   1.368   0.948   3.192
50071W        W22485   3.219   0.263  11.930
50072W        W22486   5.889  33.070   2.753
50073W        W22487  18.099  37.947  13.450
50074W        W22488   9.691   3.759  14.870
50075W        W22489  26.112  19.041  11.095
50076W        W22490  23.508  17.134   0.905
50077W        W22491  38.398  18.609   3.681
50078W        W22492  25.677  22.050   0.450
50079W        W22493   6.282  10.382  10.607
50080W        W22494  39.379   3.217   1.384
50081W        W22495  35.096  21.732   3.316
50082W        W22496  19.699  24.156   2.716
50083W        W22497  22.124  40.303  11.412
50084W        W22498  39.935  33.911  14.856
50085W        W22499   9.697  28.504  12.828
50086W        W22500  15.738  35.393   3.711
50087W        W22501  19.755  24.648   4.834
50088W        W22502  10.676  41.436  13.369
50089W        W22503  40.873   4.908  10.588
50090W        W22504   1.911  27.460   0.843
50091W        W22505  10.711   7.894   0.423
50092W        W22506  43.400  29.531   1.851
50093W        W22507  11.273  17.588   4.720
50094W        W22508  18.151  12.130   0.814
50095W        W22509   8.899  21.237  13.854
50096W        W22510  24.590  33.449   4.685
50097W        W22511  12.204  13.643  13.983
50098W        W22512  27.153  12.707   3.703
50099W        W22513  41.858  42.422   1.431
50100W        W22514  37.951  18.628  14.795
50101W        W22515  26.035  13.741   2.332
50102W        W22516  39.046  33.616  12.843
50103W        W22517  26.187  23.521  11.973
50104W        W22518  31.071  12.723  10.621
50105W        W22519  44.469   6.235  12.037
50106W        W22520  23.569   8.298   0.400
50107W        W22521  20.191  43.824  14.767
50108W        W22522  35.881   1.819   3.724
50109W        W22523  29.623  26.681  10.966
50110W        W22524  23.700  26.107  14.938
50111W        W22525   9.319  26.965   1.780
50112W        W22526  44.384   3.918  10.952
50113W        W22527  33.406  23.547   9.517
50114W        W22528  18.656  12.745  11.584
50115W        W22529  42.370  35.855   2.183
50116W        W22530  44.481  39.818   0.744
50117W        W22531   1.451  30.456  11.888
50118W        W22532   8.840  26.128   1.770
50119W        W22533   0.773  23.165   3.305
50120W        W22534   2.444  24.196   5.213
50121W        W22535  14.143  31.005   3.735
50122W        W22536  38.836  32.059  10.990
50123W        W22537  38.418  27.502  12.355
50124W        W22538  30.011  12.335  12.536
50125W        W22539  32.491  22.653  14.492
50126W        W22540  11.667  31.424  14.433
50127W        W22541  11.808  35.603  10.980
50128W        W22542  31.416  34.091  11.954
50129W        W22543   9.333  16.666  12.568
50130W        W22544  32.088  32.573  10.931
50131W        W22545  31.939  31.604  13.528
50132W        W22546  12.151  14.119   1.880
50133W        W22547  28.042  25.706  12.472
50134W        W22548   1.973  31.440   1.905
50135W        W22549  21.241  32.946   2.300
50136W        W22550   5.215  24.593   4.787
50137W        W22551  23.576  34.089  10.425
50138W        W22552   8.232  13.201   2.330
50139W        W22553  36.993  33.020   4.303
50140W        W22554  42.804  34.975   2.677
50141W        W22555   6.297  25.509   2.400
50142W        W22556  22.222  18.213  11.473
50143W        W22557  19.124  36.929   4.260
50144W        W22558   7.757  19.719  10.010
50145W        W22559  16.619  18.240   0.328
50146W        W22560  22.157  22.073  13.039
50147W        W22561  10.749  26.537  14.005
50148W        W22562  20.084  14.678   2.367
50149W        W22563  30.451   8.394  11.512
50150W        W22564  25.622  33.530   1.878
50151W        W22565  23.696  34.951   2.375
50152W        W22566  16.626   5.366   2.744
50153W        W22567  35.974  14.295  13.307
50154W        W22568   5.385  39.422   3.783
50155W        W22569  25.708  44.428  13.034
50156W        W22570  29.160   3.337   3.794
50157W        W22571   3.255  34.913   3.702
50158W        W22572  21.139  24.632   0.744
50159W        W22573  27.470  39.907   0.965
50160W        W22574  22.135  29.458   1.852
50161W        W22575  15.098  36.085  14.839
50162W        W22576  29.125  27.586  13.486
50163W        W22577  15.620  43.998  14.811
50164W        W22578   5.783  28.011  11.091
50165W        W22579  14.153  29.162  11.509
50166W        W22580  23.693  17.596   3.174
50167W        W22581  33.925  25.537   0.890
50168W        W22582  17.657  24.619  14.454
50169W        W22583  15.088  15.604   1.401
50170W        W22584  13.126  32.594   2.859
50171W        W22585  40.519   0.324   1.907
50172W        W22586   8.388  42.782  13.461
50173W        W22587  35.494  42.908   2.738
50174W        W22588  33.131   6.867  11.604
50175W        W22589  12.241  24.531   3.746
50176W        W22590   1.409  34.075   2.400
50177W        W22591  26.957  37.994  11.995
50178W        W22592  39.437  39.013  11.411
50179W        W22593  16.751  38.445   1.737
50180W        W22594  34.554  29.080  14.311
50181W        W22595  44.796  20.224   4.339
50182W        W22596  18.556  41.007   0.381
50183W        W22597  33.515  30.119   2.752
50184W        W22598  23.092  25.104   0.777
50185W        W22599  41.464   9.348   3.771
50186W        W22600  17.690   4.820   3.724
50187W        W22601  23.231  21.686   3.742
50188W        W22602  20.635  43.311  12.454
50189W        W22603  15.277  19.088   3.657
50190W        W22604   3.413   5.428   1.788
50191W        W22605  24.575  14.291  12.485
50192W        W22606  33.102   4.886  13.379
50193W        W22607   4.389   7.731  11.072
50194W        W22608  38.894   2.326   2.674
50195W        W22609  27.085  32.628  11.473
50196W        W22610  43.817  15.103  14.976
50197W        W22611  27.153  38.853   4.813
50198W        W22612   9.163  24.051  14.461
50199W        W22613  38.891  17.278  12.912
50200W        W22614  17.602   6.747  14.417
50201W        W22615   1.746  11.259   4.673
50202W        W22616  40.327  25.477   2.184
50203W        W22617  17.284  29.530   2.825
50204W        W22618   4.295  31.962   4.197
50205W        W22619   0.781  15.248   4.702
50206W        W22620  20.187  36.499  11.878
50207W        W22621  27.471   7.817   2.682
50208W        W22622  41.009   4.837   0.829
50209W        W22623   8.302  42.363  13.535
50210W        W22624  26.029  24.711  10.940
50211W        W22625  17.770   0.929  12.046
50212W        W22626  14.758  11.183   0.292
50213W        W22627  39.344  28.460   2.271
50214W        W22628   9.313  33.887  13.511
50215W        W22629   1.374  29.598  10.409
50216W        W22630  23.104  18.285   9.582
50217W        W22631  31.954  44.002  14.980
50218W        W22632  15.132  29.506   2.674
50219W        W22633  35.563  39.944   1.863
50220W        W22634  36.545  23.626   3.247
50221W        W22635   9.706  15.118   3.857
50222W        W22636   8.681  17.271  14.473
50223W        W22637  37.990  17.183   0.819
50224W        W22638   5.856  27.620   1.720
50225W        W22639   7.766   7.714  13.062
50226W        W22640  38.515   2.923  10.453
50227W        W22641  23.121  38.865  12.903
50228W        W22642  14.278  44.303   0.748
50229W        W22643  26.608  28.565   1.312
50230W        W22644   9.312  18.112  13.039
50231W        W22645  39.934  22.651  14.760
50232W        W22646   2.753  30.589   0.726
50233W        W22647   7.174  25.490  14.415
50234W        W22648  16.229   4.234   0.245
50235W        W22649  11.833   2.837   4.182
50236W        W22650  22.238  25.517  12.473
50237W        W22651  10.337   3.362  12.826
50238W        W22652   9.650  24.022  13.973
50239W        W22653  29.042  18.079  12.559
50240W        W22654  15.181  37.950   2.848
50241W        W22655  40.535  11.628   5.239
50242W        W22656  31.136  23.019   1.257
50243W        W22657   6.234   9.852  10.419
50244W        W22658  13.276  13.716  13.021
50245W        W22659  27.047   5.699  12.456
50246W        W22660   2.273  25.145   5.261
50247W        W22661  32.406   2.353   0.748
50248W        W22662   9.677  16.095  14.417
50249W        W22663   0.431  20.579   3.841
50250W        W22664   7.718  25.131  12.491
50251W        W22665  31.086  22.736  11.539
50252W        W22666  40.406  35.055  13.033
50253W        W22667  33.053  25.203  11.890
50254W        W22668  16.749  18.260  11.548
50255W        W22669   6.264  36.392   1.832
50256W        W22670  28.538  10.872  12.870
50257W        W22671   0.810  14.774   3.792
50258W        W22672  43.916   9.644   0.401
50259W        W22673   4.927  16.804   3.149
50260W        W22674  26.966   8.341   0.397
50261W        W22675   8.225  33.550   0.438
50262W        W22676   6.253  24.107   3.825
50263W        W22677  10.326  30.004  13.428
50264W        W22678  20.569  33.029  11.014
50265W        W22679  31.088  23.579  12.974
50266W        W22680   8.778  33.919  12.997
50267W        W22681  13.308  35.430  14.276
50268W        W22682  25.711  43.894   2.224
50269W        W22683   0.828  26.670  12.549
50270W        W22684  37.966  13.824   0.434
50271W        W22685   7.401  28.591   3.807
50272W        W22686  35.878  20.653  10.451
50273W        W22687  15.753   5.694  13.009
50274W        W22688  30.445  15.202  14.784
50275W        W22689  38.028  31.116  13.981
50276W        W22690   9.868   6.309   4.261
50277W        W22691   0.312  10.327   4.759
50278W        W22692  10.768  29.172  13.515
50279W        W22693  24.674   8.660   2.263
50280W        W22694  19.729   3.297   4.816
50281W        W22695   0.887   2.389   1.224
50282W        W22696  33.037   6.282   3.758
50283W        W22697  16.671  16.104   1.733
50284W        W22698  24.004  32.941   2.745
50285W        W22699  16.698  10.222   3.284
50286W        W22700   4.411  21.173  12.468
50287W        W22701  25.467  28.161  10.089
50288W        W22702  17.719  11.627  13.850
50289W        W22703  25.549  32.943  11.558
50290W        W22704   2.330  43.963  10.543
50291W        W22705  34.525  39.010  11.021
50292W        W22706  40.952  23.207   2.239
50293W        W22707   9.822   9.697   0.855
50294W        W22708  10.289  34.485   0.772
50295W        W22709   5.370  31.042   3.633
50296W        W22710  19.691  29.163   0.965
50297W        W22711   1.817  36.847   3.168
50298W        W22712  34.005  21.262  12.031
50299W        W22713  23.566  38.538  12.387
50300W        W22714  32.447  12.823  10.902
50301W        W22715   6.355  18.562  13.882
50302W        W22716  34.871  23.640   1.380
50303W        W22717   7.839   6.234  14.792
50304W        W22718  37.071   4.326  12.436
50305W        W22719  28.674  30.541   2.227
50306W        W22720  28.471  26.974  11.399
50307W        W22721  20.576  14.645  13.421
50308W        W22722  38.940   8.779   1.413
50309W        W22723  12.313  37.545  14.977
50310W        W22724  42.320  28.608   3.170
50311W        W22725  10.309   8.170  14.028
50312W        W22726  32.554  10.789   4.203
50313W        W22727  29.575   0.984  13.014
50314W        W22728  19.205   5.306  11.534
50315W        W22729  24.104  16.216   3.639
50316W        W22730   0.469  12.808  11.975
50317W        W22731   5.328  38.074   2.713
50318W        W22732  17.700  35.890  14.827
50319W        W22733  35.098  22.021   3.197
50320W        W22734  26.660  19.141   2.889
50321W        W22735  38.407  31.436  14.812
50322W        W22736  22.061  33.922  11.952
50323W        W22737  34.026  37.980  12.382
50324W        W22738  44.292  21.038  11.532
50325W        W22739  11.637  18.550   0.815
50326W        W22740  26.082  20.657   4.690
50327W        W22741  43.468   1.930   5.275
50328W        W22742  16.643  12.303  13.356
50329W        W22743  15.807  27.111  13.318
50330W        W22744  25.182   3.448  12.555
50331W        W22745   7.368   2.434   4.275
50332W        W22746  34.503  10.353   2.678
50333W        W22747  15.090  42.854  12.577
50334W        W22748  37.031   1.955   2.184
50335W        W22749  30.544  39.396  11.373
50336W        W22750  14.807  17.695   2.784
50337W        W22751   8.760  15.222  12.417
50338W        W22752  35.436  44.942   4.808
50339W        W22753  32.932   5.864  14.317
50340W        W22754  26.622  42.315   1.305
50341W        W22755  32.127  33.024   1.399
50342W        W22756  21.686  31.115  14.342
50343W        W22757  33.453  18.738   5.248
50344W        W22758  43.889  16.651   3.687
50345W        W22759  34.540  10.757   0.334
50346W        W22760  43.490   5.370   4.295
50347W        W22761   3.320  16.589   0.812
50348W        W22762  21.109   0.782   3.311
50349W        W22763  12.643   8.690  10.929
50350W        W22764  35.967  37.432   1.360
50351W        W22765  31.600  27.657   1.248
50352W        W22766  39.009  17.196   2.345
50353W        W22767  11.237  39.494   2.864
50354W        W22768  42.477  19.712  11.042
50355W        W22769  41.840   1.271  10.917
50356W        W22770  13.646   5.923  11.991
50357W        W22771  31.011  43.991   3.679
50358W        W22772   9.768  25.634  10.964
50359W        W22773  10.201   5.225  10.456
50360W        W22774  42.417  26.080   0.454
50361W        W22775  17.304  12.815  11.472
50362W        W22776  15.819  35.558  12.381
50363W        W22777   6.760   3.773  11.512
50364W        W22778  17.257  43.983   4.678
50365W        W22779  25.046  43.827  12.569
50366W        W22780  24.090   6.824   3.360
50367W        W22781   6.913  27.956  12.886
50368W        W22782  21.607  41.319   4.154
50369W        W22783   4.907  43.998  12.889
50370W        W22784  17.743  37.345  12.854
50371W        W22785  14.313  35.383  11.871
50372W        W22786  24.017  44.418   1.235
50373W        W22787  34.938  21.160   2.262
50374W        W22788  18.782   3.827   1.409
50375W        W22789  44.351  11.812  13.898
50376W        W22790  16.256  15.649  13.839
50377W        W22791  10.854  17.639   1.271
50378W        W22792  29.625   2.245   2.178
50379W        W22793   6.303  15.644   5.115
50380W        W22794  42.976  43.471   4.224
50381W        W22795  10.342  36.927   1.924
50382W        W22796   6.273   7.253   4.134
50383W        W22797  31.018  17.801  11.984
50384W        W22798  31.552  29.454  13.463
50385W        W22799  24.988  40.309  11.872
50386W        W22800  37.892  44.934  11.905
50387W        W22801  44.396  16.203  14.887
50388W        W22802  31.545   7.224  10.612
50389W        W22803  41.989   3.758  10.465
50390W        W22804  32.553  29.952  14.309
50391W        W22805   1.434  12.615   3.371
50392W        W22806   8.228  17.612  14.855
50393W        W22807  20.694  14.306  13.497
50394W        W22808  27.590  10.640   1.249
50395W        W22809   8.802  33.935   3.242
50396W        W22810   9.208  32.000   1.314
50397W        W22811  26.137  21.534  14.475
50398W        W22812  15.618  38.940  13.015
50399W        W22813  18.601  30.525   0.780
50400W        W22814  33.590  27.465  11.403
50401W        W22815   8.226  24.584  10.508
50402W        W22816  29.022  12.774  12.412
50403W        W22817   6.834  42.309  13.806
50404W        W22818  34.465  28.135  14.385
50405W        W22819  44.980  26.173   1.754
50406W        W22820  16.676   6.324  10.471
50407W        W22821  29.604  40.888   3.279
50408W        W22822  23.700  24.041  11.981
50409W        W22823  41.422  25.468  12.965
50410W        W22824  31.562  16.205  12.904
50411W        W22825  35.898  33.500   1.869
50412W        W22826  16.763   7.727  12.532
50413W        W22827  31.919  31.481   2.880
50414W        W22828  21.243  40.840   1.384
50415W        W22829   2.811  14.129   2.756
50416W        W22830  27.042  31.056  11.951
50417W        W22831  22.187  10.322  11.117
50418W        W22832  44.003   4.724  13.974
50419W        W22833   8.860  14.236   5.321
50420W        W22834  13.287  15.146  14.805
50421W        W22835  38.070  32.568   3.379
50422W        W22836   4.709  25.035   2.782
50423W        W22837   9.713  19.250   2.827
50424W        W22838   0.824  40.023   0.821
50425W        W22839  21.611  15.630  14.460
50426W        W22840   1.449  10.788  13.498
50427W        W22841  40.503  23.179   4.127
50428W        W22842  39.507   7.202   0.431
50429W        W22843   8.186  42.308   1.247
50430W        W22844   6.347   3.842  11.116
50431W        W22845  12.278  13.663   4.748
50432W        W22846   4.917  32.134  11.564
50433W        W22847  24.218  29.612   2.745
50434W        W22848  37.487  39.908   2.394
50435W        W22849  10.729  13.707   0.347
50436W        W22850  22.233  35.032   4.725
50437W        W22851  19.637   8.744   1.807
50438W        W22852  16.686  40.540   2.855
50439W        W22853  11.148  19.081  12.831
50440W        W22854  12.610  12.795  10.889
50441W        W22855  20.644  12.223  13.544
50442W        W22856   9.326  16.783  13.835
50443W        W22857   9.327  13.762  14.334
50444W        W22858  19.723  44.920   0.435
50445W        W22859  36.034   6.245   3.308
50446W        W22860   1.344  41.932   0.381
50447W        W22861   8.800  12.784   2.240
50448W        W22862  36.548  28.012  11.425
50449W        W22863  28.613  40.974  12.910
50450W        W22864  13.690  12.257  11.447
50451W        W22865  13.200   1.883   1.815
50452W        W22866   4.407   7.381  13.029
50453W        W22867  19.093  17.209   2.305
50454W        W22868  11.280  39.982   2.209
50455W        W22869  39.372   3.347  11.475
50456W        W22870   4.883  29.448   2.663
50457W        W22871  13.111  20.633  10.505
50458W        W22872  44.004  19.150   3.639
50459W        W22873  13.283  35.006  11.876
50460W        W22874   7.323  33.000   2.705
50461W        W22875  12.854   1.943  13.980
50462W        W22876   2.293  42.474   4.653
50463W        W22877  16.783   0.824   1.909
50464W        W22878  22.244  27.491  12.073
50465W        W22879  39.830  40.002  11.582
50466W        W22880  39.343  44.489   2.352
50467W        W22881  31.466  37.471   1.830
50468W        W22882  23.686  32.597   1.811
50469W        W22883   9.747   3.915   0.773
50470W        W22884  26.070  11.158  11.380
50471W        W22885  42.890  13.795  11.977
50472W        W22886  28.652  35.923   0.427
50473W        W22887  20.561  25.083  13.051
50474W        W22888  27.652  37.882   4.685
50475W        W22889  30.950  24.021  10.586
50476W        W22890  17.255  12.752  14.856
50477W        W22891  26.551  21.063  10.011
50478W        W22892  23.724   5.931  11.046
50479W        W22893   5.208  34.373   3.277
50480W        W22894  12.681   1.769   3.757
50481W        W22895  36.409  25.527  14.331
50482W        W22896  33.476   4.888   0.924
50483W        W22897  17.772   8.860  12.006
50484W        W22898  31.570  17.577  12.930
50485W        W22899  42.305  10.651   2.231
50486W        W22900   9.250  40.416   3.339
50487W        W22901   5.382  24.003  14.306
50488W        W22902   0.797  11.744   3.706
50489W        W22903   1.898  29.427  11.114
50490W        W22904   9.184  13.620   3.203
50491W        W22905  26.164   1.875  13.308
50492W        W22906   0.378   8.843   4.265
50493W        W22907  11.762  17.153  11.482
50494W        W22908  33.062   8.402  12.378
50495W        W22909  12.757  20.698  13.973
50496W        W22910   9.679  36.426  14.846
50497W        W22911  40.359  38.474  11.466
50498W        W22912  39.829  16.272   2.717
50499W        W22913  30.075  26.101   4.625
50500W        W22914   5.911  32.443  10.456
50501W        W22915   5.284  36.848   4.236
50502W        W22916  11.863  44.968   0.886
50503W        W22917  27.640  25.091  14.872
50504W        W22918   5.310   4.752  12.516
50505W        W22919  37.889  33.073  14.334
50506W        W22920  31.975  36.006   1.820
50507W        W22921  24.490  43.451   3.811
50508W        W22922  20.685  41.842   0.747
50509W        W22923  24.093  23.669   1.240
50510W        W22924  16.250  44.401   1.216
50511W        W22925  29.577   2.311   1.737
50512W        W22926  37.379  36.396  10.489
50513W        W22927  11.706  24.596  14.906
50514W        W22928  27.621   7.859   4.806
50515W        W22929  38.075  16.791  11.378
50516W        W22930   8.813  35.894   1.785
50517W        W22931  23.133  33.020  14.798
50518W        W22932  38.520  41.318  11.042
50519W        W22933  42.872  38.025   1.219
50520W        W22934   5.843  37.549  12.931
50521W        W22935  36.979  30.113  11.121
50522W        W22936  25.602  20.558  11.879
50523W        W22937  25.616  29.588   4.202
50524W        W22938  29.490  11.822   1.925
50525W        W22939   0.274  35.009  11.128
50526W        W22940  32.423  28.617  12.481
50527W        W22941  33.492   1.308   3.728
50528W        W22942  35.492  30.986  10.530
50529W        W22943  13.135  19.249   1.725
50530W        W22944  22.051  39.997   0.340
50531W        W22945  22.654  15.186   0.413
50532W        W22946   7.883  28.054   1.369
50533W        W22947   2.816   9.366   2.796
50534W        W22948   3.721  43.916   2.861
50535W        W22949  29.994   9.828   2.190
50536W        W22950  12.197  19.780  11.085
50537W        W22951  39.935   4.926   1.387
50538W        W22952   8.240  29.606  13.818
50539W        W22953  34.875  39.967  12.002
50540W        W22954   7.793   7.909   4.667
50541W        W22955   2.466  28.058  12.907
50542W        W22956  27.159  30.999   3.247
50543W        W22957  37.834  29.958  13.911
50544W        W22958  22.563  37.453  10.092
50545W        W22959  43.435  24.189   1.399
50546W        W22960  27.972  44.295   2.240
50547W        W22961   0.420  23.726   4.287
50548W        W22962  23.013   0.421  11.527
50549W        W22963   0.795  29.618   5.129
50550W        W22964  42.911  38.849  10.592
50551W        W22965   4.362  10.175   2.397
50552W        W22966  24.645  24.060   1.915
50553W        W22967  43.339  15.268   3.333
50554W        W22968  22.124  37.578   4.248
50555W        W22969  16.672  40.877  14.807
50556W        W22970  12.189  23.657   2.808
50557W        W22971  12.764  41.925   0.821
50558W        W22972  22.139  23.039  11.393
50559W        W22973   6.702  21.585   1.878
50560W        W22974   8.794  30.658   1.909
50561W        W22975  18.242  25.641   4.267
50562W        W22976  40.922  27.499   4.125
50563W        W22977  17.103  23.214   1.923
50564W        W22978  22.652   9.693  14.449
50565W        W22979   3.242   5.269   3.242
50566W        W22980  28.555   8.691   0.454
50567W        W22981   3.866   5.860  12.890
50568W        W22982  16.663  43.441  12.443
50569W        W22983  12.688   9.205  10.433
50570W        W22984  40.902  20.262   1.918
50571W        W22985  21.249  30.949  14.007
50572W        W22986  37.419  35.564  12.426
50573W        W22987   1.904  27.171   3.810
50574W        W22988  41.501  32.009  11.491
50575W        W22989  20.701   7.298   2.232
50576W        W22990  29.598  42.369   2.333
50577W        W22991  27.999  34.530   1.798
50578W        W22992  28.050  23.125   2.894
50579W        W22993   8.225  16.802  10.500
50580W        W22994   7.797   7.826  11.022
50581W        W22995  29.513   0.811  10.462
50582W        W22996  20.527  14.689   2.868
50583W        W22997  14.188  28.184   2.732
50584W        W22998  36.435  35.972  14.018
50585W        W22999  28.639  39.010  13.805
50586W        W23000  42.307  40.986   0.261
50587W        W23001  18.056   2.315  11.542
50588W        W23002  26.023  35.495  11.470
50589W        W23003  11.694  39.346   0.737
50590W        W23004   4.834  44.892   4.275
50591W        W23005   4.239  26.030  14.281
50592W        W23006   5.912  31.060  12.001
50593W        W23007  22.144  32.538  10.552
50594W        W23008  43.965  41.351   0.427
50595W        W23009   4.733  24.170  14.931
50596W        W23010  35.602   1.263  12.416
50597W        W23011  41.859   6.919  12.823
50598W        W23012  22.508   3.895  12.421
50599W        W23013  35.093  18.784  12.832
50600W        W23014  11.797  22.142  11.043
50601W        W23015  44.437  24.219   1.870
50602W        W23016   0.254   6.823   1.830
50603W        W23017  29.542  44.775  10.494
50604W        W23018   6.384  22.645  12.490
50605W        W23019  13.339  36.470  14.502
50606W        W23020   8.211  29.013  11.567
50607W        W23021  25.500  11.737   3.178
50608W        W23022  13.328   6.896  13.963
50609W        W23023  43.923   6.830  10.410
50610W        W23024   3.842   1.263   0.389
50611W        W23025  23.136  18.073   2.331
50612W        W23026  27.103  10.312  14.307
50613W        W23027   4.442   3.863  14.769
50614W        W23028  29.541  20.639   2.287
50615W        W23029  11.726   9.884   0.440
50616W        W23030   4.360  31.464  10.503
50617W        W23031  23.160  21.060   2.794
50618W        W23032  21.089  34.907  14.300
50619W        W23033  17.302  31.108  13.967
50620W        W23034  39.842  24.512  13.858
50621W        W23035   2.857  12.322   4.322
50622W        W23036  23.561  11.700   1.706
50623W        W23037  34.458  43.425  13.031
50624W        W23038   0.947  44.996  10.955
50625W        W23039   1.838  33.592  13.897
50626W        W23040  19.088  27.642   2.701
50627W        W23041  36.898   3.876   0.296
50628W        W23042  24.110  14.816  13.892
50629W        W23043  26.656  26.052  14.775
50630W        W23044  41.981  42.007  13.024
50631W        W23045  29.564   6.263   9.950
50632W        W23046  39.351   3.805  14.923
50633W        W23047  44.915  20.558  11.380
50634W        W23048   6.836   5.776  14.778
50635W        W23049  19.655  27.645  11.547
50636W        W23050  31.509  25.137  12.495
50637W        W23051  28.621  43.367  11.609
50638W        W23052  44.467  21.708  13.802
50639W        W23053  17.305  35.075  14.301
50640W        W23054  15.235  42.031  12.966
50641W        W23055  15.257   1.431  13.455
50642W        W23056  18.670   3.830  13.016
50643W        W23057  31.044  27.007   1.244
50644W        W23058  11.634  34.978  10.573
50645W        W23059  41.440   9.378  10.591
50646W        W23060  16.255  13.716  13.904
50647W        W23061  40.357  35.991   1.740
50648W        W23062  43.015  32.401  11.529
50649W        W23063  14.244   3.859   4.348
50650W        W23064  19.078  29.956   3.350
50651W        W23065  17.249  24.997   9.964
50652W        W23066  18.263  35.460   4.341
50653W        W23067  18.137  35.405  10.964
50654W        W23068  27.562  30.474   2.874
50655W        W23069  40.357  13.330   0.840
50656W        W23070  25.976  31.961  12.459
50657W        W23071  16.768   3.956   4.602
50658W        W23072  12.610  43.342   2.215
50659W        W23073  25.130  34.502   0.249
50660W        W23074   3.406  30.515  11.127
50661W        W23075  39.556   6.726  12.870
50662W        W23076  32.130  34.093   0.320
50663W        W23077  18.733   7.397  12.566
50664W        W23078  32.518  13.648   3.245
50665W        W23079   2.927  36.951  11.927
50666W        W23080  24.606  20.656  10.986
50667W        W23081   9.311  24.567   0.458
50668W        W23082  12.626  38.926  12.094
50669W        W23083  19.571  11.648  11.525
50670W        W23084  42.407   4.438   0.298
50671W        W23085   7.292   1.894  13.839
50672W        W23086   5.215   4.707  10.530
50673W        W23087   1.395   9.308  12.433
50674W        W23088   1.337  43.911  11.423
50675W        W23089   3.807  21.248  13.518
50676W        W23090   6.846  27.492  10.594
50677W        W23091  35.946  28.105   3.209
50678W        W23092  23.679   8.192  10.520
50679W        W23093  18.563  43.461  10.015
50680W        W23094  36.948  34.489   3.660
50681W        W23095  36.401  27.594   1.232
50682W        W23096   3.374  23.502   4.641
50683W        W23097  26.628   0.385  14.953
50684W        W23098  24.481  12.740  13.805
50685W        W23099  18.770  37.402  12.405
50686W        W23100  15.749  38.451  13.951
50687W        W23101   9.293  28.502  10.983
50688W        W23102  44.902  22.114   0.410
50689W        W23103  40.316  15.752  12.349
50690W        W23104  21.627  13.668   1.806
50691W        W23105  33.994  37.082  10.946
50692W        W23106  20.758  23.539   3.171
50693W        W23107  19.668  22.722  11.484
50694W        W23108  29.113  36.507  11.869
50695W        W23109  20.125  33.401  14.859
50696W        W23110  33.035  44.329   2.668
50697W        W23111  43.319  41.812   4.297
50698W        W23112  23.716   7.826   4.736
50699W        W23113  38.325  11.139   3.320
50700W        W23114   9.702  34.926   4.295
50701W        W23115  40.397  32.958  10.577
50702W        W23116  15.749   0.962   4.743
50703W        W23117   8.225  12.699  10.945
50704W        W23118  21.588  20.623   2.207
50705W        W23119  13.683   4.893   1.817
50706W        W23120  29.991  26.161   0.254
50707W        W23121  24.695  44.387  11.025
50708W        W23122  41.926  32.447  13.466
50709W        W23123  43.424   9.172  13.427
50710W        W23124  26.111  16.222  12.944
50711W        W23125  34.386  33.009   2.289
50712W        W23126  19.709  44.851  12.983
50713W        W23127  21.711  23.726  13.861
50714W        W23128   6.410  13.819   0.901
50715W        W23129  26.458   1.347  12.939
50716W        W23130  18.086  13.612  14.972
50717W        W23131  30.992  26.180   2.225
50718W        W23132  33.460  31.643   3.166
50719W        W23133  11.772  14.170  14.838
50720W        W23134  38.373  23.563  10.618
50721W        W23135  25.504  37.564  10.028
50722W        W23136   8.347  41.883   2.250
50723W        W23137  20.184   5.375  13.001
50724W        W23138  21.668  41.915  11.032
50725W        W23139  22.607  44.763  13.509
50726W        W23140  14.628   8.388   5.224
50727W        W23141  31.426  14.817  12.939
50728W        W23142  44.386   1.300   3.214
50729W        W23143   5.902   8.352  13.953
50730W        W23144  10.349  23.693   0.925
50731W        W23145   8.328  14.111   3.826
50732W        W23146  17.596  23.511   2.709
50733W        W23147  32.418  32.017  13.525
50734W        W23148  14.252   3.426   0.351
50735W        W23149  25.074  14.601  11.549
50736W        W23150  19.044   3.826   2.842
50737W        W23151  33.896  16.802   1.778
50738W        W23152  38.325   6.427  11.972
50739W        W23153   7.759  26.077  11.411
50740W        W23154  17.208  31.956  10.139
50741W        W23155  36.006  10.357   4.243
50742W        W23156  28.105  21.531   2.752
50743W        W23157  18.552  24.219  10.497
50744W        W23158  17.112   3.301   5.232
50745W        W23159   0.764  25.534  14.030
50746W        W23160  22.598  25.600  14.491
50747W        W23161   2.328  36.448   3.788
50748W        W23162   0.367   5.908   2.384
50749W        W23163  12.273  21.118   4.675
50750W        W23164   3.443  15.298   0.802
50751W        W23165   5.824  16.810  12.498
50752W        W23166   1.374  34.007   1.368
50753W        W23167  22.178  30.557  10.440
50754W        W23168  38.563  12.731  10.578
50755W        W23169  15.689  24.193  14.414
50756W        W23170   4.311  12.291   0.433
50757W        W23171  33.525   6.867   3.189
50758W        W23172  43.437  44.812   2.863
50759W        W23173  38.566  20.054  14.860
50760W        W23174  11.804   5.787  14.276
50761W        W23175  11.204   2.754   0.835
50762W        W23176  42.798   5.900  14.777
50763W        W23177  18.262   7.722  12.476
50764W        W23178  24.617  36.546   3.798
50765W        W23179  22.054  14.714  11.386
50766W        W23180  21.131   7.802   2.230
50767W        W23181  19.723   2.790   3.348
50768W        W23182  40.940  43.821  10.969
50769W        W23183   0.333  35.110   4.284
50770W        W23184  40.883  40.967   4.754
50771W        W23185  20.645  15.769   1.728
50772W        W23186  16.145  20.040  14.926
50773W        W23187  24.116  30.444   0.878
50774W        W23188  44.406  40.868   3.849
50775W        W23189   4.393  25.624   1.884
50776W        W23190  12.349  24.150  13.923
50777W        W23191   1.793  30.512  13.025
50778W        W23192  18.590  20.174  11.016
50779W        W23193  33.396  39.554   3.728
50780W        W23194  22.592  41.453   1.390
50781W        W23195  41.885  34.925  12.430
50782W        W23196   6.764  28.484  14.514
50783W        W23197  36.949  13.625  10.549
50784W        W23198   8.171   8.747   0.255
50785W        W23199   9.884   1.890  10.542
50786W        W23200  23.202  21.076  11.982
50787W        W23201  39.338  34.499   4.254
50788W        W23202  11.338  25.177   3.317
50789W        W23203  10.838  36.010  11.994
50790W        W23204  17.573   1.832   4.797
50791W        W23205  39.461  23.660  12.390
50792W        W23206  23.100  44.986   2.240
50793W        W23207  10.286  28.119  14.286
50794W        W23208  37.902  19.727   5.282
50795W        W23209  16.300  29.941   0.303
50796W        W23210  17.136  26.207  11.887
50797W        W23211  17.171   9.174  14.298
50798W        W23212  36.575  39.414   2.267
50799W        W23213  16.099   0.825   0.860
50800W        W23214  30.133  39.967  12.380
50801W        W23215  17.163  27.631  12.993
50802W        W23216  22.629   4.307  10.479
50803W        W23217  40.969   8.319  14.497
50804W        W23218   5.931   8.195  11.388
50805W        W23219  32.054   3.883   1.863
50806W        W23220  43.809  26.702   2.780
50807W        W23221   5.866  41.454  14.817
50808W        W23222  23.227  16.575  13.451
50809W        W23223   5.897   9.844   2.895
50810W        W23224  41.898  14.773   3.847
50811W        W23225  37.898  37.955   3.854
50812W        W23226  43.965  31.006   4.749
50813W        W23227  16.318  20.677  14.970
50814W        W23228  10.285   8.340   4.666
50815W        W23229  36.383  42.304  11.537
50816W        W23230  40.815  28.436  10.628
50817W        W23231  44.831  31.510   4.621
50818W        W23232   3.813  28.498  13.979
50819W        W23233   7.836   6.827  14.932
50820W        W23234  21.655  34.479  11.594
50821W        W23235  26.086  23.178  10.598
50822W        W23236  31.411  18.210   0.912
50823W        W23237  17.734  22.083  14.789
50824W        W23238  17.219  20.606  11.515
50825W        W23239  26.559  42.024  11.979
50826W        W23240  36.587  44.320  12.938
50827W        W23241  40.472  14.132  10.638
50828W        W23242  20.273  22.011   3.740
50829W        W23243  22.577   2.276  14.403
50830W        W23244  44.886  29.097   4.682
50831W        W23245  30.117  23.522  14.491
50832W        W23246  37.391  23.093  14.926
50833W        W23247  30.099   2.396   4.167
50834W        W23248   4.324   1.421  13.863
50835W        W23249  17.175  33.928  14.436
50836W        W23250  16.794  34.545  13.357
50837W        W23251  25.624  10.736   4.162
50838W        W23252  32.448  39.538   2.881
50839W        W23253   4.397  25.500  13.424
50840W        W23254  38.861   2.723   4.139
50841W        W23255  22.545  20.753   0.251
50842W        W23256  21.072  27.467   2.185
50843W        W23257  15.240  21.074  14.901
50844W        W23258  35.980  33.876  10.062
50845W        W23259   2.743  38.551  12.544
50846W        W23260  16.637  18.240  13.960
50847W        W23261   6.191  17.155  14.361
50848W        W23262  36.058  17.643  12.877
50849W        W23263  12.236   3.399  13.794
50850W        W23264  19.129  28.517   3.716
50851W        W23265  21.132  28.071  13.516
50852W        W23266  10.276  24.991   3.724
50853W        W23267  22.165  22.572  10.631
50854W        W23268   1.249  10.873  11.897
50855W        W23269  21.045  33.617   5.238
50856W        W23270  25.681  37.392   2.327
50857W        W23271  27.692  24.548   4.268
50858W        W23272   6.348   3.720   1.258
50859W        W23273   5.302  29.048   1.310
50860W        W23274  26.046  16.264  11.431
50861W        W23275  39.927  29.664   2.206
50862W        W23276   5.739  33.610  13.880
50863W        W23277  24.990  36.087   4.311
50864W        W23278  19.206  31.897  11.379
50865W        W23279  29.170  32.065  12.453
50866W        W23280  44.497  24.528  11.043
50867W        W23281  41.887  17.734  14.442
50868W        W23282  40.965  23.631  12.547
50869W        W23283  24.619  12.846  14.361
50870W        W23284  25.151  20.097   3.340
50871W        W23285  40.887  43.284   4.674
50872W        W23286   3.774  31.511  11.566
50873W        W23287  16.595  18.627   3.759
50874W        W23288  21.093  40.433  13.318
50875W        W23289   8.795   0.453  10.537
50876W        W23290  10.167   9.792  12.353
50877W        W23291  12.774  33.115   2.676
50878W        W23292  26.956  21.582  12.847
50879W        W23293  35.364  31.571   1.324
50880W        W23294  14.242  38.528  14.765
50881W        W23295  36.511  15.768  10.509
50882W        W23296  11.772   6.387  11.026
50883W        W23297  21.750  38.846  14.780
50884W        W23298  38.505  27.582   0.271
50885W        W23299   5.720  36.872   0.844
50886W        W23300  11.699  28.087   9.967
50887W        W23301   6.923  13.826   2.240
50888W        W23302  19.108  29.509   4.706
50889W        W23303  17.296  39.359  10.569
50890W        W23304  19.586  18.699   1.762
50891W        W23305  29.940   8.332   2.339
50892W        W23306  36.969  15.722   0.315
50893W        W23307   0.787  14.260  12.480
50894W        W23308  25.610  20.064  13.497
50895W        W23309  29.655  35.887  13.498
50896W        W23310  44.312  24.068  10.505
50897W        W23311  37.892  34.983   4.289
50898W        W23312   3.732  16.732   4.651
50899W        W23313  35.937  26.167   0.418
50900W        W23314  24.632  32.428   4.177
50901W        W23315  39.031   4.905   2.793
50902W        W23316  17.208  13.198   3.276
50903W        W23317  35.548  36.937  11.924
50904W        W23318  38.058   9.284  13.979
50905W        W23319   5.878   2.417  12.526
50906W        W23320  32.506   2.264   2.260
50907W        W23321  36.445  22.557   1.881
50908W        W23322  24.064  13.626  14.842
50909W        W23323  21.594  18.722   1.905
50910W        W23324  28.997  25.494   4.689
50911W        W23325  35.087   8.208   2.786
50912W        W23326  25.490  13.821  10.491
50913W        W23327   1.951   6.861  12.450
50914W        W23328  14.265   8.891   1.424
50915W        W23329  36.365   2.858  12.515
50916W        W23330  36.588  42.881   1.930
50917W        W23331  23.117  39.915   0.411
50918W        W23332   7.336  23.233   2.831
50919W        W23333  25.586   4.210   3.850
50920W        W23334  18.220   3.418  13.403
50921W        W23335   2.397  39.949   4.713
50922W        W23336  26.004   3.823   2.188
50923W        W23337  36.084  28.166   0.881
50924W        W23338  16.614   0.351  11.903
50925W        W23339  11.681  14.334  11.986
50926W        W23340  37.418  33.046   0.809
50927W        W23341  37.909  38.453   0.759
50928W        W23342  44.463  19.238   2.689
50929W        W23343   1.259  15.166  12.552
50930W        W23344  18.119  21.693  14.275
50931W        W23345  18.753  25.188  12.534
50932W        W23346  15.123  33.021   4.724
50933W        W23347  34.448   5.786   1.269
50934W        W23348  25.517  23.732   3.234
50935W        W23349  27.038   4.725  10.511
50936W        W23350  22.737  36.851   3.642
50937W        W23351  11.235   0.470  11.540
50938W        W23352  22.669  40.546   5.245
50939W        W23353  44.357  26.164   1.824
50940W        W23354  31.421  16.302   1.801
50941W        W23355  19.129  36.376   0.477
50942W        W23356  31.520  14.210   3.360
50943W        W23357  36.560  34.527  10.957
50944W        W23358  39.434  13.674   0.269
50945W        W23359  25.991  36.985  11.020
50946W        W23360  24.038  33.508   1.211
50947W        W23361  24.504  17.181   3.860
50948W        W23362  12.116  11.645  11.583
50949W        W23363  26.165  19.659  12.962
50950W        W23364  44.875  14.754   3.648
50951W        W23365  42.895  28.964   1.797
50952W        W23366   2.737  23.164  10.536
50953W        W23367  43.863  21.653   0.854
50954W        W23368   5.911  37.470   5.219
50955W        W23369  17.165  34.913   5.178
50956W        W23370   0.797  38.550  14.433
50957W        W23371  11.283  25.643  12.087
50958W        W23372  14.312   6.819   0.245
50959W        W23373  41.377  27.448  14.979
50960W        W23374  24.207  20.587   4.154
50961W        W23375  27.169   3.217   3.659
50962W        W23376  40.875  29.435  10.440
50963W        W23377  27.657   3.710   4.130
50964W        W23378  20.751   3.902   4.769
50965W        W23379  33.092  25.617   1.242
50966W        W23380   4.448   8.359  13.027
50967W        W23381   5.313  42.921  10.462
50968W        W23382  28.581  12.225  10.916
50969W        W23383  21.726  19.709   3.714
50970W        W23384  31.932  23.591  13.311
50971W        W23385  34.956  37.383  14.945
50972W        W23386  14.106  11.763  10.449
50973W        W23387  26.671  40.448  11.883
50974W        W23388   4.355  13.335  12.926
50975W        W23389  31.623  44.320  12.935
50976W        W23390  41.384  43.899   4.347
50977W        W23391  19.713  27.452  13.982
50978W        W23392  14.309  12.787   1.420
50979W        W23393  21.088  25.203  10.154
50980W        W23394  30.910   0.748  11.962
50981W        W23395   9.256  13.661  11.016
50982W        W23396  15.641  26.075  11.964
50983W        W23397  40.450  34.432  12.477
50984W        W23398   9.775   5.436  13.433
50985W        W23399   4.339  20.042  13.449
50986W        W23400   4.263   6.323  11.125
50987W        W23401  23.731  30.487  13.874
50988W        W23402  21.099  37.915  14.456
50989W        W23403  33.603   3.783   3.739
50990W        W23404  31.519   1.470  13.956
50991W        W23405  33.548  13.349  14.911
50992W        W23406  41.493  12.339   0.965
50993W        W23407   2.768  27.037  14.488
50994W        W23408  28.499  35.553   3.690
50995W        W23409  16.674  28.579   3.706
50996W        W23410   0.823  18.145  11.099
50997W        W23411  22.047  15.715  10.431
50998W        W23412  18.646  38.428   1.923
50999W        W23413   1.459  43.287   0.289
51000W        W23414  42.336   8.266  11.584
51001W        W23415  22.085  21.264   4.656
51002W        W23416  15.776   6.714   3.808
51003W        W23417  24.483  24.079  11.394
51004W        W23418  40.458  19.688  14.973
51005W        W23419  18.220  28.029   0.813
51006W        W23420  36.936  11.202   0.377
51007W        W23421  36.858  44.806   1.421
51008W        W23422  25.609   2.367   2.809
51009W        W23423   4.711  26.147   5.258
51010W        W23424  24.583  38.434  11.002
51011W        W23425  37.465  13.707  14.453
51012W        W23426  33.439  15.619  13.423
51013W        W23427  14.598  36.451  13.417
51014W        W23428  35.442  26.018  12.467
51015W        W23429  32.466   7.256   4.600
51016W        W23430   6.202   2.405  10.482
51017W        W23431  26.695  20.148   2.859
51018W        W23432  42.778  28.141   3.293
51019W        W23433  43.829  31.938   4.653
51020W        W23434  23.591  31.408  12.461
51021W        W23435  17.101   7.909   0.853
51022W        W23436  24.495  10.751  12.941
51023W        W23437  28.473  31.549   0.965
51024W        W23438  28.975  25.065   3.325
51025W        W23439  43.957  34.064  11.884
51026W        W23440  28.972  10.851   0.779
51027W        W23441   5.259  19.182   0.887
51028W        W23442  29.645  23.072  13.795
51029W        W23443  11.671  11.686  11.375
51030W        W23444  44.465  33.092  13.394
51031W        W23445  17.087  30.951   4.255
51032W        W23446  24.699  34.406   3.704
51033W        W23447   2.726  36.929  10.969
51034W        W23448  44.321  37.015   1.785
51035W        W23449   4.729   5.408  12.969
51036W        W23450  34.913  20.525   5.759
51037W        W23451  23.561  22.742   1.703
51038W        W23452  20.742   4.787  10.540
51039W        W23453  38.067  18.668   1.412
51040W        W23454  33.927  42.986  14.923
51041W        W23455  13.197  29.067   5.091
51042W        W23456   8.210   8.326   3.262
51043W        W23457  34.560   2.924   1.807
51044W        W23458  27.071  15.142  13.003
51045W        W23459  21.082   3.854   3.812
51046W        W23460  22.626  11.640   4.179
51047W        W23461   9.212  21.677  10.440
51048W        W23462   4.247  11.291   3.708
51049W        W23463  41.924   0.780  14.379
51050W        W23464  44.806  17.652  14.843
51051W        W23465  38.039  20.107  12.865
51052W        W23466  38.057   0.939  11.581
51053W        W23467   1.318  38.531   1.335
51054W        W23468  31.930  17.654  12.067
51055W        W23469  13.637  17.224   0.269
51056W        W23470  22.613  44.344   3.317
51057W        W23471  31.121   5.289  14.369
51058W        W23472  38.342  33.403   3.306
51059W        W23473   7.782  41.883   4.680
51060W        W23474  28.514  33.986   4.325
51061W        W23475  15.248  13.105   0.958
51062W        W23476  39.890  24.078   2.312
51063W        W23477  33.053   9.178  13.963
51064W        W23478  27.951  21.567   4.698
51065W        W23479  23.035  15.235  12.033
51066W        W23480  21.202  28.052  12.504
51067W        W23481  16.690  35.387   1.257
51068W        W23482   6.325  24.020  12.357
51069W        W23483   6.909   6.855  10.588
51070W        W23484  44.315  20.260   2.195
51071W        W23485  41.443  38.565   0.340
51072W        W23486  27.607   4.280   2.880
51073W        W23487  36.998  34.970  11.410
51074W        W23488  27.558  16.578  11.562
51075W        W23489  29.536  38.950  14.006
51076W        W23490  39.005  29.037   4.258
51077W        W23491   2.862   6.261  13.331
51078W        W23492  27.964  22.716   4.235
51079W        W23493  27.944  19.118   2.403
51080W        W23494  38.460   6.192  11.544
51081W        W23495   6.221  37.070  14.983
51082W        W23496   8.669   3.913   4.604
51083W        W23497  23.167   1.740  11.376
51084W        W23498  16.115  44.381  12.530
51085W        W23499  11.660  16.805  12.568
51086W        W23500  35.447  23.045  12.041
51087W        W23501  25.045   7.715   0.305
51088W        W23502  42.417  21.747   2.847
51089W        W23503   2.801  26.970   3.180
51090W        W23504   4.264  14.734   2.335
51091W        W23505  44.486  27.480  13.014
51092W        W23506   6.740  16.130  12.917
51093W        W23507  10.166  10.204   5.202
51094W        W23508  29.490  13.783  12.887
51095W        W23509   1.251   3.318   3.830
51096W        W23510   9.680  23.659  11.886
51097W        W23511  13.114  24.994   4.226
51098W        W23512   9.754  44.968  14.024
51099W        W23513  20.044  32.108   3.279
51100W        W23514  39.558  44.434  12.478
51101W        W23515  43.892  35.018   4.342
51102W        W23516  19.120  16.660   4.745
51103W        W23517  17.227  36.500  13.322
51104W        W23518  13.257   9.809  12.039
51105W        W23519  25.619  18.545  10.502
51106W        W23520  34.879  29.049  12.434
51107W        W23521  42.892  42.804   5.174
51108W        W23522  39.366   8.207  10.450
51109W        W23523  34.958  42.306  13.480
51110W        W23524  44.425  12.723  14.437
51111W        W23525   8.816  43.992   0.787
51112W        W23526   2.382  28.054  11.395
51113W        W23527   7.784  14.609   2.356
51114W        W23528  19.659  18.181   3.350
51115W        W23529  26.617   3.404  13.061
51116W        W23530  31.604  38.513  13.307
51117W        W23531  40.408  28.033   0.922
51118W        W23532  20.539  25.145   4.120
51119W        W23533  26.015  34.449   0.296
51120W        W23534  26.684   6.786   2.405
51121W        W23535  15.190  35.436   4.305
51122W        W23536  14.834  35.910  14.902
51123W        W23537  44.313  38.359  12.000
51124W        W23538   6.701  16.317  10.554
51125W        W23539  37.053  43.464   3.757
51126W        W23540  37.546  35.062  14.404
51127W        W23541  24.531  39.543  11.867
51128W        W23542  24.549   6.883   1.364
51129W        W23543  16.674   4.255  12.460
51130W        W23544  35.956   4.766  10.482
51131W        W23545  15.614   9.322   1.361
51132W        W23546  13.828  40.797  11.086
51133W        W23547  32.129   7.278  11.054
51134W        W23548  23.189  19.094  12.979
51135W        W23549  41.528  35.062   0.739
51136W        W23550  27.525  35.870  13.926
51137W        W23551   7.232  22.996  13.331
51138W        W23552  20.607  34.581  10.515
51139W        W23553   5.258  44.798  13.353
51140W        W23554   7.319  12.742   2.686
51141W        W23555  38.903  42.352  12.435
51142W        W23556  20.166   5.881  10.582
51143W        W23557  31.648  32.457  10.929
51144W        W23558  43.321  44.379  14.994
51145W        W23559  22.524  23.682  10.056
51146W        W23560  37.020   3.815   1.357
51147W        W23561  33.076  41.025  11.071
51148W        W23562  32.999   9.678   3.765
51149W        W23563   2.363  29.114   2.693
51150W        W23564  14.222   2.261  13.047
51151W        W23565  29.959   8.756   3.353
51152W        W23566   2.370  16.174   3.768
51153W        W23567  38.560  36.090  13.534
51154W        W23568  36.013  23.184   0.323
51155W        W23569  24.084  40.981  13.505
51156W        W23570  17.629  14.144   2.690
51157W        W23571  36.427  40.523  12.825
51158W        W23572  26.115  12.304   2.343
51159W        W23573   0.917  13.657  12.566
51160W        W23574   0.879   7.833  11.379
51161W        W23575  17.070  14.710  11.490
51162W        W23576  18.291   1.898   0.963
51163W        W23577  34.087  34.467  10.529
51164W        W23578  19.075  41.868  13.479
51165W        W23579  11.783  38.388  13.014
51166W        W23580  23.511  15.298  11.542
51167W        W23581  14.778  25.709   2.699
51168W        W23582  31.549  25.709   3.827
51169W        W23583  33.416  39.059  13.311
51170W        W23584  39.409  43.431   0.885
51171W        W23585  15.282  32.469  12.346
51172W        W23586  43.514  25.610   3.168
51173W        W23587   6.420  37.465  14.328
51174W        W23588   5.439  40.338   1.235
51175W        W23589  16.178  37.541  11.477
51176W        W23590  22.175   9.181   4.801
51177W        W23591   0.317  37.416  11.500
51178W        W23592  17.609  10.380   2.248
51179W        W23593  11.736  37.573   9.947
51180W        W23594   5.856  13.748  10.559
51181W        W23595  42.361  12.252  12.434
51182W        W23596  38.566  23.217   0.404
51183W        W23597   5.413  43.495   0.304
51184W        W23598  12.262  25.173  10.490
51185W        W23599  30.413  27.078   0.816
51186W        W23600  38.508  33.434   2.178
51187W        W23601  15.176  15.717  14.499
51188W        W23602  14.133  22.045   4.125
51189W        W23603  17.227  25.559  11.876
51190W        W23604  24.112  31.936   4.798
51191W        W23605  13.650  42.401   2.814
51192W        W23606  21.751  29.442  12.566
51193W        W23607  18.104   8.271   1.867
51194W        W23608  10.195  19.150   2.358
51195W        W23609   0.370  22.520  13.332
51196W        W23610  12.626  35.542  14.771
51197W        W23611  37.484  33.512   4.635
51198W        W23612  18.101   1.967  11.602
51199W        W23613   7.767  16.099   1.435
51200W        W23614  34.894  16.595   3.805
51201W        W23615  40.008  31.129  11.602
51202W        W23616  29.559  31.088  13.432
51203W        W23617  24.221  27.999  10.131
51204W        W23618   8.811  14.817  10.603
51205W        W23619  29.435  24.159  12.440
51206W        W23620  34.459  22.028   4.283
51207W        W23621  18.694  34.603   0.924
51208W        W23622  28.598  32.402  11.860
51209W        W23623  18.168  33.529  12.354
51210W        W23624  42.776  23.721  14.925
51211W        W23625  37.844  36.031   1.890
51212W        W23626   9.734  24.005  11.590
51213W        W23627  14.826   6.417   0.369
51214W        W23628  40.869  25.091   0.871
51215W        W23629  40.315  11.757  12.092
51216W        W23630  36.924  31.629   4.716
51217W        W23631  19.605  26.646   5.223
51218W        W23632  40.997  31.010  10.455
51219W        W23633  10.299   7.394  10.607
51220W        W23634  25.183  20.592  11.879
51221W        W23635   2.840  29.005   1.267
51222W        W23636  37.433  22.076   0.734
51223W        W23637  34.096  31.558  10.925
51224W        W23638  39.835   1.752  14.929
51225W        W23639  28.180  11.142  12.362
51226W        W23640  19.213  17.563  10.540
51227W        W23641  17.691  20.536  11.567
51228W        W23642  43.867  27.077   2.830
51229W        W23643   3.418  34.527   1.722
51230W        W23644   1.399   1.769  11.608
51231W        W23645  18.670  42.446   2.202
51232W        W23646  37.938  26.185   3.147
51233W        W23647   2.245   7.334  13.396
51234W        W23648  25.674  43.342  14.346
51235W        W23649  21.032  15.088  10.554
51236W        W23650  25.520   0.877   4.622
51237W        W23651  44.998  40.521   3.299
51238W        W23652  38.476  40.870   2.319
51239W        W23653  31.995  14.155  13.446
51240W        W23654  15.283  17.144   1.805
51241W        W23655   6.782   1.749   3.782
51242W        W23656  33.084  35.512   0.278
51243W        W23657  24.677  13.255  13.358
51244W        W23658  12.636  15.604   0.415
51245W        W23659  44.413  25.203  11.551
51246W        W23660  23.191  39.539  12.002
51247W        W23661   2.244  43.790  13.447
51248W        W23662  39.490  17.749  11.408
51249W        W23663  33.080  11.145  13.994
51250W        W23664  29.030   7.803  14.314
51251W        W23665  24.024  33.586  11.993
51252W        W23666  17.709  31.021   1.740
51253W        W23667  40.898  13.672  12.848
51254W        W23668   4.292  20.200   1.222
51255W        W23669  10.677  23.677   4.256
51256W        W23670  22.061  25.077  14.946
51257W        W23671   0.286  43.818   0.785
51258W        W23672  44.464  22.704  14.494
51259W        W23673  10.167  37.458   1.354
51260W        W23674  42.314  39.980  12.519
51261W        W23675  19.726  13.351  13.378
51262W        W23676   2.912  21.044  13.039
51263W        W23677   1.342  42.336   1.239
51264W        W23678  25.621  21.213   0.755
51265W        W23679   5.753  13.264   3.815
51266W        W23680  41.933  36.468  13.459
51267W        W23681  32.896  43.859   0.318
51268W        W23682  37.847  19.566  10.926
51269W        W23683   4.755  44.301   5.175
51270W        W23684   0.875  19.534   3.848
51271W        W23685  23.664   9.285  12.073
51272W        W23686  44.940   3.833  10.579
51273W        W23687  44.466  12.152  11.004
51274W        W23688  42.790  22.511  11.922
51275W        W23689   7.370  15.284  10.480
51276W        W23690  14.764  14.233   1.306
51277W        W23691  15.583  40.530   0.738
51278W        W23692  14.756   8.819  11.570
51279W        W23693  32.987  36.098  11.551
51280W        W23694  34.084  31.459  12.946
51281W        W23695  21.659  17.739   2.730
51282W        W23696   7.765   2.901  12.087
51283W        W23697  29.499   1.350   2.714
51284W        W23698  44.473  12.853   3.697
51285W        W23699  16.315  13.753   0.831
51286W        W23700  29.582  10.847   2.350
51287W        W23701  44.975  44.885   1.409
51288W        W23702  17.104   3.780  14.815
51289W        W23703   9.314  35.888  11.019
51290W        W23704  32.062  36.938  12.865
51291W        W23705  25.509  22.175  10.905
51292W        W23706  25.163  34.869   2.740
51293W        W23707   9.683  32.586  14.866
51294W        W23708  37.059  32.416  10.048
51295W        W23709  14.628   7.800  14.322
51296W        W23710   1.906   8.244  14.344
51297W        W23711  30.428  13.626   0.907
51298W        W23712  13.143  38.845  10.128
51299W        W23713  22.500  18.274   2.331
51300W        W23714  35.885  11.819  10.543
51301W        W23715  16.624   3.736  12.912
51302W        W23716  17.636  44.922   1.747
51303W        W23717   7.202  24.571  12.467
51304W        W23718  33.948  22.205  12.523
51305W        W23719  19.694   6.710   1.375
51306W        W23720  16.266  27.575   3.194
51307W        W23721  35.085  42.775  12.568
51308W        W23722   4.906  40.308  11.934
51309W        W23723  26.606  11.307  14.858
51310W        W23724  32.046  38.484  10.109
51311W        W23725  36.348  30.598  11.501
51312W        W23726  31.551  10.698  11.944
51313W        W23727  33.110  29.622   3.756
51314W        W23728  38.941  44.304  13.045
51315W        W23729   1.971  11.136   0.245
51316W        W23730  15.764  27.569  12.397
51317W        W23731  13.741  38.952  14.811
51318W        W23732  23.512  37.490   1.738
51319W        W23733  37.528  40.876  12.086
51320W        W23734  29.921  11.176   2.767
51321W        W23735  18.790   8.758   4.285
51322W        W23736  34.952  43.285   2.886
51323W        W23737  10.851  36.352   0.917
51324W        W23738  23.703  17.752   9.934
51325W        W23739  13.807   5.886   9.458
51326W        W23740  21.230   5.910   1.378
51327W        W23741  24.053  36.483   0.316
51328W        W23742  21.610   3.855  14.760
51329W        W23743  26.473  14.183   4.763
51330W        W23744   6.897  13.806  12.418
51331W        W23745  40.887   0.373  11.088
51332W        W23746  24.520  12.229  13.001
51333W        W23747  32.139  13.200   2.876
51334W        W23748  41.930   5.750   0.840
51335W        W23749  37.441   0.424   3.744
51336W        W23750  33.959  11.721  14.004
51337W        W23751   1.969   1.802  11.944
51338W        W23752   8.716   0.748  11.462
51339W        W23753  30.440   5.802   2.286
51340W        W23754   8.863   4.323   2.281
51341W        W23755  31.989   6.836  13.889
51342W        W23756  24.574  20.090  14.483
51343W        W23757   8.402  19.658  13.846
51344W        W23758  24.202  12.128  11.436
51345W        W23759  12.184  27.552   2.686
51346W        W23760  20.110  16.572  13.875
51347W        W23761  35.967   7.882   2.875
51348W        W23762  17.683  37.581   5.149
51349W        W23763  30.046  30.128   1.766
51350W        W23764   4.913  40.881  14.949
51351W        W23765  32.033   9.856   2.686
51352W        W23766  40.895  21.018  10.917
51353W        W23767  22.162  30.048  13.384
51354W        W23768  33.578  40.895   4.306
51355W        W23769  30.005   1.294   4.126
51356W        W23770  23.985  11.675   4.664
51357W        W23771   7.312  43.786  11.071
51358W        W23772  24.105  25.208   2.723
51359W        W23773  42.885  13.830  14.860
51360W        W23774  18.737   4.921  14.906
51361W        W23775  39.508  11.355  14.997
51362W        W23776  30.532  31.014   3.708
51363W        W23777  31.636   9.175  14.774
51364W        W23778  39.004  14.234  10.927
51365W        W23779   2.381  24.653   3.646
51366W        W23780  42.016  27.448  12.423
51367W        W23781  10.660  27.573   3.170
51368W        W23782   1.890   5.798   3.285
51369W        W23783   6.327  24.164   3.163
51370W        W23784  24.542  12.822   4.315
51371W        W23785   0.950  35.402  11.562
51372W        W23786  17.713  34.613  14.017
51373W        W23787  42.362  39.011  10.560
51374W        W23788  33.932  36.559   0.793
51375W        W23789  38.349  23.697  14.948
51376W        W23790  18.610  31.008  14.396
51377W        W23791   4.894  34.527   3.233
51378W        W23792   4.260  34.013  14.376
51379W        W23793  13.762  22.152  14.030
51380W        W23794   8.247  24.508   0.863
51381W        W23795  26.973  24.217   2.691
51382W        W23796  34.079  23.052  14.439
51383W        W23797  14.264  11.836   1.813
51384W        W23798  18.294  14.245   1.224
51385W        W23799   2.731   6.425   2.841
51386W        W23800  30.925  37.438  10.054
51387W        W23801  29.550   3.350   2.777
51388W        W23802  44.843  40.825   4.291
51389W        W23803  12.213  18.767   0.325
51390W        W23804   1.960  10.791   1.377
51391W        W23805  22.715   0.815  10.627
51392W        W23806  40.485  32.431   0.373
51393W        W23807  12.286  28.995  10.541
51394W        W23808  13.245  31.540  13.869
51395W        W23809  25.529  33.410   4.746
51396W        W23810  29.600  34.466   0.477
51397W        W23811  24.074  29.142   4.605
51398W        W23812   7.218  29.523   4.266
51399W        W23813  27.558  22.161   4.746
51400W        W23814  32.486  26.148  13.843
51401W        W23815  14.744  32.599  14.806
51402W        W23816   5.934  13.183   3.171
51403W        W23817  26.179  14.236  10.499
51404W        W23818  41.473  36.353   3.364
51405W        W23819  25.581  16.218   1.345
51406W        W23820  43.948   3.804   4.783
51407W        W23821   2.783  36.941  14.887
51408W        W23822  24.061  25.576  13.864
51409W        W23823  21.710  15.123   2.376
51410W        W23824  22.699  17.261   0.373
51411W        W23825  19.200  34.449   1.253
51412W        W23826  24.613   8.175  14.866
51413W        W23827  11.188  13.770  14.972
51414W        W23828  44.941  30.915   2.815
51415W        W23829  32.617  28.120   1.756
51416W        W23830  15.672  17.130  14.385
51417W        W23831  27.529  14.697   2.872
51418W        W23832  20.703   7.805  10.608
51419W        W23833  44.962  33.434   0.303
51420W        W23834  28.929   7.859  13.437
51421W        W23835  44.264   4.940  13.405
51422W        W23836   4.736  17.649  10.628
51423W        W23837  40.494  29.590  11.970
51424W        W23838  13.341  34.905   4.686
51425W        W23839  20.185   0.476  12.503
51426W        W23840  14.206  28.438   2.251
51427W        W23841   4.421   6.410   0.746
51428W        W23842   3.775  16.588   3.261
51429W        W23843   3.250   6.361  14.984
51430W        W23844  33.912  16.708  10.634
51431W        W23845   9.291  18.736  10.917
51432W        W23846  36.438  18.054   4.791
51433W        W23847  42.942  35.473  10.529
51434W        W23848  24.687  27.069   4.729
51435W        W23849  13.770  41.833  10.542
51436W        W23850  32.626  43.861  12.036
51437W        W23851  35.405  13.697  11.965
51438W        W23852  26.026  19.727  10.930
51439W        W23853  38.947  30.605  14.975
51440W        W23854   2.807  20.223  14.935
51441W        W23855  28.648  29.453  11.017
51442W        W23856  31.455   1.248  13.426
51443W        W23857  19.716  40.045   4.762
51444W        W23858  40.028  17.234   2.886
51445W        W23859  37.399  27.494   4.258
51446W        W23860  26.645  43.010   0.429
51447W        W23861  39.839   7.696   3.823
51448W        W23862  28.185  33.966  13.882
51449W        W23863  14.678   9.337   4.322
51450W        W23864  34.889  21.534  12.458
51451W        W23865   9.818  41.461   1.296
51452W        W23866   4.914  20.730   0.932
51453W        W23867  28.623  38.988  12.034
51454W        W23868  32.392  21.631   0.874
51455W        W23869  24.228   1.285  11.380
51456W        W23870  35.856   7.207  13.368
51457W        W23871  28.473  21.183  14.837
51458W        W23872  43.344  14.661   2.322
51459W        W23873  39.977  33.624   1.355
51460W        W23874  42.515   4.287   4.243
51461W        W23875   9.838  44.792   4.755
51462W        W23876  42.861  22.711  12.441
51463W        W23877  11.354  22.211   4.149
51464W        W23878   0.269  23.108  11.875
51465W        W23879  30.113  13.757   0.273
51466W        W23880   5.220   4.356  11.375
51467W        W23881  38.466  19.237   3.294
51468W        W23882  35.997  29.459   3.377
51469W        W23883  30.561   5.840  13.923
51470W        W23884  27.020  16.162   4.191
51471W        W23885  38.894  10.752   3.188
51472W        W23886  30.915   0.816  14.885
51473W        W23887  42.406  33.499  11.503
51474W        W23888  29.027  11.781   4.298
51475W        W23889  19.672  43.316  12.055
51476W        W23890  40.971   4.880  12.543
51477W        W23891   3.800  31.110   4.344
51478W        W23892  33.950  26.981  13.049
51479W        W23893   8.203  12.675  14.282
51480W        W23894  22.559   6.682   4.791
51481W        W23895   8.891  20.131  12.432
51482W        W23896  42.428  25.514  14.880
51483W        W23897   4.937   8.895  14.792
51484W        W23898  32.017   7.282  10.523
51485W        W23899  44.376  44.936   3.330
51486W        W23900  16.109  15.792   1.866
51487W        W23901  39.873  38.822  14.909
51488W        W23902  12.285  34.438   3.851
51489W        W23903   6.745  22.125   1.766
51490W        W23904  38.463   4.871   0.922
51491W        W23905  38.967   4.776   1.743
51492W        W23906  12.843  44.324   2.817
51493W        W23907  36.035  14.329   0.741
51494W        W23908   2.788   9.670  14.416
51495W        W23909  35.417  31.446  13.419
51496W        W23910   6.262  39.405   3.775
51497W        W23911  21.258  24.484  12.367
51498W        W23912   9.810  16.204   0.448
51499W        W23913  30.967   4.862   1.753
51500W        W23914  21.552  25.040  11.898
51501W        W23915  40.949  10.378  11.994
51502W        W23916  14.605   5.366  10.568
51503W        W23917  26.973  25.006  11.089
51504W        W23918  39.010  33.549  11.007
51505W        W23919  41.394  33.388   3.235
51506W        W23920  33.990  40.863  12.930
51507W        W23921  36.537  15.777  11.959
51508W        W23922  15.615   2.897   4.297
51509W        W23923   6.323   8.780  12.510
51510W        W23924  28.595  39.911   1.360
51511W        W23925   1.467  21.050   3.227
51512W        W23926  39.060  37.473  13.547
51513W        W23927  12.727   4.716   2.887
51514W        W23928  16.755  38.827  10.591
51515W        W23929  10.655  36.520  11.591
51516W        W23930  30.549   5.796  13.534
51517W        W23931  38.015  42.464  14.766
51518W        W23932   6.312  21.580   2.372
51519W        W23933  24.079  18.582  13.498
51520W        W23934  33.938   1.441   4.147
51521W        W23935   6.358  42.323   1.371
51522W        W23936   6.805   3.305  13.397
51523W        W23937  42.424  21.244  14.460
51524W        W23938  12.675   0.841  11.065
51525W        W23939   1.806  18.120  11.909
51526W        W23940   4.351   3.834   3.378
51527W        W23941  38.514  17.693  10.980
51528W        W23942  10.741  24.186  10.901
51529W        W23943  36.459  29.928  10.502
51530W        W23944  38.895  20.053  11.857
51531W        W23945  35.923  19.067  11.016
51532W        W23946  43.434  25.543   0.419
51533W        W23947  40.536  11.276  12.845
51534W        W23948  11.841  32.046  14.404
51535W        W23949  25.470  39.839   4.176
51536W        W23950  40.416  43.284   3.289
51537W        W23951  33.096   9.776  12.048
51538W        W23952  39.052  43.340  11.941
51539W        W23953  41.875   7.233   3.245
51540W        W23954  27.503  28.133  12.092
51541W        W23955  24.178  25.495   0.350
51542W        W23956  25.525  11.675  14.885
51543W        W23957  41.421   5.426   3.248
51544W        W23958   3.937   6.289   0.399
51545W        W23959  20.206   0.272  12.028
51546W        W23960  34.526   9.256   4.278
51547W        W23961  20.523   1.848   4.302
51548W        W23962   8.389  25.608  14.936
51549W        W23963   6.352   5.745   3.691
51550W        W23964  44.980  36.481   1.240
51551W        W23965  23.612  33.490   1.891
51552W        W23966  36.395  19.049   0.750
51553W        W23967  36.926  15.781   2.673
51554W        W23968  35.476  12.349  11.414
51555W        W23969  41.799  44.480  12.943
51556W        W23970  37.486  16.605   1.745
51557W        W23971  31.403  23.043   3.311
51558W        W23972   9.376  37.958   2.676
51559W        W23973  43.829  38.503   3.382
51560W        W23974  29.159  23.220  13.332
51561W        W23975   6.802   1.961   0.849
51562W        W23976  30.623  24.592   1.746
51563W        W23977  18.725   7.404   2.696
51564W        W23978  11.170  26.068   4.299
51565W        W23979  10.877  30.592   3.199
51566W        W23980  19.706  26.538  14.906
51567W        W23981  23.602  34.864   0.336
51568W        W23982   3.916  26.988  12.410
51569W        W23983  16.604  10.304  14.864
51570W        W23984  22.537   9.232   2.191
51571W        W23985  31.536  24.499   1.266
51572W        W23986  38.935   8.901  13.492
51573W        W23987   5.783  33.983  13.826
51574W        W23988  42.997  30.991   0.746
51575W        W23989  21.688   7.302   1.441
51576W        W23990   6.361   9.769  13.950
51577W        W23991  20.152  31.469   2.263
51578W        W23992  41.406  13.110   2.794
51579W        W23993  32.974  12.132   3.742
51580W        W23994   2.259  35.977  14.467
51581W        W23995  30.961  18.230  11.612
51582W        W23996  43.431  21.678  10.595
51583W        W23997   7.682  23.179   0.952
51584W        W23998  26.538  19.165  12.932
51585W        W23999  25.531  35.916  13.532
51586W        W24000   6.710  38.916  12.499
51587W        W24001  37.369  44.317  10.138
51588W        W24002  42.015   4.872  14.824
51589W        W24003  40.533  12.352   3.170
51590W        W24004  27.471  16.209  11.492
51591W        W24005   1.385  30.066   2.669
51592W        W24006   0.842  17.263  14.280
51593W        W24007  43.290  35.094  11.061
51594W        W24008  14.334  44.892  13.512
51595W        W24009  27.514  14.835   0.342
51596W        W24010  13.252  19.688   3.835
51597W        W24011   4.309  13.322  11.023
51598W        W24012  41.362   7.400   3.710
51599W        W24013  41.936  31.516  12.402
51600W        W24014  44.369  19.654   9.927
51601W        W24015  18.754  16.241  13.792
51602W        W24016   8.831  27.532  14.882
51603W        W24017  22.127  25.602  13.855
51604W        W24018  30.043  39.935   2.778
51605W        W24019  16.660  37.017   4.770
51606W        W24020   3.328  40.329  14.919
51607W        W24021  39.856  30.982   2.694
51608W        W24022   7.688  18.738   4.735
51609W        W24023  33.999   0.791   2.375
51610W        W24024   4.799  15.111   5.713
51611W        W24025  38.505  15.742   3.345
51612W        W24026  35.108  29.647   9.963
51613W        W24027  30.468   7.195  13.008
51614W        W24028  26.460  36.448  11.420
51615W        W24029  38.400  35.970  10.923
51616W        W24030   6.740  10.830   3.838
51617W        W24031  34.892  14.242  14.012
51618W        W24032  33.000  36.944   4.811
51619W        W24033  40.024  31.898  10.601
51620W        W24034   0.419  39.504  13.826
51621W        W24035   9.712  20.031   1.411
51622W        W24036  25.489  44.266   2.888
51623W        W24037  28.000  26.661  13.958
51624W        W24038  11.145   8.778   4.341
51625W        W24039  44.325   3.267  11.083
51626W        W24040  37.551  16.182  12.540
51627W        W24041  44.765   8.658   1.419
51628W        W24042  21.175  41.474   3.828
51629W        W24043  36.564  13.773  12.408
51630W        W24044  28.095  31.454   2.405
51631W        W24045  23.680   0.350  13.032
51632W        W24046   5.198  13.217   2.781
51633W        W24047   1.425  34.080  12.424
51634W        W24048  12.332  24.014  11.868
51635W        W24049  25.501  39.935  11.448
51636W        W24050  38.510  26.003  11.865
51637W        W24051   7.380  18.293   3.797
51638W        W24052  41.515  18.075   4.604
51639W        W24053  32.557   0.256   2.703
51640W        W24054   0.297  11.747   0.308
51641W        W24055  35.399   4.440  11.930
51642W        W24056  36.048  44.376  14.963
51643W        W24057   8.732  32.970   2.683
51644W        W24058  22.203  44.306   4.281
51645W        W24059  29.624  22.662   0.767
51646W        W24060   1.854  24.689  11.099
51647W        W24061  10.181  20.540  11.033
51648W        W24062   1.958  44.757   4.213
51649W        W24063  16.201  40.993   2.734
51650W        W24064  32.915   1.284   0.933
51651W        W24065  27.196   8.195  10.560
51652W        W24066  15.216  39.507   4.130
51653W        W24067  22.506  11.254   0.327
51654W        W24068  18.266  11.852   3.353
51655W        W24069  14.604  40.368  12.962
51656W        W24070  11.331  11.760  11.502
51657W        W24071   9.210  40.876  12.990
51658W        W24072  43.775   5.392  10.477
51659W        W24073  26.604  13.734  12.089
51660W        W24074  27.970   0.427   3.821
51661W        W24075   5.364  11.165  14.469
51662W        W24076  11.141   2.886   3.775
51663W        W24077   3.734  38.988   0.446
51664W        W24078  41.528  12.181  13.424
51665W        W24079   8.169  21.565  13.920
51666W        W24080   6.269  22.596  14.366
51667W        W24081  28.681   1.386   1.850
51668W        W24082  19.570   1.817   1.241
51669W        W24083  12.856  15.822  11.389
51670W        W24084   1.960   3.777   4.139
51671W        W24085  40.872  12.674   1.328
51672W        W24086  11.334  30.999   0.293
51673W        W24087   5.751  10.659  14.500
51674W        W24088   1.867  24.029   2.758
51675W        W24089  26.073  12.331  13.389
51676W        W24090   1.272  27.067   0.371
51677W        W24091  26.586  34.095  10.495
51678W        W24092  21.645  30.156  13.955
51679W        W24093   5.344  41.002  13.933
51680W        W24094  20.694  25.050  14.474
51681W        W24095  39.518  23.585  14.875
51682W        W24096  25.677  10.638   2.777
51683W        W24097  17.064  44.381  12.836
51684W        W24098  10.378   1.800  10.901
51685W        W24099  24.618  34.894  13.866
51686W        W24100   8.803  34.015  11.097
51687W        W24101  12.190   6.384  10.425
51688W        W24102  23.551  15.774   0.263
51689W        W24103   0.482   2.777  11.955
51690W        W24104  26.159  30.948  12.831
51691W        W24105   0.987   5.415   4.830
51692W        W24106  40.937  15.583   2.795
51693W        W24107   1.796  24.560   4.819
51694W        W24108  33.007   5.254  11.519
51695W        W24109  44.503   4.330  11.450
51696W        W24110  38.976   2.325   0.768
51697W        W24111  39.338   9.314  11.580
51698W        W24112   8.882  17.667   2.310
51699W        W24113   9.863  34.054   4.692
51700W        W24114  27.457   9.778   3.350
51701W        W24115  23.548  12.226  14.775
51702W        W24116   7.295  31.427   1.256
51703W        W24117  40.038  20.138  12.477
51704W        W24118  28.109  12.247  11.997
51705W        W24119  22.669  42.800   2.361
51706W        W24120  14.669  10.766  12.479
51707W        W24121  22.677   0.814  10.945
51708W        W24122  31.530  23.651  10.497
51709W        W24123  23.563  44.379   2.287
51710W        W24124   3.816  13.760  11.909
51711W        W24125  35.900  42.905   2.338
51712W        W24126  39.325  39.529   2.259
51713W        W24127   1.939  18.544  11.918
51714W        W24128  38.468   3.727  13.467
51715W        W24129  19.040  23.202   4.173
51716W        W24130  15.110  13.333   1.353
51717W        W24131  11.668   8.721  12.900
51718W        W24132   7.241   3.789   3.292
51719W        W24133   5.867   9.220  14.880
51720W        W24134   4.296  18.617  12.959
51721W        W24135   0.491  14.326   2.353
51722W        W24136   5.416  18.140   1.871
51723W        W24137  38.885  31.107  10.497
51724W        W24138  35.042  11.777   0.843
51725W        W24139  21.724  22.551  13.899
51726W        W24140  36.853  13.276  13.981
51727W        W24141  40.913   6.340   3.856
51728W        W24142  35.410  31.105  14.502
51729W        W24143  33.017   8.270   0.908
51730W        W24144  19.700  29.658   0.376
51731W        W24145  25.052  23.609   1.909
51732W        W24146   0.799  44.396   3.707
51733W        W24147  18.200   8.763   0.800
51734W        W24148  36.354  24.578   4.621
51735W        W24149   3.900  18.138  13.333
51736W        W24150   1.283   7.831  12.870
51737W        W24151  37.984  19.266  12.996
51738W        W24152  21.166  14.206  14.782
51739W        W24153  14.816  28.060  13.847
51740W        W24154  21.094  29.451   1.278
51741W        W24155   5.204  33.965  14.326
51742W        W24156   6.778  20.617   2.389
51743W        W24157  23.084   4.263   0.452
51744W        W24158  15.775  33.916  14.031
51745W        W24159  30.551  34.923   3.743
51746W        W24160  15.097   6.216   1.712
51747W        W24161   5.778   0.768   0.753
51748W        W24162  42.949  38.839  13.046
51749W        W24163  44.866  38.469   2.898
51750W        W24164   1.898  12.324   1.272
51751W        W24165  44.965  27.055  13.349
51752W        W24166   9.269  11.821  13.427
51753W        W24167   9.286  43.276  11.968
51754W        W24168   1.331  36.091   4.193
51755W        W24169  35.028  22.137  11.448
51756W        W24170  43.775  43.270   0.763
51757W        W24171  44.766   3.265  13.488
51758W        W24172  41.390  43.492   0.907
51759W        W24173  29.172  44.419   4.789
51760W        W24174  39.999  31.605   1.291
51761W        W24175  19.533  33.108  13.851
51762W        W24176  43.889   8.819   1.376
51763W        W24177   3.782   0.299   1.380
51764W        W24178  15.669  20.762  10.937
51765W        W24179  40.037  43.934  14.927
51766W        W24180  14.167   4.222   2.274
51767W        W24181   6.761   9.769  13.053
51768W        W24182  18.636   4.926  13.391
51769W        W24183  36.986   7.830  10.506
51770W        W24184  23.600  34.418  10.507
51771W        W24185  35.521  16.585   0.484
51772W        W24186  35.963   8.384   0.846
51773W        W24187  38.020   6.682  11.473
51774W        W24188   9.653  20.652   2.865
51775W        W24189  31.008  11.688   1.348
51776W        W24190  38.441   9.272   3.845
51777W        W24191  13.753   0.483   3.342
51778W        W24192  18.713  37.476   3.167
51779W        W24193  35.858   6.712   1.385
51780W        W24194  17.700  26.047  11.427
51781W        W24195   1.833  14.658   4.255
51782W        W24196   9.164  12.829  10.585
51783W        W24197  30.438   7.393  14.441
51784W        W24198  38.446  11.734   2.215
51785W        W24199  33.945  30.138   3.742
51786W        W24200  27.102  11.825  12.892
51787W        W24201   2.931  32.554  14.813
51788W        W24202  29.989  10.375   2.239
51789W        W24203  14.259  23.666   0.251
51790W        W24204  21.535  29.519   4.120
51791W        W24205  42.984  42.821  13.812
51792W        W24206  13.285  12.625  13.936
51793W        W24207  28.152  42.905   1.279
51794W        W24208  24.111  13.237  12.921
51795W        W24209  12.167   0.450  11.610
51796W        W24210   1.306  27.682   3.762
51797W        W24211   2.827  26.668  11.045
51798W        W24212  43.926   7.193   4.311
51799W        W24213  22.620  15.663  14.895
51800W        W24214  41.335  35.087   3.664
51801W        W24215  16.106  19.185  10.512
51802W        W24216  41.035  21.144   3.261
51803W        W24217  21.150  34.608  11.605
51804W        W24218  33.003  32.443  13.959
51805W        W24219  16.664   4.726  14.938
51806W        W24220  36.956  30.526   0.437
51807W        W24221   1.369   2.824  12.889
51808W        W24222   5.195  12.275   2.885
51809W        W24223  21.074  16.671  14.977
51810W        W24224  22.035  20.705  12.853
51811W        W24225  21.025  37.534   0.861
51812W        W24226  43.345  11.846  11.498
51813W        W24227   6.891   9.229  13.343
51814W        W24228  17.138  40.376  13.386
51815W        W24229  20.071  43.819   4.186
51816W        W24230  29.024  32.006   1.321
51817W        W24231  15.632   6.369  12.976
51818W        W24232   2.298  33.396   2.182
51819W        W24233  25.495  31.130   0.965
51820W        W24234  13.171  25.536   4.129
51821W        W24235  43.985  29.646  11.417
51822W        W24236   3.279  28.065  14.010
51823W        W24237  14.115  41.444   3.378
51824W        W24238   1.768  18.148   3.866
51825W        W24239  38.983   3.903  14.011
51826W        W24240   2.370  44.838  11.487
51827W        W24241   0.966  24.696   2.361
51828W        W24242  43.863  34.428   0.948
51829W        W24243   1.877  23.644   0.858
51830W        W24244  10.334  19.216   4.141
51831W        W24245  10.810  37.927   4.259
51832W        W24246  36.379  39.518   1.925
51833W        W24247  21.739  42.909   4.348
51834W        W24248  38.970  16.084   1.416
51835W        W24249   2.932  21.756  13.019
51836W        W24250  33.904  32.413  14.278
51837W        W24251  32.613   9.272   2.393
51838W        W24252   8.715  23.101  12.036
51839W        W24253  21.601  22.537   2.794
51840W        W24254  39.973  37.841   0.938
51841W        W24255   5.286  43.831   3.235
51842W        W24256  39.008  44.852  12.876
51843W        W24257  38.020  32.422  12.956
51844W        W24258  23.494  34.038  13.341
51845W        W24259  41.533  10.156   2.745
51846W        W24260  22.036  33.445   4.299
51847W        W24261   4.883  36.843  14.793
51848W        W24262   1.742   0.306  12.371
51849W        W24263  19.229  12.697  12.385
51850W        W24264   6.240   0.481   3.267
51851W        W24265   8.222  19.570   3.768
51852W        W24266  24.545  31.472   4.244
51853W        W24267  31.495   7.847  13.319
51854W        W24268  30.937   3.824  14.359
51855W        W24269  40.019  16.754   3.152
51856W        W24270  29.621   0.947   1.898
51857W        W24271  18.561  18.096  12.856
51858W        W24272  29.526  16.286  14.794
51859W        W24273  35.953  27.119  12.962
51860W        W24274  18.177  25.106  13.857
51861W        W24275  24.208  40.831  12.575
51862W        W24276  34.385   8.776  14.419
51863W        W24277   1.825  13.795  14.296
51864W        W24278  33.110  23.991  12.507
51865W        W24279  17.592  16.262   0.958
51866W        W24280  11.707  42.854   1.268
51867W        W24281  39.340  24.694  14.865
51868W        W24282  43.909  26.070   2.721
51869W        W24283  29.959   0.746   2.266
51870W        W24284  34.504  12.845  11.483
51871W        W24285  41.322  21.065  12.032
51872W        W24286  23.604  29.513  14.004
51873W        W24287  13.752  28.999  11.493
51874W        W24288  19.607  41.320   2.703
51875W        W24289   2.962  15.143  11.858
51876W        W24290  15.707  17.701   2.335
51877W        W24291  16.254   3.396   4.198
51878W        W24292  33.427  35.489  11.925
51879W        W24293  22.711  29.476  10.440
51880W        W24294  27.074  24.691   4.263
51881W        W24295  28.465  43.391   3.372
51882W        W24296  44.411  38.988   3.354
51883W        W24297  29.660  17.269   1.755
51884W        W24298  29.522  37.492   0.795
51885W        W24299  21.632   9.732  13.368
51886W        W24300   4.842  39.009  10.998
51887W        W24301  16.192  32.521   0.245
51888W        W24302  24.224  24.110  11.911
51889W        W24303  25.657  24.189  12.992
51890W        W24304  38.375   2.919   2.685
51891W        W24305  15.147  31.955  13.950
51892W        W24306   8.231   4.905   0.796
51893W        W24307  13.839  43.888  11.055
51894W        W24308  40.360  12.279   1.806
51895W        W24309  18.073  34.591  14.447
51896W        W24310  43.943  39.410   3.174
51897W        W24311   2.319  11.237  10.960
51898W        W24312  14.295  18.707   4.336
51899W        W24313  44.911  43.938  13.490
51900W        W24314  44.957  36.964   3.321
51901W        W24315  33.023  40.012  13.496
51902W        W24316  16.166   7.311   1.293
51903W        W24317   4.378  29.953  14.316
51904W        W24318   4.705  27.484  11.599
51905W        W24319   9.648  36.409  11.391
51906W        W24320  41.493  35.932  13.431
51907W        W24321  28.576  24.530   0.325
51908W        W24322  44.990  38.068  13.489
51909W        W24323  36.870  36.876  11.883
51910W        W24324  28.120  32.599   4.351
51911W        W24325  23.113   6.718   1.858
51912W        W24326  41.515  26.461   2.364
51913W        W24327  10.333  23.564  14.502
51914W        W24328  17.585  42.869   0.452
51915W        W24329  23.081   2.941   3.303
51916W        W24330  32.484   0.289   0.919
51917W        W24331  37.909   8.215  12.365
51918W        W24332   7.667   5.752  11.910
51919W        W24333  12.613  21.565   1.733
51920W        W24334  12.200  12.772  10.623
51921W        W24335  41.376  39.322   1.400
51922W        W24336  19.576  26.980  12.082
51923W        W24337  38.867   5.286   3.653
51924W        W24338  19.624   7.756   0.860
51925W        W24339  44.463  35.576  12.532
51926W        W24340  26.175  22.190   2.669
51927W        W24341  20.138  19.575  13.504
51928W        W24342  18.734  42.986   1.226
51929W        W24343  44.871  36.503  12.885
51930W        W24344  15.214  34.884  14.328
51931W        W24345   8.399   0.811  13.841
51932W        W24346  30.012   0.452   4.129
51933W        W24347  16.646  15.189  12.002
51934W        W24348  35.372   2.733   0.248
51935W        W24349  13.803  43.503  11.517
51936W        W24350  43.971  27.574  10.640
51937W        W24351  11.245   6.252  13.340
51938W        W24352  29.093  43.852   3.237
51939W        W24353  13.603  29.469   2.311
51940W        W24354  41.531  13.622  12.990
51941W        W24355  15.194  29.504   3.237
51942W        W24356  39.959  22.543  12.356
51943W        W24357   6.687   0.893   2.213
51944W        W24358  36.373  25.078  11.474
51945W        W24359   4.415  19.280  11.129
51946W        W24360  25.663   0.981   5.679
51947W        W24361   2.923  16.165  14.308
51948W        W24362  44.391   8.277   4.667
51949W        W24363   7.769   9.752   4.180
51950W        W24364  36.941  39.346  14.782
51951W        W24365  16.176  16.273   4.743
51952W        W24366  21.547  22.535  14.809
51953W        W24367  39.500  26.589  13.986
51954W        W24368  42.437   0.919   0.242
51955W        W24369   7.250  28.137  13.948
51956W        W24370   4.776  35.043  13.877
51957W        W24371  43.277  34.865  14.824
51958W        W24372   3.909  29.659  13.309
51959W        W24373   5.417   4.857   3.217
51960W        W24374   7.804  12.705   0.260
51961W        W24375   2.316  31.141   1.870
51962W        W24376  22.186  18.712   4.646
51963W        W24377  33.020  38.976   0.346
51964W        W24378  29.951  30.503   2.731
51965W        W24379   3.341   3.771  11.923
51966W        W24380  30.153  22.643  14.483
51967W        W24381  21.621  20.104   1.817
51968W        W24382  44.275   8.271   0.921
51969W        W24383  20.610  14.128   2.209
51970W        W24384  39.022  38.025   3.322
51971W        W24385  27.027   8.744  12.866
51972W        W24386  10.240  26.466   3.252
51973W        W24387  38.827  24.625  12.938
51974W        W24388  21.738  25.210  14.859
51975W        W24389   9.669  42.281  11.070
51976W        W24390  35.942   2.879   3.152
51977W        W24391  29.084  33.503  11.004
51978W        W24392  12.162  32.050   1.756
51979W        W24393  10.314  28.566   1.717
51980W        W24394  32.580  25.612   4.773
51981W        W24395   4.347  28.119   2.706
51982W        W24396  30.478  30.564   4.183
51983W        W24397  34.449   4.398   4.210
51984W        W24398  42.335  38.895  13.472
51985W        W24399  13.718  27.447   3.801
51986W        W24400  13.333  41.886  13.320
51987W        W24401  17.595  39.415   4.673
51988W        W24402   9.787  19.572   4.744
51989W        W24403  17.097   2.399   1.250
51990W        W24404  28.562  24.595  10.979
51991W        W24405  31.550   7.274   4.133
51992W        W24406  35.357  24.520   3.807
51993W        W24407  16.165  31.005  14.864
51994W        W24408   7.704  17.236  10.427
51995W        W24409  29.594  44.968   0.328
51996W        W24410  29.000  20.271   0.245
51997W        W24411  28.667   3.769  10.639
51998W        W24412  12.237  38.821   0.360
51999W        W24413  23.716  21.653   1.335
52000W        W24414  36.444  23.984  10.897
52001W        W24415   1.862  41.895   4.120
52002W        W24416  36.428   1.248   4.823
52003W        W24417  42.831  34.940  13.429
52004W        W24418  40.987  23.122  11.980
52005W        W24419  11.666   3.244   3.267
52006W        W24420  29.461  11.750  14.914
52007W        W24421  32.465   0.899   0.871
52008W        W24422  13.190  42.460   1.894
52009W        W24423   5.711  14.257  14.832
52010W        W24424  31.517  28.061   4.269
52011W        W24425   4.707  30.519   4.253
52012W        W24426  19.175  33.615  14.374
52013W        W24427  30.615  33.962   0.428
52014W        W24428  34.516   0.473  13.332
52015W        W24429  14.802  22.080   2.856
52016W        W24430  21.515  36.347   4.147
52017W        W24431  22.047   4.859   4.645
52018W        W24432  20.214  36.059   3.759
52019W        W24433  29.044  41.457  10.600
52020W        W24434  25.648  39.457  14.350
52021W        W24435   6.686   3.919  13.318
52022W        W24436  37.380  11.318   3.278
52023W        W24437   7.758  35.568   1.757
52024W        W24438  30.465  14.739   2.366
52025W        W24439  16.294  19.555   5.200
52026W        W24440  35.586  38.005  12.547
52027W        W24441  44.392  43.487   1.773
52028W        W24442  15.719  41.937   1.399
52029W        W24443   5.923   3.804   0.339
52030W        W24444  17.599   3.273   1.409
52031W        W24445   5.882  28.582  14.408
52032W        W24446  20.608   6.366   2.791
52033W        W24447  28.437   5.277   3.224
52034W        W24448   2.336  27.588  12.088
52035W        W24449  35.016  11.284  11.457
52036W        W24450  31.936   0.802  11.440
52037W        W24451  27.487   0.482   3.317
52038W        W24452  29.487  24.520  14.368
52039W        W24453  30.115  44.343   4.294
52040W        W24454  12.633  36.426  10.495
52041W        W24455  33.595  24.627  12.016
52042W        W24456   3.809  43.984  13.018
52043W        W24457  39.808   4.711   2.664
52044W        W24458  35.486  15.273   3.291
52045W        W24459  40.548  40.443  14.324
52046W        W24460  28.637  21.033   1.865
52047W        W24461  41.929  19.086  10.608
52048W        W24462  30.005  24.123   2.186
52049W        W24463   7.240  38.386  13.967
52050W        W24464   3.279  42.792  12.444
52051W        W24465  12.664   0.492   1.787
52052W        W24466  12.762  10.845   2.854
52053W        W24467  27.569  29.026   4.354
52054W        W24468   6.188  10.750   4.341
52055W        W24469  33.100   7.833  14.431
52056W        W24470   0.763  18.076   3.774
52057W        W24471  35.402  18.632   1.853
52058W        W24472  23.066  25.614  14.497
52059W        W24473  40.934  33.969   0.781
52060W        W24474  21.612   7.237   1.919
52061W        W24475  13.293  13.199  14.497
52062W        W24476  39.493  17.641   2.747
52063W        W24477  33.624  33.892  13.001
52064W        W24478  34.486  33.885  12.923
52065W        W24479  32.082   2.455   0.272
52066W        W24480  18.791  33.447  14.991
52067W        W24481  18.640  20.736  13.334
52068W        W24482  39.850   4.755  11.893
52069W        W24483   0.987   8.248  11.463
52070W        W24484  22.235  42.922  12.562
52071W        W24485  42.994  30.454   1.714
52072W        W24486  43.481  19.136  11.508
52073W        W24487   4.210  41.447  11.508
52074W        W24488  21.646  43.822  11.973
52075W        W24489   8.387  33.879  10.437
52076W        W24490  19.699  19.633   0.424
52077W        W24491  12.291  24.694   4.230
52078W        W24492  17.145  26.604  13.016
52079W        W24493  26.662  11.154   4.727
52080W        W24494  10.181  20.193   1.317
52081W        W24495  19.759  24.208   4.733
52082W        W24496  20.099  27.650   2.263
52083W        W24497  28.078  17.259   5.230
52084W        W24498  20.598  14.191  11.866
52085W        W24499  39.873  12.214  11.925
52086W        W24500  18.779  17.209  13.315
52087W        W24501  11.266  41.866  12.483
52088W        W24502   0.410  29.547   2.320
52089W        W24503  41.499   8.272   3.339
52090W        W24504  12.309   2.957  11.006
52091W        W24505  25.147   6.362   4.767
52092W        W24506   4.444  43.866   1.355
52093W        W24507  27.152  40.929  11.396
52094W        W24508  31.954  23.068  14.977
52095W        W24509  14.738   2.336  13.808
52096W        W24510   2.378   1.946   3.791
52097W        W24511  39.507  19.579  10.451
52098W        W24512  23.118  12.648  14.457
52099W        W24513  12.773  18.136  10.527
52100W        W24514   5.701  20.660  14.457
52101W        W24515  24.195   7.195  13.019
52102W        W24516   6.297  33.535  13.893
52103W        W24517  19.638  39.546   2.179
52104W        W24518  40.901  18.239   3.810
52105W        W24519  10.751   4.904  14.020
52106W        W24520  32.437   6.387   1.730
52107W        W24521  27.679  33.131   4.238
52108W        W24522  29.109   3.303   4.681
52109W        W24523  23.726  35.405   3.361
52110W        W24524  21.698  37.966   3.314
52111W        W24525  37.451  36.419   4.228
52112W        W24526   6.369  30.934   2.811
52113W        W24527   5.801  12.279  12.434
52114W        W24528  23.730  15.750  13.841
52115W        W24529  17.612  35.459   1.299
52116W        W24530  18.111  43.012  12.927
52117W        W24531   7.370   2.831   2.864
52118W        W24532  17.680  15.164  12.544
52119W        W24533  35.055  25.028   3.274
52120W        W24534   8.396  17.687  14.426
52121W        W24535  26.208  22.213  14.001
52122W        W24536  44.811  16.712   1.394
52123W        W24537  35.963  16.260  11.564
52124W        W24538  32.064  11.629  13.338
52125W        W24539  34.014  33.537  14.317
52126W        W24540  35.450  18.660  14.820
52127W        W24541   6.767   9.862   1.312
52128W        W24542  12.299  33.049  11.026
52129W        W24543   0.481  20.127  11.446
52130W        W24544   8.795  20.065   0.729
52131W        W24545   4.360  24.106  13.874
52132W        W24546   8.369  34.075  12.486
52133W        W24547  41.517  19.773   3.352
52134W        W24548   0.395  26.596   4.247
52135W        W24549   6.750  38.424  11.046
52136W        W24550   1.875  19.163   3.367
52137W        W24551  20.252  37.967   3.319
52138W        W24552  22.707   1.352   4.223
52139W        W24553  39.463  44.916   1.282
52140W        W24554  34.535  19.222   3.186
52141W        W24555  37.944  44.954   4.158
52142W        W24556  18.294  20.269   2.324
52143W        W24557  14.145  43.422   3.633
52144W        W24558   7.336   8.658  11.517
52145W        W24559  19.610  13.120  14.897
52146W        W24560  39.893  36.349   1.785
52147W        W24561  11.857  17.663   2.352
52148W        W24562  41.393  36.476   3.739
52149W        W24563  31.900  34.982   1.808
52150W        W24564   1.297  32.003  14.987
52151W        W24565  34.393  25.572  13.842
52152W        W24566   2.776  43.879  12.920
52153W        W24567  28.137  42.491   4.169
52154W        W24568   7.410  18.619  12.475
52155W        W24569   5.819  14.803   3.720
52156W        W24570  13.614  12.152   4.298
52157W        W24571  30.583  16.123  12.840
52158W        W24572  20.615  16.125   1.754
52159W        W24573  25.093  27.591  14.458
52160W        W24574  31.115  24.714   1.307
52161W        W24575  10.672  32.474  10.501
52162W        W24576  31.046  43.907  10.934
52163W        W24577  38.906   8.741   3.225
52164W        W24578  26.163  32.635  11.491
52165W        W24579   9.815   2.283   1.343
52166W        W24580  14.315  29.544  13.851
52167W        W24581  15.688   1.268   0.740
52168W        W24582  36.501  27.005   2.308
52169W        W24583   6.875  16.573  11.110
52170W        W24584  23.512   7.888  11.963
52171W        W24585  27.105   4.270  11.914
52172W        W24586   4.218  16.798   4.835
52173W        W24587  22.588  15.649   2.274
52174W        W24588  39.023  26.978   0.882
52175W        W24589   3.722  29.054  14.971
52176W        W24590   8.666  14.621  14.801
52177W        W24591  42.905   3.236  11.596
52178W        W24592  36.992  26.166  13.527
52179W        W24593   1.365  34.566   1.851
52180W        W24594  10.218  31.141  11.433
52181W        W24595   9.380  31.118  11.900
52182W        W24596  28.546  25.666  14.984
52183W        W24597   7.702   4.724  11.067
52184W        W24598  19.563  27.038   4.707
52185W        W24599  18.124  30.574   2.355
52186W        W24600  24.042  37.340  13.837
52187W        W24601  44.474  26.606   3.382
52188W        W24602  43.800   3.223  10.605
52189W        W24603  23.077  32.013  13.870
52190W        W24604  12.702  33.484   4.154
52191W        W24605  43.915  43.964   1.743
52192W        W24606   2.957  17.211  11.992
52193W        W24607  33.061  10.308  14.946
52194W        W24608  17.206  21.694   3.783
52195W        W24609  27.462   3.378  13.319
52196W        W24610   4.439  16.149   9.654
52197W        W24611  20.118  34.013  10.905
52198W        W24612  22.733   5.793  13.402
52199W        W24613  38.495   8.206  12.474
52200W        W24614  20.613  12.695   2.297
52201W        W24615  21.724  43.284   0.766
52202W        W24616  27.555  31.969   4.742
52203W        W24617  16.302  35.441   1.860
52204W        W24618  21.755  42.839   1.758
52205W        W24619   1.444  31.460  14.022
52206W        W24620  30.538  25.211  14.461
52207W        W24621  35.912  42.782  10.996
52208W        W24622   6.721  36.872   4.294
52209W        W24623  29.122  17.557   3.770
52210W        W24624  39.538  13.624   1.266
52211W        W24625  24.622  34.607  13.868
52212W        W24626  23.104   2.739   1.779
52213W        W24627  34.002  16.210  14.846
52214W        W24628  37.876  20.240   1.236
52215W        W24629  44.873  29.501   0.874
52216W        W24630  31.460  30.067  13.939
52217W        W24631  44.869  17.670  14.318
52218W        W24632   3.381  24.555   3.307
52219W        W24633  40.477   7.733  14.829
52220W        W24634  13.829  19.091   5.143
52221W        W24635  36.974   2.303   1.228
52222W        W24636  33.927  11.147   4.677
52223W        W24637  24.596  26.959   3.211
52224W        W24638   0.455  13.300  11.407
52225W        W24639  33.523  18.215   2.662
52226W        W24640   8.366  15.785   4.138
52227W        W24641  30.027  21.205   1.439
52228W        W24642  15.763  37.418  12.478
52229W        W24643  24.708   1.938  11.928
52230W        W24644   8.244  16.765  13.970
52231W        W24645  12.209  24.225   4.669
52232W        W24646  29.008   9.869   3.176
52233W        W24647  21.567  44.959  12.425
52234W        W24648  33.996  10.797   3.803
52235W        W24649  32.496  37.978  11.063
52236W        W24650  12.654  16.606   2.735
52237W        W24651  19.254  16.260  11.869
52238W        W24652  20.033  30.033  12.077
52239W        W24653  20.194  24.001   1.733
52240W        W24654   5.733  32.016  13.814
52241W        W24655  16.648  16.180  11.372
52242W        W24656  12.798   9.764  13.874
52243W        W24657  21.019  18.269   3.195
52244W        W24658  22.553   5.749  11.486
52245W        W24659   9.853  37.914   4.702
52246W        W24660  16.129  42.312   2.737
52247W        W24661  34.562   6.883  11.859
52248W        W24662  25.159  31.936   1.340
52249W        W24663  26.611   3.756   0.760
52250W        W24664  10.239  41.999   5.140
52251W        W24665   6.241   9.835  14.834
52252W        W24666   2.915  11.841  14.443
52253W        W24667  24.653   4.907   2.798
52254W        W24668  40.001   8.704   1.764
52255W        W24669  30.072   7.346  14.809
52256W        W24670   7.298  28.121  13.514
52257W        W24671  35.912  34.903  12.046
52258W        W24672  14.155  17.115   5.098
52259W        W24673  37.954  25.090   3.705
52260W        W24674  11.720  11.134  11.956
52261W        W24675  15.577   2.333  13.363
52262W        W24676  19.058  24.212   0.779
52263W        W24677  10.339   4.837   1.774
52264W        W24678  38.857   0.974   0.921
52265W        W24679  44.832  25.701  14.508
52266W        W24680  14.111  10.238  10.476
52267W        W24681  10.203  13.142  11.504
52268W        W24682  12.699  31.456  14.415
52269W        W24683   1.771  21.046  10.913
52270W        W24684  20.677  10.192   0.931
52271W        W24685  37.357   4.272   2.239
52272W        W24686  27.480  32.036  13.814
52273W        W24687  37.449   2.450   0.768
52274W        W24688  21.574  34.579   4.745
52275W        W24689  25.695  17.663   3.780
52276W        W24690  38.849   0.274   9.930
52277W        W24691  28.987  39.497  14.449
52278W        W24692  40.922  27.484   3.161
52279W        W24693  37.535   7.865   0.744
52280W        W24694  19.265  42.349   3.345
52281W        W24695   6.373  34.960   2.306
52282W        W24696  10.712  30.640  12.445
52283W        W24697   5.812  31.972  10.903
52284W        W24698  13.785  24.600  10.445
52285W        W24699  39.417  17.192   3.260
52286W        W24700  21.538  25.583  13.390
52287W        W24701  37.866  23.198   0.417
52288W        W24702  35.854  11.840   0.332
52289W        W24703  26.658  29.449  13.547
52290W        W24704   6.769  34.061   0.456
52291W        W24705  30.526  14.818  13.806
52292W        W24706  39.000  33.559  13.428
52293W        W24707  19.549   1.260  14.308
52294W        W24708  41.367  38.858   3.347
52295W        W24709   0.808   2.435   0.743
52296W        W24710  23.585  26.630  11.935
52297W        W24711  30.529  38.850  13.819
52298W        W24712   0.759   7.780   3.183
52299W        W24713  28.171   5.257   1.335
52300W        W24714  37.009  41.928   1.897
52301W        W24715  41.445  43.935  12.360
52302W        W24716  36.412  34.871  11.376
52303W        W24717  22.025  32.079  10.905
52304W        W24718  42.450   4.894   2.670
52305W        W24719  35.464  12.148   4.763
52306W        W24720  28.576  44.431  13.443
52307W        W24721  27.561  38.431  11.455
52308W        W24722  44.301   8.813   0.461
52309W        W24723  18.629   4.332   1.257
52310W        W24724  36.046  27.111  10.561
52311W        W24725  42.294  40.888   4.275
52312W        W24726   9.828  11.735   1.795
52313W        W24727  12.758  32.521   4.254
52314W        W24728  42.986  14.617  10.573
52315W        W24729  29.132  15.321  12.488
52316W        W24730  39.386  20.567   2.766
52317W        W24731   7.770  24.497  11.987
52318W        W24732  29.467  29.932   0.463
52319W        W24733  25.576  18.172  11.411
52320W        W24734  16.115  42.409   4.264
52321W        W24735  44.856   1.977  14.449
52322W        W24736  31.972  43.995  11.040
52323W        W24737   6.302  28.053   0.931
52324W        W24738  28.930  29.442   1.401
52325W        W24739  39.937   4.264  11.535
52326W        W24740  10.265  36.992   4.778
52327W        W24741  40.974   0.465  13.538
52328W        W24742  37.405  24.519  14.883
52329W        W24743  13.754  27.557   1.741
52330W        W24744  38.402  11.272   2.309
52331W        W24745  29.662   1.732   4.741
52332W        W24746  39.985  39.066   3.314
52333W        W24747   7.873  28.528  14.998
52334W        W24748   5.363  14.653  14.433
52335W        W24749  28.437  43.409   0.283
52336W        W24750   1.242  36.465  12.541
52337W        W24751   4.265  38.439  10.944
52338W        W24752   4.325  16.200  10.460
52339W        W24753  43.003   9.363  13.434
52340W        W24754  26.540  32.548   1.286
52341W        W24755   2.276  39.013  12.858
52342W        W24756   6.217   2.841   2.801
52343W        W24757   7.681  39.824  13.491
52344W        W24758  11.343  35.404  12.875
52345W        W24759  37.006   7.721   1.247
52346W        W24760  15.173  10.778   2.874
52347W        W24761  40.466   6.922  12.841
52348W        W24762   2.873  16.802  12.977
52349W        W24763  17.275  17.679  11.383
52350W        W24764  14.612   7.232  14.444
52351W        W24765  31.941   4.702  11.007
52352W        W24766  13.211   4.406  14.327
52353W        W24767  33.434  17.165   2.704
52354W        W24768   6.342  34.518   4.188
52355W        W24769  37.085  42.885   2.293
52356W        W24770  25.984  12.808  14.917
52357W        W24771   2.276  14.715  14.762
52358W        W24772  36.356  26.600  14.377
52359W        W24773  35.867  27.025   2.185
52360W        W24774   2.921   6.921   2.235
52361W        W24775   1.417  22.130  13.923
52362W        W24776   8.656  24.181   1.751
52363W        W24777  21.599  36.955   3.777
52364W        W24778   6.394  40.384   4.132
52365W        W24779   2.245   9.843  14.005
52366W        W24780  20.766  40.470  13.465
52367W        W24781  24.170  31.030   4.133
52368W        W24782  19.089  24.061  10.981
52369W        W24783  16.745  20.043   4.183
52370W        W24784  17.157  15.240  11.936
52371W        W24785   5.360   1.413  14.822
52372W        W24786  20.729  10.377  12.095
52373W        W24787  36.879  29.638  11.107
52374W        W24788  10.656  12.238   1.789
52375W        W24789  36.510   8.688   0.812
52376W        W24790  27.043   1.332  14.424
52377W        W24791  33.063  39.410  14.870
52378W        W24792   1.847   1.937  13.408
52379W        W24793  33.531  13.293   4.289
52380W        W24794  26.700  23.582  12.427
52381W        W24795  44.826  37.546  14.961
52382W        W24796  38.880  41.864   4.237
52383W        W24797   8.693  10.230   0.957
52384W        W24798  42.343  29.527  11.969
52385W        W24799  44.275  38.443  14.943
52386W        W24800  41.972  28.137   1.337
52387W        W24801   7.226  21.533   3.657
52388W        W24802  27.106  11.700  12.071
52389W        W24803   0.877   7.880   0.748
52390W        W24804  12.307   4.295  11.577
52391W        W24805  24.507  38.867   4.778
52392W        W24806  40.039   3.874  13.874
52393W        W24807  24.662  22.149   2.677
52394W        W24808  42.952   7.399   4.160
52395W        W24809  24.998  19.679  13.430
52396W        W24810  42.897  35.930  12.393
52397W        W24811  42.942   8.375   4.352
52398W        W24812  28.568  23.182   2.371
52399W        W24813  28.063   4.922  12.022
52400W        W24814  22.689  32.414   3.225
52401W        W24815  26.093  30.933   3.696
52402W        W24816  27.454  17.772  11.501
52403W        W24817  19.596  28.113  14.391
52404W        W24818  18.557   6.716  13.996
52405W        W24819   6.699  33.964  14.903
52406W        W24820   7.751  18.607  11.899
52407W        W24821  28.609  16.587  13.960
52408W        W24822  12.158  44.371   0.309
52409W        W24823  32.599  19.224  13.352
52410W        W24824  31.509  16.603  14.384
52411W        W24825  43.820  23.148  12.085
52412W        W24826  32.109  21.107   2.384
52413W        W24827   3.830  41.854  14.487
52414W        W24828  38.065  35.400   1.807
52415W        W24829  29.607  11.746  10.093
52416W        W24830  29.585  41.387   1.249
52417W        W24831  26.636  39.836  14.963
52418W        W24832  18.168   4.762  13.822
52419W        W24833  42.015   8.193   0.727
52420W        W24834  17.293  16.312   0.278
52421W        W24835  42.360  29.922  10.415
52422W        W24836  34.867  37.934   4.714
52423W        W24837  15.695  29.555   5.109
52424W        W24838  17.292  38.977   3.325
52425W        W24839  27.689   2.327  14.357
52426W        W24840  21.256  29.510   0.730
52427W        W24841   9.334   4.242   2.665
52428W        W24842  20.687  43.399   3.242
52429W        W24843  18.738  17.653   2.298
52430W        W24844  30.499  40.496  12.367
52431W        W24845  43.287  38.470  12.862
52432W        W24846   4.718   6.379  14.881
52433W        W24847   0.393  41.341   4.284
52434W        W24848   8.284  22.087  14.276
52435W        W24849  26.610  28.110   1.852
52436W        W24850  14.750   0.831  11.935
52437W        W24851  33.959  16.755   4.342
52438W        W24852  25.480  21.651  11.017
52439W        W24853   6.838  13.682   3.827
52440W        W24854  30.064  34.943  13.385
52441W        W24855  42.876  19.090  14.913
52442W        W24856   7.362  33.502  10.979
52443W        W24857   6.286  10.861  14.763
52444W        W24858  44.865  34.526   1.741
52445W        W24859  21.606  14.151  12.947
52446W        W24860  38.386  29.521   2.308
52447W        W24861  12.139  28.615   2.285
52448W        W24862  18.720  23.702  14.827
52449W        W24863   8.832  43.999   4.309
52450W        W24864  38.926  22.619  10.561
52451W        W24865   5.362  44.436   9.984
52452W        W24866  23.510   1.769   1.721
52453W        W24867  10.649   6.780  11.459
52454W        W24868  31.407  25.535   1.736
52455W        W24869   3.905  35.500   3.279
52456W        W24870  44.303  17.219   0.832
52457W        W24871  23.114   8.326   4.290
52458W        W24872  37.021  10.665   1.328
52459W        W24873  39.321  30.142  14.810
52460W        W24874  25.184  17.685  12.537
52461W        W24875  32.488  28.558   0.265
52462W        W24876  43.455  11.670  12.883
52463W        W24877  29.463  21.219   1.355
52464W        W24878   4.936  22.117  10.476
52465W        W24879   7.840  20.641   3.818
52466W        W24880  12.851  14.122   2.866
52467W        W24881   3.741  13.320   2.844
52468W        W24882   6.732   8.799  10.434
52469W        W24883  35.916   2.810  13.063
52470W        W24884  34.864  28.479  14.826
52471W        W24885   7.861  18.687  10.532
52472W        W24886  40.992  37.947  10.582
52473W        W24887   4.894   4.359  12.490
52474W        W24888  10.286  14.312   3.207
52475W        W24889  26.639  44.307   5.186
52476W        W24890  16.156   6.718   4.148
52477W        W24891  25.118  17.675  13.499
52478W        W24892  34.439   7.907   4.768
52479W        W24893  37.874  11.855   2.730
52480W        W24894  33.555  31.918  10.573
52481W        W24895   5.702  44.753  11.559
52482W        W24896  19.628  40.544  11.003
52483W        W24897  23.522  31.495   2.781
52484W        W24898  16.279  20.149  11.469
52485W        W24899  27.042   1.855   4.811
52486W        W24900  13.331  35.865   4.767
52487W        W24901   2.807  22.581  11.583
52488W        W24902  34.500   3.247  11.466
52489W        W24903   4.284  28.561   1.897
52490W        W24904  10.824  13.724   3.243
52491W        W24905   3.713  11.350  10.933
52492W        W24906   2.740  21.231   5.127
52493W        W24907  14.124  37.920   1.694
52494W        W24908  29.936  37.420   2.769
52495W        W24909  42.917  40.001   4.795
52496W        W24910  35.870  39.864  11.899
52497W        W24911   6.744  42.485   1.933
52498W        W24912   9.647   6.779   1.380
52499W        W24913  32.428  25.506  10.635
52500W        W24914  17.746  20.639   2.249
52501W        W24915  22.646   7.846  11.474
52502W        W24916  16.636   6.912   3.663
52503W        W24917  29.479  23.007   3.708
52504W        W24918   5.335  37.494  12.577
52505W        W24919  28.157   6.797  12.570
52506W        W24920  19.186  12.279   2.225
52507W        W24921  20.113   7.761   2.883
52508W        W24922  31.433  16.709   0.348
52509W        W24923  42.307  34.036  13.941
52510W        W24924  36.073  20.688   3.728
52511W        W24925   8.170  34.929  13.918
52512W        W24926   2.430  18.610  10.939
52513W        W24927  35.522  22.074  12.930
52514W        W24928  34.025  19.189  13.863
52515W        W24929  20.533  10.801  13.052
52516W        W24930   5.230  27.503   5.643
52517W        W24931   9.851   2.360  11.591
52518W        W24932  42.285  35.918  14.810
52519W        W24933  33.093  41.521   0.882
52520W        W24934  41.922  11.230   1.386
52521W        W24935   5.224  27.592   5.235
52522W        W24936   1.970  27.547   4.161
52523W        W24937  10.187  12.256  13.056
52524W        W24938  33.023   4.236   1.751
52525W        W24939  10.698  28.578  11.594
52526W        W24940   2.450   6.382  12.056
52527W        W24941  10.155  36.897  13.037
52528W        W24942  33.104  15.727  14.481
52529W        W24943  30.487  20.714  11.899
52530W        W24944  25.553  37.926  14.993
52531W        W24945  34.116  15.633   0.741
52532W        W24946   9.394  38.437   4.130
52533W        W24947  22.115  29.040   4.222
52534W        W24948  20.065  26.491   2.263
52535W        W24949  11.334   6.322   4.188
52536W        W24950   4.401  13.678  10.026
52537W        W24951   3.223  10.377   3.817
52538W        W24952   4.906  25.680   2.213
52539W        W24953  35.443  17.252  10.531
52540W        W24954  17.725  15.264  14.025
52541W        W24955  20.730  20.689   0.254
52542W        W24956  15.665   9.272  12.579
52543W        W24957  17.742   0.850   3.379
52544W        W24958   4.363  42.359  13.352
52545W        W24959  26.990   4.711   0.383
52546W        W24960  25.164  33.085  10.971
52547W        W24961  11.289   9.687   3.312
52548W        W24962  12.202  24.526   3.256
52549W        W24963   7.672  39.484  11.608
52550W        W24964  37.424   9.726  13.973
52551W        W24965  22.175  42.324  10.552
52552W        W24966   1.384  44.784  13.358
52553W        W24967  28.118   3.892   4.619
52554W        W24968  31.636  10.780   0.879
52555W        W24969  38.852  37.947  11.566
52556W        W24970  35.595  29.999  14.848
52557W        W24971  39.361   3.942  11.861
52558W        W24972  22.105  18.068   4.693
52559W        W24973  20.213  35.478   3.316
52560W        W24974   5.838   2.941  11.567
52561W        W24975  32.417   1.283  12.865
52562W        W24976  31.985   6.389  12.359
52563W        W24977   1.436  36.054   2.357
52564W        W24978   3.852   9.889  11.581
52565W        W24979  21.634  44.475  13.405
52566W        W24980  23.172  15.297   1.227
52567W        W24981   3.754  14.104   1.809
52568W        W24982  31.431  14.641   4.721
52569W        W24983   4.384  16.128   2.419
52570W        W24984  25.498  32.459  14.491
52571W        W24985   4.265   5.812   2.871
52572W        W24986  44.817  39.520  10.445
52573W        W24987   4.845   5.228   2.893
52574W        W24988  31.458  32.096  14.817
52575W        W24989   2.413  43.877   1.267
52576W        W24990  17.160  39.534   1.902
52577W        W24991  33.009   0.406  12.413
52578W        W24992  44.000  12.835   1.867
52579W        W24993  15.803   2.850   2.890
52580W        W24994  19.124  19.147   3.840
52581W        W24995  42.367  20.115  11.995
52582W        W24996  39.329   2.350  12.983
52583W        W24997  30.638  20.690   3.171
52584W        W24998  33.975  14.721   0.345
52585W        W24999  29.147  39.871   0.825
52586W        W25000  25.594  23.657   1.387
52587W        W25001  29.992  10.661   4.809
52588W        W25002  39.959  44.934  11.380
52589W        W25003   0.865  33.055   4.768
52590W        W25004  13.266   7.253  10.904
52591W        W25005   0.479  30.513   0.251
52592W        W25006  10.771  32.592  13.980
52593W        W25007  27.520  23.241   0.263
52594W        W25008  42.885  20.683   2.892
52595W        W25009   6.219  25.169   1.841
52596W        W25010   6.862  14.217  11.555
52597W        W25011  20.248  23.197   2.673
52598W        W25012  22.660   7.784  12.546
52599W        W25013  10.379  19.622   3.721
52600W        W25014   7.850  41.023   1.767
52601W        W25015  43.831   7.814  12.500
52602W        W25016  37.915   8.353   4.675
52603W        W25017   4.745  22.062   4.283
52604W        W25018   3.357  13.218   5.092
52605W        W25019  27.673  20.124  14.407
52606W        W25020  39.496  13.237   3.153
52607W        W25021  43.814  14.830  11.020
52608W        W25022  40.520  15.208   1.906
52609W        W25023  32.411  36.978   0.792
52610W        W25024  18.292  44.812  12.043
52611W        W25025  29.011  15.201   0.782
52612W        W25026  20.249  37.939   0.740
52613W        W25027   8.659  20.154   4.299
52614W        W25028  23.712   9.277   0.853
52615W        W25029  29.154  38.929  10.148
52616W        W25030  17.567   7.857   4.814
52617W        W25031  11.283  31.521  11.432
52618W        W25032  32.547  31.980   3.347
52619W        W25033  34.495  16.136  12.353
52620W        W25034   4.390  29.543  13.935
52621W        W25035  12.623  12.817   1.322
52622W        W25036  10.203  43.909  12.936
52623W        W25037  24.574   6.910  14.308
52624W        W25038  14.236  13.641  12.351
52625W        W25039  27.659  30.549  14.455
52626W        W25040  25.189  28.061   1.933
52627W        W25041  22.681   5.391  10.044
52628W        W25042   2.281  39.507   1.286
52629W        W25043  35.407  18.051   3.329
52630W        W25044  20.617  43.359  10.968
52631W        W25045  10.154  18.173  11.948
52632W        W25046  30.910   9.776   1.422
52633W        W25047   0.862   3.420   0.462
52634W        W25048  19.251  11.265   3.293
52635W        W25049  34.587   7.728  12.988
52636W        W25050  38.849   5.803   1.451
52637W        W25051  27.086  18.659  11.857
52638W        W25052  12.286  24.039  10.967
52639W        W25053  23.128  16.117   2.762
52640W        W25054  36.414  40.371  13.413
52641W        W25055  36.374  13.724  12.851
52642W        W25056  20.632  39.966   1.812
52643W        W25057   2.410  20.049  14.942
52644W        W25058  42.367  24.993   3.179
52645W        W25059  34.923  26.572   1.383
52646W        W25060  44.309  22.557  11.112
52647W        W25061  16.207   4.381  14.811
52648W        W25062   1.416  36.357   4.198
52649W        W25063  18.773  37.477  11.980
52650W        W25064  36.550   9.346  11.901
52651W        W25065  26.687  10.141  12.405
52652W        W25066  34.990   9.885   4.275
52653W        W25067  38.427  14.640  13.873
52654W        W25068   6.877  26.565  13.921
52655W        W25069  31.953  18.607   4.286
52656W        W25070  38.401  22.680  14.431
52657W        W25071  34.002  23.088   2.376
52658W        W25072  38.482  22.714   1.812
52659W        W25073  43.812  12.852   0.282
52660W        W25074  19.695   8.296   1.262
52661W        W25075  25.034   9.735   4.344
52662W        W25076  11.236  19.083   3.803
52663W        W25077   6.879  12.709  13.827
52664W        W25078   2.905  27.971   2.890
52665W        W25079  27.044  39.812   0.385
52666W        W25080  42.331  31.417   3.272
52667W        W25081  40.941  12.611  10.551
52668W        W25082  15.237  11.787  13.404
52669W        W25083  26.018  43.978   5.566
52670W        W25084  39.557  22.620   3.784
52671W        W25085  32.947  29.996   3.297
52672W        W25086  29.125  16.594  12.955
52673W        W25087  36.002  13.132   3.852
52674W        W25088  21.235  17.574  11.590
52675W        W25089   6.857  33.563  13.870
52676W        W25090   0.866  39.056  13.377
52677W        W25091  31.560  39.435   2.189
52678W        W25092  32.572   6.824  13.018
52679W        W25093  33.093   3.278  11.115
52680W        W25094  35.537   1.803   4.223
52681W        W25095  16.730  31.128  14.993
52682W        W25096  27.175  25.593  14.841
52683W        W25097  37.580   8.301  11.515
52684W        W25098  13.248  20.239   3.308
52685W        W25099  24.154  35.520  13.426
52686W        W25100   4.933  33.004   1.817
52687W        W25101  42.782   5.732  11.425
52688W        W25102  20.172  15.689  13.985
52689W        W25103   2.337   6.753  10.641
52690W        W25104   1.347  33.487   2.277
52691W        W25105  29.645  27.086  13.971
52692W        W25106  17.257  15.233   0.807
52693W        W25107   9.383   1.904  12.893
52694W        W25108   4.408  27.005  10.450
52695W        W25109  19.566  10.879  14.515
52696W        W25110  19.595  15.693  13.850
52697W        W25111  34.865  14.134  12.879
52698W        W25112  20.618  38.356   4.685
52699W        W25113  38.476  36.451  12.534
52700W        W25114  26.667  11.365  11.563
52701W        W25115   7.686  36.083  14.770
52702W        W25116  13.262  39.340   4.817
52703W        W25117  29.488  30.999   1.230
52704W        W25118  26.069  12.305  11.103
52705W        W25119  13.308  25.018  10.973
52706W        W25120  28.454  30.530  12.072
52707W        W25121  35.964  15.703  10.557
52708W        W25122  23.131  39.356  12.398
52709W        W25123  40.031  19.672  13.393
52710W        W25124   7.719  30.629  10.636
52711W        W25125  16.729   8.827   1.251
52712W        W25126  31.405  17.157  11.539
52713W        W25127   6.727  14.180  10.627
52714W        W25128   1.897  27.482  13.355
52715W        W25129   4.852  22.199  11.080
52716W        W25130  28.069   7.708   0.957
52717W        W25131  42.337  18.721  12.545
52718W        W25132  33.092  27.946   3.846
52719W        W25133  17.783  11.333   4.157
52720W        W25134  43.946   5.325  11.096
52721W        W25135   3.718  38.839   2.668
52722W        W25136  19.576  29.568   4.268
52723W        W25137  17.116  23.590   5.153
52724W        W25138   6.271  29.597   3.221
52725W        W25139  11.158  18.555  14.031
52726W        W25140  12.275  23.499  12.949
52727W        W25141  10.825  44.997   4.692
52728W        W25142  27.172  10.379  12.968
52729W        W25143  37.022  31.477  14.031
52730W        W25144  27.109  37.942  12.352
52731W        W25145  41.417  18.683   2.733
52732W        W25146  30.029  13.632  10.451
52733W        W25147   4.809  39.329  14.768
52734W        W25148  25.137  29.022  13.316
52735W        W25149   6.783  18.260  14.859
52736W        W25150   1.291  44.427  10.505
52737W        W25151   4.386  43.468   4.129
52738W        W25152  19.561  41.852   2.873
52739W        W25153  29.141  11.343  14.997
52740W        W25154  17.081  27.685   2.899
52741W        W25155  10.636  13.724   4.618
52742W        W25156  12.161  20.735   2.371
52743W        W25157   3.940  12.814  11.476
52744W        W25158  11.318  22.654   2.272
52745W        W25159  33.076  10.827  10.599
52746W        W25160   0.953   3.909   0.404
52747W        W25161  44.305   4.703   4.307
52748W        W25162   6.693  31.946  11.454
52749W        W25163  39.932   0.452  14.338
52750W        W25164  23.633   9.285   2.243
52751W        W25165  13.737  17.652   1.372
52752W        W25166   2.767  41.985  10.607
52753W        W25167  36.443  14.794   2.829
52754W        W25168  37.939  28.577   1.826
52755W        W25169  27.528  39.385   2.213
52756W        W25170   1.427  19.568  10.497
52757W        W25171  17.211  10.835   0.784
52758W        W25172  38.848  42.825   4.289
52759W        W25173   3.387  14.815   9.614
52760W        W25174  13.746   7.376   2.769
52761W        W25175  30.015  43.889   3.269
52762W        W25176  28.501  11.634  14.003
52763W        W25177  25.202  27.565  12.467
52764W        W25178  26.199   4.418  14.781
52765W        W25179   0.273  17.707   4.355
52766W        W25180  33.040  27.130   4.322
52767W        W25181  21.139  18.710   2.370
52768W        W25182  10.784  18.599  11.051
52769W        W25183  35.458   0.400   2.786
52770W        W25184  39.545  20.148  14.385
52771W        W25185  31.970   3.716   3.301
52772W        W25186  22.109  10.260  14.825
52773W        W25187  14.237   0.482  10.923
52774W        W25188  26.207  40.977  13.478
52775W        W25189   2.247  33.507  11.443
52776W        W25190   8.213  20.756   2.837
52777W        W25191  39.005  15.244   4.152
52778W        W25192  14.191  24.637  13.969
52779W        W25193  43.983  42.960  13.800
52780W        W25194  30.038  33.906  11.439
52781W        W25195  30.653  35.925  12.050
52782W        W25196  35.428   7.389  13.380
52783W        W25197  36.356  29.093  13.513
52784W        W25198  40.898  19.210  11.990
52785W        W25199  15.639   8.253   5.653
52786W        W25200  32.103  30.530  13.481
52787W        W25201  34.980  10.218  13.523
52788W        W25202  28.097  36.512   2.378
52789W        W25203  27.578  31.610  14.438
52790W        W25204   0.306  27.016  14.413
52791W        W25205  32.015  36.568   1.821
52792W        W25206   9.766  20.607  10.564
52793W        W25207  44.957  10.708  13.001
52794W        W25208  24.615  42.002   1.741
52795W        W25209  29.963  34.078   0.803
52796W        W25210  15.783   7.385   3.747
52797W        W25211  41.439  12.141   3.735
52798W        W25212  22.692   8.699   4.694
52799W        W25213   9.705  26.059   3.803
52800W        W25214  29.511  15.724   4.251
52801W        W25215  33.937   4.717   4.309
52802W        W25216  28.625  17.592  12.455
52803W        W25217  11.831  11.233  14.833
52804W        W25218  37.354  22.148   4.794
52805W        W25219  20.663  38.914   3.191
52806W        W25220  41.408  33.126   0.803
52807W        W25221   2.727  43.282  13.345
52808W        W25222  18.629  21.666  13.457
52809W        W25223  14.320  33.525   3.350
52810W        W25224  40.022  34.548   1.276
52811W        W25225  14.252  13.824   0.392
52812W        W25226  23.641  24.141   3.231
52813W        W25227  34.495   3.390   1.271
52814W        W25228  14.621  29.510   2.753
52815W        W25229   5.364  14.098   5.152
52816W        W25230  11.161  36.089   3.688
52817W        W25231  41.504  14.712   1.451
52818W        W25232  42.809  17.800  13.506
52819W        W25233  18.756  10.150  13.063
52820W        W25234   7.876  40.897  11.453
52821W        W25235  28.032  37.428   5.127
52822W        W25236  38.517  35.445  12.369
52823W        W25237   8.666  25.013  13.505
52824W        W25238  28.038  30.987  10.407
52825W        W25239  38.355  34.098  10.902
52826W        W25240  26.516   9.201   1.346
52827W        W25241  21.248  35.467  12.974
52828W        W25242  32.442  13.701  10.920
52829W        W25243  30.473  11.779  12.973
52830W        W25244  14.097   8.328  10.993
52831W        W25245   2.331  14.625  12.051
52832W        W25246  40.027  25.708   1.349
52833W        W25247   7.261  43.832  12.403
52834W        W25248  21.531  10.306  13.351
52835W        W25249  23.517  36.941  10.902
52836W        W25250  24.158  24.482  11.025
52837W        W25251  24.198   2.945   4.215
52838W        W25252  29.126  40.955  14.915
52839W        W25253   5.833  19.131  11.925
52840W        W25254   3.803  24.091  10.911
52841W        W25255   7.202  18.735  14.277
52842W        W25256  10.342  10.319   3.717
52843W        W25257  22.538   1.451   3.157
52844W        W25258   2.321  36.991  14.935
52845W        W25259  27.988  32.496   4.783
52846W        W25260  15.137  37.532  13.977
52847W        W25261  28.931   9.756   0.335
52848W        W25262   6.735  36.978   2.240
52849W        W25263  33.532  37.507   3.163
52850W        W25264  25.507  17.645   1.361
52851W        W25265  43.326  40.993   3.775
52852W        W25266  22.141  22.068   3.839
52853W        W25267   1.956   7.194   4.305
52854W        W25268   6.754  40.356   1.787
52855W        W25269  17.692  37.029   0.826
52856W        W25270  24.166   0.273  13.475
52857W        W25271  20.751  27.088   1.370
52858W        W25272   3.906   4.400   4.228
52859W        W25273  32.894  25.471   3.765
52860W        W25274  14.227  19.649   2.796
52861W        W25275  11.727  28.076  13.025
52862W        W25276  17.632  30.083   2.244
52863W        W25277  37.921  38.980   2.353
52864W        W25278  29.605  12.201  13.909
52865W        W25279  11.159   8.182   3.353
52866W        W25280  41.943  17.137   0.744
52867W        W25281  31.557   1.789  10.595
52868W        W25282  31.965  40.002   1.239
52869W        W25283   4.936  24.974  12.921
52870W        W25284  21.695  37.368  12.074
52871W        W25285  18.689  30.542  12.065
52872W        W25286  36.969   2.841  11.104
52873W        W25287  26.461  41.396  14.509
52874W        W25288  32.021  23.144  11.923
52875W        W25289  31.074  25.623  13.855
52876W        W25290  39.961  41.361   4.137
52877W        W25291  32.410  12.731  11.452
52878W        W25292   5.848  14.602   4.249
52879W        W25293  28.493  30.143  13.449
52880W        W25294   9.286  30.147  10.424
52881W        W25295  10.292   8.882  11.083
52882W        W25296  39.520  26.102  13.865
52883W        W25297   4.756  30.027  11.908
52884W        W25298   7.846  39.054   2.735
52885W        W25299  17.204  41.838  12.541
52886W        W25300  40.867  36.901   4.234
52887W        W25301  15.661   2.942  14.759
52888W        W25302  13.693  22.599   2.790
52889W        W25303  19.661  18.689   5.112
52890W        W25304  28.014  11.258   3.229
52891W        W25305  13.643  24.182   0.459
52892W        W25306  24.018   6.250   5.233
52893W        W25307  37.973  42.372  11.920
52894W        W25308   5.776  41.415   5.708
52895W        W25309   6.726  38.979  13.490
52896W        W25310  39.533  35.458   2.330
52897W        W25311  35.985  43.312  10.974
52898W        W25312  24.215  33.958   4.288
52899W        W25313   0.759  27.035  14.926
52900W        W25314  26.113  12.182   1.337
52901W        W25315  44.398  34.061   0.269
52902W        W25316  30.090  43.943   4.267
52903W        W25317  40.825   5.691   4.198
52904W        W25318  31.413  42.818   1.879
52905W        W25319   5.800  40.873  14.345
52906W        W25320  42.505  31.468  11.489
52907W        W25321  42.866   8.770   0.444
52908W        W25322  42.450  27.545   0.443
52909W        W25323  27.566   5.196  12.977
52910W        W25324  33.430  42.463   4.204
52911W        W25325   3.802   6.312  11.951
52912W        W25326  17.605  30.449  12.076
52913W        W25327  26.968  37.397  11.419
52914W        W25328  28.576  29.056   2.669
52915W        W25329  17.694  15.619  11.892
52916W        W25330  36.457  43.913  12.884
52917W        W25331  21.677  23.617  10.501
52918W        W25332   6.801  37.420  10.563
52919W        W25333  32.545  31.578   2.179
52920W        W25334  41.948  38.381   1.278
52921W        W25335  38.444  19.252  13.055
52922W        W25336   3.912  36.082   0.940
52923W        W25337  21.637   2.397   3.319
52924W        W25338   3.214   1.818  11.054
52925W        W25339   1.424  10.366   3.838
52926W        W25340  15.721  20.060  14.930
52927W        W25341  20.147  30.494  12.381
52928W        W25342   9.676  19.125   2.356
52929W        W25343   9.225  43.920   2.855
52930W        W25344  12.293  11.695   3.846
52931W        W25345   9.342  29.048   1.354
52932W        W25346  18.084  34.899  12.993
52933W        W25347  43.999  15.284  13.911
52934W        W25348  38.951  44.996   4.632
52935W        W25349  33.614  22.740  12.484
52936W        W25350  10.679  27.106  13.989
52937W        W25351  14.688   9.707  13.390
52938W        W25352   5.782  28.983  13.387
52939W        W25353  39.365   6.684  13.386
52940W        W25354   6.402  25.109   1.323
52941W        W25355  21.534  32.116  13.038
52942W        W25356  20.213  31.129   3.795
52943W        W25357  32.947  24.534   3.229
52944W        W25358  11.715  16.216   4.248
52945W        W25359  18.789  24.518  13.353
52946W        W25360  19.119  24.167  14.447
52947W        W25361   2.728  29.091   2.701
52948W        W25362  13.248  19.538   2.672
52949W        W25363   5.711  44.797   4.739
52950W        W25364  39.414   2.923   2.265
52951W        W25365   6.868  23.167  12.391
52952W        W25366  36.928  35.039  10.605
52953W        W25367  38.446  13.330   1.402
52954W        W25368  18.732  11.180  12.358
52955W        W25369  40.418  40.983   2.217
52956W        W25370  36.847  29.438   4.688
52957W        W25371  15.604   6.422  10.609
52958W        W25372  42.896  23.124  11.871
52959W        W25373  22.150  30.085   2.375
52960W        W25374   0.779  17.269   5.152
52961W        W25375  23.155  23.175  13.844
52962W        W25376   9.296   8.188  13.003
52963W        W25377   7.868  36.455  14.290
52964W        W25378  44.794  20.040  11.009
52965W        W25379   4.261  40.837  11.950
52966W        W25380   6.919  17.679  11.391
52967W        W25381  18.192  24.687  10.529
52968W        W25382  17.063  10.657   0.342
52969W        W25383  43.912  19.178  13.359
52970W        W25384   0.840  17.076   1.745
52971W        W25385   2.830  26.594  12.093
52972W        W25386  21.715  10.872   1.300
52973W        W25387  32.905  44.785   0.466
52974W        W25388  41.372   7.843   0.373
52975W        W25389  41.031   9.835  12.546
52976W        W25390  14.685  28.111  10.621
52977W        W25391  34.997  10.374  13.861
52978W        W25392  31.439  14.782   0.815
52979W        W25393  22.229  27.165  11.968
52980W        W25394  37.445  43.916  13.041
52981W        W25395  35.418  30.136   4.608
52982W        W25396  40.410  16.234   3.223
52983W        W25397   3.770  17.234   1.262
52984W        W25398   1.896   1.970   3.234
52985W        W25399   0.890  27.036   1.329
52986W        W25400  21.073   5.362  14.760
52987W        W25401  28.098   4.326  10.022
52988W        W25402  33.558  31.004   4.752
52989W        W25403  11.365   7.264   0.355
52990W        W25404  11.794  31.619  13.325
52991W        W25405  22.628  43.507  14.759
52992W        W25406  11.775  22.618  14.397
52993W        W25407  11.627  25.694   1.923
52994W        W25408  40.894  37.480  10.923
52995W        W25409  14.264  32.612   0.430
52996W        W25410  28.073   4.906   2.890
52997W        W25411  28.657  42.849   3.659
52998W        W25412  40.416  28.461   3.378
52999W        W25413   2.875   1.809  11.911
53000W        W25414  32.015   9.272   0.873
53001W        W25415  19.718  33.125  13.531
53002W        W25416  39.481   0.289  12.548
53003W        W25417  11.164   0.903   3.809
53004W        W25418  30.982   3.844   0.345
53005W        W25419  33.058  13.763   4.245
53006W        W25420  10.869  11.702  13.317
53007W        W25421   0.460  35.453  11.480
53008W        W25422  16.199  17.284  14.350
53009W        W25423  22.231  16.271   4.666
53010W        W25424   5.322   9.252  11.380
53011W        W25425   6.333  31.642   2.196
53012W        W25426  34.524  11.830   4.761
53013W        W25427  31.453  11.251   4.675
53014W        W25428   7.762  38.990  10.965
53015W        W25429   7.213  27.671  14.443
53016W        W25430  30.565  41.353  11.561
53017W        W25431   8.352  37.068   4.157
53018W        W25432  44.495   5.782   3.335
53019W        W25433   9.270  32.125  14.993
53020W        W25434   1.452  14.248  14.416
53021W        W25435   6.236  44.852   1.810
53022W        W25436  27.520   8.186   2.225
53023W        W25437  12.200  39.516   2.840
53024W        W25438  40.866  13.141  12.878
53025W        W25439   7.393   4.842   3.247
53026W        W25440  18.180  27.115  11.983
53027W        W25441  24.027  13.702   1.719
53028W        W25442  44.422  41.408  13.903
53029W        W25443  27.068  36.484  11.578
53030W        W25444  10.192  36.856  11.985
53031W        W25445  13.255  32.040  12.026
53032W        W25446  39.839  40.842  11.566
53033W        W25447  24.659  43.322   0.832
53034W        W25448  30.581  21.197  13.489
53035W        W25449  29.439  37.906   3.841
53036W        W25450  16.231  40.909  14.420
53037W        W25451  10.151  33.601   0.261
53038W        W25452  18.596  29.016   2.841
53039W        W25453  41.428  42.445  14.989
53040W        W25454  11.810   5.404  14.349
53041W        W25455   0.345   8.841   4.781
53042W        W25456  25.616  15.785   0.919
53043W        W25457  16.738   1.971  10.571
53044W        W25458  14.311  24.513  14.411
53045W        W25459  30.979  12.775   4.824
53046W        W25460  28.938  19.133  11.013
53047W        W25461  15.190  28.118   3.291
53048W        W25462  14.805  23.056   4.189
53049W        W25463  31.569  43.398   2.687
53050W        W25464  16.213  29.609  11.958
53051W        W25465  20.652  36.861   2.818
53052W        W25466   3.858  35.379  14.948
53053W        W25467  36.944  38.982   3.257
53054W        W25468  28.974  21.245   0.811
53055W        W25469  22.185   7.759   3.340
53056W        W25470   0.446  42.295  12.492
53057W        W25471  19.080   0.894   4.156
53058W        W25472  42.981   0.364   3.361
53059W        W25473  17.062  12.256  12.895
53060W        W25474  31.085  42.996  11.564
53061W        W25475   6.887  29.630  12.411
53062W        W25476  40.328  12.254   0.766
53063W        W25477   4.253  40.826   3.736
53064W        W25478   2.341  30.022  11.479
53065W        W25479  26.527  38.004  12.849
53066W        W25480  23.000  41.816   3.173
53067W        W25481  20.601  31.965   3.833
53068W        W25482  11.790   4.765  10.070
53069W        W25483  14.208  29.597   1.742
53070W        W25484   3.938   3.389   1.260
53071W        W25485  16.257  11.829   2.195
53072W        W25486  43.386  27.964   0.447
53073W        W25487  27.069  32.111   1.246
53074W        W25488  13.753  32.600   3.192
53075W        W25489   7.259  27.679  14.795
53076W        W25490  39.455  14.737   1.867
53077W        W25491   4.378  40.948   2.681
53078W        W25492  14.214  27.477   3.865
53079W        W25493  23.501  14.767  11.096
53080W        W25494  42.886   0.427  11.095
53081W        W25495  36.957   0.837   0.736
53082W        W25496   4.426  11.299   4.686
53083W        W25497  11.284  35.000   4.202
53084W        W25498  36.896  32.511   1.286
53085W        W25499  36.977   8.223   4.259
53086W        W25500  33.558  29.634   2.196
53087W        W25501  32.402  42.373   2.336
53088W        W25502  17.243  15.305   3.251
53089W        W25503  19.693  12.297   0.889
53090W        W25504  17.735   6.293   2.247
53091W        W25505  31.606  38.481   0.323
53092W        W25506  41.455   1.367   2.684
53093W        W25507  38.365   7.767   3.239
53094W        W25508  29.494  10.224   0.729
53095W        W25509   1.361  17.229  14.497
53096W        W25510  24.513   9.339  11.865
53097W        W25511  42.318   7.359  10.474
53098W        W25512  35.044  34.023   1.924
53099W        W25513  24.664  35.359  14.512
53100W        W25514  11.223  28.183  13.417
53101W        W25515  41.435   7.394   4.264
53102W        W25516  36.936  27.190   4.700
53103W        W25517  37.466  24.613  10.927
53104W        W25518  35.926  14.625   3.252
53105W        W25519  23.520  30.034  14.962
53106W        W25520   3.711  35.383   4.226
53107W        W25521   7.343   3.922  14.373
53108W        W25522  26.145  19.267   3.175
53109W        W25523  17.581   0.389  12.968
53110W        W25524   8.890  37.369  12.960
53111W        W25525  22.018  34.032   2.326
53112W        W25526  28.617   4.941  13.337
53113W        W25527  34.445  20.734  10.146
53114W        W25528  30.052  25.183  11.969
53115W        W25529  28.006  27.997  11.087
53116W        W25530   0.343   3.798  14.409
53117W        W25531  27.145  17.275   0.368
53118W        W25532  32.543  13.832   2.802
53119W        W25533  16.081  17.707  14.390
53120W        W25534   0.398   8.792  14.014
53121W        W25535  35.963  35.074   2.827
53122W        W25536   4.296  26.207  14.019
53123W        W25537  27.047  42.908   0.841
53124W        W25538  29.935  31.096  11.911
53125W        W25539  20.271  16.181  13.793
53126W        W25540  31.075  19.595   5.312
53127W        W25541  10.245  23.012  14.847
53128W        W25542  34.439  33.101  11.602
53129W        W25543  39.032  12.340   0.258
53130W        W25544  18.550  13.687   0.800
53131W        W25545   9.199  43.507  11.541
53132W        W25546  27.981  11.354   9.963
53133W        W25547  27.064   6.813   3.639
53134W        W25548  25.181   3.248   1.780
53135W        W25549  41.896  43.491   4.761
53136W        W25550  42.504  28.554  12.075
53137W        W25551  42.392   8.330  14.992
53138W        W25552  30.985  40.832   0.245
53139W        W25553  31.404   2.875   2.821
53140W        W25554  15.777  39.400   1.838
53141W        W25555  38.022  34.109  13.321
53142W        W25556  25.187  38.917   1.286
53143W        W25557  12.799  35.490   4.171
53144W        W25558  21.608   2.845  11.385
53145W        W25559  30.575   6.230   3.826
53146W        W25560  36.949  22.070   1.430
53147W        W25561  36.470  23.125   5.729
53148W        W25562  37.936   3.808   2.321
53149W        W25563   2.346  38.071   0.830
53150W        W25564  43.426  10.820  12.539
53151W        W25565  29.019   0.850   1.782
53152W        W25566  12.713  33.536   1.851
53153W        W25567  12.786   2.299   1.767
53154W        W25568  30.630   0.985  10.438
53155W        W25569   3.227  34.024   1.271
53156W        W25570   1.807  42.458  13.491
53157W        W25571   5.844   0.785  13.904
53158W        W25572  43.495  36.418  12.852
53159W        W25573  31.450   2.449  14.284
53160W        W25574  31.914  32.952  14.819
53161W        W25575  33.596  33.940  10.448
53162W        W25576   0.766  34.600  10.895
53163W        W25577  17.564  39.454   3.161
53164W        W25578  20.713  39.002  13.339
53165W        W25579   4.907  17.126   1.363
53166W        W25580  36.512  32.600  11.113
53167W        W25581  36.917  42.905   3.361
53168W        W25582  16.193   8.872  13.982
53169W        W25583   4.441  10.829   0.478
53170W        W25584  33.389  36.862   0.274
53171W        W25585  38.373  11.666   0.302
53172W        W25586  18.139   9.856   2.828
53173W        W25587  31.439  30.091   2.800
53174W        W25588  35.085   1.460  10.471
53175W        W25589  17.075  33.912  10.914
53176W        W25590  35.570  34.884  13.493
53177W        W25591  21.569  44.356   3.380
53178W        W25592  16.132   8.218  10.449
53179W        W25593  13.267  25.492  11.553
53180W        W25594  25.703  40.382   0.355
53181W        W25595  36.419  33.034  11.582
53182W        W25596  27.516  29.935  11.375
53183W        W25597  16.785  15.325   4.625
53184W        W25598  38.525  27.180   3.325
53185W        W25599  22.530  29.103   0.856
53186W        W25600  30.447  14.656   0.399
53187W        W25601  18.178   3.260   4.678
53188W        W25602  42.412  42.404  14.762
53189W        W25603  14.180  32.613   2.772
53190W        W25604   0.466  37.398   2.807
53191W        W25605  43.308   2.317  11.965
53192W        W25606  22.015  28.170   0.379
53193W        W25607  39.809  15.662  11.907
53194W        W25608  40.420   7.311  10.645
53195W        W25609   8.778  35.375  10.421
53196W        W25610  33.471  43.272   2.667
53197W        W25611  15.302   3.867  11.101
53198W        W25612   8.833  31.506   2.881
53199W        W25613  25.190  29.535  13.896
53200W        W25614  18.784  40.431  13.347
53201W        W25615   3.336   6.815   3.772
53202W        W25616  42.846  21.591  14.357
53203W        W25617  26.516  37.497   5.200
53204W        W25618  44.482  10.638   2.809
53205W        W25619  32.008  36.899   3.857
53206W        W25620   8.724   8.703   1.784
53207W        W25621  33.379  36.510   0.941
53208W        W25622  12.192  25.708  11.422
53209W        W25623  37.850  13.727   3.833
53210W        W25624  29.965   6.806  12.446
53211W        W25625  38.874  34.545   2.184
53212W        W25626   9.335  31.408  12.407
53213W        W25627  33.981   6.188   2.416
53214W        W25628  20.672  22.680   2.673
53215W        W25629   6.913  44.993   2.840
53216W        W25630  27.686  42.993  14.316
53217W        W25631  25.059  19.747   2.206
53218W        W25632  41.449  11.346  14.820
53219W        W25633   3.329  25.535   0.470
53220W        W25634  21.712  14.630   1.314
53221W        W25635  28.956  16.779   2.795
53222W        W25636  41.928  38.540  14.829
53223W        W25637  40.805  25.636  12.838
53224W        W25638  22.050   4.333  11.453
53225W        W25639   1.841  40.455   4.229
53226W        W25640  24.095   9.329  14.870
53227W        W25641  14.323  22.057  14.373
53228W        W25642   3.397  19.655   9.927
53229W        W25643  43.942  44.992   0.257
53230W        W25644  32.408  32.411   0.282
53231W        W25645   2.935  42.351   0.829
53232W        W25646   4.832  26.042  12.390
53233W        W25647  20.719  44.888   2.313
53234W        W25648  39.860  21.741  12.401
53235W        W25649   5.301  39.940   2.301
53236W        W25650  36.436  21.559   0.378
53237W        W25651  30.447  28.467   3.711
53238W        W25652  35.598  17.105   0.367
53239W        W25653  14.613  41.016   3.151
53240W        W25654  10.727  22.105  14.391
53241W        W25655   5.340  33.095  13.852
53242W        W25656   2.440   9.834  14.819
53243W        W25657  33.438   5.321  11.560
53244W        W25658  24.989  10.304   1.270
53245W        W25659  35.044  42.374   1.706
53246W        W25660  22.703  33.899  13.409
53247W        W25661  12.795  15.104  14.504
53248W        W25662  28.162  11.701   2.831
53249W        W25663   0.478  31.414   0.295
53250W        W25664  27.076  13.840  10.463
53251W        W25665   2.403  22.572  10.906
53252W        W25666  17.219  24.089   4.772
53253W        W25667  24.537  29.665   0.335
53254W        W25668  11.209  42.315  14.303
53255W        W25669  39.521  15.312  12.836
53256W        W25670  13.122  24.629  13.842
53257W        W25671  15.777   8.687   2.180
53258W        W25672  18.245  15.301  13.907
53259W        W25673   5.887  44.945   0.912
53260W        W25674   1.968  39.382  10.485
53261W        W25675   0.827  14.240   5.146
53262W        W25676  12.631  28.951   4.115
53263W        W25677  32.429  40.826   4.721
53264W        W25678  20.209  28.994   2.703
53265W        W25679  23.039   5.335   3.682
53266W        W25680  42.451  14.286   5.184
53267W        W25681  19.607  39.350   1.805
53268W        W25682  10.661   5.433  14.989
53269W        W25683  33.441  37.997  14.781
53270W        W25684  11.829   5.752  12.467
53271W        W25685  21.109  25.146  13.497
53272W        W25686  42.328  26.657  12.884
53273W        W25687  38.072  28.677   4.218
53274W        W25688  18.079  13.793   2.384
53275W        W25689  12.267  24.723  13.834
53276W        W25690  23.508  19.198  10.900
53277W        W25691  28.602  33.945   3.344
53278W        W25692   4.783  33.609   0.932
53279W        W25693  44.259  22.084  13.898
53280W        W25694   2.389   8.282  13.440
53281W        W25695  29.639  36.847   2.755
53282W        W25696   5.877  44.824  12.067
53283W        W25697  26.951  33.961  10.910
53284W        W25698  24.596  26.535  14.381
53285W        W25699   7.882  25.707   3.277
53286W        W25700  27.577  23.696  10.466
53287W        W25701  33.089  40.542  14.324
53288W        W25702  44.279  10.319   0.930
53289W        W25703  36.529   2.931  11.383
53290W        W25704  21.632   9.706  14.396
53291W        W25705  40.392  36.033   4.598
53292W        W25706   0.759  11.735  12.028
53293W        W25707  15.799  34.104  13.529
53294W        W25708  38.502  11.833  10.606
53295W        W25709  13.197   9.887  11.033
53296W        W25710  23.678  14.757  12.908
53297W        W25711  22.177   0.947   2.749
53298W        W25712  24.654  10.191  10.416
53299W        W25713  14.829  10.296   2.670
53300W        W25714  19.714  29.068   1.332
53301W        W25715  38.956   5.240  13.524
53302W        W25716  27.671  43.967  12.442
53303W        W25717  33.524   3.886  12.892
53304W        W25718   0.457   3.452  14.318
53305W        W25719  25.540  23.659  11.383
53306W        W25720  26.488  13.143  14.947
53307W        W25721  34.542   2.391   4.643
53308W        W25722  12.141  10.764  14.423
53309W        W25723  24.053  19.184  14.288
53310W        W25724  38.870  21.735  10.512
53311W        W25725  33.967  38.001   2.830
53312W        W25726  10.321  12.635   2.401
53313W        W25727  20.615  14.275   2.865
53314W        W25728  36.040  21.535   1.731
53315W        W25729  30.963  16.075   4.779
53316W        W25730  22.196  43.347  13.032
53317W        W25731  12.272  11.773  11.010
53318W        W25732  24.081  35.564   3.229
53319W        W25733  22.707  43.318   0.438
53320W        W25734   6.315  30.491   2.248
53321W        W25735  19.689  18.547   1.280
53322W        W25736  16.662   2.920   0.926
53323W        W25737   3.432   1.465   0.838
53324W        W25738   4.328  14.651  13.847
53325W        W25739  25.171  31.030   5.156
53326W        W25740  42.909  36.908   3.714
53327W        W25741  24.207  28.592  13.816
53328W        W25742  42.814  23.522   3.313
53329W        W25743  15.688  42.390  10.452
53330W        W25744  18.229  18.655   1.830
53331W        W25745   0.853  39.530   0.869
53332W        W25746  22.687  15.193  13.889
53333W        W25747  17.792  29.609   3.251
53334W        W25748  30.002  35.500  13.960
53335W        W25749  43.979   3.798   1.837
53336W        W25750   9.345  31.573  10.634
53337W        W25751  21.204  39.876   2.683
53338W        W25752  38.383  34.554  14.455
53339W        W25753   3.942  24.148  10.523
53340W        W25754  26.588  44.458  10.037
53341W        W25755  24.008  29.993  11.413
53342W        W25756  25.615   6.318   2.665
53343W        W25757   9.880  42.931  13.531
53344W        W25758  41.905  32.578   3.287
53345W        W25759  24.085  26.113   3.170
53346W        W25760  36.528  40.401   1.884
53347W        W25761  12.762  19.630   1.290
53348W        W25762  17.200  12.343  10.514
53349W        W25763  38.362  11.221  14.850
53350W        W25764  31.933  13.220  11.897
53351W        W25765  12.276  43.018  11.594
53352W        W25766  18.629  43.886  14.023
53353W        W25767  20.629  10.814   0.935
53354W        W25768  24.152  22.098   0.811
53355W        W25769   7.808   1.285  12.061
53356W        W25770  18.589  42.025   3.334
53357W        W25771  18.691  17.150   3.220
53358W        W25772  36.414   5.924  13.370
53359W        W25773  39.972  30.967   4.681
53360W        W25774  12.673  43.810  11.893
53361W        W25775  28.978  40.963   0.967
53362W        W25776  25.507  39.992   0.295
53363W        W25777  37.933  31.585  10.945
53364W        W25778  37.926   1.847   5.208
53365W        W25779  23.590  33.529  10.478
53366W        W25780  43.301   1.942  10.957
53367W        W25781  13.601  19.709   0.848
53368W        W25782  32.630  29.929  11.416
53369W        W25783  24.082  24.688   4.301
53370W        W25784  29.022  19.100  10.511
53371W        W25785  19.272  23.598   2.336
53372W        W25786  15.147   1.374  11.958
53373W        W25787  44.398  12.161  10.578
53374W        W25788  26.003  14.732  12.847
53375W        W25789   3.254  16.773   3.711
53376W        W25790  33.475  16.726   4.154
53377W        W25791   4.444  20.176   3.831
53378W        W25792  15.630  17.612   9.643
53379W        W25793  43.275  17.789   1.380
53380W        W25794   5.250  27.540   4.635
53381W        W25795  14.124  34.601  10.537
53382W        W25796   4.802  39.898  13.866
53383W        W25797  38.048   1.393  14.780
53384W        W25798  31.476   2.394   1.789
53385W        W25799  32.488  17.753  13.857
53386W        W25800  15.804  40.483   0.318
53387W        W25801  40.483  41.979  12.030
53388W        W25802   0.443   8.759   3.290
53389W        W25803  43.924  37.907  13.475
53390W        W25804  15.648  43.296   2.761
53391W        W25805  33.097  38.475  10.407
53392W        W25806  17.085  13.292   0.397
53393W        W25807  32.117   9.717  14.823
53394W        W25808  39.380  38.959  10.440
53395W        W25809  29.513  12.780   4.686
53396W        W25810  36.889  41.498   4.684
53397W        W25811  30.458  29.996  14.963
53398W        W25812  36.396  26.506  14.974
53399W        W25813   5.701  24.498  14.005
53400W        W25814  30.433  38.422  12.566
53401W        W25815   2.445  25.997   4.191
53402W        W25816  30.098  24.998  10.594
53403W        W25817  18.617  21.105   1.438
53404W        W25818  29.951  32.546  14.351
53405W        W25819  19.706  27.165   0.420
53406W        W25820   4.756  11.626  13.032
53407W        W25821  16.611  31.906   3.178
53408W        W25822  18.086  29.100   4.700
53409W        W25823   8.883  29.482  12.548
53410W        W25824   1.958  20.661  13.481
53411W        W25825  41.335   1.280   1.227
53412W        W25826  31.520  36.974  12.573
53413W        W25827  14.297  44.972  12.475
53414W        W25828  44.419  31.568   2.754
53415W        W25829  29.145   8.654   2.396
53416W        W25830  22.659  28.478  11.537
53417W        W25831  35.596  37.979   0.351
53418W        W25832   5.751  19.210  11.556
53419W        W25833   8.857   9.173  12.008
53420W        W25834   6.217  28.458  11.961
53421W        W25835  37.336   2.241  10.551
53422W        W25836   1.927  35.463   2.893
53423W        W25837   6.764  38.061  12.869
53424W        W25838  44.803  41.292   2.854
53425W        W25839  12.822   9.203   1.368
53426W        W25840  34.111   6.350  14.494
53427W        W25841  38.917  20.538  14.781
53428W        W25842   0.413  41.481  12.560
53429W        W25843  23.112  21.250   0.480
53430W        W25844  18.072   0.474  10.412
53431W        W25845  42.965  37.489   3.718
53432W        W25846  38.011   9.190  12.525
53433W        W25847  11.686   6.782  11.446
53434W        W25848  32.521  21.584   3.287
53435W        W25849   6.763  22.708   2.359
53436W        W25850  27.570  43.860  10.426
53437W        W25851  15.237  35.419   2.837
53438W        W25852   6.218  22.621  13.948
53439W        W25853  17.682  29.031  13.434
53440W        W25854  34.880   3.795   1.807
53441W        W25855  17.159  15.194   1.873
53442W        W25856  13.244  35.496  13.944
53443W        W25857  38.919  10.198   1.752
53444W        W25858  23.635  24.563   2.231
53445W        W25859   9.224  29.014  11.992
53446W        W25860  30.542  30.132   3.698
53447W        W25861  25.197  11.767  14.286
53448W        W25862  32.393  30.111   2.719
53449W        W25863  38.363  36.517  10.417
53450W        W25864  14.610  41.841  13.505
53451W        W25865  23.635  14.125  10.889
53452W        W25866  34.493  22.126   1.371
53453W        W25867  37.858  34.587  11.957
53454W        W25868  18.052  38.926   3.296
53455W        W25869  31.995  36.347  12.389
53456W        W25870  40.462   7.881   3.783
53457W        W25871  15.633  22.235   3.808
53458W        W25872  34.908  10.647   2.302
53459W        W25873  42.414  25.533  13.489
53460W        W25874   1.867  20.574   3.673
53461W        W25875  15.107  37.577  10.420
53462W        W25876  25.520   4.737   9.999
53463W        W25877  30.513  37.419  10.555
53464W        W25878  22.704  22.642  13.880
53465W        W25879   6.737  10.867  14.948
53466W        W25880  36.072  29.959   4.257
53467W        W25881   3.413  28.093  14.762
53468W        W25882  23.668  34.922  12.462
53469W        W25883  24.037  43.445  11.935
53470W        W25884  33.474  17.662  14.429
53471W        W25885  38.553   7.170  14.912
53472W        W25886  18.769  43.855  12.931
53473W        W25887   7.203  16.239   0.963
53474W        W25888  31.594  34.518   0.373
53475W        W25889   4.702  24.518  10.634
53476W        W25890   6.343  38.450  12.402
53477W        W25891   2.869  34.513  11.896
53478W        W25892  14.298   0.805  13.412
53479W        W25893  24.703   1.396   3.230
53480W        W25894  24.999   8.811   1.830
53481W        W25895  44.915  43.361   1.841
53482W        W25896   1.262  14.188   1.243
53483W        W25897  28.534   9.245  11.394
53484W        W25898  29.603  37.865  12.575
53485W        W25899   4.274  40.449  13.895
53486W        W25900  40.962  25.679  12.038
53487W        W25901  12.750   1.245  10.490
53488W        W25902  11.788  32.442  13.993
53489W        W25903   0.784  29.425   3.860
53490W        W25904  27.549   7.667  11.473
53491W        W25905   5.383   0.931   3.739
53492W        W25906   6.709   8.373   0.369
53493W        W25907  21.530   4.707  14.795
53494W        W25908  28.511  33.556  13.892
53495W        W25909   7.720  40.018  10.425
53496W        W25910  35.469  12.711  14.382
53497W        W25911  11.337  32.589   4.251
53498W        W25912  28.673  32.409   0.855
53499W        W25913  25.691  40.410   2.724
53500W        W25914  12.657   6.706   9.627
53501W        W25915  44.334  35.512   3.715
53502W        W25916   3.374  29.107  11.466
53503W        W25917  13.807  13.292  13.438
53504W        W25918  25.038   1.854   0.242
53505W        W25919  35.373  14.259   1.770
53506W        W25920  38.981  21.522  12.847
53507W        W25921  38.983   0.967  13.490
53508W        W25922  36.031  44.772   2.901
53509W        W25923  17.743  43.335   2.273
53510W        W25924  20.070  32.495  14.443
53511W        W25925   5.303  44.355   3.726
53512W        W25926  15.172  31.646  12.027
53513W        W25927  39.375  19.569   4.278
53514W        W25928  44.378  39.819   9.961
53515W        W25929  17.168  18.280  10.572
53516W        W25930   1.909  18.557   0.444
53517W        W25931  24.168  11.162  13.806
53518W        W25932   1.395   4.903  13.000
53519W        W25933  37.405  16.316  14.851
53520W        W25934  42.894  26.484  13.003
53521W        W25935  44.868  30.961   2.384
53522W        W25936  30.603  18.051  12.980
53523W        W25937  41.970  30.446   5.167
53524W        W25938  41.036  24.225   0.800
53525W        W25939  34.043  23.511   2.406
53526W        W25940  41.338   4.933   0.954
53527W        W25941  43.380  12.155   3.799
53528W        W25942   6.884   6.189  13.809
53529W        W25943  32.953   9.854  13.341
53530W        W25944  22.037   9.769   0.449
53531W        W25945   5.306  35.467  12.468
53532W        W25946  23.212  35.095  14.974
53533W        W25947  32.453  40.799   1.255
53534W        W25948  41.983  25.043  10.158
53535W        W25949  29.442  38.851  12.966
53536W        W25950   9.164  13.795   2.275
53537W        W25951  18.623   3.451   0.925
53538W        W25952  29.968  14.646   4.280
53539W        W25953  44.459  22.611   1.264
53540W        W25954  25.178  31.484  14.424
53541W        W25955   4.375  28.497   5.300
53542W        W25956  22.235  33.105  11.512
53543W        W25957  18.124  10.174   3.152
53544W        W25958  34.552  41.516  12.039
53545W        W25959  22.233   0.300   2.268
53546W        W25960  33.102  16.753  11.085
53547W        W25961   6.301  14.104  11.953
53548W        W25962  31.545   7.704   3.678
53549W        W25963  38.024  44.978   0.814
53550W        W25964   5.801  44.293  13.369
53551W        W25965  18.766  32.577   0.349
53552W        W25966  34.000  14.617   2.762
53553W        W25967  16.662  38.380   3.242
53554W        W25968   0.467  23.223  14.434
53555W        W25969  31.091  19.230  13.379
53556W        W25970  13.715  23.144  12.060
53557W        W25971  41.036  10.827   2.390
53558W        W25972  14.097  23.620  14.900
53559W        W25973  39.999  23.518  14.864
53560W        W25974   2.890   4.220  12.981
53561W        W25975  39.370   0.365   1.887
53562W        W25976  28.125  34.523   1.411
53563W        W25977  30.916  12.611  12.429
53564W        W25978  11.317  34.053   3.323
53565W        W25979   7.805   5.827   3.232
53566W        W25980  13.697  31.409   4.131
53567W        W25981  40.994  33.131   4.287
53568W        W25982  33.994   6.372   0.441
53569W        W25983   2.763  33.519  12.533
53570W        W25984  37.425   4.220  10.091
53571W        W25985  29.510  27.147   3.266
53572W        W25986  39.507  16.188  12.389
53573W        W25987  35.941  14.223   2.365
53574W        W25988  28.931   1.391   4.601
53575W        W25989  41.952  19.610   2.773
53576W        W25990   0.453   9.857   2.758
53577W        W25991  36.448   5.738   3.333
53578W        W25992  44.902  26.985   3.308
53579W        W25993   9.285  21.567   4.288
53580W        W25994  21.748  33.891  10.632
53581W        W25995   5.424   9.315   1.895
53582W        W25996  18.151   2.410  13.487
53583W        W25997   4.361  17.279   4.282
53584W        W25998  20.069  21.182   3.274
53585W        W25999   4.319  14.282  13.851
53586W        W26000   9.742  18.281   2.310
53587W        W26001   7.858   8.837   3.803
53588W        W26002   5.208   8.222  10.895
53589W        W26003  37.477  37.565   3.179
53590W        W26004   2.896  15.678   3.739
53591W        W26005  11.862  18.562   4.222
53592W        W26006  13.798  10.833  11.925
53593W        W26007   8.375  40.845  10.586
53594W        W26008  22.219  39.035  13.341
53595W        W26009  37.462  20.268  14.886
53596W        W26010   5.266   1.431   0.457
53597W        W26011  22.995  11.365  13.946
53598W        W26012  42.993  31.069  12.445
53599W        W26013  33.884  38.341  11.444
53600W        W26014  26.638   5.826   2.768
53601W        W26015  36.578  30.944  10.593
53602W        W26016   3.875   0.386   0.415
53603W        W26017  30.610   7.379  10.889
53604W        W26018   4.225  33.894  14.879
53605W        W26019  29.599  30.580   5.308
53606W        W26020   2.345   0.379  12.925
53607W        W26021  44.921  32.427  12.071
53608W        W26022  13.277  12.211  13.396
53609W        W26023  18.779  26.081   1.298
53610W        W26024   9.368  39.053  14.468
53611W        W26025  16.589   0.848  11.999
53612W        W26026  19.122  34.534  13.033
53613W        W26027  22.181  11.862   1.325
53614W        W26028   1.480  37.465   4.756
53615W        W26029  23.567  36.989   3.213
53616W        W26030   0.765  33.571  14.016
53617W        W26031  42.847   7.750  14.929
53618W        W26032  20.593  22.722  13.808
53619W        W26033  17.761  17.230  13.793
53620W        W26034  38.880  21.171  12.484
53621W        W26035  14.617  15.632   0.407
53622W        W26036  14.774  34.414   3.857
53623W        W26037   1.930  39.478  13.513
53624W        W26038  35.544   9.685   4.806
53625W        W26039  13.341  44.293   3.687
53626W        W26040  24.554  29.643  11.530
53627W        W26041  23.096  35.485   3.300
53628W        W26042  33.011  44.783  12.905
53629W        W26043   1.900   8.834   3.238
53630W        W26044  15.684  43.435   0.746
53631W        W26045  25.573  37.353   1.900
53632W        W26046   0.822  23.056   1.254
53633W        W26047  16.166   1.400  11.862
53634W        W26048   5.741  20.057   0.480
53635W        W26049  27.570  26.467  11.031
53636W        W26050  34.435  26.000  11.393
53637W        W26051  15.610   7.871  11.125
53638W        W26052  20.084  16.161  14.507
53639W        W26053  31.459  20.269   3.846
53640W        W26054  16.590  14.684   1.905
53641W        W26055  28.079  18.185  11.399
53642W        W26056  17.291  27.511  14.865
53643W        W26057  17.657  27.500  10.981
53644W        W26058  33.021  30.545  14.303
53645W        W26059  17.129  27.072   2.358
53646W        W26060  29.580  16.753   3.782
53647W        W26061  15.247  15.203  13.361
53648W        W26062  43.324   8.227  11.094
53649W        W26063  37.508   3.246   2.323
53650W        W26064  35.942  23.045   2.675
53651W        W26065  22.618  29.085   1.731
53652W        W26066  21.548  15.739   4.750
53653W        W26067  26.654   2.942   1.815
53654W        W26068  17.753   1.311  12.088
53655W        W26069  13.845  23.076   2.831
53656W        W26070  13.303  28.496   2.710
53657W        W26071  10.741  30.453  11.485
53658W        W26072  24.586  35.049  10.942
53659W        W26073  27.522  36.858  13.872
53660W        W26074  42.309  31.999  12.396
53661W        W26075   7.666  20.738   3.206
53662W        W26076   7.724  33.432  14.334
53663W        W26077  36.573  14.772   2.262
53664W        W26078   7.270   6.220  14.775
53665W        W26079  24.185   8.825   2.409
53666W        W26080  28.148  12.305   3.357
53667W        W26081   2.962  23.026  12.942
53668W        W26082   9.864  23.609  12.370
53669W        W26083  43.462  36.454   4.687
53670W        W26084  33.572  10.845   3.721
53671W        W26085  22.138  20.746   2.836
53672W        W26086  11.825  24.058   4.729
53673W        W26087  10.303  32.578   4.140
53674W        W26088  28.461  18.280  14.314
53675W        W26089   3.735  36.502  14.937
53676W        W26090  41.528  27.178  10.889
53677W        W26091  33.588   5.807   2.827
53678W        W26092  27.619  38.443  11.978
53679W        W26093  43.809  26.553  12.505
53680W        W26094   5.797  43.393   4.753
53681W        W26095  23.580  23.598  10.602
53682W        W26096   9.883  28.929   3.703
53683W        W26097   0.440  30.641  14.805
53684W        W26098  34.021  18.259   4.714
53685W        W26099  27.067   8.750   4.683
53686W        W26100   1.900  25.996   1.791
53687W        W26101  11.291  44.273   4.793
53688W        W26102  35.584  14.146  13.383
53689W        W26103  11.675  12.613   0.762
53690W        W26104  19.551  30.996   0.848
53691W        W26105  21.172   3.432   4.343
53692W        W26106  12.210  24.716  12.424
53693W        W26107  22.650   1.904  11.445
53694W        W26108  21.609  30.583   2.831
53695W        W26109  44.837  31.434  10.447
53696W        W26110  19.140  10.701  12.473
53697W        W26111  11.322  38.449  13.362
53698W        W26112  12.310  14.719   1.367
53699W        W26113  26.191  24.116   0.867
53700W        W26114  33.986  18.275  10.896
53701W        W26115  38.406   9.847  13.403
53702W        W26116  14.278  27.112   2.265
53703W        W26117  13.680  27.649   0.455
53704W        W26118  16.567  17.606   5.114
53705W        W26119  14.756  30.974  14.959
53706W        W26120  18.635   6.707  11.566
53707W        W26121  11.310   7.826  12.070
53708W        W26122   8.295  31.928  11.127
53709W        W26123  41.887   1.834   9.960
53710W        W26124  16.765  17.620  12.452
53711W        W26125  28.074  41.305   0.961
53712W        W26126  10.761  29.649  12.523
53713W        W26127  14.721  42.384  11.598
53714W        W26128  11.836   9.858  10.588
53715W        W26129   0.284  13.142  11.935
53716W        W26130  38.990   9.296   0.444
53717W        W26131   4.921  34.381   4.671
53718W        W26132  30.006  14.826  13.388
53719W        W26133  15.312  31.105   2.229
53720W        W26134  41.472  11.235  10.498
53721W        W26135   7.366  15.738  11.091
53722W        W26136  25.973  34.907   2.679
53723W        W26137  23.637  34.039   3.317
53724W        W26138  37.432  41.431  11.038
53725W        W26139  19.148  17.778   0.798
53726W        W26140  35.496  37.546  12.871
53727W        W26141  38.959  13.781  14.013
53728W        W26142   9.838  17.145   3.151
53729W        W26143  12.740  22.533  11.918
53730W        W26144  43.382  19.597  12.434
53731W        W26145   8.860  22.159  12.071
53732W        W26146  42.779  38.479   4.167
53733W        W26147  43.830  42.919   0.959
53734W        W26148  25.965  21.224   3.685
53735W        W26149   7.238  37.471  13.381
53736W        W26150   7.805  28.942  12.016
53737W        W26151   9.253  12.239  10.611
53738W        W26152  20.189  15.223  13.793
53739W        W26153   7.245  19.273   3.341
53740W        W26154  21.131  27.986  11.054
53741W        W26155  18.235  40.498  10.926
53742W        W26156  16.566  14.160  11.575
53743W        W26157   9.236  37.563   3.331
53744W        W26158  18.728   2.897  10.627
53745W        W26159  12.138  25.635   3.728
53746W        W26160  21.129   4.292   4.711
53747W        W26161  29.129   5.210   2.232
53748W        W26162  32.053  33.387   0.288
53749W        W26163   5.353  38.900   2.183
53750W        W26164  31.136  44.001  12.458
53751W        W26165   9.796  28.624  13.541
53752W        W26166  41.031  25.561  14.356
53753W        W26167  14.764  11.360  14.794
53754W        W26168  22.084  39.330   1.904
53755W        W26169  35.595  29.136  12.448
53756W        W26170  26.179  24.634   1.824
53757W        W26171   6.200  34.543  11.879
53758W        W26172   8.351  23.183  11.912
53759W        W26173  33.901   3.770   1.279
53760W        W26174  12.260   2.437   4.724
53761W        W26175  32.621  37.062   2.278
53762W        W26176  25.483  16.693   0.478
53763W        W26177  39.007  30.459   2.353
53764W        W26178  42.792  12.803  14.871
53765W        W26179  21.673  11.280  12.961
53766W        W26180  17.088  21.084   4.162
53767W        W26181  12.182   6.793  14.309
53768W        W26182  35.538   9.169   3.295
53769W        W26183  34.119  32.439   4.664
53770W        W26184   7.232  16.630  11.025
53771W        W26185  27.039  27.562  14.778
53772W        W26186  26.565  15.155   4.714
53773W        W26187  11.367  14.106   1.879
53774W        W26188  18.163  34.564  13.908
53775W        W26189  18.113  19.134   1.709
53776W        W26190   7.825  43.003   0.341
53777W        W26191  10.149  26.693  14.278
53778W        W26192   2.308  27.941   5.260
53779W        W26193  31.146  37.552   1.397
53780W        W26194  24.014  39.936  14.826
53781W        W26195   9.676   3.379   1.722
53782W        W26196  30.161  41.814   0.774
53783W        W26197  37.073  35.471   5.096
53784W        W26198   1.388  41.488  13.793
53785W        W26199  31.426  35.071  13.395
53786W        W26200  44.479  43.298  13.397
53787W        W26201  19.258  20.078  11.443
53788W        W26202   7.837  10.786  12.859
53789W        W26203  42.399  14.160   3.304
53790W        W26204  31.904   2.851   0.925
53791W        W26205  30.948  21.128  10.085
53792W        W26206  43.384  20.746   2.207
53793W        W26207  25.186  38.895  13.387
53794W        W26208  42.996  19.742  10.059
53795W        W26209  31.125  42.394   4.163
53796W        W26210  19.576  27.196  13.516
53797W        W26211   0.793  26.686   0.774
53798W        W26212  29.047  12.741  14.463
53799W        W26213  42.396  40.328   0.756
53800W        W26214  32.614   5.218   4.762
53801W        W26215   1.404   7.883   4.188
53802W        W26216  28.144  12.305  14.978
53803W        W26217  36.471  36.936  13.992
53804W        W26218  10.220  39.981   0.788
53805W        W26219  34.546  39.064   4.809
53806W        W26220  33.394  13.712   1.843
53807W        W26221  36.080  30.058   3.863
53808W        W26222   1.293  26.149  11.547
53809W        W26223   7.379  29.079  12.936
53810W        W26224  23.103  35.602   0.834
53811W        W26225  17.105  26.067  13.045
53812W        W26226  13.268  22.115  11.584
53813W        W26227   1.766  31.459   2.747
53814W        W26228  37.011   7.677  12.436
53815W        W26229  27.671  32.597  13.842
53816W        W26230  36.938   1.278   1.701
53817W        W26231  25.130  32.130   1.855
53818W        W26232  37.551  12.804  11.542
53819W        W26233   7.842   0.970  14.016
53820W        W26234   3.237  32.108   3.187
53821W        W26235  37.920   1.767   4.684
53822W        W26236  23.131  29.985  11.880
53823W        W26237  29.653  36.920  14.354
53824W        W26238  34.980  43.296   4.278
53825W        W26239  39.056  32.948   5.266
53826W        W26240  20.114  43.819   5.306
53827W        W26241   3.377  42.965  13.835
53828W        W26242  18.545  40.518  14.377
53829W        W26243  14.251  40.345  13.867
53830W        W26244  23.176   1.443  14.307
53831W        W26245   2.330  12.355  11.416
53832W        W26246  41.466  23.026  10.925
53833W        W26247  30.059   2.959  12.937
53834W        W26248  18.582  16.238   1.844
53835W        W26249  15.669  25.047   0.469
53836W        W26250  42.852  37.078   1.896
53837W        W26251  35.472  40.518  12.554
53838W        W26252  42.514  37.063  12.417
53839W        W26253   1.291   1.388   0.850
53840W        W26254  35.602  20.557  10.487
53841W        W26255  22.702   4.865  12.364
53842W        W26256  39.037  41.030  13.979
53843W        W26257  32.488  26.531   2.393
53844W        W26258  24.070   7.201  12.380
53845W        W26259  12.777   3.859   0.919
53846W        W26260  17.588  30.928   0.431
53847W        W26261  44.802  33.416  10.535
53848W        W26262   3.447   6.763   1.388
53849W        W26263  33.577  40.971   2.379
53850W        W26264  31.041   0.810  11.455
53851W        W26265   1.851  19.622   4.254
53852W        W26266  38.044  15.716   3.282
53853W        W26267  36.547  17.576  11.105
53854W        W26268  20.241  19.596  13.944
53855W        W26269  15.158  17.181  12.365
53856W        W26270  32.022   2.879  14.390
53857W        W26271   1.843   8.184  12.061
53858W        W26272  37.537  13.674   4.137
53859W        W26273  23.636  43.504   3.180
53860W        W26274  26.087  17.698  10.970
53861W        W26275  36.520  23.988  14.787
53862W        W26276  23.669  43.968  11.406
53863W        W26277  30.939  12.228  12.014
53864W        W26278   4.258  41.791   1.392
53865W        W26279  25.467  15.642  12.030
53866W        W26280  38.388  28.176   1.825
53867W        W26281  31.424  16.079  10.967
53868W        W26282  20.644  13.599  14.484
53869W        W26283  39.831  24.220   2.680
53870W        W26284  29.026   5.244  11.097
53871W        W26285  42.296  39.335  12.991
53872W        W26286  12.768   2.294   1.286
53873W        W26287  35.585  35.001  10.090
53874W        W26288  41.377  33.531   0.401
53875W        W26289  28.027  17.155   1.900
53876W        W26290  11.197  31.136  10.527
53877W        W26291   2.817   6.880  13.411
53878W        W26292  33.545  38.521  11.112
53879W        W26293   7.318   7.790  13.332
53880W        W26294  25.601  12.209   2.691
53881W        W26295  37.920  25.985  13.457
53882W        W26296  19.646  20.709  10.535
53883W        W26297  25.473  29.080  13.937
53884W        W26298  33.404  31.612  13.413
53885W        W26299  18.203   5.801  13.451
53886W        W26300  44.770  17.680   4.612
53887W        W26301   6.759  39.809  10.525
53888W        W26302   1.899  14.807   2.204
53889W        W26303  27.566  42.346   4.769
53890W        W26304  37.396  42.433   0.286
53891W        W26305  18.133  41.336  14.280
53892W        W26306   7.670  21.169  12.488
53893W        W26307  42.954  31.007   1.845
53894W        W26308   4.750  28.579  14.906
53895W        W26309  31.946  22.235  10.608
53896W        W26310   0.878  36.523   1.444
53897W        W26311  25.118  28.573   4.831
53898W        W26312  31.635  17.631  14.999
53899W        W26313   1.914  13.153  11.604
53900W        W26314  19.051  23.043  11.925
53901W        W26315   2.350   2.817  13.812
53902W        W26316  32.424   9.178   4.685
53903W        W26317  34.040   8.349   1.813
53904W        W26318  41.504  39.993   2.861
53905W        W26319   0.428  16.722   2.185
53906W        W26320  31.010   0.268  10.446
53907W        W26321  31.906  41.863  11.419
53908W        W26322   4.300  37.974  13.908
53909W        W26323   9.854   9.359  11.919
53910W        W26324  33.405  41.344  12.370
53911W        W26325   4.884  40.015   0.962
53912W        W26326  31.099  28.647   1.870
53913W        W26327   1.377  31.945  13.822
53914W        W26328   9.351  18.753  10.486
53915W        W26329  18.169  26.034  13.487
53916W        W26330  38.381  14.616  12.973
53917W        W26331  14.331  26.702  11.858
53918W        W26332   9.717   6.732  11.535
53919W        W26333  44.315  21.554  11.930
53920W        W26334  41.996  37.915  14.816
53921W        W26335  27.619  39.051   4.151
53922W        W26336  42.295  29.667   3.204
53923W        W26337  30.502  20.109  13.939
53924W        W26338   6.346  41.490  13.984
53925W        W26339  24.067   5.841  12.883
53926W        W26340  23.221  31.984   3.279
53927W        W26341   9.690  24.720   2.890
53928W        W26342  10.711  12.812   4.675
53929W        W26343  16.219  11.780   3.271
53930W        W26344   9.162  40.892   0.748
53931W        W26345  28.648  37.498   0.446
53932W        W26346   3.333  15.765   4.715
53933W        W26347  14.829   1.951   1.793
53934W        W26348   1.341   2.890  10.502
53935W        W26349  24.628  36.926  11.489
53936W        W26350   6.810  40.811  11.930
53937W        W26351  27.608  21.203  13.054
53938W        W26352  41.879   6.357  13.812
53939W        W26353  44.896  20.039  11.915
53940W        W26354   1.241   5.845   4.202
53941W        W26355  11.729  15.586  12.000
53942W        W26356   2.455  39.504  11.124
53943W        W26357  26.579  14.278  10.535
53944W        W26358  43.273  38.920  14.400
53945W        W26359  22.043  27.114  12.495
53946W        W26360  21.589  16.249   4.836
53947W        W26361   0.931   5.793   4.628
53948W        W26362   2.342  18.711   3.291
53949W        W26363  14.228  41.998  11.403
53950W        W26364  23.156  37.852  11.923
53951W        W26365   8.894   7.211  12.874
53952W        W26366  17.737  17.275   3.866
53953W        W26367  33.048  24.484   2.418
53954W        W26368  19.112  33.420  13.866
53955W        W26369  30.475  34.477   2.358
53956W        W26370  10.634   3.950  12.498
53957W        W26371  31.120  30.426   1.884
53958W        W26372  33.973   7.672   3.810
53959W        W26373  42.847  32.593  12.051
53960W        W26374  32.476  34.433   2.797
53961W        W26375  23.202  22.018   0.403
53962W        W26376  38.943   1.342   4.268
53963W        W26377   4.902  31.430   0.823
53964W        W26378  28.640  28.638   4.760
53965W        W26379  34.553   3.898  12.011
53966W        W26380  38.056  30.003  12.043
53967W        W26381  32.562  38.424   3.682
53968W        W26382  15.287   9.246   0.422
53969W        W26383  11.685  14.624  12.060
53970W        W26384   5.763   2.461  14.955
53971W        W26385  21.177   4.209   2.331
53972W        W26386   2.368  43.433   4.189
53973W        W26387  18.707   0.311  11.536
53974W        W26388   4.250  22.506   0.433
53975W        W26389  44.909  26.136   0.408
53976W        W26390  31.026  36.048  13.504
53977W        W26391  14.725  44.380   1.327
53978W        W26392  10.282  20.717  14.332
53979W        W26393  35.089   1.421  14.508
53980W        W26394   9.295  36.033  13.813
53981W        W26395  22.524  15.115  12.898
53982W        W26396   7.279  39.957   1.268
53983W        W26397  15.788  14.247   5.239
53984W        W26398  33.087  40.010   1.402
53985W        W26399   9.672   8.248  10.503
53986W        W26400  32.025  38.903  14.510
53987W        W26401  21.248  11.752   2.337
53988W        W26402  36.468  40.453  12.403
53989W        W26403  38.454  30.527  14.964
53990W        W26404  29.431  14.777  12.352
53991W        W26405  32.416  31.538  11.439
53992W        W26406  38.463  44.832  11.566
53993W        W26407  27.523  25.623  14.820
53994W        W26408  33.608  29.160   0.372
53995W        W26409  40.813   0.320  10.413
53996W        W26410  20.593  33.032   3.336
53997W        W26411   8.295  30.509  14.363
53998W        W26412  16.692  22.242   3.849
53999W        W26413   9.190  31.418   1.743
54000W        W26414   6.708  12.689  12.877
54001W        W26415  35.600  15.743   0.328
54002W        W26416  27.603  22.006   0.773
54003W        W26417   4.820   1.413  12.045
54004W        W26418  17.608  26.457  11.424
54005W        W26419  26.670   6.753   0.743
54006W        W26420  39.457  15.313   2.269
54007W        W26421  14.181  12.623   4.727
54008W        W26422  12.834  15.094   3.290
54009W        W26423  28.561  23.014   2.755
54010W        W26424   8.405  19.680  10.576
54011W        W26425  32.407   1.270  10.964
54012W        W26426   5.407  42.860   5.274
54013W        W26427  29.029  23.583   1.869
54014W        W26428   3.783  10.761   1.837
54015W        W26429  36.458  12.158  12.067
54016W        W26430   9.867  40.362  14.889
54017W        W26431  13.631   1.928   2.343
54018W        W26432   2.383  41.521   1.450
54019W        W26433  21.572  36.425  11.105
54020W        W26434   9.726  44.323   1.935
54021W        W26435  21.547  16.797  14.281
54022W        W26436  39.054  14.172   3.761
54023W        W26437  41.375  30.961  11.588
54024W        W26438  44.900  31.631   1.373
54025W        W26439   1.326   1.967   3.220
54026W        W26440  31.462  34.898   4.244
54027W        W26441  24.656  39.427  12.557
54028W        W26442  22.224  35.913   1.854
54029W        W26443   3.932  31.918  12.517
54030W        W26444  17.671  16.636  12.522
54031W        W26445  14.727  34.941   3.200
54032W        W26446  23.512  36.355  10.983
54033W        W26447  40.968  29.131  13.339
54034W        W26448   4.437  23.561   0.403
54035W        W26449   0.258  23.501   0.867
54036W        W26450  11.680  44.906  10.447
54037W        W26451  23.055  16.189  11.401
54038W        W26452  32.507  42.019  13.064
54039W        W26453  37.013   1.769  14.429
54040W        W26454  35.063  14.810   4.704
54041W        W26455   7.337   7.802   2.743
54042W        W26456  21.153  42.807   5.099
54043W        W26457  39.892  34.119  12.844
54044W        W26458  20.689   7.231   4.816
54045W        W26459  37.997  36.359  12.894
54046W        W26460  34.454  25.127   4.708
54047W        W26461  15.777  43.822  13.467
54048W        W26462   6.385  19.679   3.368
54049W        W26463  27.968  21.219  14.952
54050W        W26464  24.642  18.056   4.760
54051W        W26465  36.015   1.337   0.286
54052W        W26466   8.327  37.382   1.210
54053W        W26467   6.408  15.580  11.584
54054W        W26468  32.134  44.314   3.697
54055W        W26469  27.097  44.404  12.866
54056W        W26470  19.284  22.122  10.977
54057W        W26471  33.940  26.476  12.487
54058W        W26472  32.975  36.917   1.319
54059W        W26473  43.783  31.029   0.380
54060W        W26474   8.256  20.046  14.484
54061W        W26475  34.922  21.190  10.994
54062W        W26476   6.423   9.326  11.000
54063W        W26477  22.043  17.203  13.899
54064W        W26478  12.813   6.419   1.828
54065W        W26479  37.002  42.303  10.959
54066W        W26480  35.475  22.746  11.476
54067W        W26481  12.182  13.738   0.885
54068W        W26482  27.612  12.257   3.650
54069W        W26483  11.210  12.747   3.826
54070W        W26484  16.669  34.027   1.700
54071W        W26485   7.250  29.983  14.901
54072W        W26486  15.647  39.908   2.666
54073W        W26487  31.632  11.692  14.390
54074W        W26488  15.750  36.399  11.013
54075W        W26489  33.548  43.900  12.018
54076W        W26490  19.260  41.972  11.997
54077W        W26491  29.602  43.402   0.388
54078W        W26492  18.631  36.350   2.371
54079W        W26493   9.281  28.505  13.388
54080W        W26494  13.319   5.724   4.598
54081W        W26495  31.991  40.394  14.031
54082W        W26496  29.059  44.919   0.920
54083W        W26497  43.007  14.298  10.034
54084W        W26498   1.339  13.260   0.392
54085W        W26499  25.641  34.373  12.412
54086W        W26500  28.954  31.468  13.378
54087W        W26501  13.110  32.074   4.174
54088W        W26502  17.097  19.574   2.826
54089W        W26503  41.410  40.911  12.415
54090W        W26504  31.619  12.616  12.483
54091W        W26505  19.224  21.627  12.569
54092W        W26506  26.518   0.867   0.730
54093W        W26507  44.848  27.559   4.653
54094W        W26508   9.327  25.526   2.184
54095W        W26509  44.475  26.015  11.071
54096W        W26510  36.467   3.446  13.976
54097W        W26511  24.699  21.528   2.899
54098W        W26512  44.010  34.460   4.641
54099W        W26513  18.663  39.910  10.107
54100W        W26514  31.405  37.008   0.307
54101W        W26515  33.890  13.308  12.002
54102W        W26516  32.960  14.253  10.576
54103W        W26517   3.222  40.440   3.762
54104W        W26518  29.094  33.498   1.699
54105W        W26519   0.942  31.912  11.557
54106W        W26520   8.833   4.830  10.529
54107W        W26521  23.986  37.939  13.892
54108W        W26522   7.187  18.638  13.326
54109W        W26523  28.987  11.754  14.999
54110W        W26524  41.420  13.108  12.873
54111W        W26525  11.702   6.900   2.847
54112W        W26526   2.820  15.131  13.959
54113W        W26527  44.853  32.110   3.278
54114W        W26528  44.890  11.776   2.348
54115W        W26529  33.921  20.045  11.866
54116W        W26530  40.332  19.569   4.118
54117W        W26531   0.483  43.960   1.853
54118W        W26532   5.742  32.520   4.295
54119W        W26533  15.152  35.594   3.325
54120W        W26534   1.955  11.831  14.473
54121W        W26535  25.059  13.773  11.581
54122W        W26536  32.017   5.830  13.329
54123W        W26537   2.782   6.367  12.931
54124W        W26538  20.159  40.349   3.756
54125W        W26539   2.953  20.688  10.641
54126W        W26540  20.244  36.017  13.384
54127W        W26541  31.427   4.386   4.836
54128W        W26542  14.612  20.639   2.673
54129W        W26543  43.507  38.884   4.195
54130W        W26544  22.542  30.161  12.925
54131W        W26545  31.532  37.551  13.403
54132W        W26546   1.413   1.839   1.933
54133W        W26547  37.940  30.654  14.384
54134W        W26548   4.702  30.070   4.784
54135W        W26549  10.703   0.854   4.177
54136W        W26550  28.577  33.038   1.726
54137W        W26551  36.556  10.305  12.028
54138W        W26552  24.515  25.095   0.329
54139W        W26553  40.858  29.660  12.825
54140W        W26554   6.862   0.417  12.495
54141W        W26555   0.743  41.033  12.498
54142W        W26556  35.011   0.957  13.907
54143W        W26557  30.587  30.634   4.696
54144W        W26558   4.352   2.737  13.425
54145W        W26559  30.964  31.469  14.845
54146W        W26560  23.168  13.110   3.342
54147W        W26561   1.897   2.826  11.576
54148W        W26562  32.501  14.718  13.447
54149W        W26563  36.936   1.335  11.958
54150W        W26564  17.062  25.196   0.804
54151W        W26565  19.180  22.033   4.813
54152W        W26566  20.671   1.865   0.381
54153W        W26567  23.698  20.602  12.921
54154W        W26568  16.072  32.969  10.563
54155W        W26569  21.190  31.582  14.029
54156W        W26570  24.675  17.180   2.830
54157W        W26571   5.876  29.457  14.336
54158W        W26572  12.771  12.791   2.882
54159W        W26573  39.927  30.936   2.233
54160W        W26574   9.374  41.443   3.639
54161W        W26575  29.616  30.960   0.927
54162W        W26576  37.543  17.785  12.830
54163W        W26577  20.658  39.836  13.392
54164W        W26578  32.504   3.448  11.500
54165W        W26579  29.617  19.054   0.764
54166W        W26580  17.062   8.199   2.346
54167W        W26581  24.070   7.212  13.323
54168W        W26582  42.869  13.248   3.211
54169W        W26583  35.600   9.217  13.380
54170W        W26584  23.056  29.496  14.357
54171W        W26585  13.742  11.266  14.849
54172W        W26586  26.988  22.512  14.776
54173W        W26587  21.634  42.454  11.009
54174W        W26588  12.210   0.458   4.703
54175W        W26589  34.496  33.486  12.891
54176W        W26590  37.890  37.857  13.321
54177W        W26591  42.319  22.694   2.811
54178W        W26592   1.835  26.025  13.339
54179W        W26593  15.109  14.322   1.802
54180W        W26594  15.751  11.850   1.814
54181W        W26595  35.063   3.917   3.644
54182W        W26596  17.609   2.859   3.738
54183W        W26597  42.810   1.455  13.032
54184W        W26598  36.885  28.677  11.988
54185W        W26599   2.721  22.073  14.319
54186W        W26600   1.393   6.226  11.609
54187W        W26601  24.555  25.054   0.876
54188W        W26602  13.780   4.797   3.243
54189W        W26603  38.068  10.195  13.354
54190W        W26604  22.542  41.956  13.541
54191W        W26605  30.466  37.547  12.986
54192W        W26606  32.452  34.577   3.214
54193W        W26607  23.666  30.990   0.924
54194W        W26608  32.940  15.272  13.484
54195W        W26609   4.779   3.817   3.730
54196W        W26610  41.486  40.853   1.919
54197W        W26611  39.395  22.081  13.820
54198W        W26612  24.974  13.255   0.953
54199W        W26613  13.794  12.312  10.468
54200W        W26614  36.865  21.746  14.765
54201W        W26615   8.785   7.201   0.317
54202W        W26616  28.621  12.749   3.161
54203W        W26617  23.124  43.768  11.087
54204W        W26618  43.005  11.334  11.592
54205W        W26619  35.456  24.714  13.498
54206W        W26620  35.457  21.594  14.507
54207W        W26621  18.544   6.255  14.975
54208W        W26622  20.065  13.161   1.806
54209W        W26623  40.303  25.975  13.337
54210W        W26624  44.761   6.803   3.835
54211W        W26625   1.734  12.162  11.872
54212W        W26626  21.587  42.788  10.493
54213W        W26627  42.397  38.834  14.304
54214W        W26628  40.315  12.181  11.383
54215W        W26629  12.231  43.815   4.351
54216W        W26630  17.748  37.469   1.388
54217W        W26631   8.328  38.925   1.282
54218W        W26632  34.486  19.056  13.418
54219W        W26633  25.600   2.334   4.182
54220W        W26634  44.754  12.722  13.939
54221W        W26635  38.922  19.198  12.368
54222W        W26636   2.340  29.024  10.614
54223W        W26637  31.579  44.925  14.993
54224W        W26638  17.114   8.340  10.443
54225W        W26639  11.623   3.856   0.348
54226W        W26640  35.596  35.514  12.362
54227W        W26641  15.591  19.183   9.595
54228W        W26642  36.363   9.818   3.815
54229W        W26643   4.828  28.962  13.968
54230W        W26644   7.238  16.566  12.933
54231W        W26645  26.536  31.529  14.829
54232W        W26646  21.150  26.056  11.374
54233W        W26647   7.699  42.030   4.343
54234W        W26648   2.406  21.111   2.780
54235W        W26649   7.777  31.550  14.456
54236W        W26650  33.984  38.429  13.539
54237W        W26651   0.430  39.529  10.917
54238W        W26652  28.064  10.654  14.467
54239W        W26653  30.474  24.642  14.429
54240W        W26654  44.357  12.792   3.352
54241W        W26655  35.941  33.124  12.381
54242W        W26656  27.558   4.724  12.568
54243W        W26657  40.956  18.170   4.729
54244W        W26658  34.436  29.560  14.862
54245W        W26659   5.863  24.229  11.487
54246W        W26660  38.336  30.444   1.212
54247W        W26661  33.986  37.526  13.374
54248W        W26662  43.327   0.825  11.434
54249W        W26663  44.930  12.784   0.778
54250W        W26664  35.399  21.091   9.553
54251W        W26665  35.913  38.536  10.460
54252W        W26666  26.975  21.080  13.005
54253W        W26667  39.823  32.044   3.248
54254W        W26668  21.142  25.689   5.248
54255W        W26669   7.322  29.919   3.189
54256W        W26670  15.591  15.617   4.145
54257W        W26671  30.111  41.847  13.027
54258W        W26672  10.725  37.474  14.965
54259W        W26673   0.945  25.562   4.711
54260W        W26674  24.145  30.051  12.966
54261W        W26675   5.278  26.167  12.438
54262W        W26676  20.107   4.941   5.238
54263W        W26677  44.365  27.595   4.288
54264W        W26678  30.090  36.966  11.874
54265W        W26679  16.159  26.657  11.035
54266W        W26680  36.872  44.271   0.352
54267W        W26681  30.589  19.638  10.955
54268W        W26682   3.400  11.632  11.410
54269W        W26683  30.608  27.469  10.595
54270W        W26684  27.589  28.058  10.544
54271W        W26685  42.284   6.206  13.366
54272W        W26686  38.333  14.319   2.391
54273W        W26687   6.238  15.218   0.445
54274W        W26688  24.550   4.224   1.816
54275W        W26689   7.409  13.344   3.171
54276W        W26690  23.723   8.302   1.295
54277W        W26691  29.432  34.894  13.339
54278W        W26692   9.811  10.810  11.866
54279W        W26693  12.137  24.135   1.358
54280W        W26694   3.216  23.102  12.886
54281W        W26695  23.117   1.339   3.373
54282W        W26696  44.432   1.261  12.009
54283W        W26697  37.084  19.224  13.941
54284W        W26698  30.081  20.588   2.663
54285W        W26699  39.810  35.924  10.907
54286W        W26700  30.548  37.079  12.384
54287W        W26701   7.894  12.315   0.802
54288W        W26702  10.220   6.887   1.694
54289W        W26703   8.232  39.386  11.432
54290W        W26704  33.027  32.096  12.003
54291W        W26705  24.210   6.906   1.761
54292W        W26706   1.855  42.796   4.662
54293W        W26707  13.311  11.237   4.616
54294W        W26708  24.623  16.719  11.897
54295W        W26709  31.639  21.019   0.469
54296W        W26710   0.461   2.451  12.370
54297W        W26711  24.032  11.179   2.201
54298W        W26712   0.767  25.561  10.565
54299W        W26713  18.688  12.729  14.332
54300W        W26714  31.495  31.440   1.330
54301W        W26715  38.828  15.088   1.730
54302W        W26716  30.451   4.909  11.116
54303W        W26717   3.793   4.264  10.952
54304W        W26718   7.716   0.305   2.851
54305W        W26719  38.045   2.428   1.745
54306W        W26720  38.850  11.303   0.853
54307W        W26721   6.871  31.046   3.750
54308W        W26722  16.244   1.277  12.948
54309W        W26723   0.755  23.142  11.023
54310W        W26724  22.041  26.690   2.359
54311W        W26725  10.336  25.191  10.414
54312W        W26726  43.021  28.664   2.200
54313W        W26727  13.184  30.148  10.931
54314W        W26728  35.449  19.099  13.480
54315W        W26729  21.646  34.463  13.953
54316W        W26730  11.678  29.617   3.698
54317W        W26731  36.526  43.272  12.430
54318W        W26732  28.514  34.889   0.810
54319W        W26733   7.259  26.032   0.836
54320W        W26734  24.513  39.494   4.827
54321W        W26735  13.692  33.095   2.692
54322W        W26736  15.711  41.971  11.572
54323W        W26737  19.187  11.176   1.359
54324W        W26738  37.837  33.918  12.513
54325W        W26739   0.895  38.829  13.026
54326W        W26740  43.929  39.316  14.983
54327W        W26741  32.621  17.723   4.759
54328W        W26742  12.734  23.660   3.840
54329W        W26743  38.890  29.947   4.666
54330W        W26744  22.613  27.114   3.181
54331W        W26745  10.758  16.571   0.867
54332W        W26746  28.646  26.188   2.686
54333W        W26747  30.082  31.115   0.761
54334W        W26748   7.364  33.584  14.424
54335W        W26749  35.441  35.597  14.837
54336W        W26750  13.617  32.933   1.703
54337W        W26751  28.942  26.035   0.411
54338W        W26752  34.116  19.575  10.560
54339W        W26753  30.132   2.429  13.029
54340W        W26754  17.240  44.394   4.767
54341W        W26755  41.365  32.546   4.825
54342W        W26756  11.204  11.146   1.356
54343W        W26757  14.755   9.761  10.607
54344W        W26758  16.666  44.480  10.413
54345W        W26759  17.184  31.635  14.893
54346W        W26760  18.224  38.861   4.294
54347W        W26761  26.100  25.507   0.891
54348W        W26762   1.425  16.149  10.438
54349W        W26763  32.913  14.768  10.600
54350W        W26764  34.595  21.225  13.409
54351W        W26765  39.506  35.950  14.939
54352W        W26766  23.147   4.716  12.853
54353W        W26767  42.448  42.881   4.632
54354W        W26768  40.417   8.250  11.946
54355W        W26769  34.924  41.855  11.035
54356W        W26770  42.518  32.543   3.684
54357W        W26771  10.833  12.162  11.895
54358W        W26772  35.057  24.526  12.046
54359W        W26773   5.417  41.961   2.772
54360W        W26774  43.405  12.774   4.779
54361W        W26775  32.058  35.552  12.060
54362W        W26776  38.834  26.163  13.517
54363W        W26777   5.915  40.023  12.942
54364W        W26778  35.578  27.039  14.840
54365W        W26779  26.997  18.685  13.885
54366W        W26780  35.966  33.123   3.858
54367W        W26781  31.925   5.348   0.844
54368W        W26782  27.692   1.959  12.016
54369W        W26783  11.744  31.527  12.357
54370W        W26784  30.088   9.800   1.376
54371W        W26785   3.859  38.519   2.859
54372W        W26786  30.594  20.522   1.759
54373W        W26787  12.844   6.296   3.230
54374W        W26788  30.482  14.765  12.945
54375W        W26789  11.333   3.721  13.003
54376W        W26790  35.079  34.864  11.968
54377W        W26791  34.590  22.665  10.959
54378W        W26792  11.235  39.011   4.736
54379W        W26793  30.463  35.971   1.805
54380W        W26794   3.375  28.652  14.374
54381W        W26795  44.914  11.206  14.372
54382W        W26796  16.633   2.387  13.435
54383W        W26797  12.838  18.072  13.064
54384W        W26798  12.691   4.844   0.390
54385W        W26799  11.862  40.448   4.231
54386W        W26800   5.330  14.100  14.763
54387W        W26801  27.636  33.038   0.806
54388W        W26802  31.145  43.443  10.448
54389W        W26803  39.041   0.310   0.742
54390W        W26804   0.988  19.159  12.858
54391W        W26805  24.030   7.895   0.449
54392W        W26806  30.519  11.267   0.327
54393W        W26807  28.061  34.593   4.779
54394W        W26808  19.705  13.134  11.569
54395W        W26809  22.235   0.824  12.444
54396W        W26810  24.723   2.782   0.393
54397W        W26811  44.770  15.133  12.532
54398W        W26812   8.281  40.421   4.157
54399W        W26813   9.666  26.545   0.261
54400W        W26814  14.594  41.355   1.764
54401W        W26815  19.092  17.784   4.303
54402W        W26816   6.373  24.674  13.955
54403W        W26817  10.381   4.708  12.961
54404W        W26818  30.448   8.681  13.327
54405W        W26819  19.271  19.611   2.828
54406W        W26820  41.464  24.637   4.604
54407W        W26821  33.879  44.878  14.027
54408W        W26822  15.760  20.733   2.695
54409W        W26823  17.078   7.272  13.876
54410W        W26824  20.716   1.885  11.867
54411W        W26825   9.878  29.608   3.800
54412W        W26826  40.319  18.263  14.016
54413W        W26827  44.395  30.153   1.926
54414W        W26828  38.827  31.597  12.950
54415W        W26829  21.259  21.670  13.354
54416W        W26830  25.658   8.215   1.373
54417W        W26831  34.091  37.927  14.929
54418W        W26832  21.530  30.999   3.686
54419W        W26833  43.834  25.122  12.460
54420W        W26834  22.207  23.197   0.848
54421W        W26835  30.414   8.226  14.396
54422W        W26836   5.928  29.048   2.862
54423W        W26837   1.826   3.242   3.280
54424W        W26838  43.334  12.195   1.438
54425W        W26839  17.702  26.587   0.339
54426W        W26840  24.114  34.409  11.412
54427W        W26841   3.786  18.121  11.503
54428W        W26842  35.487  43.954  12.447
54429W        W26843   6.923  19.717  11.919
54430W        W26844  10.824  12.156  12.903
54431W        W26845  16.256  16.705   1.912
54432W        W26846  38.451  37.432  10.406
54433W        W26847   7.333  28.447  10.520
54434W        W26848  35.460   8.748   2.362
54435W        W26849  39.490  43.399   3.288
54436W        W26850   1.975  38.829   2.352
54437W        W26851  21.252   2.885   4.794
54438W        W26852  30.450  27.130   4.667
54439W        W26853  18.257  12.629  14.297
54440W        W26854   9.391  37.983  14.315
54441W        W26855  41.468   4.945  14.862
54442W        W26856  17.585  20.643   0.343
54443W        W26857  29.140   7.385  10.488
54444W        W26858  41.303  19.105  13.953
54445W        W26859  32.439  29.643   4.299
54446W        W26860  33.493  28.986  13.474
54447W        W26861  36.507   4.369  12.547
54448W        W26862  43.342  16.235  13.791
54449W        W26863  15.310  30.966   0.837
54450W        W26864  19.739  26.101   2.899
54451W        W26865   3.822  16.220  12.579
54452W        W26866  43.789  42.313  12.010
54453W        W26867  34.883  14.199   0.382
54454W        W26868  34.932  35.872  13.798
54455W        W26869  31.911  13.171   2.289
54456W        W26870  44.908  39.031  10.644
54457W        W26871   1.947  19.704  11.395
54458W        W26872  11.374  32.111   0.855
54459W        W26873  30.914   0.873  12.575
54460W        W26874   4.753  31.577  13.804
54461W        W26875  14.724  14.283  14.344
54462W        W26876  40.810  34.481  11.598
54463W        W26877  39.461  37.471   1.372
54464W        W26878  12.359  34.571   2.812
54465W        W26879   4.717   1.403   1.250
54466W        W26880  18.241  21.207   0.376
54467W        W26881   3.880  16.747   0.803
54468W        W26882  31.558  30.616   0.405
54469W        W26883  40.492  19.040  14.795
54470W        W26884  39.843  11.706  14.022
54471W        W26885   0.890  44.335  10.011
54472W        W26886   0.786  38.827   0.750
54473W        W26887   3.345   3.423   2.747
54474W        W26888  38.381  43.509  11.060
54475W        W26889   2.742  26.018   2.198
54476W        W26890  13.611  37.434  10.501
54477W        W26891  27.034  39.443   1.444
54478W        W26892  39.934   4.883   4.257
54479W        W26893  11.315   7.671  12.436
54480W        W26894  28.950   0.351   2.292
54481W        W26895  19.175  31.473   3.298
54482W        W26896  21.171  40.987  14.313
54483W        W26897   1.390   9.739  12.834
54484W        W26898  28.486  31.530  12.905
54485W        W26899  41.436  30.420  11.385
54486W        W26900  33.993  16.310   2.680
54487W        W26901  14.125  14.624   5.278
54488W        W26902   3.345  14.740   0.954
54489W        W26903  32.966  38.455   0.443
54490W        W26904  20.078   7.776   2.276
54491W        W26905  19.563  36.996   1.383
54492W        W26906  28.026   8.191  10.500
54493W        W26907  16.625  11.651   1.730
54494W        W26908  32.124  35.872   3.790
54495W        W26909  11.225  30.047  12.867
54496W        W26910   4.226  13.285   1.349
54497W        W26911  43.405   9.174  13.034
54498W        W26912  14.829  29.148   2.220
54499W        W26913   0.881  37.533   1.794
54500W        W26914   1.947  28.933   1.758
54501W        W26915   9.231  23.099  13.321
54502W        W26916   6.752  39.977  14.307
54503W        W26917  38.034  44.795   2.878
54504W        W26918   6.834  15.199  12.514
54505W        W26919  33.882  18.173   0.902
54506W        W26920  11.651   6.761   4.116
54507W        W26921  43.359   7.701   3.811
54508W        W26922  23.703  28.617   4.783
54509W        W26923   4.215  25.202  12.342
54510W        W26924  21.590  38.887   4.245
54511W        W26925  39.442  30.479   0.909
54512W        W26926  19.758   8.829  12.093
54513W        W26927  12.803  41.925  12.904
54514W        W26928   9.289  31.496  13.542
54515W        W26929  10.797  41.789   4.262
54516W        W26930  19.746  22.230  14.508
54517W        W26931  28.436  26.516   0.868
54518W        W26932  14.123  18.773   4.732
54519W        W26933  21.203   4.838   4.238
54520W        W26934   4.923  19.203  14.031
54521W        W26935  11.648  22.569   3.634
54522W        W26936  10.654  33.972  12.004
54523W        W26937  36.065  18.228  10.513
54524W        W26938  14.678  21.563   4.278
54525W        W26939   1.388  16.737   0.764
54526W        W26940  35.539   9.372   2.688
54527W        W26941  18.073   4.406   4.323
54528W        W26942  23.668   5.809   2.714
54529W        W26943  39.366  15.317   0.853
54530W        W26944  30.581  11.690   0.921
54531W        W26945  12.826  30.963  12.513
54532W        W26946  43.852  12.656   0.800
54533W        W26947  43.853  18.566   1.892
54534W        W26948  41.384  32.539   2.685
54535W        W26949  44.786  21.551   0.830
54536W        W26950  22.124   4.837  13.374
54537W        W26951   0.471  19.170  14.879
54538W        W26952  21.712  18.612   3.217
54539W        W26953  38.984  40.369  12.841
54540W        W26954  24.704  32.128   4.817
54541W        W26955  36.047   0.968   0.438
54542W        W26956  17.170  19.257   3.822
54543W        W26957  24.571   6.763  12.898
54544W        W26958  30.462  31.141  11.884
54545W        W26959  17.084   6.704  10.555
54546W        W26960  15.197  38.975   2.840
54547W        W26961  18.052  18.219   1.432
54548W        W26962  11.843  27.098  12.545
54549W        W26963  41.996  20.604   4.269
54550W        W26964  25.672  33.882  14.437
54551W        W26965   4.890  33.483  14.324
54552W        W26966  36.006  27.502  13.418
54553W        W26967  35.026  31.044   0.839
54554W        W26968  33.085  13.239   3.857
54555W        W26969  41.398  22.660  12.549
54556W        W26970  20.705  20.640  11.515
54557W        W26971  42.838  15.705   1.373
54558W        W26972  44.848  25.031  10.431
54559W        W26973   9.357   9.706  11.421
54560W        W26974  34.087   5.247  14.945
54561W        W26975  10.317  36.018  13.932
54562W        W26976  19.238  17.626   2.201
54563W        W26977   9.753  38.849  11.009
54564W        W26978   4.877  35.541  13.452
54565W        W26979  41.801  20.638  12.416
54566W        W26980   9.846   4.930   4.612
54567W        W26981  15.098  41.438  12.442
54568W        W26982  41.390  33.421  14.348
54569W        W26983  40.995  44.786  13.005
54570W        W26984  22.101  10.810  11.408
54571W        W26985  39.959  30.027  12.368
54572W        W26986   9.287  36.461   3.865
54573W        W26987   2.909  16.202   0.446
54574W        W26988  11.307   4.917   1.269
54575W        W26989  20.738  18.642  13.439
54576W        W26990  25.069  28.546   3.326
54577W        W26991  34.514   4.283  10.528
54578W        W26992  33.610  31.990  10.912
54579W        W26993  14.657   6.806  13.444
54580W        W26994  37.411  26.101   2.316
54581W        W26995  19.236  30.037  10.630
54582W        W26996  10.382  37.514  11.588
54583W        W26997  41.018  34.436   3.343
54584W        W26998  29.485  41.411   3.367
54585W        W26999  33.486  17.151  12.885
54586W        W27000  31.492  21.186   4.716
54587W        W27001  10.269  42.780  11.597
54588W        W27002   9.304  18.272  13.830
54589W        W27003  38.840  27.549   3.830
54590W        W27004  12.273  33.522  13.960
54591W        W27005   7.284  38.994  12.829
54592W        W27006  13.724  31.493  11.079
54593W        W27007  32.414  12.322  14.396
54594W        W27008  28.155  39.973   2.192
54595W        W27009  27.132   0.893   5.122
54596W        W27010   8.299  25.583   0.747
54597W        W27011  28.014   7.711   4.634
54598W        W27012  36.872  21.731  11.933
54599W        W27013  23.541  27.456  10.534
54600W        W27014  10.165  31.445   2.826
54601W        W27015  43.402  41.455   2.278
54602W        W27016  15.601   7.848   3.789
54603W        W27017  17.196  17.115   1.748
54604W        W27018  15.187  22.028   1.894
54605W        W27019   2.941  43.508   2.407
54606W        W27020  19.184   4.770  13.419
54607W        W27021  37.467  34.562  11.559
54608W        W27022  35.603  15.647   2.211
54609W        W27023  10.150  33.988  10.521
54610W        W27024   8.399  13.715   3.367
54611W        W27025  11.175  41.441  10.499
54612W        W27026  23.658  18.113   3.823
54613W        W27027  41.909   6.304  10.459
54614W        W27028   8.336   7.200  14.795
54615W        W27029  12.785   3.430  11.465
54616W        W27030  36.996   8.821   2.250
54617W        W27031   1.804  43.952  14.836
54618W        W27032  24.182  39.004  11.602
54619W        W27033  31.471  41.510  11.445
54620W        W27034  19.599  38.993  13.313
54621W        W27035  37.355  23.050   4.197
54622W        W27036  27.015  28.169  12.574
54623W        W27037  23.704   8.777  11.555
54624W        W27038   3.753  22.061  10.463
54625W        W27039   4.891   0.287  11.593
54626W        W27040  16.233  30.110  11.465
54627W        W27041   3.256  30.150   1.721
54628W        W27042   5.748   7.274   0.967
54629W        W27043  29.108  25.537   0.383
54630W        W27044  42.954  31.988  13.400
54631W        W27045  43.996  38.384  12.913
54632W        W27046  43.878  40.960   2.697
54633W        W27047   1.257  43.965   1.874
54634W        W27048  40.373  25.585  11.589
54635W        W27049  34.071  39.560   2.865
54636W        W27050   7.341  26.037   2.278
54637W        W27051  12.775   0.374  10.496
54638W        W27052  17.166  18.094   5.161
54639W        W27053  29.522  32.551  14.987
54640W        W27054  28.469  34.396   1.331
54641W        W27055   4.231  31.417  11.987
54642W        W27056  23.088   6.306  13.533
54643W        W27057   1.359  27.588  12.947
54644W        W27058  40.913   0.487   1.759
54645W        W27059  10.700   1.343  13.319
54646W        W27060  40.515  13.837  13.061
54647W        W27061   9.656  37.075  12.086
54648W        W27062  16.746  34.028  11.605
54649W        W27063  26.191  22.065  11.957
54650W        W27064  44.385   6.306   2.254
54651W        W27065  44.822  11.765   0.344
54652W        W27066  18.587   4.711   9.957
54653W        W27067  44.396  24.090  11.525
54654W        W27068  33.124   1.356   4.272
54655W        W27069  24.024  39.552   1.311
54656W        W27070  14.619  38.355   1.916
54657W        W27071   9.796  41.389   1.763
54658W        W27072  16.073  39.470   1.285
54659W        W27073   9.344  37.483  14.492
54660W        W27074  21.243  42.961   1.811
54661W        W27075  22.528   8.660   4.185
54662W        W27076  33.434   6.832   1.380
54663W        W27077   4.251  10.372  10.924
54664W        W27078  16.800  22.680   3.759
54665W        W27079  15.742  37.870   3.331
54666W        W27080  34.418  30.622   1.378
54667W        W27081  31.119  12.813   3.755
54668W        W27082   0.358   4.736  12.046
54669W        W27083  17.780  29.604  13.504
54670W        W27084  30.157  40.809   2.693
54671W        W27085  32.549  29.443   2.208
54672W        W27086  20.553  26.088   1.316
54673W        W27087  27.989  15.162  11.982
54674W        W27088  39.523   9.257  10.559
54675W        W27089   3.350  15.266   0.290
54676W        W27090  43.766  31.432  10.445
54677W        W27091   5.824   0.471   4.752
54678W        W27092  30.097  20.186   3.761
54679W        W27093  16.172  29.040   2.775
54680W        W27094  23.137   2.392   3.249
54681W        W27095   8.883  22.179   3.812
54682W        W27096  19.185  28.652  10.895
54683W        W27097  15.166  18.264  12.017
54684W        W27098  16.661  35.593   2.194
54685W        W27099  41.993   6.740   2.362
54686W        W27100  37.380   3.872   4.714
54687W        W27101  35.947   9.262   2.846
54688W        W27102   0.759  38.998   2.894
54689W        W27103  42.470   5.353  11.438
54690W        W27104  44.441   0.766  12.885
54691W        W27105  17.604  26.555  10.608
54692W        W27106  41.025  16.093  13.000
54693W        W27107  16.239  11.718  11.390
54694W        W27108  42.390  41.977   0.462
54695W        W27109  12.329  28.179   3.274
54696W        W27110  28.483  12.665  10.962
54697W        W27111  18.091  37.413  10.903
54698W        W27112   4.771  24.068   1.244
54699W        W27113   9.374  18.778   0.881
54700W        W27114  23.223  16.604   1.795
54701W        W27115  40.478  38.055   3.767
54702W        W27116  14.755  19.119  13.356
54703W        W27117  42.999  23.686  10.887
54704W        W27118   2.343  21.591  10.475
54705W        W27119  44.270  25.200   4.235
54706W        W27120   8.849  39.933  12.517
54707W        W27121  40.812  28.443  12.826
54708W        W27122  31.129  26.460   3.840
54709W        W27123   6.227  22.648  13.503
54710W        W27124   0.479  25.503   3.256
54711W        W27125  16.307  14.675  13.325
54712W        W27126   2.303   6.238  14.865
54713W        W27127  42.465  10.336   4.691
54714W        W27128   6.821  11.829  10.577
54715W        W27129  27.079   3.835  12.924
54716W        W27130  13.828  16.142   3.359
54717W        W27131   0.302   5.216   1.790
54718W        W27132  17.088   7.316  10.582
54719W        W27133  39.921   9.316   2.701
54720W        W27134  43.020  44.342   4.713
54721W        W27135  40.872  31.592  13.039
54722W        W27136  35.553  14.325   4.143
54723W        W27137   0.401  24.998  11.467
54724W        W27138  35.087  31.141  10.462
54725W        W27139  27.981  44.991   1.916
54726W        W27140   4.300  39.538  14.386
54727W        W27141  16.696  41.369  13.827
54728W        W27142  13.663  18.638  12.485
54729W        W27143  32.616  40.960   3.248
54730W        W27144  38.827  36.476  12.067
54731W        W27145  23.226  26.129  12.462
54732W        W27146  21.205  29.617   4.351
54733W        W27147   1.314  22.204   2.814
54734W        W27148   9.773  28.018   4.312
54735W        W27149  20.079  33.483  12.572
54736W        W27150  13.323  20.116  13.984
54737W        W27151  17.122  17.177   9.995
54738W        W27152  36.430  13.345   2.778
54739W        W27153   5.327  23.015   2.851
54740W        W27154  13.219  42.890  10.504
54741W        W27155  23.540  44.790  14.930
54742W        W27156  20.090  17.236   4.731
54743W        W27157  14.205   3.219  14.806
54744W        W27158  16.655  25.988   4.346
54745W        W27159  36.942   1.786  13.440
54746W        W27160  28.937  13.834   2.859
54747W        W27161   4.735  33.907   4.296
54748W        W27162  31.992  24.217   2.840
54749W        W27163  12.847  22.736   2.680
54750W        W27164   1.336  32.609  10.939
54751W        W27165  26.131  18.237   5.706
54752W        W27166  20.723  13.264  13.968
54753W        W27167  33.603  44.975  11.409
54754W        W27168   4.894  17.179   0.759
54755W        W27169  27.674  14.800   0.783
54756W        W27170  36.414  32.534  13.836
54757W        W27171  40.524   8.317  14.911
54758W        W27172  30.540  10.732   2.898
54759W        W27173  28.630  31.576   2.741
54760W        W27174  40.820  40.839  11.976
54761W        W27175  11.160  23.178   1.236
54762W        W27176  38.538  27.596   3.685
54763W        W27177   4.699  11.286   1.221
54764W        W27178  10.723  16.087  13.043
54765W        W27179  15.272  41.503   1.882
54766W        W27180  25.582  36.538  11.540
54767W        W27181  37.872  42.512  11.019
54768W        W27182  29.028  30.041  12.894
54769W        W27183  42.874   0.362   1.219
54770W        W27184   2.926  28.934   1.837
54771W        W27185  22.652   5.225   3.645
54772W        W27186  40.347  43.513  13.372
54773W        W27187  39.966  27.490   0.418
54774W        W27188  11.737  29.530  10.062
54775W        W27189  22.074  30.922  14.330
54776W        W27190  40.993  20.132  10.482
54777W        W27191  42.869  20.190  13.890
54778W        W27192  12.852  16.193   4.713
54779W        W27193  25.179  16.239   4.269
54780W        W27194  15.755  42.894   9.975
54781W        W27195  16.277  27.518   0.270
54782W        W27196   0.387   6.205  14.889
54783W        W27197  41.511   3.459   0.311
54784W        W27198   7.235  12.248  10.634
54785W        W27199  33.999   4.887   0.433
54786W        W27200  28.959  14.337   1.396
54787W        W27201   9.338  24.203  14.782
54788W        W27202  33.443  41.323  10.024
54789W        W27203  16.237  33.010  13.494
54790W        W27204  13.148   0.866  11.526
54791W        W27205  10.842  32.451  12.406
54792W        W27206  26.684   0.335  10.628
54793W        W27207  41.526  11.734   1.934
54794W        W27208  34.988  38.867   4.741
54795W        W27209  38.865   7.205   0.289
54796W        W27210   2.862   3.410  10.506
54797W        W27211  33.391  44.298   3.163
54798W        W27212  19.779  34.490   2.339
54799W        W27213  34.940   8.163   1.288
54800W        W27214  29.978  30.649   3.642
54801W        W27215  41.481  43.294   2.283
54802W        W27216  29.592  26.563   0.951
54803W        W27217  44.974   2.888  11.902
54804W        W27218  44.462  20.141   4.117
54805W        W27219  11.746  40.415   3.660
54806W        W27220   7.306   9.695  11.920
54807W        W27221  18.585  42.946  12.880
54808W        W27222  16.750  40.021   0.378
54809W        W27223  28.661  36.985  10.946
54810W        W27224   5.771   2.900  12.043
54811W        W27225   3.354  23.090   2.752
54812W        W27226  22.649  30.526  10.600
54813W        W27227  32.619  34.947  10.976
54814W        W27228  17.203  24.586  11.034
54815W        W27229  34.372   4.868   1.835
54816W        W27230   5.926  15.320   0.441
54817W        W27231  35.469  30.484  14.287
54818W        W27232  44.500  28.654   0.867
54819W        W27233  21.192  20.230   3.153
54820W        W27234  12.132   3.919   1.264
54821W        W27235  42.468  38.417  10.582
54822W        W27236   3.301  21.152  13.815
54823W        W27237  23.505  23.649   3.788
54824W        W27238  15.629  29.025  11.086
54825W        W27239   7.415  21.605  14.031
54826W        W27240  26.193   7.889  12.911
54827W        W27241  37.951  14.668  12.900
54828W        W27242   6.854  11.799  13.801
54829W        W27243  40.334  41.502   2.358
54830W        W27244  29.957  40.415   0.848
54831W        W27245  44.322  33.043   4.149
54832W        W27246  22.623  29.619  12.909
54833W        W27247  31.927  25.044  12.388
54834W        W27248  40.359   7.239   2.676
54835W        W27249  27.169  24.188  10.908
54836W        W27250  28.478   7.706  11.596
54837W        W27251  25.189   4.927   4.633
54838W        W27252  41.871  25.612  13.362
54839W        W27253  29.032  44.817  10.522
54840W        W27254  23.728  15.647  10.040
54841W        W27255  27.581   6.357   3.270
54842W        W27256  43.380  13.199  10.598
54843W        W27257   1.429  10.148  12.974
54844W        W27258  25.039  44.321   2.728
54845W        W27259  35.955  30.003  13.950
54846W        W27260  41.877   1.316   1.273
54847W        W27261  41.814  30.084  10.425
54848W        W27262  25.591  34.491   0.961
54849W        W27263   2.954   1.404   0.283
54850W        W27264  33.590   5.259   3.851
54851W        W27265  33.874  12.264  12.453
54852W        W27266   6.696   4.810   3.735
54853W        W27267  22.638   7.287   0.769
54854W        W27268   1.426  43.307  12.401
54855W        W27269  42.936   3.810  14.304
54856W        W27270   3.283  30.659  13.917
54857W        W27271  16.739  42.442   3.678
54858W        W27272  15.096  11.689   4.284
54859W        W27273   0.852   1.289  10.430
54860W        W27274  41.482   1.886  11.515
54861W        W27275   4.902   7.387   5.137
54862W        W27276  18.787  40.018  11.604
54863W        W27277  33.495  25.970  14.861
54864W        W27278  36.084   8.333  11.461
54865W        W27279  12.772  32.011   0.405
54866W        W27280  24.994  14.338   2.273
54867W        W27281   7.352  16.101  10.984
54868W        W27282  37.409  41.320  12.040
54869W        W27283  43.282  34.870   3.184
54870W        W27284  36.487   3.396   1.348
54871W        W27285  43.865  36.843   2.384
54872W        W27286  29.981  38.555  10.518
54873W        W27287  18.270   6.884   1.439
54874W        W27288  13.139   2.775  10.993
54875W        W27289  19.252  17.171  14.333
54876W        W27290  12.151  26.595  11.889
54877W        W27291  25.597   3.732  11.529
54878W        W27292  26.534  18.172   2.730
54879W        W27293  25.628  24.688   1.838
54880W        W27294  17.219  12.649  12.011
54881W        W27295  11.796  38.836  10.115
54882W        W27296  15.637   5.244  12.515
54883W        W27297  17.691  30.457   2.799
54884W        W27298  17.183  32.531   2.877
54885W        W27299   9.809  34.580  14.363
54886W        W27300  31.959  23.172  10.951
54887W        W27301  40.435  23.141  11.597
54888W        W27302  41.490  16.132   0.766
54889W        W27303  12.362  15.229   2.763
54890W        W27304  24.614  19.253  14.935
54891W        W27305   4.744  42.521  11.060
54892W        W27306  22.506  35.503   2.365
54893W        W27307  18.634   7.277  14.923
54894W        W27308  33.016  44.484   1.877
54895W        W27309   4.337  31.639  11.591
54896W        W27310  19.647   0.822   3.819
54897W        W27311  22.183   7.787  13.844
54898W        W27312  26.172   1.933   4.271
54899W        W27313   6.794  39.450  13.495
54900W        W27314  25.057   7.896  14.976
54901W        W27315  10.208  10.139   4.698
54902W        W27316   0.299  13.802  11.481
54903W        W27317  19.211  35.982   1.834
54904W        W27318   3.230  28.448  11.960
54905W        W27319  19.130  44.769  13.545
54906W        W27320  28.581  15.303  12.573
54907W        W27321   3.930   9.802  13.019
54908W        W27322  35.997  20.121  13.987
54909W        W27323  25.146  20.079  11.048
54910W        W27324  18.745  26.982   1.810
54911W        W27325  20.702   8.731  12.969
54912W        W27326  24.671  21.640   4.327
54913W        W27327  44.484   5.430   4.246
54914W        W27328  41.829  36.592  11.385
54915W        W27329  30.147  19.216  12.569
54916W        W27330  18.200  42.382  11.124
54917W        W27331  41.843   9.691  14.883
54918W        W27332  24.172  18.060   4.282
54919W        W27333  29.023   7.825   0.348
54920W        W27334  31.632  37.387  11.086
54921W        W27335  21.650  42.911   2.291
54922W        W27336  27.560  33.121  13.500
54923W        W27337  33.894  21.259  13.537
54924W        W27338  41.343  44.305  10.962
54925W        W27339  41.810  18.785   4.147
54926W        W27340  34.431  40.442   4.810
54927W        W27341   2.792  36.875  12.460
54928W        W27342  44.469  22.603   4.255
54929W        W27343  16.081  43.894  14.818
54930W        W27344  21.713  29.457   3.751
54931W        W27345  39.515  34.097   1.337
54932W        W27346  14.794  31.419  14.504
54933W        W27347  24.719  44.002  14.291
54934W        W27348   8.709   5.338   4.169
54935W        W27349  28.169  34.967  11.432
54936W        W27350   1.820  28.978   0.789
54937W        W27351   0.439   9.881   3.650
54938W        W27352  26.128   3.743   0.870
54939W        W27353  31.600  17.063   2.841
54940W        W27354  23.061  17.219   5.174
54941W        W27355  34.506  31.632  10.981
54942W        W27356  27.458  15.761   4.736
54943W        W27357  19.127   7.770  13.417
54944W        W27358  21.025  10.368  12.976
54945W        W27359   8.163  37.437   4.287
54946W        W27360   6.807  39.545   2.270
54947W        W27361  35.061  37.472   3.162
54948W        W27362   7.296  25.525   1.859
54949W        W27363  35.535  10.850  10.441
54950W        W27364  33.102  32.526   4.701
54951W        W27365  30.061  42.495  14.003
54952W        W27366  24.110  40.408   0.746
54953W        W27367  37.857   3.453   2.870
54954W        W27368   5.899   0.249  12.416
54955W        W27369  27.062  36.921  11.389
54956W        W27370  17.108  36.009   3.280
54957W        W27371  18.055  17.775  12.474
54958W        W27372  19.776  15.195  14.760
54959W        W27373  37.350  26.651   2.759
54960W        W27374  28.982  14.831  10.488
54961W        W27375  35.996   0.986  11.072
54962W        W27376  33.499  14.285  13.971
54963W        W27377  11.841  36.974  13.465
54964W        W27378  10.785   2.896  12.930
54965W        W27379   3.396   7.217  10.486
54966W        W27380   3.387  21.586   2.819
54967W        W27381   9.859  19.125   1.223
54968W        W27382  42.030   2.370  14.335
54969W        W27383  22.683   1.439  11.448
54970W        W27384   1.397  40.957   4.748
54971W        W27385  41.979  18.757  12.508
54972W        W27386   0.334  21.252   2.379
54973W        W27387  19.246  21.153  11.010
54974W        W27388   7.388  43.923  13.513
54975W        W27389  22.201  31.546  11.591
54976W        W27390  19.542  24.724  14.289
54977W        W27391  35.079  26.598  13.994
54978W        W27392  22.115  32.985   1.440
54979W        W27393  29.643  27.008   0.732
54980W        W27394  12.238   8.297   4.258
54981W        W27395  21.574   8.379   4.751
54982W        W27396   2.889  20.526  13.834
54983W        W27397  44.386  10.844   4.332
54984W        W27398   4.779  42.388   0.343
54985W        W27399  44.292  10.736  13.812
54986W        W27400  30.000  35.455   3.714
54987W        W27401  37.373  11.167   2.192
54988W        W27402  23.606  10.685  12.009
54989W        W27403  29.927  16.077   0.865
54990W        W27404  37.863  29.047  12.836
54991W        W27405   6.408  21.544   2.854
54992W        W27406  18.625  32.515   2.831
54993W        W27407  32.080   5.203   0.398
54994W        W27408  18.658  25.693  13.991
54995W        W27409  18.150   9.786  14.809
54996W        W27410  43.782  12.832  10.593
54997W        W27411  38.481  38.062  13.939
54998W        W27412  44.783  26.078  10.505
54999W        W27413   0.922  43.874  14.453
55000W        W27414  27.971  31.913  12.018
55001W        W27415  10.876   5.761  14.327
55002W        W27416  17.066  25.620  12.446
55003W        W27417  20.611  25.675   4.665
55004W        W27418  33.423  22.211   2.325
55005W        W27419  19.180   3.436   0.837
55006W        W27420  33.878  21.052  10.055
55007W        W27421  21.631  18.291  10.623
55008W        W27422   9.339   0.809   0.890
55009W        W27423   7.847  28.960   2.272
55010W        W27424  38.524  24.693  10.627
55011W        W27425  25.158   0.265  11.405
55012W        W27426  17.599  22.502  14.348
55013W        W27427  40.519  38.870  11.926
55014W        W27428   3.715   0.483  11.981
55015W        W27429  29.135  13.753   1.854
55016W        W27430  25.693   7.711   4.257
55017W        W27431  27.970  37.967  14.828
55018W        W27432  11.360  14.228   2.896
55019W        W27433  31.983  18.125  12.523
55020W        W27434   4.222   0.931  10.447
55021W        W27435  10.190  17.150   1.353
55022W        W27436  35.920   4.253   3.754
55023W        W27437  38.052  26.544   2.692
55024W        W27438   3.457  36.540  13.341
55025W        W27439   4.358   7.797  12.398
55026W        W27440  13.777  25.709   3.764
55027W        W27441  39.445  16.179  11.581
55028W        W27442  39.348  28.001   9.957
55029W        W27443  27.491   2.226  12.525
55030W        W27444  11.249  16.667   1.882
55031W        W27445  26.194  10.353  12.025
55032W        W27446  23.051  41.030   3.322
55033W        W27447  39.938  37.872   3.682
55034W        W27448  24.658  19.779  12.060
55035W        W27449  24.149  38.871  10.952
55036W        W27450  28.509  44.296   2.200
55037W        W27451  43.382  13.737  13.905
55038W        W27452   8.165  39.940  13.465
55039W        W27453   3.843   6.844  13.996
55040W        W27454  11.787  13.635   1.713
55041W        W27455   0.834  13.784   3.663
55042W        W27456  21.148   1.878  13.349
55043W        W27457   1.829   8.280   2.256
55044W        W27458  41.827   9.170   2.183
55045W        W27459  30.095  25.544   1.213
55046W        W27460  20.723  31.934  10.891
55047W        W27461   9.817  41.406   0.475
55048W        W27462   0.318   3.787  10.500
55049W        W27463  13.349   2.752   3.672
55050W        W27464  16.163  10.277   3.223
55051W        W27465  33.111  37.393  14.880
55052W        W27466  33.602  10.678   0.264
55053W        W27467  40.879  30.495   2.897
55054W        W27468  34.079  11.825  12.922
55055W        W27469  12.773  27.175   4.706
55056W        W27470  34.948  15.586  14.380
55057W        W27471  36.410  21.135  10.921
55058W        W27472  22.739   4.423   1.763
55059W        W27473  31.904   9.825  11.013
55060W        W27474   9.738  34.371   2.309
55061W        W27475  20.595  33.978   0.922
55062W        W27476   5.692  43.492   4.354
55063W        W27477   8.343  25.180  14.933
55064W        W27478  42.322  44.309  11.950
55065W        W27479  21.163  12.816   4.198
55066W        W27480  43.948   2.887   3.737
55067W        W27481   8.830  17.300   4.740
55068W        W27482  32.021  23.501   9.926
55069W        W27483  33.016  44.888   3.685
55070W        W27484   8.790  22.038  12.974
55071W        W27485  17.634  27.058  14.901
55072W        W27486   5.898  13.327  14.871
55073W        W27487  16.225  30.639  10.900
55074W        W27488  37.344   1.445  11.921
55075W        W27489  35.979  34.904   4.610
55076W        W27490   3.226  15.731  10.601
55077W        W27491   9.362  30.424   3.254
55078W        W27492  39.534  12.738  14.822
55079W        W27493  11.716  10.727   3.752
55080W        W27494  44.778  39.467   3.832
55081W        W27495  11.639  14.626  11.462
55082W        W27496  23.083   5.303  12.903
55083W        W27497  25.511   3.859   1.813
55084W        W27498   4.365  20.085  11.864
55085W        W27499  14.188  18.292  10.506
55086W        W27500   7.708  43.350   1.826
55087W        W27501  30.658   6.882  10.892
55088W        W27502  22.072  21.522  13.829
55089W        W27503   3.402  20.089  12.909
55090W        W27504  29.058   8.731   2.810
55091W        W27505  39.952  35.982   3.656
55092W        W27506   6.386   7.198  14.354
55093W        W27507  29.981  25.607   0.864
55094W        W27508   1.382   8.331  12.444
55095W        W27509  40.046   0.745  14.404
55096W        W27510  32.489  35.015  14.914
55097W        W27511  23.012  40.025  11.050
55098W        W27512  26.094  11.860  14.926
55099W        W27513  35.445   8.301  14.768
55100W        W27514  26.182  14.690   3.635
55101W        W27515  25.965  21.043  13.865
55102W        W27516  10.165  32.546   2.713
55103W        W27517  24.076  34.973   2.675
55104W        W27518  32.635  29.581   4.624
55105W        W27519  22.601  18.721   4.283
55106W        W27520  16.654  34.376   3.865
55107W        W27521  31.991  20.233   1.330
55108W        W27522  28.476  14.639   4.658
55109W        W27523  34.871  11.849  11.407
55110W        W27524  32.601   9.196   3.235
55111W        W27525  10.676  25.987   1.372
55112W        W27526  16.745  39.982  12.016
55113W        W27527  43.491  29.023  12.354
55114W        W27528  21.633   4.864  10.097
55115W        W27529  29.580  29.668   5.260
55116W        W27530  32.506  41.861  13.951
55117W        W27531   9.720  33.439   3.854
55118W        W27532  40.390  33.882  11.964
55119W        W27533   2.407   5.287   4.117
55120W        W27534  28.957   5.377   3.866
55121W        W27535  40.933  13.777   3.681
55122W        W27536  24.102  22.515   1.814
55123W        W27537  41.920  12.615   4.802
55124W        W27538  11.693   0.258  11.504
55125W        W27539  29.640  24.128   3.272
55126W        W27540  21.096  21.212   4.717
55127W        W27541  40.864   6.677  12.352
55128W        W27542  12.341   8.733  11.082
55129W        W27543  21.651  40.020   0.755
55130W        W27544  43.294  38.512   3.642
55131W        W27545  12.193  29.603  13.426
55132W        W27546  20.692  20.667   3.225
55133W        W27547  43.810   5.199   3.155
55134W        W27548   7.776   6.224  12.416
55135W        W27549   3.941  13.800  13.336
55136W        W27550  29.531  36.026   2.862
55137W        W27551  37.837  16.272   4.808
55138W        W27552  13.203  32.594   1.355
55139W        W27553   7.853   8.258  13.880
55140W        W27554   2.782  41.504   4.714
55141W        W27555   9.846  16.289  11.546
55142W        W27556  37.429  23.536  13.830
55143W        W27557  40.487  18.166  12.514
55144W        W27558  20.273  23.059   4.667
55145W        W27559  24.124  10.796  10.643
55146W        W27560  25.184  13.696   3.190
55147W        W27561  38.924  36.383  12.946
55148W        W27562  43.872  33.953  11.038
55149W        W27563  34.959  18.102  11.993
55150W        W27564  18.132  18.709  10.600
55151W        W27565   1.739  28.036   2.293
55152W        W27566  25.499  32.514   0.332
55153W        W27567  34.886  44.977   4.801
55154W        W27568  32.093  44.869   2.403
55155W        W27569  30.913   3.359  14.398
55156W        W27570  13.275  37.059  14.277
55157W        W27571  14.119  35.993   3.203
55158W        W27572  31.143  40.013   1.271
55159W        W27573  17.155  17.750   0.825
55160W        W27574  22.564  13.107  13.970
55161W        W27575  20.084  19.256   4.689
55162W        W27576  41.010  30.029  14.443
55163W        W27577  34.370   6.901   2.351
55164W        W27578  20.094  11.851   4.622
55165W        W27579  25.606  35.981   0.891
55166W        W27580  29.113  23.215  10.977
55167W        W27581   5.302  12.222  13.981
55168W        W27582  20.551   0.879  13.928
55169W        W27583  16.227   3.923  14.423
55170W        W27584  11.321   6.708   4.690
55171W        W27585  15.580  27.033   4.211
55172W        W27586  17.096   3.852  11.976
55173W        W27587  38.933  42.382   4.786
55174W        W27588  35.382  37.869  12.946
55175W        W27589  40.801   2.842  12.911
55176W        W27590  43.013  37.482   0.307
55177W        W27591  29.611   8.839  10.579
55178W        W27592  16.641  13.341   3.231
55179W        W27593  43.869   4.944  14.924
55180W        W27594  35.103   1.921  12.899
55181W        W27595   4.419  36.895   0.932
55182W        W27596  26.637  39.046  14.953
55183W        W27597  37.564  27.177   0.387
55184W        W27598  15.671  15.191   3.789
55185W        W27599  18.266   7.860  10.517
55186W        W27600   7.805  10.230  13.510
55187W        W27601  20.704  39.508   1.756
55188W        W27602  34.114   7.269  12.570
55189W        W27603  33.914  43.947   2.696
55190W        W27604   3.840  18.076  14.419
55191W        W27605  22.518  40.530   4.333
55192W        W27606  21.132   2.827   0.742
55193W        W27607  18.703  43.980  11.510
55194W        W27608  13.790  15.212  10.616
55195W        W27609  11.275  19.553  11.894
55196W        W27610  36.895   2.779   3.372
55197W        W27611  27.068  43.953   0.734
55198W        W27612  17.117  41.995  10.412
55199W        W27613  22.681  34.389  12.065
55200W        W27614  21.734  20.031   2.841
55201W        W27615   0.259  39.019   2.689
55202W        W27616  22.650   4.909   2.672
55203W        W27617   5.875  20.658   4.186
55204W        W27618   8.827  39.986   3.372
55205W        W27619  36.869  41.952   0.964
55206W        W27620   2.839  27.129   1.731
55207W        W27621  26.667  28.031  12.521
55208W        W27622  10.138  28.090   4.238
55209W        W27623   8.662  44.259   3.745
55210W        W27624  22.561  14.597  11.594
55211W        W27625  15.789   5.709   9.968
55212W        W27626  29.961   2.373   3.734
55213W        W27627  42.464  31.600  12.971
55214W        W27628  12.847  24.637  13.900
55215W        W27629  33.498  24.091  11.578
55216W        W27630  44.391   1.243  14.359
55217W        W27631  44.769  33.123   0.430
55218W        W27632   1.880  44.917   2.305
55219W        W27633  22.682  37.028  11.964
55220W        W27634  34.944  30.428  13.316
55221W        W27635  38.385  11.741  13.948
55222W        W27636  34.417  28.159   2.874
55223W        W27637  18.214  21.643  13.910
55224W        W27638  18.228   6.801  12.341
55225W        W27639   2.725  42.353   2.832
55226W        W27640  35.967  40.908  12.437
55227W        W27641  30.418   6.189  11.419
55228W        W27642  40.543  20.607   2.785
55229W        W27643  10.823   8.205   0.805
55230W        W27644  36.080  11.183   0.921
55231W        W27645  34.405   8.260  10.960
55232W        W27646  24.486  23.704  12.557
55233W        W27647  29.475  34.890   1.347
55234W        W27648  22.088  26.990  12.872
55235W        W27649   7.891   8.372  10.959
55236W        W27650  23.098  38.826   0.350
55237W        W27651  16.692  27.600   3.781
55238W        W27652  37.468  31.957   3.213
55239W        W27653  36.363  31.981   0.875
55240W        W27654   2.308   6.733   3.851
55241W        W27655  20.590  21.715  14.313
55242W        W27656  15.306  41.505  14.902
55243W        W27657  37.579  27.676   3.735
55244W        W27658   8.340   2.468  13.041
55245W        W27659  18.100  36.993  13.805
55246W        W27660  42.962   0.371   2.828
55247W        W27661   7.708  14.159  11.508
55248W        W27662   7.732  41.479  11.974
55249W        W27663  29.518  44.900   2.782
55250W        W27664  40.929  41.807  11.394
55251W        W27665  29.588  14.146   4.131
55252W        W27666  19.103   0.960   9.990
55253W        W27667  33.553  39.487   2.717
55254W        W27668  12.842   2.297   0.881
55255W        W27669  42.289  11.285  11.027
55256W        W27670   8.378  33.595  14.389
55257W        W27671  24.205  27.121  14.992
55258W        W27672   0.330   0.753   0.278
55259W        W27673  25.175   2.790   4.663
55260W        W27674  15.324   9.354   9.457
55261W        W27675   9.363  39.029   4.806
55262W        W27676   6.367  43.974  11.931
55263W        W27677  14.822  44.338  11.555
55264W        W27678  22.999  43.907   2.697
55265W        W27679  33.440  13.247   3.338
55266W        W27680  22.166  13.226  10.891
55267W        W27681  28.157  28.520  14.990
55268W        W27682  14.767  37.534  14.009
55269W        W27683   1.807  10.735   4.603
55270W        W27684  15.672   2.320   3.713
55271W        W27685  32.597  18.273  14.898
55272W        W27686  26.606  39.047   1.697
55273W        W27687   1.921  31.552   0.733
55274W        W27688   9.216  21.147  11.885
55275W        W27689  42.492  38.010   1.774
55276W        W27690   6.239  34.372   2.695
55277W        W27691  31.900  13.735   2.411
55278W        W27692  32.534  29.556  10.924
55279W        W27693  14.333  44.856   0.456
55280W        W27694  28.597  44.990   1.350
55281W        W27695  22.126  18.592   0.802
55282W        W27696  21.692  15.169   2.787
55283W        W27697  31.429  41.531   0.348
55284W        W27698  31.635  24.543  11.886
55285W        W27699  32.480  22.549   1.809
55286W        W27700  34.573  41.979  12.431
55287W        W27701   4.266  37.582  13.010
55288W        W27702  32.510  14.693  11.052
55289W        W27703  36.087  32.403  11.990
55290W        W27704  27.194  44.362   3.788
55291W        W27705  20.583   7.222  14.493
55292W        W27706  30.967   5.293  12.057
55293W        W27707   7.810  22.014   4.788
55294W        W27708  21.062  13.678   1.274
55295W        W27709  34.099  40.516   1.231
55296W        W27710  24.653  11.731   1.272
55297W        W27711  26.987   7.372   4.222
55298W        W27712  12.239   1.249  12.542
55299W        W27713   5.843  25.616   1.369
55300W        W27714  24.084  42.934  12.378
55301W        W27715  22.126  13.179   3.308
55302W        W27716  30.047  28.498   3.232
55303W        W27717  22.632  12.185  14.832
55304W        W27718  41.835  28.083  13.922
55305W        W27719   6.205  24.059   1.747
55306W        W27720  29.062  41.019   2.711
55307W        W27721  15.621   4.808   4.139
55308W        W27722  19.161  23.614   3.247
55309W        W27723   4.338  10.680   1.811
55310W        W27724   8.655  35.905  11.560
55311W        W27725   8.753  40.315   4.795
55312W        W27726  16.606  44.910  12.540
55313W        W27727   3.777  11.336  12.543
55314W        W27728  28.439  40.039   0.432
55315W        W27729  31.613   3.901   3.194
55316W        W27730  31.918  41.870  13.830
55317W        W27731  41.868  23.231   0.946
55318W        W27732   6.897  34.462   2.290
55319W        W27733   0.324  30.538  10.630
55320W        W27734  41.926   0.873   4.660
55321W        W27735  33.518   1.906  13.534
55322W        W27736   6.230  18.766   4.300
55323W        W27737  39.525  35.441   4.652
55324W        W27738  27.133   0.475  10.933
55325W        W27739  17.630  31.959   3.333
55326W        W27740  23.692  28.620  12.996
55327W        W27741   5.889  42.989   3.188
55328W        W27742  15.111  30.496  11.027
55329W        W27743  11.176   1.847   0.860
55330W        W27744  10.806  10.746  11.587
55331W        W27745  40.028   5.742  13.325
55332W        W27746  12.329  35.514   1.405
55333W        W27747  32.947  33.017   2.334
55334W        W27748  15.109   8.808   9.921
55335W        W27749  35.098  34.903  13.329
55336W        W27750   2.959   8.404  10.454
55337W        W27751  37.029  41.926   0.341
55338W        W27752  22.612  35.594  13.426
55339W        W27753   4.866  26.016  10.526
55340W        W27754  38.076  29.115   3.806
55341W        W27755   0.308  44.765   1.796
55342W        W27756  11.664  30.028  10.403
55343W        W27757  10.287  34.388  13.381
55344W        W27758  32.588  31.142   1.722
55345W        W27759  22.142  25.995  11.567
55346W        W27760  34.073  25.472  11.991
55347W        W27761  41.297   5.820   0.335
55348W        W27762   1.732  23.692  13.526
55349W        W27763  15.715  29.023   4.282
55350W        W27764  17.095   6.228   0.421
55351W        W27765  17.204   8.378   5.273
55352W        W27766  30.480  14.095  11.399
55353W        W27767   3.956  16.812   1.879
55354W        W27768  37.474  22.085   2.834
55355W        W27769  41.941   4.244  11.506
55356W        W27770  29.023  27.067   3.820
55357W        W27771  18.229   4.257   3.829
55358W        W27772   2.754   3.873  12.346
55359W        W27773   2.456  23.664   0.321
55360W        W27774  23.999  38.517   2.305
55361W        W27775  24.005  10.789  12.835
55362W        W27776   8.394  12.323  13.991
55363W        W27777   2.925  40.019   1.743
55364W        W27778  12.755  31.518   3.327
55365W        W27779  38.059  38.409   3.650
55366W        W27780   3.329  24.056   0.483
55367W        W27781  19.228  15.651   3.337
55368W        W27782  11.190  16.782  10.930
55369W        W27783   7.899  24.660  14.341
55370W        W27784  12.147  18.190   3.789
55371W        W27785  31.454   5.694   2.723
55372W        W27786  40.507  33.439   2.690
55373W        W27787  44.984  18.747   0.879
55374W        W27788  10.748  40.814   2.838
55375W        W27789   8.286  26.468   5.146
55376W        W27790   3.928  15.116   9.490
55377W        W27791   9.830  17.741  13.024
55378W        W27792  38.827   1.926   0.771
55379W        W27793  27.094   2.915   3.685
55380W        W27794  26.169   0.421   1.753
55381W        W27795   5.709  19.579   0.965
55382W        W27796  32.906  10.365   1.296
55383W        W27797  11.699   1.426  13.062
55384W        W27798  12.247  15.736  11.372
55385W        W27799  38.940  31.108   3.257
55386W        W27800  35.012  24.115  13.895
55387W        W27801  23.616   8.758   2.695
55388W        W27802   7.355  22.588  10.419
55389W        W27803  25.018   1.808   5.239
55390W        W27804  42.414  33.898  10.494
55391W        W27805  12.249   5.328   2.354
55392W        W27806  29.505  23.110   2.759
55393W        W27807  44.011  40.908  12.427
55394W        W27808  20.229   7.704  12.825
55395W        W27809  39.315  35.588  14.889
55396W        W27810   5.721   2.246   1.819
55397W        W27811  14.809  42.910   4.661
55398W        W27812  44.815   0.473   1.851
55399W        W27813  12.766  43.858  12.846
55400W        W27814  12.263  34.885  14.875
55401W        W27815  20.052  16.091   3.854
55402W        W27816  13.141  15.769   2.385
55403W        W27817   6.773  11.331  12.392
55404W        W27818   2.729   9.767  13.041
55405W        W27819  29.497  29.150  11.439
55406W        W27820  40.924  21.529   1.249
55407W        W27821   1.338  15.790   4.341
55408W        W27822   6.863  32.113   4.801
55409W        W27823  23.587  16.112   4.619
55410W        W27824  38.969  26.081   2.883
55411W        W27825  34.953   3.384  14.477
55412W        W27826  11.262  37.562   2.239
55413W        W27827  20.536  36.488  12.480
55414W        W27828  39.372  36.462  12.459
55415W        W27829   1.371   3.947  12.075
55416W        W27830  44.952   9.170   0.367
55417W        W27831  12.773   6.896   4.693
55418W        W27832  35.921  37.474   2.868
55419W        W27833   2.356  40.874  13.832
55420W        W27834   4.214   1.901   0.440
55421W        W27835  22.055  27.552   0.746
55422W        W27836  30.538  33.118   0.872
55423W        W27837  34.548  41.526   4.342
55424W        W27838  24.226  13.177  13.881
55425W        W27839  42.800  10.739   1.225
55426W        W27840   5.240  40.949   9.542
55427W        W27841   4.862  22.107   0.324
55428W        W27842  37.426   6.260  12.990
55429W        W27843   5.408  26.101   2.226
55430W        W27844  42.475  37.084  12.848
55431W        W27845  37.080  35.029  13.993
55432W        W27846  40.912  40.983   1.872
55433W        W27847  10.156   0.305   1.815
55434W        W27848   8.341  11.252  14.906
55435W        W27849  25.178  24.593  12.853
55436W        W27850  15.592  43.783   3.223
55437W        W27851  20.594  43.453   1.408
55438W        W27852  12.732  36.067  10.924
55439W        W27853   3.341  14.202   0.446
55440W        W27854  31.025  26.075  10.493
55441W        W27855  38.897  25.078   3.231
55442W        W27856  21.703  23.211   0.967
55443W        W27857  34.484  40.441  14.854
55444W        W27858  14.800  34.564  11.541
55445W        W27859  15.685  30.631  10.041
55446W        W27860  19.118  40.451   4.733
55447W        W27861  40.945  34.466  12.487
55448W        W27862   4.738  44.772  14.787
55449W        W27863  20.258  22.194   2.829
55450W        W27864  42.816   1.439  13.898
55451W        W27865  14.318   4.855   1.285
55452W        W27866   5.378   0.337   2.768
55453W        W27867   5.814  32.445   4.614
55454W        W27868  23.025  13.672  12.400
55455W        W27869  41.807  30.644   1.846
55456W        W27870  19.590  31.585   2.772
55457W        W27871  38.849  24.115  12.478
55458W        W27872   4.895  20.548  13.890
55459W        W27873  13.253  30.514   3.717
55460W        W27874  12.614  40.868   2.870
55461W        W27875   0.947  11.649   1.845
55462W        W27876  35.048  16.233  13.406
55463W        W27877  31.468  39.958   4.625
55464W        W27878  21.516   2.358   1.783
55465W        W27879  34.020  33.020  11.988
55466W        W27880  12.298  19.110   2.707
55467W        W27881  17.243   2.880   3.726
55468W        W27882  42.378  29.665   2.745
55469W        W27883  14.340  32.045  12.034
55470W        W27884  19.614   9.244   2.285
55471W        W27885  26.499  29.952  10.926
55472W        W27886  13.314  17.272   3.750
55473W        W27887  35.893   8.760   4.289
55474W        W27888  38.022  29.658   4.346
55475W        W27889  38.859  36.013   2.766
55476W        W27890   1.805  40.999  11.951
55477W        W27891   1.874  29.946   4.195
55478W        W27892  16.644  33.425   0.428
55479W        W27893  28.560  27.166  14.293
55480W        W27894  35.387  40.889  14.311
55481W        W27895  40.372  39.510   0.285
55482W        W27896  23.535  28.047   3.145
55483W        W27897  30.595  10.232  14.873
55484W        W27898  29.505   3.224  12.366
55485W        W27899   4.258  12.633  13.057
55486W        W27900   9.866  37.894  12.394
55487W        W27901  41.815  21.682   3.351
55488W        W27902  39.900  40.842   2.347
55489W        W27903  30.595   9.164   4.783
55490W        W27904  15.734   5.252  13.992
55491W        W27905  30.027  38.890  14.450
55492W        W27906  41.839   4.840   0.342
55493W        W27907   7.719  41.495  12.357
55494W        W27908  13.682  37.864  14.834
55495W        W27909   9.239  28.444  12.429
55496W        W27910  31.571   3.296   0.413
55497W        W27911   3.882  33.462   3.784
55498W        W27912  38.459  30.637   4.211
55499W        W27913  33.958  38.969  13.064
55500W        W27914   5.932   2.948  14.285
55501W        W27915  30.072  35.490   1.873
55502W        W27916   2.842  21.618  11.573
55503W        W27917  24.704  42.415  12.946
55504W        W27918   8.250  43.842  11.057
55505W        W27919   9.241  44.918   0.286
55506W        W27920  42.882  28.537  13.322
55507W        W27921  32.069  43.376  11.469
55508W        W27922  10.189   6.831   3.329
55509W        W27923  31.508  22.613   1.917
55510W        W27924  39.811  39.415  13.366
55511W        W27925  24.586  17.781   1.885
55512W        W27926  28.567  19.057  10.935
55513W        W27927  24.658   3.731   3.848
55514W        W27928  40.002  19.582  10.454
55515W        W27929  38.002   7.348  10.528
55516W        W27930   7.906  25.175   5.301
55517W        W27931  26.139   4.327  13.985
55518W        W27932  26.483   4.893  10.902
55519W        W27933  37.347  10.202   4.831
55520W        W27934   3.818  39.427   5.105
55521W        W27935  44.923  10.262  12.403
55522W        W27936  30.503  19.182  14.492
55523W        W27937  12.620  11.172  11.060
55524W        W27938   4.206  44.286   2.207
55525W        W27939   8.257  12.136  13.391
55526W        W27940  18.592   4.864   0.846
55527W        W27941  20.262  11.854   2.753
55528W        W27942   6.360  37.503  12.339
55529W        W27943  36.087  21.066   9.993
55530W        W27944  40.465  11.290  14.904
55531W        W27945  30.594  44.330  13.029
55532W        W27946  43.798  44.448  11.080
55533W        W27947  38.548  17.107   2.744
55534W        W27948  33.468  17.224  13.389
55535W        W27949  29.566  26.460  12.444
55536W        W27950  17.294  27.981  13.981
55537W        W27951  25.187  26.112  11.564
55538W        W27952  27.120   1.300   4.748
55539W        W27953  20.637  40.415  11.538
55540W        W27954  10.776  29.924   0.857
55541W        W27955  40.848   6.826   2.831
55542W        W27956  19.540   1.766   3.775
55543W        W27957  26.193   6.900  14.411
55544W        W27958  35.393  33.428  10.908
55545W        W27959  31.568  30.490  14.953
55546W        W27960  42.310  17.293  13.955
55547W        W27961   0.911  37.933  12.392
55548W        W27962  29.580  25.060   5.137
55549W        W27963  39.526  21.729   1.211
55550W        W27964  32.412  41.310  13.861
55551W        W27965  34.033  13.144  10.597
55552W        W27966  20.120   7.895  11.424
55553W        W27967   8.859  30.463   2.875
55554W        W27968  37.473  29.000   4.324
55555W        W27969  34.019   1.261  10.564
55556W        W27970  30.489   1.969  11.566
55557W        W27971  40.316  44.806   1.908
55558W        W27972  23.693  42.879  12.044
55559W        W27973  18.088  25.005  13.448
55560W        W27974  32.427  25.494  14.940
55561W        W27975  14.215  25.108   0.255
55562W        W27976  23.986   5.402   3.247
55563W        W27977  19.619  11.828   1.886
55564W        W27978   7.359   1.417   1.839
55565W        W27979   7.818  12.802  13.982
55566W        W27980   2.771  26.162   5.109
55567W        W27981   8.374  39.859   1.254
55568W        W27982  44.917  11.790   1.700
55569W        W27983   6.729  38.424  14.448
55570W        W27984  19.106  22.018  13.014
55571W        W27985  22.662  23.706  14.345
55572W        W27986  13.835  29.668  12.955
55573W        W27987  23.669   2.867  13.356
55574W        W27988  43.410  25.632  11.060
55575W        W27989  30.913  17.192  11.119
55576W        W27990  26.632   5.270  11.867
55577W        W27991   8.220  43.970   1.353
55578W        W27992   1.376   7.880   1.263
55579W        W27993   7.802  36.098  13.417
55580W        W27994  43.853  16.188  12.414
55581W        W27995  23.021  18.241   0.842
55582W        W27996  44.274  15.651  13.336
55583W        W27997  44.414  31.507  10.425
55584W        W27998   7.698  34.528  14.422
55585W        W27999  44.486  37.922  11.890
55586W        W28000  22.590  17.617   4.739
55587W        W28001  38.330  27.560   3.356
55588W        W28002  27.990  19.097  11.082
55589W        W28003   8.824  31.041  11.478
55590W        W28004  34.887   4.892  13.892
55591W        W28005   7.209  27.566   4.789
55592W        W28006  18.142  31.132   0.449
55593W        W28007  23.070   6.295   0.838
55594W        W28008  19.564  44.305   9.930
55595W        W28009  19.609  13.126  12.920
55596W        W28010  38.384   5.340  10.637
55597W        W28011  30.142  43.298   3.846
55598W        W28012  37.554  11.767  12.846
55599W        W28013   0.322  18.551  10.628
55600W        W28014  12.781  15.601   1.825
55601W        W28015  32.131   1.835  12.523
55602W        W28016  14.330  20.624   3.701
55603W        W28017   7.338   1.875  14.782
55604W        W28018  42.398  35.453   1.844
55605W        W28019  22.187  37.922  10.521
55606W        W28020   3.779  39.470  11.995
55607W        W28021  24.076  23.229  10.642
55608W        W28022  17.170  22.038  13.990
55609W        W28023  44.871  41.422  14.490
55610W        W28024  33.505  29.078  13.796
55611W        W28025  25.090   8.380   4.751
55612W        W28026  27.562  35.008   1.280
55613W        W28027  23.735   3.278   2.810
55614W        W28028   9.816   2.394  11.099
55615W        W28029  20.236  42.340   0.772
55616W        W28030  42.392  35.032  10.934
55617W        W28031  29.611   2.863   1.340
55618W        W28032   3.245  16.687  11.530
55619W        W28033  13.701   2.938   0.862
55620W        W28034  42.029  20.058   4.317
55621W        W28035  15.248  23.686  12.915
55622W        W28036  25.669   5.424  13.411
55623W        W28037   1.455  19.622   3.368
55624W        W28038  39.359  42.523   1.397
55625W        W28039  40.008  13.747  12.523
55626W        W28040  22.512  10.770   4.740
55627W        W28041  24.063  43.900  14.989
55628W        W28042  33.954  22.519   0.436
55629W        W28043  43.797  18.603  12.049
55630W        W28044  29.968  15.144   1.720
55631W        W28045  42.938  21.098   1.796
55632W        W28046  32.982  31.045  11.427
55633W        W28047   3.372  23.728   3.319
55634W        W28048  30.418  44.988   2.293
55635W        W28049  10.704   5.341  10.568
55636W        W28050  16.182  21.635   3.666
55637W        W28051   8.757  25.045   2.284
55638W        W28052  10.150  22.186   3.178
55639W        W28053  19.127   3.428  10.600
55640W        W28054  26.965  29.994   0.432
55641W        W28055   9.770  12.621   3.205
55642W        W28056  12.119   9.702   2.783
55643W        W28057   9.236  38.552   1.364
55644W        W28058  40.034   9.742  10.607
55645W        W28059   0.825  30.977   4.838
55646W        W28060  36.559  38.429  13.428
55647W        W28061  29.527  43.486  10.905
55648W        W28062  27.455  27.487  12.428
55649W        W28063   7.706  11.649   0.322
55650W        W28064  25.528   9.850  14.856
55651W        W28065  37.998  13.307   0.847
55652W        W28066   6.707   9.294   0.401
55653W        W28067  28.573  20.222   0.473
55654W        W28068  32.032  14.306  11.019
55655W        W28069  44.417  15.109  10.976
55656W        W28070  28.624  35.022   2.892
55657W        W28071  34.078  41.794  13.363
55658W        W28072  23.193   5.388  12.404
55659W        W28073  11.721  22.109  13.834
55660W        W28074  40.046  33.878  10.422
55661W        W28075  10.352   7.221   3.771
55662W        W28076  19.233   5.313   4.335
55663W        W28077  43.820  31.445  14.315
55664W        W28078  21.068  22.048   2.316
55665W        W28079  40.305  33.609   5.174
55666W        W28080   0.852   4.239  10.599
55667W        W28081   5.348  21.226  10.919
55668W        W28082  22.187  38.925   1.390
55669W        W28083  19.124  11.265   1.879
55670W        W28084  23.231   5.822  10.433
55671W        W28085  12.359  38.557   4.191
55672W        W28086   6.325  14.781  14.285
55673W        W28087  11.868  19.110  11.928
55674W        W28088  39.533  30.519   3.220
55675W        W28089  13.185   0.333  10.890
55676W        W28090  16.306  31.453  14.338
55677W        W28091   5.240  35.956   2.842
55678W        W28092  23.190   1.269   2.719
55679W        W28093   8.207  37.976   1.445
55680W        W28094  18.117  11.155   1.384
55681W        W28095  15.632  20.700   2.369
55682W        W28096  10.317  28.976  12.823
55683W        W28097  18.132   0.871   3.273
55684W        W28098  13.719  19.595   3.740
55685W        W28099  21.164   0.319  12.383
55686W        W28100  19.220  42.427   3.656
55687W        W28101  26.987  27.952  11.999
55688W        W28102  39.967  34.990  11.091
55689W        W28103  20.128  39.519  11.933
55690W        W28104  25.075   6.386  12.072
55691W        W28105  19.771   5.320   3.378
55692W        W28106  34.506  32.000  14.935
55693W        W28107  10.693  32.450   1.743
55694W        W28108   9.807  22.123  13.017
55695W        W28109  35.108  25.560  12.020
55696W        W28110  18.273  10.782   1.274
55697W        W28111  36.366  17.235   0.909
55698W        W28112   1.357  21.758  14.014
55699W        W28113  31.467  31.095   3.672
55700W        W28114   5.912  18.627   3.241
55701W        W28115  44.380  28.647  11.060
55702W        W28116  36.050  16.093   1.355
55703W        W28117  22.212  40.914  11.480
55704W        W28118  15.758  42.834   3.208
55705W        W28119  30.991  25.216   0.762
55706W        W28120  12.158   0.980  14.967
55707W        W28121   6.279  27.149  13.931
55708W        W28122  38.328   8.846   4.243
55709W        W28123   3.923   7.729  10.608
55710W        W28124  19.135  40.915  12.908
55711W        W28125   9.289  34.954   3.700
55712W        W28126  21.144  14.686   4.606
55713W        W28127   4.312  19.633  13.462
55714W        W28128  21.686  17.754  12.080
55715W        W28129   4.757  38.387  12.406
55716W        W28130  21.633   5.435   2.255
55717W        W28131  22.618  35.005  11.004
55718W        W28132  20.235  10.371   4.334
55719W        W28133  33.462   0.975   0.804
55720W        W28134   5.865   0.800   0.328
55721W        W28135  11.802  33.446  13.863
55722W        W28136   3.833  41.913   0.803
55723W        W28137   4.259  22.094  10.504
55724W        W28138  33.593  19.634   3.298
55725W        W28139   5.755  41.405  10.970
55726W        W28140   4.707  11.258   3.825
55727W        W28141  37.966   7.181   0.456
55728W        W28142  14.805  12.153   3.250
55729W        W28143  22.172  11.326  10.889
55730W        W28144  16.257  40.424  10.416
55731W        W28145  25.512  26.498   2.717
55732W        W28146  41.403  30.163   2.826
55733W        W28147  27.446  41.849  13.884
55734W        W28148  34.867  34.520  13.397
55735W        W28149  42.328   5.755   3.759
55736W        W28150  21.549  39.933  12.967
55737W        W28151  34.870   0.323  12.960
55738W        W28152   6.390   9.256  14.324
55739W        W28153  21.678  42.941  12.377
55740W        W28154  19.176  41.950   4.638
55741W        W28155  18.631  25.004   4.173
55742W        W28156  35.374  43.994  10.644
55743W        W28157  26.543  26.143   1.891
55744W        W28158  32.527   8.712  12.580
55745W        W28159   4.357  24.004  10.517
55746W        W28160  12.165   2.886   1.299
55747W        W28161   8.219  17.305  14.492
55748W        W28162  18.086  39.842  14.438
55749W        W28163  16.280  16.113  12.490
55750W        W28164   8.781  43.859   3.651
55751W        W28165   8.841  29.581   5.186
55752W        W28166  22.742  36.076   5.146
55753W        W28167   1.975  40.038   1.728
55754W        W28168  15.108   9.816   4.682
55755W        W28169  11.790   5.776  12.056
55756W        W28170  30.058   1.337  13.052
55757W        W28171   8.341  27.507   1.867
55758W        W28172  35.911  26.028   1.265
55759W        W28173   6.877  30.037   3.762
55760W        W28174  43.847  12.621  13.927
55761W        W28175  17.209   2.464   4.785
55762W        W28176   4.412  19.179   2.246
55763W        W28177  18.771  27.646   2.216
55764W        W28178  21.739  26.667  12.837
55765W        W28179  39.944   0.289   3.666
55766W        W28180  42.970  24.721  11.855
55767W        W28181  26.585  21.068   3.274
55768W        W28182  38.942  16.162  13.052
55769W        W28183   8.353  14.628  14.445
55770W        W28184  29.611   4.377   1.402
55771W        W28185   3.226  34.969  10.511
55772W        W28186  29.598   5.289  13.928
55773W        W28187  34.456  28.443   1.922
55774W        W28188   1.461  21.635  11.524
55775W        W28189  28.144  12.226  12.871
55776W        W28190  11.629  23.551   0.308
55777W        W28191  37.070  19.713   4.202
55778W        W28192   4.935   8.725  13.479
55779W        W28193   7.273  40.838   0.909
55780W        W28194  38.893  32.893   2.336
55781W        W28195  31.418  39.829  12.058
55782W        W28196  21.122  33.053   9.954
55783W        W28197  33.100  11.258   3.326
55784W        W28198  25.058   7.892  10.896
55785W        W28199  32.978  22.040  10.119
55786W        W28200  28.162   8.857  13.842
55787W        W28201  36.512   3.408  12.911
55788W        W28202  40.034  18.616  14.768
55789W        W28203  17.189  10.197  14.889
55790W        W28204  12.700  17.293   3.694
55791W        W28205  42.954  30.024  11.096
55792W        W28206   9.820  32.132  10.102
55793W        W28207  33.982  37.088  12.996
55794W        W28208  20.655  40.377   3.344
55795W        W28209  21.176  38.462  14.024
55796W        W28210  13.682   9.802  14.992
55797W        W28211  35.544  13.738   1.848
55798W        W28212  42.777   7.670   3.241
55799W        W28213  38.874  15.717  13.825
55800W        W28214  13.682   8.780  11.404
55801W        W28215   1.254  40.806  13.486
55802W        W28216  16.106  21.667   0.745
55803W        W28217  20.105  32.466  12.006
55804W        W28218  14.191  40.972   3.324
55805W        W28219  14.148  29.136   1.290
55806W        W28220   0.433  13.707   0.746
55807W        W28221  20.703  30.090  11.382
55808W        W28222  44.890  42.432   3.356
55809W        W28223  22.099   9.835   3.322
55810W        W28224  33.055  28.990   0.414
55811W        W28225  37.538   8.739  13.037
55812W        W28226  41.331  22.188  12.877
55813W        W28227  11.236  39.470  13.315
55814W        W28228  14.598  13.683  11.998
55815W        W28229  24.684  42.319  12.486
55816W        W28230  42.431   4.223  10.404
55817W        W28231  14.745  35.031   4.632
55818W        W28232  43.955  23.666  10.610
55819W        W28233   8.752  29.043  12.970
55820W        W28234  21.556   1.364   3.318
55821W        W28235  24.494  36.843  12.037
55822W        W28236  13.241  11.371  14.976
55823W        W28237   2.331  12.314  12.346
55824W        W28238  40.406  17.562  14.828
55825W        W28239   4.221  34.400   3.673
55826W        W28240  40.308  42.887  11.077
55827W        W28241  19.635  32.520  11.395
55828W        W28242   9.280   2.400  10.590
55829W        W28243  40.944  43.768  12.567
55830W        W28244  28.591  16.170  11.108
55831W        W28245  41.382  40.316  13.042
55832W        W28246  32.974   1.457  10.427
55833W        W28247  44.792  27.630   3.666
55834W        W28248  22.723   0.285  13.531
55835W        W28249  11.750   0.420   1.237
55836W        W28250  39.984  20.030  13.376
55837W        W28251  33.057   3.369  13.958
55838W        W28252   9.278  11.687  11.452
55839W        W28253   9.782  29.168  11.488
55840W        W28254  20.752   9.372   1.826
55841W        W28255   4.210  40.399   1.428
55842W        W28256  41.335  28.117   1.905
55843W        W28257  22.057  17.082   3.324
55844W        W28258  35.062   1.473   0.737
55845W        W28259  34.411  41.468   3.811
55846W        W28260  12.685  39.810   2.418
55847W        W28261  20.150  37.525  12.023
55848W        W28262  17.690  16.718  13.914
55849W        W28263   6.923  39.540   1.245
55850W        W28264  16.152  37.848  12.062
55851W        W28265   8.379  40.024  14.784
55852W        W28266  39.883   1.735   3.183
55853W        W28267  28.566  19.779  13.032
55854W        W28268  15.232   5.718   3.365
55855W        W28269  39.522  37.052  14.016
55856W        W28270   7.674  40.376  14.419
55857W        W28271  40.508   3.869  12.899
55858W        W28272  24.495  19.128  13.995
55859W        W28273   1.929   0.786  13.053
55860W        W28274  41.303   8.220  11.398
55861W        W28275  41.398  20.542  10.600
55862W        W28276  36.999  21.581  12.515
55863W        W28277  29.176  26.192  12.897
55864W        W28278  15.627   4.258   3.353
55865W        W28279  12.290  30.593   0.473
55866W        W28280  42.396  13.138  11.858
55867W        W28281  40.826  29.567   2.764
55868W        W28282   5.868  33.043  14.970
55869W        W28283   0.420  25.123   3.637
55870W        W28284  15.821   1.812  14.854
55871W        W28285  32.134  39.062  14.019
55872W        W28286   4.909  11.186   2.696
55873W        W28287  33.524   0.273   2.193
55874W        W28288  40.908   1.384   2.783
55875W        W28289   0.250   8.327   3.160
55876W        W28290   5.298  23.518  13.824
55877W        W28291   1.844  20.721   1.296
55878W        W28292  13.350  35.918   3.703
55879W        W28293  37.979  15.791   4.242
55880W        W28294  30.971   2.780   1.739
55881W        W28295   6.782   1.818  12.385
55882W        W28296  18.572  23.688   4.138
55883W        W28297  15.641  42.322   3.869
55884W        W28298  28.568  11.257   4.335
55885W        W28299  25.973  13.258  12.455
55886W        W28300  36.477   4.257   2.722
55887W        W28301  14.169  17.768   2.676
55888W        W28302   0.850  33.425  11.457
55889W        W28303  35.037  29.101  13.490
55890W        W28304  20.133  17.209   9.969
55891W        W28305  10.150  30.515  14.474
55892W        W28306  44.324   9.290  11.032
55893W        W28307  44.927  24.163   4.752
55894W        W28308   8.295  20.079   0.371
55895W        W28309  18.778  10.302   5.117
55896W        W28310  43.977  31.411  13.007
55897W        W28311  11.209   2.241  10.592
55898W        W28312  37.077  23.034   5.671
55899W        W28313  26.586  44.398   0.449
55900W        W28314  36.580  14.098   3.866
55901W        W28315  42.291  12.711  10.511
55902W        W28316  43.939  24.532  13.903
55903W        W28317  24.506  19.591   1.283
55904W        W28318  22.170   2.944   4.213
55905W        W28319  44.259  34.975   3.360
55906W        W28320  18.095  22.610  13.511
55907W        W28321  36.486  33.932   1.696
55908W        W28322  25.970  29.637  12.929
55909W        W28323  16.164  13.247  14.854
55910W        W28324   1.817   7.795  13.496
55911W        W28325  13.204  38.000  10.571
55912W        W28326   7.318   6.758  12.068
55913W        W28327  29.564  22.627   2.879
55914W        W28328   5.928   6.866  11.413
55915W        W28329  10.173  44.820  13.957
55916W        W28330  20.252  36.538   3.661
55917W        W28331  43.013  16.608   2.238
55918W        W28332  24.986  28.039  11.858
55919W        W28333  43.269   4.891  10.576
55920W        W28334  38.568  33.495  13.023
55921W        W28335  42.921  35.931   3.818
55922W        W28336  40.305  24.995   2.750
55923W        W28337  12.315  35.041  11.434
55924W        W28338  33.939  23.235  11.026
55925W        W28339  13.632  17.738  11.867
55926W        W28340  19.604  44.945   1.405
55927W        W28341  30.137  19.690  14.834
55928W        W28342  31.542  27.593   2.363
55929W        W28343  17.716   7.302   2.342
55930W        W28344  11.779  24.044  10.516
55931W        W28345  19.110  36.954   0.805
55932W        W28346  26.579  32.510  14.021
55933W        W28347  25.496  39.490  10.460
55934W        W28348   6.350  38.983  14.994
55935W        W28349  19.547  35.102  11.069
55936W        W28350  26.076   0.428   2.208
55937W        W28351  26.489   3.237   2.245
55938W        W28352  35.577  30.655   2.366
55939W        W28353  32.032  28.438   0.756
55940W        W28354  24.177   9.726   1.288
55941W        W28355  34.969  25.581   0.253
55942W        W28356  34.075  30.924  14.325
55943W        W28357   5.280   7.728  13.049
55944W        W28358  26.643  13.227  10.560
55945W        W28359  38.550  33.416  13.547
55946W        W28360  20.043   7.325  11.455
55947W        W28361   5.215  43.368   0.794
55948W        W28362  40.901  32.464  12.534
55949W        W28363  11.675  30.093  12.908
55950W        W28364  13.115  31.509   1.293
55951W        W28365  30.623  12.750   4.148
55952W        W28366  43.481  37.425  14.920
55953W        W28367  31.455  44.347  14.877
55954W        W28368  43.477  28.999  11.890
55955W        W28369  22.677  18.206  11.006
55956W        W28370  14.218   2.399  14.018
55957W        W28371  15.148  44.806   3.713
55958W        W28372   9.260  33.878  12.966
55959W        W28373  31.915   3.434   1.777
55960W        W28374  30.097  41.891   2.238
55961W        W28375   2.840   1.464  10.471
55962W        W28376  43.370  41.033  12.489
55963W        W28377  36.563  42.483  10.434
55964W        W28378   8.406  12.303   3.699
55965W        W28379  38.429  14.604   2.756
55966W        W28380   9.720   1.325  12.030
55967W        W28381   1.267  44.860  12.512
55968W        W28382  11.260   1.735   1.933
55969W        W28383  34.048  41.951   4.248
55970W        W28384  30.455  11.341   4.757
55971W        W28385  23.021  24.156   1.719
55972W        W28386   2.372  31.430   1.247
55973W        W28387   0.776   0.864   2.807
55974W        W28388   5.431  19.267  14.026
55975W        W28389   7.744   0.479   0.965
55976W        W28390  44.980  28.458  14.876
55977W        W28391  15.801  22.130  11.059
55978W        W28392  38.040  21.656   2.684
55979W        W28393  13.139  16.791   4.762
55980W        W28394   0.304   5.897  11.465
55981W        W28395   3.262  10.876  13.957
55982W        W28396  38.844  31.638  10.920
55983W        W28397  37.364   8.892   9.921
55984W        W28398  11.175  27.138  10.589
55985W        W28399  24.640  23.997   4.285
55986W        W28400   1.363  10.264   1.868
55987W        W28401  41.964  32.626   4.746
55988W        W28402  25.521   5.398   3.322
55989W        W28403  35.973  26.014   3.237
55990W        W28404  26.557  25.567  11.495
55991W        W28405  24.568   3.252  12.374
55992W        W28406  20.163   0.805   4.725
55993W        W28407  19.253  23.059   4.757
55994W        W28408  44.322  25.523   4.802
55995W        W28409  21.250  29.036  12.488
55996W        W28410  21.678  37.554   2.867
55997W        W28411  23.702  17.129  10.944
55998W        W28412  17.275  40.452   2.338
55999W        W28413  43.349  33.910   2.402
56000W        W28414  18.601  28.506  11.083
56001W        W28415  13.725   5.700  10.136
56002W        W28416   0.351  23.540   0.420
56003W        W28417  18.223  32.902   3.671
56004W        W28418   9.730   4.858   2.898
56005W        W28419  12.700  44.948  10.906
56006W        W28420  36.573  25.092   1.867
56007W        W28421   6.699  27.004   2.680
56008W        W28422  10.276   1.300  10.934
56009W        W28423  28.659  19.147   4.639
56010W        W28424  10.752  29.577   1.812
56011W        W28425  13.182  34.391  11.585
56012W        W28426   1.368   0.894  13.855
56013W        W28427  18.292  28.622   0.331
56014W        W28428  19.132  10.213  12.473
56015W        W28429  26.646   7.236  14.764
56016W        W28430  15.183   0.977   1.799
56017W        W28431   5.205  31.583   1.777
56018W        W28432  31.019  44.970  14.300
56019W        W28433  11.222  41.365  11.927
56020W        W28434  37.392  28.533   3.172
56021W        W28435  42.965  18.253   1.907
56022W        W28436   7.208  10.804   1.866
56023W        W28437  20.581   2.312   1.365
56024W        W28438  44.850  15.793   3.644
56025W        W28439  34.066  44.988   3.292
56026W        W28440  22.707  44.940  11.106
56027W        W28441  36.378  24.001   5.172
56028W        W28442  12.680   6.230  10.120
56029W        W28443  25.676  39.514  11.122
56030W        W28444  32.078  11.860  12.079
56031W        W28445  11.782  20.168  13.869
56032W        W28446  24.693  10.153  11.375
56033W        W28447  24.691  30.482  13.904
56034W        W28448  42.858  30.514   4.803
56035W        W28449  25.093  26.521  14.488
56036W        W28450  31.935  33.956   3.676
56037W        W28451  38.569  39.458   2.228
56038W        W28452  40.962  16.121   4.301
56039W        W28453  35.915  10.286  11.885
56040W        W28454   9.761  35.020   3.152
56041W        W28455  43.480   8.706  14.403
56042W        W28456  23.544  43.449   0.734
56043W        W28457  15.673   3.789   4.656
56044W        W28458  34.527  41.037   0.816
56045W        W28459  42.425  12.750   3.837
56046W        W28460  40.949  42.486   1.356
56047W        W28461  12.209   5.761  10.583
56048W        W28462  38.819  33.129   4.137
56049W        W28463  43.975   1.243  12.961
56050W        W28464  25.509  27.950  10.632
56051W        W28465  32.567  31.482  12.001
56052W        W28466  21.197  23.506  11.500
56053W        W28467  15.694  26.578   1.910
56054W        W28468  13.313   3.857  13.355
56055W        W28469  33.496   0.881   1.713
56056W        W28470   3.244  38.040  13.879
56057W        W28471  24.566  42.438   1.397
56058W        W28472  35.393  25.610  11.105
56059W        W28473   1.276   9.207   1.316
56060W        W28474  28.564  25.550  11.896
56061W        W28475  34.902  12.766   3.384
56062W        W28476  24.055   4.364   3.787
56063W        W28477  20.271  36.995  10.996
56064W        W28478  33.617  33.982   1.932
56065W        W28479  17.723   8.401  10.519
56066W        W28480  39.397  35.866   3.282
56067W        W28481  12.326  37.546  13.046
56068W        W28482  28.954  42.360  12.034
56069W        W28483  27.074  16.569   2.217
56070W        W28484  20.149  22.593  13.982
56071W        W28485  27.990  15.764   4.677
56072W        W28486  36.992  33.912  14.283
56073W        W28487  22.548  11.313   3.247
56074W        W28488   4.388  44.824  13.347
56075W        W28489  30.432  17.092   3.862
56076W        W28490   7.735  30.638  11.408
56077W        W28491  20.119  44.347  14.816
56078W        W28492  43.497   8.878   5.262
56079W        W28493   6.368   2.322   4.312
56080W        W28494   2.314  26.975   1.237
56081W        W28495  16.164  23.530  14.762
56082W        W28496   8.679  23.986   4.766
56083W        W28497  11.325  36.948   4.750
56084W        W28498  24.645   0.467   0.434
56085W        W28499  30.921  23.626  10.159
56086W        W28500  13.323  32.589   2.268
56087W        W28501  20.754  30.600   3.706
56088W        W28502  35.485   6.884   2.769
56089W        W28503  37.440   9.335  13.491
56090W        W28504   0.862  31.130   4.117
56091W        W28505  43.289  12.143  11.929
56092W        W28506   2.440  35.010   3.691
56093W        W28507   0.907  33.010   1.410
56094W        W28508  15.272  35.386  12.516
56095W        W28509   5.694  22.253  13.440
56096W        W28510  14.200  38.540  10.091
56097W        W28511  16.811  41.806   0.306
56098W        W28512   0.330  12.351  12.529
56099W        W28513  27.066  12.125  12.397
56100W        W28514   2.965  19.054   4.186
56101W        W28515  14.248   9.838   4.262
56102W        W28516  17.567  37.023  10.968
56103W        W28517  20.062  43.299   4.243
56104W        W28518  39.485  44.873   0.474
56105W        W28519  12.792  22.197  12.906
56106W        W28520  35.478   1.777   2.866
56107W        W28521  25.617  38.025  12.502
56108W        W28522  40.011  30.620  13.491
56109W        W28523  16.167   7.194   0.901
56110W        W28524  22.154  10.768  12.931
56111W        W28525  15.719  27.554  10.120
56112W        W28526  21.677  13.785   3.194
56113W        W28527  23.073  34.938  13.423
56114W        W28528   6.772  26.170   1.739
56115W        W28529  23.996  38.515  11.970
56116W        W28530  29.966  18.685  12.522
56117W        W28531  12.128  12.290  12.954
56118W        W28532  37.451  28.490  12.997
56119W        W28533   7.843  14.763   4.197
56120W        W28534   7.766  30.994   0.451
56121W        W28535  38.538   0.294   3.184
56122W        W28536  43.486  41.988   2.674
56123W        W28537  16.574  39.525   3.206
56124W        W28538  16.207  39.981  13.823
56125W        W28539   8.859  34.551  10.464
56126W        W28540  13.140  12.630   9.958
56127W        W28541   8.367  25.537  11.881
56128W        W28542  13.134  24.976   3.147
56129W        W28543   3.356  33.405  14.851
56130W        W28544  11.728  10.363   1.248
56131W        W28545  25.527  37.929   2.674
56132W        W28546  27.614   7.238   4.799
56133W        W28547  12.195   7.189  11.484
56134W        W28548  13.299  17.661   4.670
56135W        W28549  22.559  25.986   4.772
56136W        W28550  35.385  34.450  12.481
56137W        W28551   5.918  21.757  14.332
56138W        W28552   5.247  18.604  12.505
56139W        W28553  17.235   1.408   4.138
56140W        W28554  23.537  21.112   3.750
56141W        W28555  41.806  10.859   1.289
56142W        W28556  10.353  32.999  14.357
56143W        W28557  18.188  10.788   2.881
56144W        W28558  27.168  32.058   4.323
56145W        W28559  24.993  28.160   1.317
56146W        W28560  20.731   2.441  14.408
56147W        W28561  40.379  43.344  11.589
56148W        W28562   1.926  39.361   4.786
56149W        W28563  36.877  36.473   5.681
56150W        W28564  25.019  39.058  13.983
56151W        W28565  39.851  41.321  13.508
56152W        W28566  42.478  25.697  11.951
56153W        W28567  25.542   5.403   1.430
56154W        W28568  13.797   8.888  12.441
56155W        W28569  26.159  15.776  13.496
56156W        W28570  28.095  43.504   1.714
56157W        W28571  25.702  28.590  13.368
56158W        W28572  12.806  27.584  11.613
56159W        W28573  41.953  27.061  13.002
56160W        W28574  35.082  38.015   3.815
56161W        W28575  15.328   3.252  10.564
56162W        W28576  23.569  16.787  12.490
56163W        W28577  30.946   5.871   3.839
56164W        W28578  21.628  29.526  13.392
56165W        W28579  29.997   7.755   4.318
56166W        W28580  33.541  21.091   2.290
56167W        W28581  28.560  21.686  14.835
56168W        W28582  24.042  10.339   4.315
56169W        W28583   3.233   8.747   1.415
56170W        W28584  36.986  33.569  13.458
56171W        W28585  18.605   9.282   2.247
56172W        W28586  21.536  40.883  12.827
56173W        W28587   0.314  44.505   2.277
56174W        W28588   6.893   9.181  12.535
56175W        W28589  29.175   1.873  11.896
56176W        W28590  44.896  44.846   0.426
56177W        W28591  17.574  26.658  10.893
56178W        W28592  44.448  34.464  10.586
56179W        W28593  41.329  19.125   1.862
56180W        W28594  36.873   5.736  14.389
56181W        W28595  24.006   2.238   3.260
56182W        W28596  15.718   8.883   1.442
56183W        W28597  31.630  12.686  13.333
56184W        W28598  28.125  32.529  10.475
56185W        W28599  21.515  32.443  11.440
56186W        W28600   7.231  25.673   4.145
56187W        W28601  14.184  22.022   3.256
56188W        W28602  18.187  11.176  12.353
56189W        W28603  20.534  23.561  12.838
56190W        W28604  40.964  44.943   1.229
56191W        W28605  40.350  44.410   1.788
56192W        W28606  21.678  22.746   1.768
56193W        W28607   0.918  18.658   1.761
56194W        W28608  10.279  20.680   1.230
56195W        W28609   9.852  17.150   4.148
56196W        W28610  30.581   1.242   4.631
56197W        W28611  41.315  13.234  14.873
56198W        W28612  31.930  34.523   4.306
56199W        W28613  37.969  35.947   3.821
56200W        W28614  39.436  39.323   4.815
56201W        W28615  16.109  41.789  12.547
56202W        W28616  15.684  14.113   0.763
56203W        W28617  37.576   9.148  12.931
56204W        W28618  15.816  40.894   2.836
56205W        W28619  15.638   2.815  12.909
56206W        W28620  23.554   3.907  13.446
56207W        W28621  11.231   2.310  14.008
56208W        W28622  38.435  16.123   0.273
56209W        W28623  12.650  31.477  13.798
56210W        W28624  34.059  10.308  10.932
56211W        W28625   6.284  13.245   5.233
56212W        W28626   4.394   3.319   1.915
56213W        W28627  38.863  24.983   2.300
56214W        W28628  42.391  18.642   3.703
56215W        W28629  43.905  34.415  13.485
56216W        W28630  44.758  38.537   3.650
56217W        W28631   1.947  21.689   0.773
56218W        W28632  31.556   8.733  12.512
56219W        W28633  32.422  29.164  12.052
56220W        W28634  22.227  29.645  13.901
56221W        W28635  13.307  13.342  11.878
56222W        W28636  27.617  31.044   2.786
56223W        W28637  16.750  17.654  14.796
56224W        W28638  10.323  42.336   2.858
56225W        W28639   5.221   5.748  12.455
56226W        W28640  29.487  21.527   4.607
56227W        W28641   8.743   0.273  11.896
56228W        W28642  16.292  14.301   2.808
56229W        W28643  22.672  12.821  11.099
56230W        W28644   0.267  13.141   4.281
56231W        W28645  33.981  19.239   2.712
56232W        W28646  16.121   3.889  11.079
56233W        W28647  39.919  21.752  14.777
56234W        W28648  11.351  13.307  12.530
56235W        W28649   6.853  38.909   2.399
56236W        W28650  34.052  36.874   4.664
56237W        W28651   4.388   4.298   0.732
56238W        W28652  41.517  20.093   5.123
56239W        W28653   5.777  23.735  14.823
56240W        W28654  16.135  27.468   2.840
56241W        W28655  28.497  36.961  11.520
56242W        W28656   8.196  43.473   4.313
56243W        W28657   5.707   3.754   1.269
56244W        W28658  25.191  10.216   2.845
56245W        W28659  37.078  40.516   3.313
56246W        W28660  24.130  40.861   4.136
56247W        W28661  16.595  25.486  14.778
56248W        W28662  26.978  41.490  10.475
56249W        W28663  15.256   2.232  11.593
56250W        W28664  25.085  30.428  14.995
56251W        W28665   7.847   3.781  14.336
56252W        W28666  33.448  18.176   0.382
56253W        W28667  41.357  27.637   3.660
56254W        W28668  43.293  24.049   0.393
56255W        W28669   9.326  10.673  14.318
56256W        W28670   5.419  13.120  11.588
56257W        W28671  42.803  38.953   5.241
56258W        W28672  43.404  29.998  12.022
56259W        W28673   7.387  29.049   4.625
56260W        W28674  22.031  36.033  13.329
56261W        W28675  33.019   0.792   4.719
56262W        W28676  20.651  15.242   0.242
56263W        W28677  42.963  23.013   1.789
56264W        W28678  34.016   4.706   1.763
56265W        W28679  16.305  39.321   2.899
56266W        W28680   5.744  15.677  13.343
56267W        W28681  38.840  39.857   3.360
56268W        W28682  18.192  17.602  12.011
56269W        W28683  32.065  21.596   0.966
56270W        W28684  10.313  43.008  14.016
56271W        W28685  16.630  37.070  11.433
56272W        W28686  19.219   8.813  11.543
56273W        W28687  43.936   9.314  13.021
56274W        W28688  30.942  22.174   4.606
56275W        W28689  41.871  40.362   1.259
56276W        W28690   8.787  35.013  11.109
56277W        W28691   0.467  35.435   3.762
56278W        W28692  28.017  27.988   3.197
56279W        W28693  33.527  20.722  14.855
56280W        W28694  26.994  25.007  12.032
56281W        W28695  13.621  31.592  11.424
56282W        W28696  20.029  24.627  12.910
56283W        W28697   8.683   5.720  14.482
56284W        W28698  32.451  14.744  14.938
56285W        W28699  43.515  29.074   4.669
56286W        W28700  40.860  18.636  13.444
56287W        W28701   8.869  42.448  11.500
56288W        W28702  36.536  11.306  14.465
56289W        W28703   3.220  19.601   2.871
56290W        W28704  33.463   3.909  13.364
56291W        W28705  44.289  13.117  12.019
56292W        W28706  28.587  19.661   0.745
56293W        W28707  22.105   6.426   3.299
56294W        W28708  41.029  35.398  14.847
56295W        W28709  18.149   8.395   0.480
56296W        W28710   6.339  14.750   4.722
56297W        W28711  32.452   9.358   3.747
56298W        W28712  36.000  10.227   0.796
56299W        W28713  29.583  36.845   0.908
56300W        W28714  28.484  18.756   2.199
56301W        W28715  30.581  41.515  14.950
56302W        W28716  21.115  18.115  14.868
56303W        W28717  13.688  16.214   3.786
56304W        W28718  30.932  29.493  11.403
56305W        W28719  17.747  13.756  13.850
56306W        W28720  27.612  13.662  10.556
56307W        W28721  40.376  10.772  13.876
56308W        W28722  33.485  10.194  14.787
56309W        W28723  38.038  19.702   0.767
56310W        W28724   1.969  24.614   1.804
56311W        W28725  38.072   5.834   2.360
56312W        W28726  28.176  37.440  14.412
56313W        W28727  22.527  30.035  13.391
56314W        W28728  39.448  12.153  13.379
56315W        W28729  42.027  38.027   1.734
56316W        W28730   4.839  11.256  10.936
56317W        W28731  33.990  20.766   1.412
56318W        W28732  32.393  32.944   0.932
56319W        W28733  25.162  27.009  13.910
56320W        W28734  18.071  18.264  14.486
56321W        W28735   6.764  31.459   0.942
56322W        W28736  11.812  11.183  12.548
56323W        W28737  33.519  15.816  10.154
56324W        W28738  41.426  31.116  14.845
56325W        W28739  38.531  27.460  14.823
56326W        W28740   5.867  43.856  12.847
56327W        W28741  20.650  38.501  14.288
56328W        W28742  17.219   0.489  14.810
56329W        W28743  41.303  39.513   0.245
56330W        W28744   8.370  10.266  12.956
56331W        W28745  26.143  29.581   1.234
56332W        W28746   6.399  40.440   9.993
56333W        W28747   7.380  33.477  10.417
56334W        W28748  29.156   3.912  11.448
56335W        W28749  14.165  32.527  10.965
56336W        W28750   7.331   2.770  12.379
56337W        W28751   7.177  12.614  13.003
56338W        W28752  26.091   0.286  10.495
56339W        W28753  31.944  42.804   1.812
56340W        W28754  30.053   1.754   2.715
56341W        W28755   6.205  13.632  14.980
56342W        W28756  25.504  28.117   1.273
56343W        W28757  29.493  36.450  14.988
56344W        W28758  23.161  24.229   3.164
56345W        W28759  42.964  12.745  11.607
56346W        W28760  37.844  42.331   3.273
56347W        W28761  24.619  13.839  12.470
56348W        W28762  11.234  44.392  13.920
56349W        W28763  13.780  40.391  13.377
56350W        W28764  16.718   2.815   4.831
56351W        W28765  13.160   8.692   2.835
56352W        W28766  33.539  40.406  14.790
56353W        W28767  25.021  40.031  13.040
56354W        W28768  43.346  18.283   4.791
56355W        W28769  40.524  15.705  11.555
56356W        W28770  44.432   6.805   2.762
56357W        W28771  12.818  41.851  13.492
56358W        W28772   6.910  15.261  11.048
56359W        W28773  34.579  26.668  13.448
56360W        W28774   3.392  25.554   2.416
56361W        W28775  21.211  29.506   2.291
56362W        W28776  44.494  38.497  10.978
56363W        W28777  25.558  34.374   2.895
56364W        W28778  36.347   3.420  11.581
56365W        W28779  38.877  29.106  13.400
56366W        W28780  20.539  23.608  11.502
56367W        W28781   0.751   5.243  12.829
56368W        W28782  18.571   4.351   0.430
56369W        W28783   8.824   6.692   0.884
56370W        W28784  33.089  26.686   2.682
56371W        W28785  35.493  44.393  13.364
56372W        W28786   0.352  25.596   0.342
56373W        W28787  35.089  24.197   1.412
56374W        W28788  40.402  18.094   1.217
56375W        W28789  31.101   8.666  10.932
56376W        W28790   4.883  20.167   1.383
56377W        W28791  32.018  43.316  13.942
56378W        W28792   1.774  30.098  10.554
56379W        W28793  30.931  25.545  13.375
56380W        W28794  31.594   1.975  14.507
56381W        W28795  34.092  30.592   0.300
56382W        W28796  22.698   5.317  11.037
56383W        W28797  34.565  22.239  14.404
56384W        W28798  15.231   9.196  12.985
56385W        W28799  33.925   2.343   4.308
56386W        W28800  12.822  17.283  11.957
56387W        W28801  21.262  30.944  14.450
56388W        W28802  10.180  31.595   4.686
56389W        W28803  39.829   6.783  14.400
56390W        W28804  19.687  25.681  13.886
56391W        W28805  28.071  38.468   0.331
56392W        W28806  22.183  31.611  14.846
56393W        W28807  31.102   7.363  12.454
56394W        W28808  26.176  25.201   2.265
56395W        W28809  24.593   2.944  14.921
56396W        W28810  44.348  13.714   2.885
56397W        W28811  32.451  39.848  14.302
56398W        W28812  33.930  12.243   3.726
56399W        W28813  35.424  35.493  13.014
56400W        W28814  40.425  25.019   3.814
56401W        W28815  14.676   5.200   0.753
56402W        W28816  27.990  24.037  13.829
56403W        W28817  25.520  23.209   1.843
56404W        W28818  13.207  27.558  11.061
56405W        W28819  24.083  43.896   3.154
56406W        W28820  14.686  27.602  13.945
56407W        W28821  19.606  37.564  12.941
56408W        W28822  22.528  12.654   0.780
56409W        W28823  27.613  29.475   3.387
56410W        W28824  21.046  18.150   0.829
56411W        W28825  17.241  20.705  14.030
56412W        W28826   7.691   4.943   0.784
56413W        W28827  15.112  13.681  11.481
56414W        W28828  30.442   1.463   1.326
56415W        W28829  36.905  39.817   1.695
56416W        W28830  20.581  29.007  11.407
56417W        W28831  31.976  29.437  14.829
56418W        W28832   9.659  35.578   4.768
56419W        W28833  39.826  12.342  12.556
56420W        W28834  10.735  37.054  14.330
56421W        W28835   9.314  16.252   3.282
56422W        W28836  17.146   5.248  12.964
56423W        W28837  38.927  42.007  12.479
56424W        W28838  43.907  15.302   2.828
56425W        W28839  26.974  44.275   9.626
56426W        W28840  42.875  20.600   1.282
56427W        W28841   0.961  33.433   4.609
56428W        W28842  10.740  36.092  14.026
56429W        W28843  18.585  38.075  11.103
56430W        W28844  39.052  31.071   2.314
56431W        W28845  37.840  16.678  12.449
56432W        W28846  40.542  33.887   1.858
56433W        W28847  37.478  26.562   4.710
56434W        W28848  41.474  35.056   2.716
56435W        W28849  33.064  29.934   4.211
56436W        W28850  18.546  35.042   4.268
56437W        W28851   9.292  34.931   0.388
56438W        W28852   6.819  34.387  13.984
56439W        W28853  13.271   1.434  12.871
56440W        W28854  22.122  23.235   0.246
56441W        W28855  34.490  37.017  12.491
56442W        W28856  23.050  31.599  11.517
56443W        W28857  26.163  43.865  14.003
56444W        W28858  25.592  24.505   4.217
56445W        W28859  19.273  16.129  11.603
56446W        W28860  29.451   7.362   4.604
56447W        W28861  40.431  43.012  10.617
56448W        W28862  15.816  23.490   0.845
56449W        W28863  23.702   7.261  14.455
56450W        W28864  32.935  40.831  11.608
56451W        W28865  34.039  42.849  12.411
56452W        W28866  14.626  26.126  13.830
56453W        W28867   1.369  33.500  13.913
56454W        W28868  21.674  20.061  14.956
56455W        W28869  38.433  19.622  12.026
56456W        W28870  26.689  37.881   0.819
56457W        W28871   8.846  42.370   2.300
56458W        W28872   7.385   3.719  13.407
56459W        W28873  39.325  36.559  10.498
56460W        W28874  14.206  16.740   1.411
56461W        W28875  13.690  12.330  13.905
56462W        W28876   0.742  17.123  13.010
56463W        W28877  25.207   1.316   3.659
56464W        W28878  23.672  38.422   4.151
56465W        W28879  14.281  37.011  11.998
56466W        W28880  21.707  41.327   0.731
56467W        W28881  12.116  20.205  12.941
56468W        W28882  34.922  35.484  14.338
56469W        W28883  11.685  35.583  12.991
56470W        W28884   4.320  16.786   2.352
56471W        W28885  19.654  43.839   1.403
56472W        W28886  32.065  20.606   0.915
56473W        W28887  24.718  18.786   2.261
56474W        W28888  41.864  17.725  13.972
56475W        W28889  39.876  27.164  12.028
56476W        W28890  26.459  33.912   2.867
56477W        W28891   2.914  10.693   3.761
56478W        W28892  42.526  11.314  10.437
56479W        W28893  30.912  14.813  13.828
56480W        W28894  11.266  27.067   0.290
56481W        W28895  14.662  13.780  13.503
56482W        W28896   2.410  22.620  12.056
56483W        W28897  24.033  31.143  11.926
56484W        W28898  36.047  23.030   3.385
56485W        W28899  19.050  17.243   4.129
56486W        W28900   7.873  30.115  13.373
56487W        W28901  27.948  39.459  12.414
56488W        W28902  44.393  44.315  10.586
56489W        W28903   0.929  35.514  11.880
56490W        W28904   8.815  35.869   3.859
56491W        W28905  14.645  32.124  11.873
56492W        W28906  41.017   6.197  14.868
56493W        W28907  32.082  16.104  11.485
56494W        W28908   7.820   4.901   5.287
56495W        W28909  22.032  33.921  12.923
56496W        W28910  43.303  11.231  12.486
56497W        W28911  36.360  28.454   1.902
56498W        W28912   6.832  41.930   2.829
56499W        W28913  41.357  11.186   2.858
56500W        W28914  21.231  34.967   1.776
56501W        W28915   0.268  37.904   0.769
56502W        W28916  39.877  27.046  10.942
56503W        W28917  33.612  29.604  13.449
56504W        W28918  34.912  15.785  14.759
56505W        W28919  34.384   7.273  12.540
56506W        W28920  37.563   8.220   0.243
56507W        W28921  10.831  16.279  14.812
56508W        W28922  38.540  29.084  13.881
56509W        W28923  25.489  14.788   3.185
56510W        W28924  19.774  28.675  12.979
56511W        W28925  39.538  10.815  13.973
56512W        W28926  15.748  35.069   4.643
56513W        W28927  28.176  21.052   4.644
56514W        W28928  32.569   0.763   1.808
56515W        W28929  19.099  14.292  14.816
56516W        W28930   9.175  41.335   2.180
56517W        W28931   5.333  29.485  14.008
56518W        W28932  17.749  12.720  12.496
56519W        W28933  31.410  12.611  11.451
56520W        W28934  20.250   4.718   1.752
56521W        W28935  27.508   1.954   3.194
56522W        W28936  19.722  33.480   0.379
56523W        W28937  30.113  20.042   2.330
56524W        W28938  25.482  13.120  14.870
56525W        W28939  39.471  36.588  13.338
56526W        W28940  24.553  27.572   4.254
56527W        W28941   5.799  26.065   2.402
56528W        W28942   6.369  31.939   0.759
56529W        W28943  32.955  12.784  10.919
56530W        W28944  31.537  43.365   4.328
56531W        W28945  18.248  40.458   3.653
56532W        W28946  10.735  20.712   1.840
56533W        W28947  30.917  13.685  10.551
56534W        W28948  27.170  14.682  10.620
56535W        W28949  41.920  44.754  13.445
56536W        W28950  35.995   9.798  14.471
56537W        W28951   4.748   4.264  13.902
56538W        W28952  11.256  16.633   3.251
56539W        W28953  12.827  14.313  14.880
56540W        W28954  38.829  17.621  11.966
56541W        W28955   1.464  32.029  10.573
56542W        W28956  18.624  38.558   2.815
56543W        W28957  15.610   3.272  10.568
56544W        W28958  32.028  32.077  12.914
56545W        W28959  28.150  31.920   4.807
56546W        W28960   0.867   0.340  11.447
56547W        W28961  17.156   3.854   0.307
56548W        W28962  20.057   0.841   2.344
56549W        W28963  19.131  27.099  13.426
56550W        W28964   7.666  32.634   1.918
56551W        W28965   5.707  14.625  10.404
56552W        W28966  29.477  14.338  13.884
56553W        W28967  33.015  34.435   3.843
56554W        W28968  40.893  32.032   0.266
56555W        W28969   7.734  22.139  13.002
56556W        W28970   1.827  14.215  13.951
56557W        W28971  14.725  23.097  12.930
56558W        W28972  10.672  44.905  11.037
56559W        W28973  13.123  42.933  12.912
56560W        W28974   5.434  25.689   1.889
56561W        W28975  27.680  33.415  10.892
56562W        W28976   2.883  22.552   0.249
56563W        W28977   8.664  18.599   3.724
56564W        W28978  12.150  24.998  14.300
56565W        W28979   8.320  17.180  12.868
56566W        W28980  44.472  30.018   2.288
56567W        W28981  14.234   6.849  14.945
56568W        W28982  33.400   0.359  13.904
56569W        W28983  35.875  13.206   1.324
56570W        W28984  27.116  42.007   4.748
56571W        W28985   7.910   6.882   2.189
56572W        W28986  15.207  41.830   0.464
56573W        W28987  38.977  43.449   1.214
56574W        W28988   4.822  25.522   0.800
56575W        W28989  12.306  34.074  11.868
56576W        W28990   0.925  12.717   2.889
56577W        W28991  36.354  15.126  13.966
56578W        W28992  31.493  41.365  12.862
56579W        W28993  14.650  17.074   3.282
56580W        W28994  22.598  18.767  10.478
56581W        W28995  42.816   5.751  12.531
56582W        W28996  38.893   2.384   2.209
56583W        W28997  21.236  32.599  11.503
56584W        W28998  16.688  26.457   4.834
56585W        W28999   7.284  15.279   4.203
56586W        W29000  28.454  41.995   1.412
56587W        W29001   7.861  12.727  13.427
56588W        W29002  15.103   4.220   2.695
56589W        W29003  10.227   1.833  12.893
56590W        W29004  16.177   6.733   3.801
56591W        W29005  11.311  21.592   4.771
56592W        W29006  43.798   7.236  12.859
56593W        W29007  41.451   2.809   0.411
56594W        W29008  34.940  17.727  13.532
56595W        W29009  27.459  13.129  11.989
56596W        W29010  33.095   4.896   2.783
56597W        W29011  40.405  14.741  14.505
56598W        W29012  31.972  31.099   2.381
56599W        W29013   4.365  31.094  14.495
56600W        W29014  29.669  21.198  10.464
56601W        W29015   7.308  27.521  12.904
56602W        W29016  14.192  16.226  14.825
56603W        W29017  35.484  35.961   0.757
56604W        W29018  13.261   9.706  13.834
56605W        W29019  34.051  27.979   1.441
56606W        W29020  24.676  29.617   3.702
56607W        W29021   7.377  31.476  11.450
56608W        W29022  44.382   9.848  12.436
56609W        W29023  42.929  10.648   3.311
56610W        W29024   0.868  39.524   2.804
56611W        W29025  21.523  16.798   0.848
56612W        W29026  15.325   2.466   4.679
56613W        W29027  19.642  21.032   1.760
56614W        W29028  16.644  11.699   0.875
56615W        W29029  29.070  43.960  11.552
56616W        W29030   1.447  30.043  10.415
56617W        W29031  27.006  29.592  11.976
56618W        W29032  39.873  22.146   2.391
56619W        W29033  23.645  11.741   0.289
56620W        W29034  36.844  41.813   4.832
56621W        W29035   8.292   0.487  13.487
56622W        W29036  21.027  16.098  12.396
56623W        W29037  37.556  37.420   3.850
56624W        W29038  44.906  31.031  14.936
56625W        W29039  20.188  33.976  11.927
56626W        W29040  24.047  42.897  14.370
56627W        W29041  42.878  35.914   1.735
56628W        W29042   2.406   5.751  14.371
56629W        W29043  22.628  31.070   0.368
56630W        W29044  25.552  26.490  11.914
56631W        W29045  16.813  13.771   0.933
56632W        W29046  37.939  32.428   0.954
56633W        W29047  25.180  32.062   3.743
56634W        W29048  17.262  23.087  12.497
56635W        W29049   8.388  42.991   0.277
56636W        W29050  15.256  29.556   3.728
56637W        W29051   0.928   8.849   5.152
56638W        W29052  24.091  32.013   2.864
56639W        W29053  34.558   9.669   0.763
56640W        W29054   9.219   3.419   3.346
56641W        W29055  19.179  16.157  14.317
56642W        W29056   8.192  11.370  10.941
56643W        W29057  12.299  18.724   4.672
56644W        W29058  16.737   8.243  11.575
56645W        W29059   1.795  40.393   5.311
56646W        W29060  23.713  19.039   0.778
56647W        W29061  42.944   9.320  14.874
56648W        W29062  15.298  13.319   4.287
56649W        W29063   9.227  41.796  10.968
56650W        W29064  26.159  18.052  10.034
56651W        W29065  30.909  30.514  12.964
56652W        W29066  30.130  41.362   0.799
56653W        W29067   4.812   5.349   1.218
56654W        W29068  15.194   8.358   3.282
56655W        W29069  36.078  40.415  13.996
56656W        W29070  38.055  38.537  14.899
56657W        W29071  22.704   0.910   3.836
56658W        W29072  12.238  43.895  14.386
56659W        W29073   3.741  32.563   2.743
56660W        W29074  13.107  43.319   0.398
56661W        W29075  35.374  12.273  12.023
56662W        W29076   1.811   9.673  14.975
56663W        W29077  14.115  32.100  10.504
56664W        W29078  20.668  17.790   4.803
56665W        W29079  42.496  44.960  12.988
56666W        W29080  19.066  29.018  11.023
56667W        W29081  17.164  42.877  14.991
56668W        W29082  17.644  21.177   0.302
56669W        W29083  17.127  22.670   3.714
56670W        W29084  31.545  43.798   4.343
56671W        W29085   7.240  25.486   3.668
56672W        W29086   2.458  25.985  14.461
56673W        W29087  17.787  16.195   4.196
56674W        W29088   7.719  11.371   2.670
56675W        W29089  16.784  33.020   1.863
56676W        W29090   1.280  21.569   4.637
56677W        W29091  19.262  13.664   2.246
56678W        W29092   9.668  22.238  13.478
56679W        W29093  11.684  26.954  14.921
56680W        W29094  31.539   4.912   2.667
56681W        W29095  44.265  13.756   1.341
56682W        W29096  34.427  18.261  14.768
56683W        W29097   8.860   2.853   3.694
56684W        W29098  14.702  29.594   3.235
56685W        W29099  20.668  13.779   4.771
56686W        W29100  10.141  40.933  10.463
56687W        W29101  10.711  36.003   0.743
56688W        W29102  30.162  20.592  13.990
56689W        W29103  25.129   4.884  11.895
56690W        W29104  27.034  44.994  14.489
56691W        W29105  31.127  34.518  12.350
56692W        W29106   3.406  44.451  13.934
56693W        W29107  42.976  17.601  13.914
56694W        W29108  31.634  14.820   2.672
56695W        W29109  30.421  37.465   3.707
56696W        W29110   9.391  33.476  10.427
56697W        W29111  15.237  23.616   1.723
56698W        W29112  11.686  44.882  14.032
56699W        W29113  23.231  37.979   0.857
56700W        W29114  30.957  32.443  13.839
56701W        W29115  21.657  23.059  10.581
56702W        W29116  26.108  41.319  13.314
56703W        W29117  26.180  38.976   1.873
56704W        W29118   1.894   4.286   2.381
56705W        W29119   0.493  43.431   3.771
56706W        W29120  16.634   2.964  12.081
56707W        W29121  11.757  39.414   0.386
56708W        W29122  41.790  16.630   4.222
56709W        W29123  10.779  40.873   0.470
56710W        W29124  28.606  31.082  12.524
56711W        W29125  29.559  37.063   4.291
56712W        W29126  38.488   1.743   3.180
56713W        W29127   7.368  14.672  13.992
56714W        W29128  17.711  18.621  14.337
56715W        W29129   8.742   5.931   4.647
56716W        W29130  21.653  15.803   0.950
56717W        W29131   6.824  35.861   3.849
56718W        W29132  34.887  10.674  11.035
56719W        W29133   7.242  12.725   0.791
56720W        W29134  32.021   3.247   0.422
56721W        W29135  13.697  29.068  11.999
56722W        W29136  35.506  22.674  14.818
56723W        W29137   9.188   3.323   3.723
56724W        W29138  13.235  12.613  10.926
56725W        W29139  15.248  38.838   3.671
56726W        W29140   3.864  33.089   4.266
56727W        W29141  29.427  18.217   3.332
56728W        W29142   0.821   3.288  13.859
56729W        W29143  38.069  36.998   3.658
56730W        W29144   6.302  31.404   2.709
56731W        W29145  21.755  22.234  13.816
56732W        W29146   8.874  13.229   3.746
56733W        W29147  39.469   6.914   0.421
56734W        W29148  42.311   8.299   2.209
56735W        W29149  42.810  31.618  13.986
56736W        W29150  27.505  15.754  12.897
56737W        W29151  11.705  16.237   0.434
56738W        W29152  29.038  24.544  13.945
56739W        W29153  11.216  23.711   1.212
56740W        W29154  37.841  31.442  14.369
56741W        W29155  21.186  25.617  10.451
56742W        W29156  14.766  37.358   3.791
56743W        W29157  10.877  15.782   1.382
56744W        W29158  33.096  29.077   3.362
56745W        W29159   2.933  22.568   4.658
56746W        W29160  12.652  24.074   0.875
56747W        W29161   4.892  37.425  11.080
56748W        W29162  33.049  30.080   2.665
56749W        W29163  38.963  18.133   4.702
56750W        W29164  34.875   8.205  13.039
56751W        W29165   7.256  23.203  10.485
56752W        W29166  41.325  33.392  11.034
56753W        W29167  10.355  28.513  14.955
56754W        W29168  39.314   4.837  11.411
56755W        W29169  18.226  24.101  13.966
56756W        W29170   9.173  44.989   3.218
56757W        W29171  31.507  16.702   3.332
56758W        W29172  20.224  10.817  10.555
56759W        W29173  20.549  10.823  13.490
56760W        W29174  35.459  39.953  10.543
56761W        W29175  20.762  22.556  10.956
56762W        W29176  20.659  12.141  11.876
56763W        W29177   7.231  14.614  13.548
56764W        W29178   8.262  19.120   4.790
56765W        W29179  42.393  41.834  12.405
56766W        W29180  30.093  22.556   2.207
56767W        W29181  27.176   4.852   2.824
56768W        W29182  31.481  29.628  13.994
56769W        W29183  27.578  15.110  11.598
56770W        W29184   9.308  33.418   1.417
56771W        W29185  10.834  15.772  13.918
56772W        W29186   8.185  18.571  14.513
56773W        W29187  13.820  20.666  10.459
56774W        W29188  22.643  44.411  14.367
56775W        W29189  38.331   7.352  10.567
56776W        W29190  28.582  40.871   3.219
56777W        W29191  35.502  26.634  12.882
56778W        W29192  44.398  34.892  12.997
56779W        W29193  30.048  12.727   2.231
56780W        W29194  18.772  19.621   4.660
56781W        W29195  31.901  24.124  14.284
56782W        W29196  37.487  34.599  12.855
56783W        W29197   2.293   3.343   2.261
56784W        W29198  37.049  23.726  11.468
56785W        W29199  33.571   2.448  12.828
56786W        W29200   8.390  15.211   0.398
56787W        W29201  40.936  10.247   3.262
56788W        W29202  17.634  32.598  13.997
56789W        W29203  19.282  10.752  13.418
56790W        W29204  16.155  43.485   2.399
56791W        W29205  10.152  19.083  11.401
56792W        W29206  18.646   5.386  11.378
56793W        W29207  28.680  44.364  11.095
56794W        W29208  14.778  38.974   9.950
56795W        W29209  36.904  39.061   2.334
56796W        W29210  23.197  29.055   0.257
56797W        W29211  38.063  21.716   4.273
56798W        W29212  31.095   1.890   2.225
56799W        W29213   6.890  24.112   0.731
56800W        W29214  30.047  14.310  10.442
56801W        W29215   7.298   4.212  13.442
56802W        W29216  14.330   1.244  14.440
56803W        W29217  29.439  25.626   4.665
56804W        W29218  29.147   2.358   1.780
56805W        W29219  29.073  17.800   2.275
56806W        W29220  41.438  28.586  13.831
56807W        W29221   0.949  21.666   2.195
56808W        W29222  28.599  12.657   4.706
56809W        W29223  21.087  36.026   0.859
56810W        W29224  18.139   0.260   3.762
56811W        W29225  25.616  43.381  11.461
56812W        W29226  19.702  24.043   1.303
56813W        W29227  14.750  32.429   1.842
56814W        W29228  30.614   5.389   0.804
56815W        W29229  43.964  41.853  13.985
56816W        W29230  37.055  33.601  10.518
56817W        W29231  17.684   1.334   1.231
56818W        W29232  35.547  25.112  11.382
56819W        W29233  26.688  12.152  14.290
56820W        W29234  17.624  16.593   4.204
56821W        W29235  32.608   4.342  14.839
56822W        W29236   6.887  30.619   1.841
56823W        W29237  25.004  16.100   4.826
56824W        W29238  26.581  13.814  14.813
56825W        W29239  19.616  30.484   4.795
56826W        W29240  14.340  21.153  14.860
56827W        W29241   0.914   9.251  13.333
56828W        W29242  14.229  30.464   0.355
56829W        W29243   5.233  22.203   2.750
56830W        W29244  37.367   8.317  11.073
56831W        W29245  39.020  41.961   2.221
56832W        W29246   8.366  31.128   3.289
56833W        W29247  30.634   6.715   2.826
56834W        W29248   4.856   2.888  14.355
56835W        W29249   5.231  36.578   2.785
56836W        W29250  37.895  14.200  12.835
56837W        W29251  41.867  31.516   3.858
56838W        W29252  20.725   5.808  11.110
56839W        W29253   5.232  16.699   0.873
56840W        W29254  28.995  13.154   1.728
56841W        W29255  12.129  24.001   3.164
56842W        W29256  28.492  43.797  12.350
56843W        W29257   9.743  34.573  10.478
56844W        W29258  12.185  42.833   2.374
56845W        W29259   0.271  42.519   4.197
56846W        W29260  35.489  27.073   2.736
56847W        W29261  23.011  17.302  11.890
56848W        W29262  42.879   5.391   0.437
56849W        W29263  25.580  19.120   3.202
56850W        W29264  39.528  23.611   4.330
56851W        W29265  30.136  31.619  10.901
56852W        W29266  24.140  15.648   0.272
56853W        W29267  16.085  26.979   2.309
56854W        W29268  13.184  15.814   4.837
56855W        W29269  26.099   2.318   0.354
56856W        W29270  25.095  11.726   1.840
56857W        W29271  39.868   0.489   0.383
56858W        W29272   1.405  24.605   2.839
56859W        W29273  22.630   0.934   5.303
56860W        W29274  35.888  34.011  13.861
56861W        W29275  22.583  42.889  12.976
56862W        W29276  31.028  44.403  10.071
56863W        W29277  12.781  13.286   0.413
56864W        W29278   3.805  39.420  12.930
56865W        W29279  19.185   9.155   4.719
56866W        W29280  28.623   8.348  10.548
56867W        W29281   9.751  24.535  11.592
56868W        W29282   3.323  41.848  14.302
56869W        W29283  38.822  15.293  12.576
56870W        W29284   7.894  30.047   3.351
56871W        W29285   9.339  10.805  12.884
56872W        W29286   4.912  29.645   1.427
56873W        W29287   5.840   3.401  12.496
56874W        W29288  21.601  38.514  13.866
56875W        W29289  16.762  33.379   3.247
56876W        W29290  41.432  17.697  10.990
56877W        W29291  43.475  26.159  14.762
56878W        W29292  15.176  26.172  12.416
56879W        W29293   5.374  21.236  11.981
56880W        W29294  22.746  34.498  12.828
56881W        W29295  36.987   2.236   0.829
56882W        W29296  11.795  11.220  14.010
56883W        W29297  33.620  32.492  13.533
56884W        W29298  25.578  36.097  11.581
56885W        W29299  17.745  13.238  10.623
56886W        W29300  17.140  31.474  11.467
56887W        W29301  21.633  19.255   0.321
56888W        W29302   6.313  35.044  11.087
56889W        W29303   6.257   6.232  12.907
56890W        W29304  18.290  18.267  12.568
56891W        W29305  16.314  34.415  13.023
56892W        W29306  29.593  19.639  12.497
56893W        W29307  29.562  26.660  14.820
56894W        W29308   0.959   9.826  13.040
56895W        W29309  19.564   9.384  13.853
56896W        W29310  42.936  35.880  12.021
56897W        W29311  35.408  25.029   2.729
56898W        W29312  38.564  29.007   4.753
56899W        W29313  43.892   7.357   4.826
56900W        W29314  12.618   1.910   2.812
56901W        W29315  28.605   9.757   2.360
56902W        W29316  36.001  21.213   1.342
56903W        W29317  36.525  28.932  10.141
56904W        W29318  40.853  32.530  12.951
56905W        W29319  25.564   4.831   3.738
56906W        W29320  26.092  44.293  11.576
56907W        W29321  12.760  23.989   2.687
56908W        W29322  39.497  30.161  12.409
56909W        W29323  14.805  25.074   2.399
56910W        W29324   5.761   1.975  14.301
56911W        W29325  11.677  38.367   1.747
56912W        W29326  11.834  42.914   2.764
56913W        W29327   6.399  22.693   3.192
56914W        W29328  36.586  23.075   4.632
56915W        W29329  13.335  41.853   4.206
56916W        W29330   7.268  29.562  11.489
56917W        W29331  15.755  27.069  11.116
56918W        W29332  38.954  17.168  14.825
56919W        W29333  31.471  30.479   1.260
56920W        W29334   6.803  30.007   2.902
56921W        W29335  10.832  40.404  12.349
56922W        W29336   4.261  23.053  12.874
56923W        W29337  27.453  14.785   1.280
56924W        W29338   9.359  29.057  14.869
56925W        W29339   9.834  13.632   2.809
56926W        W29340   4.334  17.795  13.026
56927W        W29341  20.177  34.466  12.530
56928W        W29342  19.704   5.925   3.157
56929W        W29343  20.058   5.252   4.742
56930W        W29344  32.049   0.784   1.290
56931W        W29345  27.072   0.487   2.231
56932W        W29346  39.001  24.045   3.665
56933W        W29347  28.633  34.439   0.303
56934W        W29348   5.294   9.728  11.997
56935W        W29349  40.420  37.857   0.923
56936W        W29350  40.513  36.924  13.866
56937W        W29351   3.928   2.736   0.397
56938W        W29352  33.536  39.418  10.643
56939W        W29353  40.948   4.904  14.930
56940W        W29354   2.264  19.271  12.472
56941W        W29355   4.306   0.760   2.785
56942W        W29356  23.567  29.591   1.238
56943W        W29357  34.961  21.606  14.827
56944W        W29358  36.067  21.601   9.993
56945W        W29359  28.670   4.713   0.744
56946W        W29360  20.246  33.437  10.600
56947W        W29361  16.075  25.988  13.825
56948W        W29362   1.240  16.273   1.216
56949W        W29363  37.989  25.105   1.219
56950W        W29364  24.661  15.638   4.743
56951W        W29365  42.787  21.741  11.505
56952W        W29366   5.368  38.334   3.737
56953W        W29367  22.738   1.890   0.336
56954W        W29368  20.597  31.114  14.006
56955W        W29369  10.326  19.625   5.149
56956W        W29370  38.045  44.383  10.605
56957W        W29371  20.185  42.384  14.324
56958W        W29372  35.906  21.192   5.156
56959W        W29373   0.411  14.294  13.519
56960W        W29374  25.621   2.874   2.902
56961W        W29375  18.732  40.892  13.989
56962W        W29376   0.790  24.630  11.893
56963W        W29377   7.753  29.991   0.338
56964W        W29378  18.254  11.236   1.908
56965W        W29379  24.650   6.919   3.643
56966W        W29380  27.113  18.059   9.922
56967W        W29381  42.415  23.507  10.893
56968W        W29382   7.343  43.372   4.132
56969W        W29383  19.072  25.052  12.418
56970W        W29384  12.633  10.360  11.523
56971W        W29385  11.140  18.145  13.877
56972W        W29386  35.998  44.461   1.250
56973W        W29387  18.118  27.445  11.099
56974W        W29388  13.814   9.189  13.925
56975W        W29389  20.668  22.239  13.033
56976W        W29390  36.500  27.457   3.853
56977W        W29391  16.657  40.416  10.596
56978W        W29392  37.833   2.925  14.407
56979W        W29393   4.420  15.672  12.932
56980W        W29394  28.999   4.924  11.473
56981W        W29395   1.436  14.223  13.832
56982W        W29396  28.172  23.215  13.310
56983W        W29397  20.164  25.132  14.006
56984W        W29398   5.880   6.804   3.233
56985W        W29399  16.146  41.043  14.002
56986W        W29400   6.707   4.900   2.223
56987W        W29401  15.810   7.887  13.470
56988W        W29402  10.242  24.521   3.368
56989W        W29403  36.534   1.798   4.703
56990W        W29404   4.933  27.570  12.887
56991W        W29405   0.866  30.163  14.829
56992W        W29406  23.510  42.780   3.707
56993W        W29407   5.342  29.524  11.004
56994W        W29408  12.710  28.120   3.756
56995W        W29409  12.689  13.156  12.025
56996W        W29410  35.904  13.676   0.279
56997W        W29411   4.205  41.356  14.509
56998W        W29412  17.646  32.625   0.331
56999W        W29413  44.353  10.164  10.937
57000W        W29414  34.584  29.136  13.058
57001W        W29415  31.502   6.280  10.507
57002W        W29416  37.384  30.452  11.518
57003W        W29417  24.678  22.009  11.552
57004W        W29418  29.147  13.321  10.594
57005W        W29419   6.202  41.855   4.626
57006W        W29420   8.171  12.848   0.296
57007W        W29421  16.736  18.287  12.373
57008W        W29422  15.247  30.935  13.521
57009W        W29423  13.176  29.955   3.301
57010W        W29424   8.325  28.076  13.805
57011W        W29425   0.815  19.103  11.885
57012W        W29426  41.442  20.534   2.777
57013W        W29427  14.664   5.856   0.732
57014W        W29428   6.218  23.699  12.370
57015W        W29429  40.368  14.829   2.198
57016W        W29430  16.630   9.840   3.669
57017W        W29431  30.586  30.980   0.260
57018W        W29432  31.949  17.692  14.495
57019W        W29433   7.190   2.332  14.298
57020W        W29434  26.023  20.699   0.454
57021W        W29435  41.842  32.096  13.905
57022W        W29436   6.684  38.436  11.487
57023W        W29437  15.279   3.256   0.435
57024W        W29438  33.550  41.498  14.761
57025W        W29439  23.054  34.571  13.496
57026W        W29440  40.006  29.113   0.838
57027W        W29441  23.027  40.836  10.888
57028W        W29442  19.148  15.201   4.718
57029W        W29443  31.111  10.294  12.511
57030W        W29444  31.445  21.111  12.896
57031W        W29445   2.377  36.849   2.697
57032W        W29446  40.441   5.736  13.480
57033W        W29447  33.537  12.652  14.919
57034W        W29448  40.349   2.728   0.387
57035W        W29449  37.531  21.646   2.186
57036W        W29450  12.299  42.826   3.640
57037W        W29451  13.238  27.068   2.854
57038W        W29452  30.475  28.515  14.861
57039W        W29453  21.134  25.195  13.854
57040W        W29454  16.776  16.246   3.791
57041W        W29455  10.632  22.252   2.688
57042W        W29456  30.043  21.525   1.353
57043W        W29457  35.402  33.481  12.867
57044W        W29458  35.901  12.610  10.910
57045W        W29459  41.432  13.189   4.729
57046W        W29460  44.862   0.948   4.622
57047W        W29461   7.714  34.490  11.110
57048W        W29462  28.502  33.997   3.783
57049W        W29463  13.683  27.054   0.342
57050W        W29464  18.556  16.111   0.414
57051W        W29465  16.138   9.812   1.352
57052W        W29466   7.794  17.273   2.185
57053W        W29467  10.870  37.933  11.434
57054W        W29468  20.051  38.562  14.787
57055W        W29469  44.471   7.751   3.800
57056W        W29470  39.018  18.591  10.943
57057W        W29471  43.789  16.162   1.268
57058W        W29472  30.119  17.642   3.365
57059W        W29473  43.770  30.039   3.792
57060W        W29474  41.968   3.949   0.354
57061W        W29475  21.600   0.406  13.907
57062W        W29476  12.143   4.241   2.263
57063W        W29477  37.866  34.865  14.865
57064W        W29478   0.440   7.851  10.542
57065W        W29479  10.754  39.009   1.724
57066W        W29480  20.575  26.518  12.384
57067W        W29481   3.455  43.921   0.252
57068W        W29482  26.074  12.746   1.722
57069W        W29483  43.372  15.803   5.230
57070W        W29484  28.575   0.491   2.233
57071W        W29485  44.415  14.599  13.349
57072W        W29486   2.785  42.412   4.715
57073W        W29487  15.245  34.454   4.788
57074W        W29488  21.627  10.731  13.833
57075W        W29489  43.764  22.638   3.355
57076W        W29490  20.187   9.228  12.454
57077W        W29491   3.284  20.690  11.004
57078W        W29492  12.667  37.040   4.156
57079W        W29493  42.900   1.295   4.231
57080W        W29494  15.577  24.694   4.285
57081W        W29495  31.477  13.197  12.421
57082W        W29496   9.339   0.832   4.244
57083W        W29497  38.902  29.564   1.904
57084W        W29498  30.061  21.161  12.874
57085W        W29499  20.185   3.937   4.274
57086W        W29500  14.128  20.662  13.022
57087W        W29501  39.908  31.535   2.302
57088W        W29502  32.088  29.982  11.029
57089W        W29503  17.578  39.363  10.441
57090W        W29504  42.915   3.268  12.034
57091W        W29505  36.962   0.865   2.821
57092W        W29506  36.858  38.061  13.990
57093W        W29507  38.360  10.778   2.845
57094W        W29508  17.135  14.245   0.438
57095W        W29509  27.673  38.015   1.768
57096W        W29510  25.110  15.660  12.036
57097W        W29511  22.505  17.135   2.322
57098W        W29512  21.143  16.134   4.331
57099W        W29513  32.045  16.213   2.373
57100W        W29514  34.967  11.834   4.216
57101W        W29515   7.690  33.917  13.802
57102W        W29516  24.584  19.093  11.573
57103W        W29517  41.323  11.290  12.859
57104W        W29518  35.524  29.934   0.966
57105W        W29519   3.802  43.287  13.474
57106W        W29520   8.292  31.586  14.850
57107W        W29521  24.692  23.539  13.340
57108W        W29522   5.327   8.796   1.917
57109W        W29523  44.438  15.622   2.778
57110W        W29524  40.912  43.273  11.926
57111W        W29525   7.284  30.582  13.000
57112W        W29526  22.061  18.055   1.420
57113W        W29527  22.209  44.891  10.940
57114W        W29528  39.456  17.579   4.828
57115W        W29529  38.917   6.271  11.106
57116W        W29530  42.364  27.940   3.349
57117W        W29531  28.020  38.959   2.792
57118W        W29532  39.985  44.769   1.218
57119W        W29533  40.971   5.754  12.028
57120W        W29534   3.730  27.662   2.338
57121W        W29535  11.634  33.036   2.768
57122W        W29536  41.962  40.362  13.389
57123W        W29537  31.109  28.489  12.029
57124W        W29538  44.840  33.124   1.259
57125W        W29539   5.253   3.844  13.466
57126W        W29540  11.320   7.377   4.687
57127W        W29541   3.337  11.779   3.655
57128W        W29542   6.683  17.302   3.323
57129W        W29543  43.310  30.533  13.390
57130W        W29544  26.064  24.494   0.385
57131W        W29545  11.225  39.959  13.969
57132W        W29546  22.141  24.508  14.786
57133W        W29547  14.636  34.106   4.705
57134W        W29548  21.218  43.502   4.602
57135W        W29549  17.767  24.228  13.479
57136W        W29550  29.109  26.060  12.378
57137W        W29551  21.518  30.464  12.382
57138W        W29552  19.625  33.898   3.371
57139W        W29553  32.453  23.634  11.049
57140W        W29554   3.218   6.199  13.350
57141W        W29555  21.628   0.859  12.360
57142W        W29556  25.023  32.464  12.556
57143W        W29557  15.230   3.342   3.640
57144W        W29558  22.613  17.084  13.501
57145W        W29559  15.120   9.242  13.970
57146W        W29560  21.247  31.464   3.691
57147W        W29561   9.199  13.235  12.898
57148W        W29562   0.929  28.969  10.482
57149W        W29563   6.200  12.233  12.079
57150W        W29564  26.065  23.511   3.827
57151W        W29565  24.220   0.934   0.850
57152W        W29566   6.804   3.932  10.433
57153W        W29567   7.396  13.616   1.834
57154W        W29568   6.771  18.145  12.058
57155W        W29569  22.641  19.561  14.924
57156W        W29570   2.726  44.798  11.406
57157W        W29571  17.301  25.677   4.124
57158W        W29572  14.283  11.654   3.806
57159W        W29573   2.267  19.078  11.856
57160W        W29574  21.564   4.386  14.028
57161W        W29575   9.650  44.424  14.016
57162W        W29576  34.083   8.319   3.306
57163W        W29577  25.573  22.700  13.064
57164W        W29578  28.014  35.498   0.768
57165W        W29579  26.984   5.347  11.480
57166W        W29580  44.808  12.673  10.928
57167W        W29581  23.652   1.431   0.907
57168W        W29582  40.914  29.527   3.257
57169W        W29583  35.368  36.350   2.214
57170W        W29584  11.699  20.034   0.876
57171W        W29585  28.440   8.168   4.251
57172W        W29586  17.250   3.438  11.893
57173W        W29587  34.037  10.783   1.217
57174W        W29588  37.443  18.286   1.446
57175W        W29589   5.726   3.302   1.380
57176W        W29590  12.838   7.828   2.877
57177W        W29591  30.496  32.514   2.787
57178W        W29592  19.677  26.067  13.944
57179W        W29593   3.439  38.501  12.999
57180W        W29594  20.654   0.923  12.369
57181W        W29595   5.275  15.630  13.939
57182W        W29596  32.402  15.292   2.365
57183W        W29597  31.622  33.495   4.150
57184W        W29598   3.419  35.871   0.429
57185W        W29599  19.571  36.403   0.367
57186W        W29600  44.313  16.579   2.307
57187W        W29601  25.571  42.913   3.320
57188W        W29602  16.772  15.095  14.772
57189W        W29603  20.601   7.380  13.993
57190W        W29604  10.185  11.690  10.632
57191W        W29605  41.315  20.049  12.899
57192W        W29606   0.452   9.682  12.943
57193W        W29607  42.851  18.751  13.974
57194W        W29608  15.734  29.125   3.232
57195W        W29609  22.181  26.497  13.523
57196W        W29610  39.470  38.929   4.253
57197W        W29611  17.224  27.153  13.341
57198W        W29612  31.952  41.456   1.440
57199W        W29613  11.279  11.359   1.715
57200W        W29614   4.801  34.547  13.930
57201W        W29615  40.384  17.254  12.427
57202W        W29616  33.469   6.764  11.899
57203W        W29617  27.195  11.710   4.645
57204W        W29618  19.182   6.686   0.299
57205W        W29619  19.640  30.100  12.403
57206W        W29620  37.515  11.264  11.985
57207W        W29621  25.201   9.754   3.179
57208W        W29622  21.539  34.534  13.462
57209W        W29623  32.404   6.852  14.877
57210W        W29624  41.834  11.245   2.383
57211W        W29625  32.920  44.447  14.300
57212W        W29626  29.107  38.017   0.363
57213W        W29627   2.456  16.655  13.031
57214W        W29628   5.738  29.919   1.837
57215W        W29629  16.116  25.187  12.372
57216W        W29630  14.607  14.284   4.308
57217W        W29631  15.131  14.756  11.856
57218W        W29632  36.011  16.105   2.410
57219W        W29633  29.109  37.049   4.808
57220W        W29634  16.128  23.990  11.423
57221W        W29635  41.363  15.138   2.309
57222W        W29636   7.240  35.586  12.992
57223W        W29637  41.367  42.381   4.797
57224W        W29638   2.775  15.743  13.852
57225W        W29639  16.600  21.088  14.287
57226W        W29640  22.077  38.836  12.993
57227W        W29641  39.050  14.127  13.456
57228W        W29642  28.929   0.869  13.361
57229W        W29643  41.943  18.736  14.304
57230W        W29644   7.827   8.854  13.057
57231W        W29645   7.364  12.618   4.616
57232W        W29646  31.972  11.802  11.034
57233W        W29647   9.881  16.602  11.118
57234W        W29648   6.717  25.668  10.956
57235W        W29649   9.726  15.805   4.805
57236W        W29650   3.841  43.420   4.340
57237W        W29651   0.358  23.519  12.093
57238W        W29652  35.907  37.535  12.561
57239W        W29653  41.500  31.438  14.491
57240W        W29654  10.715  10.755  14.839
57241W        W29655  42.900  37.430  10.434
57242W        W29656  20.527  19.681  12.975
57243W        W29657  35.439   1.864  14.385
57244W        W29658  31.552   2.456   3.782
57245W        W29659  42.892   2.743  11.975
57246W        W29660  15.139  44.291  11.591
57247W        W29661  11.702   7.771   1.425
57248W        W29662  39.548  37.963   3.661
57249W        W29663  35.500  28.675   4.168
57250W        W29664  40.941  28.998   4.684
57251W        W29665  29.527   9.180  11.490
57252W        W29666  21.573   7.303   4.185
57253W        W29667  31.523   5.246  13.972
57254W        W29668  20.562  27.489   0.850
57255W        W29669   9.841  19.722   0.479
57256W        W29670  40.364  34.420  12.919
57257W        W29671  36.411   1.860  13.490
57258W        W29672   1.739   1.249   0.867
57259W        W29673  17.241   3.407   1.900
57260W        W29674  26.575  23.110   5.198
57261W        W29675  17.297  14.194  14.896
57262W        W29676  12.848  27.535   3.272
57263W        W29677  36.028   7.226   0.902
57264W        W29678   5.279  32.028   4.693
57265W        W29679  17.119   2.344  11.581
57266W        W29680  38.010  12.727   4.704
57267W        W29681  12.357  11.738   3.357
57268W        W29682  35.413  17.220  11.462
57269W        W29683  33.552  40.404  11.987
57270W        W29684  15.195  38.490   3.151
57271W        W29685  13.234  37.056  11.442
57272W        W29686   0.443  40.906   3.237
57273W        W29687  39.850  21.565   2.179
57274W        W29688  41.000  35.573   3.290
57275W        W29689  33.957   7.791   0.956
57276W        W29690  37.431  19.174  10.437
57277W        W29691  30.623   2.935   2.229
57278W        W29692  25.123   5.336  13.963
57279W        W29693   8.874  25.101  12.547
57280W        W29694  23.608   6.827  13.915
57281W        W29695  14.279  40.484  12.033
57282W        W29696  19.240  27.579   0.326
57283W        W29697  34.578   2.921  11.978
57284W        W29698  30.012  16.142   0.268
57285W        W29699   2.438  18.729  11.468
57286W        W29700   3.913  42.785   0.408
57287W        W29701  15.607  12.313  13.548
57288W        W29702  10.779  21.212   3.246
57289W        W29703  32.032   2.832  12.533
57290W        W29704  27.037  26.102   4.745
57291W        W29705  20.757  12.148   4.308
57292W        W29706   0.276  18.094  11.118
57293W        W29707  27.483  12.344  11.579
57294W        W29708  36.942  34.916   9.584
57295W        W29709  44.960   5.919  14.415
57296W        W29710  11.633   7.316   5.085
57297W        W29711  40.481   7.748   2.677
57298W        W29712  37.058  35.438   3.843
57299W        W29713  14.689  20.067  13.510
57300W        W29714  35.375   0.390   2.180
57301W        W29715  15.140  12.629   3.234
57302W        W29716  42.790  11.358   3.336
57303W        W29717  37.538  44.404  14.795
57304W        W29718  44.286  30.076  10.888
57305W        W29719   4.783  16.751   1.751
57306W        W29720  22.136  44.979   4.728
57307W        W29721   5.890  35.528  14.823
57308W        W29722  22.248  35.561   0.453
57309W        W29723   1.473  21.662   1.365
57310W        W29724  27.130  18.649   3.640
57311W        W29725  38.429  20.567  11.449
57312W        W29726  21.598  26.565   3.636
57313W        W29727  31.925   8.381   4.249
57314W        W29728  42.929   6.286   4.304
57315W        W29729  29.615  20.574  10.569
57316W        W29730  10.871   3.282  12.981
57317W        W29731  33.036  18.180   2.762
57318W        W29732  25.619  42.955  13.811
57319W        W29733  43.850  32.506   0.327
57320W        W29734  38.558  20.748   2.814
57321W        W29735  43.862  13.746   3.851
57322W        W29736  30.452   0.914  12.405
57323W        W29737  23.074  14.249  12.505
57324W        W29738  14.198  32.940  14.481
57325W        W29739  20.189  17.642   2.869
57326W        W29740   8.813  13.757   0.374
57327W        W29741   3.254  28.019  10.626
57328W        W29742   0.379  11.682  12.958
57329W        W29743  20.118   6.904   1.725
57330W        W29744  38.388   2.356  11.032
57331W        W29745   0.961  16.800   3.679
57332W        W29746  26.506  13.743  12.379
57333W        W29747  24.216   3.250   5.298
57334W        W29748  37.919  35.549  13.307
57335W        W29749  31.020  40.044  11.436
57336W        W29750  17.781   6.362   4.241
57337W        W29751  32.517  15.667  11.575
57338W        W29752  38.844   0.932  13.917
57339W        W29753  41.510  10.724   4.656
57340W        W29754   7.350  18.558  13.844
57341W        W29755  11.849  12.244  11.063
57342W        W29756  41.335  11.273  13.846
57343W        W29757  23.178   4.336   0.810
57344W        W29758   2.873   8.276   1.355
57345W        W29759  19.653  37.986   3.632
57346W        W29760  18.281  40.876  10.948
57347W        W29761  20.553   5.765   1.861
57348W        W29762  43.361  15.664   1.228
57349W        W29763  11.682  22.732   0.255
57350W        W29764  17.125   8.777   3.149
57351W        W29765  15.272  42.814   1.333
57352W        W29766  37.552  37.037   2.719
57353W        W29767  32.525   1.931   1.228
57354W        W29768   7.180  33.515  11.399
57355W        W29769  21.206  20.539  11.531
57356W        W29770   2.801  44.991   4.123
57357W        W29771  29.616  18.581  11.964
57358W        W29772  19.155  32.451   3.376
57359W        W29773  44.455   1.308  10.447
57360W        W29774  40.033  12.780   4.196
57361W        W29775  42.371  17.635  10.949
57362W        W29776   9.203  30.453   2.404
57363W        W29777  38.551   9.151  13.354
57364W        W29778  17.271  32.459  10.482
57365W        W29779  15.603  33.549   1.930
57366W        W29780  27.625  25.477  13.459
57367W        W29781  25.181  35.858   3.379
57368W        W29782  33.023  10.370  13.489
57369W        W29783  41.915  43.965   0.743
57370W        W29784  37.934  41.315   3.344
57371W        W29785   1.374  22.192  10.541
57372W        W29786  34.526  24.494  13.310
57373W        W29787   7.818   9.235  13.991
57374W        W29788   3.263  42.868   1.730
57375W        W29789  41.409  17.084   2.817
57376W        W29790  40.843  44.876   2.209
57377W        W29791  33.434  40.363   4.635
57378W        W29792  25.471  18.154  12.956
57379W        W29793  12.838   1.451   1.448
57380W        W29794  12.677   8.688   9.956
57381W        W29795  43.016  20.699   4.144
57382W        W29796  29.489   1.873   0.312
57383W        W29797  31.106  35.474  14.300
57384W        W29798  19.107  19.043   1.391
57385W        W29799   4.702  44.825   2.892
57386W        W29800  13.777   9.809   1.242
57387W        W29801   6.825  21.688   3.665
57388W        W29802  43.335  13.135  13.428
57389W        W29803  21.559  36.845  12.080
57390W        W29804   9.307  30.024  14.816
57391W        W29805  12.841  44.820   2.690
57392W        W29806  36.056  23.580  14.893
57393W        W29807  12.220  13.321   4.115
57394W        W29808  28.593  24.010  12.971
57395W        W29809  10.669  23.140   2.405
57396W        W29810  16.226  27.998  12.091
57397W        W29811   9.326  16.180   1.251
57398W        W29812   9.739  11.676   4.659
57399W        W29813   2.447  18.560  14.333
57400W        W29814  13.304   1.414  10.502
57401W        W29815  19.246   7.412   4.623
57402W        W29816  20.125  17.100   2.802
57403W        W29817  13.843  33.572   2.205
57404W        W29818  16.812  29.602  14.865
57405W        W29819  29.584  11.636   3.650
57406W        W29820  27.507  11.272  14.457
57407W        W29821   0.826  24.085  12.976
57408W        W29822  37.884  44.476  12.381
57409W        W29823  20.100  37.579   2.859
57410W        W29824  21.659  34.926   2.882
57411W        W29825  12.148  12.179   0.876
57412W        W29826  32.902  34.897  13.477
57413W        W29827   6.243  21.703   0.864
57414W        W29828  28.436  16.129   0.427
57415W        W29829   6.301  32.965  14.314
57416W        W29830  25.995  13.676  10.488
57417W        W29831  20.562  29.605  14.029
57418W        W29832  40.450  44.857  11.964
57419W        W29833  12.233  43.870  13.323
57420W        W29834   8.190  11.631   3.227
57421W        W29835  18.273  38.382   4.324
57422W        W29836   8.394   0.281  11.126
57423W        W29837  19.268  34.397  14.469
57424W        W29838  42.847   7.337   2.240
57425W        W29839  11.306   6.200  14.345
57426W        W29840  27.943  26.613   0.888
57427W        W29841  21.194  43.974  13.959
57428W        W29842  35.877  35.857  13.423
57429W        W29843  25.215  43.467   4.706
57430W        W29844   8.384  30.628   3.309
57431W        W29845  21.111  18.713  11.382
57432W        W29846   5.818  28.047  14.464
57433W        W29847  37.030  29.117   1.796
57434W        W29848  32.989  29.658   3.364
57435W        W29849  36.544  12.162  14.871
57436W        W29850  19.273  34.058   1.232
57437W        W29851  19.257  20.230   4.308
57438W        W29852  35.515   5.256   4.814
57439W        W29853  43.447  44.461   4.605
57440W        W29854   5.844  28.939  12.366
57441W        W29855  29.104  25.577   1.790
57442W        W29856  14.829  10.834  12.077
57443W        W29857  41.820   4.362  14.759
57444W        W29858  11.683  37.929  11.456
57445W        W29859  27.130   8.886   1.740
57446W        W29860  29.100  19.129  14.793
57447W        W29861  23.048  10.832  14.979
57448W        W29862  25.666  17.152  14.275
57449W        W29863  23.144   6.797  14.952
57450W        W29864  44.809  37.030  14.409
57451W        W29865  22.131  28.062   1.882
57452W        W29866  37.501   9.161  11.437
57453W        W29867  44.334  22.185  13.495
57454W        W29868   5.301  34.504   1.285
57455W        W29869  14.306  40.008  12.492
57456W        W29870  40.808  10.353  13.034
57457W        W29871  44.314  24.053   2.870
57458W        W29872  16.641   3.812  14.850
57459W        W29873  12.232  36.507  13.519
57460W        W29874  12.207  27.582   4.179
57461W        W29875   7.252  41.024  14.983
57462W        W29876  36.035  44.836   1.766
57463W        W29877  22.103  28.641   0.779
57464W        W29878   7.826  14.145   4.280
57465W        W29879   3.334  25.973  11.543
57466W        W29880  13.273  33.050  13.000
57467W        W29881  21.741   8.858   2.290
57468W        W29882  22.203  14.109   0.367
57469W        W29883  12.791  23.584   2.325
57470W        W29884   6.381  26.968   1.792
57471W        W29885  43.875   1.315   2.399
57472W        W29886  29.008  11.802   0.296
57473W        W29887  27.134  34.506  13.798
57474W        W29888  12.161  34.030   4.693
57475W        W29889  12.626  12.282   2.719
57476W        W29890  40.045   4.920   4.692
57477W        W29891   2.464  16.119   1.814
57478W        W29892  32.980   5.891   2.289
57479W        W29893  12.778  33.963   1.403
57480W        W29894  29.531  41.942  14.909
57481W        W29895  16.580  25.478   1.735
57482W        W29896  15.683  23.106  14.903
57483W        W29897  44.306  18.211  13.548
57484W        W29898   3.307  16.589   1.726
57485W        W29899  13.143  41.341  13.366
57486W        W29900   6.377  34.955   3.196
57487W        W29901   0.484  18.084   2.303
57488W        W29902  42.901  22.084   2.255
57489W        W29903  35.579  20.578   0.954
57490W        W29904  20.729  35.993  13.844
57491W        W29905  24.716  18.075  12.421
57492W        W29906   2.293  27.562   2.198
57493W        W29907   8.238  14.741  13.482
57494W        W29908  33.388  14.263  13.497
57495W        W29909   7.880  13.126   2.246
57496W        W29910   1.825  27.132  10.098
57497W        W29911   0.889   1.240  13.493
57498W        W29912  37.476   9.869  12.088
57499W        W29913  41.935   2.817   2.356
57500W        W29914   2.472  37.037  10.416
57501W        W29915  20.760  28.469  12.421
57502W        W29916  34.924   7.198  14.358
57503W        W29917  18.072  31.404   3.650
57504W        W29918  25.196   1.297   9.507
57505W        W29919   6.225   3.798  10.553
57506W        W29920  35.896  27.568   2.804
57507W        W29921  37.054  44.423  12.506
57508W        W29922  20.706  34.936   0.465
57509W        W29923  42.949  20.712   0.958
57510W        W29924  13.272  16.809   2.844
57511W        W29925  34.941   2.370  10.607
57512W        W29926   6.182  44.445  13.883
57513W        W29927  13.740  14.209   2.710
57514W        W29928  30.023  26.672  13.315
57515W        W29929  30.445   2.816  11.587
57516W        W29930   9.282  11.231  13.395
57517W        W29931  37.395   6.250   2.812
57518W        W29932   2.843  26.054  11.119
57519W        W29933  35.909  36.460   1.448
57520W        W29934  20.640  37.983   2.846
57521W        W29935  18.757  22.698  13.332
57522W        W29936   8.695  31.532   0.346
57523W        W29937  44.820  33.000  14.287
57524W        W29938  36.053  16.600   4.304
57525W        W29939  15.744   6.824   4.144
57526W        W29940  14.589   4.891  13.316
57527W        W29941  44.780  27.981   4.297
57528W        W29942  30.016   0.483   1.318
57529W        W29943  14.212   4.431   3.813
57530W        W29944  38.844   4.207  13.527
57531W        W29945  22.615  41.022   4.336
57532W        W29946  23.077   6.415  14.478
57533W        W29947   0.855   3.711   3.654
57534W        W29948  24.134  42.953   4.827
57535W        W29949   5.427   5.267   3.746
57536W        W29950  34.882  31.948  14.415
57537W        W29951  13.613  28.048   2.248
57538W        W29952   0.881  20.263  14.918
57539W        W29953  42.010   4.398  13.795
57540W        W29954  11.681   4.787   5.216
57541W        W29955  17.235  28.126  13.377
57542W        W29956   1.827  40.912   5.236
57543W        W29957  11.335  10.161  12.394
57544W        W29958  11.688  21.260   9.934
57545W        W29959  14.800  34.992  13.820
57546W        W29960  12.298  37.009  11.026
57547W        W29961  33.501   9.684   5.175
57548W        W29962  29.132  36.449   1.449
57549W        W29963  32.893  16.225  11.484
57550W        W29964   4.369  41.864   0.472
57551W        W29965  40.813  37.398   0.454
57552W        W29966  14.686   6.702  10.539
57553W        W29967  27.514  13.834   4.762
57554W        W29968  40.814  22.215  14.001
57555W        W29969  17.122  28.539   1.363
57556W        W29970  15.817   1.885  10.471
57557W        W29971  26.184  38.457   0.804
57558W        W29972   8.252  11.135   4.602
57559W        W29973  19.210  13.279   3.354
57560W        W29974   5.241  43.983  12.035
57561W        W29975  12.815  32.623   0.913
57562W        W29976   9.786  35.104  13.485
57563W        W29977   7.362  40.448   1.395
57564W        W29978  11.288   6.762  14.009
57565W        W29979  39.881  19.571  14.848
57566W        W29980   2.864  31.913   4.732
57567W        W29981  11.318  10.817   1.436
57568W        W29982  24.192  13.136  11.879
57569W        W29983  10.725   4.283  14.298
57570W        W29984  37.082   5.906  11.125
57571W        W29985  21.021  40.892  12.912
57572W        W29986   1.919  36.378   0.913
57573W        W29987   9.783  25.103   1.799
57574W        W29988  25.046  15.113  11.097
57575W        W29989   7.244  31.959  11.426
57576W        W29990  15.716  29.670  11.465
57577W        W29991   5.891  18.065  12.023
57578W        W29992  29.472   6.279   0.939
57579W        W29993  42.832  34.060  12.896
57580W        W29994  14.310  32.012   3.372
57581W        W29995   7.723  32.617   2.262
57582W        W29996  31.618  44.338   2.852
57583W        W29997  33.387  25.134  12.371
57584W        W29998  41.410  22.610   4.766
57585W        W29999  19.125  36.067  12.895
57586W        W30000  22.203  37.950  10.932
57587W        W30001  27.542  37.394   3.314
57588W        W30002  18.216  21.035  13.035
57589W        W30003  22.054  32.955   4.622
57590W        W30004  41.035  38.820  10.959
57591W        W30005   8.687  41.406   3.704
57592W        W30006  38.365  34.569   1.866
57593W        W30007  33.887  26.536  11.511
57594W        W30008   8.216  27.954  11.967
57595W        W30009  11.793   2.862  13.873
57596W        W30010  19.254  37.949  13.993
57597W        W30011  19.759  39.891  11.948
57598W        W30012  18.083  41.877   4.702
57599W        W30013  21.186  18.754  10.405
57600W        W30014  24.499  38.869   4.252
57601W        W30015  30.118  12.777   3.335
57602W        W30016  35.471   1.799   4.826
57603W        W30017  30.969  17.175   1.821
57604W        W30018   2.368   5.733  11.126
57605W        W30019  29.068  26.191  10.405
57606W        W30020  11.813  24.501   4.269
57607W        W30021   2.721  36.901   1.782
57608W        W30022  27.659   9.200   3.276
57609W        W30023   5.393  18.271   4.598
57610W        W30024  36.497  38.456  11.387
57611W        W30025  27.548  42.384  13.370
57612W        W30026   4.229  28.185  14.431
57613W        W30027   8.276  32.943  10.530
57614W        W30028  30.558   1.855   4.795
57615W        W30029   0.261  20.712  10.434
57616W        W30030  19.151  23.663  12.882
57617W        W30031  27.534  23.044  11.509
57618W        W30032  23.558  29.131  10.492
57619W        W30033  38.991   7.277  11.955
57620W        W30034  44.804  16.093   4.789
57621W        W30035  30.036  25.000  11.053
57622W        W30036  38.870  35.541  13.508
57623W        W30037  20.621   8.840   3.644
57624W        W30038  32.898   1.977   2.765
57625W        W30039  28.945   7.314   2.341
57626W        W30040  12.211  33.455  12.047
57627W        W30041  15.313  25.699   2.766
57628W        W30042  20.572  30.631   0.339
57629W        W30043  44.499  21.519  10.904
57630W        W30044   7.861  22.996  11.428
57631W        W30045  33.554   3.788   2.774
57632W        W30046  24.993  19.160   3.745
57633W        W30047   6.867  34.401   1.815
57634W        W30048  35.953  33.443   2.373
57635W        W30049  10.683  39.534   3.682
57636W        W30050  18.754  32.619   4.697
57637W        W30051  42.957  13.695   3.249
57638W        W30052  35.042   4.786  12.431
57639W        W30053   2.793  27.678   9.976
57640W        W30054   7.796  33.074   4.612
57641W        W30055  35.863  15.162   1.832
57642W        W30056  30.447   7.295  13.403
57643W        W30057  28.491  23.724  11.988
57644W        W30058   1.278  38.476   3.285
57645W        W30059  15.764  10.699   2.204
57646W        W30060  24.495   5.356  12.390
57647W        W30061   2.262   5.317  12.397
57648W        W30062  33.513   2.795   4.718
57649W        W30063  24.720   1.483  14.936
57650W        W30064  32.927  31.496  11.048
57651W        W30065  18.162  19.270  11.474
57652W        W30066  33.920  27.035   4.754
57653W        W30067  22.546  17.676   0.743
57654W        W30068  36.494  33.126   4.742
57655W        W30069  15.126  16.160  12.876
57656W        W30070   6.851  29.613   0.371
57657W        W30071   7.401  22.999  12.478
57658W        W30072  41.472  27.526  14.470
57659W        W30073   5.265  31.488  12.439
57660W        W30074   2.845  40.310  11.976
57661W        W30075  39.552   5.699  12.896
57662W        W30076  36.860   7.413   4.755
57663W        W30077  13.211  44.003   4.255
57664W        W30078  43.907  20.097  13.979
57665W        W30079   2.912  32.489   4.272
57666W        W30080  29.995   3.825   4.119
57667W        W30081  15.089  35.877   2.788
57668W        W30082  34.936   3.367  12.449
57669W        W30083  27.115   6.409  12.926
57670W        W30084  43.902  25.527   3.780
57671W        W30085   5.400  38.496  13.942
57672W        W30086   6.338  31.457  10.624
57673W        W30087  29.012  25.159  11.982
57674W        W30088   9.712   4.760   0.248
57675W        W30089  22.551   5.771  12.078
57676W        W30090  15.237  17.781   5.119
57677W        W30091  37.461  19.659   0.850
57678W        W30092  32.973  39.834  14.873
57679W        W30093  20.694  12.220   2.181
57680W        W30094  44.835   8.779  14.788
57681W        W30095  18.259   0.297   4.828
57682W        W30096  10.197  27.555   2.238
57683W        W30097  30.519  28.007  14.516
57684W        W30098  40.491  11.676   1.307
57685W        W30099  25.138  34.554   4.137
57686W        W30100  39.402   3.811   0.833
57687W        W30101  18.624  34.416   4.803
57688W        W30102  38.375  20.071   0.429
57689W        W30103  26.094  29.096  13.012
57690W        W30104  32.060  43.789  13.990
57691W        W30105  22.105  20.722  14.939
57692W        W30106  10.675  22.665   1.442
57693W        W30107   3.786  31.456   1.880
57694W        W30108  21.527  33.528   2.746
57695W        W30109  12.274  32.397   0.747
57696W        W30110  38.028  25.128   5.135
57697W        W30111  41.312  32.031   0.416
57698W        W30112  22.516  44.878   4.711
57699W        W30113  41.009   3.819  10.526
57700W        W30114  43.917   8.718  14.990
57701W        W30115  33.975  37.950  10.898
57702W        W30116  37.004  16.197   3.187
57703W        W30117  14.740  42.834   3.865
57704W        W30118  14.756  39.361  13.924
57705W        W30119  10.164  11.315  13.821
57706W        W30120  37.366   2.750  13.948
57707W        W30121  25.994  37.969   2.195
57708W        W30122   7.211   4.227   4.752
57709W        W30123  42.511  12.159  12.964
57710W        W30124  39.457  36.943   0.788
57711W        W30125  27.687  24.657   3.838
57712W        W30126  21.662  11.302   1.310
57713W        W30127  28.497  40.545   4.222
57714W        W30128  40.462  33.526   3.721
57715W        W30129  41.819   9.870   4.746
57716W        W30130  36.842  30.061   3.857
57717W        W30131  30.602  10.867   0.314
57718W        W30132   0.758  42.819  13.527
57719W        W30133  10.156  22.093   2.856
57720W        W30134  10.874  38.346   4.672
57721W        W30135   7.848  33.041  13.926
57722W        W30136   7.911  30.463   2.892
57723W        W30137  18.564  19.630   1.764
57724W        W30138  43.962  39.016   3.678
57725W        W30139  20.139  22.565   2.898
57726W        W30140  37.453  40.038   4.783
57727W        W30141  34.957  30.618  10.030
57728W        W30142  33.579  12.184  11.121
57729W        W30143   2.725  13.205   1.908
57730W        W30144  44.781  41.034   3.258
57731W        W30145   6.847  10.160  11.417
57732W        W30146   4.259  35.095  13.329
57733W        W30147  24.166   1.437  13.869
57734W        W30148   9.360   4.745  13.980
57735W        W30149  39.908  25.584   0.357
57736W        W30150  31.588  26.976  14.285
57737W        W30151  13.290  16.678  11.084
57738W        W30152   9.225  34.005  10.410
57739W        W30153  35.404  44.806   1.711
57740W        W30154  13.350  21.165   0.937
57741W        W30155   0.452  23.717   1.234
57742W        W30156  21.118  22.046   4.833
57743W        W30157  11.299  19.201  13.479
57744W        W30158  33.479  15.162   3.288
57745W        W30159  38.021   0.262   4.792
57746W        W30160   6.183  35.535   3.204
57747W        W30161  33.616  20.633   3.257
57748W        W30162  11.671  33.120  13.365
57749W        W30163  24.007  21.582   4.158
57750W        W30164   7.758  10.696  11.955
57751W        W30165   7.875  17.255   1.336
57752W        W30166  27.503  21.603   0.283
57753W        W30167  36.985  15.296   2.274
57754W        W30168  12.775  20.691  12.339
57755W        W30169  40.423  41.039   2.683
57756W        W30170  19.542   6.762  12.426
57757W        W30171   2.913  35.036  13.808
57758W        W30172  43.280   4.339  11.112
57759W        W30173  13.787  31.134  13.029
57760W        W30174  41.809  19.707   1.307
57761W        W30175  18.106  39.372   4.710
57762W        W30176  18.612  26.028  14.401
57763W        W30177  35.925   8.292   3.808
57764W        W30178  38.007  29.947  10.558
57765W        W30179  25.163  36.423   0.466
57766W        W30180   6.914   5.431   2.305
57767W        W30181  14.281  36.357   4.618
57768W        W30182   9.149  26.486  14.992
57769W        W30183   6.380   7.402  13.992
57770W        W30184  12.799  17.658   2.220
57771W        W30185   4.815  14.094   4.760
57772W        W30186  42.807  39.493   1.245
57773W        W30187   0.322   5.325   4.242
57774W        W30188  12.355   4.353  14.398
57775W        W30189  41.018  24.710  13.042
57776W        W30190  30.584  14.097   1.449
57777W        W30191   9.801  29.660  12.977
57778W        W30192  41.420  31.928   1.835
57779W        W30193   4.935  32.472  12.395
57780W        W30194  44.799   7.227   2.871
57781W        W30195  31.060  19.085   0.882
57782W        W30196   3.338  27.574   5.195
57783W        W30197   8.227   7.860   0.955
57784W        W30198  22.052  39.873  14.449
57785W        W30199  30.108   5.736  14.425
57786W        W30200   2.270  16.685   3.747
57787W        W30201  10.689  16.715   0.292
57788W        W30202   1.283  37.579  14.833
57789W        W30203  21.717  14.761  10.631
57790W        W30204  32.007  22.512  14.317
57791W        W30205  24.140  24.120  11.592
57792W        W30206   3.236  18.709  10.540
57793W        W30207   1.939  29.505  12.358
57794W        W30208  24.582  18.294   2.839
57795W        W30209  25.213  43.413  13.991
57796W        W30210  35.862   1.811  13.397
57797W        W30211  36.526   1.912   5.184
57798W        W30212  20.711  25.688  10.922
57799W        W30213  31.609  22.603  10.888
57800W        W30214  43.896  23.138   1.859
57801W        W30215  27.196  44.764  13.991
57802W        W30216  18.240  34.494   4.794
57803W        W30217  24.549   2.957   2.253
57804W        W30218  25.559  15.693   4.141
57805W        W30219  36.015  38.005   0.372
57806W        W30220  33.967  22.149   2.737
57807W        W30221  37.983  40.951  11.987
57808W        W30222   6.233  24.042   0.804
57809W        W30223  29.046  40.326  12.862
57810W        W30224  20.199  14.779   0.466
57811W        W30225  26.132  17.701   9.971
57812W        W30226  30.499  38.074  14.435
57813W        W30227  29.035  12.166  11.023
57814W        W30228  34.588  23.549   1.894
57815W        W30229   3.234  14.610  11.016
57816W        W30230  12.843  27.111   2.331
57817W        W30231  41.457   0.958  12.011
57818W        W30232  34.485  29.983   1.756
57819W        W30233  23.686  40.529  10.414
57820W        W30234  23.044  28.170   1.427
57821W        W30235  32.056  37.403  11.530
57822W        W30236  15.258  20.131   0.739
57823W        W30237   2.724  28.060  14.866
57824W        W30238  13.334   3.333   0.298
57825W        W30239  16.806  28.443   4.762
57826W        W30240  27.987  36.841  10.012
57827W        W30241  37.501  31.626   4.745
57828W        W30242  36.067  10.700   1.815
57829W        W30243  28.183  39.930   4.725
57830W        W30244  23.507  40.931  12.551
57831W        W30245   0.919  40.383  10.141
57832W        W30246  21.614  36.406   1.225
57833W        W30247  20.699  30.100  10.522
57834W        W30248  18.259  43.488   1.914
57835W        W30249  22.132  43.385   2.273
57836W        W30250  15.680  21.518  13.873
57837W        W30251   5.360   8.234  12.958
57838W        W30252  19.752   5.886   2.792
57839W        W30253  28.623  36.000   0.944
57840W        W30254  20.696  29.085  11.108
57841W        W30255  20.268  14.218   3.348
57842W        W30256   5.775  23.163   4.278
57843W        W30257  29.536  12.207   3.695
57844W        W30258  34.072  16.305   4.339
57845W        W30259   8.313  32.992  14.454
57846W        W30260  14.693  39.404   3.855
57847W        W30261  34.017   6.894  12.523
57848W        W30262  26.100   9.378   1.924
57849W        W30263  39.423  20.562  11.570
57850W        W30264  11.185  42.381  11.105
57851W        W30265   0.805  26.971   0.471
57852W        W30266  21.119  35.426   2.265
57853W        W30267  34.467  21.610  11.423
57854W        W30268  35.586  11.756  12.394
57855W        W30269  22.661  43.800  13.433
57856W        W30270  32.538  35.480  14.899
57857W        W30271   3.807   6.355   4.114
57858W        W30272  40.385  42.962   4.791
57859W        W30273  26.630  43.387   2.894
57860W        W30274   5.818   3.922  11.397
57861W        W30275  31.442  39.377   4.608
57862W        W30276  11.857   3.774  13.908
57863W        W30277  18.615  31.407   1.743
57864W        W30278   6.312   3.903   3.733
57865W        W30279  27.073   0.273   9.668
57866W        W30280  29.501   6.366  14.823
57867W        W30281  11.339   9.327  12.829
57868W        W30282  33.474   8.708  13.877
57869W        W30283   3.859  20.644  12.571
57870W        W30284  41.482  25.999   0.321
57871W        W30285  17.286  11.865  10.575
57872W        W30286  29.507  32.100  14.356
57873W        W30287  41.428  23.674   0.887
57874W        W30288  20.171  34.933   4.209
57875W        W30289  35.003  43.425   3.214
57876W        W30290  23.108  25.713   3.277
57877W        W30291  16.132  38.472   0.279
57878W        W30292  21.756  35.523   4.188
57879W        W30293   3.440  30.517  12.576
57880W        W30294   3.279  30.467  10.002
57881W        W30295  17.611  33.551   4.718
57882W        W30296  12.360  32.589  11.497
57883W        W30297  39.440  25.577   1.247
57884W        W30298   2.310   6.826  13.494
57885W        W30299  43.496  11.360  13.458
57886W        W30300   8.314  29.983   4.649
57887W        W30301   0.910  36.910   0.750
57888W        W30302  18.179  15.311   2.308
57889W        W30303   0.249   5.284  13.964
57890W        W30304   6.758  19.275  11.949
57891W        W30305  43.790   2.882   4.673
57892W        W30306   5.282   9.175  11.018
57893W        W30307  42.361   2.468   3.835
57894W        W30308   1.388  34.445   1.294
57895W        W30309   3.873   6.890   4.835
57896W        W30310  32.982  18.605   2.787
57897W        W30311  35.977  33.105   5.686
57898W        W30312  13.692  18.785  13.018
57899W        W30313  41.793  22.706  14.004
57900W        W30314   2.878   1.430  12.517
57901W        W30315  18.645  40.855   1.347
57902W        W30316  27.622  43.355   2.384
57903W        W30317   8.707  34.391  14.912
57904W        W30318  38.871  35.861   0.413
57905W        W30319  26.633   4.241   0.375
57906W        W30320  34.435  28.141  10.463
57907W        W30321   4.931  17.658  12.087
57908W        W30322  26.520  14.744  14.844
57909W        W30323   5.391  40.340   5.194
57910W        W30324  30.089  23.223   2.267
57911W        W30325  39.355  42.024  14.929
57912W        W30326  16.080  11.276   4.682
57913W        W30327  28.169  39.521  14.879
57914W        W30328   4.739   2.289   4.701
57915W        W30329  17.241  15.595   5.127
57916W        W30330  21.692  28.124  11.481
57917W        W30331  39.448  28.157   1.892
57918W        W30332  27.498  40.406   1.701
57919W        W30333   2.832  14.202   3.693
57920W        W30334   2.265  43.496  12.378
57921W        W30335   1.850  14.633   5.129
57922W        W30336  40.994  16.162  12.356
57923W        W30337  38.389   0.278   3.732
57924W        W30338  28.967  17.168  12.971
57925W        W30339  20.113  22.175   3.243
57926W        W30340  27.599   4.290   3.682
57927W        W30341   7.194   2.452   1.882
57928W        W30342   7.219   6.420   4.640
57929W        W30343  11.130   3.284   3.303
57930W        W30344  38.861  41.408   2.379
57931W        W30345   0.428  16.576  13.018
57932W        W30346  36.861  24.998   1.248
57933W        W30347  38.445  40.016  14.344
57934W        W30348   7.326  25.175  11.575
57935W        W30349  24.162  19.760   5.156
57936W        W30350  21.150  36.961  14.323
57937W        W30351  34.598   8.374   4.748
57938W        W30352   6.744   6.281  14.923
57939W        W30353  40.052  15.115   0.942
57940W        W30354  36.467  16.746   4.254
57941W        W30355  36.955  13.206  13.004
57942W        W30356  24.623  42.875  12.034
57943W        W30357  16.316  24.079   0.397
57944W        W30358   7.342  13.607  12.071
57945W        W30359   1.931  22.689  12.409
57946W        W30360  15.252   9.347   3.237
57947W        W30361   3.845  18.192  10.984
57948W        W30362  14.221  17.196   1.905
57949W        W30363  17.155   1.433   4.647
57950W        W30364  26.150  42.966  12.558
57951W        W30365   0.814  42.869  13.057
57952W        W30366  30.614  40.357  14.931
57953W        W30367  23.113  44.259   4.285
57954W        W30368  33.980  29.962  13.914
57955W        W30369  10.364  23.996  14.495
57956W        W30370  38.945  40.306   2.745
57957W        W30371  42.501  13.689   3.729
57958W        W30372  10.766  42.328   1.305
57959W        W30373  24.120  23.074  14.974
57960W        W30374  21.592  17.619  12.992
57961W        W30375  24.007  36.896  13.011
57962W        W30376  30.106  43.773  13.971
57963W        W30377  39.534   5.393  11.981
57964W        W30378  42.422  31.071  11.916
57965W        W30379   2.442  36.461   2.318
57966W        W30380  10.214  12.769  14.914
57967W        W30381  32.947  18.707   3.330
57968W        W30382  44.460  37.567   3.260
57969W        W30383   1.861  22.108  10.468
57970W        W30384  40.931  16.282  13.862
57971W        W30385   4.390   0.890  11.958
57972W        W30386  21.186  23.529  10.050
57973W        W30387  24.036  26.501   5.258
57974W        W30388   1.799  32.134  11.598
57975W        W30389  24.537  15.187   3.721
57976W        W30390  39.004  11.868   3.226
57977W        W30391  28.972  12.659  12.068
57978W        W30392  14.668   1.757   3.320
57979W        W30393  15.170  41.415  11.930
57980W        W30394   6.295   8.845  14.833
57981W        W30395  26.998  16.161   2.344
57982W        W30396  43.431  19.742  13.937
57983W        W30397  43.768  26.694  11.526
57984W        W30398  26.698   7.379   0.779
57985W        W30399  40.446  22.601  13.311
57986W        W30400  21.036  24.018   1.405
57987W        W30401  13.206   7.707   2.347
57988W        W30402  22.560  30.108   2.822
57989W        W30403   9.743  19.585  12.020
57990W        W30404   1.366  21.245  13.346
57991W        W30405  20.692  31.596   4.655
57992W        W30406  23.171  23.534  10.455
57993W        W30407   8.196  36.048   0.371
57994W        W30408  43.401  40.349   1.825
57995W        W30409  16.251  36.052  11.947
57996W        W30410  32.047  13.691  12.409
57997W        W30411  40.353  24.637   0.450
57998W        W30412  32.472   3.797   2.770
57999W        W30413  33.602  35.061  13.475
58000W        W30414   0.328  30.133   1.401
58001W        W30415  33.558  40.519  13.434
58002W        W30416  29.656  43.849  10.905
58003W        W30417  30.632  35.981   0.791
58004W        W30418  14.832  29.106  10.131
58005W        W30419  22.093  23.669  14.887
58006W        W30420  33.994  35.480   2.901
58007W        W30421  41.487   4.381   1.872
58008W        W30422   6.185  12.842  13.328
58009W        W30423  34.975  15.701   1.419
58010W        W30424  32.414  44.950  12.047
58011W        W30425   8.702  32.613   1.907
58012W        W30426  27.005  28.558   0.480
58013W        W30427   7.328   6.317  11.434
58014W        W30428  31.997  40.358   1.334
58015W        W30429  24.979  26.578  11.606
58016W        W30430  25.662   5.412  14.929
58017W        W30431  10.377  38.842   0.315
58018W        W30432  18.747  24.637  14.305
58019W        W30433  29.135   6.220   4.754
58020W        W30434  19.646  14.724   4.353
58021W        W30435  26.662  22.538  12.543
58022W        W30436  17.735   9.691   4.307
58023W        W30437   7.871  39.902  11.991
58024W        W30438  21.241  29.600  14.407
58025W        W30439  17.784  32.405   3.689
58026W        W30440   2.353  22.734   2.396
58027W        W30441  18.109  29.141   2.233
58028W        W30442  16.196  32.104   2.401
58029W        W30443  13.259  43.496   3.175
58030W        W30444  15.705   7.216  11.994
58031W        W30445  40.856   8.196  12.360
58032W        W30446  14.742  35.952   3.637
58033W        W30447  13.617  25.123  11.034
58034W        W30448   7.666   9.303  10.980
58035W        W30449  36.397  28.594  11.984
58036W        W30450  13.763   7.665  10.516
58037W        W30451  25.031  17.125   1.807
58038W        W30452   4.392   7.808  13.448
58039W        W30453  44.904   9.270  14.447
58040W        W30454   8.384  37.480   0.821
58041W        W30455   4.919  14.728   4.334
58042W        W30456  11.804   6.851   3.196
58043W        W30457  20.734  32.534  14.935
58044W        W30458   5.301  36.063   1.447
58045W        W30459  18.567  41.800  14.323
58046W        W30460  17.142  16.274  10.453
58047W        W30461  21.571  17.065   2.880
58048W        W30462   3.873  17.604  14.283
58049W        W30463  30.027   0.414  13.449
58050W        W30464   2.244   9.723   1.447
58051W        W30465  17.152   2.437  14.426
58052W        W30466  43.503  30.070   0.446
58053W        W30467  37.472   2.369   1.294
58054W        W30468  41.453   8.841   3.822
58055W        W30469  18.700  23.699   2.181
58056W        W30470  23.610  31.100  13.339
58057W        W30471  30.599  22.063  10.403
58058W        W30472  36.572  14.185   2.766
58059W        W30473  35.866   1.951   2.728
58060W        W30474  22.108  25.137   2.262
58061W        W30475   0.462   0.939   1.735
58062W        W30476  23.997  39.012   0.268
58063W        W30477  26.993  34.583  10.415
58064W        W30478   4.735   2.348   2.874
58065W        W30479  20.663   6.293  14.434
58066W        W30480   3.386  41.950   5.259
58067W        W30481  15.125  35.410  15.000
58068W        W30482  33.968  28.130   2.805
58069W        W30483  17.201  20.671   2.873
58070W        W30484  33.888   0.384  11.915
58071W        W30485   4.901   1.773  12.407
58072W        W30486  18.576  23.727   0.802
58073W        W30487  15.092  20.598  12.017
58074W        W30488  20.543  26.615   4.172
58075W        W30489  42.344   2.458   0.808
58076W        W30490  17.694   0.857   0.466
58077W        W30491  29.567  19.175   0.407
58078W        W30492  11.311  41.334  12.453
58079W        W30493  10.253  14.804  14.865
58080W        W30494  38.819  30.526  11.104
58081W        W30495  13.740   2.298   2.868
58082W        W30496  20.542  26.140  12.920
58083W        W30497  17.188  20.754  11.893
58084W        W30498  14.312   6.339  11.567
58085W        W30499  32.489  44.340  12.364
58086W        W30500  26.633  14.287   3.828
58087W        W30501  44.391  35.094  11.089
58088W        W30502  25.666  31.915   2.255
58089W        W30503  40.875  24.622   0.380
58090W        W30504   3.721   8.706  12.050
58091W        W30505  31.999   3.849   0.780
58092W        W30506  17.098  37.930  12.463
58093W        W30507  44.307  26.542  14.299
58094W        W30508  13.143  37.872  11.967
58095W        W30509   4.753  15.755   3.707
58096W        W30510  38.482  40.835  10.605
58097W        W30511  36.045  32.627  14.910
58098W        W30512  21.091  10.239   1.257
58099W        W30513  18.559  35.471   3.818
58100W        W30514  11.329  12.265  14.951
58101W        W30515  24.517  34.962   3.281
58102W        W30516  13.144  20.249  10.412
58103W        W30517  28.581  25.997  11.604
58104W        W30518  24.065  44.985  11.083
58105W        W30519  27.602  21.563   1.435
58106W        W30520  40.462  12.237  10.975
58107W        W30521  11.816   6.844  14.479
58108W        W30522  41.015  13.687  11.921
58109W        W30523  17.718  18.186  10.478
58110W        W30524  40.865  38.052   0.444
58111W        W30525   8.688  26.999   0.892
58112W        W30526  22.072  16.099  12.402
58113W        W30527  15.805  22.709  11.034
58114W        W30528  15.755  19.550  10.949
58115W        W30529  11.194  44.894  12.871
58116W        W30530  18.211  17.089   1.863
58117W        W30531   4.379  25.153   4.743
58118W        W30532   1.429  35.858   1.257
58119W        W30533  37.032  41.530  12.478
58120W        W30534  28.087  12.784   4.806
58121W        W30535   3.774   2.966   3.376
58122W        W30536  23.513   2.859   0.904
58123W        W30537  25.214  35.539  12.865
58124W        W30538  17.668  32.923  13.014
58125W        W30539  43.297  15.712   2.671
58126W        W30540  42.484  19.552   4.304
58127W        W30541  27.972  24.620   3.759
58128W        W30542  10.646  41.296  14.321
58129W        W30543   4.734  11.695  12.403
58130W        W30544   3.295  40.437  13.537
58131W        W30545  37.833  27.139  12.072
58132W        W30546  42.434  37.528   4.645
58133W        W30547  25.124  41.965  12.370
58134W        W30548   5.271  21.169   1.804
58135W        W30549  36.539  30.069  12.072
58136W        W30550  14.283   8.814   5.185
58137W        W30551  22.655  24.106   1.798
58138W        W30552  13.843  29.124  10.414
58139W        W30553  39.502  40.968   4.152
58140W        W30554  32.631  33.059  14.314
58141W        W30555  14.596  25.070   5.289
58142W        W30556  22.219  11.325  12.868
58143W        W30557  32.911   6.748   2.304
58144W        W30558  18.700  41.947   0.772
58145W        W30559  34.014  14.707  11.434
58146W        W30560  32.581  25.605  11.404
58147W        W30561  32.590   8.233   2.778
58148W        W30562  38.552  31.152   4.295
58149W        W30563  27.964  25.533  13.037
58150W        W30564   8.760  16.090   1.912
58151W        W30565  21.728  16.717  11.910
58152W        W30566  41.939   8.298  12.398
58153W        W30567   2.966   2.324  11.599
58154W        W30568  19.107  44.330  13.522
58155W        W30569  14.723   8.792   4.203
58156W        W30570   7.264  39.331  13.462
58157W        W30571  35.089  33.048   2.343
58158W        W30572  40.865  10.181  14.416
58159W        W30573  27.592  34.091  10.538
58160W        W30574  14.631  20.664   4.261
58161W        W30575   7.873  16.303   4.613
58162W        W30576  28.182  38.361   4.597
58163W        W30577  33.115  26.697   0.742
58164W        W30578   7.882  16.771  13.497
58165W        W30579   8.219  24.075  13.028
58166W        W30580   5.689  12.678  11.049
58167W        W30581  22.155  37.952  12.572
58168W        W30582  19.059  36.942   1.911
58169W        W30583  11.215  39.891   1.935
58170W        W30584  41.017  17.618  11.386
58171W        W30585   4.900  37.433   4.813
58172W        W30586  12.763  37.077  10.637
58173W        W30587  22.042  17.636  12.859
58174W        W30588  32.121  18.097  10.969
58175W        W30589  30.137  10.791  13.528
58176W        W30590  17.574  22.556   0.283
58177W        W30591  29.126  34.491  11.374
58178W        W30592  14.321  10.737  14.828
58179W        W30593  43.509  36.051   0.313
58180W        W30594  27.445  22.682   2.767
58181W        W30595  34.869  33.084  12.362
58182W        W30596  20.597   3.935   3.663
58183W        W30597  44.924  43.327  13.511
58184W        W30598  14.214   9.386  11.954
58185W        W30599  40.027  40.537  11.384
58186W        W30600  29.454  42.364   1.832
58187W        W30601  15.147   7.840  12.433
58188W        W30602  18.770  28.523  13.016
58189W        W30603  10.780  15.770  11.440
58190W        W30604  19.264  43.817  10.146
58191W        W30605  11.273  42.443  13.499
58192W        W30606  15.644  12.766   3.300
58193W        W30607  13.195  22.536   4.227
58194W        W30608  23.495  23.171   3.807
58195W        W30609  36.375  34.893   3.851
58196W        W30610  44.983  32.931   4.649
58197W        W30611  19.663  41.462  11.042
58198W        W30612  32.033  25.588  12.578
58199W        W30613   7.220  19.133  14.275
58200W        W30614  30.504  38.569   1.309
58201W        W30615  25.086  27.976  12.431
58202W        W30616  29.130  24.042   0.266
58203W        W30617  33.606  41.856  11.446
58204W        W30618   1.429  37.405  11.115
58205W        W30619  41.005   9.668   4.687
58206W        W30620   0.837  12.697  14.028
58207W        W30621   7.872  32.633   0.908
58208W        W30622  38.883   5.827   2.739
58209W        W30623   7.774  19.156  11.443
58210W        W30624  28.939  43.775  12.953
58211W        W30625  35.044   5.913  11.947
58212W        W30626  42.978  44.449  10.435
58213W        W30627  27.656  14.321   1.381
58214W        W30628  16.293  42.373  11.566
58215W        W30629  17.762   6.186   2.742
58216W        W30630  30.513  24.109  10.887
58217W        W30631  17.557  27.480  14.276
58218W        W30632  14.667   1.266  13.958
58219W        W30633   1.931  20.574   4.314
58220W        W30634  39.396  44.309   2.779
58221W        W30635   9.366  39.351  11.580
58222W        W30636  27.000  28.453  12.069
58223W        W30637  41.511  31.405   3.862
58224W        W30638   4.392   9.777   1.245
58225W        W30639   7.173  28.101  11.504
58226W        W30640  11.830  23.021   4.800
58227W        W30641  30.413  34.407   0.935
58228W        W30642  17.620   8.851   4.234
58229W        W30643  12.673  13.628   0.399
58230W        W30644   5.357   8.240  10.601
58231W        W30645  12.632   8.896   1.242
58232W        W30646  10.218   3.218  11.000
58233W        W30647  37.561   8.753   3.781
58234W        W30648   5.787  30.572   3.809
58235W        W30649  28.184  16.298  14.004
58236W        W30650  10.363  35.373  12.512
58237W        W30651   9.771   3.316   3.227
58238W        W30652   3.447  23.131  12.523
58239W        W30653  38.009  11.140  14.885
58240W        W30654  10.294  34.886  11.508
58241W        W30655  27.557  35.427   1.330
58242W        W30656  19.720  25.016  11.538
58243W        W30657  19.210  41.795   2.302
58244W        W30658   5.241  42.028   5.731
58245W        W30659  37.934  19.179   2.709
58246W        W30660   0.828   0.384   1.879
58247W        W30661   4.703  25.966   1.873
58248W        W30662  11.257   0.374  13.533
58249W        W30663   1.804  30.089   4.623
58250W        W30664  41.472  12.642   3.329
58251W        W30665  11.318  21.073   4.328
58252W        W30666   3.417  20.730  13.475
58253W        W30667  14.214  12.668  11.051
58254W        W30668  37.060  30.077  10.467
58255W        W30669   1.778  32.123   1.770
58256W        W30670  34.026  43.365   0.305
58257W        W30671  20.181  26.114   1.875
58258W        W30672  41.503   7.808   2.253
58259W        W30673   9.304   7.175   2.184
58260W        W30674  16.695  13.759  11.479
58261W        W30675  14.658  23.730   4.325
58262W        W30676  33.077   9.312   3.687
58263W        W30677  13.311  40.892   3.195
58264W        W30678  44.357  14.808   3.824
58265W        W30679  36.983  38.065  14.945
58266W        W30680   2.947  11.701   3.202
58267W        W30681  14.232  18.212  14.490
58268W        W30682   6.255  29.047   0.290
58269W        W30683   5.248  38.866   3.232
58270W        W30684   0.414  42.437   2.763
58271W        W30685  33.436  17.219   0.307
58272W        W30686  18.260  14.141   3.800
58273W        W30687  19.264  24.154   3.790
58274W        W30688  23.526  31.920   1.773
58275W        W30689  19.119  32.474   4.723
58276W        W30690  10.685  25.120  11.386
58277W        W30691  20.075   7.903   1.293
58278W        W30692  36.349   0.257   2.327
58279W        W30693   4.296  31.119   0.876
58280W        W30694  21.151  16.175   1.320
58281W        W30695  44.899  23.211   3.650
58282W        W30696   6.335  28.958   3.342
58283W        W30697  10.315  38.998  13.516
58284W        W30698  25.688  25.010  12.901
58285W        W30699  34.446  40.380   1.710
58286W        W30700  16.588  27.674  12.393
58287W        W30701   3.279  12.225  14.356
58288W        W30702  40.493  44.929  14.382
58289W        W30703   5.812  28.080  12.849
58290W        W30704  10.858  32.084  12.068
58291W        W30705  15.595  36.457   4.819
58292W        W30706   6.336  11.189  13.914
58293W        W30707  14.256  38.395   1.420
58294W        W30708  44.818  34.425   0.249
58295W        W30709  39.445  17.568   0.788
58296W        W30710   4.774  25.619  10.530
58297W        W30711  34.380  31.965   1.262
58298W        W30712   3.773  12.830   0.778
58299W        W30713  29.934  29.106   3.245
58300W        W30714   8.245  15.286   4.722
58301W        W30715  19.777   5.412   2.685
58302W        W30716  20.117   4.379  14.985
58303W        W30717  42.805  26.103  12.421
58304W        W30718  13.801  38.987  11.456
58305W        W30719  38.998  39.314   4.289
58306W        W30720  13.302  26.069  12.915
58307W        W30721  12.141   6.677   1.930
58308W        W30722  40.960   6.852  12.945
58309W        W30723   8.261   7.358  12.446
58310W        W30724  12.336  32.452   4.748
58311W        W30725  11.803  34.549   0.472
58312W        W30726  33.063  41.028   3.364
58313W        W30727  29.096  37.475  10.449
58314W        W30728  22.130   1.343  13.807
58315W        W30729  35.488  37.579   0.454
58316W        W30730  18.610  17.627  11.996
58317W        W30731   9.783  37.023   3.188
58318W        W30732   7.835  11.276  12.437
58319W        W30733  23.178   7.749   4.671
58320W        W30734  33.979   9.878  12.083
58321W        W30735  30.551  34.539  10.899
58322W        W30736  32.042   0.763   4.142
58323W        W30737  30.965  10.654   2.836
58324W        W30738  33.127   3.306  14.392
58325W        W30739  24.590   0.494   1.898
58326W        W30740   6.859  34.039  12.981
58327W        W30741  10.353  34.949   3.746
58328W        W30742   6.692  33.422  10.465
58329W        W30743  29.977  31.915   3.704
58330W        W30744  17.290  17.221  13.503
58331W        W30745  15.322  24.614   4.763
58332W        W30746  44.972  24.226   4.253
58333W        W30747   9.776  37.857  11.594
58334W        W30748  35.359   4.853  11.470
58335W        W30749  28.629  36.462  11.593
58336W        W30750   8.342  29.606  14.811
58337W        W30751   2.815   0.815  13.884
58338W        W30752  22.025  41.924   0.931
58339W        W30753  41.491  42.488  14.491
58340W        W30754  40.528  22.623  11.436
58341W        W30755   8.193  20.142   4.225
58342W        W30756  10.865   6.224   0.337
58343W        W30757   2.388   2.457  12.349
58344W        W30758  23.198   3.741   1.383
58345W        W30759  25.123  21.598  13.351
58346W        W30760  18.189   6.821  14.840
58347W        W30761  22.542  21.746  11.955
58348W        W30762  28.092  43.862  14.822
58349W        W30763  39.839   8.850  11.006
58350W        W30764   3.343   8.880  12.445
58351W        W30765  18.624  35.519  13.492
58352W        W30766  15.230  40.806   4.679
58353W        W30767  34.487  39.945  13.810
58354W        W30768  27.098  19.177  14.865
58355W        W30769  34.896  41.519   4.145
58356W        W30770  19.126  42.844   2.880
58357W        W30771  29.030  41.371  14.968
58358W        W30772  11.332  31.588   2.674
58359W        W30773  25.991  12.174  11.912
58360W        W30774  27.113  29.606  13.901
58361W        W30775  10.684  23.713   1.898
58362W        W30776   2.807  24.977   1.243
58363W        W30777  43.312  28.486   1.763
58364W        W30778  15.227  20.154   1.722
58365W        W30779  12.132  36.851   1.309
58366W        W30780  41.330   3.913  14.912
58367W        W30781  33.496   3.320  11.556
58368W        W30782   0.769  28.664   1.823
58369W        W30783  10.377  24.231   4.698
58370W        W30784  43.875  31.920  13.427
58371W        W30785  13.348  35.995  12.055
58372W        W30786  43.501  15.812  14.810
58373W        W30787  40.429  31.009   2.294
58374W        W30788   4.440  33.015   0.288
58375W        W30789  41.817   4.775   1.876
58376W        W30790  42.998  22.146  12.830
58377W        W30791  13.802   6.361   0.330
58378W        W30792   1.846  19.774   1.444
58379W        W30793  38.476   6.826  12.036
58380W        W30794  21.532  42.522   1.407
58381W        W30795  20.707  41.484   1.393
58382W        W30796  29.039  33.445  14.498
58383W        W30797   3.415  16.230  12.352
58384W        W30798   1.261  19.224  10.538
58385W        W30799   5.286   9.774  13.520
58386W        W30800  13.694  44.902  14.842
58387W        W30801  43.478  37.367   3.351
58388W        W30802  30.063  37.386  14.363
58389W        W30803  28.087  18.103  10.932
58390W        W30804  22.651  23.136  12.072
58391W        W30805   0.861  23.538   1.375
58392W        W30806  32.462  40.509  13.957
58393W        W30807  43.353  17.160  12.896
58394W        W30808   6.813  42.905  11.444
58395W        W30809   3.357  28.441  11.567
58396W        W30810  16.080  11.794  12.479
58397W        W30811  43.944   5.277  11.489
58398W        W30812  27.992  21.082  11.392
58399W        W30813  21.579  39.464   4.180
58400W        W30814  10.788  29.589   4.228
58401W        W30815  13.276  39.907   0.458
58402W        W30816  11.647  37.986   4.322
58403W        W30817  17.737   9.169  11.885
58404W        W30818   7.753   3.298  14.983
58405W        W30819  24.196  29.476   0.401
58406W        W30820  22.156  23.613   3.260
58407W        W30821   5.789   5.421   4.173
58408W        W30822  28.154  39.543  13.985
58409W        W30823  29.930  32.401  12.058
58410W        W30824   5.390  24.032  13.943
58411W        W30825  39.340  23.236   3.809
58412W        W30826   6.359  30.975  12.955
58413W        W30827  22.740   7.220  14.346
58414W        W30828  10.801  12.257   3.366
58415W        W30829  43.465  23.545  10.093
58416W        W30830  25.080  10.755   2.763
58417W        W30831   4.242  21.743  11.085
58418W        W30832  20.045  26.502   4.289
58419W        W30833  19.248   7.324  10.594
58420W        W30834  14.170  42.485   3.291
58421W        W30835  18.585  36.927   3.353
58422W        W30836   3.763   9.834  12.066
58423W        W30837  10.849  25.654   2.233
58424W        W30838  18.672  12.713  12.973
58425W        W30839  27.672  39.058   2.836
58426W        W30840  23.096  39.848  14.427
58427W        W30841  30.596   9.745   3.772
58428W        W30842  18.655  28.032  11.115
58429W        W30843  27.038  11.328   1.380
58430W        W30844  23.079   6.697   2.843
58431W        W30845   8.781  36.415   1.275
58432W        W30846   1.942  24.002   0.453
58433W        W30847  21.212   5.242  12.968
58434W        W30848   4.704  42.816  14.978
58435W        W30849   1.401  23.704  10.469
58436W        W30850  32.059   2.304   2.415
58437W        W30851  42.512  18.774  13.378
58438W        W30852   4.926  28.091   3.681
58439W        W30853  13.771  40.878   1.861
58440W        W30854  23.146  42.439   2.196
58441W        W30855  19.049  12.661  11.026
58442W        W30856   6.677  29.095  11.031
58443W        W30857   5.753  31.112   1.751
58444W        W30858  40.328  13.116   2.672
58445W        W30859  17.702  18.189   1.843
58446W        W30860  17.707  43.932   2.758
58447W        W30861  27.958  26.180   0.780
58448W        W30862  33.414  42.919   1.797
58449W        W30863  19.771  12.290  10.524
58450W        W30864  10.360  21.738   5.205
58451W        W30865  12.297  17.193  14.976
58452W        W30866   2.903  38.439  11.466
58453W        W30867  24.106  10.787   0.387
58454W        W30868   2.284   1.357   4.314
58455W        W30869  29.615   9.191  11.090
58456W        W30870  43.884  11.717   4.126
58457W        W30871  19.602  19.553   3.742
58458W        W30872  27.126  19.264   1.824
58459W        W30873  43.470  22.601   0.797
58460W        W30874  21.649  43.777  11.459
58461W        W30875   6.184   5.829   0.441
58462W        W30876   4.772  41.489   1.366
58463W        W30877   9.221  44.364   4.227
58464W        W30878   7.689  13.305   5.082
58465W        W30879  29.475  25.656   1.409
58466W        W30880   2.233   9.844  12.861
58467W        W30881  13.332  31.452  14.833
58468W        W30882   4.294  14.616   1.450
58469W        W30883  32.618  34.987  10.006
58470W        W30884   0.258  32.520  10.517
58471W        W30885  33.496  20.164  13.548
58472W        W30886  16.215  25.650  11.554
58473W        W30887   5.243  30.109  14.484
58474W        W30888  10.225  25.527   0.836
58475W        W30889  13.134   3.378  13.326
58476W        W30890  43.298  10.692   1.214
58477W        W30891  22.686   0.314   2.876
58478W        W30892  21.679  26.198   1.292
58479W        W30893  42.466  10.664   0.858
58480W        W30894  36.508  43.798   1.344
58481W        W30895  25.583  10.840  12.372
58482W        W30896  42.461   5.309   3.781
58483W        W30897  39.059   8.399   0.918
58484W        W30898   1.975  42.821  14.835
58485W        W30899  26.048  16.625   1.913
58486W        W30900  11.270  35.503   2.828
58487W        W30901  24.531  25.208  11.062
58488W        W30902  39.939  19.750   2.400
58489W        W30903  37.942   9.317   1.781
58490W        W30904  37.429  27.138  12.908
58491W        W30905  35.920  20.579  14.339
58492W        W30906  10.351   3.364   4.767
58493W        W30907   3.732  24.999  12.007
58494W        W30908  24.103  20.263   4.616
58495W        W30909  15.658  10.155   2.764
58496W        W30910  25.062  21.214  11.502
58497W        W30911   3.223  18.578  13.958
58498W        W30912  16.583   4.862   1.738
58499W        W30913  20.218  22.146  12.349
58500W        W30914   5.332  13.704  12.834
58501W        W30915  34.478   4.350   0.728
58502W        W30916   0.490   6.764  11.060
58503W        W30917  14.123  42.482   0.874
58504W        W30918  40.352   0.979  12.378
58505W        W30919  39.368   5.832   2.799
58506W        W30920   3.216   5.693   3.756
58507W        W30921  25.701  42.878   1.300
58508W        W30922  38.941  18.650   1.238
58509W        W30923  40.454  16.782   1.696
58510W        W30924  28.648  28.475  12.512
58511W        W30925  34.611   9.862   1.717
58512W        W30926  16.772  15.292   1.707
58513W        W30927  35.864  15.667  13.826
58514W        W30928  41.040   9.754  11.409
58515W        W30929  10.710  14.596  10.957
58516W        W30930  34.519  34.025  13.892
58517W        W30931  10.342  22.721  13.857
58518W        W30932  18.075   5.721   3.350
58519W        W30933  35.098  29.610  12.070
58520W        W30934  16.666   7.209  11.447
58521W        W30935  31.992  35.875   4.262
58522W        W30936   3.441  19.096   2.265
58523W        W30937  44.484   7.340  13.958
58524W        W30938   8.242   6.305  12.382
58525W        W30939  40.995  41.947   1.378
58526W        W30940   6.388  28.547  12.438
58527W        W30941  10.180  39.926   0.272
58528W        W30942   1.874  30.456   2.290
58529W        W30943  44.984  31.057   4.834
58530W        W30944  19.246  30.164  13.965
58531W        W30945  31.998  37.487   3.647
58532W        W30946  41.368  34.078  11.025
58533W        W30947   5.903  41.318  12.440
58534W        W30948  12.832  41.346  13.406
58535W        W30949  17.144  40.922   4.169
58536W        W30950  36.372  35.091   4.790
58537W        W30951  38.928   2.314  11.896
58538W        W30952  24.501   1.338   9.957
58539W        W30953  39.328  19.663   3.257
58540W        W30954  11.645  34.443  11.902
58541W        W30955   1.371  34.578   3.760
58542W        W30956  14.811   9.295   1.280
58543W        W30957  20.043  15.755  10.099
58544W        W30958   3.422   2.282   0.937
58545W        W30959  13.143  43.352  11.051
58546W        W30960  22.693  31.568  11.523
58547W        W30961  44.351  11.213  12.073
58548W        W30962   0.829   7.179   5.241
58549W        W30963  37.407  28.572   2.819
58550W        W30964  30.042  14.252  11.015
58551W        W30965   4.774  40.047   4.305
58552W        W30966  36.097  25.704   3.178
58553W        W30967  19.045  33.420   0.472
58554W        W30968  39.355   0.807   2.824
58555W        W30969  12.709  12.355  11.106
58556W        W30970  17.774   2.471   2.902
58557W        W30971  43.868  32.497   2.673
58558W        W30972  13.339   1.264  14.030
58559W        W30973  15.294  30.583  14.947
58560W        W30974  34.064  40.043  12.889
58561W        W30975  33.949  39.362  13.061
58562W        W30976  14.737  34.583   1.265
58563W        W30977  17.139  41.790   4.209
58564W        W30978  21.712  29.041  10.914
58565W        W30979  42.790  22.578  13.934
58566W        W30980  32.524  35.011  13.818
58567W        W30981  35.907  21.628   2.240
58568W        W30982  37.841  13.347  12.883
58569W        W30983  23.174  32.012   1.890
58570W        W30984   7.742   1.277  10.507
58571W        W30985  41.320  37.040  11.109
58572W        W30986  25.495  41.339  14.290
58573W        W30987  39.041  19.123  14.014
58574W        W30988  10.308  20.244  11.105
58575W        W30989  30.505   3.228   1.441
58576W        W30990  40.043  26.082  13.544
58577W        W30991   5.425  37.470   3.249
58578W        W30992  40.486  23.005   2.817
58579W        W30993  14.794   6.216   1.821
58580W        W30994  21.739  36.433   1.712
58581W        W30995  44.499  27.516  10.524
58582W        W30996  40.418  37.982  14.489
58583W        W30997   3.901  11.805  14.433
58584W        W30998  39.398  14.229   4.696
58585W        W30999  42.372   2.382  11.989
58586W        W31000  44.808   4.391  14.011
58587W        W31001  22.999   9.849  11.977
58588W        W31002   8.767   2.738  13.429
58589W        W31003  33.074   2.318  11.910
58590W        W31004  38.482   3.283  10.607
58591W        W31005  43.820  31.088   1.878
58592W        W31006  21.695  22.631   2.220
58593W        W31007  41.820  28.623   1.383
58594W        W31008  43.394  18.151  12.059
58595W        W31009  18.612  22.515   1.420
58596W        W31010  41.890   7.367   0.926
58597W        W31011  12.326  42.872  14.845
58598W        W31012  41.862  23.006   1.444
58599W        W31013  31.041  22.563  14.856
58600W        W31014   4.732  13.258   3.743
58601W        W31015  22.066  12.759  13.437
58602W        W31016  15.206  33.044   0.798
58603W        W31017  11.358  23.077  13.860
58604W        W31018  37.417   6.316  11.963
58605W        W31019  21.142  30.546  14.921
58606W        W31020  15.637   3.787  13.483
58607W        W31021  23.545   0.896  12.087
58608W        W31022   3.407  41.428  14.403
58609W        W31023  16.249  36.570  14.461
58610W        W31024  26.126  28.004  12.068
58611W        W31025  32.599  36.477   2.398
58612W        W31026  25.514   2.857   2.385
58613W        W31027  27.059   3.358   4.600
58614W        W31028   8.203  43.953  11.376
58615W        W31029  23.111   5.199  11.870
58616W        W31030  35.898  18.726   3.216
58617W        W31031  36.448  22.682   2.243
58618W        W31032  37.083  33.447   5.175
58619W        W31033  17.584  30.093   0.352
58620W        W31034  37.971  33.516  12.977
58621W        W31035  33.615   1.347  13.876
58622W        W31036  27.065  20.274  13.487
58623W        W31037   9.755  18.676   2.672
58624W        W31038  43.950  18.252   1.287
58625W        W31039   3.921  31.929  13.846
58626W        W31040   2.464   2.850  11.503
58627W        W31041  28.943  34.054  11.003
58628W        W31042  28.142   6.912   0.262
58629W        W31043   4.900  33.565   1.368
58630W        W31044   4.283   5.281   4.618
58631W        W31045   2.291  32.106   2.357
58632W        W31046   4.705  21.521   0.343
58633W        W31047   4.317   7.764   4.616
58634W        W31048  41.817  11.859   2.361
58635W        W31049   0.745   6.676  10.629
58636W        W31050  16.805   6.837   0.866
58637W        W31051  40.399  40.810  11.885
58638W        W31052   0.355  25.035  12.381
58639W        W31053  24.680  31.973  13.423
58640W        W31054   7.885  33.963   0.262
58641W        W31055  13.622  35.099  14.337
58642W        W31056  41.014  31.518  11.406
58643W        W31057  23.099  20.762   3.810
58644W        W31058  25.546  39.547   4.125
58645W        W31059  37.355   4.355  11.894
58646W        W31060  28.966  17.770   4.289
58647W        W31061   6.889   8.347   2.740
58648W        W31062  41.353  14.748  14.816
58649W        W31063  31.957   0.486  13.794
58650W        W31064  14.595  42.976  11.067
58651W        W31065  23.584  34.078   4.284
58652W        W31066  36.072  13.710   1.395
58653W        W31067   9.756  29.578   4.221
58654W        W31068  12.225   8.345   1.210
58655W        W31069   4.825  12.318  10.104
58656W        W31070  19.601  11.203  13.850
58657W        W31071  27.091   3.231   0.827
58658W        W31072  43.284  21.026   4.304
58659W        W31073  40.467  24.644   1.932
58660W        W31074  17.631   9.240   0.784
58661W        W31075   1.768  17.104  11.884
58662W        W31076  43.464  28.553   3.869
58663W        W31077  42.466  19.220   4.653
58664W        W31078  16.168  22.120  12.382
58665W        W31079  29.155  25.113  13.807
58666W        W31080  26.962  10.794   0.806
58667W        W31081  15.253  34.519  11.389
58668W        W31082  18.555  37.848   4.755
58669W        W31083  38.835   9.805  10.434
58670W        W31084   5.313  22.685  10.947
58671W        W31085  37.509  18.651   4.265
58672W        W31086  38.442   7.294  11.037
58673W        W31087   2.456   7.668   0.406
58674W        W31088   5.797  25.558   3.271
58675W        W31089  25.175  20.258   4.299
58676W        W31090  14.126  17.177  10.643
58677W        W31091  32.513  29.520  13.824
58678W        W31092   4.283  41.788   5.179
58679W        W31093  26.470   4.834   1.880
58680W        W31094  27.471  36.930   4.769
58681W        W31095  32.536  38.956  10.149
58682W        W31096  26.056  28.998   1.255
58683W        W31097   8.692  19.187   3.168
58684W        W31098  24.558  35.935  10.543
58685W        W31099  21.173  14.259  12.075
58686W        W31100  14.678  29.175   4.146
58687W        W31101  26.642  33.103   4.616
58688W        W31102  14.828  18.774  12.828
58689W        W31103  19.753  15.743   3.718
58690W        W31104  36.361  34.079  10.570
58691W        W31105  43.322  14.220   5.246
58692W        W31106  27.165  14.207   5.283
58693W        W31107  26.668  34.422  13.860
58694W        W31108   3.288   7.272  10.949
58695W        W31109  31.095  29.057  12.000
58696W        W31110  32.577   8.715  13.995
58697W        W31111  27.145  29.625  12.391
58698W        W31112  44.367  34.009   4.273
58699W        W31113  14.232   9.861  13.800
58700W        W31114  16.641  42.426   4.347
58701W        W31115  14.134   6.736   9.925
58702W        W31116  24.603   9.702   0.295
58703W        W31117  17.753  25.698  14.392
58704W        W31118  21.732  42.026   1.758
58705W        W31119  21.078   0.264  11.926
58706W        W31120  16.619  44.460   1.288
58707W        W31121  36.562  41.945  13.367
58708W        W31122   1.366  43.866   4.823
58709W        W31123   6.245  37.859  11.436
58710W        W31124  37.870  36.911  10.971
58711W        W31125  38.898  39.011   2.851
58712W        W31126  11.749   5.848   4.309
58713W        W31127  17.609   8.308  14.486
58714W        W31128  40.389  26.960  13.043
58715W        W31129  36.415  25.494  10.627
58716W        W31130  43.804  10.714   2.888
58717W        W31131  12.672  18.286  14.944
58718W        W31132  34.946  37.481  13.810
58719W        W31133  38.896  28.596   0.744
58720W        W31134  33.920   6.812   4.165
58721W        W31135  15.743  26.045  12.541
58722W        W31136   5.358  34.468  14.010
58723W        W31137  20.718   3.912  12.863
58724W        W31138   7.682  20.131  14.962
58725W        W31139  12.726   7.819   1.789
58726W        W31140  30.619  11.731  13.334
58727W        W31141  18.748  18.719  12.949
58728W        W31142  17.227  21.653  13.365
58729W        W31143  10.808  44.967  14.889
58730W        W31144  24.541  43.324   9.924
58731W        W31145   2.265   1.805   0.854
58732W        W31146  39.939  24.073  12.941
58733W        W31147  20.228  28.985   4.795
58734W        W31148  13.661  41.017  13.852
58735W        W31149  22.045   1.449   4.163
58736W        W31150  31.546  14.719  10.616
58737W        W31151  44.331   7.323   3.724
58738W        W31152  23.694  39.407  14.452
58739W        W31153  28.050   7.339  12.388
58740W        W31154  39.867  31.995  11.524
58741W        W31155  30.973   7.189   3.184
58742W        W31156  31.597  12.726   0.299
58743W        W31157  42.333   8.795   0.438
58744W        W31158  24.008  10.854  12.027
58745W        W31159  38.879  14.113   1.737
58746W        W31160  37.543  15.820   2.815
58747W        W31161  26.972  24.700  11.548
58748W        W31162  18.240  37.042   3.677
58749W        W31163  39.514  33.048  12.924
58750W        W31164  12.202  32.937   2.380
58751W        W31165  36.498   7.294   4.704
58752W        W31166   6.422  15.615  14.346
58753W        W31167   5.241   9.228   0.245
58754W        W31168  25.081  22.638  14.455
58755W        W31169  33.939  24.082   9.926
58756W        W31170  23.169  32.536  12.029
58757W        W31171  30.634  27.966  12.867
58758W        W31172   3.816  15.674   3.247
58759W        W31173  24.033  17.796   4.163
58760W        W31174   4.847  20.632  13.405
58761W        W31175   3.279  11.716  14.441
58762W        W31176   9.185  39.831   4.762
58763W        W31177  44.008   7.347  11.418
58764W        W31178  43.970   9.862  14.029
58765W        W31179   8.735  40.463  11.479
58766W        W31180   5.924  36.391  14.791
58767W        W31181  33.052  32.539  11.551
58768W        W31182  43.461  10.816   3.145
58769W        W31183  18.214   9.256   4.288
58770W        W31184   4.209  11.367   3.241
58771W        W31185  13.680  27.056   3.303
58772W        W31186   6.286  37.420  11.372
58773W        W31187   7.803   2.897  11.085
58774W        W31188  40.854  27.541   0.916
58775W        W31189  40.830   5.889  14.900
58776W        W31190  27.986  16.276  14.338
58777W        W31191  16.662  32.097  14.788
58778W        W31192  12.693   3.712  14.472
58779W        W31193  31.116  23.190  13.976
58780W        W31194  32.942  29.021   3.808
58781W        W31195  35.428  29.473  13.061
58782W        W31196  38.963  32.971   1.712
58783W        W31197  44.316  22.626   2.896
58784W        W31198   6.343  44.761   1.222
58785W        W31199  31.427  12.216  14.335
58786W        W31200  35.369  21.134   3.867
58787W        W31201   7.398  37.472   0.888
58788W        W31202  25.532  18.571   1.407
58789W        W31203  25.696   5.732   4.305
58790W        W31204  15.245   8.828   3.680
58791W        W31205   1.743  12.644   2.303
58792W        W31206   7.406  25.096  14.949
58793W        W31207  11.274   4.323  11.027
58794W        W31208   1.918  36.938   4.133
58795W        W31209  32.930  23.670   2.748
58796W        W31210  11.846  24.169   3.181
58797W        W31211   3.440  32.900   0.743
58798W        W31212  43.781  27.655   1.724
58799W        W31213   0.818   3.351  13.531
58800W        W31214  36.917  33.569   2.760
58801W        W31215  36.849  20.254  12.529
58802W        W31216  12.266  20.640   2.861
58803W        W31217  20.743  21.622   1.410
58804W        W31218  18.674   0.980   2.901
58805W        W31219  37.853  28.659  13.982
58806W        W31220   2.455  26.053  10.152
58807W        W31221   6.407  42.434  14.846
58808W        W31222  35.890   2.253   3.784
58809W        W31223  17.618  10.702  12.552
58810W        W31224  14.600  28.058   9.962
58811W        W31225  19.250   6.283  13.439
58812W        W31226  14.644   4.371   4.818
58813W        W31227   4.882   9.645   4.701
58814W        W31228   2.422  29.164   0.844
58815W        W31229  39.367  36.404   4.597
58816W        W31230   7.292  32.426   3.298
58817W        W31231  34.517  18.628   1.432
58818W        W31232  41.843  30.430  13.990
58819W        W31233  30.511  29.664   0.431
58820W        W31234  14.716  14.688   0.897
58821W        W31235  11.354  33.398   3.382
58822W        W31236   1.826   6.316  10.909
58823W        W31237   4.315  15.716   5.648
58824W        W31238   5.926  25.593  13.980
58825W        W31239  28.140  30.924  13.325
58826W        W31240  20.193  29.492   0.878
58827W        W31241  17.728  22.051  13.499
58828W        W31242   8.290  31.411  11.925
58829W        W31243  40.512  20.139   1.353
58830W        W31244  38.447  25.468  11.982
58831W        W31245  15.661  12.845  11.858
58832W        W31246   8.720  42.415  14.309
58833W        W31247  30.974  21.554   3.331
58834W        W31248   4.887   1.874  12.032
58835W        W31249  31.990  27.115  13.403
58836W        W31250  33.101  36.539  14.773
58837W        W31251  41.029  35.466   4.125
58838W        W31252  18.075  27.498  10.417
58839W        W31253  32.623  43.846   2.705
58840W        W31254  39.934  39.371   2.679
58841W        W31255  21.129  36.513   1.724
58842W        W31256  31.110  16.200  10.517
58843W        W31257  11.158  29.023  11.052
58844W        W31258  29.923   9.875  11.971
58845W        W31259  13.690  27.072  12.889
58846W        W31260  43.270  24.123  14.445
58847W        W31261  12.841  20.164   3.722
58848W        W31262  11.170  19.743  13.356
58849W        W31263  41.381  29.586  12.362
58850W        W31264  37.416  15.234  12.508
58851W        W31265  30.151  21.164  10.995
58852W        W31266   9.297  39.839  13.833
58853W        W31267   3.748  39.832   2.339
58854W        W31268   2.728  43.767  10.421
58855W        W31269  17.288   5.319  13.960
58856W        W31270  13.728  36.042   0.728
58857W        W31271   2.931  12.632  12.524
58858W        W31272  14.689  35.007  12.423
58859W        W31273   4.449  31.945  13.023
58860W        W31274  35.515  30.654   2.858
58861W        W31275  13.844  37.957  12.519
58862W        W31276  14.314  16.630  10.086
58863W        W31277  43.769  21.108  12.430
58864W        W31278   4.227  19.731   3.295
58865W        W31279   1.916  30.013   1.416
58866W        W31280  38.485  15.258   3.171
58867W        W31281   5.370  33.922  14.948
58868W        W31282  21.216  35.443   4.717
58869W        W31283   3.268  37.866   3.232
58870W        W31284  36.863  12.799  13.548
58871W        W31285  31.897  35.590   3.746
58872W        W31286  37.336  42.396  14.941
58873W        W31287   4.310   5.771  13.027
58874W        W31288  15.646   7.212  10.085
58875W        W31289  11.855  29.589   0.276
58876W        W31290  44.793  22.121  10.553
58877W        W31291  44.326  13.844  11.395
58878W        W31292  29.540  39.992  13.952
58879W        W31293  28.950  25.702  11.596
58880W        W31294  19.664   0.462   3.224
58881W        W31295  15.681  43.433   1.440
58882W        W31296   2.913  42.450   9.577
58883W        W31297  24.487  21.164  10.929
58884W        W31298  18.575  13.339   4.787
58885W        W31299  38.074  41.390   3.791
58886W        W31300  12.826  27.007  12.927
58887W        W31301   4.701  18.125  13.427
58888W        W31302   7.688  21.727   3.322
58889W        W31303  18.596  24.649   0.932
58890W        W31304   4.302  42.870   1.354
58891W        W31305  34.106  37.910   2.369
58892W        W31306  27.692  16.203  12.378
58893W        W31307  10.273  37.541   3.762
58894W        W31308  13.276  42.342   2.393
58895W        W31309  41.020  34.936   0.837
58896W        W31310  36.509  36.868  10.507
58897W        W31311  12.757  34.468   1.837
58898W        W31312  42.783  38.502   3.643
58899W        W31313   0.889  10.361   0.458
58900W        W31314  33.421  13.646  13.402
58901W        W31315  34.371  34.975   3.194
58902W        W31316  36.974  38.468  14.901
58903W        W31317  35.885  37.405   4.307
58904W        W31318  42.915  17.595  11.948
58905W        W31319  28.055   7.207   9.975
58906W        W31320  23.507  10.764   2.804
58907W        W31321   6.342  23.240  13.800
58908W        W31322   1.858  19.771  10.506
58909W        W31323  19.673  36.361  12.934
58910W        W31324  27.688  11.701  14.981
58911W        W31325  42.478   1.853  14.029
58912W        W31326  12.353  41.294  13.816
58913W        W31327   0.343  22.613   0.866
58914W        W31328  16.208  39.457  13.833
58915W        W31329  32.616   4.392  11.474
58916W        W31330  10.352  25.592   0.339
58917W        W31331  22.743  43.810   1.732
58918W        W31332  40.939  35.967   1.815
58919W        W31333  28.088  10.340   1.822
58920W        W31334  16.185  14.096  10.970
58921W        W31335  30.602  36.086   3.313
58922W        W31336  36.356  15.761  13.900
58923W        W31337  31.923  22.136  13.525
58924W        W31338  35.962  41.968   3.148
58925W        W31339  14.662  22.062   3.864
58926W        W31340  35.504  21.528  10.570
58927W        W31341   9.747  17.236   4.601
58928W        W31342  36.988  22.732   1.899
58929W        W31343  28.035   1.451  14.337
58930W        W31344  41.875  18.656   0.280
58931W        W31345   6.718   3.846  11.998
58932W        W31346  18.713  10.372   1.449
58933W        W31347  15.276  39.506  12.011
58934W        W31348  38.460  15.704  12.983
58935W        W31349   9.679   3.425   0.793
58936W        W31350  27.467  27.487  13.895
58937W        W31351  29.563   3.840   2.241
58938W        W31352  30.027  28.167  14.788
58939W        W31353  40.477   9.853   0.451
58940W        W31354  25.036  38.034  12.506
58941W        W31355  13.251  38.021   4.635
58942W        W31356   3.367  33.584   2.216
58943W        W31357  23.736   3.733  14.810
58944W        W31358  17.286   5.829   3.659
58945W        W31359  29.140  21.668  11.855
58946W        W31360  39.045  13.715  13.436
58947W        W31361  26.151  40.319   1.781
58948W        W31362  25.216  17.715  14.914
58949W        W31363   9.316   6.907   3.773
58950W        W31364  24.111  17.788   0.283
58951W        W31365  12.616  42.910  11.100
58952W        W31366  25.560  37.074   3.271
58953W        W31367  29.642  35.060  10.899
58954W        W31368   5.931  13.148   9.651
58955W        W31369   2.322   8.869  14.465
58956W        W31370  29.938  25.491  14.839
58957W        W31371  24.554   7.724  13.453
58958W        W31372  11.229   3.319  11.992
58959W        W31373  14.704   2.292   1.289
58960W        W31374  20.250   8.243  11.010
58961W        W31375  32.486  26.161   4.231
58962W        W31376  29.073  31.050  12.030
58963W        W31377  43.790  39.430   1.723
58964W        W31378  24.038  29.515   0.834
58965W        W31379  32.982   2.726  14.007
58966W        W31380  41.845  26.677   1.428
58967W        W31381   2.762   9.863  12.455
58968W        W31382  32.575  35.578   2.304
58969W        W31383  44.964  17.066   2.725
58970W        W31384   2.466  19.778   3.197
58971W        W31385   6.702  35.876  13.320
58972W        W31386  18.618  26.499   4.156
58973W        W31387  42.519  26.622  13.951
58974W        W31388  37.424  10.746  11.513
58975W        W31389  30.542  27.947   4.779
58976W        W31390  18.761  31.013   4.307
58977W        W31391  14.302  29.650   0.369
58978W        W31392  39.444   2.962  10.536
58979W        W31393   3.325  23.663   2.267
58980W        W31394  31.050  43.906   2.206
58981W        W31395  37.575  14.103  14.767
58982W        W31396  29.086  27.629  13.998
58983W        W31397  33.085  16.746  13.435
58984W        W31398  34.541  39.851   1.299
58985W        W31399  43.292  26.682   1.874
58986W        W31400   9.315  29.631   0.953
58987W        W31401  11.188  26.496   2.288
58988W        W31402  29.461  19.756   0.329
58989W        W31403   4.411  17.638  14.434
58990W        W31404   5.724   2.829   3.385
58991W        W31405   1.482   4.699   0.480
58992W        W31406  42.827  28.544   0.381
58993W        W31407   5.775   8.726  13.507
58994W        W31408  34.877   7.309  12.554
58995W        W31409  37.477  38.395   4.273
58996W        W31410  33.919   9.658  12.434
58997W        W31411  38.354  29.434   4.677
58998W        W31412  14.683  12.675  13.853
58999W        W31413   6.396   8.755  12.081
59000W        W31414  26.951  19.137  13.834
59001W        W31415   7.313  44.870   3.308
59002W        W31416  31.436  26.085  11.046
59003W        W31417  29.108  17.205   4.183
59004W        W31418   8.848  44.466  14.939
59005W        W31419  19.741  29.119  12.537
59006W        W31420  26.466   3.937   3.239
59007W        W31421  37.531  19.185   0.365
59008W        W31422  42.468   1.453  10.969
59009W        W31423  23.124  10.756  11.551
59010W        W31424  36.004  29.957   0.253
59011W        W31425  32.629   9.190  12.389
59012W        W31426  22.020  43.970   3.183
59013W        W31427   3.386  11.327   3.741
59014W        W31428  36.868   4.752  13.995
59015W        W31429  37.341  43.431   2.218
59016W        W31430  23.686  26.632  11.057
59017W        W31431   1.821  13.295   3.228
59018W        W31432  11.768  19.758   3.636
59019W        W31433  12.751  21.143  14.510
59020W        W31434  10.794  16.176  11.056
59021W        W31435  10.781  40.531  14.416
59022W        W31436  32.549  22.706  13.510
59023W        W31437  41.532  26.183   3.811
59024W        W31438  29.542   2.413  10.896
59025W        W31439   2.259  31.435   2.229
59026W        W31440  26.556  30.000  14.347
59027W        W31441  10.184  14.283  14.020
59028W        W31442  42.388  38.969   4.798
59029W        W31443  20.588  39.867   1.339
59030W        W31444   5.393  20.682   3.644
59031W        W31445  36.879   7.869  14.986
59032W        W31446  26.021  14.312  14.482
59033W        W31447  16.779  30.531   0.275
59034W        W31448  19.250   7.296  12.340
59035W        W31449  20.640   9.725  13.931
59036W        W31450  16.087  29.921   1.291
59037W        W31451  33.896  37.469  14.493
59038W        W31452  18.787  11.287   4.332
59039W        W31453  15.719  35.449   0.802
59040W        W31454  39.379  14.296   3.754
59041W        W31455  44.886   9.861   4.159
59042W        W31456   0.756  41.811   4.189
59043W        W31457   5.868   3.302   5.245
59044W        W31458   1.238  16.793  14.891
59045W        W31459  40.798  25.660   0.314
59046W        W31460  29.073  15.652  14.414
59047W        W31461  43.457  37.852   4.123
59048W        W31462  13.327  44.825  14.028
59049W        W31463   5.346  36.994   2.285
59050W        W31464  35.482  29.491  14.792
59051W        W31465  12.798   0.399  14.023
59052W        W31466  44.986   3.768  13.383
59053W        W31467   8.256  18.243  11.452
59054W        W31468  43.813  20.105   2.389
59055W        W31469   1.433  40.512   1.777
59056W        W31470  38.528  29.514   2.702
59057W        W31471  44.915   4.863  11.501
59058W        W31472   0.385  37.045  11.105
59059W        W31473  22.072  18.643   1.319
59060W        W31474  40.814  31.085   2.681
59061W        W31475  22.575  15.155   1.235
59062W        W31476  30.428  40.873   1.358
59063W        W31477  42.797   1.329  12.034
59064W        W31478  20.760  36.452   4.314
59065W        W31479  25.543  43.481  10.003
59066W        W31480   5.834  11.855   0.268
59067W        W31481  11.666  36.372  13.891
59068W        W31482  33.923  29.561  13.814
59069W        W31483  40.492  43.463   2.330
59070W        W31484   5.209  32.398  14.319
59071W        W31485   0.860  44.857   0.731
59072W        W31486   5.377  12.156  10.971
59073W        W31487  37.981   8.829  12.083
59074W        W31488  28.456  44.363   3.840
59075W        W31489  36.929  13.324  14.480
59076W        W31490   4.772   9.344   1.889
59077W        W31491   4.303  38.001   0.903
59078W        W31492  30.141  40.317  14.806
59079W        W31493  44.826  37.955  11.119
59080W        W31494   1.779  29.542   2.709
59081W        W31495   8.871   7.185  14.424
59082W        W31496  30.095  17.226   4.238
59083W        W31497  34.875  10.244   0.433
59084W        W31498  35.568   2.965  14.826
59085W        W31499   9.857  20.083  13.822
59086W        W31500  17.253  29.482  13.535
59087W        W31501  31.127  16.590   4.194
59088W        W31502   6.889  34.527   3.701
59089W        W31503  22.663  21.117   3.187
59090W        W31504  32.552   2.230  13.929
59091W        W31505  40.411  32.885   1.927
59092W        W31506  37.533  40.888  14.288
59093W        W31507  17.634  12.151   1.704
59094W        W31508  41.344  32.894   3.348
59095W        W31509  19.253  41.309  12.900
59096W        W31510  17.202  43.422  14.854
59097W        W31511  43.504  35.479  11.887
59098W        W31512  30.910  11.864  14.764
59099W        W31513   4.254  32.081  14.987
59100W        W31514   6.835  31.909  14.870
59101W        W31515  12.186  17.650  13.851
59102W        W31516  26.999  18.588  13.057
59103W        W31517   1.397  15.219  14.365
59104W        W31518   0.885  37.986   3.813
59105W        W31519   2.792  17.090   4.140
59106W        W31520  33.623  23.073  10.931
59107W        W31521  15.788  20.037  13.508
59108W        W31522  40.314  17.186   1.411
59109W        W31523  17.614  36.407   3.720
59110W        W31524  23.496   4.206   2.249
59111W        W31525  12.320  37.069  14.416
59112W        W31526  43.797  10.313   1.701
59113W        W31527  23.119   3.815  12.011
59114W        W31528   9.311  15.617  13.011
59115W        W31529  32.108  32.990  13.881
59116W        W31530  32.964  25.632   4.210
59117W        W31531  14.683  12.240  14.774
59118W        W31532  24.194  40.334  14.447
59119W        W31533  44.802   4.732  13.340
59120W        W31534   9.798  35.992  10.928
59121W        W31535  22.622  20.048   3.812
59122W        W31536   7.762  10.216   3.218
59123W        W31537  42.409  26.607   2.807
59124W        W31538  23.584  29.096  14.379
59125W        W31539  26.158  33.043   2.710
59126W        W31540  14.617  29.488   3.865
59127W        W31541  39.008  38.494   1.236
59128W        W31542   2.402  38.366  14.796
59129W        W31543   2.815   2.881  12.394
59130W        W31544  32.000  42.434  14.797
59131W        W31545  18.280  43.498   0.820
59132W        W31546  38.873  36.524   1.755
59133W        W31547  30.021  11.214   4.619
59134W        W31548  10.207  29.026   1.723
59135W        W31549  37.362  44.991   3.813
59136W        W31550  15.719  43.864   3.855
59137W        W31551   1.411  18.236  13.417
59138W        W31552  41.385  19.071   0.805
59139W        W31553   0.885  26.109  10.542
59140W        W31554  29.110  44.383   1.848
59141W        W31555  29.107  44.342   0.374
59142W        W31556  42.935  41.369   3.637
59143W        W31557  17.153  23.155  11.995
59144W        W31558  34.024  33.050  12.550
59145W        W31559  12.755  33.553  11.612
59146W        W31560  41.370   9.212   0.851
59147W        W31561  28.532   2.420   0.873
59148W        W31562  34.490  32.463   1.797
59149W        W31563  25.613  44.484   0.428
59150W        W31564  36.432  38.915   1.323
59151W        W31565  20.650  40.848  12.453
59152W        W31566   8.745  13.107  11.492
59153W        W31567   5.763  34.934   3.251
59154W        W31568  44.483  28.137   5.093
59155W        W31569  11.669  27.528   4.789
59156W        W31570  42.775  12.644   1.391
59157W        W31571  29.079  13.299   3.376
59158W        W31572   0.962  19.039   3.340
59159W        W31573  43.422  12.331  11.091
59160W        W31574  32.885  15.721  11.485
59161W        W31575   1.340  26.076   4.326
59162W        W31576   5.874   7.807   1.338
59163W        W31577  10.688  22.088   4.715
59164W        W31578  44.335  39.035   4.254
59165W        W31579  30.997  33.016   1.278
59166W        W31580  34.385  23.147   2.734
59167W        W31581  11.257  29.623   1.330
59168W        W31582  23.493   9.746  14.955
59169W        W31583  28.126  25.174  12.535
59170W        W31584  35.418  43.489  11.859
59171W        W31585  32.519  23.236  13.401
59172W        W31586   1.467  13.315   0.939
59173W        W31587  44.824  32.438  10.587
59174W        W31588  36.460  42.470  11.973
59175W        W31589  39.518  38.923   0.777
59176W        W31590  23.725  17.171  13.390
59177W        W31591  17.177  16.236   3.803
59178W        W31592  37.844   7.739  11.043
59179W        W31593  25.186  21.137   3.330
59180W        W31594  25.987  23.564   2.870
59181W        W31595  27.473  30.156   2.692
59182W        W31596  16.131  32.932  13.852
59183W        W31597  17.797   0.915   1.771
59184W        W31598  18.595  44.318  11.128
59185W        W31599  19.242   0.861  14.885
59186W        W31600  44.883  10.233   3.189
59187W        W31601  35.593  35.580  10.929
59188W        W31602  27.077   1.358   2.309
59189W        W31603  24.578   4.290   0.741
59190W        W31604   4.718  44.422  14.940
59191W        W31605  25.616  43.808  12.969
59192W        W31606  19.131  37.497   0.399
59193W        W31607   0.403  22.047  13.888
59194W        W31608  41.797  10.286  12.411
59195W        W31609   6.705  34.886  10.494
59196W        W31610  19.605  22.057   0.755
59197W        W31611   7.752  16.098  11.966
59198W        W31612   5.398   0.492   0.448
59199W        W31613  44.894  13.652  12.941
59200W        W31614  15.631  19.108   4.138
59201W        W31615  15.792  14.204  14.352
59202W        W31616  33.592  42.026   0.455
59203W        W31617  33.116  33.934  13.928
59204W        W31618  18.054  33.101  13.999
59205W        W31619  13.712  36.863  13.418
59206W        W31620   0.764  30.471   5.209
59207W        W31621  30.513  37.002  10.413
59208W        W31622  14.809  15.647   3.691
59209W        W31623   0.860   3.908   4.256
59210W        W31624   4.804  10.853   0.478
59211W        W31625  24.661  11.217  14.006
59212W        W31626  41.371  21.585   0.957
59213W        W31627  18.176   1.474  12.838
59214W        W31628  15.173   8.295  13.913
59215W        W31629  40.332  28.595  14.785
59216W        W31630  43.914  36.051   3.784
59217W        W31631  43.983  35.887  14.913
59218W        W31632  40.312  21.137  14.359
59219W        W31633  23.716  13.810   1.813
59220W        W31634  13.311   4.342  10.404
59221W        W31635  27.503  22.732  11.114
59222W        W31636   8.278  26.674  11.065
59223W        W31637   1.317  23.023   3.264
59224W        W31638  16.100   7.415  14.336
59225W        W31639  10.643  42.878  11.962
59226W        W31640   3.821  34.117  11.460
59227W        W31641   4.444   7.760  12.846
59228W        W31642  21.050  39.030   0.256
59229W        W31643  17.750  15.815  14.987
59230W        W31644  17.180  36.527  10.903
59231W        W31645   6.695  36.920   4.754
59232W        W31646  27.508  11.692   2.404
59233W        W31647  25.041  43.281   0.402
59234W        W31648  22.156  18.562  13.408
59235W        W31649  19.088   3.330  11.077
59236W        W31650  13.784  40.438   0.821
59237W        W31651   7.837   1.885   0.390
59238W        W31652  25.071  15.732   4.747
59239W        W31653  17.637  18.078   0.388
59240W        W31654  40.845  40.475  10.535
59241W        W31655  39.982  22.600   2.668
59242W        W31656  30.148  31.558  14.815
59243W        W31657  18.115   8.175  12.084
59244W        W31658  30.998  23.116  12.361
59245W        W31659  34.466  31.438  10.472
59246W        W31660  21.551   5.694   0.729
59247W        W31661  20.080  18.108   1.700
59248W        W31662  18.090   5.698   3.746
59249W        W31663  19.668   9.341   1.728
59250W        W31664  23.072  14.602   0.816
59251W        W31665  31.013  42.862  14.338
59252W        W31666  34.999  30.594  10.447
59253W        W31667  14.253  37.022   4.805
59254W        W31668  20.114  34.974   0.737
59255W        W31669  28.092  39.327   1.313
59256W        W31670  19.645  18.207  13.489
59257W        W31671  44.278  18.210  13.894
59258W        W31672   6.347  17.102   3.748
59259W        W31673  31.620  17.077   4.697
59260W        W31674  31.054   3.829  11.945
59261W        W31675   3.346  39.547  13.476
59262W        W31676  18.790  28.064  10.508
59263W        W31677   9.670  29.170   0.818
59264W        W31678  11.246  19.110  12.447
59265W        W31679   0.395   2.424   3.712
59266W        W31680  41.798  44.425  11.511
59267W        W31681  13.772  18.689   0.319
59268W        W31682  17.167  39.490  14.305
59269W        W31683  12.624  30.097  12.504
59270W        W31684  14.770  27.057   4.124
59271W        W31685  13.203   8.397   9.501
59272W        W31686  37.351  44.307   2.402
59273W        W31687  34.038  17.185   2.251
59274W        W31688   8.203   2.779   2.884
59275W        W31689   7.188  12.191   1.836
59276W        W31690  32.401   4.703   0.265
59277W        W31691  43.316  19.138  14.946
59278W        W31692  34.116  22.635  11.018
59279W        W31693  34.084   7.723   4.146
59280W        W31694  19.269   6.893  13.341
59281W        W31695   0.789  10.291  11.589
59282W        W31696  43.283  19.706   4.632
59283W        W31697  23.178  39.406   0.896
59284W        W31698  44.405   1.850   2.269
59285W        W31699  36.370  33.924  12.428
59286W        W31700  43.308  35.380   2.695
59287W        W31701  40.544  31.638   2.721
59288W        W31702  23.166  11.808  14.414
59289W        W31703   5.387  40.511   2.748
59290W        W31704  24.015   4.750  10.038
59291W        W31705  28.123   3.889  14.029
59292W        W31706  14.704  26.084   4.302
59293W        W31707  20.671  35.927  14.862
59294W        W31708  30.150   5.329   3.228
59295W        W31709   9.888  10.204  12.854
59296W        W31710  18.774  33.383   0.746
59297W        W31711  34.521  16.140   0.866
59298W        W31712  17.221  39.384  10.093
59299W        W31713  39.835  31.122  14.311
59300W        W31714  14.742  26.614   2.900
59301W        W31715  36.545  34.096  11.413
59302W        W31716  14.330  14.816  12.390
59303W        W31717   4.364  20.568   3.659
59304W        W31718  19.085  29.564  11.405
59305W        W31719   4.300  21.729   0.727
59306W        W31720  28.597   8.226   2.669
59307W        W31721  10.863  40.968  13.839
59308W        W31722   2.259  32.027   3.175
59309W        W31723  41.345  30.527   3.717
59310W        W31724  34.905  20.233  11.068
59311W        W31725  29.547  35.069   1.858
59312W        W31726  42.368   0.987   2.710
59313W        W31727   7.767  34.491  12.374
59314W        W31728  12.659  44.288  13.461
59315W        W31729  16.679  24.582  14.297
59316W        W31730  10.794   9.764   2.710
59317W        W31731  30.628  19.121  13.851
59318W        W31732  25.217   0.402  10.629
59319W        W31733  12.675   5.871   5.315
59320W        W31734  13.144  25.614  13.025
59321W        W31735  31.951  15.640  14.877
59322W        W31736  28.177  31.452  10.997
59323W        W31737  15.240   2.754   3.256
59324W        W31738  41.404  44.422   0.966
59325W        W31739  33.540  33.879  11.127
59326W        W31740   2.306   6.730  13.041
59327W        W31741  34.449   1.473   3.835
59328W        W31742  29.979  33.126  11.922
59329W        W31743  35.975  24.541  11.545
59330W        W31744   7.351  16.127   3.307
59331W        W31745  24.568  22.626  14.463
59332W        W31746  21.725   4.319  12.576
59333W        W31747   7.784  31.485  10.935
59334W        W31748  29.984   6.810   3.732
59335W        W31749  22.147  34.938   1.304
59336W        W31750  36.023  43.478   0.914
59337W        W31751   9.689  30.931   2.245
59338W        W31752  43.798  23.601  11.940
59339W        W31753  27.524   2.776  12.393
59340W        W31754  10.240  23.723  13.507
59341W        W31755  21.684  14.744   2.388
59342W        W31756  15.217  37.504   5.301
59343W        W31757   2.452   1.755  14.349
59344W        W31758  32.029  39.519  13.413
59345W        W31759  27.948   1.835   4.285
59346W        W31760  42.341  30.014  13.904
59347W        W31761  14.110   4.243   2.783
59348W        W31762  24.070   2.805  14.951
59349W        W31763   9.297  36.975  14.377
59350W        W31764  38.356  13.796   4.655
59351W        W31765   2.746  23.509  11.911
59352W        W31766  10.354   0.263   2.728
59353W        W31767   1.963  11.757   3.863
59354W        W31768  31.976  23.006   0.902
59355W        W31769  12.651  17.628   1.703
59356W        W31770  42.832  16.137  10.994
59357W        W31771  19.215  19.664   1.347
59358W        W31772  33.472  38.074  10.622
59359W        W31773   7.364  23.699   2.219
59360W        W31774  13.657  41.993   3.211
59361W        W31775  40.519   8.865  12.937
59362W        W31776   3.748   4.759  13.935
59363W        W31777  28.520  20.723  11.961
59364W        W31778  11.778  13.336  12.039
59365W        W31779  10.741  32.444  14.787
59366W        W31780   8.254  36.487   1.827
59367W        W31781   0.260  16.277   2.301
59368W        W31782  28.978  40.537  12.542
59369W        W31783  24.070  25.495   1.271
59370W        W31784  11.363  34.076  13.447
59371W        W31785  30.653  39.983  12.880
59372W        W31786  38.045  27.156  12.866
59373W        W31787  11.865  25.188  12.448
59374W        W31788  24.491   2.356   2.250
59375W        W31789  21.026  21.230  11.962
59376W        W31790  34.070   2.315  13.352
59377W        W31791  18.152   1.330  13.323
59378W        W31792  24.718  32.394  13.019
59379W        W31793  31.496  35.477   0.869
59380W        W31794   3.406  22.538  14.915
59381W        W31795  15.310  29.122  10.940
59382W        W31796  25.693  39.039  11.454
59383W        W31797   3.304  32.002   2.728
59384W        W31798  17.767  30.422  14.030
59385W        W31799  17.633  16.254  13.849
59386W        W31800  44.502  29.963  11.384
59387W        W31801   0.765  23.216   2.808
59388W        W31802   9.217  14.589   3.809
59389W        W31803  26.681  14.317  14.782
59390W        W31804  31.462  34.966  12.840
59391W        W31805   1.733  38.863  12.862
59392W        W31806  25.120   8.855  14.326
59393W        W31807  31.019  24.091  11.931
59394W        W31808  20.693  35.905   2.239
59395W        W31809  26.017  22.037  10.496
59396W        W31810  13.656  23.503  12.475
59397W        W31811   8.881  40.355   1.437
59398W        W31812   1.310  13.275  14.512
59399W        W31813  23.635  22.225  14.299
59400W        W31814  31.037  35.440  12.892
59401W        W31815  40.038  38.040   1.780
59402W        W31816  20.621   5.734   2.370
59403W        W31817  38.495  34.449   1.221
59404W        W31818  29.118  27.637  12.966
59405W        W31819  17.797   5.411   2.730
59406W        W31820  38.876  13.181   2.827
59407W        W31821  33.947  28.020  11.492
59408W        W31822  10.157  11.823   5.132
59409W        W31823  15.773  27.080   0.324
59410W        W31824  25.531   8.659   1.348
59411W        W31825  36.348  33.893  14.886
59412W        W31826  24.519  41.807   0.448
59413W        W31827  25.166   0.898   2.337
59414W        W31828   9.237  17.776  13.467
59415W        W31829  35.857   7.848   1.733
59416W        W31830  44.768  33.524   2.674
59417W        W31831  30.116   6.319  12.437
59418W        W31832   4.702  29.519   3.323
59419W        W31833  19.581   6.843  13.453
59420W        W31834  30.921  20.538   3.713
59421W        W31835  13.619  34.921   2.700
59422W        W31836   9.278  10.755  10.522
59423W        W31837  39.029  41.396  12.426
59424W        W31838  40.038   7.274   2.696
59425W        W31839  11.252  24.220  11.394
59426W        W31840  24.691  15.188   4.602
59427W        W31841  15.675  15.123   4.181
59428W        W31842  12.134   4.424   4.287
59429W        W31843   9.792  30.122  11.071
59430W        W31844   7.906  32.015  14.856
59431W        W31845  39.819  41.315  12.485
59432W        W31846  28.468  12.852  10.560
59433W        W31847  16.154  10.169   4.206
59434W        W31848  15.212  11.271   3.715
59435W        W31849   3.804  34.900   1.894
59436W        W31850   6.749  42.965   4.199
59437W        W31851  12.783  44.281   4.832
59438W        W31852  34.056   0.303  13.007
59439W        W31853  14.149  28.555   1.783
59440W        W31854   7.741  37.033   0.749
59441W        W31855  14.761  41.434   2.818
59442W        W31856  32.011   6.677  14.802
59443W        W31857  21.255   5.228   2.198
59444W        W31858  38.529  38.044   1.339
59445W        W31859  40.813  10.827   1.420
59446W        W31860   9.648  25.964  13.878
59447W        W31861  27.598  21.112   0.375
59448W        W31862  39.443  32.018   4.180
59449W        W31863  29.509  40.911  14.027
59450W        W31864   3.276  17.263   5.310
59451W        W31865   7.720  20.605   1.220
59452W        W31866  21.734  28.528   1.230
59453W        W31867  32.958  30.447   3.218
59454W        W31868   5.709  38.865   2.291
59455W        W31869  29.657  24.157  12.931
59456W        W31870  41.827  13.183  14.439
59457W        W31871  13.239  28.096  14.363
59458W        W31872   9.822  25.206   0.337
59459W        W31873  32.136  34.399  10.493
59460W        W31874  35.946   3.373   3.276
59461W        W31875   2.907  16.117  12.551
59462W        W31876  34.911  28.609  13.946
59463W        W31877  21.081   5.857  11.925
59464W        W31878  44.003  25.119   0.456
59465W        W31879  25.530   1.810   2.764
59466W        W31880  19.260  36.851  14.872
59467W        W31881   2.808  20.066   2.874
59468W        W31882  43.346  19.108  13.423
59469W        W31883  25.490  37.053   0.284
59470W        W31884  44.378  41.039  12.535
59471W        W31885   1.807  30.028  14.960
59472W        W31886  27.582   9.241   2.767
59473W        W31887   0.886  16.729   2.788
59474W        W31888  20.603   3.782   1.840
59475W        W31889  12.623  38.513   4.704
59476W        W31890  21.535  27.137   0.953
59477W        W31891  39.451   9.257   0.460
59478W        W31892  14.313  43.909   1.712
59479W        W31893  42.406  23.727   4.655
59480W        W31894  14.140  34.021   4.321
59481W        W31895  24.157  10.352   5.267
59482W        W31896  39.458   4.303   2.230
59483W        W31897   9.887  36.520   1.213
59484W        W31898  37.336  21.184   4.353
59485W        W31899  30.140  28.065  12.579
59486W        W31900   8.865  33.937   2.831
59487W        W31901  15.308  22.536  11.562
59488W        W31902  36.080  37.430  10.887
59489W        W31903  13.824  11.782  14.376
59490W        W31904  34.480  27.951   2.211
59491W        W31905   7.786  34.448   2.844
59492W        W31906  17.571  42.832  14.323
59493W        W31907   4.825   4.334  14.505
59494W        W31908   2.873  15.272   1.372
59495W        W31909   1.948   2.303   4.180
59496W        W31910  23.616  13.336   3.341
59497W        W31911   2.414  30.907  10.438
59498W        W31912  14.802  35.465   2.382
59499W        W31913  10.338   1.795  10.416
59500W        W31914  20.660  25.691   2.756
59501W        W31915  26.607   6.182  14.978
59502W        W31916   1.936  20.093  13.908
59503W        W31917  24.146  40.496   4.241
59504W        W31918  16.205  31.054   1.897
59505W        W31919  36.944  35.547  12.359
59506W        W31920  21.062  19.686  11.902
59507W        W31921  11.359  31.465   3.358
59508W        W31922  11.640  39.406  13.419
59509W        W31923   7.805  11.261  13.400
59510W        W31924   5.236  18.100  12.016
59511W        W31925   5.261  39.358   0.292
59512W        W31926  40.330  35.559  11.128
59513W        W31927  41.907  14.660   1.714
59514W        W31928  26.514  34.487  11.540
59515W        W31929  38.991  12.228  11.374
59516W        W31930   3.253   0.399  11.470
59517W        W31931  16.265   0.765   0.294
59518W        W31932   0.280  40.894   2.350
59519W        W31933  36.076  24.093  11.418
59520W        W31934  41.812  15.806   1.216
59521W        W31935  19.244  38.368   0.413
59522W        W31936  33.083   2.260  11.405
59523W        W31937  11.679  40.427   1.859
59524W        W31938  23.233  21.025   4.717
59525W        W31939  30.596  12.810  14.356
59526W        W31940  24.209   0.976   3.728
59527W        W31941  33.596  16.076  10.404
59528W        W31942  41.516   8.282  10.505
59529W        W31943  42.501   1.760  14.902
59530W        W31944  29.051  42.981   2.336
59531W        W31945  12.206   0.301   4.326
59532W        W31946  28.539  26.130  13.855
59533W        W31947  20.163  33.959  14.311
59534W        W31948  16.634  25.041   3.747
59535W        W31949  41.877  18.270  12.908
59536W        W31950   6.321   1.776   0.444
59537W        W31951   4.778   3.451   2.676
59538W        W31952  43.772  13.647  14.429
59539W        W31953  16.228   5.213   1.732
59540W        W31954  37.849  29.026  14.941
59541W        W31955  30.955  14.727  14.320
59542W        W31956  30.417  31.905   5.234
59543W        W31957   7.258  33.382  12.993
59544W        W31958  38.840  26.075  10.489
59545W        W31959  20.657   1.371   2.314
59546W        W31960  31.437  26.639  12.571
59547W        W31961   4.862  23.639  14.428
59548W        W31962  12.698  17.629   0.408
59549W        W31963   0.973   1.292   0.319
59550W        W31964  33.035  21.520   4.655
59551W        W31965   8.391  42.362  11.586
59552W        W31966  30.617  36.431  11.412
59553W        W31967  21.089  26.561   3.297
59554W        W31968  11.344  16.157   1.852
59555W        W31969  40.825   9.662   1.381
59556W        W31970   2.269  34.482   1.843
59557W        W31971  10.159  39.542  11.998
59558W        W31972  18.221  38.839  13.887
59559W        W31973  17.795  33.072   1.331
59560W        W31974  43.851  25.617  11.442
59561W        W31975  21.528  43.386  12.880
59562W        W31976   1.328  19.284  11.543
59563W        W31977   3.372  40.968   1.698
59564W        W31978  29.103   5.214  13.395
59565W        W31979  11.176   3.305   0.389
59566W        W31980  17.178  18.627   3.233
59567W        W31981  11.278  26.033  11.609
59568W        W31982   5.240  26.013  10.027
59569W        W31983  17.696   7.357  12.946
59570W        W31984  12.264  26.065  10.535
59571W        W31985   9.325  26.158  10.547
59572W        W31986  19.541   6.864   1.882
59573W        W31987  36.072  41.917   2.729
59574W        W31988  35.941  14.116   1.788
59575W        W31989  18.241  44.492   1.391
59576W        W31990  34.092  15.642   3.746
59577W        W31991  40.398  11.169   4.266
59578W        W31992   2.469   7.369   4.737
59579W        W31993  13.710  20.573  14.915
59580W        W31994  31.429  20.732   1.881
59581W        W31995   6.292   2.841   4.333
59582W        W31996  44.795   0.399   0.424
59583W        W31997  26.976  23.659   2.781
59584W        W31998  27.595  11.736   0.839
59585W        W31999  20.704  13.628  12.441
59586W        W32000  27.464   5.196   0.803
59587W        W32001   1.733   2.402   4.831
59588W        W32002   9.712  35.394  12.389
59589W        W32003  43.898  39.395  13.481
59590W        W32004  18.079  13.234  10.435
59591W        W32005  24.705  18.753   9.661
59592W        W32006  15.634  42.416  14.378
59593W        W32007  31.548   1.296  11.451
59594W        W32008  39.999   2.904  13.950
59595W        W32009  36.931  23.675   4.253
59596W        W32010  31.146  43.282   1.885
59597W        W32011  35.392  35.095   5.195
59598W        W32012   3.414  14.655   4.174
59599W        W32013  30.948  14.775  14.933
59600W        W32014   1.886  23.655  10.965
59601W        W32015  17.573  21.042  10.568
59602W        W32016  20.560   0.369  14.429
59603W        W32017  44.879  38.376  13.520
59604W        W32018  23.110   6.713   3.644
59605W        W32019  10.318  24.558  11.960
59606W        W32020  20.187   2.350   0.423
59607W        W32021  13.295  41.000   1.344
59608W        W32022  27.560  30.527  12.460
59609W        W32023  36.572  42.820  12.485
59610W        W32024  16.788  40.327   4.332
59611W        W32025   8.834  21.241   4.158
59612W        W32026  36.040  35.387  10.579
59613W        W32027   8.660  23.594  14.829
59614W        W32028  23.656  30.950  11.022
59615W        W32029  12.800  28.180   5.318
59616W        W32030   9.776  40.512   3.265
59617W        W32031  33.913  42.342   1.748
59618W        W32032  22.231  27.948   1.439
59619W        W32033  43.379  19.066   3.707
59620W        W32034  28.556  22.712   4.248
59621W        W32035  43.441   6.328   1.711
59622W        W32036   3.849   2.740  13.495
59623W        W32037   3.901  13.340  14.936
59624W        W32038  41.036  32.435  13.858
59625W        W32039  35.889  26.610   2.675
59626W        W32040  36.348  18.591   1.285
59627W        W32041  43.968   6.810  14.332
59628W        W32042  12.655   7.308   5.646
59629W        W32043  24.111  34.931  11.520
59630W        W32044  42.409  26.204  14.782
59631W        W32045   5.344  10.804   4.667
59632W        W32046  30.588   6.736  11.438
59633W        W32047   6.400  22.074   3.686
59634W        W32048  42.479  11.210   0.911
59635W        W32049  34.922   0.909  12.949
59636W        W32050   9.289  16.294  10.496
59637W        W32051  31.055  32.136   3.638
59638W        W32052  38.942  12.346  11.036
59639W        W32053  27.964   7.765  13.448
59640W        W32054  35.866  30.506  11.002
59641W        W32055  14.199   7.856  14.025
59642W        W32056  16.716   2.885   2.327
59643W        W32057   9.275  11.293  11.059
59644W        W32058  12.256  43.906   2.402
59645W        W32059  42.960  42.302  14.302
59646W        W32060  12.612  26.159   3.232
59647W        W32061  22.699   0.334  11.551
59648W        W32062  20.701   6.211  11.452
59649W        W32063  23.570  44.493   3.352
59650W        W32064  25.631  11.857   1.819
59651W        W32065  31.071  15.311   1.266
59652W        W32066  33.621  22.137   1.794
59653W        W32067   7.309  18.745   4.771
59654W        W32068  26.159  23.046  14.873
59655W        W32069  15.087   9.813  13.421
59656W        W32070  27.473  43.785  13.519
59657W        W32071  15.652  29.638   0.765
59658W        W32072  33.441   3.317  13.478
59659W        W32073  34.487  14.786   2.702
59660W        W32074   0.894   4.225   3.174
59661W        W32075   3.870  42.981   3.181
59662W        W32076  22.169   4.786   0.375
59663W        W32077  40.313  29.931   2.392
59664W        W32078   1.453  21.068   1.395
59665W        W32079  18.216   0.866   4.670
59666W        W32080  18.198  21.585  11.402
59667W        W32081  19.608  26.519   0.270
59668W        W32082   8.177   0.838  12.917
59669W        W32083   8.297  32.910   3.357
59670W        W32084   0.959  43.497  14.988
59671W        W32085  32.438  14.826   4.154
59672W        W32086  38.353  28.498  14.283
59673W        W32087  28.142  29.537  11.403
59674W        W32088  35.400  27.006   4.183
59675W        W32089  11.730  42.387  10.626
59676W        W32090  22.587  34.392  11.085
59677W        W32091  13.176  40.833  12.478
59678W        W32092  20.180  22.692  10.465
59679W        W32093  44.832  34.966   2.242
59680W        W32094  13.166  24.145  12.042
59681W        W32095  17.244   6.724  11.096
59682W        W32096  14.610  40.503   0.455
59683W        W32097  15.315  29.489   2.215
59684W        W32098  15.321  32.488   3.340
59685W        W32099  43.788  17.769  12.451
59686W        W32100  10.813  23.113   4.200
59687W        W32101  22.159   8.277   3.690
59688W        W32102  26.681  43.805  14.956
59689W        W32103  11.775  16.081   3.316
59690W        W32104  14.154  17.306   1.288
59691W        W32105  24.499  29.094  10.916
59692W        W32106  21.174  36.576   3.320
59693W        W32107  17.590  25.613   3.153
59694W        W32108  18.600  27.615   0.432
59695W        W32109  20.749  22.085   1.803
59696W        W32110  31.043  22.706   1.848
59697W        W32111  21.511  32.394  13.882
59698W        W32112  36.961  13.801  12.956
59699W        W32113  43.401  21.127  10.531
59700W        W32114  41.510   6.730   2.346
59701W        W32115   6.187   3.721   0.434
59702W        W32116  16.591   0.854   0.428
59703W        W32117  21.082  29.962   0.424
59704W        W32118  25.540  31.455   2.769
59705W        W32119  16.721  41.787  13.952
59706W        W32120  26.088  40.920   1.812
59707W        W32121  41.825  17.618  11.972
59708W        W32122   8.184  25.615   2.404
59709W        W32123   0.908   5.695  14.372
59710W        W32124   6.684   9.657  14.359
59711W        W32125  34.918  24.164  12.580
59712W        W32126  33.510   8.394   0.859
59713W        W32127  10.369  21.747  11.530
59714W        W32128  44.303   7.191   3.328
59715W        W32129   2.299  16.786  13.513
59716W        W32130  21.057  20.130  11.950
59717W        W32131   7.379  13.214   2.405
59718W        W32132   1.906   4.448  14.773
59719W        W32133   1.867  40.530  13.468
59720W        W32134   6.396  20.157   4.630
59721W        W32135   7.347   5.783  12.990
59722W        W32136  42.836   2.808  13.836
59723W        W32137   3.891   9.278   0.444
59724W        W32138   3.461  32.119  12.537
59725W        W32139  40.954  34.424   0.728
59726W        W32140   3.350  25.122   3.774
59727W        W32141  10.214  18.151   0.882
59728W        W32142  13.264   5.837   2.249
59729W        W32143  42.405  25.660   1.851
59730W        W32144  11.715  15.283   4.294
59731W        W32145   4.406  25.169  11.115
59732W        W32146  24.703  16.276   3.796
59733W        W32147  33.505  26.176  10.609
59734W        W32148  16.575  37.011   1.705
59735W        W32149  43.270  26.563  10.546
59736W        W32150  11.211  24.622   2.843
59737W        W32151  31.093  13.333   4.598
59738W        W32152  11.280  38.538  11.485
59739W        W32153  26.613  43.355   0.807
59740W        W32154  42.840  23.502   1.292
59741W        W32155  41.028  37.916   4.307
59742W        W32156   1.834  26.560  13.474
59743W        W32157  23.593   0.847   3.712
59744W        W32158   0.961  24.064   2.892
59745W        W32159  15.690  30.598   0.773
59746W        W32160  27.133  16.105  14.919
59747W        W32161  11.235   1.310   3.258
59748W        W32162   9.881  19.729  12.560
59749W        W32163  15.806   2.740  10.936
59750W        W32164  23.044  38.033   1.739
59751W        W32165  11.724  26.603   1.886
59752W        W32166  22.218  19.755   1.710
59753W        W32167  18.173  32.560   0.407
59754W        W32168   1.361  22.678  11.901
59755W        W32169  21.607   6.830   0.759
59756W        W32170  16.100  16.195   4.184
59757W        W32171   5.210  13.184   2.354
59758W        W32172  43.835  26.082  11.910
59759W        W32173  19.144  20.573  10.471
59760W        W32174  23.230   4.292  14.793
59761W        W32175  37.965  42.927  10.613
59762W        W32176  26.005   2.340   2.779
59763W        W32177   4.904  25.202  10.072
59764W        W32178   0.345  18.746   1.273
59765W        W32179  44.966  13.146  14.867
59766W        W32180  22.242  30.926   1.417
59767W        W32181  29.464   4.325   2.892
59768W        W32182   2.309  15.624   4.216
59769W        W32183  24.057   0.259   1.717
59770W        W32184  10.286  36.410  12.571
59771W        W32185  34.025  27.130   1.441
59772W        W32186  23.734  14.656  12.429
59773W        W32187  26.071  19.739   1.226
59774W        W32188   1.810  13.664   2.373
59775W        W32189  43.446  32.571  10.435
59776W        W32190  20.609  24.585   0.906
59777W        W32191  39.828  32.473  13.491
59778W        W32192  24.589  14.128   5.305
59779W        W32193  32.101  28.678   2.340
59780W        W32194  11.172   1.794   3.298
59781W        W32195  25.995   4.790  10.535
59782W        W32196   1.809   1.922   1.732
59783W        W32197  31.404  39.425   1.285
59784W        W32198  15.163  33.514  10.546
59785W        W32199  21.691  10.796  10.953
59786W        W32200  32.900  20.685  13.372
59787W        W32201  44.278  35.059   4.669
59788W        W32202  39.885  43.481   3.337
59789W        W32203  42.453  19.654   2.418
59790W        W32204  20.631  29.508   3.803
59791W        W32205  23.606  33.958  12.435
59792W        W32206  14.644  24.100  13.525
59793W        W32207  28.980  10.210   1.262
59794W        W32208   5.762   8.675   2.744
59795W        W32209  10.708  31.463  11.864
59796W        W32210  27.688   3.294   4.832
59797W        W32211  18.765   4.700  12.364
59798W        W32212  20.092   5.293  11.586
59799W        W32213  32.026   6.739  13.026
59800W        W32214  19.598  11.299  13.527
59801W        W32215   4.331  22.118  14.348
59802W        W32216  18.173  21.058   0.854
59803W        W32217  31.621  32.617  13.947
59804W        W32218   4.805  39.416   1.736
59805W        W32219  32.957  17.304   3.815
59806W        W32220  28.622  21.104   2.388
59807W        W32221   6.708  13.179  13.019
59808W        W32222   2.343   6.419   2.280
59809W        W32223  39.863  11.234  14.290
59810W        W32224  35.909  27.466  12.080
59811W        W32225   3.872  36.558  11.536
59812W        W32226  14.169  19.551   3.791
59813W        W32227  38.841   6.821  14.806
59814W        W32228  20.732  41.790   3.239
59815W        W32229  11.298  32.420  10.555
59816W        W32230   1.901  39.546  12.053
59817W        W32231  12.278  43.801  14.819
59818W        W32232   1.787  14.631   0.826
59819W        W32233  26.696   5.925   1.376
59820W        W32234  18.571  14.785   3.655
59821W        W32235  35.993  11.637   4.607
59822W        W32236  11.187  37.444  14.766
59823W        W32237  36.568  19.197  12.880
59824W        W32238  24.101  44.856   2.238
59825W        W32239  29.658  14.724   2.220
59826W        W32240  22.674  32.529  13.417
59827W        W32241  13.134  11.853  11.909
59828W        W32242  14.197  26.039  14.764
59829W        W32243   4.793  30.656  13.531
59830W        W32244   4.827  15.100  10.547
59831W        W32245  18.130   6.903  12.037
59832W        W32246  29.612  41.328   5.216
59833W        W32247  34.421  15.792   1.433
59834W        W32248  25.116  30.920  12.057
59835W        W32249  25.651  31.901  13.517
59836W        W32250  21.197  19.040  12.424
59837W        W32251  26.489  41.004  10.639
59838W        W32252   0.404   2.412   0.263
59839W        W32253  30.056   5.719  13.353
59840W        W32254  10.355  12.615   2.769
59841W        W32255  41.444  18.595  14.402
59842W        W32256  28.484  36.419  12.435
59843W        W32257  26.643   3.373   4.332
59844W        W32258  16.670  12.622  12.377
59845W        W32259  29.060  32.003  12.960
59846W        W32260  43.352   1.959   3.768
59847W        W32261  35.393  41.372   3.385
59848W        W32262  10.643   6.711  10.417
59849W        W32263  32.611  34.555   4.636
59850W        W32264  11.152  41.478  14.939
59851W        W32265  35.976  21.682   1.437
59852W        W32266  25.701   0.776   0.261
59853W        W32267  24.986  31.936   0.856
59854W        W32268   2.773  40.993   4.767
59855W        W32269   9.238   9.195  11.022
59856W        W32270   1.239  24.127   0.787
59857W        W32271   9.154  15.601  12.464
59858W        W32272  24.598   2.744   0.751
59859W        W32273   2.776  28.606   5.635
59860W        W32274  35.038  34.049  11.383
59861W        W32275   9.356  43.352   1.294
59862W        W32276  29.943  14.232   4.161
59863W        W32277  24.509  22.721  11.082
59864W        W32278  14.728  17.576   4.188
59865W        W32279  12.285  31.582   1.851
59866W        W32280  24.020  23.050   0.267
59867W        W32281   7.703  33.497   4.732
59868W        W32282  23.542  42.316   1.922
59869W        W32283  39.473  24.974   3.164
59870W        W32284  18.206  23.070  13.922
59871W        W32285  40.017  32.627   1.310
59872W        W32286  36.005  34.893  13.966
59873W        W32287  33.054  34.535   1.294
59874W        W32288  40.952  34.594  10.549
59875W        W32289   7.380  17.598  14.279
59876W        W32290   7.332  32.592  14.992
59877W        W32291  43.505  14.687  10.980
59878W        W32292  29.047  19.068   3.837
59879W        W32293  33.585  33.495  12.024
59880W        W32294  23.092  18.667   3.740
59881W        W32295   0.977   2.308  12.497
59882W        W32296  16.607  39.383   0.433
59883W        W32297  24.212  12.836  14.820
59884W        W32298  11.856  40.317   2.289
59885W        W32299  10.678  19.264   3.147
59886W        W32300  40.488  16.315   2.407
59887W        W32301  18.703   9.255  13.410
59888W        W32302  12.248  16.214  12.071
59889W        W32303  13.700  43.426  11.952
59890W        W32304   7.333  29.472  13.054
59891W        W32305  26.500   2.335  13.543
59892W        W32306  27.172  30.494   1.830
59893W        W32307  31.621  27.620   4.752
59894W        W32308  38.064  11.807  12.531
59895W        W32309   2.274  18.596  13.517
59896W        W32310  43.821  19.764  14.847
59897W        W32311   3.456  42.473  14.915
59898W        W32312  34.030   3.238  10.551
59899W        W32313  29.468   7.291   3.282
59900W        W32314   2.767  36.523  14.011
59901W        W32315  13.601  38.855  13.958
59902W        W32316  33.471  15.169  14.946
59903W        W32317   9.810  12.771  11.890
59904W        W32318  38.455   3.784   0.403
59905W        W32319  15.816  44.764  12.349
59906W        W32320   4.855   9.364  13.013
59907W        W32321  27.476   1.299  10.575
59908W        W32322  13.712  15.787   4.294
59909W        W32323  11.234  34.998   2.709
59910W        W32324   7.208  15.631   3.247
59911W        W32325  38.969  31.472  14.295
59912W        W32326   9.181  19.172  13.545
59913W        W32327   2.374   3.377   2.754
59914W        W32328  25.188  22.545   2.760
59915W        W32329   1.850   2.284  12.908
59916W        W32330   0.760  19.650  13.896
59917W        W32331  14.146  41.858   1.876
59918W        W32332  34.413  24.530   0.875
59919W        W32333   6.279  23.079  13.529
59920W        W32334  44.918  29.096  11.447
59921W        W32335  39.551  20.622  13.516
59922W        W32336  28.087  43.977  14.275
59923W        W32337  12.835  28.630  10.901
59924W        W32338  15.800  30.648   0.450
59925W        W32339  19.662  37.854   0.858
59926W        W32340  41.787   7.725   0.827
59927W        W32341  27.068   1.938  14.916
59928W        W32342  33.061  16.641  12.987
59929W        W32343   9.644   2.374  13.828
59930W        W32344  15.605  29.648  13.429
59931W        W32345   4.830  41.531  13.377
59932W        W32346  24.664  10.829  11.939
59933W        W32347  26.634  42.291   1.836
59934W        W32348  16.179   5.329   4.749
59935W        W32349  23.650  24.510   2.801
59936W        W32350  42.903   8.197  11.501
59937W        W32351  18.232  41.003  10.536
59938W        W32352   7.198  20.746   0.856
59939W        W32353  27.174  28.449  12.829
59940W        W32354  25.531  28.181  11.558
59941W        W32355   8.853  42.314  11.046
59942W        W32356  40.911   3.931   2.712
59943W        W32357  11.710  40.928   1.781
59944W        W32358  26.124   4.282   3.377
59945W        W32359  21.114   1.273   4.336
59946W        W32360   9.291  39.405   0.837
59947W        W32361  23.240  27.059   1.862
59948W        W32362   5.267  31.585   3.751
59949W        W32363  18.732  22.053   1.839
59950W        W32364   2.336   8.355  14.843
59951W        W32365  43.466  29.100   3.808
59952W        W32366  30.032  20.730  14.818
59953W        W32367  21.645  21.073   0.318
59954W        W32368   8.807  24.069  12.525
59955W        W32369  12.833  43.424   1.212
59956W        W32370  43.774  32.462   1.726
59957W        W32371  37.350  28.939  12.414
59958W        W32372   1.382  12.621  10.436
59959W        W32373   5.761  18.548   1.799
59960W        W32374  35.487  21.224   4.257
59961W        W32375  42.876  24.200  14.295
59962W        W32376  37.366  40.458   4.144
59963W        W32377  40.359  13.814   3.794
59964W        W32378  31.405  42.465  11.587
59965W        W32379  20.198  24.014  14.309
59966W        W32380  25.199   8.774   4.310
59967W        W32381  38.968  22.571   4.173
59968W        W32382   2.738  10.267   9.928
59969W        W32383  21.603  27.603   4.237
59970W        W32384  10.686  30.098   1.888
59971W        W32385  41.897   4.737   2.185
59972W        W32386  36.347  28.991   2.796
59973W        W32387  40.901  25.097   3.647
59974W        W32388  28.983  18.680   3.291
59975W        W32389  26.203  27.963  10.406
59976W        W32390  34.499  29.145  12.534
59977W        W32391   5.339  37.929  12.455
59978W        W32392  30.536  14.151   3.376
59979W        W32393  25.071  15.187  12.015
59980W        W32394  30.936  28.548   4.604
59981W        W32395   2.292  19.608   3.844
59982W        W32396  19.680  10.276   3.730
59983W        W32397  27.590  30.969  11.556
59984W        W32398   5.761  21.519   1.349
59985W        W32399  11.663  36.546  14.384
59986W        W32400  17.757   8.283   1.394
59987W        W32401  13.120  35.979  11.089
59988W        W32402  21.528  16.664  11.005
59989W        W32403   4.735  38.068  14.414
59990W        W32404   1.937  34.032   2.696
59991W        W32405   8.181  43.005  10.081
59992W        W32406  16.749   9.657   0.424
59993W        W32407  31.557  11.755   3.723
59994W        W32408  12.778  17.164   0.335
59995W        W32409  32.485  23.104  10.632
59996W        W32410  23.657  20.166   0.455
59997W        W32411  34.067   0.977  11.445
59998W        W32412  19.750  30.045  11.927
59999W        W32413  23.235  21.740   1.306
60000W        W32414  29.086  22.239  12.965
60001W        W32415  14.756  35.366  14.359
60002W        W32416   9.174  35.469  10.963
60003W        W32417   7.319  34.020  10.621
60004W        W32418  15.602  26.027  14.962
60005W        W32419   7.793  33.965  10.492
60006W        W32420   6.370   5.910   1.750
60007W        W32421  31.500   2.247   2.331
60008W        W32422  25.672  39.061   9.930
60009W        W32423  44.356  12.710  10.527
60010W        W32424  39.046  37.443  12.969
60011W        W32425  16.252  19.684  12.356
60012W        W32426  22.131  17.621   9.564
60013W        W32427  21.513  22.066  12.575
60014W        W32428  22.078  34.882   1.857
60015W        W32429  28.950  20.056  13.366
60016W        W32430  17.124  29.649   2.252
60017W        W32431  33.467  13.241   1.332
60018W        W32432  38.929  27.608  10.117
60019W        W32433   6.891  27.024  12.418
60020W        W32434   4.239  23.172   4.295
60021W        W32435   6.905  34.460   0.906
60022W        W32436   2.294  38.064   4.828
60023W        W32437   1.270  31.645   2.798
60024W        W32438  18.577  38.553   1.430
60025W        W32439   8.290  28.500   1.444
60026W        W32440  10.838  44.480   9.941
60027W        W32441  33.423  13.284   2.391
60028W        W32442  36.050  30.655   1.787
60029W        W32443   6.705  44.472  11.068
60030W        W32444  36.414  34.556   3.244
60031W        W32445  38.525  13.768   3.700
60032W        W32446  16.622  24.130  11.920
60033W        W32447   5.742  32.497   0.871
60034W        W32448  39.061   3.784   0.891
60035W        W32449  11.704  34.435  13.885
60036W        W32450  37.882  15.760  12.521
60037W        W32451   4.378  37.429  14.951
60038W        W32452  27.146  23.542   0.790
60039W        W32453  17.228  33.580   4.119
60040W        W32454  23.225  37.345   2.268
60041W        W32455   1.275   0.494  11.576
60042W        W32456  41.812   3.863   1.338
60043W        W32457   7.763  21.140   0.873
60044W        W32458   5.852  20.738   0.777
60045W        W32459  27.968  32.122   4.354
60046W        W32460  18.655   4.316   0.856
60047W        W32461  42.327  37.455  13.845
60048W        W32462   9.227  37.888   1.727
60049W        W32463  15.705   9.207   2.663
60050W        W32464  17.168  37.441   3.263
60051W        W32465  12.309  11.640  13.856
60052W        W32466  28.009  10.195  13.548
60053W        W32467   3.416  13.752   1.750
60054W        W32468  35.104  32.927  10.944
60055W        W32469  31.414   5.839   4.286
60056W        W32470  17.756   1.787   1.420
60057W        W32471   2.315  39.522  13.892
60058W        W32472  41.439  19.078   4.613
60059W        W32473  12.755  23.617   0.777
60060W        W32474  19.721  26.164  12.522
60061W        W32475   7.375   4.371   2.382
60062W        W32476  43.332  16.077   4.725
60063W        W32477  24.024  28.504  12.412
60064W        W32478   7.744   2.950  14.965
60065W        W32479  36.889  15.288  11.016
60066W        W32480  24.640  15.305  11.577
60067W        W32481  24.709  30.957  14.811
60068W        W32482  22.215  15.823   4.191
60069W        W32483   4.350  28.483   9.538
60070W        W32484  12.278   7.244  14.462
60071W        W32485   3.845  44.339   2.391
60072W        W32486   5.237  43.910  10.527
60073W        W32487   4.910  19.613  13.481
60074W        W32488  31.460  17.117   4.182
60075W        W32489  34.532   8.760  12.457
60076W        W32490  11.238   0.356  14.388
60077W        W32491  10.740  23.118  12.372
60078W        W32492   7.366   1.920  10.997
60079W        W32493  23.206  15.708  14.309
60080W        W32494  11.847  40.808   3.689
60081W        W32495  40.450  30.007   1.348
60082W        W32496   9.706  37.016  12.869
60083W        W32497  27.184   3.419   1.842
60084W        W32498  34.992  18.547   0.436
60085W        W32499  32.407  40.326   2.712
60086W        W32500  25.203  36.388  12.924
60087W        W32501   6.358  28.975   0.749
60088W        W32502  40.305  21.662   3.773
60089W        W32503  39.546   6.375   0.872
60090W        W32504  34.530  42.908   0.365
60091W        W32505  27.651   4.840   4.183
60092W        W32506   6.296  33.947   2.411
60093W        W32507   8.727   1.806  14.965
60094W        W32508  17.724   6.363  11.067
60095W        W32509  44.293  39.970   0.400
60096W        W32510  13.735  38.053   0.878
60097W        W32511   8.398   8.809  14.830
60098W        W32512  31.044  33.605   3.242
60099W        W32513   5.726  14.717  13.804
60100W        W32514   9.211  41.344  11.437
60101W        W32515  10.353  36.481   1.397
60102W        W32516  23.706  14.163  14.787
60103W        W32517  21.223  34.474  11.002
60104W        W32518  38.881  17.730   4.173
60105W        W32519   2.272   7.702  10.569
60106W        W32520  29.463  14.187   0.404
60107W        W32521  12.346  32.988  10.517
60108W        W32522   8.213   3.396  14.434
60109W        W32523   4.880  15.176   5.246
60110W        W32524  41.948   2.265  12.955
60111W        W32525  23.661  17.737  10.923
60112W        W32526  30.924  25.126  11.940
60113W        W32527  40.960   7.720   3.243
60114W        W32528  30.654  39.032   2.261
60115W        W32529  41.926   8.366  11.612
60116W        W32530  12.727   7.222   3.287
60117W        W32531  40.392   4.418   3.775
60118W        W32532  24.494  33.061  11.127
60119W        W32533  34.421  14.610  11.094
60120W        W32534  44.441  31.933   0.922
60121W        W32535  34.904   1.291   2.706
60122W        W32536  39.868  28.650  14.483
60123W        W32537  22.697  37.491  12.542
60124W        W32538  21.711  39.810   2.806
60125W        W32539   3.360  25.603   9.507
60126W        W32540  26.481  14.717   1.242
60127W        W32541  11.755   2.337  14.812
60128W        W32542  12.717  13.142  13.309
60129W        W32543   8.819  32.014   1.697
60130W        W32544  19.567   1.470   0.329
60131W        W32545  33.963  32.072   2.762
60132W        W32546  16.778  29.442   2.815
60133W        W32547   2.724  16.163  10.955
60134W        W32548  38.437  36.060   2.266
60135W        W32549   9.256  26.691   3.214
60136W        W32550  26.087  16.078   1.780
60137W        W32551  24.211  16.229   0.467
60138W        W32552  22.651  36.486  12.526
60139W        W32553   0.443  37.437  13.448
60140W        W32554  19.171   2.964   0.284
60141W        W32555  29.999  34.399  13.426
60142W        W32556  38.496  23.112  13.544
60143W        W32557  15.612  40.490   4.308
60144W        W32558   8.841  19.095   2.194
60145W        W32559  31.525  15.232  14.387
60146W        W32560   5.366  16.184   3.259
60147W        W32561  30.140   6.307   1.912
60148W        W32562  18.287   1.752   1.922
60149W        W32563  24.201  29.027   3.701
60150W        W32564  32.011  41.799  10.971
60151W        W32565  36.367  32.593  12.504
60152W        W32566  27.549   9.370  10.585
60153W        W32567   9.758   4.859   3.793
60154W        W32568  15.594  28.679   0.842
60155W        W32569  40.815  41.944  11.946
60156W        W32570  40.985  13.143  10.541
60157W        W32571  33.959  40.514  13.848
60158W        W32572  21.157  15.109  12.054
60159W        W32573   6.283  35.460  13.417
60160W        W32574  38.011  33.116  13.326
60161W        W32575  42.849   4.308  11.526
60162W        W32576   9.838  16.075   1.883
60163W        W32577  42.357   3.780  12.894
60164W        W32578  25.555  21.648   1.300
60165W        W32579  29.159  17.766   3.337
60166W        W32580  34.611  31.946  10.639
60167W        W32581  38.407  31.959  11.485
60168W        W32582  44.931  35.929   2.793
60169W        W32583  22.120  36.028   4.785
60170W        W32584  37.893  36.490   2.267
60171W        W32585  27.607  38.550  12.574
60172W        W32586  19.663   6.806  13.852
60173W        W32587  40.356  23.516   9.927
60174W        W32588   1.273  11.718   1.826
60175W        W32589  40.020   8.722  10.485
60176W        W32590  38.972   2.461  13.849
60177W        W32591  28.120  42.381   3.306
60178W        W32592  19.705  40.480  13.002
60179W        W32593  27.564   5.315   0.349
60180W        W32594   1.858  33.056   2.783
60181W        W32595  44.484  19.284  14.763
60182W        W32596   5.704  10.712   1.290
60183W        W32597  33.067  39.458   1.751
60184W        W32598  13.222   7.356   2.746
60185W        W32599   0.300  37.894   3.667
60186W        W32600  30.543   7.252   0.402
60187W        W32601  26.545  39.852  13.879
60188W        W32602  35.574  41.930   4.186
60189W        W32603  20.717  39.406  12.068
60190W        W32604  24.574   3.343  14.380
60191W        W32605  24.695  31.405  10.543
60192W        W32606   7.268   3.913  12.397
60193W        W32607  38.325  39.350   3.349
60194W        W32608  21.227  40.003  13.992
60195W        W32609   9.789  42.497   0.874
60196W        W32610   2.370   0.434  13.339
60197W        W32611  34.096  18.588   0.929
60198W        W32612  29.661  14.172   2.886
60199W        W32613  13.223  15.197   4.597
60200W        W32614   2.390  36.351  11.989
60201W        W32615  28.165  40.449  11.918
60202W        W32616  26.650  35.914   2.777
60203W        W32617   4.935  23.503  14.940
60204W        W32618  13.283  33.966   4.243
60205W        W32619  33.020  28.041   0.950
60206W        W32620   4.713  35.900  13.993
60207W        W32621   3.264  30.534   3.868
60208W        W32622  42.836   5.346   4.669
60209W        W32623   3.807  35.005  13.338
60210W        W32624  17.770  39.367  13.513
60211W        W32625  15.663  17.735   0.861
60212W        W32626  23.179  26.127   4.231
60213W        W32627   8.308  12.317   0.844
60214W        W32628  17.752  37.022   2.392
60215W        W32629  25.579  11.630  13.027
60216W        W32630  28.976  18.745   4.157
60217W        W32631   2.735  35.920  13.359
60218W        W32632   3.950  32.462   4.337
60219W        W32633  31.429  18.204   4.227
60220W        W32634   3.771   7.242   3.857
60221W        W32635  20.222  32.042   2.323
60222W        W32636   9.754   9.677   3.303
60223W        W32637   8.373   3.821   2.353
60224W        W32638  39.840   3.946   3.225
60225W        W32639   3.257  24.693   0.244
60226W        W32640  40.802  23.993  12.432
60227W        W32641  24.151  18.186  10.422
60228W        W32642  18.558   2.729  14.812
60229W        W32643  38.561  20.256   4.805
60230W        W32644   4.806  18.548   4.837
60231W        W32645  16.776  34.557  11.432
60232W        W32646  33.110  19.716   4.336
60233W        W32647  11.795  21.699   4.781
60234W        W32648  44.483   2.883   1.387
60235W        W32649  12.329  38.423   0.946
60236W        W32650  10.221  29.622  14.000
60237W        W32651   3.230   8.232   0.431
60238W        W32652  28.522  13.158   0.763
60239W        W32653  14.644  10.252  10.993
60240W        W32654  26.476  11.774   1.854
60241W        W32655  17.768   0.269   4.761
60242W        W32656  16.697  29.128  10.959
60243W        W32657   1.450   8.756  13.029
60244W        W32658   5.260  13.304  12.569
60245W        W32659   4.767  41.413  14.332
60246W        W32660  43.376  32.029   2.313
60247W        W32661  36.504  26.150  11.601
60248W        W32662  36.586   9.748  12.872
60249W        W32663   8.354   0.271   2.732
60250W        W32664  20.052  16.268  12.420
60251W        W32665  43.989   1.466  14.498
60252W        W32666   6.776  33.911   2.262
60253W        W32667  35.957  21.600  13.420
60254W        W32668  16.732  17.578   1.726
60255W        W32669  12.218  20.740  12.923
60256W        W32670  41.298  17.646  10.434
60257W        W32671  43.328  17.588  13.038
60258W        W32672  23.690  26.066   1.350
60259W        W32673   5.232  44.323  12.010
60260W        W32674  14.595   9.672  10.897
60261W        W32675  42.029  42.932  12.393
60262W        W32676  41.322   8.661   4.730
60263W        W32677  10.273  30.145   4.613
60264W        W32678  13.326  25.125   1.751
60265W        W32679   5.273  15.285  11.502
60266W        W32680   3.295  28.520   5.685
60267W        W32681  27.638  26.205  13.929
60268W        W32682  34.392   0.288  11.129
60269W        W32683  21.208  30.628  13.849
60270W        W32684  32.892  31.959   0.286
60271W        W32685  36.078  21.094   0.927
60272W        W32686  23.632  43.890   1.294
60273W        W32687  44.305  21.205   2.220
60274W        W32688   1.826   9.829  12.456
60275W        W32689   1.947  18.209   2.726
60276W        W32690   3.372   7.180   1.696
60277W        W32691  33.402  36.384   2.321
60278W        W32692   1.270   1.974  14.797
60279W        W32693  13.252  20.086   4.648
60280W        W32694  41.939  24.224  10.947
60281W        W32695  11.625  31.141   2.868
60282W        W32696  14.650  19.595  11.110
60283W        W32697  30.093  20.235  14.021
60284W        W32698  42.320   7.357   2.696
60285W        W32699   1.313   8.402  14.900
60286W        W32700   6.850  22.713   3.716
60287W        W32701  43.809  24.037  12.026
60288W        W32702  29.555  40.308   5.149
60289W        W32703  42.331   1.421   2.257
60290W        W32704   3.784   6.749  11.061
60291W        W32705  41.896  23.641  10.463
60292W        W32706   8.203  28.529  10.461
60293W        W32707  42.367   2.383   4.767
60294W        W32708  38.460  27.640  13.961
60295W        W32709  36.077  31.542   3.665
60296W        W32710   2.868  27.951   4.329
60297W        W32711  31.431   8.711  14.427
60298W        W32712  17.673  43.336   3.834
60299W        W32713  28.088   8.806  11.887
60300W        W32714  21.056  37.856  13.386
60301W        W32715  18.663   8.160  14.770
60302W        W32716  30.955  27.168   3.801
60303W        W32717  26.976  15.667  12.383
60304W        W32718  39.048   9.717  14.409
60305W        W32719  22.711  33.042  13.447
60306W        W32720   8.890   6.250  14.294
60307W        W32721  23.083  42.305  11.563
60308W        W32722  26.682  29.088  13.327
60309W        W32723  13.131   8.875   3.226
60310W        W32724  12.280   1.915   1.324
60311W        W32725  24.190  13.739  11.069
60312W        W32726   3.718  22.063   1.803
60313W        W32727   2.363   7.769   2.363
60314W        W32728  28.019  27.686  12.575
60315W        W32729  15.141  18.161   0.964
60316W        W32730  22.210  35.522   1.444
60317W        W32731  13.176  32.573  13.408
60318W        W32732  14.627  36.055   1.818
60319W        W32733  17.235   1.760   2.210
60320W        W32734  27.197  23.998  12.383
60321W        W32735  24.707  13.653   4.303
60322W        W32736  20.639  42.894   2.690
60323W        W32737  12.727  25.024   2.393
60324W        W32738  26.184  39.314   4.639
60325W        W32739  41.893  20.157  12.464
60326W        W32740  34.900  37.062   3.295
60327W        W32741   6.855  14.819   3.706
60328W        W32742  22.130  44.261  12.537
60329W        W32743  32.064   8.805  11.441
60330W        W32744  14.093  25.695  10.990
60331W        W32745   2.951  36.929  13.443
60332W        W32746  30.133  39.898   1.905
60333W        W32747  14.202  41.298   0.251
60334W        W32748   0.274  19.601   5.235
60335W        W32749   6.853  22.617  12.956
60336W        W32750  40.996  12.354  13.806
60337W        W32751  44.998  28.502  14.499
60338W        W32752  40.962  17.158   2.217
60339W        W32753  16.302  25.971   3.330
60340W        W32754  31.991  22.249   3.748
60341W        W32755   6.334  21.128  10.595
60342W        W32756  23.002   8.281   0.242
60343W        W32757  17.093   7.406  10.040
60344W        W32758   1.785  24.210  11.091
60345W        W32759  37.410  16.633   0.748
60346W        W32760  28.047  31.624   0.821
60347W        W32761  21.092  38.397   9.998
60348W        W32762  34.106  15.601  13.342
60349W        W32763  42.811   5.214  13.406
60350W        W32764  23.088   3.449   1.414
60351W        W32765  12.182  10.286  12.052
60352W        W32766  27.000  23.604   4.706
60353W        W32767   6.362  14.698  13.404
60354W        W32768  28.108   7.669   1.346
60355W        W32769  17.301  32.121   3.381
60356W        W32770   9.382  41.463  10.082
60357W        W32771  37.013  22.117   3.148
60358W        W32772  31.609   5.410  13.480
60359W        W32773  16.571  25.002   3.296
60360W        W32774  24.617  18.296   3.764
60361W        W32775  18.750  27.668   4.807
60362W        W32776  17.618  30.966  12.550
60363W        W32777  35.578  31.526  14.941
60364W        W32778  15.306  10.141  11.595
60365W        W32779  23.177  19.229   1.764
60366W        W32780  34.982  26.189   2.384
60367W        W32781  22.125   4.831   2.195
60368W        W32782  24.596  19.571  14.431
60369W        W32783   4.364  17.793   0.441
60370W        W32784  14.123   9.720   2.374
60371W        W32785  26.973  12.732   0.386
60372W        W32786   9.164  25.670   1.306
60373W        W32787  15.682  25.687   0.787
60374W        W32788  33.501  16.093   1.799
60375W        W32789  10.859   9.215  11.405
60376W        W32790  18.097  11.751   3.834
60377W        W32791  36.931   5.402   2.346
60378W        W32792  31.922  26.575  11.098
60379W        W32793  35.386   4.858   3.717
60380W        W32794  40.806  42.859  14.462
60381W        W32795  40.546   6.866   3.354
60382W        W32796  27.495  42.002   0.882
60383W        W32797  36.974   3.800  13.831
60384W        W32798  27.589  29.060   2.248
60385W        W32799   3.361  26.682   9.955
60386W        W32800  35.068  31.481   1.919
60387W        W32801  36.937  26.485   4.644
60388W        W32802  17.588  42.864   1.913
60389W        W32803  24.071   3.397  14.366
60390W        W32804  40.923  18.727  10.450
60391W        W32805  31.525  15.145  10.549
60392W        W32806   9.373   8.398  14.459
60393W        W32807  27.554  30.090   2.238
60394W        W32808  11.370  26.584  11.537
60395W        W32809  30.498  11.744  11.520
60396W        W32810  20.580  34.106   1.732
60397W        W32811  23.514  28.023   0.413
60398W        W32812   4.721  16.648  10.943
60399W        W32813  25.056  44.374  13.795
60400W        W32814  21.729  23.702  10.917
60401W        W32815  19.550   0.439   3.739
60402W        W32816  42.348  39.515   4.215
60403W        W32817   4.872  13.217   0.315
60404W        W32818   2.303  37.396   0.802
60405W        W32819  11.733  29.104   0.743
60406W        W32820  33.402  28.054   3.308
60407W        W32821   0.976  33.590   0.478
60408W        W32822  28.036  29.612   1.244
60409W        W32823  15.818  14.834  10.470
60410W        W32824  19.153  25.521   3.756
60411W        W32825   7.307   0.406   3.189
60412W        W32826  34.910   4.846  11.040
60413W        W32827  29.650  20.049   4.744
60414W        W32828  10.871  19.050  10.642
60415W        W32829  10.644  10.263  11.869
60416W        W32830  27.045  15.580  13.051
60417W        W32831  31.999  26.019  12.049
60418W        W32832  13.182   5.849  13.400
60419W        W32833  10.752  15.775  13.405
60420W        W32834  41.886  38.041   2.302
60421W        W32835   9.786   9.767  10.569
60422W        W32836  20.761  20.221  13.503
60423W        W32837   6.240  37.867  12.543
60424W        W32838  12.632  16.206  12.918
60425W        W32839   8.807  14.227   9.999
60426W        W32840  28.069  37.865  10.641
60427W        W32841  25.020  28.546  11.547
60428W        W32842  40.930  35.565  13.041
60429W        W32843  34.418  23.110   1.230
60430W        W32844  34.548  10.384   0.962
60431W        W32845  17.563   7.279  10.645
60432W        W32846  41.352  12.118  14.886
60433W        W32847  22.552  22.715   3.870
60434W        W32848  36.098  43.474  13.866
60435W        W32849  18.082  37.006  12.530
60436W        W32850  37.430  13.313  14.764
60437W        W32851  25.700  32.933  10.433
60438W        W32852  16.248   2.261   0.749
60439W        W32853  10.250  12.173   3.353
60440W        W32854  13.260  10.673  11.384
60441W        W32855   8.716   5.755   1.868
60442W        W32856  31.631  17.103  14.770
60443W        W32857   4.815  24.012   0.921
60444W        W32858  38.854  14.276   2.182
60445W        W32859  27.100  43.874  14.297
60446W        W32860   6.366  27.958   2.810
60447W        W32861  32.045  22.620   3.208
60448W        W32862  20.084  13.633  13.493
60449W        W32863  41.819  15.688  14.933
60450W        W32864  28.181  10.814  12.912
60451W        W32865   0.486   6.761  13.493
60452W        W32866  17.643  17.294  10.541
60453W        W32867  37.467  27.182  12.409
60454W        W32868  42.860   0.930  12.537
60455W        W32869  28.976  41.967   0.879
60456W        W32870  13.184   5.808   2.833
60457W        W32871  37.877   0.750  11.056
60458W        W32872  41.931  19.146   4.209
60459W        W32873  14.218  21.176   5.296
60460W        W32874  37.467  39.428   0.800
60461W        W32875  11.278  28.090   4.175
60462W        W32876  16.077  17.695   5.194
60463W        W32877  42.921  22.562  14.320
60464W        W32878  44.995  19.644  13.505
60465W        W32879  24.116   4.287   3.170
60466W        W32880  31.986  22.152   0.844
60467W        W32881  38.838  43.017  14.892
60468W        W32882  14.140  17.604  11.511
60469W        W32883   6.741  37.053  11.045
60470W        W32884  21.205  35.957   3.198
60471W        W32885  37.432  32.402  13.388
60472W        W32886  34.421  26.013   2.789
60473W        W32887  37.998  17.734  14.989
60474W        W32888  31.561  40.391   4.202
60475W        W32889  38.870   9.360  11.001
60476W        W32890  17.178   2.883   4.762
60477W        W32891  11.253  34.003   4.607
60478W        W32892  42.358  10.224   2.800
60479W        W32893   8.263   8.728  12.007
60480W        W32894  22.519  28.172  13.818
60481W        W32895  11.812  26.208   2.318
60482W        W32896  22.075  24.130  13.404
60483W        W32897  41.956   3.842  10.999
60484W        W32898  23.514  42.970  12.542
60485W        W32899  34.484   2.836   4.726
60486W        W32900  21.081  12.225  11.951
60487W        W32901  32.537   2.352   3.237
60488W        W32902  17.290  18.285   1.831
60489W        W32903   9.867  25.219   2.307
60490W        W32904  17.781  28.475  12.947
60491W        W32905   9.385   1.338   4.332
60492W        W32906  41.354  20.038   1.784
60493W        W32907  33.028  33.582  13.334
60494W        W32908  43.939  16.641  10.591
60495W        W32909   4.858  29.000   0.873
60496W        W32910  27.175  37.902  12.930
60497W        W32911  17.748  24.091  13.020
60498W        W32912  32.987  10.188  11.462
60499W        W32913  42.848  29.091   4.147
60500W        W32914   4.781   2.928   2.281
60501W        W32915  21.605  33.932   4.653
60502W        W32916  33.517  15.613   3.681
60503W        W32917  26.197   9.377   2.349
60504W        W32918  42.364  23.097   3.717
60505W        W32919  33.059  26.462  14.411
60506W        W32920  41.945  28.510  11.581
60507W        W32921   4.356  11.861  13.057
60508W        W32922  14.784  33.881  14.931
60509W        W32923  33.417  40.534  12.945
60510W        W32924   3.774  42.849  12.064
60511W        W32925  37.475   0.879  11.509
60512W        W32926  38.454   1.875   2.262
60513W        W32927  23.614  12.309   0.256
60514W        W32928  34.892  44.278  12.844
60515W        W32929  36.905  27.592   2.279
60516W        W32930  41.867  23.611   3.833
60517W        W32931  15.817   6.320  14.901
60518W        W32932   6.344  34.104   3.219
60519W        W32933  30.925  28.565   1.375
60520W        W32934   9.874  19.701  12.944
60521W        W32935  41.040  39.874   3.721
60522W        W32936  10.351  28.591  12.885
60523W        W32937  26.510  30.014   1.843
60524W        W32938  20.166  37.930  14.288
60525W        W32939  37.011  26.516   0.310
60526W        W32940   0.436  22.057  14.882
60527W        W32941  31.608  21.725   0.375
60528W        W32942  17.083   9.159   2.663
60529W        W32943   3.889  11.790  13.402
60530W        W32944  13.816   8.189   0.945
60531W        W32945  13.646  35.914  13.353
60532W        W32946  10.674  24.537  13.861
60533W        W32947  16.101  19.207   1.226
60534W        W32948   1.272  24.589  14.019
60535W        W32949   1.838   2.817   0.467
60536W        W32950   9.889   7.876   0.318
60537W        W32951  14.141   8.266  11.383
60538W        W32952   8.306  32.133  14.810
60539W        W32953   1.764  28.097  11.948
60540W        W32954  44.277  19.209  13.483
60541W        W32955  15.167  28.470   1.696
60542W        W32956   9.782   2.302  13.313
60543W        W32957  44.372  41.982  10.629
60544W        W32958  31.147   9.760   2.359
60545W        W32959  27.496  18.667  14.328
60546W        W32960   7.372   0.279   3.747
60547W        W32961  32.455  35.109  12.972
60548W        W32962  23.717  12.198   3.745
60549W        W32963  27.149  11.636   4.266
60550W        W32964   3.292  40.502  11.021
60551W        W32965  21.691  15.620  11.897
60552W        W32966   6.902  42.855   4.808
60553W        W32967  28.099   9.314   0.882
60554W        W32968   4.785  36.438   2.877
60555W        W32969  10.240  42.357  10.582
60556W        W32970  38.419   3.416  12.351
60557W        W32971  32.611  29.000   1.801
60558W        W32972  31.022  28.992  11.014
60559W        W32973  17.568   0.402   1.264
60560W        W32974  27.683  30.582  13.032
60561W        W32975   6.911  11.710   0.776
60562W        W32976  18.671  16.130  10.631
60563W        W32977  16.663  19.644  12.534
60564W        W32978  35.874  21.105  13.869
60565W        W32979   3.342   0.342   1.384
60566W        W32980  24.535   7.341  11.091
60567W        W32981  35.536  12.622  10.452
60568W        W32982  30.626  25.577  14.021
60569W        W32983  24.561  30.645  11.984
60570W        W32984   0.955  33.557   2.854
60571W        W32985  33.522  21.029   4.679
60572W        W32986   1.755  37.559   4.239
60573W        W32987  28.665   6.301  11.864
60574W        W32988  21.161  38.941  11.936
60575W        W32989  23.012  42.453  13.933
60576W        W32990  32.979  23.008   4.322
60577W        W32991  29.142  41.816  14.364
60578W        W32992  20.632   8.728  11.523
60579W        W32993  39.040  23.216  14.987
60580W        W32994  35.365   2.823  13.892
60581W        W32995  40.442  23.137   2.190
60582W        W32996  10.800  19.212   1.411
60583W        W32997  41.489  30.522  10.916
60584W        W32998  37.967  22.609  13.453
60585W        W32999  21.148  33.472   4.138
60586W        W33000  12.676  19.267  10.077
60587W        W33001  33.487  14.683   4.705
60588W        W33002  12.315  12.198   2.320
60589W        W33003   9.760  34.462  11.423
60590W        W33004  44.810   6.689   2.866
60591W        W33005  10.796  30.963   1.807
60592W        W33006  23.591  11.163   4.145
60593W        W33007  44.968  20.573  14.450
60594W        W33008   4.400  44.395   1.444
60595W        W33009  30.983  31.125   2.365
60596W        W33010  11.759   9.335  14.895
60597W        W33011   6.904  36.477   0.431
60598W        W33012  34.388  32.085   0.437
60599W        W33013  27.648  17.741   1.415
60600W        W33014  26.533  14.787  11.033
60601W        W33015  29.145   7.300  14.453
60602W        W33016   9.317  14.686  12.031
60603W        W33017  23.029  31.113  10.441
60604W        W33018  17.746  32.492  12.069
60605W        W33019   9.648  11.686   2.396
60606W        W33020  20.161  44.262   2.674
60607W        W33021  19.569  22.186   3.809
60608W        W33022  12.273  26.688   5.239
60609W        W33023  22.709  24.496  14.308
60610W        W33024  25.642  36.904  12.898
60611W        W33025  36.912  19.608   4.790
60612W        W33026  35.091  18.587  10.953
60613W        W33027  38.408  13.763  11.435
60614W        W33028  29.151  12.296  11.901
60615W        W33029  23.674  14.740   1.852
60616W        W33030  29.555  44.943   2.300
60617W        W33031   4.737  42.821  12.935
60618W        W33032   8.834  11.341  11.108
60619W        W33033  27.122  27.167  12.466
60620W        W33034   3.295  21.576  11.455
60621W        W33035   1.966  16.171   1.916
60622W        W33036  15.109  13.757   0.457
60623W        W33037  27.670  30.930  14.358
60624W        W33038  15.799  37.550  14.916
60625W        W33039   9.693  26.458   9.928
60626W        W33040   7.848  28.994   4.154
60627W        W33041  12.196  33.386  12.913
60628W        W33042  41.812  11.260  11.456
60629W        W33043  18.605  15.700  12.923
60630W        W33044  15.783  33.385   5.195
60631W        W33045   4.911  29.603  10.983
60632W        W33046  22.039  33.076  13.052
60633W        W33047  23.614  27.134   2.854
60634W        W33048  12.696  12.344  12.528
60635W        W33049  11.817  13.648   0.933
60636W        W33050  19.205   3.351  11.527
60637W        W33051  35.383  35.093   3.276
60638W        W33052  34.098  35.908  11.036
60639W        W33053   2.462  40.921  11.105
60640W        W33054  17.665  35.469   4.714
60641W        W33055  39.033  43.879   9.926
60642W        W33056  43.987  22.014   1.282
60643W        W33057  18.628  40.500   4.324
60644W        W33058  43.932  32.535  11.031
60645W        W33059   0.281   8.239   1.762
60646W        W33060  41.917  18.052   4.711
60647W        W33061  44.906  17.581   1.888
60648W        W33062  18.210  35.005  12.410
60649W        W33063  18.253   4.940  12.543
60650W        W33064  14.817  15.195  14.998
60651W        W33065  37.912  41.336  13.956
60652W        W33066  32.444  36.943   2.820
60653W        W33067  26.953  10.296  11.976
60654W        W33068   5.730  25.088   2.700
60655W        W33069  44.824   8.780   2.324
60656W        W33070  13.737  22.542   0.288
60657W        W33071   3.385  43.897  12.577
60658W        W33072   7.404  24.181   2.315
60659W        W33073   1.954  43.832  13.397
60660W        W33074  39.996  26.489   1.302
60661W        W33075  35.948  27.524   1.889
60662W        W33076  42.957   3.346   5.233
60663W        W33077  21.653  17.124  11.448
60664W        W33078  26.141  43.771   2.363
60665W        W33079  34.953   0.281   1.708
60666W        W33080  39.957  44.851  13.016
60667W        W33081  17.670   8.701  13.041
60668W        W33082   8.895  25.564   0.275
60669W        W33083  10.230  25.481   2.405
60670W        W33084  16.596  25.586   3.664
60671W        W33085   5.249   8.208  14.472
60672W        W33086  44.337  43.861  11.469
60673W        W33087  11.174   2.355  12.464
60674W        W33088  37.498  44.483   4.740
60675W        W33089  36.457  14.754   4.822
60676W        W33090  40.358   0.377  14.816
60677W        W33091  20.115  27.683  12.035
60678W        W33092  28.451  26.602  10.584
60679W        W33093  12.277  21.119  13.400
60680W        W33094  35.019  25.063   0.451
60681W        W33095  21.070  35.047  13.889
60682W        W33096  17.752  33.555   4.254
60683W        W33097   6.401   0.335   9.955
60684W        W33098   7.871  43.951   2.688
60685W        W33099  21.219  35.882  12.033
60686W        W33100   0.848  43.842   1.439
60687W        W33101  37.928  19.622   0.350
60688W        W33102   5.880  39.469   2.900
60689W        W33103  24.569  13.147   0.348
60690W        W33104  11.844  29.123   1.343
60691W        W33105   0.427  12.351   1.254
60692W        W33106  42.377   9.804  11.090
60693W        W33107   2.281  18.644  10.621
60694W        W33108  42.033  18.263   2.683
60695W        W33109  24.216  27.992   4.348
60696W        W33110  25.608  25.968   2.209
60697W        W33111  34.542  24.090   3.757
60698W        W33112   4.296  20.682  12.576
60699W        W33113  22.059  13.599  14.925
60700W        W33114   1.858  15.307  11.941
60701W        W33115  33.442  32.564   0.955
60702W        W33116   9.322  34.490   1.897
60703W        W33117  18.285  39.886  12.945
60704W        W33118  20.566   0.879   1.818
60705W        W33119  24.655  12.323   0.417
60706W        W33120   5.434  36.904  11.011
60707W        W33121  21.090  41.827  11.577
60708W        W33122   2.452  29.011  14.389
60709W        W33123  16.606   2.737   3.769
60710W        W33124  30.149  21.577  11.874
60711W        W33125   6.685  21.223  13.529
60712W        W33126  26.634  12.163  13.908
60713W        W33127  12.196  43.392  14.869
60714W        W33128  13.227  13.844   2.737
60715W        W33129   4.388  11.360  13.425
60716W        W33130  42.003  28.129  11.973
60717W        W33131  12.166  30.119  11.538
60718W        W33132   1.351  29.462  14.869
60719W        W33133  27.018  14.250   2.347
60720W        W33134  22.634  11.802   3.292
60721W        W33135  26.026  19.064  13.924
60722W        W33136   4.396  30.460  14.346
60723W        W33137  38.430  44.382   0.414
60724W        W33138  41.376  12.836  14.320
60725W        W33139  28.542  43.297  13.461
60726W        W33140  18.558  37.522  14.278
60727W        W33141  19.165  29.079  11.485
60728W        W33142  18.550  11.331  14.354
60729W        W33143   8.203  11.193  13.956
60730W        W33144   7.745   4.405  12.555
60731W        W33145   3.897  22.059  13.994
60732W        W33146  42.374  22.699   2.397
60733W        W33147  18.788  38.383  10.514
60734W        W33148   3.872  30.949   3.249
60735W        W33149  19.559  24.673   4.144
60736W        W33150  16.236  25.024   3.180
60737W        W33151  37.888  36.970  12.036
60738W        W33152  15.599  43.804  12.020
60739W        W33153  41.518  42.986  10.628
60740W        W33154  22.037  12.116   2.823
60741W        W33155   8.252  26.143  12.868
60742W        W33156   4.778  34.942   4.701
60743W        W33157  23.559   3.939   3.673
60744W        W33158  39.981  16.261   3.745
60745W        W33159  38.525   8.803   2.264
60746W        W33160  27.018   6.267   2.268
60747W        W33161   2.418   8.812  10.432
60748W        W33162  42.471  37.072   0.407
60749W        W33163  17.116   4.713  12.437
60750W        W33164   4.234  27.636   3.181
60751W        W33165  14.594   7.237  12.494
60752W        W33166  31.433  14.094   0.342
60753W        W33167   8.859  21.677  12.431
60754W        W33168  21.652  18.196   2.666
60755W        W33169  34.386  14.691  14.476
60756W        W33170   0.328   6.721  14.329
60757W        W33171  43.376  41.013  13.936
60758W        W33172  11.327  31.003  14.793
60759W        W33173  42.391   0.419  12.946
60760W        W33174  14.294  43.913   0.850
60761W        W33175  36.997  31.536  14.977
60762W        W33176  40.425  25.142  12.404
60763W        W33177  38.904  41.819   3.850
60764W        W33178  18.184  33.416  14.505
60765W        W33179  24.988   0.880  12.910
60766W        W33180  23.075  33.574  13.851
60767W        W33181   3.871   5.689   3.173
60768W        W33182  39.432  37.403  11.065
60769W        W33183  26.526  23.563  11.914
60770W        W33184  13.840  30.142  12.398
60771W        W33185  18.768  41.933  13.863
60772W        W33186   0.434   7.214  12.549
60773W        W33187   0.840  26.595  11.436
60774W        W33188  16.744  25.507  11.442
60775W        W33189   9.769   8.185   3.850
60776W        W33190  39.522  28.077  14.782
60777W        W33191  36.094   8.690  12.083
60778W        W33192  26.635  32.911   0.442
60779W        W33193   0.281  22.055  11.973
60780W        W33194  27.579  27.616  11.605
60781W        W33195  31.955  36.432   1.421
60782W        W33196  35.469  35.488   0.385
60783W        W33197  29.559  39.896  12.861
60784W        W33198  11.702  34.996  12.363
60785W        W33199  34.935  35.365  14.923
60786W        W33200  18.551   6.325  13.060
60787W        W33201  41.390  27.581  13.916
60788W        W33202  30.162  36.928   1.836
60789W        W33203  16.174  16.697   4.245
60790W        W33204  38.486   7.676   4.216
60791W        W33205  33.618   3.866  11.563
60792W        W33206   7.355   8.833   3.158
60793W        W33207  37.467  26.171  13.889
60794W        W33208  13.606  12.807   3.174
60795W        W33209  41.390   5.428  10.437
60796W        W33210  23.168  34.575  10.536
60797W        W33211  40.849  19.746  12.087
60798W        W33212  25.575  14.237   1.292
60799W        W33213  33.067  20.134   2.210
60800W        W33214  33.579  10.313   2.823
60801W        W33215   2.801  10.844   1.251
60802W        W33216  31.907  24.600   4.607
60803W        W33217  43.880  11.133   1.355
60804W        W33218  31.051  11.770   2.268
60805W        W33219   6.762  16.568  13.471
60806W        W33220   2.879  27.595   4.784
60807W        W33221  25.149  43.490   1.402
60808W        W33222  31.064  13.741   4.238
60809W        W33223  28.521  32.396   2.671
60810W        W33224   7.871  18.772  12.412
60811W        W33225  32.008  29.531  12.868
60812W        W33226  15.245   4.851  10.563
60813W        W33227  41.340  39.346  11.101
60814W        W33228   9.671  36.889  11.567
60815W        W33229  39.908  14.326  10.983
60816W        W33230  13.667   8.675   5.777
60817W        W33231  35.953  32.413   0.446
60818W        W33232  35.978  32.038  11.951
60819W        W33233  43.486   5.904  13.838
60820W        W33234  22.717   7.879  10.557
60821W        W33235  34.045   0.368   4.199
60822W        W33236  22.631   0.425  14.961
60823W        W33237  26.516  18.731   0.310
60824W        W33238  25.635   8.212  10.638
60825W        W33239  23.218  29.587  14.872
60826W        W33240  31.145  34.503   3.801
60827W        W33241  18.673   5.748   3.272
60828W        W33242   0.410   7.412  12.095
60829W        W33243  20.569   3.774  11.558
60830W        W33244  17.251  22.150  12.558
60831W        W33245  21.565   5.356  11.500
60832W        W33246  25.690   6.829   2.355
60833W        W33247  28.120  14.208   3.166
60834W        W33248  28.114  20.745   4.224
60835W        W33249  26.477  13.149  13.009
60836W        W33250  20.150  26.638   3.805
60837W        W33251  41.913   5.364   3.344
60838W        W33252  25.641  43.512   5.149
60839W        W33253  27.585   5.917  13.421
60840W        W33254  30.485   2.446  14.335
60841W        W33255  11.155   7.238   1.210
60842W        W33256  15.664  35.021   5.140
60843W        W33257  14.717   2.335   0.865
60844W        W33258  42.854   0.300  13.403
60845W        W33259  42.942   1.851   1.811
60846W        W33260  34.878  18.104   3.185
60847W        W33261   6.850  20.216   1.393
60848W        W33262  39.320  25.699   0.440
60849W        W33263  23.583   5.772   0.899
60850W        W33264  18.281  33.617  12.917
60851W        W33265  29.470   7.222   3.643
60852W        W33266  13.757   5.292   1.223
60853W        W33267  18.572  30.445   3.240
60854W        W33268   6.783  34.467   0.279
60855W        W33269   8.674  12.329  11.080
60856W        W33270  12.249   0.259   1.751
60857W        W33271  34.442  27.532  10.528
60858W        W33272   9.261  38.432  13.515
60859W        W33273  14.592  44.993  12.958
60860W        W33274  22.145  32.135   1.351
60861W        W33275  34.040  29.563   1.695
60862W        W33276  42.329  44.353  12.901
60863W        W33277  34.907   7.382  11.117
60864W        W33278  27.627  16.102  14.459
60865W        W33279   5.404  22.075  10.984
60866W        W33280  38.967  34.026   0.370
60867W        W33281  37.835  34.910   3.199
60868W        W33282  38.485  31.438  11.998
60869W        W33283  40.377   3.361  12.569
60870W        W33284  34.911  31.517   2.414
60871W        W33285   7.406  28.443  14.338
60872W        W33286  22.719  44.501  13.345
60873W        W33287  27.133  43.845   3.290
60874W        W33288  44.307   5.931   2.357
60875W        W33289   4.255  18.061   3.334
60876W        W33290  17.703  36.518   2.246
60877W        W33291  30.160  27.946  11.938
60878W        W33292  27.136  28.679   2.882
60879W        W33293  36.487  12.657  13.059
60880W        W33294   3.353   0.783   1.355
60881W        W33295  16.716  38.422  11.390
60882W        W33296  26.568  39.022   3.714
60883W        W33297   5.932  39.845  13.965
60884W        W33298  13.287  34.594  12.015
60885W        W33299  28.536   6.428   1.434
60886W        W33300   2.857  27.610   2.896
60887W        W33301  26.970  27.032  13.026
60888W        W33302   5.200  38.844  12.845
60889W        W33303   3.888  41.471  10.043
60890W        W33304   3.879  21.177   3.663
60891W        W33305  38.061   8.743   1.423
60892W        W33306  19.578  16.107   0.733
60893W        W33307  18.552  15.596   0.401
60894W        W33308  33.937  37.459  13.831
60895W        W33309   9.806   8.684  12.374
60896W        W33310  44.288  41.336  11.002
60897W        W33311  34.967  34.030   2.415
60898W        W33312   7.383  38.016   4.785
60899W        W33313  15.119   6.425  12.395
60900W        W33314  25.087  27.457   1.230
60901W        W33315   1.252  31.988   2.387
60902W        W33316  40.838  11.707   4.270
60903W        W33317  38.896   9.853   0.940
60904W        W33318  17.730  29.447   0.405
60905W        W33319  44.262  16.257  13.421
60906W        W33320  41.417  15.718  14.780
60907W        W33321  16.080  40.483  12.375
60908W        W33322  28.496  41.901  11.439
60909W        W33323  25.710  40.941  14.907
60910W        W33324  34.039  27.109   1.757
60911W        W33325  14.732   9.328   9.604
60912W        W33326  15.653   0.358  13.325
60913W        W33327  22.176   1.905   4.180
60914W        W33328  11.203  17.566   1.735
60915W        W33329  36.379  28.526  13.387
60916W        W33330  26.596  17.164  12.849
60917W        W33331   4.782   0.451  12.953
60918W        W33332  29.012   2.455   4.118
60919W        W33333  22.625  44.398  11.507
60920W        W33334  23.216  32.401  13.055
60921W        W33335  43.425  40.886   2.828
60922W        W33336  25.536   9.685  11.104
60923W        W33337  34.435  14.246   1.861
60924W        W33338   5.910   5.815   3.355
60925W        W33339  29.123  11.671  13.040
60926W        W33340   6.233  23.032  12.891
60927W        W33341  27.000   0.967   3.722
60928W        W33342  34.447  35.564  10.451
60929W        W33343  30.569  36.967   3.821
60930W        W33344  18.577  30.542  13.449
60931W        W33345  32.455  34.045  12.033
60932W        W33346  12.613  39.852   1.387
60933W        W33347  30.476  24.711  14.899
60934W        W33348  13.622   5.690   3.253
60935W        W33349  21.251  27.484   1.928
60936W        W33350  44.912  24.662  10.523
60937W        W33351  24.574   2.298  12.544
60938W        W33352  34.419  28.568   3.656
60939W        W33353   1.866   8.859  13.387
60940W        W33354  13.736  25.494  13.891
60941W        W33355  44.475  32.945   3.204
60942W        W33356   4.376  30.137  13.466
60943W        W33357  38.339   9.188   3.376
60944W        W33358  12.352   8.345  12.494
60945W        W33359  43.429  39.398  11.046
60946W        W33360  19.047  30.572  13.368
60947W        W33361  25.006  32.126  12.432
60948W        W33362  33.129  31.954   2.380
60949W        W33363   1.472   2.878  10.952
60950W        W33364   8.738  43.802  10.447
60951W        W33365   2.930   0.807   1.301
60952W        W33366  44.840  33.895  11.383
60953W        W33367  23.594  16.718   1.821
60954W        W33368  13.208   8.387   9.929
60955W        W33369  40.024   2.243   2.294
60956W        W33370  24.068   1.444  14.976
60957W        W33371  21.589  42.920  12.930
60958W        W33372  43.810  37.437   3.189
60959W        W33373   6.182   7.700  13.832
60960W        W33374  19.108  43.360   4.343
60961W        W33375  11.272   4.329   2.322
60962W        W33376  44.380  28.056   2.713
60963W        W33377  13.232  14.138   4.818
60964W        W33378   9.287  10.353   1.447
60965W        W33379  26.505  40.468  12.430
60966W        W33380   2.358  29.458   2.756
60967W        W33381  13.726  28.657  12.369
60968W        W33382   3.841  31.040  14.329
60969W        W33383   6.907  39.337  11.905
60970W        W33384   0.422   1.356  10.973
60971W        W33385  10.173  38.956   4.812
60972W        W33386  29.999  21.620   2.231
60973W        W33387  41.351  39.988  14.893
60974W        W33388  21.595  19.126  12.861
60975W        W33389  39.520   3.896   2.691
60976W        W33390  19.054  13.755  14.458
60977W        W33391  39.467  20.179  14.811
60978W        W33392  18.289   6.732  10.918
60979W        W33393  21.622  26.182   2.329
60980W        W33394   5.799  14.202   9.957
60981W        W33395   1.882   9.744   3.356
60982W        W33396  20.621  17.734   0.324
60983W        W33397  35.965  12.296   2.677
60984W        W33398   4.323  30.970  11.945
60985W        W33399   1.399   7.724  14.850
60986W        W33400  21.157  42.902   0.850
60987W        W33401  11.622  32.137   2.327
60988W        W33402   9.164  12.159   0.931
60989W        W33403   5.808   5.738   4.175
60990W        W33404  17.714  43.782  13.517
60991W        W33405  20.049  25.048  14.452
60992W        W33406  31.095  10.694   0.383
60993W        W33407  15.671   5.204   1.391
60994W        W33408  21.131  13.276   1.219
60995W        W33409  31.541  34.475   2.320
60996W        W33410  10.167   0.403  10.597
60997W        W33411  27.138  38.568   4.176
60998W        W33412  27.665  31.569   3.745
60999W        W33413  26.683  32.517  14.993
61000W        W33414  40.880  43.002  13.326
61001W        W33415  20.077  42.333  12.390
61002W        W33416   9.798  16.154   4.327
61003W        W33417  21.518  34.923   0.740
61004W        W33418   8.654  16.281  14.993
61005W        W33419  12.239   2.730   0.911
61006W        W33420  13.650   8.766  14.448
61007W        W33421  10.675   3.384  11.887
61008W        W33422  42.827  17.648   3.260
61009W        W33423  34.376   4.281  11.857
61010W        W33424  18.239   1.861  12.848
61011W        W33425  33.483  16.728  12.436
61012W        W33426  37.884  11.244  10.623
61013W        W33427  22.623  17.068   4.793
61014W        W33428  28.588  20.764  13.839
61015W        W33429  16.781  34.512   4.675
61016W        W33430   8.324  19.663  12.991
61017W        W33431  28.949  16.096   1.892
61018W        W33432  12.648   2.873  11.442
61019W        W33433   7.757  13.334  13.866
61020W        W33434   7.881  41.832  12.853
61021W        W33435  24.129  23.195  12.074
61022W        W33436  39.460  16.771   4.302
61023W        W33437  23.056  35.442  13.922
61024W        W33438   2.835  27.124  12.848
61025W        W33439  17.182  20.566   0.890
61026W        W33440   4.261  40.039   1.872
61027W        W33441  11.333   2.837  11.975
61028W        W33442  14.750  22.656   1.345
61029W        W33443  37.885   2.310  13.482
61030W        W33444  40.019  16.781  11.056
61031W        W33445  42.499  12.797  14.954
61032W        W33446  29.933  16.754  12.855
61033W        W33447  11.733  15.812   2.277
61034W        W33448  39.900  21.111  12.976
61035W        W33449  39.362  29.103   1.913
61036W        W33450  18.218  39.960   1.788
61037W        W33451  38.568  16.076  11.568
61038W        W33452   8.897  16.712   0.409
61039W        W33453  22.224  43.985  11.454
61040W        W33454  39.042  20.117  12.443
61041W        W33455  39.458  41.333  12.828
61042W        W33456  41.985  34.518   0.394
61043W        W33457   6.382   6.352   1.251
61044W        W33458  16.175  42.941   2.227
61045W        W33459  15.288   3.804  14.920
61046W        W33460  16.756   4.281  11.517
61047W        W33461  42.025   8.765  11.094
61048W        W33462  18.720  32.029  10.562
61049W        W33463  26.700  17.088  14.345
61050W        W33464  16.133   6.679   5.653
61051W        W33465   2.959  13.666  13.853
61052W        W33466  23.030  19.663   2.684
61053W        W33467  24.164  34.020   3.803
61054W        W33468   2.457  38.558   0.330
61055W        W33469  14.602   0.979   1.886
61056W        W33470  18.693  16.605   2.848
61057W        W33471  22.569  38.831   2.903
61058W        W33472  39.820  10.769   4.645
61059W        W33473  41.403  13.737  11.385
61060W        W33474  24.664  15.634  11.072
61061W        W33475  15.099  28.472  13.955
61062W        W33476  20.233  28.041  10.527
61063W        W33477  28.609   5.839   0.964
61064W        W33478  14.268  39.443   4.644
61065W        W33479  44.848  31.607  12.976
61066W        W33480   5.430  32.409   1.858
61067W        W33481   7.688   7.700  12.369
61068W        W33482  27.991  25.589  14.921
61069W        W33483  20.054  21.661  12.925
61070W        W33484  33.101   1.309   3.655
61071W        W33485  39.444  24.990  10.463
61072W        W33486  24.558  16.224  10.416
61073W        W33487   6.901  28.466   4.330
61074W        W33488  44.310   9.723  14.796
61075W        W33489  32.920  39.057   3.199
61076W        W33490  18.056  11.751   4.691
61077W        W33491  32.522  17.182  10.149
61078W        W33492  20.686  10.164   4.788
61079W        W33493   2.841   2.921  14.018
61080W        W33494  43.978  41.836  11.933
61081W        W33495  27.137   5.855   3.159
61082W        W33496   0.789   7.343  11.530
61083W        W33497  34.098  42.301   4.168
61084W        W33498  37.034   6.781   3.337
61085W        W33499  34.389  37.462   0.459
61086W        W33500  28.992  10.342   3.813
61087W        W33501  18.761  13.315   5.184
61088W        W33502  27.455  41.007  11.594
61089W        W33503  22.668  10.249   2.210
61090W        W33504  14.620  24.109  14.830
61091W        W33505   8.810  24.162  12.035
61092W        W33506  43.378  22.735  11.482
61093W        W33507   6.239  34.555  14.427
61094W        W33508  39.316   0.926   1.228
61095W        W33509  40.356  36.027   2.313
61096W        W33510  24.492  35.961   4.629
61097W        W33511  27.671  17.111  14.866
61098W        W33512  18.122  11.236  11.944
61099W        W33513  36.589  22.661  13.799
61100W        W33514   9.249  22.559   1.216
61101W        W33515   7.870   1.260  12.880
61102W        W33516  26.488  35.564   4.687
61103W        W33517   6.309  23.570  14.358
61104W        W33518  26.108  44.471  12.427
61105W        W33519  32.515  19.596   5.244
61106W        W33520  39.533   8.180  13.063
61107W        W33521  11.355  42.386  12.454
61108W        W33522  13.215  32.957  11.408
61109W        W33523  37.018   7.198  12.998
61110W        W33524  36.368  43.300   4.259
61111W        W33525  25.027  26.131   4.644
61112W        W33526  13.110  12.208  14.904
61113W        W33527   0.273  27.644   1.361
61114W        W33528  32.120  22.250  10.138
61115W        W33529  34.898  16.179  12.500
61116W        W33530  31.488   0.984  11.476
61117W        W33531   0.952  33.034   3.819
61118W        W33532  43.408  33.100  10.471
61119W        W33533  34.535  20.716  10.568
61120W        W33534  36.093  22.089  10.577
61121W        W33535  23.125   5.691   1.791
61122W        W33536   4.847   2.783   0.464
61123W        W33537   2.809  24.982  10.562
61124W        W33538  41.844  32.478   0.968
61125W        W33539   3.258  12.682  10.625
61126W        W33540   3.337  14.161   2.342
61127W        W33541  10.260   0.383  12.468
61128W        W33542   6.755  36.437  11.120
61129W        W33543  11.276  24.115   2.387
61130W        W33544   5.380  38.028  12.885
61131W        W33545   3.768  30.992   4.770
61132W        W33546  17.094  32.574   2.373
61133W        W33547   4.928  10.158   1.258
61134W        W33548   6.918  37.979   1.445
61135W        W33549  34.563  38.442   1.308
61136W        W33550   2.759   3.366  12.965
61137W        W33551  21.122  14.203   4.613
61138W        W33552  17.207   8.660  10.498
61139W        W33553  35.483  36.006   4.301
61140W        W33554   3.843  13.209   4.657
61141W        W33555  43.981  35.052   2.340
61142W        W33556  35.405  10.712  14.498
61143W        W33557   2.939  40.813   2.412
61144W        W33558  23.642  23.498   0.911
61145W        W33559   1.316  44.858   3.661
61146W        W33560  11.336   8.713  14.477
61147W        W33561  22.081  38.526  14.832
61148W        W33562  17.669  15.261   0.446
61149W        W33563  35.383  42.316  11.455
61150W        W33564  30.414  32.578   3.310
61151W        W33565  12.696  14.225  14.405
61152W        W33566  43.765  13.644   0.309
61153W        W33567  36.014   4.310   3.216
61154W        W33568  34.551  14.185  14.881
61155W        W33569  19.206  28.061   0.861
61156W        W33570  12.612   1.926   4.633
61157W        W33571  22.741  34.938  13.956
61158W        W33572  34.449   5.782   4.766
61159W        W33573  13.307  28.477  10.902
61160W        W33574  44.347  12.719  13.311
61161W        W33575  38.973   1.242  11.398
61162W        W33576  30.480  31.931   3.174
61163W        W33577  31.499  23.645   3.745
61164W        W33578  44.369   9.233  11.536
61165W        W33579  27.525  11.352  13.916
61166W        W33580  43.969  38.461  14.471
61167W        W33581  13.625  31.952  14.903
61168W        W33582  37.520  40.364   2.889
61169W        W33583  37.916  41.938   3.225
61170W        W33584  35.915  41.910  10.561
61171W        W33585  35.909  19.214   2.275
61172W        W33586  36.922  17.111   3.732
61173W        W33587  24.657  19.765  10.454
61174W        W33588   4.789  29.496  13.472
61175W        W33589  25.518  29.649  11.082
61176W        W33590  35.072  35.456  13.510
61177W        W33591  34.572   5.331   2.852
61178W        W33592  34.471  11.633  12.546
61179W        W33593  39.387   9.889  14.763
61180W        W33594  28.597  14.099  10.953
61181W        W33595  28.449  30.013  12.389
61182W        W33596  35.003   1.806  14.421
61183W        W33597  44.278  17.728  10.620
61184W        W33598  36.095  40.420  10.967
61185W        W33599  10.189  44.812  10.545
61186W        W33600   2.745  32.595  12.440
61187W        W33601  24.015   2.228  14.007
61188W        W33602  37.856  15.606   3.865
61189W        W33603  10.212   4.810  10.139
61190W        W33604  27.106  34.504   4.347
61191W        W33605  26.681   1.285   0.418
61192W        W33606   1.862  29.933   2.388
61193W        W33607  27.643  25.135   2.780
61194W        W33608  13.826  32.392  13.497
61195W        W33609  13.242  17.244  10.961
61196W        W33610  33.443  42.300  12.918
61197W        W33611  38.819  27.507   0.871
61198W        W33612  28.643  44.876  14.383
61199W        W33613  37.384   8.875   4.269
61200W        W33614   6.804  14.600  10.112
61201W        W33615  22.542  25.557  10.044
61202W        W33616  33.463  15.701  14.500
61203W        W33617  24.551  27.179   1.795
61204W        W33618   2.751  10.227   2.737
61205W        W33619   4.769  15.220   2.262
61206W        W33620  22.175  20.746  10.962
61207W        W33621  15.298   2.953  14.389
61208W        W33622  19.705  19.218  10.473
61209W        W33623  43.388  40.374  11.103
61210W        W33624   6.909  20.262   4.309
61211W        W33625  43.770   1.382   4.296
61212W        W33626  12.681  23.661  12.405
61213W        W33627  32.035  44.443  14.485
61214W        W33628   7.196  29.528  10.482
61215W        W33629  12.845   7.219   0.911
61216W        W33630  20.271   9.330  12.089
61217W        W33631  19.646  25.997  11.129
61218W        W33632  41.951   3.247  10.146
61219W        W33633   8.839  36.886   1.246
61220W        W33634  27.139  23.224   0.469
61221W        W33635   0.909  11.744   3.344
61222W        W33636  10.746  40.343   4.229
61223W        W33637   8.692   1.291   4.693
61224W        W33638  31.093  24.589   1.726
61225W        W33639  35.079   0.837  12.502
61226W        W33640   9.235  37.347  12.861
61227W        W33641  21.632  35.987  11.491
61228W        W33642  27.501  12.758   1.377
61229W        W33643   7.701  27.524  13.912
61230W        W33644  17.764  34.975   0.299
61231W        W33645  23.594  21.250  11.515
61232W        W33646  25.648   6.284  14.516
61233W        W33647  17.277  22.043  14.758
61234W        W33648  17.774  41.905   4.313
61235W        W33649   9.807  24.172  13.016
61236W        W33650  40.879  27.972   4.185
61237W        W33651  35.874  11.133   4.754
61238W        W33652  40.316   0.946  14.760
61239W        W33653  15.627  23.162   1.817
61240W        W33654  42.359  35.008   4.619
61241W        W33655   1.765  29.079  11.539
61242W        W33656  36.530  23.006  14.413
61243W        W33657  38.433  17.230   3.801
61244W        W33658  37.916  36.007   0.755
61245W        W33659  12.787  19.080   0.255
61246W        W33660   6.254  43.512   4.162
61247W        W33661  37.423  28.107   4.327
61248W        W33662  44.301   4.302  13.011
61249W        W33663   0.347  42.013   3.216
61250W        W33664  21.126  41.901   3.383
61251W        W33665  43.943  28.639   0.243
61252W        W33666  13.283  17.064   5.185
61253W        W33667  40.928  29.074  14.986
61254W        W33668  39.349  19.739  11.467
61255W        W33669  13.650  24.123   1.260
61256W        W33670   8.892  43.270   2.798
61257W        W33671  44.352  25.518   1.748
61258W        W33672  44.260  20.725  13.385
61259W        W33673  32.524   7.183  11.863
61260W        W33674  33.089  25.488  13.390
61261W        W33675  13.300  42.892   1.239
61262W        W33676  35.064   3.952   0.889
61263W        W33677  28.176   6.904  11.930
61264W        W33678  42.876  34.989   0.842
61265W        W33679  29.464  14.327   5.304
61266W        W33680  25.469   1.744   1.826
61267W        W33681  34.093   9.860  13.945
61268W        W33682  43.962  18.651   3.834
61269W        W33683  22.168   3.730   0.304
61270W        W33684  24.008  25.543   3.303
61271W        W33685   2.895   5.248   3.335
61272W        W33686  31.413  36.480   2.698
61273W        W33687  25.205  15.228   1.914
61274W        W33688  32.984  34.951   2.210
61275W        W33689  17.130  44.472  14.488
61276W        W33690  34.501   8.777   0.432
61277W        W33691  10.184  15.280   1.743
61278W        W33692  32.889  29.926   1.253
61279W        W33693   5.257   0.986   0.804
61280W        W33694  32.047  10.281  13.546
61281W        W33695  34.594  31.441  13.822
61282W        W33696  23.678   0.935  10.486
61283W        W33697  18.779  29.011   2.216
61284W        W33698  14.660  28.946  12.036
61285W        W33699  18.605  44.845  12.941
61286W        W33700  40.835  32.441   4.244
61287W        W33701  35.043   9.751   1.883
61288W        W33702  20.693  28.138  13.400
61289W        W33703  27.053   9.808   1.347
61290W        W33704  13.343  28.951   3.744
61291W        W33705   6.717  16.786   0.356
61292W        W33706  31.601   3.784   1.393
61293W        W33707  33.008  25.505  11.567
61294W        W33708   3.461  35.970  12.545
61295W        W33709  24.230  25.660  11.033
61296W        W33710  10.689  20.048  12.060
61297W        W33711   9.189  37.084   4.351
61298W        W33712  32.000  36.435   0.279
61299W        W33713  22.654  33.520   2.235
61300W        W33714  30.158   1.291  12.565
61301W        W33715   2.857  22.248   2.868
61302W        W33716   1.391  15.602  14.347
61303W        W33717  15.261  27.050   2.249
61304W        W33718  31.629  21.733   1.694
61305W        W33719   6.892  18.724   1.289
61306W        W33720  14.775  32.914   3.330
61307W        W33721   2.464  26.097   0.742
61308W        W33722  20.037  43.835  12.401
61309W        W33723  27.156  12.175  12.889
61310W        W33724  40.393  23.696  13.835
61311W        W33725  19.573   4.407   1.935
61312W        W33726  24.527  22.746  11.987
61313W        W33727  42.809  28.498  14.930
61314W        W33728   6.806  17.604  13.831
61315W        W33729  27.575  36.852  14.760
61316W        W33730  16.677   0.968  13.048
61317W        W33731  32.117  32.436   4.312
61318W        W33732   2.298  35.457   3.637
61319W        W33733  36.581  37.980   1.318
61320W        W33734  22.214  43.982  13.900
61321W        W33735   2.322  11.332  14.461
61322W        W33736  44.902  25.059   2.751
61323W        W33737  43.422  39.002   0.954
61324W        W33738  30.953  28.122  14.798
61325W        W33739  15.744   9.384   4.140
61326W        W33740   3.373  29.999  13.428
61327W        W33741   7.909  17.082  11.429
61328W        W33742  24.049  42.430  14.911
61329W        W33743   0.898   2.769   4.609
61330W        W33744  31.068   8.752  13.951
61331W        W33745  20.557  22.216  12.496
61332W        W33746   1.877  11.752   4.299
61333W        W33747  22.999  33.895  13.473
61334W        W33748  38.949  38.551  14.486
61335W        W33749  10.158  25.036   4.215
61336W        W33750  18.705  17.263   0.454
61337W        W33751   9.818  27.147  13.382
61338W        W33752  35.875  38.567  14.287
61339W        W33753  25.548   6.269  11.445
61340W        W33754  38.437   1.305  13.870
61341W        W33755  16.123   2.809  14.355
61342W        W33756  18.151  15.678   3.740
61343W        W33757  32.554  22.642   0.262
61344W        W33758  27.011  16.213  14.452
61345W        W33759  35.510  37.848   2.298
61346W        W33760  39.957  33.989   0.287
61347W        W33761  26.509  23.585  10.052
61348W        W33762  33.043  41.358   3.660
61349W        W33763  37.891  33.954  10.582
61350W        W33764  12.635  41.439   0.440
61351W        W33765  23.599  13.637  14.899
61352W        W33766  34.421   0.427   4.711
61353W        W33767   3.419  38.040  13.064
61354W        W33768  43.459  38.375  14.907
61355W        W33769  43.310  43.783  14.416
61356W        W33770  41.385  40.461  14.344
61357W        W33771  32.537  12.154  13.017
61358W        W33772  27.029  38.465  12.895
61359W        W33773   2.733  21.076   4.282
61360W        W33774  43.939   2.325   2.734
61361W        W33775  19.129  23.623  13.391
61362W        W33776  37.949  41.789  11.889
61363W        W33777  30.120  37.568  10.992
61364W        W33778  23.104  39.871   2.763
61365W        W33779  15.616  25.628   2.876
61366W        W33780  43.297  35.091  11.405
61367W        W33781   8.887   5.262  13.050
61368W        W33782  11.640   8.383  10.630
61369W        W33783  37.480  40.014   1.789
61370W        W33784  10.368   5.844   1.211
61371W        W33785  21.648  44.467  10.463
61372W        W33786   0.742   2.964   3.245
61373W        W33787  25.627  13.290   2.233
61374W        W33788  30.551   3.326  14.329
61375W        W33789   8.897  40.821  11.524
61376W        W33790  42.980   2.256  14.413
61377W        W33791  24.134   8.172  14.777
61378W        W33792  39.334  18.789  12.580
61379W        W33793  24.616  30.118  11.569
61380W        W33794  14.666  39.513  13.328
61381W        W33795   3.850  38.862  11.480
61382W        W33796  31.108  14.113   0.752
61383W        W33797  44.316   8.703  14.770
61384W        W33798   0.321   8.762  11.476
61385W        W33799  31.444   5.335  10.532
61386W        W33800  18.587  20.580   2.375
61387W        W33801  20.669  34.432  13.355
61388W        W33802  12.275  15.317  14.770
61389W        W33803  18.252  35.366  10.497
61390W        W33804  12.799  11.858   1.321
61391W        W33805  42.517  39.845   4.272
61392W        W33806  30.559   1.287   4.277
61393W        W33807  26.105  39.418  13.063
61394W        W33808  23.082  29.047  13.371
61395W        W33809   2.242   2.229   2.901
61396W        W33810  10.294  27.636  10.101
61397W        W33811   3.792  26.142  14.924
61398W        W33812  10.334  29.126  13.956
61399W        W33813  27.552  44.985   2.348
61400W        W33814  28.160  25.480  14.458
61401W        W33815  32.984   5.734  13.878
61402W        W33816  11.221   2.927  10.484
61403W        W33817  23.045  18.685  11.936
61404W        W33818   9.357  23.009   4.768
61405W        W33819   8.882   1.253   1.223
61406W        W33820  37.004  29.135   3.212
61407W        W33821  31.576  23.118   1.777
61408W        W33822  23.183   7.186   3.175
61409W        W33823  42.918  28.534   1.705
61410W        W33824  34.451  23.592  12.985
61411W        W33825  14.143  42.801   1.698
61412W        W33826  21.646  36.878   0.920
61413W        W33827  39.318  22.679  12.578
61414W        W33828  29.921  17.298   4.805
61415W        W33829  29.595  19.581  11.044
61416W        W33830  23.116  24.657   2.718
61417W        W33831  19.173  37.463   1.848
61418W        W33832   2.289  26.509  12.566
61419W        W33833  18.782   1.470   1.271
61420W        W33834  38.046   2.365  12.423
61421W        W33835  36.446  28.082  12.860
61422W        W33836  44.449   3.946   2.675
61423W        W33837  14.814  40.869   3.671
61424W        W33838  32.493  22.074  12.004
61425W        W33839   6.748   9.317  11.027
61426W        W33840  19.155  14.764   2.358
61427W        W33841  33.032  34.558  10.550
61428W        W33842  14.272  36.989  11.063
61429W        W33843  28.175  44.381   2.775
61430W        W33844  18.711   7.338  12.950
61431W        W33845   3.443  24.176   4.235
61432W        W33846   1.292  14.743   2.302
61433W        W33847  22.134  27.634  12.499
61434W        W33848   8.267  28.108  13.548
61435W        W33849  29.945  25.117  14.926
61436W        W33850  10.361  19.077  14.809
61437W        W33851   6.868  38.873   1.798
61438W        W33852   5.217   7.725  12.570
61439W        W33853   4.708   4.228  14.766
61440W        W33854  31.033  24.607   0.821
61441W        W33855  31.449  35.486   1.723
61442W        W33856   8.397  12.631  10.561
61443W        W33857  19.133   1.932   1.811
61444W        W33858  35.507  26.553   4.606
61445W        W33859   6.217  14.831  12.579
61446W        W33860   2.397  36.519  13.968
61447W        W33861  11.849  16.229  12.434
61448W        W33862  42.815   4.713   3.698
61449W        W33863   2.339  36.425  14.983
61450W        W33864  28.563  24.980   2.723
61451W        W33865   8.767   4.868  11.414
61452W        W33866  30.568  35.878  11.044
61453W        W33867  18.183  18.053   0.247
61454W        W33868  28.950  11.764   3.219
61455W        W33869  37.457  19.757   3.650
61456W        W33870  25.056   7.281   3.271
61457W        W33871  44.873  34.019   4.607
61458W        W33872  23.670  39.988   4.317
61459W        W33873  10.829  23.052  10.458
61460W        W33874  27.140  15.601  11.891
61461W        W33875  25.479  26.491  10.614
61462W        W33876  32.990  17.130  13.002
61463W        W33877  37.940  42.940  13.930
61464W        W33878   6.780  16.306  12.425
61465W        W33879  42.503  23.211  11.605
61466W        W33880  44.448  32.956  11.106
61467W        W33881  42.858  35.603   4.630
61468W        W33882  29.428  30.625  11.880
61469W        W33883  33.950  27.948   1.832
61470W        W33884  37.469   3.838  14.772
61471W        W33885  11.710  35.045  13.418
61472W        W33886   6.189  35.360   4.610
61473W        W33887  44.005  43.905  12.513
61474W        W33888  28.980  41.467   0.824
61475W        W33889  16.754  22.505  10.594
61476W        W33890  23.550   7.349   1.758
61477W        W33891  26.607  22.122  12.839
61478W        W33892  19.596   3.278  14.032
61479W        W33893  12.689  25.153  14.356
61480W        W33894   7.177   9.254  12.545
61481W        W33895  30.954  15.657   2.684
61482W        W33896  39.552   4.732   4.305
61483W        W33897   3.302  23.689  10.536
61484W        W33898  29.443  36.384   4.310
61485W        W33899  31.563  29.117  11.392
61486W        W33900  35.522  14.666   3.384
61487W        W33901  35.995   2.465   1.299
61488W        W33902  16.176  22.224   2.331
61489W        W33903  39.556   2.262  11.475
61490W        W33904  10.306  15.726  14.790
61491W        W33905   4.735  34.037  10.909
61492W        W33906  37.554  33.527  12.066
61493W        W33907   7.752   1.400  14.771
61494W        W33908   8.203  16.745  11.014
61495W        W33909   9.812  38.466   2.848
61496W        W33910  28.007  28.649  11.415
61497W        W33911  16.179  43.970   4.797
61498W        W33912  37.983  16.301   0.406
61499W        W33913  42.282  16.757  14.938
61500W        W33914  33.100   8.381  14.882
61501W        W33915  30.516  44.457  11.079
61502W        W33916   9.857  38.415  11.037
61503W        W33917  18.108  14.771   3.706
61504W        W33918  35.471  34.539   2.790
61505W        W33919  21.556   6.392  10.409
61506W        W33920  23.008  20.030   0.890
61507W        W33921   7.292  44.427  13.456
61508W        W33922   5.394  34.410  10.535
61509W        W33923  11.186  22.593  14.964
61510W        W33924  22.590  34.106  11.031
61511W        W33925  12.741   0.254  11.121
61512W        W33926  10.673   1.454   0.468
61513W        W33927  13.282  25.620   1.764
61514W        W33928  19.253  19.688   3.764
61515W        W33929   3.760  21.136  10.157
61516W        W33930   1.854   4.210  13.874
61517W        W33931  37.029  43.777   2.879
61518W        W33932  16.794  37.037  13.831
61519W        W33933  38.937  18.699   2.739
61520W        W33934  20.604   2.942  12.073
61521W        W33935  26.099  36.889   4.289
61522W        W33936  15.207  40.873   2.889
61523W        W33937   8.773  30.637   4.151
61524W        W33938  24.227  14.138  11.405
61525W        W33939  32.480  30.455  13.921
61526W        W33940  26.144   1.823   0.395
61527W        W33941  31.638   9.713   0.333
61528W        W33942  35.536  32.968   1.227
61529W        W33943   0.333   1.917   2.299
61530W        W33944  41.373  32.978  10.909
61531W        W33945  16.155   7.819   2.339
61532W        W33946  37.964  17.673  14.329
61533W        W33947   7.346  25.690  14.910
61534W        W33948  42.320  33.545   3.794
61535W        W33949  10.794   3.713   1.836
61536W        W33950  28.507  35.972   1.317
61537W        W33951   9.874   0.333   4.700
61538W        W33952  31.536   7.199   4.599
61539W        W33953  16.609  17.192   0.268
61540W        W33954  22.659  44.931  10.597
61541W        W33955  29.529  28.614   0.384
61542W        W33956  21.658  12.189   4.264
61543W        W33957  44.470  19.717   3.818
61544W        W33958  17.752   2.239   3.787
61545W        W33959  13.698  44.764   1.739
61546W        W33960  26.053  21.666   3.677
61547W        W33961  37.939  28.158   2.335
61548W        W33962  25.060   7.271  14.286
61549W        W33963  34.414  33.974   2.205
61550W        W33964   1.421  26.186  14.876
61551W        W33965  43.915  39.448   0.354
61552W        W33966   5.256  33.950   0.942
61553W        W33967  21.633  33.117  13.917
61554W        W33968  11.772  18.060  13.865
61555W        W33969  27.955  14.770   0.813
61556W        W33970  29.547  40.347  12.030
61557W        W33971   0.427  27.450   2.329
61558W        W33972   8.708  24.188   1.328
61559W        W33973  25.134  44.307   9.543
61560W        W33974  38.848  29.014   9.982
61561W        W33975  43.408  15.323  13.459
61562W        W33976  43.469   6.749  11.993
61563W        W33977  33.566   6.368  10.501
61564W        W33978  16.205  23.581   2.304
61565W        W33979   5.922  40.517   0.754
61566W        W33980  42.840  38.984   1.399
61567W        W33981  39.334   2.236   4.135
61568W        W33982  32.404  17.136  11.466
61569W        W33983   3.244   1.919  13.428
61570W        W33984   5.855   1.895   2.399
61571W        W33985   6.842   4.223  11.027
61572W        W33986  44.296  23.561  11.375
61573W        W33987   4.933   2.290   3.780
61574W        W33988  35.499  20.042   3.769
61575W        W33989  30.560  16.271  14.896
61576W        W33990  43.464  32.431  11.514
61577W        W33991   0.911  43.320   1.792
61578W        W33992  35.947  15.772  13.547
61579W        W33993  36.850  19.645   1.447
61580W        W33994   0.871  19.775   0.450
61581W        W33995  25.577  20.686  10.949
61582W        W33996  25.045   7.184   4.620
61583W        W33997  35.073  11.866   0.347
61584W        W33998  43.447  25.169   3.750
61585W        W33999   7.790  44.261   5.275
61586W        W34000  11.224  39.059   0.850
61587W        W34001  29.444  39.444   0.836
61588W        W34002  25.711  27.995   5.248
61589W        W34003  36.978  31.987  13.974
61590W        W34004  28.035   4.926   5.158
61591W        W34005  16.573  25.079  13.356
61592W        W34006   2.255  13.345  11.930
61593W        W34007  31.634  41.366   3.761
61594W        W34008  21.609  21.514   1.761
61595W        W34009  33.079  35.939   1.786
61596W        W34010  19.770   8.335  13.024
61597W        W34011   7.171  30.445  13.828
61598W        W34012  27.073  36.497  12.346
61599W        W34013   3.414   6.366   1.803
61600W        W34014  23.655  31.604  14.791
61601W        W34015  42.025  20.085  10.924
61602W        W34016  20.235   5.225  12.068
61603W        W34017  32.981   4.262  14.962
61604W        W34018  29.591  12.793  13.392
61605W        W34019  43.398  17.601  11.907
61606W        W34020   0.421  26.596   2.324
61607W        W34021  17.179  34.060  12.530
61608W        W34022  39.953   5.917   2.799
61609W        W34023  13.784  41.466   4.196
61610W        W34024  12.655  35.486  10.581
61611W        W34025   2.902  19.127   2.777
61612W        W34026  23.211  22.560   2.418
61613W        W34027  19.049   7.877  14.782
61614W        W34028  18.755  44.897  13.332
61615W        W34029   2.451  29.934  12.499
61616W        W34030  44.462  25.065   1.371
61617W        W34031  14.832   4.347  14.816
61618W        W34032   7.834  40.322  10.595
61619W        W34033   7.700   5.370  13.882
61620W        W34034  32.502  37.560  10.492
61621W        W34035   9.340  27.476   1.292
61622W        W34036  34.894  33.991  12.849
61623W        W34037  19.115   2.875  11.519
61624W        W34038  44.349  15.125  13.834
61625W        W34039  24.060  20.108   2.284
61626W        W34040  14.263  27.554   1.934
61627W        W34041   7.857  18.085  12.427
61628W        W34042  44.009  19.207   3.173
61629W        W34043  33.559  24.570   2.283
61630W        W34044  17.781  33.615   1.422
61631W        W34045  26.518  41.957   0.288
61632W        W34046  21.753  20.170  13.425
61633W        W34047   5.221   3.261   4.597
61634W        W34048  23.185  40.409   0.308
61635W        W34049  29.618  41.488  11.593
61636W        W34050   3.239  14.778   1.847
61637W        W34051   3.711  10.333   2.756
61638W        W34052   9.855   5.274  11.908
61639W        W34053  14.135  15.246  14.443
61640W        W34054  26.505  20.610   4.628
61641W        W34055  15.761  17.788   2.667
61642W        W34056  36.584  29.445   1.803
61643W        W34057  24.145  18.070   1.899
61644W        W34058  13.263  20.671   0.292
61645W        W34059  44.782  19.609  12.979
61646W        W34060  44.896  34.102  11.865
61647W        W34061  38.433  11.865  11.987
61648W        W34062   3.300   9.225  13.437
61649W        W34063   7.315   5.265   2.202
61650W        W34064   7.747  15.313  11.541
61651W        W34065  17.291  37.860   1.405
61652W        W34066   6.236  40.898   1.767
61653W        W34067   3.748  11.624   3.863
61654W        W34068   8.367   8.173   1.341
61655W        W34069   3.834   5.217  13.818
61656W        W34070  37.951  16.764   0.471
61657W        W34071  25.085  27.188   0.740
61658W        W34072  19.576  30.028  14.972
61659W        W34073  31.994  31.909  11.452
61660W        W34074  29.480  15.087  12.916
61661W        W34075   7.317  14.148  14.795
61662W        W34076  34.880  31.065   2.392
61663W        W34077  41.957  41.961   4.125
61664W        W34078  17.173  30.943   2.806
61665W        W34079  31.607  36.586  11.953
61666W        W34080  19.700  29.499  12.087
61667W        W34081  15.805  10.651  11.461
61668W        W34082  32.461  38.328  11.382
61669W        W34083  32.434  16.756  13.904
61670W        W34084   1.331   2.904   0.423
61671W        W34085  34.458  44.872   1.734
61672W        W34086  36.981  38.964  10.631
61673W        W34087  17.696  11.274  11.036
61674W        W34088  29.106  37.969   4.782
61675W        W34089   4.251  22.063   3.308
61676W        W34090   5.756   7.369  14.862
61677W        W34091  42.800  21.671   3.707
61678W        W34092  27.604   1.396  11.399
61679W        W34093  23.221   1.467   2.365
61680W        W34094  28.563  23.726  14.379
61681W        W34095  31.078   6.305   0.441
61682W        W34096   6.793  12.848  14.989
61683W        W34097  22.647  26.527   3.296
61684W        W34098  32.036  36.896  11.033
61685W        W34099  39.916  22.044   4.124
61686W        W34100  24.024  28.174   0.272
61687W        W34101  29.454  44.260  12.517
61688W        W34102  38.956  22.218  14.427
61689W        W34103  44.816  25.114  14.024
61690W        W34104   9.828  13.343  11.372
61691W        W34105   9.234  44.865  11.541
61692W        W34106  17.110   1.744  12.999
61693W        W34107  34.907   8.893   1.231
61694W        W34108   4.296  32.471  13.817
61695W        W34109  35.385   2.855   3.829
61696W        W34110  26.986  16.183  11.109
61697W        W34111  36.402  20.765  14.010
61698W        W34112  30.071  11.724   1.822
61699W        W34113  10.325  25.189   1.762
61700W        W34114  25.990  21.728   1.435
61701W        W34115  39.335  28.952  14.350
61702W        W34116  10.282  21.146  12.829
61703W        W34117  16.709  34.041  14.930
61704W        W34118   9.215   8.660  12.362
61705W        W34119  17.177  33.387   4.662
61706W        W34120  23.549  38.962   3.217
61707W        W34121   8.821  20.274  14.353
61708W        W34122  18.637  35.962   0.904
61709W        W34123  30.555  30.654  12.895
61710W        W34124   4.716  33.938  11.917
61711W        W34125  21.642   4.804  12.846
61712W        W34126  40.532   0.818   3.802
61713W        W34127  12.266  28.932  11.486
61714W        W34128  38.373  32.543  10.116
61715W        W34129  28.179  25.981  13.032
61716W        W34130  17.795   4.359  13.947
61717W        W34131   9.755  39.048  14.933
61718W        W34132  23.035  14.639  13.446
61719W        W34133  30.477  26.520   0.927
61720W        W34134   5.839  24.702   3.830
61721W        W34135  42.991  17.793   1.382
61722W        W34136   4.306  31.637   1.817
61723W        W34137  36.546   1.839   3.631
61724W        W34138  25.704  10.665  10.499
61725W        W34139  22.134  34.522   0.847
61726W        W34140  27.136  16.199   1.833
61727W        W34141   0.434  24.999  14.817
61728W        W34142   4.323  34.864   0.432
61729W        W34143  23.220  36.426   3.834
61730W        W34144  39.421  38.881   2.184
61731W        W34145   2.374   9.351   1.727
61732W        W34146  35.377   3.360   4.127
61733W        W34147  14.699  41.008  10.461
61734W        W34148  30.543  37.949   3.843
61735W        W34149  25.072   8.333  14.886
61736W        W34150  36.884  37.917  14.402
61737W        W34151  32.430  13.321  13.986
61738W        W34152   4.220  24.674  13.881
61739W        W34153   3.346  28.610   4.730
61740W        W34154  30.525  42.303  13.900
61741W        W34155  24.202  25.471  14.293
61742W        W34156  37.078  35.425   0.790
61743W        W34157   1.428  33.959  10.450
61744W        W34158  17.284  16.162   0.774
61745W        W34159   5.704  24.639   2.864
61746W        W34160  33.483   4.718   2.304
61747W        W34161   9.688   2.352   1.917
61748W        W34162  29.015  36.850   1.419
61749W        W34163  15.739  12.205  14.497
61750W        W34164  28.548  27.590   0.435
61751W        W34165  20.678  19.764   3.274
61752W        W34166  36.899  17.133   2.776
61753W        W34167  23.131  25.044  14.801
61754W        W34168  29.477  18.231  14.979
61755W        W34169  15.168   4.868   2.354
61756W        W34170  37.853  36.889  12.343
61757W        W34171  36.400  36.900  12.428
61758W        W34172   4.875   9.322   0.273
61759W        W34173  33.482  31.580   3.699
61760W        W34174  16.149  14.685   2.197
61761W        W34175  15.668  21.083   5.308
61762W        W34176   2.898  25.030  13.025
61763W        W34177  31.024  38.823   5.285
61764W        W34178  14.168  17.139   0.312
61765W        W34179  12.133  19.064  10.618
61766W        W34180   3.376  11.741   0.265
61767W        W34181   2.965  32.602  10.611
61768W        W34182  41.397  44.932  13.501
61769W        W34183  25.474  13.761  11.873
61770W        W34184   1.969  35.554  14.368
61771W        W34185  21.188   6.334  12.852
61772W        W34186  44.856   4.342  11.401
61773W        W34187   2.777  31.916   3.299
61774W        W34188   1.400  12.838  13.952
61775W        W34189  41.393  38.478   2.793
61776W        W34190  16.227  42.811   5.199
61777W        W34191  32.955  28.041  14.970
61778W        W34192  20.608  11.660   1.335
61779W        W34193  19.268  14.133   4.682
61780W        W34194  38.058  17.173   2.898
61781W        W34195  16.226  29.455   3.853
61782W        W34196  27.167  39.860  14.904
61783W        W34197  33.411  33.536  13.330
61784W        W34198  37.084  42.892  13.859
61785W        W34199   8.181  41.537  11.900
61786W        W34200  39.447   5.195   1.818
61787W        W34201  29.139  26.169   0.726
61788W        W34202  18.588  37.407  14.825
61789W        W34203  21.159   9.156  13.490
61790W        W34204  27.144  24.118   1.768
61791W        W34205   2.957  19.069  11.067
61792W        W34206  25.483  34.477  10.543
61793W        W34207  19.700  22.606  13.307
61794W        W34208  35.527   1.904  10.512
61795W        W34209   9.689   9.167   2.880
61796W        W34210  28.131  23.172  12.871
61797W        W34211  19.185  21.134  10.468
61798W        W34212   4.705  12.611  12.054
61799W        W34213   8.692  23.675   1.249
61800W        W34214  20.592   8.265   1.922
61801W        W34215  26.106  19.219  14.888
61802W        W34216  26.648  43.820   2.871
61803W        W34217  15.739  27.189  12.520
61804W        W34218  33.001  22.569   3.666
61805W        W34219  39.823  25.513  12.063
61806W        W34220  13.193  19.664  11.067
61807W        W34221   5.854  24.489  14.424
61808W        W34222  24.575   4.752   0.407
61809W        W34223  39.906  24.483   0.754
61810W        W34224  29.086  29.053   2.246
61811W        W34225  37.974  21.175  11.095
61812W        W34226  33.059  31.562  13.458
61813W        W34227   6.685  42.026   0.346
61814W        W34228  14.203   1.783   2.727
61815W        W34229  21.586  21.260   1.874
61816W        W34230   0.789   0.942  11.987
61817W        W34231  41.876  41.982   1.314
61818W        W34232  41.832  15.663  13.336
61819W        W34233  41.848  33.073  12.346
61820W        W34234  16.807  19.725   9.967
61821W        W34235  12.708  32.891  13.052
61822W        W34236  14.202  18.763   0.267
61823W        W34237  11.760  40.937   4.209
61824W        W34238  25.475   1.479  12.948
61825W        W34239  11.855   6.742   0.417
61826W        W34240   1.973  31.099   0.887
61827W        W34241  33.623  36.363   1.727
61828W        W34242  17.607  14.148  11.525
61829W        W34243  31.019   5.305   4.344
61830W        W34244   6.798   8.395  13.383
61831W        W34245  26.608  37.924   4.129
61832W        W34246   6.334   6.301   4.640
61833W        W34247   0.848  40.013  13.824
61834W        W34248  39.510  33.978  12.473
61835W        W34249   3.851  24.518  10.483
61836W        W34250  20.734  32.895   0.296
61837W        W34251  15.712  17.736   5.687
61838W        W34252  29.661  11.857  10.541
61839W        W34253  25.110  42.849   0.303
61840W        W34254  17.225  10.289   4.348
61841W        W34255  31.916   8.251  13.358
61842W        W34256  15.145  27.669   1.804
61843W        W34257   8.391   6.866   0.829
61844W        W34258   4.942  31.556  11.569
61845W        W34259  18.103  16.590   1.823
61846W        W34260   3.860  23.511  13.447
61847W        W34261   5.877  16.318   4.325
61848W        W34262   3.834   4.430  12.461
61849W        W34263  27.054  28.099   0.912
61850W        W34264  37.336  30.146   2.341
61851W        W34265  35.917  31.085   4.332
61852W        W34266  42.995  42.927  12.944
61853W        W34267  12.842  23.597  12.043
61854W        W34268  41.999  31.427   4.623
61855W        W34269  34.410  26.176   4.676
61856W        W34270  16.075  22.198  14.017
61857W        W34271  35.513  30.927   4.221
61858W        W34272  38.899  33.385   2.370
61859W        W34273   1.444  13.162  12.893
61860W        W34274   5.896  21.690   4.686
61861W        W34275   2.960  21.022   4.642
61862W        W34276  21.511  17.606  10.558
61863W        W34277   1.824  33.033  11.512
61864W        W34278   5.410  11.696   2.394
61865W        W34279  36.949  36.093   1.398
61866W        W34280  21.604  11.281  14.865
61867W        W34281  22.707   4.793   1.248
61868W        W34282  18.780   4.443  10.556
61869W        W34283  28.520  44.860  12.399
61870W        W34284  40.021   2.890   3.853
61871W        W34285  33.575  38.048   0.389
61872W        W34286  22.062  34.013   0.906
61873W        W34287   4.224  23.987   0.265
61874W        W34288   4.386  16.575   3.776
61875W        W34289   8.892  27.634  13.861
61876W        W34290  32.116  41.304   0.347
61877W        W34291  32.501  26.010  11.541
61878W        W34292   8.353  43.961  13.403
61879W        W34293  30.643   5.364   3.819
61880W        W34294  12.681  41.023   0.745
61881W        W34295  22.642  27.475  13.308
61882W        W34296  24.495  24.114   2.208
61883W        W34297  32.885   4.289   3.292
61884W        W34298  39.429  43.803  11.017
61885W        W34299  43.808  43.355  13.836
61886W        W34300   2.830   2.269   0.279
61887W        W34301   9.718   1.482  13.498
61888W        W34302  28.438   6.412  11.067
61889W        W34303  25.097  36.926   4.597
61890W        W34304  42.928  37.565  11.856
61891W        W34305  44.939  32.630   2.334
61892W        W34306  20.184  31.480  11.916
61893W        W34307  11.809  39.452   2.707
61894W        W34308  37.918  25.677  11.373
61895W        W34309  23.557  25.994  13.448
61896W        W34310  16.672  27.563   2.206
61897W        W34311  43.448  44.816   1.785
61898W        W34312  27.007  13.836   4.796
61899W        W34313  18.166  26.473  11.502
61900W        W34314   3.853  33.539  12.857
61901W        W34315  25.169  35.933  12.048
61902W        W34316  40.896  10.372   3.641
61903W        W34317   3.298   4.736  12.025
61904W        W34318  13.215  22.018  13.323
61905W        W34319  13.702  21.200  11.125
61906W        W34320  11.304   5.722  14.924
61907W        W34321   6.342   6.340  13.403
61908W        W34322  36.992  19.719   3.825
61909W        W34323  41.454  16.716   3.369
61910W        W34324  28.451   9.303  13.548
61911W        W34325  33.451  14.317  14.774
61912W        W34326  22.558  31.972  11.867
61913W        W34327  21.643   7.328  12.509
61914W        W34328   0.447  33.394  14.425
61915W        W34329   8.696  24.669   2.769
61916W        W34330   2.318   4.337  13.891
61917W        W34331  44.834   6.401   0.839
61918W        W34332   9.882  33.600  11.580
61919W        W34333  19.563  16.655  12.358
61920W        W34334   2.279  33.995  13.496
61921W        W34335  29.515   9.268   4.329
61922W        W34336  38.000   5.905   4.346
61923W        W34337  23.241   6.884   3.165
61924W        W34338   7.851  29.993   2.716
61925W        W34339  12.702  13.650   4.186
61926W        W34340  31.494  23.185  11.566
61927W        W34341   1.810  23.151   4.661
61928W        W34342  26.150   2.884   0.264
61929W        W34343  31.140   6.804  10.421
61930W        W34344  21.020  22.110  11.893
61931W        W34345  24.096   3.276  11.441
61932W        W34346  22.589  31.493   3.860
61933W        W34347  31.933  32.636  10.552
61934W        W34348   3.759  36.991  14.767
61935W        W34349   6.716   6.832   3.369
61936W        W34350  39.902  34.446  11.935
61937W        W34351  18.635  30.535  10.147
61938W        W34352  39.438  32.033   1.877
61939W        W34353  28.958  10.781  10.963
61940W        W34354  31.581  15.717   4.328
61941W        W34355  37.863  37.362  13.883
61942W        W34356  35.916  21.157  10.600
61943W        W34357  25.517   5.855   1.214
61944W        W34358   4.363  15.641  10.959
61945W        W34359   6.298  26.560  14.481
61946W        W34360  39.047  17.686   0.771
61947W        W34361  21.026  20.200  14.904
61948W        W34362  36.980  23.991  14.302
61949W        W34363  37.505  35.370  10.542
61950W        W34364  39.808  34.379  13.993
61951W        W34365  26.071   8.757  10.640
61952W        W34366  27.684  16.714  11.078
61953W        W34367   8.316  13.682   2.816
61954W        W34368  33.078  29.487  10.582
61955W        W34369  34.965  31.472   0.309
61956W        W34370  12.201  15.708  12.052
61957W        W34371  20.708  15.089  14.941
61958W        W34372  15.241  14.328  13.007
61959W        W34373  39.544   7.194  11.009
61960W        W34374   7.883   8.716  10.010
61961W        W34375  31.632   8.738  13.973
61962W        W34376   1.950  33.941  10.549
61963W        W34377  43.875  13.738   3.285
61964W        W34378  41.848  19.176  12.891
61965W        W34379  18.210  35.867   4.144
61966W        W34380  34.560  14.143   2.336
61967W        W34381  39.852   0.452   0.745
61968W        W34382  37.412  41.002  12.564
61969W        W34383  21.201  42.987   1.413
61970W        W34384  15.732  22.699   1.783
61971W        W34385  21.066  22.202  10.559
61972W        W34386  41.475   4.252   2.706
61973W        W34387   9.802   6.809   0.786
61974W        W34388   7.326  11.758  10.992
61975W        W34389  39.545  10.862   3.146
61976W        W34390  33.874  17.630  13.345
61977W        W34391  10.761   2.837  13.531
61978W        W34392   6.306   7.737  12.996
61979W        W34393  34.574  18.618   4.139
61980W        W34394  21.140   7.861  10.499
61981W        W34395  41.391   3.439  14.375
61982W        W34396   3.328  31.909   5.188
61983W        W34397  10.685  36.082   3.326
61984W        W34398  20.035   9.852   0.461
61985W        W34399  23.543  11.288  13.915
61986W        W34400  27.688  12.164   3.181
61987W        W34401  14.778  29.525   4.331
61988W        W34402  39.922   3.813  10.435
61989W        W34403  27.943  23.030   1.808
61990W        W34404  23.645  15.685   4.320
61991W        W34405  15.158  14.238  13.841
61992W        W34406  29.663   0.983   1.294
61993W        W34407  10.731  14.725  11.980
61994W        W34408  22.711  11.729  10.064
61995W        W34409  14.293  14.241  14.824
61996W        W34410  42.499  19.075  10.531
61997W        W34411  31.559  12.171   3.251
61998W        W34412   4.348  25.541   0.831
61999W        W34413  30.494  15.169  10.932
62000W        W34414  11.645  14.662  13.341
62001W        W34415   5.268   2.837  10.598
62002W        W34416  27.631  38.867   2.223
62003W        W34417  17.105  31.468   2.876
62004W        W34418  17.798  37.410   4.206
62005W        W34419  11.323  12.838  13.884
62006W        W34420  12.134  42.417   1.918
62007W        W34421  18.197  38.488  13.340
62008W        W34422  25.191  39.979   0.329
62009W        W34423  13.322   3.323  14.010
62010W        W34424   0.328  42.332  11.531
62011W        W34425  35.042  24.095   1.754
62012W        W34426  12.344  16.264   1.394
62013W        W34427  12.798  29.638   1.696
62014W        W34428   1.732  37.550  11.063
62015W        W34429  24.164  18.555   9.616
62016W        W34430  42.386  39.384   3.753
62017W        W34431   6.784  25.697  13.946
62018W        W34432  10.313  13.736  10.467
62019W        W34433   5.341  43.834  13.937
62020W        W34434  10.791   0.969   0.726
62021W        W34435  15.316  10.352  13.493
62022W        W34436  43.959  23.593  12.831
62023W        W34437  39.991  40.052   2.230
62024W        W34438  24.706  14.739   0.270
62025W        W34439  37.001  32.431  13.889
62026W        W34440  29.003  33.929   3.191
62027W        W34441   9.792   1.822   4.185
62028W        W34442  22.064  12.725   3.800
62029W        W34443  29.098  17.293   2.786
62030W        W34444   5.773   7.886  11.009
62031W        W34445   5.416  31.571   2.367
62032W        W34446   4.801  30.529  13.997
62033W        W34447  29.503  44.382  14.387
62034W        W34448  28.145   6.838   4.267
62035W        W34449   7.870   3.812   3.715
62036W        W34450   9.796   8.330  12.906
62037W        W34451  44.335  31.520  11.392
62038W        W34452  32.507  25.217  12.087
62039W        W34453  14.274  34.392   0.804
62040W        W34454   7.749  27.545  11.588
62041W        W34455   2.724   2.819  14.277
62042W        W34456   2.462  41.845  10.024
62043W        W34457  23.186  22.649   1.410
62044W        W34458  39.332  17.675  10.906
62045W        W34459   9.364  23.557  14.363
62046W        W34460   1.853  40.897   1.857
62047W        W34461  37.505  22.117  12.043
62048W        W34462  14.832  31.973  10.601
62049W        W34463  33.425  12.256  11.978
62050W        W34464  24.569  22.502   3.868
62051W        W34465  25.111   6.262   1.351
62052W        W34466  31.151  41.435   0.252
62053W        W34467  44.356  15.733  13.059
62054W        W34468  24.173  20.033   4.214
62055W        W34469  11.826  41.986  11.081
62056W        W34470  32.984  42.815  10.629
62057W        W34471  38.422  34.576   3.744
62058W        W34472  22.576  36.950  14.481
62059W        W34473  25.021  30.595   2.701
62060W        W34474  23.507  28.081  13.822
62061W        W34475  27.143  26.698   1.299
62062W        W34476  17.102  35.580   1.694
62063W        W34477  32.945  30.597  11.596
62064W        W34478   1.318  14.763  12.540
62065W        W34479  40.394  42.422   0.407
62066W        W34480  22.035  13.221  14.007
62067W        W34481  11.666  24.182  11.997
62068W        W34482  39.985  21.131   0.950
62069W        W34483  20.271  36.420   4.753
62070W        W34484   4.367  28.523   5.725
62071W        W34485  40.500  28.976  10.159
62072W        W34486  19.625  18.099   2.859
62073W        W34487  30.152  32.090   0.880
62074W        W34488   1.373  18.256  10.448
62075W        W34489  42.930  35.022  11.048
62076W        W34490  28.668  37.875  12.870
62077W        W34491   1.286  42.811   1.349
62078W        W34492  11.256  37.571   4.118
62079W        W34493  23.016   3.854  11.605
62080W        W34494  23.719   9.271  12.955
62081W        W34495   9.719  33.625  14.797
62082W        W34496  26.490  39.976  12.403
62083W        W34497   4.321  22.622  12.914
62084W        W34498  39.556  42.472  11.982
62085W        W34499   3.230  13.765   0.327
62086W        W34500  41.517  23.688  10.605
62087W        W34501  37.353  22.178  12.562
62088W        W34502  37.065  26.647  12.351
62089W        W34503   4.802  41.994   5.607
62090W        W34504  16.232  33.410   4.128
62091W        W34505  41.898  33.578  14.769
62092W        W34506  20.122  14.146   2.845
62093W        W34507  21.264  27.492  11.937
62094W        W34508  35.052  44.347   4.805
62095W        W34509  17.725   7.229  13.325
62096W        W34510  19.575  23.615  14.000
62097W        W34511  17.788   2.448  14.868
62098W        W34512  43.335  29.528  13.853
62099W        W34513  36.942  18.137   3.256
62100W        W34514   2.781  35.026  13.024
62101W        W34515  29.101  31.623   1.232
62102W        W34516  44.944   5.821   2.232
62103W        W34517   5.795  40.945  11.607
62104W        W34518  39.888  36.584   4.334
62105W        W34519  17.085   7.288   2.813
62106W        W34520   8.290  34.486  12.544
62107W        W34521  20.207  21.257   4.147
62108W        W34522  18.676   4.337  11.555
62109W        W34523  12.240  10.817   3.261
62110W        W34524  13.728  30.056  14.502
62111W        W34525   7.687  12.204  11.599
62112W        W34526   5.243  43.996   4.721
62113W        W34527   4.819  16.196  11.407
62114W        W34528  39.840  44.825   4.142
62115W        W34529  34.564  40.812   1.404
62116W        W34530  37.016  29.518   3.828
62117W        W34531   8.772   0.907  10.503
62118W        W34532  22.232  32.609   1.261
62119W        W34533   3.902  33.012  13.464
62120W        W34534  31.616  34.600   3.333
62121W        W34535   7.187  26.554   0.772
62122W        W34536  27.690  11.855  13.442
62123W        W34537  24.505   1.735  12.361
62124W        W34538  30.658  21.092  10.640
62125W        W34539  42.871   1.339   1.822
62126W        W34540  11.702  32.070  10.145
62127W        W34541  18.162  19.561   2.806
62128W        W34542   6.836  34.500  14.922
62129W        W34543  40.862   1.370  12.506
62130W        W34544  15.234  37.962  12.874
62131W        W34545  10.751  33.380  11.442
62132W        W34546  28.179   5.838  11.554
62133W        W34547  30.121  37.476   3.773
62134W        W34548  41.533  22.590   4.290
62135W        W34549  28.087  17.281  14.995
62136W        W34550  10.816  21.717  12.431
62137W        W34551   3.895  16.081   1.777
62138W        W34552  44.360   2.905  10.129
62139W        W34553  23.161  42.869   4.730
62140W        W34554  27.691  41.534   3.722
62141W        W34555  34.573   4.450   0.469
62142W        W34556  15.583  28.497  13.516
62143W        W34557  21.735   8.220  11.394
62144W        W34558   0.775  33.116   3.186
62145W        W34559  19.548  32.504   1.279
62146W        W34560   3.244  38.025  12.011
62147W        W34561  25.161  23.674   2.823
62148W        W34562  25.607  25.046  13.925
62149W        W34563  32.577  28.663  13.526
62150W        W34564  21.249  15.776  13.894
62151W        W34565  31.017  11.283  14.510
62152W        W34566  26.633  42.784   2.320
62153W        W34567  43.297   8.297  13.357
62154W        W34568   1.866  35.924  14.968
62155W        W34569  13.840  25.022   0.801
62156W        W34570  41.476  40.041   4.838
62157W        W34571  12.238   0.319  14.463
62158W        W34572  44.371  18.629  14.424
62159W        W34573  27.156  24.509   1.754
62160W        W34574  24.479  17.668   5.247
62161W        W34575  10.202  11.636  13.821
62162W        W34576  26.135  23.510  14.290
62163W        W34577  24.056  12.249  12.380
62164W        W34578  42.525  44.796   0.425
62165W        W34579  13.155   2.294  12.479
62166W        W34580  26.658  15.110  12.036
62167W        W34581   1.360   0.355   1.896
62168W        W34582   9.353  38.952  10.529
62169W        W34583  37.070  30.642   1.758
62170W        W34584  24.499  25.478   3.737
62171W        W34585  28.183   2.249  10.533
62172W        W34586  36.557   9.237  12.553
62173W        W34587  30.162  44.444  10.493
62174W        W34588   0.797  10.259   5.226
62175W        W34589  24.021   3.261   2.194
62176W        W34590  34.940  23.226  10.472
62177W        W34591  25.108  42.435  13.504
62178W        W34592  31.590   7.234  13.917
62179W        W34593  10.235  29.475   2.898
62180W        W34594  19.614  43.840  14.478
62181W        W34595  34.606  23.074   5.280
62182W        W34596   1.395  17.101   0.377
62183W        W34597  28.607  12.169  14.844
62184W        W34598  37.892   6.339  12.494
62185W        W34599  44.494  24.625   3.784
62186W        W34600  40.895  28.680   4.159
62187W        W34601  32.910  35.505  11.920
62188W        W34602   8.198  17.616   3.246
62189W        W34603  37.845  42.367   4.346
62190W        W34604  12.812  39.441  11.516
62191W        W34605  11.662  33.112  13.043
62192W        W34606  14.685  32.948  14.016
62193W        W34607  15.195  39.539   3.155
62194W        W34608  18.688  19.719  11.866
62195W        W34609   4.257  39.436  13.951
62196W        W34610  36.981  42.835   3.811
62197W        W34611  13.744  33.090  13.350
62198W        W34612  40.972  30.490   3.799
62199W        W34613  40.864  33.425   2.410
62200W        W34614  37.565  43.417   4.753
62201W        W34615  25.635  35.899   3.815
62202W        W34616   7.757  16.680   3.764
62203W        W34617  25.118  40.919  14.330
62204W        W34618   1.828  10.226   3.228
62205W        W34619  41.850  30.992  11.438
62206W        W34620   0.408  40.425   2.297
62207W        W34621  40.977  36.472  12.085
62208W        W34622  31.982  31.603   3.229
62209W        W34623  37.350  31.898  13.332
62210W        W34624  23.543  44.893   2.296
62211W        W34625  36.449   8.166  11.995
62212W        W34626  42.518   5.371   4.625
62213W        W34627   1.371  22.080   2.328
62214W        W34628  41.886  26.043  11.421
62215W        W34629   4.728  34.000  11.471
62216W        W34630  42.520   3.805   2.764
62217W        W34631  30.497   5.237  11.874
62218W        W34632   1.352  34.969  11.523
62219W        W34633  23.633  15.295  11.917
62220W        W34634  40.438  35.564   1.398
62221W        W34635  21.717  22.188   2.820
62222W        W34636   1.870  39.512  12.499
62223W        W34637  29.002  24.549  12.831
62224W        W34638  12.175   1.433  12.974
62225W        W34639  32.549  43.510   0.785
62226W        W34640  23.165   7.334   1.850
62227W        W34641   7.385  38.914  10.413
62228W        W34642  35.931  34.473  11.426
62229W        W34643  18.224  33.107  11.118
62230W        W34644  28.631  42.874  13.006
62231W        W34645  31.123  12.654  14.849
62232W        W34646  24.645   1.835   1.771
62233W        W34647  40.443  11.805   3.866
62234W        W34648   5.199  42.442  13.410
62235W        W34649  16.222  20.597  13.376
62236W        W34650  28.018  38.547  13.999
62237W        W34651  27.598  37.880  10.552
62238W        W34652  44.383  22.057   2.299
62239W        W34653   8.352  13.740   4.245
62240W        W34654   1.838  13.805  11.007
62241W        W34655  26.069  25.469   0.360
62242W        W34656  11.163  35.543  12.372
62243W        W34657  21.028   1.260  13.063
62244W        W34658  42.411  25.619  13.027
62245W        W34659  19.199  37.448  11.951
62246W        W34660  15.088  12.779  14.449
62247W        W34661  12.785   2.452  12.063
62248W        W34662  31.077  25.168   2.788
62249W        W34663  23.634  31.443   1.871
62250W        W34664  14.620  14.727  11.555
62251W        W34665  44.800  33.393   1.923
62252W        W34666   4.267  13.624  13.329
62253W        W34667   3.766   2.254   1.339
62254W        W34668  36.038   1.813  14.451
62255W        W34669  29.034  27.993   2.302
62256W        W34670  34.996  36.538   2.246
62257W        W34671  43.947  41.864   2.393
62258W        W34672  37.878  38.954  11.414
62259W        W34673   7.268  23.089   0.892
62260W        W34674  27.104  44.806   3.707
62261W        W34675   6.399  13.827  14.372
62262W        W34676   7.681  43.831  13.903
62263W        W34677  15.684  37.937  14.368
62264W        W34678  38.047   4.771  10.994
62265W        W34679  26.043  22.057   4.239
62266W        W34680  15.308  43.898  10.980
62267W        W34681  21.564  33.421   1.743
62268W        W34682  16.653  26.607   1.752
62269W        W34683   7.199   4.770  13.798
62270W        W34684  28.159  30.589  10.615
62271W        W34685  14.104  24.604   0.897
62272W        W34686  18.058   0.982   5.223
62273W        W34687  17.699  13.278   1.858
62274W        W34688  29.924  17.272  14.507
62275W        W34689  17.748   1.835   1.842
62276W        W34690   8.262  18.078   1.775
62277W        W34691  34.417   0.307  12.552
62278W        W34692  17.202  15.084   1.407
62279W        W34693  16.584  24.195   2.255
62280W        W34694  13.656   6.874   9.929
62281W        W34695  10.858  38.571   1.841
62282W        W34696  22.069  26.617  12.434
62283W        W34697  22.740  27.453   2.272
62284W        W34698  32.007  33.549   1.449
62285W        W34699  21.231  30.135  12.519
62286W        W34700  19.564  42.011  12.835
62287W        W34701  30.634  13.812   1.767
62288W        W34702  27.191  36.348   3.339
62289W        W34703  30.635  43.467   0.834
62290W        W34704  19.595  23.085   1.419
62291W        W34705  43.408  33.979  10.596
62292W        W34706  35.513  32.098   5.259
62293W        W34707   3.780  44.889   4.818
62294W        W34708  41.459  36.423   5.155
62295W        W34709   6.406  44.819  14.398
62296W        W34710  15.804  26.512   2.804
62297W        W34711   3.306  40.521  10.612
62298W        W34712   5.262  39.818  12.017
62299W        W34713  13.260   8.851  14.314
62300W        W34714  21.534  38.550  14.954
62301W        W34715   8.179  17.195  13.987
62302W        W34716   6.359  24.086  10.420
62303W        W34717  23.052  23.155  11.862
62304W        W34718  33.939   6.363   1.814
62305W        W34719  44.323  15.646  10.943
62306W        W34720  32.598  41.844  12.455
62307W        W34721  15.634  16.185  13.899
62308W        W34722   5.320  35.048  14.307
62309W        W34723   6.706   3.273   3.685
62310W        W34724   1.804  16.702  10.579
62311W        W34725   6.295  32.128   3.218
62312W        W34726  24.509  16.724   2.200
62313W        W34727  34.930  10.354  12.096
62314W        W34728   7.387   9.645  12.477
62315W        W34729  25.617  19.762  11.566
62316W        W34730  23.500  39.824  11.384
62317W        W34731   0.931  44.948  14.788
62318W        W34732   8.193   4.229   4.337
62319W        W34733  39.521  31.625   2.772
62320W        W34734  14.712  35.069  12.048
62321W        W34735   0.924  30.537   0.824
62322W        W34736  32.137  24.106   0.382
62323W        W34737  16.662   8.306   3.852
62324W        W34738  39.444   0.936  13.470
62325W        W34739   5.287  38.349  13.492
62326W        W34740  22.652  28.080   1.759
62327W        W34741  35.975  43.015   0.349
62328W        W34742  23.715  19.621   1.329
62329W        W34743  43.483  14.174  13.491
62330W        W34744  43.815  27.475  12.541
62331W        W34745  42.805  43.331  13.329
62332W        W34746  29.454  28.569   1.889
62333W        W34747  18.720  39.512  13.012
62334W        W34748  38.064  44.327  11.541
62335W        W34749  16.700  36.409  13.534
62336W        W34750   8.270   8.320   2.325
62337W        W34751  34.485  33.586   1.287
62338W        W34752   4.928   7.222  14.505
62339W        W34753  20.537  38.539  11.448
62340W        W34754  44.483  28.638  13.455
62341W        W34755  38.434  11.658  12.431
62342W        W34756  11.653  17.557  11.957
62343W        W34757  23.564  13.703  13.360
62344W        W34758  34.419  37.929   0.364
62345W        W34759  28.069  33.897   2.201
62346W        W34760  41.927   1.371  11.521
62347W        W34761  21.106  35.542   0.937
62348W        W34762   6.218   0.946   2.373
62349W        W34763  37.893   5.330   0.799
62350W        W34764   3.394  23.600  11.019
62351W        W34765   5.740  43.277   2.775
62352W        W34766   0.314  42.436  12.946
62353W        W34767   9.281  14.243   0.471
62354W        W34768  20.121   6.297  12.546
62355W        W34769   3.379   3.829   4.210
62356W        W34770  37.942  24.643  11.043
62357W        W34771  27.949  22.572   9.976
62358W        W34772  23.683  44.929   0.748
62359W        W34773  22.578  36.570  13.357
62360W        W34774   5.899  43.279  12.369
62361W        W34775  12.781  25.179   4.182
62362W        W34776  17.667  43.771  14.833
62363W        W34777  32.071   7.876   0.881
62364W        W34778   2.941  10.143   0.903
62365W        W34779   5.277  26.134   0.889
62366W        W34780   5.738  12.358  14.883
62367W        W34781  24.110   0.434  11.046
62368W        W34782  35.034  15.313   4.691
62369W        W34783  30.155   6.264  12.863
62370W        W34784  30.087  15.323   4.170
62371W        W34785  18.618  15.089   3.267
62372W        W34786  21.519  21.118   3.248
62373W        W34787  13.329   8.805   1.300
62374W        W34788  24.152  42.459  10.463
62375W        W34789  28.064  12.742   4.140
62376W        W34790  21.627  11.304  12.572
62377W        W34791  39.432  14.163   0.780
62378W        W34792  35.391   3.938   0.261
62379W        W34793  27.685   8.337  13.046
62380W        W34794  15.172  12.248   2.371
62381W        W34795  43.323  39.345  14.390
62382W        W34796  27.653  27.950  13.954
62383W        W34797  23.638  35.935  11.499
62384W        W34798  32.963  13.244  14.887
62385W        W34799   3.885  19.043   3.183
62386W        W34800  33.552  11.764   1.737
62387W        W34801  14.247  16.664   4.773
62388W        W34802  19.690  26.492   4.802
62389W        W34803  36.013  34.589   4.180
62390W        W34804  28.533  30.148   1.418
62391W        W34805  18.221   2.737  14.904
62392W        W34806  25.070  43.784   0.360
62393W        W34807  11.670  40.823  14.986
62394W        W34808   6.220  25.114  10.130
62395W        W34809  44.308  21.057   3.717
62396W        W34810  17.075  31.043  14.514
62397W        W34811  10.255  27.175   4.214
62398W        W34812   9.267  19.098   3.328
62399W        W34813  37.882  35.964  13.423
62400W        W34814  25.079   0.397   1.218
62401W        W34815   0.489  35.444   2.322
62402W        W34816  39.871  30.925  11.055
62403W        W34817  16.246   7.902  11.435
62404W        W34818  15.172   7.182   3.724
62405W        W34819  30.953  28.082  13.492
62406W        W34820  23.007  32.602  10.534
62407W        W34821  33.079   7.831  13.374
62408W        W34822   5.282   2.784  10.899
62409W        W34823  35.532   5.709   4.174
62410W        W34824  26.165  11.621  10.529
62411W        W34825  32.422  20.695   1.328
62412W        W34826   3.943  34.912   1.254
62413W        W34827  27.021  32.992  14.770
62414W        W34828  20.568  40.873   0.267
62415W        W34829  27.097  35.016  14.369
62416W        W34830  20.597  35.472   3.285
62417W        W34831  36.391  14.244  11.035
62418W        W34832  38.052  20.243  11.396
62419W        W34833  33.586  18.696  10.506
62420W        W34834  23.523  43.421  11.550
62421W        W34835  13.201   5.813  11.500
62422W        W34836  43.944   0.329   1.833
62423W        W34837  40.513  38.005   4.291
62424W        W34838  32.496  28.669  11.550
62425W        W34839  36.974  34.911   3.782
62426W        W34840   1.350  25.692   4.350
62427W        W34841  24.015   7.417   3.351
62428W        W34842  29.644   1.378   3.756
62429W        W34843  36.000  11.254  14.426
62430W        W34844  38.410  25.210  11.869
62431W        W34845  20.074  30.917  12.484
62432W        W34846  34.528  23.646   0.399
62433W        W34847   9.792  35.576  14.390
62434W        W34848  16.314  33.522  12.845
62435W        W34849  43.928  33.569  10.491
62436W        W34850  24.022   6.395  10.557
62437W        W34851  26.485  23.072  11.885
62438W        W34852   7.683  19.693   3.855
62439W        W34853   2.388  11.623   9.920
62440W        W34854  34.061  31.063  10.589
62441W        W34855  11.697  29.649  11.944
62442W        W34856  42.775  29.108  11.498
62443W        W34857  41.971  22.115  10.922
62444W        W34858  16.096   6.358   2.188
62445W        W34859  31.623  42.450   2.738
62446W        W34860  29.433  22.642  13.907
62447W        W34861   6.378  29.002  11.548
62448W        W34862  37.912  31.528   0.285
62449W        W34863  29.627   2.237   3.372
62450W        W34864  38.904   1.321  13.547
62451W        W34865   6.231  38.422   0.326
62452W        W34866  39.413  21.031  11.896
62453W        W34867  31.518  26.495   4.780
62454W        W34868   7.697  28.983  12.440
62455W        W34869  14.695  19.244  14.819
62456W        W34870  13.845  16.220   4.638
62457W        W34871   6.196  36.576  12.565
62458W        W34872  43.885  28.676  12.919
62459W        W34873  28.611   9.274   1.332
62460W        W34874  36.934   4.779   0.898
62461W        W34875  44.392  29.992   3.365
62462W        W34876  27.186  26.993   1.272
62463W        W34877  39.459  14.145  13.026
62464W        W34878  21.143  14.099   2.743
62465W        W34879  13.668  41.301   3.649
62466W        W34880  17.631  23.603   4.126
62467W        W34881   2.416  34.076   1.287
62468W        W34882  40.004  33.945  13.425
62469W        W34883  31.145  11.342   2.757
62470W        W34884  16.275  19.540  11.127
62471W        W34885  21.652   5.250  12.548
62472W        W34886  32.524  23.070   3.282
62473W        W34887  28.457  23.034  13.368
62474W        W34888  11.286  37.067  10.578
62475W        W34889  25.046  28.476   1.730
62476W        W34890  40.881  36.980   4.824
62477W        W34891  12.233   1.928  11.517
62478W        W34892  41.963  40.943   0.905
62479W        W34893   9.826  19.169  13.856
62480W        W34894  34.919  40.324   5.088
62481W        W34895  12.719  19.567   2.890
62482W        W34896   4.260  39.049   0.448
62483W        W34897   5.817   5.907   0.900
62484W        W34898  29.122   3.736   1.274
62485W        W34899  24.069   1.754   9.937
62486W        W34900   8.858  27.115   1.347
62487W        W34901  41.941  24.566   4.186
62488W        W34902   4.730  44.755  13.981
62489W        W34903   4.861  24.638   3.164
62490W        W34904  28.478  17.078   3.775
62491W        W34905  15.129  38.554  12.553
62492W        W34906  44.831   5.250   0.795
62493W        W34907   4.945  34.881  11.019
62494W        W34908  40.532  20.691  11.395
62495W        W34909  30.649   7.330   1.315
62496W        W34910  16.312   8.329   5.765
62497W        W34911   0.860   5.847  14.025
62498W        W34912   7.755  31.116  12.339
62499W        W34913   9.720  37.509  12.988
62500W        W34914  30.472   4.779   2.803
62501W        W34915  34.474  21.127  10.905
62502W        W34916  10.355  42.362  11.985
62503W        W34917  11.778  22.058  14.895
62504W        W34918  24.603   8.245   4.330
62505W        W34919  15.127  42.826   4.654
62506W        W34920  19.643  44.869   5.300
62507W        W34921   7.717  20.235  14.421
62508W        W34922   7.172   3.371   3.807
62509W        W34923  19.191  22.187  11.965
62510W        W34924   0.846   8.734   1.438
62511W        W34925   1.311  19.054   1.867
62512W        W34926   8.725  19.756   1.847
62513W        W34927  29.544  31.431   4.727
62514W        W34928  17.674  39.496  12.494
62515W        W34929  15.194  41.906  14.458
62516W        W34930  19.234   8.672  14.952
62517W        W34931  17.224  23.562   1.363
62518W        W34932  33.540  35.952   3.200
62519W        W34933  34.879  17.671   0.424
62520W        W34934  24.209  35.596   3.732
62521W        W34935   8.188  32.108   2.728
62522W        W34936  26.978  39.426  12.408
62523W        W34937  39.445  12.137  11.024
62524W        W34938   1.253  38.945   4.780
62525W        W34939  42.934  38.858   1.703
62526W        W34940   0.362  27.169  10.584
62527W        W34941  16.246  14.604   3.278
62528W        W34942  19.240   4.395   1.426
62529W        W34943  38.850  32.920  11.467
62530W        W34944   6.723  24.172   2.834
62531W        W34945  42.421  38.439   0.366
62532W        W34946  25.061  12.819  13.329
62533W        W34947  19.256  25.085   4.168
62534W        W34948  42.873   6.332   2.756
62535W        W34949  26.691  27.956   2.375
62536W        W34950  36.992  30.598  14.875
62537W        W34951  39.407  28.442   1.831
62538W        W34952   0.413  17.090   1.777
62539W        W34953  43.000  26.538  12.398
62540W        W34954  11.178  35.506   3.738
62541W        W34955  13.709  16.209   1.421
62542W        W34956  27.967  23.002   2.236
62543W        W34957  25.052  24.582  11.046
62544W        W34958  30.164  29.647   3.824
62545W        W34959   2.407  20.116  11.097
62546W        W34960  11.317  42.332   2.274
62547W        W34961  31.047   7.310   1.888
62548W        W34962   7.800  18.709   1.806
62549W        W34963  11.685  13.290  13.029
62550W        W34964  26.184  22.026   3.669
62551W        W34965  41.479   1.895   0.392
62552W        W34966  40.442   6.815   0.391
62553W        W34967  22.733   4.826   3.803
62554W        W34968   4.774  37.973   1.764
62555W        W34969  30.617  31.991   1.436
62556W        W34970  13.350  18.156   9.666
62557W        W34971  11.836   9.726   3.377
62558W        W34972  34.496  43.021   4.140
62559W        W34973  26.472   5.284   4.116
62560W        W34974  10.732  29.088   1.729
62561W        W34975  33.617  40.868  12.056
62562W        W34976  30.165  20.152  12.381
62563W        W34977   6.251  43.950  11.090
62564W        W34978  39.450  21.638  11.387
62565W        W34979   6.800  33.920  13.509
62566W        W34980  44.937  22.720  12.545
62567W        W34981   0.326   9.358   1.379
62568W        W34982  14.213  42.410   3.857
62569W        W34983  14.709  19.766   0.264
62570W        W34984   7.390  34.919  10.981
62571W        W34985  14.318  23.128   1.226
62572W        W34986  10.355   9.658   2.860
62573W        W34987  41.839  42.883   5.109
62574W        W34988   5.277  41.957  10.436
62575W        W34989  35.602  20.234   3.242
62576W        W34990   5.825  31.612  11.561
62577W        W34991   2.787  22.627   1.917
62578W        W34992  13.338   8.204   1.785
62579W        W34993  29.659  28.555  11.009
62580W        W34994   0.901  27.027  12.400
62581W        W34995  11.217  37.346  12.069
62582W        W34996   0.918  29.447   1.702
62583W        W34997  29.538  41.925  12.918
62584W        W34998  11.331   9.285  14.911
62585W        W34999   4.411  38.063  13.044
62586W        W35000  41.794  25.601   2.205
62587W        W35001  44.008  34.914   3.357
62588W        W35002  28.104   7.233   3.212
62589W        W35003  37.476  42.984  11.396
62590W        W35004  25.093   8.280   0.752
62591W        W35005  32.079  13.839   0.797
62592W        W35006  37.959   2.348  14.802
62593W        W35007  23.733  26.047  12.979
62594W        W35008   0.839   8.281   4.715
62595W        W35009  35.975  40.534  13.357
62596W        W35010  39.964  24.011  12.541
62597W        W35011  36.522  27.128  13.471
62598W        W35012  34.553  41.507  13.992
62599W        W35013  18.767  27.178   1.253
62600W        W35014   5.803  24.578  10.527
62601W        W35015  43.391  17.252   1.754
62602W        W35016  44.417  11.264   4.786
62603W        W35017  39.395   5.381  12.406
62604W        W35018   4.277   0.858  11.463
62605W        W35019  15.653  18.234   0.388
62606W        W35020  23.143   7.351   4.608
62607W        W35021  26.684  30.535  11.375
62608W        W35022  41.487  10.854  10.442
62609W        W35023  33.402   3.759   4.600
62610W        W35024  22.636  14.760   2.273
62611W        W35025  39.340  12.170  14.967
62612W        W35026  18.595  23.660  10.009
62613W        W35027   2.433  14.620   0.310
62614W        W35028  41.792   6.383  14.798
62615W        W35029  33.392  15.089  10.554
62616W        W35030  40.835  36.574  12.840
62617W        W35031  16.743  42.925   0.850
62618W        W35032   0.775  40.519   1.742
62619W        W35033  33.088  18.199   0.757
62620W        W35034  25.214  26.653  10.545
62621W        W35035  30.473   5.881   2.742
62622W        W35036  21.098  40.846  14.831
62623W        W35037  39.953  22.703  12.997
62624W        W35038  13.836   1.894  12.031
62625W        W35039  19.727  33.400   5.184
62626W        W35040   6.763  31.463  10.575
62627W        W35041   5.740  33.061   3.162
62628W        W35042  23.215  20.118  13.009
62629W        W35043  16.138   4.350   3.314
62630W        W35044   8.728  42.917  11.473
62631W        W35045  17.133  40.867  14.933
62632W        W35046   3.915  31.476   4.615
62633W        W35047   2.294  36.897  12.497
62634W        W35048  41.496   6.282  12.935
62635W        W35049  20.529   8.873   0.469
62636W        W35050   5.718  28.152   4.213
62637W        W35051  42.029   5.435  10.918
62638W        W35052  31.519  25.576   2.803
62639W        W35053  28.585   7.837   3.232
62640W        W35054  12.301   9.889   0.961
62641W        W35055  11.659  31.914   0.812
62642W        W35056  11.351  30.646  11.020
62643W        W35057  43.932  16.610   0.912
62644W        W35058  17.575   1.817   3.850
62645W        W35059  17.733  29.101  13.862
62646W        W35060   5.844  22.140   0.746
62647W        W35061  14.679   5.837  11.051
62648W        W35062   5.830  36.590   0.860
62649W        W35063  26.603  22.713   4.607
62650W        W35064  40.883   0.868   0.270
62651W        W35065  23.518  18.623  12.580
62652W        W35066  40.462  15.240   0.952
62653W        W35067  18.180  20.606  12.466
62654W        W35068  35.485  19.573  13.906
62655W        W35069  12.176   1.353   4.774
62656W        W35070   0.797   3.359   5.106
62657W        W35071  33.409  31.446   0.255
62658W        W35072  24.587   9.208   2.237
62659W        W35073  32.938  16.750  13.977
62660W        W35074   4.377  33.079   0.884
62661W        W35075   0.778  44.359  13.309
62662W        W35076  29.577  40.998  10.494
62663W        W35077  15.717  28.445   1.722
62664W        W35078  18.705  39.537  11.510
62665W        W35079  11.367   0.409   2.785
62666W        W35080  11.169  28.558   4.116
62667W        W35081  40.895  32.953   3.247
62668W        W35082  40.996  30.417  11.992
62669W        W35083  10.203  27.980   1.833
62670W        W35084  32.392   9.312   1.213
62671W        W35085  16.773  23.108   2.400
62672W        W35086  41.012  28.113  12.976
62673W        W35087   2.894  34.555  14.777
62674W        W35088  26.523  26.647  14.865
62675W        W35089  13.227  30.617   4.195
62676W        W35090   1.859  23.120   0.805
62677W        W35091  21.702   8.248   1.706
62678W        W35092  27.120  33.506   4.342
62679W        W35093   8.740  37.582   4.128
62680W        W35094  40.005  11.297   1.231
62681W        W35095  20.766  28.438  13.801
62682W        W35096  35.550  25.980  13.456
62683W        W35097  37.411  37.911   0.957
62684W        W35098  38.983  36.999   0.276
62685W        W35099   9.191   4.858  10.556
62686W        W35100  39.547  43.945  13.792
62687W        W35101  24.057  24.664  12.361
62688W        W35102  22.117   0.483  11.577
62689W        W35103  21.151  10.816  14.023
62690W        W35104  17.688  33.558  13.994
62691W        W35105   6.316   7.322   2.193
62692W        W35106  13.156  14.097   5.267
62693W        W35107  12.664   8.862   5.081
62694W        W35108  43.497  32.101   0.837
62695W        W35109  21.208  25.060   3.762
62696W        W35110   0.969  32.138  14.438
62697W        W35111  12.714  30.069  13.352
62698W        W35112  31.915   8.897   1.322
62699W        W35113  29.044  16.566   0.445
62700W        W35114   3.833  34.436   1.218
62701W        W35115  39.505  13.655   3.254
62702W        W35116  13.340  21.722  10.597
62703W        W35117  32.121   6.318   5.142
62704W        W35118   2.780  24.639  13.023
62705W        W35119  23.171  19.731   1.755
62706W        W35120  18.774  19.160  11.592
62707W        W35121  18.126   4.256   0.746
62708W        W35122  19.065  18.051   2.393
62709W        W35123   1.301  22.626   1.243
62710W        W35124  14.763  39.821   2.773
62711W        W35125   7.898  36.524  11.557
62712W        W35126  32.099  19.702  13.932
62713W        W35127  18.162  34.892  10.463
62714W        W35128   3.889  20.643  12.865
62715W        W35129  36.848   4.212  11.879
62716W        W35130   2.368  21.678   0.839
62717W        W35131  19.536   9.153   0.300
62718W        W35132  22.680  35.371  10.438
62719W        W35133  29.629   8.899  10.898
62720W        W35134  24.494  14.124   4.327
62721W        W35135   8.799  14.770  12.911
62722W        W35136  32.968   5.889  14.863
62723W        W35137  41.014  15.087  14.010
62724W        W35138   2.834  26.980  12.523
62725W        W35139  15.745  38.383   2.703
62726W        W35140   6.325  43.372   2.857
62727W        W35141  18.640   6.743  14.285
62728W        W35142  32.521  15.102   4.333
62729W        W35143  44.827  18.731  12.025
62730W        W35144  41.799   3.730   4.116
62731W        W35145  13.350  29.097   1.360
62732W        W35146  21.525  16.240   0.931
62733W        W35147  39.383  21.652  11.049
62734W        W35148  14.111  29.957  11.415
62735W        W35149  16.193  40.474   2.357
62736W        W35150   8.361  37.986  14.496
62737W        W35151  35.977  35.364  12.570
62738W        W35152  15.231  16.808   4.728
62739W        W35153  11.714   9.768   2.339
62740W        W35154  40.829  33.089  13.876
62741W        W35155  28.086   1.375   3.704
62742W        W35156  24.197  29.128  10.546
62743W        W35157  33.051  38.482   2.705
62744W        W35158  23.036   5.431  10.586
62745W        W35159  32.898  40.910   1.397
62746W        W35160   7.775  33.467  13.320
62747W        W35161  15.743   7.756   5.167
62748W        W35162   6.316  16.600  10.932
62749W        W35163  31.130  39.450  12.901
62750W        W35164   6.693  35.482  14.940
62751W        W35165  11.863  44.265  11.947
62752W        W35166  12.722  25.611  12.549
62753W        W35167  10.144  13.609   3.737
62754W        W35168  31.571  44.913   2.830
62755W        W35169  33.026   9.717  10.517
62756W        W35170  20.254  26.050   0.267
62757W        W35171   6.347  20.550  10.965
62758W        W35172   8.352  13.679   1.341
62759W        W35173  27.666  35.882  11.938
62760W        W35174  21.708   1.419   0.282
62761W        W35175   9.811  27.028  13.846
62762W        W35176  29.464  10.762   0.933
62763W        W35177  21.684  24.997  12.380
62764W        W35178  18.068  17.674   1.710
62765W        W35179  44.383  44.956   2.666
62766W        W35180   4.858  10.181   2.296
62767W        W35181  40.343   3.946   1.451
62768W        W35182  27.127  17.627   1.850
62769W        W35183  37.996  26.599  11.610
62770W        W35184   5.212   1.827  14.811
62771W        W35185  34.394  39.874  13.391
62772W        W35186  29.597  14.684   2.755
62773W        W35187  20.086   3.458   0.420
62774W        W35188  10.349   2.799  12.495
62775W        W35189   8.665  23.027   1.222
62776W        W35190  18.282   2.832  12.844
62777W        W35191  29.967  10.711   4.188
62778W        W35192   4.370   4.936   0.881
62779W        W35193  14.800  35.407  13.474
62780W        W35194  10.710  35.570  14.906
62781W        W35195  35.918  11.197   4.249
62782W        W35196   3.311  30.517   2.791
62783W        W35197  23.681  17.765  13.858
62784W        W35198  22.194  20.531   2.377
62785W        W35199  36.073  35.998  11.548
62786W        W35200  42.004  32.576  14.889
62787W        W35201  11.768   9.832  12.553
62788W        W35202   4.448  43.373   2.385
62789W        W35203  18.633   9.181  10.553
62790W        W35204  38.483  16.160   1.896
62791W        W35205  40.492  22.709   4.328
62792W        W35206  15.149   4.215   0.353
62793W        W35207   7.360   8.882  13.429
62794W        W35208  31.983  39.417  13.796
62795W        W35209  22.076   2.834   3.192
62796W        W35210  29.140  23.729   2.802
62797W        W35211   5.851  33.033  10.598
62798W        W35212  15.674  27.599   4.339
62799W        W35213  41.976   7.877  12.485
62800W        W35214  22.582  23.612  13.367
62801W        W35215  36.533   9.332   1.261
62802W        W35216   3.286  41.490  13.435
62803W        W35217  32.064  17.762   1.242
62804W        W35218   5.781  27.617   4.805
62805W        W35219  28.159  34.084  14.350
62806W        W35220  22.734  25.075   3.678
62807W        W35221  20.706  11.145  14.947
62808W        W35222  29.059  36.385   4.114
62809W        W35223  25.602  43.961   1.410
62810W        W35224   4.348  12.318   3.385
62811W        W35225   3.944  24.532  12.003
62812W        W35226  38.341  18.152   3.727
62813W        W35227  27.944   9.688   2.788
62814W        W35228  10.251  24.481   4.705
62815W        W35229  38.492  35.362  12.081
62816W        W35230   8.259  29.564  14.296
62817W        W35231  43.866  20.559   1.784
62818W        W35232   3.257  17.699  13.470
62819W        W35233  23.599  33.131   4.632
62820W        W35234  10.213  41.971  12.920
62821W        W35235   3.797  23.526   4.138
62822W        W35236  33.562  30.070   1.796
62823W        W35237  16.622  13.277   2.887
62824W        W35238  15.789   7.235   0.430
62825W        W35239  19.140  28.183   2.803
62826W        W35240  44.848  30.998   1.828
62827W        W35241  31.015  20.664  11.498
62828W        W35242  28.089  31.548  14.511
62829W        W35243   6.415  29.573  12.502
62830W        W35244  16.800   1.333  14.811
62831W        W35245  33.471  23.662   4.811
62832W        W35246  29.041  37.518   0.939
62833W        W35247  33.454  43.294   1.780
62834W        W35248  15.306  24.491  10.574
62835W        W35249   9.873  34.880  11.501
62836W        W35250  15.820   5.758   2.393
62837W        W35251  18.058  39.836  11.962
62838W        W35252   2.264  16.234  12.933
62839W        W35253   3.337  31.050  14.953
62840W        W35254  36.563  21.618  11.907
62841W        W35255  36.569  40.382   2.386
62842W        W35256  18.138   9.246  11.562
62843W        W35257  12.611   6.373  14.858
62844W        W35258   9.292  44.319  13.981
62845W        W35259  44.502  33.539   1.933
62846W        W35260  18.745   6.882   0.728
62847W        W35261  31.436   6.356   1.800
62848W        W35262  19.042  24.974   0.386
62849W        W35263  14.632   7.371  14.775
62850W        W35264   4.337  15.297   2.302
62851W        W35265   6.882  30.517  14.884
62852W        W35266  28.140  19.544  11.969
62853W        W35267  35.358   3.914   3.294
62854W        W35268  37.868  42.906   4.602
62855W        W35269  14.168  39.907   3.189
62856W        W35270  17.291   8.735   0.765
62857W        W35271  11.658  16.703   0.729
62858W        W35272  22.624  43.424  11.392
62859W        W35273   5.401  34.593  14.406
62860W        W35274  38.858  38.570   4.177
62861W        W35275  11.843  40.941  11.116
62862W        W35276  42.017  11.676   0.950
62863W        W35277  40.879  23.058   4.123
62864W        W35278  19.658   2.337  10.639
62865W        W35279   0.323   5.830   3.381
62866W        W35280   7.833  13.167  14.823
62867W        W35281  24.565  39.988   3.386
62868W        W35282   6.831  35.553   2.273
62869W        W35283  34.415  43.771  11.408
62870W        W35284   1.415  16.079  13.403
62871W        W35285   9.229   8.661  10.434
62872W        W35286  37.383  36.069  10.126
62873W        W35287  16.731   6.908  13.347
62874W        W35288  27.613  25.008  13.461
62875W        W35289  33.423  23.669   3.177
62876W        W35290   8.773  28.531  14.460
62877W        W35291   0.429   3.952  12.388
62878W        W35292  14.313  20.066  13.901
62879W        W35293   3.277  15.123  13.019
62880W        W35294  18.620  43.333   1.802
62881W        W35295  18.546  18.151  13.355
62882W        W35296  29.542  24.088   2.284
62883W        W35297   4.319  41.293   9.985
62884W        W35298  17.561  15.804   2.222
62885W        W35299  42.872  31.613  14.781
62886W        W35300  25.097  41.038  10.983
62887W        W35301  21.216  30.155   4.199
62888W        W35302  37.867   3.918   2.895
62889W        W35303  37.071  24.653   3.284
62890W        W35304  44.988  34.956   4.732
62891W        W35305  35.900  26.196   2.374
62892W        W35306  34.598  33.588   1.753
62893W        W35307   2.923  43.509  11.598
62894W        W35308  26.593   2.784   4.733
62895W        W35309  19.282  20.596   0.425
62896W        W35310  39.529   6.706  13.920
62897W        W35311  32.924  29.093  11.509
62898W        W35312   9.716  24.696  13.054
62899W        W35313  19.168  30.914  12.478
62900W        W35314  31.638  15.258   0.966
62901W        W35315   2.434  33.464  13.377
62902W        W35316  36.516  10.293   3.306
62903W        W35317  41.954  43.937   0.355
62904W        W35318  27.136  33.941  10.460
62905W        W35319  44.313  10.707  14.280
62906W        W35320  26.494  11.717  10.447
62907W        W35321  13.294  43.383   0.783
62908W        W35322  16.804  35.405   3.751
62909W        W35323  44.954  11.347  12.055
62910W        W35324  22.629  11.803  12.046
62911W        W35325   7.733   0.383  12.002
62912W        W35326  18.105  23.017   1.310
62913W        W35327   6.831  44.975   4.143
62914W        W35328  28.128  31.412   0.371
62915W        W35329  23.638   6.703  13.358
62916W        W35330  35.015  27.581  11.944
62917W        W35331  44.829   4.702   3.147
62918W        W35332  19.602  21.186   4.597
62919W        W35333  27.545  22.566  14.807
62920W        W35334  27.562  12.342   1.222
62921W        W35335   4.939  22.231  14.932
62922W        W35336  32.406  24.013   4.808
62923W        W35337   2.720  11.273  12.091
62924W        W35338   4.395  10.776  14.849
62925W        W35339   7.746  24.018  13.455
62926W        W35340  39.029   3.917   0.383
62927W        W35341  18.080  37.973  13.917
62928W        W35342  21.621  39.475  10.930
62929W        W35343  24.173  11.211   4.219
62930W        W35344   9.664  29.995  11.476
62931W        W35345   7.746  20.759  12.360
62932W        W35346  32.010  13.177  13.492
62933W        W35347  36.978  36.091  10.532
62934W        W35348  10.350  40.404  14.912
62935W        W35349  14.194  28.582  14.403
62936W        W35350  33.913  30.057   1.355
62937W        W35351  15.663  37.508   4.274
62938W        W35352  16.640   6.212   3.752
62939W        W35353  10.155  35.400   3.320
62940W        W35354  26.178   1.884   4.813
62941W        W35355   9.258   3.853   1.357
62942W        W35356  15.137  38.335   3.870
62943W        W35357  30.482  19.594  13.012
62944W        W35358   5.830  11.242  14.433
62945W        W35359  27.110  29.498   2.332
62946W        W35360  12.137  23.096   4.617
62947W        W35361  15.109  37.901   0.926
62948W        W35362   9.252  40.018  11.589
62949W        W35363  42.876  40.372  10.408
62950W        W35364  40.005  28.976  13.917
62951W        W35365  16.196  31.520   3.330
62952W        W35366  19.040  36.846   1.303
62953W        W35367  10.197  10.735  11.946
62954W        W35368   2.253  40.975   1.388
62955W        W35369  44.998  40.907  12.024
62956W        W35370  24.515   2.821  10.569
62957W        W35371   7.743  10.312  14.818
62958W        W35372  12.266  22.222  12.554
62959W        W35373  19.749  29.626   2.780
62960W        W35374  26.490  14.633  12.061
62961W        W35375  24.118  33.922  14.935
62962W        W35376  32.101   4.404  11.390
62963W        W35377  29.612  23.665   1.890
62964W        W35378  36.461  29.587   2.289
62965W        W35379  10.187  16.196  11.940
62966W        W35380  14.782  44.778  14.499
62967W        W35381  38.347  12.667   4.785
62968W        W35382  36.924  35.550   3.206
62969W        W35383  41.415  14.212   0.422
62970W        W35384   2.277  25.635  11.429
62971W        W35385  27.019  37.917   1.334
62972W        W35386   1.795  27.636   4.834
62973W        W35387  17.164  32.946   4.749
62974W        W35388  31.631  33.396   1.700
62975W        W35389  34.505  36.574  11.931
62976W        W35390  32.887  29.949   0.244
62977W        W35391  15.602  38.919  12.552
62978W        W35392  22.133  10.790   3.184
62979W        W35393  43.332  41.443   3.838
62980W        W35394  11.686  22.647   2.688
62981W        W35395   1.255  42.929  12.862
62982W        W35396  39.812  29.561   1.292
62983W        W35397  33.878  31.528   0.268
62984W        W35398   2.272  37.431  11.863
62985W        W35399  26.103   3.302   2.664
62986W        W35400   3.844  26.152  14.493
62987W        W35401  22.737  36.529  11.436
62988W        W35402   1.431  41.474   1.214
62989W        W35403  18.664  23.098  10.562
62990W        W35404  43.455  36.993   0.340
62991W        W35405  36.443  18.791  14.762
62992W        W35406  11.340  24.174  10.891
62993W        W35407  17.226  12.762   0.271
62994W        W35408  32.974   3.300  11.461
62995W        W35409  43.507  17.211  10.411
62996W        W35410   9.694  41.836  14.911
62997W        W35411  37.438  19.559  11.897
62998W        W35412  12.662  30.504  13.387
62999W        W35413   9.730   5.780  10.582
63000W        W35414  32.140  23.491   3.655
63001W        W35415  33.910  25.499  14.284
63002W        W35416  27.031  36.842  14.290
63003W        W35417  22.238  42.832   1.246
63004W        W35418   8.661  43.273   2.277
63005W        W35419   8.381  38.479  11.598
63006W        W35420  35.080  21.751  10.921
63007W        W35421   9.759  42.334  13.837
63008W        W35422  27.618   8.288   0.785
63009W        W35423  44.259   6.852   5.240
63010W        W35424  12.756   5.204  12.513
63011W        W35425  19.199   3.946  14.798
63012W        W35426   8.714  21.626   2.281
63013W        W35427  20.059  13.284   4.324
63014W        W35428  34.526  23.984   2.723
63015W        W35429  42.956  14.102  13.976
63016W        W35430  32.954  18.190   1.722
63017W        W35431   9.216   2.896   1.921
63018W        W35432  18.281  25.632   3.782
63019W        W35433   9.224   7.193  13.464
63020W        W35434  42.009  34.556  10.922
63021W        W35435  35.404  44.794  14.920
63022W        W35436  15.155   1.780  13.405
63023W        W35437  31.921  10.267  11.499
63024W        W35438  13.296  15.296   3.230
63025W        W35439   1.369  14.643  12.937
63026W        W35440  19.632  24.117   0.767
63027W        W35441  14.758  33.420   2.244
63028W        W35442   1.461  22.108   1.215
63029W        W35443   5.412  20.583  13.018
63030W        W35444   5.693  11.136   2.196
63031W        W35445  29.145  33.422  11.403
63032W        W35446  43.407  28.527  13.477
63033W        W35447   5.848  32.394  14.771
63034W        W35448  20.722  17.657   2.351
63035W        W35449  30.517  22.597  11.112
63036W        W35450   4.437  32.596  11.558
63037W        W35451  21.722  34.953   0.382
63038W        W35452  17.695  41.498   3.195
63039W        W35453  43.303   5.691   3.182
63040W        W35454  10.202   5.333  11.046
63041W        W35455  38.974   2.772   3.692
63042W        W35456  29.054  12.719  11.080
63043W        W35457  10.641  33.616  12.864
63044W        W35458  17.112   8.221  10.042
63045W        W35459  11.856  11.816   3.285
63046W        W35460  33.027  12.335  12.484
63047W        W35461   6.820  16.716   2.257
63048W        W35462  31.918  35.465  14.952
63049W        W35463  18.128  24.983   1.861
63050W        W35464  29.022  39.451   0.958
63051W        W35465  28.166  30.990  13.052
63052W        W35466  20.626   9.860   2.740
63053W        W35467  32.434   4.402   4.677
63054W        W35468  38.965  25.088  13.833
63055W        W35469  34.947  17.681  14.029
63056W        W35470  16.250  40.884   3.787
63057W        W35471  32.438   5.708   3.236
63058W        W35472   1.308  30.973  12.567
63059W        W35473  42.794  36.521   1.739
63060W        W35474  28.568  27.985   1.350
63061W        W35475  36.011  30.653   1.343
63062W        W35476  31.017   5.798   1.329
63063W        W35477   2.861   1.954   4.668
63064W        W35478   3.339  36.995  11.877
63065W        W35479   6.270  12.643  12.415
63066W        W35480  18.601  10.191   4.301
63067W        W35481   1.832  28.095   0.844
63068W        W35482  21.630  28.587   4.328
63069W        W35483  28.019  35.540  10.975
63070W        W35484  17.210  42.010  13.929
63071W        W35485  20.155   4.214   4.642
63072W        W35486  12.681  26.147  13.807
63073W        W35487  33.088  42.302   1.352
63074W        W35488  25.618  32.444   2.312
63075W        W35489  30.996  33.616   0.922
63076W        W35490   5.845  36.516   3.690
63077W        W35491  20.676  19.697   4.656
63078W        W35492  44.939  23.050  13.484
63079W        W35493   5.289  30.062  10.982
63080W        W35494  34.921  43.825  13.933
63081W        W35495  28.098  15.085   3.312
63082W        W35496  18.562  25.971   4.335
63083W        W35497  21.065  19.225  12.963
63084W        W35498  27.549  27.993   2.880
63085W        W35499  44.382  44.346   3.850
63086W        W35500   3.747  16.761  13.527
63087W        W35501  23.179  13.701  13.416
63088W        W35502  27.570  19.573  12.828
63089W        W35503   4.717  14.205   1.378
63090W        W35504   2.907  42.962   5.662
63091W        W35505  42.498  13.233   3.781
63092W        W35506  30.982   2.914   2.278
63093W        W35507   3.853  33.946   1.763
63094W        W35508  39.419  27.600   1.219
63095W        W35509   6.260  23.168   1.724
63096W        W35510   1.957  19.207   0.896
63097W        W35511   4.742  25.110   0.416
63098W        W35512   6.216  22.173   0.410
63099W        W35513   1.432  10.310   2.312
63100W        W35514  27.570   0.422   1.247
63101W        W35515  10.324  12.816  13.431
63102W        W35516  17.237  22.550  14.920
63103W        W35517   1.928  20.056  11.495
63104W        W35518  13.170  31.489  10.599
63105W        W35519   2.912   2.237   0.813
63106W        W35520  29.467  30.539  12.924
63107W        W35521   1.881  44.796   0.308
63108W        W35522  10.308  16.267  14.956
63109W        W35523  26.001  21.088   2.239
63110W        W35524  21.688   4.357   2.717
63111W        W35525  43.487   4.920   3.690
63112W        W35526  18.650  12.130  13.329
63113W        W35527  16.757   4.844   1.402
63114W        W35528  23.694   3.246   0.429
63115W        W35529  20.524   5.407  11.409
63116W        W35530  29.511   0.297  14.882
63117W        W35531  25.141  33.428   4.701
63118W        W35532  10.140  29.646  10.983
63119W        W35533   7.688  41.308   0.875
63120W        W35534  38.848  31.977  11.527
63121W        W35535   7.704  35.437  14.314
63122W        W35536  26.698  14.679   4.241
63123W        W35537  20.730  13.306  11.911
63124W        W35538  40.503   7.839  12.873
63125W        W35539  21.045   9.740   3.184
63126W        W35540   5.255   2.238  10.446
63127W        W35541  21.204  15.270  10.996
63128W        W35542   0.887  21.634  11.534
63129W        W35543  38.489   8.397  11.591
63130W        W35544   3.885  40.493   3.695
63131W        W35545  26.469  42.357  12.959
63132W        W35546  10.207  23.656   0.247
63133W        W35547  31.600  16.684  13.839
63134W        W35548  24.050  20.181   1.774
63135W        W35549   2.944  37.387   3.332
63136W        W35550  35.515  13.734   4.774
63137W        W35551  23.011  41.536  12.930
63138W        W35552  26.157  24.574   1.448
63139W        W35553  39.963  31.973  14.873
63140W        W35554  40.433  18.612  14.840
63141W        W35555   1.851  42.800  13.339
63142W        W35556  27.628   4.711  11.405
63143W        W35557   1.276  44.288   2.697
63144W        W35558  24.707  30.419  11.444
63145W        W35559  31.492  27.087   2.802
63146W        W35560   3.435  10.692  12.934
63147W        W35561  15.646  34.499   0.732
63148W        W35562   7.398  32.469  10.588
63149W        W35563  20.547  23.679   3.678
63150W        W35564  11.284  10.290   9.924
63151W        W35565  28.029  41.483   1.696
63152W        W35566  29.055  35.058  13.348
63153W        W35567   5.388  28.023   2.695
63154W        W35568  19.673  37.941  10.595
63155W        W35569  29.539  33.011  14.384
63156W        W35570   0.270  28.180  13.392
63157W        W35571  23.730  44.476   0.437
63158W        W35572  38.069  21.123  11.541
63159W        W35573   6.380  23.134   0.304
63160W        W35574  31.068  41.796  12.502
63161W        W35575   6.714  35.546   3.729
63162W        W35576  28.440  35.871  12.825
63163W        W35577  18.191  31.943   2.205
63164W        W35578  15.628  15.310  13.981
63165W        W35579  19.609  31.467  12.414
63166W        W35580  29.014   2.398   1.443
63167W        W35581  43.286  22.665   0.260
63168W        W35582  19.256  20.076  14.446
63169W        W35583  22.124  43.405  13.530
63170W        W35584  10.804  26.687   4.781
63171W        W35585  41.317  26.005  13.042
63172W        W35586  24.546  29.652  14.410
63173W        W35587  30.960  24.505  10.990
63174W        W35588  27.056  42.828   1.709
63175W        W35589  18.148  28.093   2.413
63176W        W35590  33.502  10.173  12.001
63177W        W35591  31.061  28.173  13.863
63178W        W35592  39.972  25.978   2.777
63179W        W35593  31.122  21.033   4.629
63180W        W35594  33.063  26.660   3.636
63181W        W35595  34.865  41.827  12.491
63182W        W35596  18.267  38.047   1.343
63183W        W35597  31.938   0.268   2.260
63184W        W35598  28.670   1.823   2.325
63185W        W35599   8.218  41.996  13.021
63186W        W35600  27.625  10.285   0.829
63187W        W35601  31.073  26.015   1.737
63188W        W35602  15.104   6.400   3.288
63189W        W35603   3.947  44.940  12.960
63190W        W35604  13.244  15.717  14.441
63191W        W35605  25.097   0.760   0.429
63192W        W35606  31.079   2.348  10.615
63193W        W35607  16.688  33.900   0.731
63194W        W35608  16.788  13.325  14.980
63195W        W35609   5.407  14.607  11.424
63196W        W35610  36.505  33.939   0.302
63197W        W35611  23.667  16.625   3.828
63198W        W35612  28.129  44.505  11.862
63199W        W35613  23.624   9.712  10.453
63200W        W35614   8.177  30.066   2.688
63201W        W35615  25.599  32.575   4.607
63202W        W35616  17.140  23.046   2.784
63203W        W35617  13.202  32.518  14.452
63204W        W35618  17.287  23.590   2.665
63205W        W35619  35.018  12.237  12.919
63206W        W35620  12.122  21.147   0.751
63207W        W35621  39.431  34.480  11.539
63208W        W35622  14.805   0.841   2.373
63209W        W35623  31.127  41.934   4.747
63210W        W35624  36.423  31.920   2.818
63211W        W35625   3.923  10.272  13.390
63212W        W35626  31.529  22.202  14.920
63213W        W35627  18.580  43.305  12.055
63214W        W35628  19.110  24.647  10.591
63215W        W35629  15.693   9.854   4.707
63216W        W35630  38.849  17.128   9.933
63217W        W35631  39.015  10.359  11.402
63218W        W35632  24.976   0.872  10.464
63219W        W35633  16.277  29.601   2.850
63220W        W35634   0.797  38.342  10.559
63221W        W35635  22.572  37.958  13.873
63222W        W35636  36.065  33.402  13.037
63223W        W35637   9.226  17.560  12.838
63224W        W35638  19.577  38.329  11.509
63225W        W35639  11.806  44.894  12.003
63226W        W35640  20.581  28.594  11.025
63227W        W35641   6.324   8.839  10.447
63228W        W35642  17.598  38.020  12.563
63229W        W35643  31.096  15.118   0.369
63230W        W35644   6.891  42.919  13.337
63231W        W35645  42.356  25.573   2.317
63232W        W35646  15.180  29.578   0.875
63233W        W35647  43.809   0.392  11.965
63234W        W35648  44.402  34.027   3.716
63235W        W35649  36.030   0.983  13.453
63236W        W35650   7.380  43.287  10.479
63237W        W35651  29.548   7.414   0.844
63238W        W35652  32.976  32.120   2.722
63239W        W35653  18.735  31.099  10.940
63240W        W35654  26.206  17.581   0.474
63241W        W35655   3.426  12.815   3.802
63242W        W35656  35.388  41.321  12.371
63243W        W35657  11.828   6.806   2.319
63244W        W35658  32.932   6.402   3.162
63245W        W35659   5.748  38.967   1.839
63246W        W35660   2.388  14.734   2.321
63247W        W35661  33.613   5.704   3.775
63248W        W35662  24.532  42.934  10.644
63249W        W35663  28.008  22.009  10.939
63250W        W35664  25.013  17.254   4.647
63251W        W35665  42.384  11.638   1.860
63252W        W35666   5.921   6.749   2.737
63253W        W35667  38.438   9.281   1.872
63254W        W35668  19.581  24.087  12.346
63255W        W35669   0.815  41.483  14.472
63256W        W35670  30.079   8.205  13.496
63257W        W35671   8.284  11.327  13.424
63258W        W35672  29.967   6.195   3.646
63259W        W35673   1.355  20.220   1.722
63260W        W35674  20.142   9.378  13.889
63261W        W35675  28.497  26.161   2.347
63262W        W35676  15.097   6.881   4.278
63263W        W35677  19.651  35.988  10.590
63264W        W35678  42.526   3.797  10.970
63265W        W35679   5.325   5.777   0.937
63266W        W35680   5.872  14.269   3.803
63267W        W35681  16.613  44.349   3.734
63268W        W35682  23.580   0.864  13.953
63269W        W35683  39.548  36.001  11.566
63270W        W35684  25.581  15.621   2.198
63271W        W35685  24.094  18.633   5.721
63272W        W35686   3.242  20.639   1.428
63273W        W35687  31.011   0.832  14.278
63274W        W35688   0.283  35.962  11.588
63275W        W35689  27.170   7.692   1.340
63276W        W35690  28.071  17.564   4.713
63277W        W35691  39.049  39.861   4.657
63278W        W35692  44.284  33.464  10.472
63279W        W35693  44.826  28.131   0.345
63280W        W35694  31.941  39.810  12.944
63281W        W35695   7.894  39.389  13.880
63282W        W35696  41.412  22.680   2.855
63283W        W35697   7.284  17.254  13.497
63284W        W35698  23.241  23.077   2.804
63285W        W35699   1.779  33.096   4.711
63286W        W35700  24.001  39.944  10.543
63287W        W35701  35.490  31.629   0.968
63288W        W35702  13.705  31.142   0.858
63289W        W35703  42.822  38.524   1.449
63290W        W35704   4.771  19.234   1.811
63291W        W35705   3.432   4.698  11.490
63292W        W35706  24.161  25.985   2.261
63293W        W35707   7.912  40.384   3.215
63294W        W35708  16.579  13.757   1.222
63295W        W35709  22.725  38.408   0.758
63296W        W35710  36.585  43.859  13.899
63297W        W35711  33.110  34.031  12.024
63298W        W35712   9.393   3.279  14.809
63299W        W35713   7.894   1.737   1.871
63300W        W35714  43.429  38.836  10.085
63301W        W35715   2.396  10.728   1.846
63302W        W35716  29.562  22.044  11.994
63303W        W35717  39.909   5.407   3.719
63304W        W35718  31.494  27.448   3.363
63305W        W35719  38.326  41.440  13.366
63306W        W35720  38.432  16.571  13.048
63307W        W35721  43.333  40.345  10.415
63308W        W35722   6.408  10.717   1.822
63309W        W35723  24.203  34.463  12.517
63310W        W35724  27.643   1.481   4.120
63311W        W35725  27.677  29.983   0.324
63312W        W35726   0.306  10.252   1.890
63313W        W35727   7.878  31.940   1.913
63314W        W35728   6.202  40.893  11.945
63315W        W35729  10.690  31.456   1.287
63316W        W35730   1.452  22.125   3.332
63317W        W35731  12.840   0.766  14.925
63318W        W35732  14.171   7.386   4.228
63319W        W35733  37.485  20.636   0.893
63320W        W35734  30.533  27.594  12.950
63321W        W35735   1.938   1.403   3.360
63322W        W35736  17.585   8.268  14.813
63323W        W35737  26.100  20.572   4.341
63324W        W35738  38.445  15.186   2.821
63325W        W35739   6.729  32.129  10.888
63326W        W35740  18.069  39.021  10.096
63327W        W35741  27.174   4.367   4.749
63328W        W35742  32.105  34.606  11.433
63329W        W35743  31.908  18.259   4.125
63330W        W35744  21.757  33.079  13.368
63331W        W35745  15.814  24.689   2.206
63332W        W35746  15.151   6.892  13.009
63333W        W35747  15.189  16.205  13.977
63334W        W35748  29.965  10.263  11.983
63335W        W35749  35.543  37.547   3.293
63336W        W35750  12.805   9.816   4.656
63337W        W35751  37.885  41.822  13.799
63338W        W35752   7.818  19.166  11.974
63339W        W35753  44.829  17.123  14.984
63340W        W35754  22.624  27.625  10.512
63341W        W35755  26.004   6.281  10.607
63342W        W35756  15.622  23.664  12.842
63343W        W35757  34.545  40.945  12.882
63344W        W35758  29.088   3.384   1.295
63345W        W35759  18.686   1.849  14.853
63346W        W35760  12.142  37.853   2.680
63347W        W35761  12.267  37.027   3.283
63348W        W35762  41.293  44.757   4.649
63349W        W35763   3.416   4.795   3.792
63350W        W35764  27.198  11.635   1.799
63351W        W35765  40.411  18.753   3.788
63352W        W35766  43.422   1.952   3.185
63353W        W35767   6.366  16.243  10.518
63354W        W35768  38.531  13.674  12.512
63355W        W35769  13.343  19.563  12.029
63356W        W35770  23.069  40.529   3.834
63357W        W35771  41.477  20.208   2.885
63358W        W35772  20.264  39.528   4.628
63359W        W35773  24.218   3.932   2.383
63360W        W35774  30.098  26.095   2.406
63361W        W35775  10.289  40.430   2.754
63362W        W35776  10.679  16.630  13.527
63363W        W35777  22.229  22.144   2.786
63364W        W35778  32.046  11.350   0.898
63365W        W35779  28.638   0.367   4.138
63366W        W35780  17.263  36.876   1.358
63367W        W35781  29.485  22.687   2.331
63368W        W35782  40.384  32.537  10.894
63369W        W35783  31.583   0.799  12.539
63370W        W35784  28.065  29.460  13.822
63371W        W35785  13.127  36.405   3.199
63372W        W35786  40.899   5.715   1.924
63373W        W35787  32.497  15.612   0.804
63374W        W35788   6.920  41.535  13.001
63375W        W35789  33.578  11.786   4.675
63376W        W35790  15.150   0.906  10.550
63377W        W35791  13.203  40.428  13.836
63378W        W35792   1.446  19.052   2.745
63379W        W35793  16.616  24.184  11.085
63380W        W35794  13.729  31.642  14.367
63381W        W35795  12.803   5.722   0.814
63382W        W35796   8.221  34.902  14.888
63383W        W35797  19.765  37.369   0.457
63384W        W35798  13.688  16.761   0.456
63385W        W35799   4.367  32.886   3.750
63386W        W35800  11.190  44.897  14.926
63387W        W35801   1.883  34.035  11.375
63388W        W35802  34.038  33.626   0.924
63389W        W35803  11.334  36.879   0.429
63390W        W35804  39.868  36.506  11.566
63391W        W35805   4.809  13.319   1.433
63392W        W35806  27.100  44.869   0.892
63393W        W35807  25.666   6.748  11.050
63394W        W35808  13.640  25.592  14.903
63395W        W35809  14.254  20.564  10.129
63396W        W35810  20.256  37.079   0.957
63397W        W35811  20.558  35.058  14.962
63398W        W35812  32.070  13.190  11.000
63399W        W35813  22.747  12.348  11.413
63400W        W35814  20.240  39.853  14.508
63401W        W35815  23.100  26.646  12.532
63402W        W35816   5.806  42.361   2.408
63403W        W35817  14.752  39.012   1.863
63404W        W35818   0.273  41.459  12.885
63405W        W35819  40.534  35.079   2.790
63406W        W35820   7.315   8.790   4.701
63407W        W35821  35.957  39.948   4.669
63408W        W35822  44.817   1.247   2.777
63409W        W35823   2.784  35.487  11.499
63410W        W35824   7.881  29.088  14.394
63411W        W35825   1.953  34.431   2.797
63412W        W35826   9.696   9.667   4.138
63413W        W35827  12.127  32.948   3.361
63414W        W35828  31.066   3.955  11.470
63415W        W35829  34.896  38.021   0.247
63416W        W35830  37.546  17.121  13.493
63417W        W35831   2.813  16.582   2.271
63418W        W35832  28.456   5.350   0.428
63419W        W35833  43.833  23.499  12.523
63420W        W35834  32.533  32.933   4.292
63421W        W35835  43.461   7.227   0.395
63422W        W35836  32.035  31.093  13.040
63423W        W35837   4.905  13.238   1.819
63424W        W35838   3.292  27.665  11.468
63425W        W35839  38.868  43.426  13.390
63426W        W35840  12.221  44.489   1.344
63427W        W35841  27.147  13.109   4.228
63428W        W35842  10.782  29.106  14.796
63429W        W35843  24.149  42.956   0.300
63430W        W35844  10.657  21.714   0.273
63431W        W35845   7.746  32.974   3.285
63432W        W35846  20.212  23.113  12.887
63433W        W35847   0.480  10.152  10.443
63434W        W35848   5.217  21.577   2.216
63435W        W35849  31.923  27.606   2.745
63436W        W35850   8.823  17.228   1.440
63437W        W35851  11.621  19.763  13.856
63438W        W35852  28.031   7.714   2.393
63439W        W35853  15.183  43.299  12.452
63440W        W35854  20.063   1.377   2.679
63441W        W35855   8.323  19.116  10.498
63442W        W35856  19.240  30.537   1.778
63443W        W35857  35.488  18.146   0.858
63444W        W35858  35.453  23.188   5.692
63445W        W35859  30.529   6.844   3.198
63446W        W35860  26.535  25.984  14.283
63447W        W35861  22.726  17.264  13.026
63448W        W35862  30.978   6.838   3.255
63449W        W35863  19.070  12.208   0.761
63450W        W35864  10.712  30.449   1.396
63451W        W35865  41.920  26.700   3.358
63452W        W35866   1.369  42.521  14.774
63453W        W35867  40.043  40.826  14.988
63454W        W35868  28.468  43.347   0.793
63455W        W35869  40.543  34.460   3.355
63456W        W35870   4.210  36.584  11.558
63457W        W35871  25.058  14.120   2.829
63458W        W35872   4.258   1.350  11.411
63459W        W35873  37.948  40.876   1.841
63460W        W35874   7.328  18.248  14.417
63461W        W35875   4.825  28.548  12.002
63462W        W35876  41.931  15.822  10.489
63463W        W35877  25.191  40.385   1.865
63464W        W35878  21.105  21.745  14.503
63465W        W35879  43.457  20.677   4.271
63466W        W35880  38.479  13.752   1.242
63467W        W35881   7.896   9.731  12.920
63468W        W35882  41.489  15.326   4.186
63469W        W35883  25.219   7.894   1.317
63470W        W35884  23.228   0.280  14.305
63471W        W35885   6.681   2.245  12.563
63472W        W35886  12.830  11.133   2.264
63473W        W35887   2.908  16.719  12.340
63474W        W35888   7.316  36.559  14.302
63475W        W35889  39.922  37.985  14.805
63476W        W35890  27.014  22.181  13.847
63477W        W35891  35.474  15.616  14.898
63478W        W35892  16.765  26.207   3.666
63479W        W35893  11.705  31.035   1.425
63480W        W35894  15.116  16.143   0.303
63481W        W35895   3.713  37.441   0.390
63482W        W35896  37.886  18.761  13.013
63483W        W35897  18.293  23.233  14.478
63484W        W35898  20.674  44.950   0.276
63485W        W35899  39.830  15.696  13.898
63486W        W35900  36.589  43.405   3.199
63487W        W35901  26.197   6.865   3.278
63488W        W35902   3.236  22.522   4.785
63489W        W35903  21.089  38.996  13.900
63490W        W35904  19.588  16.104  11.498
63491W        W35905  13.189  35.503  12.864
63492W        W35906  25.975   1.482  11.502
63493W        W35907  38.915  22.219   4.660
63494W        W35908  29.550  20.622  12.948
63495W        W35909  41.865  42.988  14.970
63496W        W35910  32.049  28.988  11.945
63497W        W35911  39.419  41.977   3.857
63498W        W35912   1.900   4.721   4.139
63499W        W35913   6.863   0.862  13.350
63500W        W35914  28.178  41.379   0.452
63501W        W35915  15.788  36.454   2.261
63502W        W35916  16.113  40.012   0.752
63503W        W35917  39.995  19.061   1.287
63504W        W35918  14.326  29.668   4.223
63505W        W35919  15.817   5.205  11.939
63506W        W35920  22.624   0.830   4.173
63507W        W35921   7.787   2.785  14.302
63508W        W35922  22.707   0.485  11.069
63509W        W35923   6.902   1.256  10.607
63510W        W35924   1.863  44.432   1.757
63511W        W35925  17.641  22.566  12.380
63512W        W35926  23.558  40.918   1.216
63513W        W35927  16.765  16.696  12.460
63514W        W35928   5.194   6.895   4.241
63515W        W35929  30.046  40.025   0.780
63516W        W35930  34.952  26.087   0.789
63517W        W35931  35.439  38.993  14.480
63518W        W35932  16.174  43.363   0.854
63519W        W35933  35.023   5.251  11.126
63520W        W35934   8.278  26.993  13.424
63521W        W35935  28.092  27.613   1.424
63522W        W35936  36.429   5.313  13.005
63523W        W35937  34.078  34.422  12.430
63524W        W35938  44.389  37.858   1.286
63525W        W35939  10.738  43.888   3.385
63526W        W35940  36.486  37.378  10.909
63527W        W35941   2.878  10.248  14.399
63528W        W35942  12.299  18.691   3.238
63529W        W35943  31.058  13.270   1.291
63530W        W35944  40.019   8.360   2.726
63531W        W35945  36.909  28.039  11.576
63532W        W35946  41.435  29.044   0.857
63533W        W35947  23.159   2.426   4.813
63534W        W35948  28.071  32.586   2.254
63535W        W35949  27.121  20.181   3.250
63536W        W35950  21.042  16.761   4.177
63537W        W35951  40.054  21.136   4.201
63538W        W35952  10.646   1.823   4.153
63539W        W35953  21.150   4.800   2.739
63540W        W35954  24.505  23.533   4.205
63541W        W35955   9.862  15.241  11.094
63542W        W35956  40.408  22.019   2.881
63543W        W35957  19.641   8.301   1.930
63544W        W35958   7.756  35.037   4.781
63545W        W35959  35.587  40.510   4.773
63546W        W35960  43.975   9.283   0.252
63547W        W35961  28.487   2.315   2.788
63548W        W35962   9.653  25.152   4.116
63549W        W35963  19.249   3.885  11.405
63550W        W35964  33.420  25.147  14.009
63551W        W35965  21.179  20.735   0.390
63552W        W35966  15.123  33.476   4.692
63553W        W35967  17.679  24.974   3.362
63554W        W35968  34.372  37.348  13.027
63555W        W35969  14.173  37.428   3.216
63556W        W35970   5.736  36.396  13.870
63557W        W35971  16.088  11.301   1.719
63558W        W35972  44.303  39.914   3.243
63559W        W35973   2.295  27.088   0.841
63560W        W35974  22.248  17.746  11.542
63561W        W35975  31.482  43.465   0.408
63562W        W35976  28.550  19.712   4.615
63563W        W35977   2.267  21.072   5.159
63564W        W35978  41.296  15.195  12.560
63565W        W35979  20.235  36.449   2.333
63566W        W35980   8.847  21.748  11.078
63567W        W35981  22.519   5.309  13.921
63568W        W35982  42.466  27.060  12.367
63569W        W35983  20.667  40.440   1.865
63570W        W35984  13.807  14.628   2.271
63571W        W35985  37.369  39.537   3.819
63572W        W35986  12.200   3.790  13.405
63573W        W35987  37.533  20.744   3.748
63574W        W35988  20.140  12.212  12.388
63575W        W35989  35.393  36.072   1.782
63576W        W35990  15.122   5.403   3.171
63577W        W35991  18.751  40.479  10.641
63578W        W35992  22.055  20.258  13.972
63579W        W35993  36.392   7.864   2.719
63580W        W35994  41.998   1.865  12.966
63581W        W35995  14.300  38.487  10.569
63582W        W35996  37.949  36.049  13.029
63583W        W35997  17.182   4.788   2.245
63584W        W35998  11.241  43.870   3.277
63585W        W35999   8.737   2.250   3.841
63586W        W36000  25.033  41.448   1.255
63587W        W36001  28.018  33.583   4.283
63588W        W36002  43.979   8.899   4.205
63589W        W36003  40.049  33.116  12.083
63590W        W36004  17.133  40.449   0.823
63591W        W36005   0.987   4.415   4.331
63592W        W36006  44.326   6.244  10.428
63593W        W36007  33.997  30.553   0.821
63594W        W36008  42.972   7.256   4.796
63595W        W36009  20.257  19.174  12.043
63596W        W36010   0.449  36.555   2.279
63597W        W36011   0.951  43.769   4.787
63598W        W36012  35.564   5.753  14.914
63599W        W36013  25.698  11.355  12.497
63600W        W36014  38.443  22.590   3.657
63601W        W36015   0.371  38.530   2.383
63602W        W36016  18.075  32.525  11.121
63603W        W36017  37.382   3.436  11.982
63604W        W36018   4.927   8.257   4.694
63605W        W36019  41.887  38.980   4.623
63606W        W36020  24.598  20.591   1.695
63607W        W36021  44.294  32.896  10.420
63608W        W36022  17.669   5.402   0.290
63609W        W36023  11.345  30.512   2.800
63610W        W36024  14.629  26.662  11.039
63611W        W36025   5.231   7.368  11.961
63612W        W36026  23.108  28.021  14.997
63613W        W36027  40.470  37.354   9.969
63614W        W36028  11.217  20.038   0.292
63615W        W36029  21.129  22.685   2.711
63616W        W36030  29.099   8.706  11.914
63617W        W36031  14.319  40.804   0.445
63618W        W36032   1.327  16.214  13.806
63619W        W36033  31.576  12.207  12.840
63620W        W36034  28.156  10.689   3.833
63621W        W36035  38.896  34.510  10.468
63622W        W36036  31.423  16.781  13.518
63623W        W36037  41.520  32.614  10.448
63624W        W36038  24.549  13.271  14.999
63625W        W36039  36.990   8.334   4.641
63626W        W36040  19.568  33.942  13.534
63627W        W36041  19.565   1.367  10.450
63628W        W36042  34.941   4.770  10.417
63629W        W36043  36.533  33.050   3.751
63630W        W36044  19.596   3.229  10.591
63631W        W36045   0.884   6.745   2.678
63632W        W36046  39.880  29.934  14.482
63633W        W36047  33.437  42.790  12.451
63634W        W36048  39.874  18.185  12.823
63635W        W36049  26.191  35.601   1.301
63636W        W36050  14.778  35.545  14.795
63637W        W36051  16.307   6.879  14.026
63638W        W36052  41.992  43.379  10.634
63639W        W36053  22.162   1.878  13.029
63640W        W36054  32.887  16.313   3.284
63641W        W36055  10.225   4.939   3.857
63642W        W36056  24.680  29.028   1.887
63643W        W36057  40.407  44.857  13.485
63644W        W36058  34.008  27.498  13.902
63645W        W36059  17.647   4.795  12.913
63646W        W36060   0.478   7.886   0.295
63647W        W36061  19.660  19.585   1.265
63648W        W36062  12.237  35.587  12.434
63649W        W36063   1.745   1.731   4.698
63650W        W36064  36.411   8.160   2.379
63651W        W36065  27.143  43.421   3.301
63652W        W36066  10.848  38.954  12.416
63653W        W36067  27.081  41.439   0.478
63654W        W36068  15.218   1.846  12.044
63655W        W36069  33.486   4.406  12.398
63656W        W36070  27.683  24.023  12.850
63657W        W36071  33.893  24.155   5.136
63658W        W36072  34.503  30.979   3.264
63659W        W36073  43.410   6.350  12.033
63660W        W36074  36.902  15.805   0.949
63661W        W36075  26.955  29.119   1.717
63662W        W36076  13.742   8.277  11.885
63663W        W36077  43.938  25.035   2.757
63664W        W36078  23.575  24.998  10.921
63665W        W36079   4.354  21.095   0.317
63666W        W36080  11.344   4.772  10.612
63667W        W36081   2.367  27.467   5.188
63668W        W36082  30.460  26.692  14.025
63669W        W36083  39.829  26.482  10.953
63670W        W36084  31.599   8.808   0.395
63671W        W36085  36.498  36.892  14.440
63672W        W36086  18.697  20.646   3.680
63673W        W36087  44.779   3.952  12.093
63674W        W36088   8.174  39.518  13.464
63675W        W36089  34.101  43.918   1.438
63676W        W36090  12.790  35.013   1.908
63677W        W36091  16.081  40.427   0.735
63678W        W36092  42.362  10.855   3.256
63679W        W36093  37.488  15.697   3.767
63680W        W36094   9.171   5.743   4.134
63681W        W36095   8.229  26.177  10.446
63682W        W36096   5.437   3.335   1.418
63683W        W36097  37.350  17.151   5.127
63684W        W36098  39.920  21.032   1.358
63685W        W36099  14.100   2.954  12.513
63686W        W36100  40.464   9.346   4.808
63687W        W36101   7.758   7.276  12.578
63688W        W36102  19.736  10.142   0.351
63689W        W36103  11.659  37.500   2.880
63690W        W36104   1.378  25.568   1.303
63691W        W36105  37.486   4.334  14.314
63692W        W36106  31.629   1.895  14.983
63693W        W36107  33.877  43.929  12.506
63694W        W36108  25.678  28.020   1.848
63695W        W36109   3.243  12.782   5.279
63696W        W36110  22.622  44.864  14.959
63697W        W36111  26.005  36.387  11.028
63698W        W36112  19.068  44.932   2.870
63699W        W36113  42.397  26.505  14.388
63700W        W36114  20.130  20.559  13.853
63701W        W36115  28.977  37.851  11.492
63702W        W36116  18.148   0.303   0.755
63703W        W36117  31.645  22.160   2.200
63704W        W36118   0.817  34.908   0.856
63705W        W36119  41.004   9.762  11.966
63706W        W36120  36.377   7.870   1.906
63707W        W36121  27.578  29.949  12.463
63708W        W36122  10.250  21.248  14.423
63709W        W36123  13.115  31.142   4.822
63710W        W36124  10.748   0.762  12.365
63711W        W36125   1.311   5.392   0.352
63712W        W36126  29.981  44.429   2.370
63713W        W36127  33.015   9.367  14.966
63714W        W36128  40.928  28.639   3.185
63715W        W36129   4.855  20.706   0.285
63716W        W36130  19.745   5.911  11.585
63717W        W36131  11.164  10.790   3.171
63718W        W36132  29.443   3.848   1.773
63719W        W36133   5.419   8.717  11.967
63720W        W36134  16.159  42.829   1.795
63721W        W36135  31.585  38.537   3.686
63722W        W36136  14.776  38.864   0.248
63723W        W36137   5.393  40.368   1.723
63724W        W36138   8.779  42.863   2.666
63725W        W36139  11.788  38.886  11.059
63726W        W36140  21.626  29.646  13.928
63727W        W36141   8.895  43.375   1.811
63728W        W36142   0.469  26.461  13.427
63729W        W36143  39.340   5.246   2.247
63730W        W36144  38.005  41.821  11.044
63731W        W36145  39.037   2.735   1.781
63732W        W36146  19.184  41.432  11.905
63733W        W36147  25.586  42.469   3.757
63734W        W36148  42.973   2.864  13.330
63735W        W36149  15.203  33.005   3.839
63736W        W36150  21.023  42.439   2.267
63737W        W36151  22.169   3.761  13.514
63738W        W36152   0.270  22.006   2.300
63739W        W36153  14.685  21.248  12.834
63740W        W36154  30.123   8.262  10.923
63741W        W36155  19.619  35.088   2.291
63742W        W36156   8.744  10.659   0.829
63743W        W36157  16.721  31.049   0.923
63744W        W36158  14.294  13.312  10.959
63745W        W36159  32.621   6.200  12.971
63746W        W36160  17.226   1.294   3.369
63747W        W36161  36.461  14.735  11.607
63748W        W36162  15.759  22.642   2.880
63749W        W36163  32.474  15.673   1.827
63750W        W36164  40.429   2.847  10.950
63751W        W36165  15.201  30.007   3.824
63752W        W36166  44.896   8.764  14.432
63753W        W36167  36.990  30.159   0.829
63754W        W36168  26.516  33.382  10.987
63755W        W36169  44.372   6.714  10.932
63756W        W36170  44.878  24.557  12.899
63757W        W36171  43.789  32.411  11.444
63758W        W36172  22.250   0.857  11.858
63759W        W36173  18.760  36.500   1.755
63760W        W36174  26.952  40.503   3.248
63761W        W36175  35.524   2.748  11.049
63762W        W36176  19.668   4.794  13.880
63763W        W36177  28.999   8.733   0.380
63764W        W36178  39.417  41.799   1.300
63765W        W36179  42.779  24.113   1.834
63766W        W36180  22.597  33.997   1.871
63767W        W36181  16.680  34.530   4.228
63768W        W36182  18.645  26.164   3.652
63769W        W36183  11.660  32.477   0.743
63770W        W36184  25.144   5.378  11.903
63771W        W36185  11.296  20.194   2.357
63772W        W36186   8.709  10.187  12.964
63773W        W36187  32.542  21.536  12.888
63774W        W36188  34.873  31.621  10.629
63775W        W36189  10.767  14.620   4.202
63776W        W36190  29.571  22.217   2.321
63777W        W36191   0.903   7.815   4.220
63778W        W36192  44.408  27.518   0.839
63779W        W36193   4.222   8.239  14.429
63780W        W36194  25.516   0.472  11.874
63781W        W36195  39.889  10.321   0.460
63782W        W36196  44.991   0.951  12.988
63783W        W36197  44.004  37.951  11.384
63784W        W36198  12.621   8.401   0.910
63785W        W36199  17.794  13.635   3.284
63786W        W36200  10.300  38.454   9.959
63787W        W36201  26.177  41.958  14.382
63788W        W36202  39.956  17.724  12.407
63789W        W36203  13.256  15.122   0.770
63790W        W36204  16.144  19.729   4.280
63791W        W36205  27.503  12.119  13.985
63792W        W36206  43.343  26.152   0.316
63793W        W36207  11.202  26.554  14.899
63794W        W36208   4.819  10.332  11.899
63795W        W36209  28.143  33.612  14.451
63796W        W36210  29.166  37.580  11.899
63797W        W36211  26.107  36.408  13.537
63798W        W36212   1.446  28.953   4.822
63799W        W36213  13.106   3.420  12.901
63800W        W36214  20.072  42.941   5.091
63801W        W36215   9.829  39.832   4.350
63802W        W36216  40.980  19.730   1.333
63803W        W36217   6.720  40.469  13.396
63804W        W36218  40.014  14.267   0.758
63805W        W36219   2.886  38.912   4.178
63806W        W36220  38.904  34.390   3.799
63807W        W36221  11.150  12.740  11.435
63808W        W36222   2.736  34.443   1.720
63809W        W36223   7.729  33.879  12.366
63810W        W36224  28.515  43.877  12.912
63811W        W36225  25.091  29.073   2.768
63812W        W36226  11.730  18.127   2.705
63813W        W36227  35.379  24.693  10.602
63814W        W36228   5.373  11.182   1.282
63815W        W36229   9.227  33.545   3.712
63816W        W36230  28.058  29.662  13.062
63817W        W36231  11.632  11.319  12.994
63818W        W36232  36.051  40.452  14.769
63819W        W36233  33.393  10.166   0.836
63820W        W36234  24.664   0.423   3.225
63821W        W36235   8.881  33.614   1.405
63822W        W36236  22.526  21.181  10.021
63823W        W36237   2.868  11.848  11.039
63824W        W36238  35.968   5.918   4.613
63825W        W36239  27.460   7.844   3.847
63826W        W36240  17.257  35.939   0.455
63827W        W36241   0.473  25.172  12.076
63828W        W36242  28.121  23.497   2.249
63829W        W36243   8.814   2.840   4.766
63830W        W36244  42.972  37.900   0.357
63831W        W36245  40.874   9.205  12.841
63832W        W36246  35.471  42.812   4.218
63833W        W36247   3.838  12.262   4.224
63834W        W36248  29.616  13.827  12.062
63835W        W36249  27.026  20.707  10.404
63836W        W36250  16.600  10.653  11.998
63837W        W36251  19.081  26.635  12.025
63838W        W36252  12.221  23.721  14.891
63839W        W36253   3.919  19.062  13.509
63840W        W36254   4.425  14.176   1.312
63841W        W36255  24.146  36.037   2.736
63842W        W36256  44.438  16.149   0.748
63843W        W36257  24.134  14.773  13.059
63844W        W36258  34.568  22.085  11.382
63845W        W36259   3.252  32.985   1.724
63846W        W36260  41.453  21.732   2.877
63847W        W36261  14.131  36.897  12.567
63848W        W36262  11.149  21.234  12.371
63849W        W36263   7.242  44.943   3.801
63850W        W36264   6.680  44.917  11.899
63851W        W36265   1.918  40.335   4.791
63852W        W36266  42.918  38.822  13.824
63853W        W36267   7.337  24.508   4.834
63854W        W36268  39.063   6.380   1.771
63855W        W36269  11.322   6.858   0.414
63856W        W36270  17.738   5.410   4.318
63857W        W36271  27.060  32.126  14.812
63858W        W36272  31.413  34.081   3.798
63859W        W36273  33.434  24.109   0.408
63860W        W36274  24.975  29.918   2.729
63861W        W36275  28.665   3.411   3.701
63862W        W36276   1.278  23.206   0.959
63863W        W36277  32.996  14.119  14.433
63864W        W36278  20.548  18.565   4.623
63865W        W36279   3.257  12.832   5.793
63866W        W36280   2.390  38.480   4.181
63867W        W36281  29.645   8.679   4.141
63868W        W36282  31.066  28.962  14.496
63869W        W36283  14.677  44.459   3.742
63870W        W36284   1.378  18.746  10.522
63871W        W36285  37.871  35.034   0.270
63872W        W36286  38.892  34.036  12.933
63873W        W36287  10.218  37.057  12.469
63874W        W36288  34.543   3.818   4.660
63875W        W36289   9.777  21.224  13.009
63876W        W36290   0.910  19.113  12.558
63877W        W36291   0.853  27.053   3.324
63878W        W36292   9.303  28.941   1.766
63879W        W36293  33.457  29.643   4.838
63880W        W36294   7.214  37.380   0.431
63881W        W36295  11.274  22.091   2.812
63882W        W36296  26.641  10.764  13.003
63883W        W36297  16.727  36.401  14.884
63884W        W36298  35.555  27.963  14.973
63885W        W36299   2.755  40.970  13.891
63886W        W36300  25.687  38.495  11.513
63887W        W36301  13.746   4.264  13.971
63888W        W36302  22.142  32.432  11.396
63889W        W36303  24.119  28.161  12.880
63890W        W36304  27.471  17.245  12.411
63891W        W36305  37.839  26.514  14.455
63892W        W36306  10.846   7.700  11.947
63893W        W36307  33.570  21.574  13.329
63894W        W36308   2.926  19.685  13.807
63895W        W36309  19.054  31.134  11.877
63896W        W36310  39.472  22.726   0.831
63897W        W36311  36.414   7.200   3.231
63898W        W36312   9.645  39.482  13.310
63899W        W36313  42.880  19.737  10.570
63900W        W36314  20.186  15.739   0.259
63901W        W36315  29.037   6.270  14.832
63902W        W36316   6.381  24.485  13.390
63903W        W36317  23.199  20.616  14.955
63904W        W36318   5.826  17.667   1.806
63905W        W36319  22.630  20.550   3.732
63906W        W36320  39.046   4.815   3.716
63907W        W36321  34.114  38.933   4.829
63908W        W36322  42.299  31.918   4.289
63909W        W36323  38.561  11.332   3.811
63910W        W36324  13.308   0.973  14.433
63911W        W36325   3.274  24.716  10.606
63912W        W36326  41.927  17.598   3.815
63913W        W36327  37.408  24.688   4.688
63914W        W36328  15.803  15.706   3.218
63915W        W36329   1.409  18.185   0.860
63916W        W36330  42.880  12.120  13.812
63917W        W36331  27.132  19.089   3.201
63918W        W36332  11.281  10.351   3.276
63919W        W36333  41.341  44.896  14.395
63920W        W36334  37.845   8.896   0.292
63921W        W36335  35.571  28.481  10.581
63922W        W36336   0.807  23.596   2.275
63923W        W36337  24.488  38.554   4.687
63924W        W36338  13.792  24.636  11.582
63925W        W36339  35.862  29.942   0.814
63926W        W36340  32.138   9.392  13.539
63927W        W36341  26.184  38.536   4.199
63928W        W36342  15.647   4.722   0.466
63929W        W36343  20.154  31.119   4.671
63930W        W36344  10.314  36.023   4.180
63931W        W36345  17.570  31.096   3.285
63932W        W36346   2.302  32.088  11.956
63933W        W36347  29.067   3.227  14.882
63934W        W36348   8.252  25.567   1.255
63935W        W36349  34.414  27.505   2.889
63936W        W36350   4.267   0.867   3.849
63937W        W36351   0.413  19.246  14.314
63938W        W36352  31.124   4.869   0.260
63939W        W36353  35.932  40.882   4.146
63940W        W36354  41.413   1.401  10.961
63941W        W36355  37.923  29.521  14.926
63942W        W36356   2.308  44.381   0.463
63943W        W36357  15.254   5.417   0.249
63944W        W36358  11.138  22.166  12.853
63945W        W36359  10.257   3.278  10.486
63946W        W36360  15.132  26.047   1.753
63947W        W36361   1.358   9.704  11.966
63948W        W36362  20.646  35.383   1.897
63949W        W36363  26.677  44.337  12.537
63950W        W36364  11.187   3.257   4.727
63951W        W36365   9.267   4.234   1.411
63952W        W36366   4.781  22.116  11.470
63953W        W36367  26.144  18.721  11.544
63954W        W36368  18.678  11.788  11.050
63955W        W36369   5.224   2.277   0.909
63956W        W36370  21.666  11.732  10.102
63957W        W36371  31.644  29.062  13.474
63958W        W36372  14.243  21.033  10.156
63959W        W36373   2.375  17.643  12.898
63960W        W36374  27.962  26.126   3.173
63961W        W36375   6.291   0.832   3.776
63962W        W36376  39.403  34.890   0.808
63963W        W36377  37.994  19.255  12.556
63964W        W36378  27.495  15.085  13.381
63965W        W36379  42.960  13.106   0.451
63966W        W36380  36.357  31.610   2.377
63967W        W36381   6.806  23.532  14.961
63968W        W36382  29.079  35.950  12.085
63969W        W36383  42.496  11.302  13.319
63970W        W36384  29.665   6.364  10.989
63971W        W36385  32.410  36.548  14.391
63972W        W36386  31.978  23.496   2.850
63973W        W36387  21.134   2.861  12.992
63974W        W36388  28.569  28.661   2.253
63975W        W36389  42.375  22.019  14.808
63976W        W36390  33.964  29.950  10.911
63977W        W36391   6.214  44.418   5.095
63978W        W36392  41.913  25.131   2.363
63979W        W36393  14.172  37.015   3.281
63980W        W36394  18.596  13.253   1.230
63981W        W36395  15.653  24.635  10.408
63982W        W36396  28.562   3.830  14.847
63983W        W36397   8.249   6.864  12.034
63984W        W36398   2.377   4.444   1.261
63985W        W36399  41.806  38.857  10.567
63986W        W36400  33.435  41.516   3.638
63987W        W36401  25.105  17.596   2.192
63988W        W36402  23.543  37.532  14.435
63989W        W36403  25.471  17.067   4.172
63990W        W36404  29.430   5.781   0.460
63991W        W36405  23.035  30.101  11.558
63992W        W36406  29.074   7.900   2.872
63993W        W36407  44.774  38.857   1.281
63994W        W36408  43.516  39.895   3.243
63995W        W36409  22.738  37.890   0.941
63996W        W36410  12.732  10.218  14.876
63997W        W36411  44.493  23.092  11.871
63998W        W36412  24.482  24.687  12.428
63999W        W36413  19.039  35.380  11.037
64000W        W36414  40.907   6.400  14.014
64001W        W36415  11.362  41.436  12.873
64002W        W36416  15.731  38.069  11.433
64003W        W36417   7.803  24.654  11.124
64004W        W36418  36.425  31.109   3.150
64005W        W36419  41.930   9.674  13.961
64006W        W36420   4.307  12.125  13.816
64007W        W36421  28.169  34.475  11.979
64008W        W36422  17.277  31.490   3.722
64009W        W36423  17.250  44.997   2.899
64010W        W36424  38.035  21.670  12.985
64011W        W36425   6.199  37.521   3.679
64012W        W36426  36.449  16.252  14.480
64013W        W36427  15.214  33.975  11.523
64014W        W36428  22.622  16.759   1.915
64015W        W36429  40.442  24.506  10.519
64016W        W36430  41.380  14.325  12.468
64017W        W36431  36.096  36.551  10.419
64018W        W36432  21.241  12.711   4.822
64019W        W36433  36.059  44.864  11.077
64020W        W36434  31.417  36.872   3.275
64021W        W36435  11.131   1.350   4.787
64022W        W36436   9.279   7.176  14.985
64023W        W36437   9.741  12.118   3.194
64024W        W36438  19.129   8.836   1.242
64025W        W36439  25.050  17.565  12.033
64026W        W36440  35.364   5.428   3.646
64027W        W36441  38.875  19.602  14.777
64028W        W36442  27.613  14.317  13.954
64029W        W36443  12.767  30.456   0.340
64030W        W36444   5.933  38.508   1.818
64031W        W36445  10.802  41.975  14.964
64032W        W36446  32.532  17.753   4.188
64033W        W36447   7.679  15.293   2.865
64034W        W36448  36.402  42.438   0.728
64035W        W36449  26.587  13.292   2.208
64036W        W36450  27.182   9.347  14.439
64037W        W36451  32.437  28.098   0.401
64038W        W36452  15.269  33.591   1.884
64039W        W36453  36.972  23.128   3.777
64040W        W36454  37.382  38.529  14.456
64041W        W36455   6.409  11.720   2.831
64042W        W36456  36.981  19.141   4.793
64043W        W36457  43.852  34.474  10.591
64044W        W36458  12.674  24.045  14.979
64045W        W36459  20.657  37.521   1.299
64046W        W36460  32.438  37.548  11.568
64047W        W36461  22.053  22.047   1.778
64048W        W36462   0.442  15.283  14.316
64049W        W36463  26.657  13.786  11.064
64050W        W36464   2.330  27.645   4.216
64051W        W36465  13.145  37.402   0.356
64052W        W36466  35.484  39.386   3.271
64053W        W36467  35.574  33.886   0.925
64054W        W36468  10.665  39.882   4.608
64055W        W36469  26.467  22.099   3.177
64056W        W36470   3.351  24.108  12.981
64057W        W36471   6.272  40.411  11.026
64058W        W36472  43.372  24.169  12.021
64059W        W36473  15.102  15.739  13.425
64060W        W36474  18.245  26.172  13.966
64061W        W36475  14.702   2.282   2.881
64062W        W36476   8.808  29.103   0.868
64063W        W36477  14.114  40.549  13.497
64064W        W36478  39.456  26.678  12.571
64065W        W36479  25.974   9.834  14.322
64066W        W36480   9.221   9.675   2.261
64067W        W36481  33.881  39.389  13.991
64068W        W36482   6.906  19.131   1.888
64069W        W36483  10.231   1.425   0.834
64070W        W36484  12.288  42.426   1.449
64071W        W36485  40.313  44.383   2.884
64072W        W36486  37.907  28.641   3.839
64073W        W36487  41.427  25.012   4.727
64074W        W36488  21.711  36.070  11.895
64075W        W36489  26.986  44.352  11.540
64076W        W36490   5.915  29.631   2.748
64077W        W36491   1.934  31.445  12.532
64078W        W36492   5.437  28.522  10.015
64079W        W36493  43.400  42.289  12.359
64080W        W36494  16.568  42.796  12.413
64081W        W36495   8.889  19.560   0.765
64082W        W36496  21.142  16.810  10.587
64083W        W36497  38.429  12.129   3.262
64084W        W36498   2.865  22.562  14.293
64085W        W36499   2.429  28.473  10.641
64086W        W36500   7.256  17.580  14.982
64087W        W36501   3.948   9.868   0.945
64088W        W36502   0.842  22.587   5.178
64089W        W36503  32.974  20.680   0.446
64090W        W36504  11.330  13.616  13.458
64091W        W36505  21.194  30.081   0.942
64092W        W36506  29.087  13.638  13.819
64093W        W36507   9.231   2.319   3.803
64094W        W36508   6.696  39.038  11.451
64095W        W36509  19.241  15.105   0.766
64096W        W36510   6.788  28.178  10.529
64097W        W36511   1.252  40.956  13.862
64098W        W36512  19.664   0.769  10.962
64099W        W36513  35.035   3.247   4.666
64100W        W36514  40.532  29.585   3.318
64101W        W36515  44.439  30.634   9.964
64102W        W36516  25.153  38.485  11.034
64103W        W36517   3.451   3.907   4.675
64104W        W36518  35.403  19.122  14.774
64105W        W36519  11.281   4.940   2.700
64106W        W36520  38.456  19.579   2.789
64107W        W36521  28.014  33.484   1.378
64108W        W36522  12.777  32.520   3.644
64109W        W36523  10.267  35.975  12.391
64110W        W36524  17.681   3.930   2.771
64111W        W36525  35.487  19.720   4.326
64112W        W36526  14.202   3.456  11.951
64113W        W36527  41.980  33.449  14.285
64114W        W36528   1.894   3.405  10.542
64115W        W36529  42.410  34.553   3.272
64116W        W36530  16.198  32.445   4.121
64117W        W36531  12.282  19.056  11.550
64118W        W36532  34.568  41.429  12.898
64119W        W36533  10.814   2.460  13.968
64120W        W36534  33.419  31.052   0.445
64121W        W36535  37.923  44.007   4.134
64122W        W36536  44.882  16.299  11.610
64123W        W36537   0.955  40.048  14.962
64124W        W36538   5.801  44.476  12.010
64125W        W36539  11.649  41.002  12.953
64126W        W36540  29.589  27.051   1.826
64127W        W36541  44.857  42.451   1.765
64128W        W36542   6.354  33.473   4.215
64129W        W36543  18.165  21.725  13.027
64130W        W36544   5.925  25.142   3.800
64131W        W36545   8.396  13.772  14.516
64132W        W36546  30.909  42.982  11.091
64133W        W36547  43.957  33.022  14.286
64134W        W36548   7.748  27.475   0.418
64135W        W36549  15.809   7.286   4.638
64136W        W36550  15.785  34.999   0.449
64137W        W36551  44.340   3.337  12.026
64138W        W36552  43.782  28.134   2.202
64139W        W36553  29.079  23.164   4.154
64140W        W36554   8.797  32.535  10.564
64141W        W36555  38.051  23.708   0.908
64142W        W36556  43.917   6.890  13.817
64143W        W36557   6.280  44.425   2.354
64144W        W36558  42.380  13.683  11.916
64145W        W36559  24.484   6.369  13.324
64146W        W36560  31.487  38.524   1.788
64147W        W36561   2.801  44.263   1.327
64148W        W36562   3.379   9.709   2.895
64149W        W36563  42.967  32.633  13.495
64150W        W36564  37.548  36.420  13.539
64151W        W36565  28.941  10.781  14.931
64152W        W36566  14.705   6.429   3.366
64153W        W36567  14.140  22.608  14.295
64154W        W36568  29.436  23.611  11.107
64155W        W36569  23.672   7.892   3.300
64156W        W36570  32.530  15.220  10.948
64157W        W36571   4.740  38.490  10.018
64158W        W36572  12.777  13.314   0.783
64159W        W36573   2.841  36.087  12.044
64160W        W36574  39.338  41.526   0.900
64161W        W36575  38.516  31.993  12.422
64162W        W36576  13.203   6.230   9.671
64163W        W36577  25.210   0.764  11.491
64164W        W36578  30.159  17.608   1.339
64165W        W36579   8.362  36.956  14.855
64166W        W36580   1.272   5.293   2.779
64167W        W36581   8.182  35.510  14.487
64168W        W36582  21.237   2.778  14.404
64169W        W36583  43.386  24.595  13.459
64170W        W36584  27.550   0.809  12.545
64171W        W36585  15.617  33.106  12.057
64172W        W36586   2.805  27.076  11.095
64173W        W36587  36.999  39.450   4.252
64174W        W36588   4.842  13.286  10.633
64175W        W36589  40.371   2.774   3.208
64176W        W36590  23.598  22.012   0.814
64177W        W36591  11.650  33.915  14.864
64178W        W36592  15.261   8.164  11.440
64179W        W36593  28.675  28.671  10.954
64180W        W36594  38.338  33.522  11.009
64181W        W36595  24.997  39.377   2.367
64182W        W36596  28.072  41.325  12.505
64183W        W36597   9.264  12.268  11.071
64184W        W36598  28.576   7.780  13.804
64185W        W36599  33.879  32.432  12.073
64186W        W36600  10.753   9.786  14.816
64187W        W36601  12.731  24.223  11.592
64188W        W36602   9.837  21.523   3.669
64189W        W36603  11.675  23.037   3.638
64190W        W36604  22.019  19.178  14.910
64191W        W36605  11.324  12.155  12.577
64192W        W36606  35.071  43.970   2.696
64193W        W36607  31.061   5.259  13.930
64194W        W36608   3.845  34.108   4.599
64195W        W36609   0.810  13.244   2.253
64196W        W36610   1.785  40.940  13.853
64197W        W36611  39.051  18.756  11.504
64198W        W36612  22.198   3.775   1.783
64199W        W36613   2.421  23.659   2.863
64200W        W36614  11.259  25.689  12.568
64201W        W36615   1.434  18.603   2.712
64202W        W36616  18.128   4.919   4.349
64203W        W36617  23.549   6.405  14.872
64204W        W36618  31.932   1.934   3.652
64205W        W36619  23.640  18.152  10.088
64206W        W36620   7.870  19.738   2.720
64207W        W36621  36.054   0.465   1.345
64208W        W36622  17.102  36.556  14.025
64209W        W36623  31.921  42.830   3.251
64210W        W36624   7.752  39.341   1.730
64211W        W36625  34.933  28.096  12.998
64212W        W36626  19.179  17.676  12.581
64213W        W36627  16.691  18.634  14.020
64214W        W36628  10.654  40.003  12.925
64215W        W36629  11.750  37.931  13.853
64216W        W36630  21.112   6.379  14.515
64217W        W36631  37.009   2.253  14.833
64218W        W36632   6.246  20.159   4.291
64219W        W36633  40.913  10.235   1.236
64220W        W36634  33.082  32.480  12.938
64221W        W36635  36.592  19.192  13.404
64222W        W36636  43.429  15.740  10.515
64223W        W36637  33.089  30.654   1.212
64224W        W36638  25.087  19.243   1.414
64225W        W36639   3.231   3.321  14.384
64226W        W36640  34.391  44.863  14.846
64227W        W36641  26.136   5.378  12.355
64228W        W36642  36.583  41.431  11.474
64229W        W36643  11.202   8.273  13.436
64230W        W36644  13.322  25.030   2.383
64231W        W36645  37.573  10.743   2.347
64232W        W36646   2.747  19.585   2.201
64233W        W36647  22.026  26.116   1.330
64234W        W36648   1.844  12.249   0.421
64235W        W36649   9.269  30.582   3.745
64236W        W36650   6.272  35.964  14.786
64237W        W36651  25.675   7.717  13.393
64238W        W36652  27.674  40.348   3.301
64239W        W36653  44.298  27.132  10.996
64240W        W36654   7.191  16.616  12.551
64241W        W36655  30.952   2.790   3.803
64242W        W36656  34.113  10.811  14.792
64243W        W36657  38.864  26.538  11.041
64244W        W36658  17.603  22.710   2.309
64245W        W36659  31.440   8.401  14.023
64246W        W36660  22.020  21.624  14.293
64247W        W36661   9.778  25.507   2.851
64248W        W36662  13.767  20.070   5.290
64249W        W36663   8.750  28.092  10.582
64250W        W36664  24.983   9.304  11.603
64251W        W36665   6.878  20.746   0.759
64252W        W36666  44.440  38.413   2.375
64253W        W36667  26.976  13.692   3.193
64254W        W36668  42.833  21.741   4.348
64255W        W36669  22.565  43.313  14.326
64256W        W36670  28.990  19.117   0.399
64257W        W36671  35.037  22.036  10.463
64258W        W36672   3.373  24.058  13.883
64259W        W36673  24.505   0.384  14.296
64260W        W36674  17.679   5.199   4.822
64261W        W36675  24.542   7.848  14.848
64262W        W36676  16.589  31.638   3.352
64263W        W36677  38.906  21.688  10.113
64264W        W36678  15.086   9.786   1.365
64265W        W36679  16.710  14.763   4.181
64266W        W36680  43.493  17.638  10.940
64267W        W36681  10.862  29.004  14.018
64268W        W36682  38.386  30.424   4.835
64269W        W36683  37.518  37.477  13.989
64270W        W36684  39.380  32.924   5.723
64271W        W36685  39.992  24.077  14.376
64272W        W36686  26.563  38.963   5.137
64273W        W36687  10.844  12.242   1.247
64274W        W36688   5.920  20.627  11.612
64275W        W36689  16.265  43.799   2.215
64276W        W36690  44.961  24.075   0.890
64277W        W36691  22.163  22.631  11.908
64278W        W36692   4.911  11.850  11.550
64279W        W36693  30.640  32.095  11.914
64280W        W36694  43.833  38.920  12.398
64281W        W36695  28.951  42.442   2.323
64282W        W36696  40.943  40.835  13.885
64283W        W36697   5.875   0.810  10.538
64284W        W36698  32.951  14.279   3.633
64285W        W36699  34.505  38.347  14.333
64286W        W36700  13.843   0.364  11.478
64287W        W36701  22.173  27.056   1.388
64288W        W36702  29.046   0.276   3.729
64289W        W36703  11.225  30.646  12.414
64290W        W36704  44.999   7.787   0.755
64291W        W36705  26.185  17.658   9.504
64292W        W36706  43.370  34.535  11.542
64293W        W36707  38.940  35.519   3.713
64294W        W36708   0.928   1.860  12.076
64295W        W36709  30.630  26.105  11.904
64296W        W36710  41.532  38.525  13.893
64297W        W36711   4.922  13.740   4.234
64298W        W36712  15.602   8.721   3.822
64299W        W36713  27.121  33.611   0.884
64300W        W36714  20.091  10.857   2.384
64301W        W36715   5.353  43.792   1.795
64302W        W36716   7.201  18.063   0.426
64303W        W36717  30.101  10.247   3.783
64304W        W36718  39.865  41.815   4.267
64305W        W36719  36.470  29.497   0.282
64306W        W36720  13.268  29.954   4.749
64307W        W36721  18.679  33.001  11.596
64308W        W36722   0.363  22.546   4.343
64309W        W36723  36.091   3.886  10.415
64310W        W36724  12.335  31.115  11.861
64311W        W36725  11.639  43.487  11.496
64312W        W36726  11.791  33.410  14.810
64313W        W36727  25.041  22.696   0.901
64314W        W36728  25.680   4.777  11.552
64315W        W36729  20.612   6.852   2.370
64316W        W36730   1.819  13.840   4.311
64317W        W36731  39.945   4.709  12.350
64318W        W36732   8.300  36.920   0.775
64319W        W36733  39.923  19.231  10.968
64320W        W36734  22.652   5.707  14.297
64321W        W36735  23.987  15.290  11.980
64322W        W36736   1.479   6.698  14.991
64323W        W36737  20.546   1.908  12.866
64324W        W36738  35.961  33.539   5.610
64325W        W36739  10.791  41.397   3.303
64326W        W36740  14.817  41.500   2.344
64327W        W36741  33.925  17.677  14.387
64328W        W36742  36.375  26.615   3.371
64329W        W36743  19.756  41.363  13.057
64330W        W36744  16.568   4.282   0.350
64331W        W36745   3.898  32.493  12.569
64332W        W36746   7.836  23.539   9.980
64333W        W36747   5.743  43.808   3.215
64334W        W36748   8.278  15.655  12.475
64335W        W36749   6.701  43.291  10.972
64336W        W36750   6.895   1.263  12.967
64337W        W36751  15.329  38.864   4.164
64338W        W36752  37.066   3.362   5.202
64339W        W36753   9.160  29.924  14.435
64340W        W36754  40.867  18.097  11.476
64341W        W36755  19.709  37.441  10.482
64342W        W36756   2.737  21.549  13.535
64343W        W36757  13.608   8.732  12.004
64344W        W36758  30.588  12.287   2.206
64345W        W36759  34.121   4.939  12.879
64346W        W36760   6.799  23.513   1.354
64347W        W36761   0.360  32.976  12.443
64348W        W36762  23.992  16.173   1.329
64349W        W36763  23.601  38.433  11.510
64350W        W36764  34.463   7.414  13.852
64351W        W36765   9.169  39.467   1.822
64352W        W36766   4.813  37.869  12.424
64353W        W36767  25.489   6.787  10.613
64354W        W36768  28.590   3.368  14.334
64355W        W36769  15.688  29.521   2.884
64356W        W36770  40.478  37.485  11.904
64357W        W36771  14.174  22.225  10.632
64358W        W36772  22.604  44.292  13.792
64359W        W36773  10.244  35.016   2.415
64360W        W36774   1.441   9.869  14.844
64361W        W36775  33.089  12.328   1.326
64362W        W36776  18.568  29.617   1.230
64363W        W36777  19.779  36.907  14.422
64364W        W36778  19.744  11.190  11.933
64365W        W36779  20.240  31.084   0.869
64366W        W36780  20.575  33.441  14.851
64367W        W36781  15.098  25.036  12.490
64368W        W36782  11.183  24.486  13.898
64369W        W36783  14.302  13.731  11.371
64370W        W36784  32.616  34.969  13.403
64371W        W36785  44.883  39.326   3.290
64372W        W36786   4.233  29.066   1.364
64373W        W36787  29.990   8.685  11.459
64374W        W36788  37.833   3.929  12.981
64375W        W36789  39.991  22.682  11.100
64376W        W36790   0.269  16.236  11.064
64377W        W36791  34.431  12.617  12.427
64378W        W36792  21.588  29.524  14.361
64379W        W36793   3.882  13.118  12.504
64380W        W36794  27.484   7.327  12.444
64381W        W36795   6.730   2.782   0.359
64382W        W36796  19.052  42.520   1.304
64383W        W36797   2.858  18.149  13.884
64384W        W36798   8.879  35.858   1.299
64385W        W36799  13.176   3.254  11.998
64386W        W36800  15.685  17.714   3.320
64387W        W36801  12.821  32.579   3.296
64388W        W36802  30.429   4.791   3.282
64389W        W36803  17.298  32.960   0.954
64390W        W36804  19.254   0.313  11.115
64391W        W36805   5.204  39.325  14.374
64392W        W36806  36.081   7.849  10.435
64393W        W36807  10.281  38.356   3.862
64394W        W36808  35.499  41.799   0.737
64395W        W36809   8.272  25.643   3.386
64396W        W36810  43.457  25.197  12.361
64397W        W36811  25.965  43.772  11.909
64398W        W36812  25.551  31.514  14.446
64399W        W36813   0.323   3.812  13.836
64400W        W36814  13.134   4.254  10.964
64401W        W36815   0.420   1.364   2.664
64402W        W36816  42.468  31.603  10.631
64403W        W36817   5.223   3.382   3.313
64404W        W36818  43.879  42.408  14.869
64405W        W36819  27.975  23.237  11.487
64406W        W36820   1.766  35.073   0.469
64407W        W36821  33.618  40.830  10.960
64408W        W36822  27.646  32.492  14.808
64409W        W36823   3.803  44.267  10.609
64410W        W36824  35.424  16.232  12.540
64411W        W36825  43.835  39.535  10.979
64412W        W36826  44.384  26.472   9.947
64413W        W36827  37.977  40.890  14.917
64414W        W36828  29.979   7.749  14.828
64415W        W36829  43.889  33.054  12.396
64416W        W36830   3.292  21.088   0.742
64417W        W36831  22.592  26.498  10.577
64418W        W36832  16.810  33.399   3.630
64419W        W36833  16.616  42.411   0.895
64420W        W36834  28.995  27.616   4.261
64421W        W36835  25.160  30.010  14.363
64422W        W36836  43.403  37.524  12.369
64423W        W36837  29.662   2.413   0.476
64424W        W36838  20.625  26.167   3.263
64425W        W36839   5.896  42.028   3.177
64426W        W36840   4.367   5.382  12.364
64427W        W36841  10.715  34.111  14.780
64428W        W36842  13.163  27.965   1.714
64429W        W36843  42.460  25.591   0.740
64430W        W36844  30.542  34.975  12.435
64431W        W36845  32.133  12.270  11.082
64432W        W36846  41.945  38.939   4.241
64433W        W36847  34.554   0.808   4.171
64434W        W36848  44.317  35.929  10.902
64435W        W36849  42.813  35.416  11.510
64436W        W36850  19.167  12.172  11.031
64437W        W36851  23.053  16.134   1.436
64438W        W36852  42.325   1.439   3.174
64439W        W36853  11.319  16.284   4.786
64440W        W36854   9.740  30.515  12.094
64441W        W36855   7.238   6.353  13.444
64442W        W36856  44.947  44.445   2.827
64443W        W36857   8.878  28.579   0.964
64444W        W36858  12.202  30.929  10.501
64445W        W36859  21.192  32.515  13.365
64446W        W36860  12.228  37.971   1.367
64447W        W36861  40.346  35.109  13.871
64448W        W36862  11.327  31.417   1.447
64449W        W36863  17.299   3.384   0.793
64450W        W36864  33.402   7.192  14.880
64451W        W36865  16.577  15.704   0.462
64452W        W36866  40.483   1.910  11.031
64453W        W36867  15.658  29.658  11.929
64454W        W36868  30.930  32.106  12.411
64455W        W36869  36.069  12.358  11.477
64456W        W36870  16.569  16.261   4.728
64457W        W36871  41.492   9.719   1.437
64458W        W36872   9.379  32.113   4.143
64459W        W36873   8.761  26.094   2.357
64460W        W36874  11.710  39.048  14.493
64461W        W36875  43.775  25.475   4.300
64462W        W36876  44.778  17.105  10.030
64463W        W36877  33.436  14.127  11.999
64464W        W36878  41.979  13.641  11.868
64465W        W36879  34.882   9.271   2.811
64466W        W36880   4.230  11.319  10.455
64467W        W36881  37.576  44.956  12.388
64468W        W36882  35.505   7.867  11.884
64469W        W36883  36.449   9.679   2.887
64470W        W36884  40.444  34.103  12.354
64471W        W36885   7.187  41.806  11.933
64472W        W36886   7.716  29.929  12.452
64473W        W36887   9.268  34.396  14.851
64474W        W36888  14.144   4.802  12.980
64475W        W36889  43.874   5.792  11.058
64476W        W36890   4.897  38.380   0.449
64477W        W36891  33.525  31.463  14.905
64478W        W36892  41.336   5.824   2.232
64479W        W36893  21.511  36.581  12.563
64480W        W36894  29.488  29.103   4.664
64481W        W36895  40.961  25.093  10.411
64482W        W36896  22.063  20.245  10.926
64483W        W36897  18.598   1.759  10.943
64484W        W36898  33.001  31.992   1.775
64485W        W36899  28.057  37.900  13.321
64486W        W36900  31.404   3.839   0.247
64487W        W36901  38.453  40.439   0.438
64488W        W36902  43.430  41.819   0.306
64489W        W36903  43.954  17.753   2.337
64490W        W36904  28.173  21.262   1.845
64491W        W36905  42.300  39.019   2.385
64492W        W36906  11.362   7.298  12.445
64493W        W36907  12.616  34.407  12.828
64494W        W36908  23.141  16.666   4.784
64495W        W36909  12.194  38.021  10.463
64496W        W36910   1.312  40.514   4.128
64497W        W36911  23.644  24.629  14.464
64498W        W36912  12.300  13.322   2.706
64499W        W36913  44.345  26.662  13.397
64500W        W36914  36.517  23.170   1.402
64501W        W36915  40.537  18.210  14.957
64502W        W36916  41.830  32.972  11.547
64503W        W36917  19.702   2.729  12.006
64504W        W36918  13.674  21.141  11.979
64505W        W36919  40.329   2.290  13.860
64506W        W36920  37.047   2.416  12.055
64507W        W36921  32.405  19.632   3.721
64508W        W36922  25.569   7.790   1.385
64509W        W36923  42.920   2.403  13.887
64510W        W36924  14.231   0.374  13.045
64511W        W36925  15.115  42.798  10.974
64512W        W36926  22.598   6.420  14.481
64513W        W36927  10.640  29.452  10.901
64514W        W36928   8.805  37.578  14.854
64515W        W36929  27.517  29.114  13.438
64516W        W36930   0.773  16.275   3.331
64517W        W36931  38.982  19.124   3.189
64518W        W36932  27.107  33.882   4.750
64519W        W36933  44.760  41.972   3.293
64520W        W36934  38.840  44.370   4.180
64521W        W36935  19.619  38.525  12.417
64522W        W36936  23.508  14.217  11.563
64523W        W36937  29.096  36.964  12.376
64524W        W36938   6.918  32.067   2.824
64525W        W36939  11.336  22.586   1.316
64526W        W36940  17.128  23.043  14.327
64527W        W36941  24.216  16.239   9.626
64528W        W36942   2.428  24.034  14.884
64529W        W36943   2.330   1.808  11.029
64530W        W36944  21.195  29.097   1.211
64531W        W36945  30.431  12.119  13.476
64532W        W36946  15.676   2.422   1.347
64533W        W36947  29.991  40.323  13.811
64534W        W36948   3.221   8.246  12.992
64535W        W36949  44.401  20.274  12.971
64536W        W36950  32.095   6.254  14.352
64537W        W36951  20.217  22.640   3.748
64538W        W36952   2.852  37.469  10.529
64539W        W36953   7.796  26.598   2.324
64540W        W36954   0.321  34.400   0.373
64541W        W36955  16.766  37.851   1.798
64542W        W36956  13.688  34.564  11.509
64543W        W36957  20.620  36.426  11.087
64544W        W36958  11.803   3.755   2.774
64545W        W36959  19.170  42.013  14.854
64546W        W36960  34.084  35.364   0.805
64547W        W36961  25.517  23.493   2.231
64548W        W36962  28.144  32.924   4.601
64549W        W36963  27.614   4.771  11.967
64550W        W36964  36.955  37.461   1.916
64551W        W36965  23.606  16.210  13.466
64552W        W36966  32.440  36.969  13.338
64553W        W36967  36.922  36.086  13.850
64554W        W36968   4.781  22.674   3.281
64555W        W36969  21.686  40.010   3.353
64556W        W36970  38.393   4.823   0.482
64557W        W36971   9.879  11.859  12.966
64558W        W36972   6.782   5.885   3.273
64559W        W36973  23.541   0.479  13.535
64560W        W36974  33.457  27.559   1.416
64561W        W36975  37.381  18.669   1.903
64562W        W36976   2.361  19.555   0.858
64563W        W36977  41.355   1.331   1.825
64564W        W36978  30.138  21.196   3.664
64565W        W36979  30.919  28.012  10.059
64566W        W36980  11.219  14.116  11.378
64567W        W36981  26.572  22.710  14.765
64568W        W36982   5.708  23.711   3.746
64569W        W36983  21.025  14.669   5.220
64570W        W36984  38.909   4.779  11.544
64571W        W36985  31.993  27.952   1.270
64572W        W36986  21.147  39.327   0.344
64573W        W36987  36.474  12.271   3.685
64574W        W36988  33.616  10.676   4.114
64575W        W36989  19.040  38.930  13.976
64576W        W36990  15.636   0.943  10.418
64577W        W36991  29.645  41.034   1.785
64578W        W36992  34.896   0.394   1.424
64579W        W36993  37.355  34.121   3.265
64580W        W36994  27.034   5.754  12.884
64581W        W36995  17.752   9.312   1.802
64582W        W36996  23.215  24.494  11.405
64583W        W36997  26.598   0.484   4.634
64584W        W36998  31.460  19.059  14.876
64585W        W36999  40.899  23.679  13.424
64586W        W37000  26.684  19.096  12.445
64587W        W37001  15.117  34.948  13.835
64588W        W37002   9.873  24.503  12.400
64589W        W37003  32.531  33.571   0.936
64590W        W37004  13.654  40.891  12.523
64591W        W37005  23.589  21.078  13.486
64592W        W37006  29.486  22.651  14.778
64593W        W37007  31.127   4.747  11.888
64594W        W37008  11.355  36.968   3.648
64595W        W37009  42.824   8.725   1.893
64596W        W37010  25.682  34.118  12.069
64597W        W37011  19.055  29.601   2.288
64598W        W37012  18.576  40.482   1.761
64599W        W37013   3.710  26.143  10.991
64600W        W37014  23.648  28.083  11.014
64601W        W37015  17.623   8.881  10.631
64602W        W37016  42.801  20.100  13.529
64603W        W37017  29.484  27.621   4.141
64604W        W37018  40.356  20.034   2.816
64605W        W37019  35.432  25.692  10.557
64606W        W37020  12.674  30.026   1.906
64607W        W37021  18.652  23.718   5.255
64608W        W37022   5.812   6.277  11.925
64609W        W37023  15.766  43.842  12.411
64610W        W37024   0.788  38.993  11.601
64611W        W37025   9.684  23.199  14.901
64612W        W37026   3.331  35.513  10.611
64613W        W37027  34.045  18.071  12.402
64614W        W37028   6.832  43.975   4.673
64615W        W37029  26.593  42.974  13.449
64616W        W37030   3.814  35.561  10.922
64617W        W37031  14.186  31.918   0.408
64618W        W37032   0.891   8.256  10.466
64619W        W37033  40.892   0.462  13.807
64620W        W37034   2.320  25.606   0.954
64621W        W37035  36.042  24.490   4.298
64622W        W37036  30.635   7.403  11.530
64623W        W37037  11.626  17.678   3.180
64624W        W37038  21.047  36.374  14.815
64625W        W37039  23.995  21.069   2.714
64626W        W37040  41.040  41.454   4.156
64627W        W37041  30.146  24.214  14.356
64628W        W37042  16.281  14.600  12.405
64629W        W37043  35.038  10.168  10.509
64630W        W37044  44.867  27.532  14.426
64631W        W37045  12.149  22.202  13.926
64632W        W37046  18.207  33.535  11.435
64633W        W37047  34.473  42.028  14.770
64634W        W37048  34.868   5.751  14.980
64635W        W37049  18.628  35.095  12.455
64636W        W37050  21.088  24.504  13.354
64637W        W37051   1.482   2.406  13.341
64638W        W37052  34.109  30.518  12.559
64639W        W37053  32.405   7.408   3.344
64640W        W37054  43.913  33.071   4.194
64641W        W37055   5.351  32.109  12.498
64642W        W37056  29.989  20.532   2.227
64643W        W37057   9.187  17.286   3.681
64644W        W37058  23.190   0.941   4.172
64645W        W37059   1.443  15.622   1.712
64646W        W37060  33.120  30.657   4.608
64647W        W37061   6.381  44.774   3.356
64648W        W37062  22.581  14.164   2.888
64649W        W37063  26.004  22.092  13.429
64650W        W37064  34.928  30.101  12.977
64651W        W37065  24.139  12.180  13.025
64652W        W37066   6.883  40.360   2.247
64653W        W37067   7.795   5.296   0.751
64654W        W37068  14.160  30.997   1.222
64655W        W37069  37.358  16.677  10.915
64656W        W37070  43.474  10.149  14.969
64657W        W37071   1.956  21.195  11.893
64658W        W37072  39.364  38.400  11.942
64659W        W37073  23.591  29.988  12.982
64660W        W37074   4.214  13.277   2.359
64661W        W37075  22.567  23.717   1.410
64662W        W37076  29.080  25.109   0.867
64663W        W37077  13.165   3.339  11.468
64664W        W37078  29.451  29.953  11.886
64665W        W37079  13.693  42.386  11.573
64666W        W37080  17.271  41.400   1.441
64667W        W37081  23.572   1.413   3.749
64668W        W37082  12.768  28.519  10.448
64669W        W37083  44.410   0.468   1.924
64670W        W37084  43.797  36.349  12.066
64671W        W37085   1.878  16.270  10.991
64672W        W37086  19.588  26.003  12.973
64673W        W37087  22.707  29.473   4.694
64674W        W37088  33.612  16.073  10.897
64675W        W37089   3.427   5.195   4.747
64676W        W37090  10.212  10.667   3.227
64677W        W37091   8.367  29.089  13.398
64678W        W37092   0.383  20.066  11.045
64679W        W37093  42.373  30.494  11.118
64680W        W37094   2.237   1.893   2.837
64681W        W37095  23.524   7.279   2.758
64682W        W37096  24.478  15.789  11.993
64683W        W37097  42.333  35.453   2.355
64684W        W37098   5.697  21.196  12.086
64685W        W37099  12.748  34.601  14.436
64686W        W37100  26.174  13.734  11.385
64687W        W37101  37.361   3.406  13.905
64688W        W37102  29.485  31.030  12.385
64689W        W37103  29.052  44.933  12.399
64690W        W37104  29.506  43.987  10.628
64691W        W37105   2.951   7.690  11.558
64692W        W37106  15.173   7.844   2.255
64693W        W37107   8.318  12.280   4.186
64694W        W37108  31.927  36.511  14.328
64695W        W37109  25.118  16.678   5.280
64696W        W37110   9.198  43.299   1.789
64697W        W37111  11.308  10.836  13.360
64698W        W37112   5.755  32.118   4.837
64699W        W37113  28.165  39.816   0.252
64700W        W37114   3.341  19.743   5.233
64701W        W37115  27.610   2.367  14.907
64702W        W37116  16.240  35.871   3.376
64703W        W37117   4.907  31.463   1.386
64704W        W37118  26.550  24.207   4.786
64705W        W37119  10.163  21.728  14.902
64706W        W37120  12.273  17.718  11.580
64707W        W37121  14.257  39.932   2.742
64708W        W37122  26.961   4.703   2.339
64709W        W37123  12.643   8.762  12.572
64710W        W37124   4.821  32.585  14.773
64711W        W37125  40.962  40.402  10.896
64712W        W37126  44.319  17.767  14.506
64713W        W37127  24.535  38.963  13.890
64714W        W37128  40.976  14.277  13.023
64715W        W37129  28.547  43.382  12.371
64716W        W37130  18.631   8.780  12.445
64717W        W37131  26.019  38.900   2.259
64718W        W37132  12.754  27.151  13.403
64719W        W37133  23.525  14.294  12.056
64720W        W37134  17.190  30.530  10.923
64721W        W37135  21.116   8.263   2.319
64722W        W37136   8.870  34.970  12.990
64723W        W37137  36.424  33.499  13.919
64724W        W37138   3.214  24.721   2.329
64725W        W37139  31.042   5.702  11.583
64726W        W37140  32.925  44.317  13.495
64727W        W37141  25.703   3.808   4.139
64728W        W37142  13.242   7.890   3.264
64729W        W37143  14.149  35.909  10.916
64730W        W37144  11.369  34.991  13.520
64731W        W37145  36.577  31.523   1.390
64732W        W37146  21.627  39.824  13.390
64733W        W37147  14.682  23.041  13.496
64734W        W37148   0.380  15.628   1.754
64735W        W37149   4.922  21.052  10.015
64736W        W37150  43.841  38.008   0.837
64737W        W37151  18.292   3.780  12.836
64738W        W37152   9.298   3.251   1.905
64739W        W37153   5.864  29.135  11.046
64740W        W37154  33.942  41.855   3.763
64741W        W37155  15.257  21.216  13.985
64742W        W37156   4.432  23.528  13.494
64743W        W37157  29.140  27.637   3.246
64744W        W37158  11.650  19.277  10.481
64745W        W37159   6.203  10.764  13.512
64746W        W37160  44.891   4.861   4.827
64747W        W37161  38.373  34.503  14.785
64748W        W37162   1.754  18.598   2.189
64749W        W37163  14.313   1.348  12.044
64750W        W37164  18.571  25.557   0.824
64751W        W37165   6.863  33.561  12.002
64752W        W37166  20.226  34.542  10.607
64753W        W37167  12.308  36.938  12.442
64754W        W37168   2.966  39.508   1.298
64755W        W37169  33.624   8.184  10.929
64756W        W37170  22.617  14.327  11.050
64757W        W37171  35.405  37.878   4.245
64758W        W37172  19.154  33.553  13.330
64759W        W37173  16.075  28.159   2.880
64760W        W37174   4.418   5.353  13.440
64761W        W37175  37.455   3.886  13.496
64762W        W37176  20.583   7.869   0.432
64763W        W37177  10.686  40.798   1.358
64764W        W37178  13.169  13.814  11.067
64765W        W37179  30.498  12.720   3.342
64766W        W37180  13.670   7.705   0.325
64767W        W37181  35.896  42.301   3.350
64768W        W37182  44.001   5.347   0.482
64769W        W37183  35.580   6.231  11.426
64770W        W37184   5.726  15.773   3.226
64771W        W37185  27.010  35.873   1.215
64772W        W37186  18.153   7.885   0.888
64773W        W37187  31.151  14.167   4.832
64774W        W37188   1.452  29.988   4.325
64775W        W37189  39.496  38.976  12.554
64776W        W37190  32.925  20.578  12.954
64777W        W37191   6.277  27.976  10.942
64778W        W37192  34.604  32.511  14.450
64779W        W37193  39.848   9.861   1.427
64780W        W37194  35.007  11.840   2.876
64781W        W37195  15.300  10.843  12.446
64782W        W37196  15.296  18.231   2.700
64783W        W37197  20.188  11.654   4.122
64784W        W37198  13.679  32.621  14.493
64785W        W37199  23.121   9.823   1.260
64786W        W37200  17.157  13.794  12.467
64787W        W37201  17.157  32.023  13.843
64788W        W37202   1.425  15.248  13.810
64789W        W37203   6.231  33.995   1.782
64790W        W37204  24.540  42.799   2.406
64791W        W37205  38.946  43.316   4.236
64792W        W37206   4.858  23.510  10.139
64793W        W37207  43.779  30.567   1.338
64794W        W37208  23.616  11.850  13.373
64795W        W37209  39.016   8.332   1.917
64796W        W37210  19.220  27.681  12.454
64797W        W37211   8.211   4.771   4.301
64798W        W37212  30.131  10.180   4.235
64799W        W37213  25.009  14.220   4.797
64800W        W37214   9.370  31.059   4.222
64801W        W37215  20.582  34.490   4.303
64802W        W37216  41.954  23.701  14.768
64803W        W37217   5.266  25.591   2.783
64804W        W37218  35.907  15.650   1.773
64805W        W37219  38.338  29.955   0.408
64806W        W37220  35.583  28.967  13.533
64807W        W37221  20.122  11.361   3.209
64808W        W37222  42.451  29.491  12.443
64809W        W37223  32.589  21.179  13.035
64810W        W37224  36.009   2.263   0.871
64811W        W37225  15.280  42.425   1.238
64812W        W37226  41.975  24.990   1.299
64813W        W37227   3.363  21.606  12.849
64814W        W37228  12.632  34.868  11.500
64815W        W37229  17.241   5.355   2.296
64816W        W37230  20.603  15.120  12.482
64817W        W37231  42.775  37.977  12.857
64818W        W37232  25.038  21.095  10.122
64819W        W37233   8.657   1.337  12.898
64820W        W37234  22.033  17.614  12.357
64821W        W37235  15.642  31.121   3.189
64822W        W37236  39.928  28.559   2.838
64823W        W37237  15.806  41.327  13.953
64824W        W37238  37.047  43.432   0.843
64825W        W37239  38.040  43.833   4.808
64826W        W37240  28.659  33.982  12.877
64827W        W37241  14.314  44.338   3.783
64828W        W37242  26.586   3.796   3.869
64829W        W37243  33.531   0.872   3.184
64830W        W37244  36.854  24.624  11.610
64831W        W37245  29.661  14.689   3.769
64832W        W37246  35.863   8.254  14.284
64833W        W37247  31.527  17.791  11.903
64834W        W37248  16.744  33.920  11.879
64835W        W37249  27.448  39.493   1.802
64836W        W37250  36.416   8.843  13.984
64837W        W37251   8.249  27.986   0.761
64838W        W37252  12.268   7.354   2.803
64839W        W37253  12.783  26.537  13.060
64840W        W37254   1.237  34.383  10.427
64841W        W37255  20.165  32.058  11.005
64842W        W37256   1.450  25.697  11.003
64843W        W37257  38.011  20.041  12.401
64844W        W37258   9.228  22.029   2.790
64845W        W37259  22.204  40.316  13.475
64846W        W37260   2.396   8.764   1.307
64847W        W37261   2.419  42.889  12.492
64848W        W37262   9.334  33.596  12.571
64849W        W37263   5.421  29.100  10.936
64850W        W37264   0.448   1.478  12.570
64851W        W37265  27.982  33.491   4.824
64852W        W37266   0.489  38.337  14.352
64853W        W37267  39.822  26.614  12.897
64854W        W37268  17.236  21.100  11.081
64855W        W37269  21.700  31.922  13.852
64856W        W37270  42.409  34.484  11.394
64857W        W37271   5.872  40.902   5.157
64858W        W37272  39.004  40.531   0.332
64859W        W37273   3.428  26.481  12.396
64860W        W37274  37.534  38.446  13.317
64861W        W37275  41.377  35.068   1.722
64862W        W37276   9.149   5.301   2.280
64863W        W37277  39.426  28.460  12.875
64864W        W37278  34.580  16.291  13.392
64865W        W37279  29.102  26.492  13.524
64866W        W37280   8.168  25.546   2.681
64867W        W37281  38.890  26.627   4.710
64868W        W37282  17.726  15.271  11.901
64869W        W37283   4.212  18.735  13.361
64870W        W37284   1.256  20.735   0.298
64871W        W37285  20.202  11.366   2.855
64872W        W37286  40.976  24.023   4.335
64873W        W37287  22.084  15.093   1.803
64874W        W37288   9.160  18.725   1.747
64875W        W37289  33.094  38.021   1.747
64876W        W37290   0.846   4.916  11.496
64877W        W37291  14.293  12.146  10.580
64878W        W37292   6.422   2.277  12.929
64879W        W37293  13.304  38.383   0.269
64880W        W37294  27.185   0.912  11.458
64881W        W37295  33.995  40.826  10.448
64882W        W37296   3.850   7.183  13.406
64883W        W37297  13.211  23.663   0.417
64884W        W37298  22.128   3.334  13.358
64885W        W37299  19.136  22.569   0.448
64886W        W37300  20.129  15.760  14.782
64887W        W37301  38.382  26.701  13.941
64888W        W37302   7.327  39.461  14.335
64889W        W37303  14.721  34.575   3.297
64890W        W37304  18.288  37.462  13.975
64891W        W37305  13.283  44.396  10.949
64892W        W37306  13.281   7.203   4.341
64893W        W37307  11.145  37.900  12.498
64894W        W37308  39.374  35.865   5.301
64895W        W37309  31.437  44.992   4.780
64896W        W37310  29.172  10.641  12.072
64897W        W37311  10.669  32.022  14.277
64898W        W37312  29.475   3.723   3.719
64899W        W37313  21.672  15.706  13.003
64900W        W37314  40.038   6.411  14.024
64901W        W37315  36.983  40.317  13.925
64902W        W37316  14.732  25.678  10.417
64903W        W37317  38.871  31.064  14.367
64904W        W37318  40.511  17.212  12.866
64905W        W37319  24.156  28.065  11.885
64906W        W37320  18.724  41.945   2.256
64907W        W37321   7.324   8.190   1.919
64908W        W37322   8.228  28.063  11.508
64909W        W37323  15.171   2.857   2.711
64910W        W37324  20.678  19.148   3.683
64911W        W37325   7.754  30.587   0.949
64912W        W37326  39.936  14.711   0.320
64913W        W37327   6.918   7.316   1.823
64914W        W37328   6.412  33.975   4.167
64915W        W37329   0.903  12.814   0.321
64916W        W37330  19.739  21.068   1.272
64917W        W37331  24.478   8.344  14.031
64918W        W37332  38.462  15.603   3.709
64919W        W37333  40.530  24.131   4.243
64920W        W37334  44.279  36.898  12.371
64921W        W37335  41.978  41.918  11.005
64922W        W37336  32.140  36.885  12.551
64923W        W37337  14.702  35.878   4.351
64924W        W37338  11.250  18.052   3.799
64925W        W37339  38.467  35.867   4.677
64926W        W37340  27.109   6.827  12.868
64927W        W37341  31.928   8.289  10.991
64928W        W37342  14.097  12.217  11.551
64929W        W37343  22.501   0.431   3.659
64930W        W37344  36.872  15.187  14.763
64931W        W37345  23.025  28.666   2.821
64932W        W37346  41.959  38.522  10.949
64933W        W37347  12.215   0.375   3.156
64934W        W37348  18.056   8.777  13.515
64935W        W37349  35.027  25.051   5.133
64936W        W37350  11.209  19.283   4.607
64937W        W37351   2.896  19.150  13.044
64938W        W37352  42.352  33.910   4.141
64939W        W37353  32.547  26.534  12.962
64940W        W37354   3.241  38.523  10.637
64941W        W37355  37.049  17.767   3.176
64942W        W37356  24.657   1.819  12.919
64943W        W37357  43.428  13.710  12.024
64944W        W37358   1.826  36.518  14.333
64945W        W37359  39.386  43.429  14.492
64946W        W37360   0.383  17.190   2.890
64947W        W37361  30.509  21.706  10.968
64948W        W37362   8.728   1.811   0.478
64949W        W37363  11.722  23.091   1.903
64950W        W37364  31.934   5.431   1.876
64951W        W37365  22.193  16.639  10.474
64952W        W37366  44.803  20.061  14.775
64953W        W37367  11.630  37.571   1.775
64954W        W37368  36.943   7.765  12.010
64955W        W37369  12.648  29.096  13.955
64956W        W37370  13.346  23.498  13.462
64957W        W37371  38.061  22.715   2.890
64958W        W37372  20.184  18.127  14.930
64959W        W37373  42.515  11.242  12.062
64960W        W37374   7.705  31.136   4.218
64961W        W37375  41.416   9.805  10.969
64962W        W37376  31.519  28.077   4.614
64963W        W37377  28.574  36.918  14.374
64964W        W37378  33.923  23.733   0.268
64965W        W37379   1.397   0.377  11.116
64966W        W37380   5.319  27.621  10.636
64967W        W37381  23.216  22.046   4.797
64968W        W37382   2.323  11.622  11.608
64969W        W37383  13.299  28.166   1.420
64970W        W37384  36.957  41.482   3.662
64971W        W37385  37.890  35.397   4.837
64972W        W37386  44.862  33.457  13.794
64973W        W37387  21.044   1.253  12.519
64974W        W37388  25.004  24.027   3.652
64975W        W37389  24.143  15.129  10.982
64976W        W37390   0.958  10.204   1.700
64977W        W37391  36.406  39.873   3.339
64978W        W37392  17.636  16.088  13.495
64979W        W37393  34.418  42.941  13.019
64980W        W37394  14.126  22.742   3.329
64981W        W37395  14.710  14.158  14.759
64982W        W37396  23.161  10.783  11.872
64983W        W37397  16.657  10.718   2.866
64984W        W37398   3.738  15.676  13.501
64985W        W37399   5.253  29.992  13.947
64986W        W37400  27.516  16.247   4.771
64987W        W37401  26.981  30.107  12.024
64988W        W37402  29.566  20.208   1.361
64989W        W37403  39.859  41.950  13.327
64990W        W37404  14.728  29.523   2.313
64991W        W37405  12.809  24.025  11.869
64992W        W37406  11.132   7.256  12.083
64993W        W37407  22.571   4.359   1.267
64994W        W37408  17.262  28.657  10.546
64995W        W37409   4.810  33.511   2.834
64996W        W37410  36.851  27.633  14.848
64997W        W37411  41.951  38.822   5.259
64998W        W37412  16.792  30.573   3.652
64999W        W37413   7.798  19.719   5.212
65000W        W37414   9.174  28.543  13.029
65001W        W37415  14.093  20.213   0.344
65002W        W37416  33.485  17.700   2.899
65003W        W37417  37.894   7.336   1.863
65004W        W37418  15.241  26.569  11.957
65005W        W37419  37.564  42.474   3.723
65006W        W37420  30.477  22.564   0.393
65007W        W37421  11.132  32.070   3.332
65008W        W37422  26.174  33.906   3.315
65009W        W37423  22.650  29.458  11.474
65010W        W37424   5.877  35.901   3.289
65011W        W37425  33.561  22.597  10.609
65012W        W37426  16.254  16.796  11.084
65013W        W37427   5.692   6.684  14.896
65014W        W37428   9.337  21.180   4.294
65015W        W37429  10.370  26.170   2.272
65016W        W37430  14.689   5.282   9.928
65017W        W37431  44.978  30.075  12.974
65018W        W37432  19.690  39.928   1.291
65019W        W37433   5.704   0.435  10.905
65020W        W37434  37.551  11.747  14.782
65021W        W37435  44.813  41.490   3.305
65022W        W37436  44.274  16.761   0.290
65023W        W37437   2.822   9.804   4.321
65024W        W37438  20.657  42.778  13.412
65025W        W37439  15.224  16.184   2.258
65026W        W37440  19.208  36.445   3.734
65027W        W37441  14.772  40.804  11.941
65028W        W37442  15.600  37.037   3.306
65029W        W37443  40.014   1.460  11.605
65030W        W37444  41.510  24.599  14.989
65031W        W37445  37.526  33.449  10.455
65032W        W37446  36.032   2.455  11.524
65033W        W37447  10.791  30.429   0.382
65034W        W37448  17.214  35.892  11.390
65035W        W37449  40.535  37.981  14.763
65036W        W37450  13.756   7.404  11.892
65037W        W37451  25.531   2.228   2.209
65038W        W37452  18.655   4.444  11.892
65039W        W37453  23.994  22.525  10.931
65040W        W37454  21.709  12.829   0.396
65041W        W37455  35.461  39.342   4.261
65042W        W37456  41.424   6.809   4.149
65043W        W37457  36.488  35.987   1.832
65044W        W37458  26.679  34.087   4.767
65045W        W37459  38.405  13.817  14.489
65046W        W37460  22.077  30.105  12.963
65047W        W37461   9.302  16.281   0.314
65048W        W37462  17.111   6.332  11.083
65049W        W37463  11.824   4.414  13.052
65050W        W37464  16.264  29.435  13.517
65051W        W37465   4.345  32.906  14.475
65052W        W37466  38.516  44.468   4.672
65053W        W37467  10.371  31.968  12.443
65054W        W37468  38.395  34.581   5.118
65055W        W37469  21.262   3.804  13.934
65056W        W37470  25.475  15.180   0.952
65057W        W37471   1.291   1.237   1.258
65058W        W37472  20.752  27.166  11.486
65059W        W37473   5.797  20.255  12.564
65060W        W37474   9.313  33.906  11.046
65061W        W37475  27.177  13.811   2.318
65062W        W37476  38.892  24.608  13.983
65063W        W37477   4.772  27.553   1.708
65064W        W37478   7.232  30.078  11.010
65065W        W37479   4.776   8.898   0.248
65066W        W37480  30.934  44.792  12.566
65067W        W37481  29.633  44.918  13.375
65068W        W37482  18.224  42.857   2.346
65069W        W37483  10.286  38.051  10.992
65070W        W37484   9.753  43.437   0.282
65071W        W37485  25.072  43.948  11.553
65072W        W37486  32.609  40.404  13.307
65073W        W37487  34.410  24.023   5.210
65074W        W37488  23.591  31.981  11.475
65075W        W37489   2.955  34.099  12.915
65076W        W37490   8.698  37.885  11.972
65077W        W37491   9.691   5.295   3.687
65078W        W37492  34.569  17.706   4.808
65079W        W37493  22.678  30.554   0.474
65080W        W37494  13.817  30.009  12.909
65081W        W37495  39.530  37.381  14.958
65082W        W37496   8.828  14.629   1.332
65083W        W37497   8.703  31.945   1.341
65084W        W37498  43.305  25.077   0.253
65085W        W37499   5.762  40.823  13.813
65086W        W37500  28.659  31.923  12.860
65087W        W37501  13.726   1.429  12.065
65088W        W37502   4.376   2.802  10.567
65089W        W37503   7.214  36.393   0.441
65090W        W37504  27.552  29.148   2.844
65091W        W37505  13.753  25.564  12.022
65092W        W37506  32.119  21.547   1.696
65093W        W37507  39.474   5.906  13.445
65094W        W37508   1.327  17.094   4.205
65095W        W37509  23.105  23.659   4.191
65096W        W37510   8.673  43.413   0.280
65097W        W37511  10.267  26.679  13.434
65098W        W37512  38.887   8.297   3.244
65099W        W37513  32.637  18.112  14.368
65100W        W37514  30.607  26.612  14.446
65101W        W37515  12.729  38.351  12.047
65102W        W37516   5.214  28.008   3.278
65103W        W37517  32.076  11.351   2.683
65104W        W37518  10.779  44.919   3.223
65105W        W37519   0.398  40.870   3.845
65106W        W37520  35.498  11.336   3.783
65107W        W37521  40.812  35.468  12.535
65108W        W37522  29.050  36.042  12.566
65109W        W37523  43.840  39.488  12.039
65110W        W37524  42.447   2.449  14.966
65111W        W37525   2.284  32.038   2.792
65112W        W37526  21.035  38.481  12.393
65113W        W37527  28.510  41.994  12.845
65114W        W37528  10.731  22.055   1.362
65115W        W37529  26.022   4.262   0.870
65116W        W37530   8.867  42.357  12.859
65117W        W37531  11.141  44.862   4.246
65118W        W37532  19.061   3.217   2.751
65119W        W37533  31.555   7.373   1.903
65120W        W37534  29.610  43.818  12.525
65121W        W37535  28.569  13.651   2.761
65122W        W37536  27.081  20.767  13.491
65123W        W37537   7.383  14.212  11.076
65124W        W37538  26.485   4.889  14.432
65125W        W37539  29.474   3.406  14.292
65126W        W37540  23.538  37.911  12.362
65127W        W37541  27.505   9.881  14.293
65128W        W37542  15.806  10.235   1.822
65129W        W37543  15.779   3.417  14.773
65130W        W37544  18.707  34.071   4.812
65131W        W37545  13.126  19.635  11.405
65132W        W37546  43.904  17.145   1.371
65133W        W37547   4.308  18.551   3.199
65134W        W37548  27.049   3.300  12.546
65135W        W37549  19.744   3.920   3.724
65136W        W37550  41.035  35.417   0.422
65137W        W37551  18.715  39.405  10.542
65138W        W37552  43.810  39.022   0.466
65139W        W37553  35.884  24.677   0.395
65140W        W37554   1.295  12.734   2.377
65141W        W37555  28.994  36.909   3.860
65142W        W37556   8.846  26.030  12.843
65143W        W37557  17.769  28.073  13.008
65144W        W37558   3.430  23.068  14.475
65145W        W37559  20.247  12.120  10.425
65146W        W37560  41.818  13.255   3.332
65147W        W37561  40.029  10.838  10.997
65148W        W37562  19.112  24.569   0.894
65149W        W37563  42.391   9.759   0.356
65150W        W37564  23.663   3.933   3.231
65151W        W37565   8.384  10.166  14.463
65152W        W37566  24.127  23.152   1.926
65153W        W37567  22.013   6.373   2.812
65154W        W37568  24.114  39.859  13.953
65155W        W37569  21.126   4.929   5.095
65156W        W37570  17.600  14.110  11.102
65157W        W37571  40.326  23.051   0.482
65158W        W37572  15.614  28.074  13.481
65159W        W37573  33.423  29.612   0.268
65160W        W37574  28.081  14.154   2.775
65161W        W37575  11.715  35.878   4.602
65162W        W37576  12.635  23.066  10.572
65163W        W37577  26.198  21.559  11.934
65164W        W37578  41.316  16.742   1.873
65165W        W37579  31.606  28.494  11.396
65166W        W37580  11.648   5.367   2.219
65167W        W37581   7.237  38.020  14.830
65168W        W37582   6.415   1.917  12.028
65169W        W37583  37.356  41.493  12.349
65170W        W37584  18.161  24.703  13.937
65171W        W37585  41.787  34.052   0.379
65172W        W37586  29.554  11.675  11.410
65173W        W37587  14.111  44.459   2.834
65174W        W37588   8.330   4.271  11.010
65175W        W37589  34.959  41.811   4.728
65176W        W37590   1.479   6.838  13.811
65177W        W37591  16.235  14.201   1.791
65178W        W37592   8.749   1.308  13.917
65179W        W37593  41.941   5.702  13.018
65180W        W37594   8.851  40.989   3.238
65181W        W37595  27.113  20.724  14.382
65182W        W37596   0.770  19.716   1.412
65183W        W37597  43.008   9.236   4.199
65184W        W37598  27.155  30.498  13.061
65185W        W37599  19.209  30.137  12.033
65186W        W37600  15.100   1.919   2.691
65187W        W37601   9.200  21.713   3.180
65188W        W37602  35.033  39.404   2.692
65189W        W37603   2.724  44.785   1.344
65190W        W37604   9.339  41.489   5.170
65191W        W37605  41.943   3.895   4.665
65192W        W37606   0.898   5.215  13.933
65193W        W37607  10.367  10.260  14.964
65194W        W37608  24.012  38.422   1.405
65195W        W37609  26.987  29.666  12.985
65196W        W37610   3.790   8.213  13.493
65197W        W37611  28.079  36.069  11.570
65198W        W37612  12.848  12.826   4.810
65199W        W37613  41.880  25.472   0.323
65200W        W37614  25.970   9.156  13.388
65201W        W37615  21.183  10.778   4.665
65202W        W37616  18.129   5.279  12.954
65203W        W37617   7.903  42.960  14.849
65204W        W37618  21.038  16.267   3.268
65205W        W37619  10.156  27.967   0.289
65206W        W37620   5.844  39.976   4.332
65207W        W37621  28.086   9.888  12.917
65208W        W37622  35.444   7.883   4.704
65209W        W37623  29.969  17.695   0.408
65210W        W37624  20.539  12.622  14.367
65211W        W37625  40.859  14.216  11.592
65212W        W37626  37.037  41.379  14.881
65213W        W37627  25.027  43.968   3.727
65214W        W37628  27.095   4.376  12.454
65215W        W37629  25.496  29.001   0.379
65216W        W37630  41.526  32.018  14.798
65217W        W37631  40.510   4.725  14.965
65218W        W37632  10.763  30.982   1.417
65219W        W37633  26.561  12.739   4.674
65220W        W37634  31.515  36.027  10.601
65221W        W37635   7.865   0.747   3.831
65222W        W37636  38.928  42.846  14.317
65223W        W37637   5.276  25.101  13.432
65224W        W37638  39.405  35.537  13.809
65225W        W37639  23.490   6.373   2.719
65226W        W37640   8.381   7.203   4.821
65227W        W37641  41.354  15.276  10.917
65228W        W37642  19.102  18.615   3.865
65229W        W37643  30.022   7.907   1.909
65230W        W37644  20.070  19.041   2.358
65231W        W37645   3.384  37.044   4.685
65232W        W37646  37.081  38.851   2.715
65233W        W37647  23.226  43.515   0.242
65234W        W37648  19.647  14.753   2.885
65235W        W37649  39.990  38.938   0.829
65236W        W37650  44.832  13.283  11.959
65237W        W37651   9.695   0.273  11.939
65238W        W37652   7.205  44.003   0.457
65239W        W37653  24.495  14.795   4.224
65240W        W37654  26.135  12.685  10.441
65241W        W37655  41.455  12.653  13.354
65242W        W37656  14.145   6.676   4.253
65243W        W37657  43.363  40.348  14.515
65244W        W37658   2.353  26.035  11.568
65245W        W37659  35.376  24.076  14.979
65246W        W37660  29.947   8.777   2.858
65247W        W37661  11.690   8.672   4.234
65248W        W37662  21.586  23.726  11.604
65249W        W37663  29.164   8.758  13.023
65250W        W37664   7.362   3.459   4.335
65251W        W37665  44.261   8.359   2.715
65252W        W37666  36.494   8.275  11.028
65253W        W37667  18.726   3.879   0.877
65254W        W37668  10.148  34.017  10.952
65255W        W37669  24.061   9.359  13.048
65256W        W37670  29.587  18.695   4.825
65257W        W37671  21.640  42.940   3.146
65258W        W37672  17.680  15.629  12.515
65259W        W37673  12.729  28.515  12.947
65260W        W37674  35.524  27.050  10.630
65261W        W37675  24.129  10.659  14.894
65262W        W37676  24.190   9.881   2.396
65263W        W37677   7.779  29.053  13.349
65264W        W37678  38.830  13.662  10.010
65265W        W37679   8.689  31.515   1.275
65266W        W37680  13.703  36.870  10.475
65267W        W37681  30.056   6.885   2.397
65268W        W37682   1.256   2.264   0.303
65269W        W37683  23.505  24.229  13.470
65270W        W37684  27.665  14.233  14.332
65271W        W37685  21.745  21.747   3.695
65272W        W37686  32.561  40.889  13.921
65273W        W37687  28.609  20.530   1.817
65274W        W37688  10.785  36.478  14.815
65275W        W37689   0.789   0.894  14.402
65276W        W37690   0.823  15.765  11.122
65277W        W37691  23.223  31.048   4.695
65278W        W37692  16.593  38.473  14.955
65279W        W37693  26.151  44.763  12.838
65280W        W37694  40.951  22.699  12.440
65281W        W37695  34.537  29.622  11.437
65282W        W37696  42.504  21.591  13.979
65283W        W37697   3.842  26.980   1.832
65284W        W37698  14.734  42.410   2.263
65285W        W37699  40.986  27.156   1.447
65286W        W37700  27.997   3.775  12.029
65287W        W37701  26.655   3.834   0.437
65288W        W37702  15.623  35.006  12.907
65289W        W37703  27.100   5.727   1.348
65290W        W37704   2.935   7.309  14.314
65291W        W37705   1.445   5.379  13.942
65292W        W37706  21.064  39.480  14.894
65293W        W37707  20.173  14.651  11.916
65294W        W37708  29.596  36.450  13.398
65295W        W37709  18.725   3.726   2.258
65296W        W37710   2.297  21.022   0.926
65297W        W37711   9.331  43.315   4.186
65298W        W37712  17.576   7.868  14.976
65299W        W37713  41.489  32.567   2.179
65300W        W37714   2.363  11.223   4.832
65301W        W37715  15.102  17.637   0.872
65302W        W37716   8.707  11.818  10.931
65303W        W37717  21.714  27.573   1.366
65304W        W37718  21.744   7.233  14.809
65305W        W37719  40.465  10.818   0.906
65306W        W37720  27.036  28.069  10.621
65307W        W37721  23.023  21.115  12.566
65308W        W37722  18.623   2.412   2.853
65309W        W37723  15.648  24.510  14.395
65310W        W37724  22.192  27.672   3.190
65311W        W37725  23.677   5.289   3.852
65312W        W37726  24.177  27.193   4.784
65313W        W37727  18.103  21.535  14.912
65314W        W37728   4.248  30.652   0.863
65315W        W37729  10.381   2.311   4.744
65316W        W37730  17.753  11.727   2.664
65317W        W37731  19.554   2.342  11.498
65318W        W37732   2.359  40.946   9.489
65319W        W37733   6.908  42.508  13.036
65320W        W37734  36.464  25.990  12.859
65321W        W37735   2.773  39.891  13.842
65322W        W37736  26.986   9.284   0.846
65323W        W37737  15.148   6.698   4.787
65324W        W37738  15.710   5.855   1.841
65325W        W37739  25.493  44.366   1.414
65326W        W37740  43.992  38.419   0.276
65327W        W37741   3.223  10.802  11.875
65328W        W37742   4.725  10.742  11.088
65329W        W37743  11.651  15.189   0.335
65330W        W37744  40.416  23.489   3.756
65331W        W37745  31.970  35.444   1.367
65332W        W37746  15.092  30.596   2.329
65333W        W37747  37.854  24.672  10.585
65334W        W37748  36.026  20.153   2.352
65335W        W37749   0.852  34.108  10.426
65336W        W37750  38.966  14.189  14.510
65337W        W37751  43.390   2.412  10.578
65338W        W37752  24.101  29.457   4.201
65339W        W37753  35.873  31.019   2.316
65340W        W37754   0.463  28.541   0.942
65341W        W37755  37.076  28.943   1.416
65342W        W37756  35.082  42.898  12.826
65343W        W37757  22.649  40.486   2.293
65344W        W37758   6.412  26.561   4.793
65345W        W37759  40.910  41.880   4.767
65346W        W37760  13.330   2.280   1.210
65347W        W37761  25.649  11.326  13.950
65348W        W37762   9.761  18.069  13.412
65349W        W37763   4.744   5.789   3.260
65350W        W37764  22.184  36.471   0.442
65351W        W37765  25.166  14.643  10.459
65352W        W37766  20.162   6.212  14.301
65353W        W37767  11.686  24.162   1.746
65354W        W37768  43.820  40.516   4.139
65355W        W37769   6.881  28.487   2.263
65356W        W37770   4.866  25.177  11.933
65357W        W37771   5.753  25.086   4.302
65358W        W37772  13.758  10.369   4.140
65359W        W37773  30.646   4.388   4.801
65360W        W37774  29.449  34.097  10.603
65361W        W37775  42.958  30.549  11.856
65362W        W37776  26.010  29.083   2.317
65363W        W37777  36.523   5.389   2.261
65364W        W37778  15.312   0.926  11.888
65365W        W37779   9.367   5.274  10.600
65366W        W37780  25.468   5.434  10.465
65367W        W37781   0.818  28.133  11.520
65368W        W37782  12.661  23.110   0.795
65369W        W37783  16.752  17.114  11.083
65370W        W37784  10.666   6.701   1.800
65371W        W37785  20.604  39.436   0.876
65372W        W37786  14.290   3.856  13.944
65373W        W37787  28.573  28.025   4.334
65374W        W37788  28.181  40.045  10.901
65375W        W37789   4.883  32.891   3.324
65376W        W37790  23.158   3.802   4.170
65377W        W37791   7.827  18.162   4.210
65378W        W37792  10.709  27.034   4.642
65379W        W37793  13.702   7.269  11.544
65380W        W37794  34.601  14.620   2.206
65381W        W37795  10.855   8.751   2.679
65382W        W37796  44.905   1.974  12.982
65383W        W37797  13.808   0.773   1.738
65384W        W37798  39.905  31.509  12.847
65385W        W37799   8.337  34.402  13.440
65386W        W37800   4.282  17.745   3.643
65387W        W37801  33.880  28.991   3.215
65388W        W37802  39.846  35.395   3.363
65389W        W37803   0.921  29.477  13.353
65390W        W37804  36.984  42.892  12.050
65391W        W37805   7.299  14.223  13.402
65392W        W37806   6.923  33.544  14.835
65393W        W37807   3.444   7.347  11.990
65394W        W37808  10.286  37.909  12.449
65395W        W37809  26.112  35.955  14.445
65396W        W37810  41.043  16.664  11.111
65397W        W37811   1.877  17.067   4.119
65398W        W37812  44.433  33.583   1.234
65399W        W37813  18.584  13.765   1.780
65400W        W37814  19.779  16.800   3.306
65401W        W37815  40.446  43.372  12.485
65402W        W37816  14.102   9.251   3.815
65403W        W37817  24.045   5.857  11.075
65404W        W37818  33.414  10.250  12.826
65405W        W37819  40.042   0.375   3.249
65406W        W37820  40.019   2.245   0.374
65407W        W37821   0.260  34.022   1.751
65408W        W37822  32.004  16.152  14.460
65409W        W37823  43.333  33.427   1.935
65410W        W37824  29.486   9.326  12.555
65411W        W37825  44.980  19.758  11.078
65412W        W37826  22.554  27.075  14.936
65413W        W37827  40.374  38.901   3.696
65414W        W37828  19.152  20.157   2.807
65415W        W37829   1.879   2.911  10.489
65416W        W37830  41.296  32.483  12.974
65417W        W37831  43.335  17.755   4.157
65418W        W37832   1.465  13.169   3.685
65419W        W37833  24.677  18.743   5.577
65420W        W37834  42.372  20.583   4.301
65421W        W37835  36.450  38.931   3.299
65422W        W37836  38.497  38.837  12.883
65423W        W37837  41.501  34.875   4.122
65424W        W37838  13.789   6.767   3.309
65425W        W37839  23.148  33.579  11.969
65426W        W37840  28.551  38.830  14.341
65427W        W37841  38.961  44.426  13.317
65428W        W37842   8.744  29.142   1.378
65429W        W37843  20.733  13.803   3.707
65430W        W37844  41.441  10.776   0.382
65431W        W37845  37.570   1.734   2.351
65432W        W37846  22.007  32.050  12.507
65433W        W37847  21.185  29.164  13.537
65434W        W37848  37.942  17.190   3.662
65435W        W37849  15.599  16.678  12.927
65436W        W37850   5.696   8.741   0.350
65437W        W37851  13.170  37.398   0.940
65438W        W37852  40.349  37.373   5.296
65439W        W37853  37.938  38.077   2.197
65440W        W37854   9.718  14.304  13.798
65441W        W37855  28.053  24.505  11.487
65442W        W37856  36.051   3.215   3.657
65443W        W37857  35.538   9.189   1.260
65444W        W37858  23.556  21.632   3.862
65445W        W37859   0.951  16.809   2.208
65446W        W37860  25.690  20.654   0.274
65447W        W37861  40.438  24.123  10.922
65448W        W37862  25.999  28.560  14.349
65449W        W37863  11.367  36.865  13.854
65450W        W37864   2.874  19.178  14.017
65451W        W37865  37.417  31.135  13.999
65452W        W37866   4.240  39.489  12.081
65453W        W37867  24.506  23.505   0.446
65454W        W37868  15.692  31.526  13.018
65455W        W37869  12.174   0.458  14.815
65456W        W37870   7.374   0.769   1.897
65457W        W37871  36.467  11.831   2.770
65458W        W37872  16.292   4.266  12.464
65459W        W37873  18.613   5.257  14.911
65460W        W37874  22.653  44.935  11.944
65461W        W37875  15.643  19.652  13.399
65462W        W37876   0.397  23.625   3.277
65463W        W37877  35.403  40.923  10.638
65464W        W37878  25.025  28.972   0.461
65465W        W37879  27.001  44.888  12.362
65466W        W37880  24.655  28.649   1.734
65467W        W37881   7.388  14.286  13.958
65468W        W37882  30.929  17.102  11.536
65469W        W37883  28.990  32.477  13.803
65470W        W37884   6.847   0.294   0.448
65471W        W37885   9.238  34.000  13.963
65472W        W37886  38.526   3.796  11.856
65473W        W37887  15.200  38.899   3.230
65474W        W37888  40.466  42.470  12.950
65475W        W37889  23.214  17.063   2.803
65476W        W37890  34.115  39.533   0.419
65477W        W37891  28.521  26.127  12.002
65478W        W37892  38.919   0.942   1.419
65479W        W37893  15.224  18.626   0.946
65480W        W37894  21.573  18.217  14.927
65481W        W37895  28.650  12.343   3.680
65482W        W37896  44.391   4.926  10.439
65483W        W37897  33.442   9.750   2.815
65484W        W37898  42.514  31.044   1.414
65485W        W37899   2.267   7.260   0.883
65486W        W37900  20.109  40.835   1.825
65487W        W37901  43.892   1.926   1.792
65488W        W37902  25.476   8.730   4.691
65489W        W37903   7.229  28.942  14.515
65490W        W37904  40.996  40.009  13.822
65491W        W37905  18.666  39.503   0.775
65492W        W37906  11.660  30.611   3.354
65493W        W37907  16.138  44.928  11.566
65494W        W37908  36.541   3.368  12.029
65495W        W37909  21.076  25.962   0.728
65496W        W37910  29.952   3.229  13.360
65497W        W37911   3.757  12.233   3.750
65498W        W37912   7.264  16.768   3.716
65499W        W37913  14.169  43.463  10.420
65500W        W37914  44.995  20.104   0.746
65501W        W37915  37.348  38.819  14.825
65502W        W37916  32.439  16.689   3.176
65503W        W37917  23.067  28.599   1.285
65504W        W37918  16.287   3.853  13.352
65505W        W37919  24.067  38.819   5.278
65506W        W37920  19.211  20.237   4.792
65507W        W37921  35.086  13.687  13.448
65508W        W37922  34.879  10.642   4.237
65509W        W37923   0.355  41.365  13.525
65510W        W37924  33.032  35.072  12.923
65511W        W37925  44.829   2.308   0.271
65512W        W37926  28.477   1.882   3.673
65513W        W37927  25.676  23.691  12.020
65514W        W37928  34.542   9.158   2.829
65515W        W37929  22.689  25.998   3.178
65516W        W37930   5.821  10.311   2.814
65517W        W37931  37.896  36.096  10.987
65518W        W37932   8.701  32.044  12.483
65519W        W37933  23.234  33.580   0.382
65520W        W37934  24.043  18.185  14.982
65521W        W37935  37.366  17.673  12.045
65522W        W37936  20.195  13.738  11.588
65523W        W37937  31.076  10.273  13.935
65524W        W37938   4.925  10.812  10.427
65525W        W37939  35.092  11.217   2.805
65526W        W37940  24.521  27.088   1.419
65527W        W37941   0.894  31.599  13.894
65528W        W37942  36.523  41.448   3.847
65529W        W37943  25.599  35.547   3.356
65530W        W37944  21.168  15.224   4.236
65531W        W37945   6.769   0.943   0.732
65532W        W37946  25.514  25.470   0.923
65533W        W37947  27.684  27.548  11.958
65534W        W37948  35.958   3.830  14.026
65535W        W37949  16.092  22.213   4.312
65536W        W37950   1.733   1.858   2.896
65537W        W37951  35.078  35.103   0.432
65538W        W37952   1.237  35.436   1.919
65539W        W37953  38.998   0.354  14.946
65540W        W37954  17.217  35.463   4.136
65541W        W37955  38.900  42.855  12.923
65542W        W37956  21.215  43.329  10.461
65543W        W37957  12.846  20.172   2.255
65544W        W37958  25.667   1.947   2.331
65545W        W37959  25.647  19.771  12.834
65546W        W37960  44.875  26.068  14.364
65547W        W37961  20.755  17.090   2.419
65548W        W37962  27.020  43.839   4.729
65549W        W37963  40.858  14.611  14.464
65550W        W37964   3.459   5.784   4.239
65551W        W37965   7.344  13.750   4.270
65552W        W37966   3.902  27.685  10.903
65553W        W37967  34.499  26.588   4.257
65554W        W37968  25.578   9.387  10.628
65555W        W37969  28.049  24.479   0.946
65556W        W37970  37.463  30.054  11.935
65557W        W37971  36.026   7.730   4.278
65558W        W37972  31.487  27.612   1.848
65559W        W37973  35.896  26.047  14.797
65560W        W37974  12.654  12.196   2.356
65561W        W37975   0.775  14.673   2.241
65562W        W37976  23.700   2.378  13.823
65563W        W37977  23.089  24.025   3.780
65564W        W37978  25.969  35.465   1.913
65565W        W37979  27.064  27.065   2.381
65566W        W37980  20.056  24.009   0.951
65567W        W37981  29.962  37.497   0.777
65568W        W37982   5.361  19.274   2.840
65569W        W37983  30.532  39.869  11.582
65570W        W37984  32.472  44.926  13.990
65571W        W37985  19.693  31.480  10.441
65572W        W37986  33.063  28.570   4.753
65573W        W37987  11.679  20.530  11.857
65574W        W37988  34.387   9.746  14.508
65575W        W37989   7.785  12.148  11.024
65576W        W37990  23.198   8.656   3.372
65577W        W37991   4.323   2.957   0.747
65578W        W37992  41.494   6.688  11.118
65579W        W37993  37.860  32.551  11.540
65580W        W37994  32.612  30.611   0.291
65581W        W37995  16.103  37.347  13.355
65582W        W37996   4.340  13.278  14.971
65583W        W37997   5.789  38.037  12.056
65584W        W37998  36.450  31.634   0.360
65585W        W37999  18.616  36.969   2.409
65586W        W38000  14.612  20.761   1.348
65587W        W38001  16.620  26.542  12.831
65588W        W38002  32.539  44.807  13.324
65589W        W38003   9.390  31.928  14.005
65590W        W38004  22.735   0.918  14.350
65591W        W38005  23.510  11.349  14.488
65592W        W38006  21.554  33.056  14.794
65593W        W38007  28.659   9.204  11.886
65594W        W38008  10.221  29.923  11.941
65595W        W38009  35.048  17.702  11.406
65596W        W38010  20.069  30.518   5.174
65597W        W38011  17.061  37.079   4.736
65598W        W38012  27.514  23.016   4.305
65599W        W38013  33.546  25.558  11.995
65600W        W38014  21.714  28.546  13.931
65601W        W38015  38.016   2.295   0.277
65602W        W38016   0.269  40.977  12.554
65603W        W38017  17.146  31.926  11.954
65604W        W38018  31.601  37.358  14.924
65605W        W38019  39.006  40.348   0.862
65606W        W38020  15.115   0.888   0.483
65607W        W38021   0.261  30.569   4.129
65608W        W38022  30.978  17.160  10.079
65609W        W38023  29.522   1.752  10.012
65610W        W38024  40.013  44.827   3.861
65611W        W38025  29.495   1.967  12.358
65612W        W38026   4.902  21.186   2.796
65613W        W38027   3.738  18.650  11.036
65614W        W38028  42.405   2.317  12.453
65615W        W38029   0.482  11.178  12.346
65616W        W38030  31.559  34.529   1.807
65617W        W38031  21.139  24.576   1.812
65618W        W38032  38.513  40.497  10.984
65619W        W38033  22.500  28.122  12.377
65620W        W38034  27.644  10.170   0.311
65621W        W38035  33.922  12.169   0.964
65622W        W38036  26.547   2.805   3.766
65623W        W38037   5.852  11.259   4.345
65624W        W38038  36.001  12.655   4.206
65625W        W38039  44.274  19.559  11.608
65626W        W38040   2.941   4.846  12.963
65627W        W38041  19.591  21.231  10.942
65628W        W38042  37.841  21.632   4.645
65629W        W38043  37.573  34.958   3.696
65630W        W38044  35.532  32.982  14.323
65631W        W38045  43.287  42.402   3.246
65632W        W38046  32.569  22.087   2.257
65633W        W38047   7.818  17.186   4.191
65634W        W38048   9.239  37.927   1.430
65635W        W38049  10.821  21.660  13.544
65636W        W38050  18.579   2.798  11.913
65637W        W38051  18.244  44.760  12.344
65638W        W38052   4.751  20.605  11.445
65639W        W38053  42.934  41.922  13.448
65640W        W38054  42.030  38.346   0.248
65641W        W38055  26.985  11.224   4.320
65642W        W38056  36.540  33.422  13.408
65643W        W38057  25.512  12.804  14.453
65644W        W38058   8.699  29.663  13.396
65645W        W38059  17.589  22.096   0.762
65646W        W38060   0.304  24.657   1.769
65647W        W38061  38.388   6.249  12.346
65648W        W38062  13.292   3.414   9.971
65649W        W38063  24.547  36.076   1.908
65650W        W38064  43.451  28.000   4.279
65651W        W38065  15.752   3.344  11.608
65652W        W38066  34.598   2.771   0.296
65653W        W38067  38.951   7.208   3.682
65654W        W38068  21.538   9.187   0.774
65655W        W38069  37.871   7.320  12.450
65656W        W38070  38.880  43.280  11.484
65657W        W38071  35.016   9.218  14.939
65658W        W38072  44.007  23.531   4.182
65659W        W38073  37.451  32.091   4.235
65660W        W38074  10.189  10.722   2.733
65661W        W38075  27.959   3.717  12.889
65662W        W38076  16.313  41.306  14.345
65663W        W38077  22.670  42.957  11.952
65664W        W38078  35.369  37.343   5.157
65665W        W38079  36.973  38.550  12.373
65666W        W38080  21.168  27.593  14.022
65667W        W38081   6.421  30.983   0.775
65668W        W38082  18.778  35.026  11.889
65669W        W38083  17.176  40.479  11.445
65670W        W38084  42.907  44.816  14.908
65671W        W38085  14.240  44.913   4.782
65672W        W38086  14.110  41.043  13.888
65673W        W38087  26.688  25.032  11.942
65674W        W38088  10.214   0.355  14.934
65675W        W38089  21.135   3.889  12.884
65676W        W38090  35.519  14.640  11.608
65677W        W38091  20.099  11.772   1.879
65678W        W38092  35.375  20.765  13.916
65679W        W38093  22.999  41.904   2.898
65680W        W38094  38.408  26.090  12.843
65681W        W38095  26.488  22.144   4.641
65682W        W38096  27.659  15.307   2.863
65683W        W38097  28.172  25.091  11.042
65684W        W38098  26.005  36.573   1.316
65685W        W38099  35.541  26.478   1.309
65686W        W38100  36.041  27.610  11.069
65687W        W38101   7.259   5.343   1.251
65688W        W38102  34.486  36.031  14.945
65689W        W38103  11.701  17.671   0.443
65690W        W38104  10.757   7.882  10.441
65691W        W38105  27.607  23.714  14.765
65692W        W38106   7.301   1.407   4.650
65693W        W38107  20.634  10.361  13.984
65694W        W38108  13.331  44.817   4.794
65695W        W38109   2.320  34.028   3.246
65696W        W38110  25.622  40.000  14.758
65697W        W38111  41.913   7.870  11.125
65698W        W38112  30.636  13.606  12.444
65699W        W38113  37.923  41.499  12.937
65700W        W38114  32.600  19.109  12.921
65701W        W38115  36.065  12.775   2.721
65702W        W38116   9.320  37.340   1.229
65703W        W38117  23.113  31.936  11.108
65704W        W38118   9.889   4.885  14.466
65705W        W38119  35.372  20.658   9.654
65706W        W38120  42.803  25.030  13.398
65707W        W38121  37.428  30.492  13.820
65708W        W38122  43.827  44.264   3.807
65709W        W38123  37.008  32.995  10.493
65710W        W38124   7.377   4.706  10.572
65711W        W38125  21.028   7.249  12.521
65712W        W38126  12.262   3.770  11.937
65713W        W38127  18.712  20.065  10.549
65714W        W38128  18.544   7.365   9.997
65715W        W38129  32.003   3.288  14.503
65716W        W38130  36.523   7.676   4.742
65717W        W38131  23.055  15.694  11.568
65718W        W38132  11.195  28.486  12.840
65719W        W38133   4.213  23.150   1.281
65720W        W38134  18.726  19.707  12.988
65721W        W38135  24.489  11.778   3.789
65722W        W38136  18.731  38.525   0.252
65723W        W38137  42.031  22.008   0.448
65724W        W38138  35.891   8.852  14.334
65725W        W38139  35.004  35.900   3.366
65726W        W38140  36.460  35.388  11.610
65727W        W38141  12.321  34.459  12.402
65728W        W38142  44.783  42.962  11.377
65729W        W38143  40.859  25.535   2.383
65730W        W38144   7.318  36.010  12.867
65731W        W38145  27.610  36.466   0.778
65732W        W38146  30.634  16.733  13.502
65733W        W38147  10.729  36.854  12.010
65734W        W38148  31.151  34.520  13.003
65735W        W38149  27.094  44.010  12.557
65736W        W38150  43.292  25.079   2.892
65737W        W38151  25.681  28.034   2.299
65738W        W38152  25.180   4.395  13.835
65739W        W38153  35.589  19.685   3.332
65740W        W38154  24.230   5.420  12.546
65741W        W38155  11.278  16.202  10.915
65742W        W38156   1.937  24.679  12.053
65743W        W38157  35.519   0.426   3.719
65744W        W38158  36.460  39.457  14.481
65745W        W38159   9.831  14.705  14.005
65746W        W38160  26.469  32.514  13.002
65747W        W38161  15.275  18.259  10.406
65748W        W38162   2.962  37.463  11.892
65749W        W38163  10.351  27.479  13.360
65750W        W38164  23.065  29.993  13.966
65751W        W38165  34.028  29.456  12.549
65752W        W38166  29.932  19.741  10.430
65753W        W38167  10.767   7.377  12.384
65754W        W38168  11.835  23.583   0.858
65755W        W38169  24.702  15.803   3.255
65756W        W38170  18.271  17.146  11.905
65757W        W38171  16.784  39.364  11.975
65758W        W38172  15.649  24.203   3.371
65759W        W38173  19.686  23.687  10.451
65760W        W38174  42.469  30.448  14.935
65761W        W38175  35.859   2.916   1.303
65762W        W38176  23.072  33.515   4.330
65763W        W38177  20.077  27.144   2.235
65764W        W38178  17.209  44.753   5.781
65765W        W38179   7.365  26.583   4.599
65766W        W38180  28.058  43.000   5.203
65767W        W38181  18.216   4.831   2.853
65768W        W38182  34.057  12.831  10.538
65769W        W38183  21.661  36.512  13.388
65770W        W38184  10.144   0.960   2.726
65771W        W38185  41.906   2.358   0.955
65772W        W38186  10.357  25.639  12.886
65773W        W38187  28.101   2.963  14.365
65774W        W38188  31.588  13.773  11.071
65775W        W38189   3.299  27.006  13.330
65776W        W38190  14.319  26.588  13.434
65777W        W38191  12.752   5.761   1.439
65778W        W38192  22.190  44.878  11.391
65779W        W38193  29.651   4.895   3.831
65780W        W38194  40.339  17.304   3.238
65781W        W38195  32.596   4.719  11.378
65782W        W38196   2.303   2.236  14.505
65783W        W38197  38.466  26.703   2.810
65784W        W38198  26.161  16.139  14.768
65785W        W38199   0.375  13.200  14.954
65786W        W38200  24.698   0.461  12.381
65787W        W38201  36.884   8.227   3.685
65788W        W38202   1.362   5.821   2.734
65789W        W38203  16.604  25.216  14.338
65790W        W38204  16.076  28.125  13.509
65791W        W38205   5.200   2.898  14.428
65792W        W38206   1.885  24.124  11.611
65793W        W38207  41.367  42.941   1.775
65794W        W38208  13.191  20.266   2.383
65795W        W38209  12.241   8.729  11.472
65796W        W38210  26.036  34.575   4.603
65797W        W38211  23.148  38.074   2.282
65798W        W38212   0.342  40.008  13.977
65799W        W38213  28.610  17.770  12.902
65800W        W38214   8.731  16.308   1.424
65801W        W38215  44.294  43.964  12.473
65802W        W38216  20.543  17.305  12.451
65803W        W38217  39.855  36.892  14.958
65804W        W38218  18.163  11.179  12.929
65805W        W38219  41.978  11.623   1.838
65806W        W38220  38.559  29.111  14.815
65807W        W38221   7.396  21.556   3.168
65808W        W38222  25.971  41.921  14.893
65809W        W38223  38.500  30.105  10.498
65810W        W38224  26.021  19.734  12.048
65811W        W38225  21.197  30.516   3.241
65812W        W38226  24.584  10.270  13.845
65813W        W38227  16.240  12.766  11.999
65814W        W38228  24.577  38.506  10.606
65815W        W38229  12.753  27.454  10.923
65816W        W38230  24.222  21.137   0.321
65817W        W38231  44.898  42.391   4.754
65818W        W38232  31.119   3.855   3.206
65819W        W38233  17.302  35.088   2.892
65820W        W38234  31.516  13.169   4.165
65821W        W38235  34.870  30.443   2.852
65822W        W38236  34.967  31.453  12.935
65823W        W38237  23.124   3.441  12.457
65824W        W38238  38.971  24.112  10.466
65825W        W38239  38.834  24.045  13.483
65826W        W38240   7.219  43.998   3.247
65827W        W38241  40.055  28.125  12.519
65828W        W38242  34.036   7.252   2.739
65829W        W38243  40.505  40.023  12.006
65830W        W38244   4.325  10.751   3.653
65831W        W38245  43.477  16.588  14.851
65832W        W38246  29.166  39.018   1.321
65833W        W38247  29.952  38.485  12.563
65834W        W38248  13.785  36.039  14.881
65835W        W38249  27.609  33.948  12.497
65836W        W38250  15.613  26.465   4.262
65837W        W38251  36.407  34.917   1.417
65838W        W38252  39.453  11.277   0.347
65839W        W38253  25.057  35.598   4.634
65840W        W38254   8.819  18.287   2.763
65841W        W38255  14.631  27.653   2.712
65842W        W38256  29.585  15.707  13.829
65843W        W38257  23.181  44.307   4.772
65844W        W38258  38.355  10.148  11.962
65845W        W38259  20.253   1.352   3.300
65846W        W38260   5.806  42.365   1.347
65847W        W38261   1.277  28.501   2.336
65848W        W38262   6.193  19.119   1.867
65849W        W38263  43.021  34.521   4.681
65850W        W38264  36.592  43.985  13.438
65851W        W38265  13.723  30.656   3.346
65852W        W38266  17.157  38.986   5.212
65853W        W38267  32.990  24.512  12.918
65854W        W38268  25.691  20.214   3.638
65855W        W38269  15.308  21.611   4.288
65856W        W38270  11.278  39.996  14.394
65857W        W38271  21.736  20.079   4.175
65858W        W38272   5.207  38.496  11.958
65859W        W38273  16.155   6.720  14.881
65860W        W38274   8.661  30.143  12.076
65861W        W38275  26.107  44.346   0.390
65862W        W38276   5.362  33.005   4.706
65863W        W38277  14.117  25.050  13.926
65864W        W38278  35.008  44.416   9.963
65865W        W38279  32.063   2.890  11.867
65866W        W38280   2.824  31.056  12.057
65867W        W38281  40.802  38.521   4.337
65868W        W38282  42.806  40.838   0.463
65869W        W38283  43.278   4.849  14.814
65870W        W38284  39.444  20.031   3.826
65871W        W38285  39.012   5.770  11.610
65872W        W38286  35.872  23.094   4.760
65873W        W38287  42.834   7.375   0.259
65874W        W38288  22.738   8.293   0.367
65875W        W38289   8.703   7.263  12.350
65876W        W38290  15.771  40.487  13.474
65877W        W38291  19.578  36.062  12.952
65878W        W38292  26.151  35.028  14.985
65879W        W38293  37.511  20.105   0.253
65880W        W38294  41.355  19.660  14.337
65881W        W38295  20.590  33.031   3.769
65882W        W38296  39.044   5.435   0.430
65883W        W38297  18.597   1.318   4.792
65884W        W38298   7.216  30.157  14.326
65885W        W38299  29.485   0.383  14.292
65886W        W38300  22.239   9.190   1.357
65887W        W38301  23.177  38.449  11.931
65888W        W38302  17.601  34.579   1.359
65889W        W38303   6.308   3.297  14.864
65890W        W38304  14.172  13.200   4.718
65891W        W38305   5.267  18.150  10.504
65892W        W38306  16.779  19.638   1.751
65893W        W38307  28.123   2.448   4.242
65894W        W38308  21.605  30.074  11.899
65895W        W38309  18.617  33.892   0.962
65896W        W38310  12.263  16.232  10.963
65897W        W38311  24.722   7.848   1.796
65898W        W38312  15.317  34.002  11.858
65899W        W38313  20.211   0.327   4.291
65900W        W38314  19.589  35.091  14.369
65901W        W38315  12.206   5.325   1.292
65902W        W38316  17.063  19.696  13.966
65903W        W38317  23.171  32.553   3.177
65904W        W38318  42.316  41.458   0.341
65905W        W38319  14.150  14.297   1.343
65906W        W38320  29.521  44.913  12.514
65907W        W38321  32.119  15.623  11.597
65908W        W38322  24.207   5.910   0.776
65909W        W38323   9.826  39.368  12.410
65910W        W38324   5.835  28.089  10.629
65911W        W38325  34.373  25.026   0.847
65912W        W38326   6.240  12.331   3.328
65913W        W38327  33.095   9.292  12.449
65914W        W38328   4.761  27.644  14.843
65915W        W38329  31.122  44.897  10.913
65916W        W38330  26.156   5.212   1.239
65917W        W38331   4.259  44.965   1.705
65918W        W38332  13.223  24.036   3.173
65919W        W38333   9.385  11.198   1.738
65920W        W38334  40.390  42.470  13.846
65921W        W38335  21.237  19.749   1.875
65922W        W38336  28.972  43.281   2.205
65923W        W38337  10.683  38.992   2.337
65924W        W38338  22.156  15.160  10.624
65925W        W38339  26.563  26.089  12.999
65926W        W38340  41.344   2.417  12.422
65927W        W38341  10.791   9.172   3.865
65928W        W38342  22.612  36.387   2.738
65929W        W38343  16.128  13.213   1.718
65930W        W38344  35.945  25.546  14.329
65931W        W38345  34.524  34.382  14.380
65932W        W38346  10.274   6.724  12.846
65933W        W38347  34.976   3.711  12.057
65934W        W38348   2.250  14.301   3.735
65935W        W38349  25.007  43.941   9.465
65936W        W38350  14.738  40.419  11.102
65937W        W38351  19.735  28.438  11.438
65938W        W38352  34.944  39.893   4.749
65939W        W38353  37.504  42.903  12.410
65940W        W38354  44.442  44.429  11.428
65941W        W38355   6.321  15.712  12.485
65942W        W38356  33.907  35.064  14.342
65943W        W38357  20.256  29.093  11.437
65944W        W38358  12.789  12.736   0.916
65945W        W38359  13.241  24.985  14.941
65946W        W38360  35.076  40.810   1.448
65947W        W38361  16.114  11.827  10.082
65948W        W38362  36.478  11.280   2.664
65949W        W38363  19.634  21.191  11.866
65950W        W38364   9.264   3.407   2.724
65951W        W38365  23.598  35.040  14.490
65952W        W38366   7.736   0.451   1.759
65953W        W38367  10.144  13.326  11.970
65954W        W38368  23.985  37.976   2.387
65955W        W38369  43.497  40.877  13.064
65956W        W38370   6.285   2.793   3.150
65957W        W38371  15.235  27.107   3.806
65958W        W38372  12.819  22.618  14.795
65959W        W38373  10.228  22.638  12.971
65960W        W38374  39.430   5.250   3.714
65961W        W38375  12.847   9.237  13.533
65962W        W38376   5.715  15.295   9.577
65963W        W38377  19.172  34.050   2.371
65964W        W38378  31.612  33.513   2.745
65965W        W38379   0.799  32.964  14.988
65966W        W38380   2.864   4.795   2.698
65967W        W38381  38.363  37.479   1.757
65968W        W38382  44.953  23.668  13.491
65969W        W38383  36.041  18.195   2.778
65970W        W38384  21.131   5.792   3.167
65971W        W38385  39.960  28.059   4.303
65972W        W38386  43.836  36.574   2.252
65973W        W38387  14.760  18.264   1.710
65974W        W38388  12.847   4.416   2.805
65975W        W38389   8.748  40.853   1.231
65976W        W38390  19.251  11.201  10.545
65977W        W38391  22.532  40.397  11.970
65978W        W38392   9.728  24.991   3.301
65979W        W38393  25.647  26.079  13.905
65980W        W38394  43.927  30.446  11.975
65981W        W38395  26.603  37.443   3.722
65982W        W38396  18.753  40.806   2.824
65983W        W38397  37.490  31.042   0.937
65984W        W38398  31.952  27.067  12.915
65985W        W38399  41.041  23.992  14.497
65986W        W38400  19.237  27.463  12.055
65987W        W38401  29.507  17.624   3.854
65988W        W38402  39.933  13.811   0.923
65989W        W38403  41.835  10.690   0.432
65990W        W38404   3.877  34.912   0.334
65991W        W38405  13.346  21.119  14.406
65992W        W38406  20.115   4.850  12.827
65993W        W38407   1.362  20.089   1.421
65994W        W38408  40.322   9.780   0.917
65995W        W38409  30.135  28.637  11.048
65996W        W38410  14.593  43.896  13.438
65997W        W38411   5.427  22.094  13.812
65998W        W38412  25.674  19.162   2.828
65999W        W38413  38.429  25.615   4.685
66000W        W38414   4.245  13.175  14.482
66001W        W38415  20.083   0.470   2.410
66002W        W38416  34.581  37.848  10.444
66003W        W38417  24.006  28.511   4.149
66004W        W38418  30.445  25.090  13.036
66005W        W38419   3.381  32.598   0.285
66006W        W38420  25.039  14.746   5.122
66007W        W38421   3.757  37.005   1.302
66008W        W38422  21.571  44.800   3.354
66009W        W38423  12.224  14.757  12.480
66010W        W38424  44.007  42.998  12.037
66011W        W38425  28.594  30.513  11.409
66012W        W38426  29.996  36.913  13.509
66013W        W38427  44.465  18.739   3.282
66014W        W38428  44.459   2.360  12.883
66015W        W38429  26.700  33.458   2.806
66016W        W38430  27.530  34.085  10.953
66017W        W38431  26.199  36.844   3.714
66018W        W38432   2.781  28.460   5.106
66019W        W38433  10.774  13.773   1.776
66020W        W38434  31.624  30.538  13.468
66021W        W38435   3.371  10.872   1.371
66022W        W38436  26.578   8.350   4.251
66023W        W38437  15.116  39.979   1.369
66024W        W38438  25.208  29.153  14.399
66025W        W38439  34.918  31.003   0.472
66026W        W38440  22.548  35.396  10.975
66027W        W38441   3.912   7.182  10.080
66028W        W38442  10.692  36.857   1.903
66029W        W38443  44.819   9.238  13.050
66030W        W38444   4.714   5.839   4.609
66031W        W38445  44.906  17.162   1.931
66032W        W38446  44.801  39.519   1.359
66033W        W38447  32.616  16.615  11.515
66034W        W38448  41.459   6.250   3.289
66035W        W38449  33.429   0.429   2.823
66036W        W38450   2.912  28.465   3.832
66037W        W38451  22.139  31.496  13.323
66038W        W38452  26.194  43.792   0.399
66039W        W38453   3.713  28.665   4.300
66040W        W38454  25.176   4.228   4.628
66041W        W38455   5.809  17.783  12.456
66042W        W38456   8.279  13.720   0.306
66043W        W38457  37.024  29.488   4.320
66044W        W38458  29.637  40.902   2.847
66045W        W38459  37.028  22.742   4.223
66046W        W38460  33.007  20.166   1.920
66047W        W38461  42.965  39.500  10.544
66048W        W38462  39.318  28.067   3.189
66049W        W38463  37.002  44.360  14.781
66050W        W38464  26.138  33.039  10.979
66051W        W38465   4.367  22.014  13.046
66052W        W38466  34.561   6.875   4.600
66053W        W38467   4.350  43.914  14.801
66054W        W38468  23.021  30.575   4.141
66055W        W38469   0.312  29.495  11.110
66056W        W38470   4.381   2.442  11.080
66057W        W38471  23.043   0.435   5.577
66058W        W38472   1.360  10.727   0.452
66059W        W38473  36.870   6.356  10.902
66060W        W38474  18.242  26.685   1.933
66061W        W38475  12.255  15.224  11.049
66062W        W38476  10.839  42.017   3.837
66063W        W38477  42.004  10.371   4.200
66064W        W38478  37.854  42.844   2.796
66065W        W38479  19.159  42.020  10.946
66066W        W38480   6.234  42.356  14.292
66067W        W38481  24.973  43.355  10.888
66068W        W38482   9.687  32.094  10.893
66069W        W38483  21.602  36.090   2.871
66070W        W38484   1.841  14.324   3.668
66071W        W38485  19.265   2.848   4.683
66072W        W38486  16.797  16.716   3.643
66073W        W38487  12.125  34.371  13.359
66074W        W38488   7.895  40.327  13.315
66075W        W38489  41.915   4.725  12.070
66076W        W38490  29.499  25.217  11.412
66077W        W38491  44.375  22.629  14.840
66078W        W38492  12.311  26.198   1.933
66079W        W38493  39.324   5.365  14.315
66080W        W38494  18.216  38.412  11.060
66081W        W38495   3.259   0.318  14.300
66082W        W38496   5.263  23.225   4.676
66083W        W38497  17.641  33.626  10.005
66084W        W38498  15.319   6.712  14.779
66085W        W38499   9.318   4.814   1.318
66086W        W38500  30.426  44.469  13.479
66087W        W38501   6.826   7.345  14.415
66088W        W38502  22.557  44.348  10.998
66089W        W38503  36.492   9.786   0.876
66090W        W38504  26.458  15.295  10.479
66091W        W38505  25.012  25.199   4.664
66092W        W38506  10.823  22.671   0.272
66093W        W38507  21.181  44.967   3.274
66094W        W38508  27.032  23.095   1.234
66095W        W38509  20.695   9.200  11.995
66096W        W38510  41.354  29.082  13.501
66097W        W38511  27.600   3.833   2.197
66098W        W38512  30.113   0.768  14.497
66099W        W38513  12.281  44.884  10.493
66100W        W38514  18.244  20.619  10.442
66101W        W38515  40.804  21.578  11.584
66102W        W38516  15.770   9.782  13.975
66103W        W38517  32.532  20.265  11.510
66104W        W38518   2.896  20.170  13.899
66105W        W38519  14.266   1.869   1.304
66106W        W38520  13.718  21.144  11.399
66107W        W38521  40.457  38.496   2.214
66108W        W38522  21.171   0.486   3.201
66109W        W38523  24.161   7.323  13.864
66110W        W38524  43.397   6.776  14.763
66111W        W38525  10.638   5.325   3.250
66112W        W38526  11.135   9.855   4.737
66113W        W38527   5.723   8.872  11.424
66114W        W38528  41.454  20.179   0.929
66115W        W38529  42.893  24.048   2.217
66116W        W38530  16.151  29.539   0.367
66117W        W38531  28.560  44.505  12.510
66118W        W38532   1.895  24.554  10.614
66119W        W38533  23.505  40.813  11.110
66120W        W38534  29.577   2.225  11.873
66121W        W38535  11.635  39.351  14.399
66122W        W38536  12.819  34.889   0.385
66123W        W38537   0.772   2.732  12.497
66124W        W38538   2.901   9.188  12.046
66125W        W38539  11.643  39.414  12.950
66126W        W38540  33.103  20.588   1.898
66127W        W38541  27.950  26.581   5.216
66128W        W38542  34.934  19.617  10.102
66129W        W38543  36.560  40.349  11.434
66130W        W38544  17.637  31.624   3.301
66131W        W38545  18.749  28.143   1.932
66132W        W38546   2.383  16.796  12.546
66133W        W38547  44.902  44.951  14.852
66134W        W38548  29.637  26.189  13.825
66135W        W38549  37.044  25.710   3.825
66136W        W38550   3.832  44.898  10.452
66137W        W38551  15.750   0.371   4.826
66138W        W38552  43.920   4.415   2.251
66139W        W38553  26.676  30.053  13.013
66140W        W38554  15.641  40.531  14.844
66141W        W38555   3.401  18.763  12.498
66142W        W38556  31.622  22.154   0.754
66143W        W38557  40.430  11.826   0.922
66144W        W38558  22.073  35.076  11.034
66145W        W38559   5.767  31.125  12.561
66146W        W38560  24.535  10.866   0.883
66147W        W38561   9.745  13.656  14.004
66148W        W38562  35.872  10.198  12.955
66149W        W38563   9.696  24.997  10.435
66150W        W38564  28.953  38.516  12.850
66151W        W38565  36.357  25.057   5.136
66152W        W38566   1.310   6.775   2.835
66153W        W38567  19.091  33.967   1.880
66154W        W38568  19.577  22.540  11.104
66155W        W38569   8.676  16.157   2.266
66156W        W38570   8.268  38.337   2.673
66157W        W38571   3.911   8.891  12.532
66158W        W38572  30.957   1.447   2.798
66159W        W38573  44.009  43.810  11.066
66160W        W38574  11.729  26.620   0.376
66161W        W38575  16.604   1.966   2.678
66162W        W38576   7.189  24.597   2.267
66163W        W38577  33.435  27.493  13.937
66164W        W38578  21.524  32.892  10.933
66165W        W38579  29.507  30.135   2.214
66166W        W38580   8.387  10.659   4.258
66167W        W38581  25.026  37.367   0.354
66168W        W38582  21.225  12.316  10.426
66169W        W38583  28.631  14.271  10.406
66170W        W38584   1.795  33.504  13.430
66171W        W38585  16.742  24.093   4.330
66172W        W38586   3.293  39.991   5.593
66173W        W38587  25.147  42.951   1.243
66174W        W38588  18.217  43.848   2.754
66175W        W38589  13.113  33.939  13.937
66176W        W38590   9.675   0.953   0.843
66177W        W38591  31.021  27.594  13.366
66178W        W38592   7.831  12.177  13.061
66179W        W38593  39.560  12.127  14.290
66180W        W38594  35.990  14.775  10.563
66181W        W38595  20.557  18.611  10.482
66182W        W38596  16.657   5.862  12.543
66183W        W38597  43.847  24.049  13.941
66184W        W38598   9.231  40.922   3.810
66185W        W38599  18.574  43.004  14.975
66186W        W38600  13.185  17.672   2.297
66187W        W38601  30.038  29.480   1.266
66188W        W38602  35.482  22.734   3.367
66189W        W38603  37.484  32.608  12.854
66190W        W38604   6.760  19.222  13.819
66191W        W38605   4.940  36.356   0.808
66192W        W38606   3.737  36.093  14.294
66193W        W38607   5.906  21.624   0.409
66194W        W38608   7.703  44.414  12.026
66195W        W38609  17.724   5.801   2.292
66196W        W38610  10.650  36.014   2.854
66197W        W38611  44.292  34.386  11.897
66198W        W38612   4.326  15.817   0.808
66199W        W38613  12.797  33.914  14.783
66200W        W38614  30.947  42.977   1.355
66201W        W38615  17.071  39.466  14.863
66202W        W38616  21.573   3.774   2.405
66203W        W38617  43.979  43.959   3.364
66204W        W38618  43.020  25.120  14.332
66205W        W38619  32.023  23.056  11.452
66206W        W38620  43.395  39.822   3.754
66207W        W38621  26.061   2.844  14.987
66208W        W38622  15.657   6.383  13.315
66209W        W38623  11.282  36.999  14.951
66210W        W38624   7.274   5.203   1.901
66211W        W38625   2.245  42.400  14.296
66212W        W38626  26.130   7.392   0.271
66213W        W38627  26.166   7.675  11.856
66214W        W38628   9.807  13.105   1.751
66215W        W38629  43.939   1.934   2.817
66216W        W38630  20.724   0.471  10.461
66217W        W38631  43.921  40.395   1.708
66218W        W38632   2.812  13.141  10.949
66219W        W38633  33.064  39.996   3.680
66220W        W38634  30.521  12.194   3.773
66221W        W38635  31.047  20.634   3.251
66222W        W38636   0.340  10.246   2.714
66223W        W38637  25.710   6.847  11.523
66224W        W38638   3.710   4.342   0.275
66225W        W38639  39.825  33.623  11.550
66226W        W38640  12.644  39.532  14.783
66227W        W38641   6.195   6.277   0.749
66228W        W38642  42.905   5.688  12.064
66229W        W38643  34.542  38.385   3.684
66230W        W38644  11.336   3.379  10.991
66231W        W38645   4.436  20.723   0.953
66232W        W38646  30.622  42.493  13.048
66233W        W38647  43.385  18.211  12.342
66234W        W38648  27.093  29.424   3.775
66235W        W38649  14.267  11.718   1.326
66236W        W38650  18.788  28.666  13.475
66237W        W38651  25.678  24.507  11.604
66238W        W38652  40.939  26.003   3.643
66239W        W38653  17.773   1.861   0.445
66240W        W38654  20.101  33.581  10.016
66241W        W38655  11.853  12.831  13.344
66242W        W38656   3.751  28.947   3.806
66243W        W38657  17.100  27.984   2.200
66244W        W38658   0.381  20.738   4.216
66245W        W38659  44.826   5.369  11.127
66246W        W38660  25.074  42.351   4.149
66247W        W38661   7.751   0.292  13.347
66248W        W38662  10.201  19.169  14.331
66249W        W38663  10.772  25.609  12.967
66250W        W38664  41.803  33.444  13.840
66251W        W38665   6.360  20.567   1.391
66252W        W38666  28.935   7.730   1.245
66253W        W38667  33.412  12.706  11.453
66254W        W38668  14.109  44.480   4.672
66255W        W38669  38.475  44.937  13.858
66256W        W38670  34.455  30.566  10.929
66257W        W38671  34.551  17.673   4.235
66258W        W38672  25.531  33.916   3.175
66259W        W38673  41.891  38.916   2.709
66260W        W38674  30.491  37.053   1.309
66261W        W38675   2.396  20.163   2.354
66262W        W38676  10.251  17.649  12.912
66263W        W38677  20.149  43.430   1.381
66264W        W38678   9.215   9.682  14.354
66265W        W38679  37.400  36.558   0.754
66266W        W38680   5.327  11.626   3.678
66267W        W38681  17.194  15.120  13.533
66268W        W38682   2.440  22.623   2.675
66269W        W38683   6.784  13.273  13.514
66270W        W38684  11.363   9.882   0.273
66271W        W38685  33.515  22.139   2.894
66272W        W38686   9.860  37.873  13.925
66273W        W38687  32.611  21.226   4.808
66274W        W38688   4.232  14.136  10.956
66275W        W38689  16.308   1.955  11.992
66276W        W38690   4.792  31.989  13.027
66277W        W38691  19.741  22.055   1.812
66278W        W38692  37.468  19.214   1.411
66279W        W38693  12.347  12.696  12.557
66280W        W38694  41.905  44.400  11.906
66281W        W38695  19.272  44.271  11.414
66282W        W38696  19.697  34.509  12.968
66283W        W38697  12.832  20.716   0.366
66284W        W38698  34.485  11.725   1.364
66285W        W38699   3.399  11.224  11.525
66286W        W38700  41.450  43.996   3.243
66287W        W38701  34.953  11.336   1.248
66288W        W38702  21.081   9.836   4.335
66289W        W38703  29.948   3.893  13.894
66290W        W38704  41.439   1.827   2.797
66291W        W38705  13.271  16.242   2.220
66292W        W38706  19.748   3.429  11.581
66293W        W38707   7.172   1.361   0.836
66294W        W38708  41.868  41.320  10.527
66295W        W38709  29.575  37.949   1.398
66296W        W38710  13.718   8.682   0.953
66297W        W38711  33.509  19.734  12.443
66298W        W38712  30.951  14.617   1.862
66299W        W38713  17.256  20.649  14.825
66300W        W38714  29.046  31.599  14.285
66301W        W38715  18.729  42.802  11.044
66302W        W38716   3.229  27.502  14.978
66303W        W38717  12.309  20.653  14.787
66304W        W38718  39.465  11.732  11.033
66305W        W38719  43.889   3.320   3.249
66306W        W38720   3.714  21.100  12.983
66307W        W38721  10.660  26.196  12.827
66308W        W38722  39.986  40.510  10.420
66309W        W38723   1.299  40.040  13.919
66310W        W38724  22.514  11.725  14.019
66311W        W38725  24.605   9.390  10.633
66312W        W38726  17.647  18.161   2.802
66313W        W38727  28.110  28.650   4.698
66314W        W38728  15.131  15.135   2.290
66315W        W38729  15.688  38.436   4.780
66316W        W38730  11.274  20.273  14.989
66317W        W38731  32.474  14.195  13.946
66318W        W38732  11.243  41.861   0.879
66319W        W38733  34.910  10.754  11.869
66320W        W38734   7.769  44.931   2.751
66321W        W38735  36.087  17.794  12.024
66322W        W38736  14.166  17.228   0.920
66323W        W38737  30.914  18.779   2.263
66324W        W38738  12.723  41.431  14.364
66325W        W38739   1.479  30.076   2.259
66326W        W38740   8.196  15.631  14.826
66327W        W38741   7.304  29.112   1.446
66328W        W38742   5.407  34.399   0.840
66329W        W38743   3.854  31.960   4.319
66330W        W38744   9.660   0.930   1.229
66331W        W38745   1.927  14.604   1.332
66332W        W38746   9.287  40.397  11.383
66333W        W38747   0.951  12.160   1.271
66334W        W38748  24.157  34.893  13.990
66335W        W38749  21.023   9.684  14.781
66336W        W38750   7.908  20.129   4.800
66337W        W38751   0.293  34.530   0.946
66338W        W38752  41.407  38.916  13.049
66339W        W38753  25.695  11.177  12.910
66340W        W38754  44.845   9.687  11.447
66341W        W38755  39.425  41.943  12.952
66342W        W38756  21.596  24.080  11.585
66343W        W38757  43.880   1.963  14.372
66344W        W38758  33.437  29.657  12.482
66345W        W38759  38.964   5.330   3.304
66346W        W38760  23.505  24.212  13.942
66347W        W38761  37.493   9.830   4.768
66348W        W38762   8.729  30.606  13.871
66349W        W38763  29.045  33.414   4.332
66350W        W38764  11.347  43.905   0.428
66351W        W38765  17.108  41.420   2.368
66352W        W38766  19.609  38.440  10.576
66353W        W38767  34.388   9.703   1.283
66354W        W38768  30.153  34.980   1.393
66355W        W38769  21.094  13.712   0.367
66356W        W38770  16.575  29.593  14.419
66357W        W38771   8.698   2.230  14.957
66358W        W38772  20.578  16.623   4.703
66359W        W38773  39.486  40.996  10.633
66360W        W38774  10.682  14.262  13.375
66361W        W38775  20.657  12.613  12.563
66362W        W38776  33.396  24.021   5.158
66363W        W38777   8.792  39.347  10.466
66364W        W38778  33.945  11.290   0.433
66365W        W38779  29.644  15.764   1.785
66366W        W38780  12.715  23.686  13.828
66367W        W38781  15.755  35.899  11.541
66368W        W38782  29.637  25.682   2.324
66369W        W38783  30.135  17.700  10.997
66370W        W38784  27.611  20.609   4.649
66371W        W38785   9.369  33.920   3.865
66372W        W38786   6.419  25.167   5.188
66373W        W38787   1.296  21.669   2.312
66374W        W38788  18.705  17.659   3.749
66375W        W38789  13.812  20.119  14.497
66376W        W38790   8.193  18.739   0.473
66377W        W38791  23.666   0.282  11.065
66378W        W38792   8.337  23.032  14.387
66379W        W38793  26.156  35.898  11.002
66380W        W38794   5.781  34.096  11.858
66381W        W38795  42.976  10.743   1.855
66382W        W38796   5.309  21.039  11.384
66383W        W38797  25.076  10.382  12.527
66384W        W38798  39.337   1.381  14.989
66385W        W38799   1.849  31.953   2.300
66386W        W38800   6.260  28.515  12.975
66387W        W38801  10.670  27.494  14.943
66388W        W38802   9.873  18.634  14.355
66389W        W38803  21.172  14.171  10.079
66390W        W38804  35.977  32.474   4.775
66391W        W38805   8.761  14.312  12.006
66392W        W38806   2.270  34.561   0.477
66393W        W38807  22.006  26.474  14.448
66394W        W38808   3.913   7.174   0.441
66395W        W38809  15.789  39.476  12.868
66396W        W38810   8.764  10.320   4.821
66397W        W38811   8.821  40.975   1.789
66398W        W38812  26.985   9.705   1.801
66399W        W38813  15.591  29.473   4.153
66400W        W38814  27.506  33.527  11.479
66401W        W38815  22.725  20.031  11.858
66402W        W38816  14.619  18.767   1.314
66403W        W38817  39.039   8.229   4.822
66404W        W38818  20.264  26.610   2.798
66405W        W38819  14.151  29.032  10.937
66406W        W38820  26.537  27.471  14.412
66407W        W38821   3.896  43.461   0.286
66408W        W38822  13.241  27.073  12.999
66409W        W38823  19.207  30.595   0.294
66410W        W38824  19.261  24.189  14.779
66411W        W38825  17.640  21.213   4.189
66412W        W38826  18.170  35.582   3.243
66413W        W38827   7.812  36.913   2.387
66414W        W38828   8.852  36.844   0.958
66415W        W38829  38.971  20.615  14.384
66416W        W38830  10.274  36.939  13.355
66417W        W38831  11.310  40.980   4.738
66418W        W38832  10.665  40.843  10.461
66419W        W38833  31.968  23.604   0.950
66420W        W38834  30.047  18.767   0.386
66421W        W38835  14.620  34.556  13.328
66422W        W38836  43.792  41.954  10.491
66423W        W38837  16.280  13.158   0.864
66424W        W38838  41.377  11.260   2.374
66425W        W38839  38.384   5.796   1.335
66426W        W38840  39.327  36.879  11.988
66427W        W38841  33.425   4.811   3.784
66428W        W38842  41.511   0.270  14.026
66429W        W38843  18.283   3.388  14.333
66430W        W38844  24.693  34.387   0.743
66431W        W38845  43.287  39.346   2.850
66432W        W38846   6.289   9.243   1.804
66433W        W38847  11.362  17.587   3.317
66434W        W38848  19.108  18.620   0.897
66435W        W38849  13.629  41.371   1.341
66436W        W38850  38.347  20.028  10.455
66437W        W38851  34.964   7.907   1.247
66438W        W38852  29.535  22.705   1.737
66439W        W38853  39.355  32.525   2.820
66440W        W38854  11.624  19.669   1.413
66441W        W38855  33.997  33.961   4.821
66442W        W38856  30.934  43.971   2.789
66443W        W38857  38.411  35.041   5.763
66444W        W38858  25.107  35.502   2.256
66445W        W38859  18.661  37.998   1.769
66446W        W38860   8.862   9.841  14.881
66447W        W38861   3.383  26.205  10.515
66448W        W38862  43.966   5.435   1.743
66449W        W38863  16.793  27.659   2.740
66450W        W38864   9.750  10.211   4.226
66451W        W38865  32.053   2.856   3.377
66452W        W38866  11.718  28.995  10.443
66453W        W38867   1.903  35.877  12.450
66454W        W38868   3.344  30.918   1.722
66455W        W38869   0.361  13.269   0.350
66456W        W38870  44.366  17.157   3.721
66457W        W38871  26.197  17.229   2.395
66458W        W38872  11.668  26.470   2.295
66459W        W38873   6.760  27.587  14.876
66460W        W38874  10.383   6.332   0.243
66461W        W38875  41.345  17.795   4.149
66462W        W38876  43.994  33.476   0.960
66463W        W38877  33.509  19.272  12.031
66464W        W38878  15.674   4.225   1.918
66465W        W38879  37.957  41.800   4.283
66466W        W38880  38.037   4.378   4.612
66467W        W38881  24.050  38.919   4.681
66468W        W38882   7.745  39.859  12.895
66469W        W38883  19.283  40.405  14.512
66470W        W38884  26.599  16.253  11.877
66471W        W38885  34.085   5.759   0.924
66472W        W38886  22.119   3.861   2.860
66473W        W38887  20.155  21.185  12.895
66474W        W38888   3.259  13.689  14.878
66475W        W38889   3.806  26.514   3.807
66476W        W38890  43.857  12.233   2.418
66477W        W38891   7.416   0.466  14.006
66478W        W38892  29.659  25.973  10.643
66479W        W38893  20.190   5.911  13.861
66480W        W38894  13.736  32.006  14.391
66481W        W38895  19.620   5.410  13.472
66482W        W38896   0.310  20.710   0.776
66483W        W38897   6.777  15.751   2.256
66484W        W38898   0.777  16.181   2.744
66485W        W38899  30.598  22.105  14.487
66486W        W38900  25.632   7.716  11.608
66487W        W38901   0.862   5.376   4.207
66488W        W38902  33.435  39.996   4.743
66489W        W38903  36.888  15.312  12.924
66490W        W38904  38.389   8.697  12.095
66491W        W38905   6.211  27.447   2.243
66492W        W38906  37.051  31.143  13.920
66493W        W38907  22.124  15.249  12.947
66494W        W38908   0.846  15.823  11.605
66495W        W38909   7.672  14.173  14.816
66496W        W38910  36.570  15.208   4.701
66497W        W38911   5.293   4.445  13.884
66498W        W38912   7.262  13.609   3.647
66499W        W38913  43.863  33.109  11.523
66500W        W38914  32.568  25.520   4.326
66501W        W38915  28.465  10.224  12.383
66502W        W38916  18.666  15.319   1.366
66503W        W38917  29.617  42.846  14.870
66504W        W38918   0.799  44.838  13.474
66505W        W38919  27.491  40.430  12.894
66506W        W38920  27.042  24.709   2.383
66507W        W38921  42.360  15.718   0.359
66508W        W38922  32.459  26.703   3.250
66509W        W38923  22.591   7.174   1.371
66510W        W38924  41.294  44.465  10.441
66511W        W38925  17.132  36.374  10.446
66512W        W38926  30.002   8.204   4.725
66513W        W38927  22.209  22.028  12.094
66514W        W38928  14.809   6.865  13.907
66515W        W38929  17.265  10.369   2.299
66516W        W38930  35.453   5.715   3.655
66517W        W38931  43.997   6.385   2.237
66518W        W38932  20.221   3.227  14.801
66519W        W38933  16.106  30.488  14.349
66520W        W38934  25.662  16.299   2.896
66521W        W38935  35.080  29.594   4.290
66522W        W38936  27.456   3.252   3.268
66523W        W38937   2.934  28.107  14.339
66524W        W38938  41.871  34.093  11.510
66525W        W38939  15.150  34.609   3.365
66526W        W38940  21.518  20.135  12.051
66527W        W38941   6.714   6.719  12.841
66528W        W38942  29.061  22.664   3.786
66529W        W38943  23.687  29.495   3.266
66530W        W38944   6.256   2.855  12.426
66531W        W38945  15.799  19.190  14.285
66532W        W38946  43.918  30.084   4.661
66533W        W38947  37.365   7.291   3.779
66534W        W38948  18.780   0.361   2.346
66535W        W38949   6.918  17.173   2.682
66536W        W38950  34.921  23.090  10.016
66537W        W38951  19.053  35.880   0.869
66538W        W38952  12.175   1.798  13.841
66539W        W38953  11.349  11.707  12.498
66540W        W38954  22.628  34.015  12.578
66541W        W38955  33.008  23.543   1.801
66542W        W38956   8.318  28.503   3.375
66543W        W38957  22.158  34.946  13.012
66544W        W38958  42.463  28.089  12.454
66545W        W38959  19.705  37.427   5.233
66546W        W38960  36.855  15.764  11.128
66547W        W38961   4.855  20.072   0.763
66548W        W38962  39.391  16.133  11.064
66549W        W38963  44.815  22.073  11.425
66550W        W38964  22.209  12.255  11.943
66551W        W38965  13.118   8.292   2.329
66552W        W38966  28.648  17.159   4.250
66553W        W38967  12.768   7.396   3.805
66554W        W38968  10.712   7.722   2.350
66555W        W38969   4.383  39.887  10.552
66556W        W38970   2.276  30.137   1.428
66557W        W38971  21.117  11.368  12.970
66558W        W38972   6.816  14.806  14.476
66559W        W38973  41.531  13.159  10.536
66560W        W38974  41.400  42.299   2.694
66561W        W38975   8.679  39.016  11.043
66562W        W38976   2.303  43.495   3.664
66563W        W38977   0.834  39.554  14.978
66564W        W38978  32.488  38.354  13.901
66565W        W38979  33.896  24.210  12.943
66566W        W38980  16.630  21.699   0.450
66567W        W38981  28.642   7.211   0.479
66568W        W38982  44.275  33.599  13.938
66569W        W38983  32.109  42.807   5.174
66570W        W38984  21.609  27.996  12.520
66571W        W38985  33.559  29.658   0.925
66572W        W38986  13.619  36.888  12.900
66573W        W38987  23.495  10.288  10.519
66574W        W38988   8.731  24.047  14.961
66575W        W38989  23.687  25.026  12.936
66576W        W38990  29.571  11.179   1.293
66577W        W38991  29.655  25.514  14.371
66578W        W38992  39.447  29.576   1.713
66579W        W38993  24.020  21.169  14.943
66580W        W38994  24.162  38.908   4.225
66581W        W38995   5.193  36.895   4.615
66582W        W38996  18.064  10.306  14.792
66583W        W38997  18.173  41.306   3.822
66584W        W38998   3.874  32.578  14.957
66585W        W38999   6.762  13.118   0.739
66586W        W39000  42.284  44.283   0.335
66587W        W39001  44.818  17.260  13.820
66588W        W39002  18.573  38.502   3.263
66589W        W39003   6.741   7.693  10.450
66590W        W39004  24.716  10.214   2.296
66591W        W39005   8.259  16.675   1.738
66592W        W39006  37.454  43.289   2.800
66593W        W39007  19.586  33.055   3.862
66594W        W39008  21.188  38.360   0.902
66595W        W39009   4.224   9.767  12.463
66596W        W39010  26.511  42.526  11.495
66597W        W39011  30.484  20.087  12.074
66598W        W39012  25.962  35.008  10.621
66599W        W39013  20.567   4.444  14.833
66600W        W39014  33.076  10.683   4.775
66601W        W39015  24.628  32.056  11.870
66602W        W39016   2.239  34.903   5.261
66603W        W39017  24.100  41.362   1.387
66604W        W39018   2.861  41.041   3.657
66605W        W39019  36.592  38.933  14.487
66606W        W39020  19.754  27.964  14.940
66607W        W39021  22.055  26.529  14.924
66608W        W39022  12.854  26.151   4.138
66609W        W39023  37.454   8.776  10.991
66610W        W39024   9.374  43.314  14.852
66611W        W39025  21.701  41.330  12.528
66612W        W39026  25.589  35.444   2.368
66613W        W39027  33.426   9.879  13.895
66614W        W39028  14.630  17.650  13.011
66615W        W39029  42.918  36.927  12.917
66616W        W39030  18.260   4.721  13.458
66617W        W39031   6.826  24.219   2.380
66618W        W39032  42.811  39.039  12.561
66619W        W39033   8.869  39.065  14.945
66620W        W39034  23.039  44.383   1.814
66621W        W39035  29.438  35.087   2.237
66622W        W39036   0.428  13.804  12.577
66623W        W39037  24.049  11.225   0.445
66624W        W39038  39.932  23.678  11.608
66625W        W39039  43.341  32.538   2.349
66626W        W39040  43.978  31.968   0.763
66627W        W39041  19.206  10.366  13.489
66628W        W39042  14.192  35.962  12.384
66629W        W39043   1.821   2.391   2.826
66630W        W39044  11.853  31.101   3.797
66631W        W39045  27.186  33.924  14.022
66632W        W39046  19.640  26.111   4.141
66633W        W39047  10.837  17.302   3.856
66634W        W39048  19.694  15.670   1.770
66635W        W39049   1.368  23.604   4.181
66636W        W39050  20.762   8.749  11.908
66637W        W39051  36.543  29.137  14.350
66638W        W39052  35.407   5.220  12.577
66639W        W39053  15.604  30.038   2.260
66640W        W39054   5.406   6.295  12.490
66641W        W39055  35.945  43.453  12.498
66642W        W39056  15.809   1.744   3.688
66643W        W39057   0.822   3.897  10.624
66644W        W39058  43.272  32.101   1.399
66645W        W39059  42.957  41.516   3.329
66646W        W39060  44.944  29.947   2.341
66647W        W39061   5.356  27.667  14.880
66648W        W39062  18.699  28.090   0.281
66649W        W39063   8.779  30.632  14.497
66650W        W39064  39.472  23.055  12.094
66651W        W39065   7.905  10.195   9.963
66652W        W39066  39.461  23.727   2.732
66653W        W39067  15.266  28.110  11.119
66654W        W39068  35.565  16.177   0.359
66655W        W39069  42.450  32.630  14.860
66656W        W39070  30.564  34.551  11.945
66657W        W39071  33.023  19.048  13.049
66658W        W39072  23.100   9.694  14.809
66659W        W39073  13.728  22.119   2.813
66660W        W39074  14.340  30.456  12.887
66661W        W39075  41.425  42.388   0.428
66662W        W39076  40.423  28.552  13.513
66663W        W39077  29.041  39.979   2.278
66664W        W39078  29.569  13.114  13.336
66665W        W39079   0.760  17.596  11.514
66666W        W39080  13.216  31.629  12.869
66667W        W39081  18.712  37.990  11.537
66668W        W39082  37.880  42.802   1.426
66669W        W39083  13.173  31.554   0.909
66670W        W39084   2.804  30.149   0.362
66671W        W39085  22.128  15.185  14.499
66672W        W39086   5.871  27.183  10.947
66673W        W39087  44.956  41.393   0.734
66674W        W39088  27.074  14.156  10.617
66675W        W39089  29.663  10.227  14.936
66676W        W39090  24.669  14.693   2.413
66677W        W39091  13.181  40.887   0.730
66678W        W39092  33.124  23.224  11.525
66679W        W39093  22.074  21.223  14.767
66680W        W39094  30.616  10.282  11.073
66681W        W39095  37.988  16.193   2.797
66682W        W39096  35.453   2.805  11.913
66683W        W39097  31.007  43.429   4.707
66684W        W39098  26.681   0.442   0.344
66685W        W39099   9.658  38.011  13.390
66686W        W39100  40.921  12.166   3.747
66687W        W39101  12.699  23.694  10.598
66688W        W39102  25.584  25.145  14.462
66689W        W39103   8.768  20.543   3.648
66690W        W39104  30.448  42.872  10.455
66691W        W39105  29.046  20.233  12.909
66692W        W39106  42.952  34.492   4.177
66693W        W39107   0.256   2.390   1.883
66694W        W39108   8.365  12.279   2.792
66695W        W39109   9.365   3.378  14.312
66696W        W39110  20.137  35.504   1.230
66697W        W39111  42.821  28.096   5.230
66698W        W39112  24.219  42.851   4.213
66699W        W39113  41.920  17.199   2.797
66700W        W39114  21.593  24.645  14.446
66701W        W39115  16.115  10.817   4.144
66702W        W39116  12.813   5.244   4.149
66703W        W39117   0.896  28.670  12.044
66704W        W39118  11.857  22.583   2.377
66705W        W39119  31.011   4.796  10.631
66706W        W39120  39.434  12.190  10.421
66707W        W39121  18.254  24.525  13.002
66708W        W39122  24.666  15.698   1.287
66709W        W39123  30.087  21.736  11.516
66710W        W39124  29.578  32.064  10.071
66711W        W39125   4.285  17.100   2.833
66712W        W39126  27.025  24.122  12.029
66713W        W39127  17.069  43.333   2.277
66714W        W39128  32.468  32.018   0.433
66715W        W39129  29.525   6.205   1.929
66716W        W39130  39.032  22.702   2.344
66717W        W39131   7.839  18.292  13.365
66718W        W39132  16.276  24.212  14.377
66719W        W39133  41.006   9.227  11.909
66720W        W39134   3.264  42.863   5.660
66721W        W39135   6.298  26.063   1.704
66722W        W39136  28.672   9.684  13.364
66723W        W39137  34.593   7.373  11.026
66724W        W39138  21.041  10.357  12.432
66725W        W39139   1.333   4.905  14.349
66726W        W39140  40.445  13.752  10.976
66727W        W39141   7.341  25.078   3.769
66728W        W39142  28.638  27.506  13.917
66729W        W39143  21.112  36.387   2.315
66730W        W39144  22.631  40.484   0.887
66731W        W39145  14.781   6.407  14.454
66732W        W39146  41.853  35.439   2.307
66733W        W39147  22.128  44.286  14.386
66734W        W39148  20.170  37.558  13.927
66735W        W39149  28.931  26.657   4.150
66736W        W39150   6.369  26.503  10.034
66737W        W39151  20.542  33.067  14.390
66738W        W39152  31.506  16.660  11.968
66739W        W39153  39.418  30.940  11.464
66740W        W39154   5.295  15.661   4.711
66741W        W39155   4.321   7.309   4.248
66742W        W39156  35.073  13.695   1.695
66743W        W39157  42.312  20.675  13.824
66744W        W39158  44.443  41.869   1.907
66745W        W39159   9.201  41.933   0.790
66746W        W39160   7.725  28.069   4.289
66747W        W39161   6.773  15.661   3.245
66748W        W39162  43.891   8.775  10.941
66749W        W39163  37.374  41.980  11.942
66750W        W39164  30.085  26.515  11.909
66751W        W39165  33.005  33.892   0.864
66752W        W39166  12.321  29.967   3.688
66753W        W39167  42.322   0.424   0.352
66754W        W39168  36.447  34.609   3.637
66755W        W39169  35.580  18.185  12.006
66756W        W39170  38.417  32.020   2.850
66757W        W39171  27.529  35.598   4.707
66758W        W39172  43.767  13.161  10.472
66759W        W39173  28.556  38.427   3.267
66760W        W39174  25.684  30.421   4.653
66761W        W39175   1.379  39.386  12.552
66762W        W39176  24.573   9.373   4.196
66763W        W39177   8.215  16.091   3.670
66764W        W39178  28.135   0.867  11.560
66765W        W39179  36.042  28.126   5.210
66766W        W39180  33.918  14.183   2.836
66767W        W39181  28.045  38.449   3.344
66768W        W39182   7.195  40.858   1.840
66769W        W39183  44.945  17.198   4.599
66770W        W39184  15.723  17.735  11.904
66771W        W39185  34.579  43.800   3.796
66772W        W39186  13.655  29.474   2.761
66773W        W39187  12.329   7.898   1.413
66774W        W39188  39.481  33.050  11.076
66775W        W39189  23.148  29.947   3.752
66776W        W39190   3.278   6.182  12.928
66777W        W39191  16.268  39.996  11.048
66778W        W39192  28.569  36.987  14.922
66779W        W39193  25.114  41.403  10.474
66780W        W39194  35.014  32.957   4.192
66781W        W39195  10.241  28.059   3.182
66782W        W39196   5.758  26.469  10.538
66783W        W39197  29.598  18.789   3.646
66784W        W39198  24.061   3.259   4.731
66785W        W39199   5.219  16.802  13.402
66786W        W39200  16.584   1.818   1.222
66787W        W39201  20.555   4.865   2.418
66788W        W39202   4.935  20.057   3.146
66789W        W39203  34.575  31.039   0.948
66790W        W39204   7.734   5.732  14.030
66791W        W39205  17.184   0.815  12.959
66792W        W39206  24.529  43.861  13.497
66793W        W39207   3.355  35.031  14.870
66794W        W39208   3.247  27.585   2.334
66795W        W39209  37.980  37.580  13.536
66796W        W39210   4.244   1.968   3.818
66797W        W39211  33.537   3.250  11.023
66798W        W39212  15.191  37.519  14.983
66799W        W39213   1.835   2.871   1.315
66800W        W39214  10.296  34.107   4.346
66801W        W39215  21.754  36.388   3.228
66802W        W39216  37.921  26.605   1.225
66803W        W39217   9.150   9.869  12.351
66804W        W39218  24.017  12.279  12.084
66805W        W39219  12.333  19.074  11.012
66806W        W39220  10.212  42.490  13.424
66807W        W39221  18.708   6.900   0.410
66808W        W39222   6.367   4.715   2.892
66809W        W39223  21.088  36.093   1.412
66810W        W39224  10.856  21.661  11.376
66811W        W39225  44.361  17.062  12.480
66812W        W39226  30.953   8.753   3.799
66813W        W39227  11.637   0.986  10.414
66814W        W39228  29.584  25.494   0.874
66815W        W39229  33.923  32.480   1.745
66816W        W39230  11.864  28.564  13.423
66817W        W39231  33.516  37.989  14.347
66818W        W39232  13.787  32.131   0.784
66819W        W39233  39.529  10.644   0.964
66820W        W39234  10.670  43.828  11.955
66821W        W39235  26.142  34.467  14.934
66822W        W39236  11.851  30.626   5.281
66823W        W39237  39.435  26.207  13.507
66824W        W39238  30.483  43.864  13.958
66825W        W39239  36.005  19.769  13.850
66826W        W39240  21.051  25.615   4.223
66827W        W39241  36.934  19.087  14.502
66828W        W39242  29.971  33.896  10.484
66829W        W39243   3.435  42.523   2.415
66830W        W39244  30.441  37.357   0.809
66831W        W39245  12.161  17.736   3.327
66832W        W39246  13.175   9.190   3.655
66833W        W39247  42.492  42.998   3.777
66834W        W39248  24.699  40.360   4.347
66835W        W39249  27.684  23.598  12.980
66836W        W39250  33.061  29.654   4.295
66837W        W39251  24.157  17.760   2.330
66838W        W39252   2.804  12.850   1.358
66839W        W39253  30.978  33.525   2.821
66840W        W39254  24.531   5.785  10.917
66841W        W39255  41.851  29.660  14.968
66842W        W39256  31.405  19.688  14.306
66843W        W39257   4.305  34.863   1.895
66844W        W39258  22.027   1.320   4.765
66845W        W39259   6.268  41.817  11.558
66846W        W39260  44.345  13.681   5.224
66847W        W39261   9.222  43.960   3.720
66848W        W39262  16.132  35.858   4.127
66849W        W39263   9.674  28.953  13.397
66850W        W39264  33.542  30.920   2.728
66851W        W39265   7.207  40.815  10.911
66852W        W39266  20.203   1.909  11.509
66853W        W39267  42.321  15.252   1.720
66854W        W39268   1.411  15.136  13.461
66855W        W39269  29.581   6.849   2.696
66856W        W39270  43.987  43.399  11.032
66857W        W39271  40.925  15.821  10.616
66858W        W39272  11.737  37.888  14.304
66859W        W39273  36.035  21.715  11.980
66860W        W39274  30.549  23.117  14.488
66861W        W39275  31.599  11.366  14.810
66862W        W39276  25.704   7.884   0.839
66863W        W39277  31.903  40.045  10.070
66864W        W39278  29.075   6.680  13.992
66865W        W39279   5.895  17.117  10.633
66866W        W39280  18.274  25.603  14.002
66867W        W39281  36.036  11.650  11.060
66868W        W39282  23.031  42.795  11.460
66869W        W39283  22.625  44.350  10.153
66870W        W39284  42.927  36.567  12.513
66871W        W39285  37.830  43.782   1.863
66872W        W39286  33.499  11.258  14.398
66873W        W39287   6.416  19.655  12.551
66874W        W39288   0.889  26.170   1.403
66875W        W39289  23.031  41.349   4.348
66876W        W39290  38.998  11.241   2.304
66877W        W39291  24.607  40.495   1.886
66878W        W39292  38.918   5.304  11.477
66879W        W39293  28.563  44.983  11.486
66880W        W39294  15.107  25.643   4.178
66881W        W39295  12.228  31.576   3.742
66882W        W39296  16.294  43.841  13.915
66883W        W39297   5.797  14.688  10.147
66884W        W39298   5.255   7.722   1.909
66885W        W39299  35.975   1.976  12.058
66886W        W39300  14.690  37.558  13.366
66887W        W39301  40.008  41.387  13.989
66888W        W39302  32.435  21.212   0.366
66889W        W39303  23.582  28.638  13.978
66890W        W39304  21.086  13.300   4.705
66891W        W39305  19.101  36.552  14.408
66892W        W39306  43.791  30.561   3.284
66893W        W39307   9.764  20.595   2.269
66894W        W39308   5.730   3.345   2.869
66895W        W39309  23.735  34.610  14.919
66896W        W39310  10.339  44.416   2.235
66897W        W39311   9.276  44.279   4.791
66898W        W39312  21.614  27.447   4.738
66899W        W39313  24.517  22.711   1.809
66900W        W39314  10.674   9.391   0.438
66901W        W39315  34.024   0.260   1.303
66902W        W39316  19.246   8.282  12.504
66903W        W39317  21.631  29.576  10.442
66904W        W39318  28.081   5.431   4.726
66905W        W39319  23.069  39.354   1.915
66906W        W39320  14.713  38.915   0.966
66907W        W39321  41.372  15.670   4.800
66908W        W39322  16.607  33.083   0.391
66909W        W39323  10.231  37.909   0.477
66910W        W39324   6.303   8.175   3.767
66911W        W39325  10.200  41.996  11.405
66912W        W39326  41.895  27.150  10.572
66913W        W39327   9.761   4.383  13.961
66914W        W39328  28.464   0.901   1.260
66915W        W39329  30.078   7.895   4.684
66916W        W39330  29.976   4.836  11.993
66917W        W39331  10.308  23.491  11.884
66918W        W39332  17.261  41.490  13.825
66919W        W39333  18.155  27.954  12.841
66920W        W39334  26.603  34.019   4.344
66921W        W39335  37.848  19.260  11.874
66922W        W39336  13.667   2.959  11.585
66923W        W39337  23.623  25.711   4.272
66924W        W39338  34.452  30.145  14.494
66925W        W39339  30.631   3.355   3.696
66926W        W39340  11.317  42.303   3.237
66927W        W39341  15.104  30.036   4.158
66928W        W39342  23.727   4.719  14.378
66929W        W39343   1.960   0.455   4.782
66930W        W39344  23.579  25.168  11.891
66931W        W39345  21.178  23.679   2.849
66932W        W39346  17.710  17.790   1.265
66933W        W39347  37.949  41.348   4.826
66934W        W39348  41.387  17.199  10.426
66935W        W39349  20.604  34.938   4.669
66936W        W39350  25.133  24.038  12.824
66937W        W39351  12.203  34.074   4.157
66938W        W39352  44.361  31.423   1.752
66939W        W39353  15.627   5.903   4.826
66940W        W39354  21.719  27.190   3.315
66941W        W39355  20.097   3.935   4.650
66942W        W39356  25.690   6.747   1.781
66943W        W39357  12.728  20.232   4.188
66944W        W39358   5.237  39.810  11.574
66945W        W39359  17.294  18.676   0.957
66946W        W39360   1.774  13.720   5.713
66947W        W39361  12.212  17.591   0.838
66948W        W39362  17.793   4.211   1.918
66949W        W39363  16.231   7.811  14.395
66950W        W39364   0.293  17.582  14.282
66951W        W39365  27.531   7.337   3.293
66952W        W39366  18.701  28.184  13.386
66953W        W39367  31.564  13.649   3.337
66954W        W39368  38.823  39.378  13.433
66955W        W39369  19.704  15.777  10.445
66956W        W39370  36.363  40.343   3.833
66957W        W39371   5.347  25.676  11.502
66958W        W39372  38.436  35.078   2.862
66959W        W39373  37.394  20.080  13.045
66960W        W39374  43.995  10.347  11.483
66961W        W39375  43.780  25.129  10.491
66962W        W39376  15.294  20.690  12.978
66963W        W39377  20.652  41.853  10.896
66964W        W39378  39.346  22.156  14.390
66965W        W39379  41.013  42.821   4.657
66966W        W39380   5.299   6.345  14.431
66967W        W39381   2.933  36.537  12.954
66968W        W39382  19.050   7.402   2.215
66969W        W39383  24.052  27.023  13.382
66970W        W39384   6.789  18.766  12.996
66971W        W39385  13.171  13.114   0.855
66972W        W39386  37.064  20.668   3.656
66973W        W39387   2.758  18.654   3.788
66974W        W39388  42.938  41.799  11.878
66975W        W39389  26.064  13.230  11.919
66976W        W39390  15.171  24.719  12.375
66977W        W39391  28.586  12.813  13.980
66978W        W39392   2.378  22.231   4.205
66979W        W39393  25.581  40.512   3.756
66980W        W39394  12.830   1.456  10.949
66981W        W39395  23.142  32.509  12.562
66982W        W39396  32.926  17.206  13.812
66983W        W39397  31.507  31.899  12.010
66984W        W39398  33.074   2.243  12.386
66985W        W39399   8.743  36.352  12.898
66986W        W39400   9.703  31.621  12.915
66987W        W39401   8.656  23.199   4.683
66988W        W39402  31.968  10.261   0.920
66989W        W39403  16.799  28.561   2.844
66990W        W39404  23.076  23.602   1.929
66991W        W39405  41.923  29.013  13.941
66992W        W39406   6.266   1.300   4.256
66993W        W39407  43.376  36.027  13.033
66994W        W39408  27.968  30.060   1.798
66995W        W39409   1.739   9.263   3.319
66996W        W39410   5.728  41.915   4.139
66997W        W39411   8.400  21.633   4.605
66998W        W39412  41.479   9.859   1.763
66999W        W39413   8.892   9.298   0.804
67000W        W39414  13.287  36.080  12.504
67001W        W39415  22.039   3.937   2.223
67002W        W39416   6.877  16.706   4.131
67003W        W39417  26.181  40.545   2.238
67004W        W39418  41.996  17.564   0.381
67005W        W39419  30.506  40.920   1.800
67006W        W39420  36.070  43.399   3.698
67007W        W39421  31.989  24.673   2.226
67008W        W39422  27.940  18.267  12.341
67009W        W39423   3.300  18.062   4.159
67010W        W39424   3.433  14.810  12.835
67011W        W39425  30.117  33.010  13.412
67012W        W39426  14.681  43.917  13.036
67013W        W39427   3.317  28.554   5.116
67014W        W39428  34.022  31.592   0.838
67015W        W39429  19.053  12.845   2.377
67016W        W39430  18.163   7.312   3.722
67017W        W39431   4.268  18.136  11.610
67018W        W39432   5.237  25.072   0.949
67019W        W39433  25.082  37.446  10.445
67020W        W39434   8.348  28.554   3.654
67021W        W39435  24.709  19.091   3.700
67022W        W39436  18.692  33.939  10.560
67023W        W39437  34.571  10.794  10.549
67024W        W39438  44.784  32.579   3.771
67025W        W39439  18.115  44.001   4.599
67026W        W39440  11.715   2.944   2.698
67027W        W39441  33.444  37.923  11.577
67028W        W39442   6.843  40.981   1.762
67029W        W39443  37.434  36.086  14.287
67030W        W39444  22.091  32.576  12.490
67031W        W39445  19.654  44.437   4.248
67032W        W39446   8.166  24.094  14.378
67033W        W39447  19.221   9.202   0.320
67034W        W39448  40.810   1.972   4.234
67035W        W39449  43.505   7.199  11.927
67036W        W39450  39.474  21.079  10.964
67037W        W39451  37.991  32.064  12.089
67038W        W39452  12.616  18.760  12.883
67039W        W39453   3.234   2.741  12.857
67040W        W39454  27.619   9.318   2.228
67041W        W39455  20.192   5.815   3.256
67042W        W39456  12.739   9.650  10.585
67043W        W39457  21.730  19.695   4.238
67044W        W39458  23.654  30.908   3.227
67045W        W39459  11.218  35.987  14.003
67046W        W39460   1.407  27.655   0.429
67047W        W39461  14.250  34.561   0.475
67048W        W39462  40.822  33.608   3.709
67049W        W39463  35.451  41.989  11.566
67050W        W39464  38.920  36.029  14.293
67051W        W39465  30.943  14.757  12.980
67052W        W39466  39.839  27.606   2.679
67053W        W39467  36.432   6.200   0.910
67054W        W39468  29.020  33.107  14.787
67055W        W39469  26.120  43.509   2.417
67056W        W39470  35.964  33.057   4.772
67057W        W39471  21.699  17.254  10.440
67058W        W39472  34.892   3.751  14.500
67059W        W39473  23.655   3.760   1.302
67060W        W39474  33.981  31.001  14.929
67061W        W39475  38.830   3.917  11.907
67062W        W39476  19.133  26.677   2.413
67063W        W39477   1.876  15.771  13.511
67064W        W39478  39.895   6.311   3.784
67065W        W39479   9.273   6.793   2.309
67066W        W39480   2.909   0.936  10.435
67067W        W39481   1.969  42.026   5.115
67068W        W39482  37.990  12.792  13.877
67069W        W39483  10.171  12.693   0.902
67070W        W39484  19.055  22.127  13.505
67071W        W39485  36.507  21.556  10.954
67072W        W39486  35.396  20.240  11.968
67073W        W39487   2.872  33.976   4.244
67074W        W39488   4.897  18.294  12.060
67075W        W39489   8.227  11.765   4.804
67076W        W39490  42.518  36.092  14.307
67077W        W39491   4.781   6.848   1.283
67078W        W39492  43.983  16.116   2.374
67079W        W39493  21.238  24.979   1.787
67080W        W39494  14.827  10.701  10.644
67081W        W39495  21.675  37.349   0.302
67082W        W39496  15.200  22.086  11.557
67083W        W39497  25.159   1.806  10.540
67084W        W39498  14.180  27.012  11.420
67085W        W39499  31.514   3.864   4.222
67086W        W39500  43.789   6.252   4.134
67087W        W39501  39.989  38.357   0.921
67088W        W39502  37.078   8.360  12.977
67089W        W39503   2.918  35.571   1.237
67090W        W39504  36.555   9.175   3.174
67091W        W39505   9.260   2.472   0.402
67092W        W39506   4.341  36.487  12.997
67093W        W39507  33.010  21.066  14.956
67094W        W39508  34.423  30.417  11.400
67095W        W39509  32.885  21.621   5.588
67096W        W39510  39.525  29.988  11.523
67097W        W39511   9.315   7.877  12.947
67098W        W39512  37.867  15.818   0.411
67099W        W39513  20.648   3.884   1.433
67100W        W39514   5.888  30.484   3.163
67101W        W39515  25.685  37.429  13.983
67102W        W39516  43.916   0.474   4.798
67103W        W39517  29.150   9.289   1.437
67104W        W39518  23.092  19.177   3.669
67105W        W39519  30.537  11.700  10.423
67106W        W39520   1.247  10.639   0.940
67107W        W39521   6.330  11.816  10.593
67108W        W39522  19.056  12.231   4.703
67109W        W39523  32.440  25.698  12.541
67110W        W39524  36.966  30.457  12.453
67111W        W39525   7.901  10.679  13.543
67112W        W39526  38.866  38.395  14.758
67113W        W39527  41.401  32.436   0.854
67114W        W39528  22.730  14.640   4.668
67115W        W39529  10.244  43.861  12.382
67116W        W39530  41.875   9.687  11.541
67117W        W39531  38.846  33.071   1.274
67118W        W39532  18.767  41.306   3.197
67119W        W39533  31.601  35.011  13.835
67120W        W39534  29.555  11.636   4.318
67121W        W39535   0.413  18.731  13.805
67122W        W39536  44.260  40.492   0.260
67123W        W39537  25.630  15.712  10.032
67124W        W39538  34.565  15.161   3.769
67125W        W39539  44.336   0.412   0.764
67126W        W39540  21.570  18.786  14.482
67127W        W39541  31.101  27.459  11.394
67128W        W39542  32.481  42.779   1.365
67129W        W39543  35.039  40.378   2.355
67130W        W39544  15.284  28.982   2.408
67131W        W39545  31.970  35.022  14.767
67132W        W39546  23.218  14.641   2.195
67133W        W39547  44.280  17.718  11.066
67134W        W39548  41.807  28.998  12.484
67135W        W39549  33.500  22.698   0.295
67136W        W39550  35.469   6.886  12.411
67137W        W39551  21.259   3.219  12.504
67138W        W39552  13.844  13.298   4.137
67139W        W39553   8.305  35.014  12.857
67140W        W39554   6.188  17.556  13.387
67141W        W39555   6.297   3.908   4.187
67142W        W39556  37.540   6.314  11.585
67143W        W39557   8.284  11.818   2.695
67144W        W39558  32.537  39.929  10.481
67145W        W39559  36.901  20.725  13.891
67146W        W39560   9.162  42.298  10.605
67147W        W39561  41.517   7.293   3.339
67148W        W39562  24.480  38.496   3.685
67149W        W39563  15.281   5.223   4.621
67150W        W39564  36.060  37.416  11.451
67151W        W39565  35.045  12.772   2.408
67152W        W39566  28.144  34.922  13.397
67153W        W39567  36.517  13.658   0.908
67154W        W39568  24.047  41.292   2.832
67155W        W39569  27.598  31.426   1.280
67156W        W39570  22.131  29.506   2.673
67157W        W39571  27.530  28.148  14.758
67158W        W39572   4.370  36.050  11.376
67159W        W39573  12.679   3.414  14.961
67160W        W39574  16.742  27.678   1.219
67161W        W39575  18.158  38.413   4.631
67162W        W39576  21.123  22.196  11.608
67163W        W39577  33.027   6.413  14.918
67164W        W39578  20.136   7.368   0.954
67165W        W39579   4.768   3.223   4.613
67166W        W39580  15.152   7.173  12.415
67167W        W39581  29.166  44.004  14.367
67168W        W39582  27.597   1.406   3.350
67169W        W39583  42.510  14.828   0.786
67170W        W39584   8.659  31.980  11.880
67171W        W39585  19.171  29.569   3.363
67172W        W39586  14.229  27.455   0.251
67173W        W39587   0.864  34.869   3.847
67174W        W39588   2.438  15.757   3.771
67175W        W39589  27.457   7.406   1.386
67176W        W39590  14.174  35.886  13.469
67177W        W39591  34.113  16.591  14.939
67178W        W39592   2.869  40.465   2.384
67179W        W39593  40.798   7.796  13.347
67180W        W39594  42.427  17.613  14.839
67181W        W39595  34.565  33.551   0.461
67182W        W39596  25.197   1.862  14.821
67183W        W39597  13.193   7.417   5.275
67184W        W39598  30.044  14.606   4.755
67185W        W39599  17.248  38.468   3.300
67186W        W39600  35.489  33.104  12.472
67187W        W39601  31.636  20.766  14.834
67188W        W39602  12.294   6.405   4.828
67189W        W39603  21.581  42.016  14.032
67190W        W39604   0.266  43.383  10.954
67191W        W39605   3.770  23.104   1.236
67192W        W39606   9.838  13.351   0.730
67193W        W39607  15.151  18.097  13.878
67194W        W39608  19.539  41.465  12.409
67195W        W39609   3.782  30.045   2.196
67196W        W39610  24.596  41.990  11.583
67197W        W39611  25.592  43.822   5.733
67198W        W39612  16.120  21.048   3.294
67199W        W39613  23.122  22.724  14.930
67200W        W39614  38.434   7.798  13.491
67201W        W39615  36.883   7.824   2.331
67202W        W39616  39.036  41.853  11.108
67203W        W39617  10.775  28.642   0.284
67204W        W39618   0.922  25.211  13.529
67205W        W39619   2.228   2.843  14.946
67206W        W39620  29.158  15.188  10.492
67207W        W39621  30.123  24.568  11.112
67208W        W39622  37.080  21.660  13.951
67209W        W39623  29.628  30.432   4.281
67210W        W39624  10.278  21.222   0.921
67211W        W39625  22.172   2.759  14.926
67212W        W39626   7.701  30.534  12.428
67213W        W39627  25.005  25.015  13.411
67214W        W39628  31.083   4.925  12.473
67215W        W39629  10.718  34.520  11.501
67216W        W39630  26.568  29.046  11.465
67217W        W39631  14.820  15.114   4.337
67218W        W39632  31.621  44.761  10.595
67219W        W39633  22.122  10.237   4.670
67220W        W39634  38.021   6.214  12.084
67221W        W39635  30.024  18.774   4.614
67222W        W39636  21.553  39.421   0.421
67223W        W39637   3.382  31.968  11.035
67224W        W39638  36.576   8.721   1.897
67225W        W39639   2.266   3.226   1.233
67226W        W39640   2.293   5.825  10.488
67227W        W39641  19.722  29.918   4.664
67228W        W39642   4.922  22.515  14.498
67229W        W39643   9.673   5.856  14.385
67230W        W39644   3.873  11.239   0.378
67231W        W39645  15.794  34.455  11.992
67232W        W39646  14.780  22.555  10.922
67233W        W39647  40.323   3.309  13.548
67234W        W39648   5.850   5.790   1.303
67235W        W39649  13.613   7.322  10.481
67236W        W39650  34.437  26.526  14.434
67237W        W39651  30.010  18.188   2.318
67238W        W39652  36.942  10.247   1.422
67239W        W39653   2.371  30.586  12.577
67240W        W39654  22.032  18.664  14.031
67241W        W39655  36.033  33.953   3.690
67242W        W39656  38.924  15.691   2.406
67243W        W39657  27.638  41.314   2.788
67244W        W39658  24.694   1.382  14.012
67245W        W39659  24.676   8.726  13.813
67246W        W39660  36.949  27.531  14.414
67247W        W39661   7.377   7.291  11.537
67248W        W39662   4.212  28.960   9.643
67249W        W39663  22.037  14.330   4.772
67250W        W39664   5.897  42.344  13.803
67251W        W39665  12.228  25.036  13.522
67252W        W39666   0.269  13.331  10.637
67253W        W39667  34.897  17.559  11.124
67254W        W39668  39.968  30.163   3.655
67255W        W39669  41.871  11.160   3.783
67256W        W39670  18.572   6.254   4.283
67257W        W39671  36.572  33.547   0.294
67258W        W39672  20.038   6.796   1.317
67259W        W39673  40.875  40.850  12.580
67260W        W39674   7.187  14.215  12.833
67261W        W39675  20.104  12.715  11.540
67262W        W39676  12.742  37.380  14.500
67263W        W39677   7.809  36.846   3.244
67264W        W39678  27.558  36.520   2.358
67265W        W39679  22.703  32.400  13.940
67266W        W39680  32.537  11.701   0.802
67267W        W39681  36.531  40.820   2.661
67268W        W39682  26.084  34.097  11.603
67269W        W39683  39.022  22.549  13.392
67270W        W39684  42.790  19.081   0.784
67271W        W39685  10.270   6.788   2.771
67272W        W39686  26.089  24.040  10.581
67273W        W39687   2.235  37.424   3.746
67274W        W39688  28.438  42.399  10.891
67275W        W39689  17.589  20.146   4.245
67276W        W39690  28.071  37.074  11.399
67277W        W39691  31.137  42.344  13.398
67278W        W39692  26.639  12.222   3.708
67279W        W39693  14.610  40.405   1.818
67280W        W39694  30.490   1.759  13.540
67281W        W39695  33.973  23.237  10.005
67282W        W39696   0.773  25.086  11.959
67283W        W39697  26.511  26.548   4.799
67284W        W39698  28.164  41.892  10.511
67285W        W39699  33.553  12.704   4.724
67286W        W39700  25.191  13.632   3.839
67287W        W39701  33.970  27.573  11.423
67288W        W39702   8.686   4.240  12.920
67289W        W39703   5.299   3.444  10.969
67290W        W39704  17.561   4.884   1.295
67291W        W39705   8.358  16.264   1.740
67292W        W39706   3.346  44.840   2.803
67293W        W39707  44.443  35.543  12.045
67294W        W39708   0.388   7.386  10.497
67295W        W39709   0.438  22.695  12.055
67296W        W39710  11.770   4.912  14.295
67297W        W39711  24.560  25.170  12.541
67298W        W39712  25.478   8.251  11.082
67299W        W39713  26.011   1.756   2.833
67300W        W39714  23.000  40.465   2.419
67301W        W39715  24.641   4.366  14.803
67302W        W39716  28.578  44.801   2.395
67303W        W39717  29.980  43.284   1.931
67304W        W39718  11.648  15.137   2.665
67305W        W39719  17.679  26.694  12.851
67306W        W39720  39.406  24.040  12.547
67307W        W39721  22.140  38.401  11.964
67308W        W39722   9.300  13.177  12.363
67309W        W39723  31.637  19.124   3.297
67310W        W39724  15.583  28.968   3.852
67311W        W39725   3.291  33.399  11.611
67312W        W39726   6.374  26.153  10.494
67313W        W39727  27.063  38.964   3.665
67314W        W39728   0.953  36.844  10.983
67315W        W39729   8.681  20.595  14.370
67316W        W39730   1.968  24.548   2.419
67317W        W39731   4.747  42.991   5.191
67318W        W39732  41.426  31.601   3.224
67319W        W39733  21.648  22.200  13.538
67320W        W39734  30.048  44.990   4.154
67321W        W39735  13.805  25.206   3.189
67322W        W39736  24.516   8.393  11.992
67323W        W39737  32.613  25.097   5.217
67324W        W39738   4.439  12.296  12.940
67325W        W39739  36.860   3.727  11.055
67326W        W39740  41.825  41.405  12.832
67327W        W39741  31.597  29.959   3.198
67328W        W39742  33.598   7.277   1.902
67329W        W39743  32.091   7.690   1.770
67330W        W39744  39.863  40.898  11.124
67331W        W39745  31.537   5.881   4.704
67332W        W39746  19.636  44.932   9.966
67333W        W39747  16.117   4.263   4.298
67334W        W39748  29.119   8.750   1.261
67335W        W39749  10.280  44.387  12.071
67336W        W39750   7.287  17.092  11.988
67337W        W39751  12.193  26.179  14.922
67338W        W39752  18.747  44.291  14.278
67339W        W39753  13.620  30.133   3.246
67340W        W39754  11.693   8.763   2.239
67341W        W39755  42.920   3.873   0.791
67342W        W39756  10.734   7.734   1.855
67343W        W39757  21.545   3.885  12.934
67344W        W39758  29.936  19.599   1.231
67345W        W39759  33.942   8.346  11.020
67346W        W39760  39.822  29.484  12.830
67347W        W39761  32.521  33.991  13.508
67348W        W39762  19.139  22.010   3.721
67349W        W39763  43.501  32.626   3.669
67350W        W39764   8.680  29.664   3.204
67351W        W39765  36.351  27.533   2.226
67352W        W39766  44.395   3.222  12.843
67353W        W39767  12.237  30.118  12.019
67354W        W39768   1.831   6.413  11.606
67355W        W39769  18.126  16.117   2.231
67356W        W39770  28.547   9.695   3.347
67357W        W39771   8.887  39.346   3.337
67358W        W39772   7.401  43.491  12.004
67359W        W39773  25.595  29.595  13.477
67360W        W39774   4.405  37.881  14.276
67361W        W39775  10.715  31.577   0.818
67362W        W39776  18.700  32.030   2.815
67363W        W39777   4.782  31.543  13.373
67364W        W39778   4.359   0.293   2.389
67365W        W39779  33.549  35.520  12.391
67366W        W39780  44.497  30.920   1.258
67367W        W39781   7.871  12.838  11.862
67368W        W39782  39.879  37.086  13.536
67369W        W39783  31.995  22.051   1.292
67370W        W39784  36.360   0.788  11.522
67371W        W39785  13.276   0.425  14.406
67372W        W39786  16.097  18.656  13.496
67373W        W39787  16.224  42.411   1.300
67374W        W39788  24.627  33.074  13.476
67375W        W39789   1.268  14.270  10.484
67376W        W39790   6.689  13.827  13.369
67377W        W39791  44.812  21.674   3.321
67378W        W39792  15.791  26.039  11.417
67379W        W39793  17.707  10.871   1.211
67380W        W39794  17.155  38.856  11.086
67381W        W39795  14.736  28.491  11.005
67382W        W39796   8.840  11.331   1.424
67383W        W39797  14.604  16.797  12.481
67384W        W39798  15.793  39.536   1.389
67385W        W39799  14.309  21.715   2.190
67386W        W39800  22.080  26.055  12.989
67387W        W39801  33.945   8.284  12.514
67388W        W39802   6.259  22.571   0.967
67389W        W39803   7.735   1.364  10.898
67390W        W39804  37.486   2.807   4.126
67391W        W39805  13.692  14.257  11.384
67392W        W39806   5.869  19.741   0.277
67393W        W39807  30.143   3.362  11.960
67394W        W39808  26.600  23.522   3.377
67395W        W39809  19.135  11.261  14.912
67396W        W39810  31.487   7.787   4.632
67397W        W39811   0.946  13.673  14.872
67398W        W39812  28.529  42.508  10.483
67399W        W39813  27.990   6.757  11.485
67400W        W39814  31.488  17.765  13.998
67401W        W39815  44.343  12.357  13.866
67402W        W39816   5.195  12.833   4.701
67403W        W39817  34.401  13.611   1.257
67404W        W39818  44.834  41.337   4.630
67405W        W39819  12.814  16.259   2.744
67406W        W39820  34.488  24.157   1.408
67407W        W39821  29.570  30.606   3.780
67408W        W39822   1.406  42.409   2.217
67409W        W39823  42.425  34.381   0.784
67410W        W39824  21.018   8.661   0.373
67411W        W39825  22.513  11.775  10.888
67412W        W39826  19.549   1.733  13.347
67413W        W39827   9.856  15.790   0.729
67414W        W39828   2.304  21.540  10.891
67415W        W39829  20.715  12.826  11.407
67416W        W39830   4.731  35.565   3.865
67417W        W39831   8.209  38.841   2.831
67418W        W39832  16.144  16.115  10.602
67419W        W39833  21.625  37.350  11.558
67420W        W39834   4.755  20.267   2.893
67421W        W39835  36.469   5.437  11.494
67422W        W39836   2.439  11.145   4.232
67423W        W39837  44.793   9.392  10.519
67424W        W39838  26.168  37.909   4.193
67425W        W39839   1.746  28.018   3.181
67426W        W39840  43.276   7.893  12.362
67427W        W39841  28.074   9.195  13.850
67428W        W39842  16.713  24.619  13.850
67429W        W39843  21.110  22.555  12.012
67430W        W39844   2.326   5.827   4.608
67431W        W39845  42.846   0.974   4.116
67432W        W39846  27.036  19.254   0.785
67433W        W39847  31.100   4.354  14.905
67434W        W39848  32.603  15.323   3.173
67435W        W39849  39.369   4.768  12.448
67436W        W39850   2.238  35.360   3.197
67437W        W39851  32.489   2.338  13.007
67438W        W39852  37.000  38.905   4.725
67439W        W39853  40.347  41.790   1.934
67440W        W39854  12.777  20.078  14.976
67441W        W39855  36.873  24.106  12.826
67442W        W39856  14.690  21.173   5.313
67443W        W39857  32.123  35.030   5.083
67444W        W39858   5.724  43.491   3.782
67445W        W39859  28.506   4.915   4.813
67446W        W39860  24.620  24.077   1.246
67447W        W39861   0.873  25.501  14.894
67448W        W39862  14.719  21.045   0.793
67449W        W39863   7.270   9.762   1.850
67450W        W39864  35.059  31.600  13.454
67451W        W39865  19.268   5.753  10.546
67452W        W39866   8.791  13.755  10.925
67453W        W39867  29.944  28.079  13.017
67454W        W39868   4.276  41.896   2.865
67455W        W39869  30.977  18.177  13.861
67456W        W39870  17.593  42.421  10.579
67457W        W39871  10.343  32.564   3.669
67458W        W39872  43.922  38.872  13.040
67459W        W39873  25.698  16.183  11.056
67460W        W39874  38.026  10.204   1.895
67461W        W39875  23.209  35.957   2.674
67462W        W39876   9.755  14.114   2.669
67463W        W39877  29.949  39.440  14.442
67464W        W39878  35.512   2.957  14.462
67465W        W39879   9.298  27.948  13.348
67466W        W39880  14.626  42.408  10.920
67467W        W39881  10.874   7.701  12.565
67468W        W39882  22.505  20.179   0.929
67469W        W39883  18.631  15.594  11.570
67470W        W39884  15.241  25.529   3.692
67471W        W39885  44.854  43.872   4.177
67472W        W39886   0.901  36.036   9.973
67473W        W39887  27.082   9.391  12.922
67474W        W39888   8.787   6.896  12.956
67475W        W39889  30.629   2.952   1.881
67476W        W39890  27.080  41.480   0.742
67477W        W39891  20.702  34.403   4.670
67478W        W39892  16.317   8.851   3.737
67479W        W39893  32.511  33.946   4.836
67480W        W39894  41.958   5.318  10.456
67481W        W39895   3.825  41.296   0.362
67482W        W39896  30.000   8.781  13.338
67483W        W39897  27.655   0.759  13.877
67484W        W39898  36.022  11.224  10.986
67485W        W39899  11.353   6.842   3.280
67486W        W39900  15.220  29.580   1.763
67487W        W39901  16.316   2.823  11.926
67488W        W39902  37.032  22.705  14.352
67489W        W39903  21.665  38.461  10.894
67490W        W39904  21.711  33.512   2.279
67491W        W39905  34.030   1.927  12.414
67492W        W39906  22.132  17.130   9.478
67493W        W39907  15.769   9.787  13.531
67494W        W39908   9.213   1.366  13.444
67495W        W39909   2.773   2.861   0.350
67496W        W39910  14.339  21.663   0.406
67497W        W39911  21.574  17.719   1.414
67498W        W39912   5.243   4.258  13.432
67499W        W39913   6.918   9.152   1.865
67500W        W39914  30.483  40.319   1.416
67501W        W39915   7.846   8.248  14.297
67502W        W39916  24.658   0.861   1.240
67503W        W39917  32.092   8.848  11.981
67504W        W39918  10.312  25.017  14.895
67505W        W39919  41.532   1.401   0.822
67506W        W39920  12.184  18.638  12.932
67507W        W39921   8.281  42.917   0.964
67508W        W39922  21.252  22.582  10.994
67509W        W39923   2.329  32.406  10.525
67510W        W39924  13.312   3.240   3.753
67511W        W39925  24.042  40.327  11.926
67512W        W39926  43.359  34.588   1.219
67513W        W39927  17.241   2.844   0.419
67514W        W39928  27.537  32.113  11.040
67515W        W39929   1.244   9.348   2.321
67516W        W39930  43.444   6.368   2.776
67517W        W39931  14.739  21.255  13.974
67518W        W39932  33.031  17.755  13.360
67519W        W39933  21.657  43.014   2.770
67520W        W39934   7.181  43.979   3.861
67521W        W39935  21.228  18.250  10.957
67522W        W39936  34.533   4.915  14.297
67523W        W39937   0.322  41.396   0.284
67524W        W39938  20.693  35.384   2.192
67525W        W39939  14.094  37.000  14.342
67526W        W39940  14.795  30.534  13.468
67527W        W39941   6.328  25.619  13.493
67528W        W39942  13.125  12.619   0.255
67529W        W39943  33.455  21.535  11.448
67530W        W39944  27.655  27.492   1.815
67531W        W39945  43.389  17.770  10.560
67532W        W39946  23.497   1.312  11.410
67533W        W39947  19.680  39.018  12.899
67534W        W39948  37.054  10.755   2.365
67535W        W39949  29.662  18.144  10.432
67536W        W39950  44.857   7.367  14.378
67537W        W39951  43.397   7.832  11.417
67538W        W39952  13.127  37.383  14.512
67539W        W39953  19.722  43.336   1.340
67540W        W39954  39.503  43.273   4.119
67541W        W39955   8.795  31.091  14.378
67542W        W39956  20.028  37.863  13.323
67543W        W39957   8.397  32.583  13.366
67544W        W39958  19.667  21.035  14.342
67545W        W39959  39.350  20.539   3.222
67546W        W39960  16.686  17.626  10.077
67547W        W39961  43.508  27.561  12.888
67548W        W39962  27.009  15.713   4.225
67549W        W39963   0.317  21.115  13.437
67550W        W39964  28.070  21.715  12.373
67551W        W39965  40.972  18.135   0.848
67552W        W39966  18.680  37.518  10.062
67553W        W39967  42.340  28.966   4.322
67554W        W39968  32.986   4.869  14.838
67555W        W39969   7.325  26.456   3.740
67556W        W39970  24.542  10.213  14.876
67557W        W39971  29.627  27.985  14.286
67558W        W39972   2.801  25.089   3.717
67559W        W39973   6.264  41.903   0.899
67560W        W39974  33.592  39.357  13.338
67561W        W39975  23.512  23.498  11.898
67562W        W39976  10.353  12.259  12.508
67563W        W39977  40.379  44.350  13.340
67564W        W39978  36.845  34.378  10.902
67565W        W39979   3.384  33.028  13.931
67566W        W39980  38.859  13.229   4.116
67567W        W39981  14.326  33.487   4.251
67568W        W39982  32.397  34.905   2.178
67569W        W39983  13.290  17.793   1.301
67570W        W39984   7.228  30.655  14.406
67571W        W39985  22.506  28.441   1.766
67572W        W39986  23.601  16.157  12.358
67573W        W39987  40.537  36.889  11.904
67574W        W39988  34.864   6.305   2.801
67575W        W39989  31.926   9.791   0.941
67576W        W39990   9.663  39.534   4.346
67577W        W39991   8.785  44.972  14.983
67578W        W39992  20.227  10.374   1.737
67579W        W39993   7.268  16.569   1.716
67580W        W39994  38.960  27.633  10.510
67581W        W39995   0.938  38.023   2.701
67582W        W39996  36.896  38.074   1.331
67583W        W39997  32.078  36.381  14.925
67584W        W39998   3.766  42.797   1.823
67585W        W39999   5.393  25.485  13.038
67586W        W40000   5.774   0.457   3.640
67587W        W40001  27.104   4.896  13.061
67588W        W40002  25.070  35.076  11.954
67589W        W40003  38.826  15.711   5.242
67590W        W40004  15.119  13.126  14.445
67591W        W40005  27.040  15.583   3.797
67592W        W40006  42.794  11.796   1.283
67593W        W40007  23.664   7.257   1.243
67594W        W40008   1.861  11.757  12.942
67595W        W40009  23.087  15.194  13.394
67596W        W40010  31.464  33.553  14.826
67597W        W40011  32.602  42.931   4.210
67598W        W40012  24.685   3.273  10.457
67599W        W40013  10.847  43.970  13.827
67600W        W40014  35.944  22.544   1.859
67601W        W40015  22.027  13.614  12.889
67602W        W40016   9.219  33.041   2.892
67603W        W40017  40.314   8.320   3.648
67604W        W40018  27.687  16.268  12.985
67605W        W40019  43.380  23.226  13.476
67606W        W40020  25.596  12.732  12.031
67607W        W40021  36.383  28.943  11.414
67608W        W40022  24.646  21.252  13.427
67609W        W40023  27.505  15.249  10.610
67610W        W40024  30.157   2.937  11.911
67611W        W40025  37.505   4.341   4.831
67612W        W40026  40.453  26.673   3.158
67613W        W40027  22.124  12.176  13.328
67614W        W40028  44.954  36.044  12.875
67615W        W40029  21.205  36.851   1.807
67616W        W40030  19.534  19.251   2.318
67617W        W40031  15.722  15.803   4.759
67618W        W40032  38.394  42.001   3.860
67619W        W40033  40.331   6.895   4.341
67620W        W40034  11.308  33.960   2.776
67621W        W40035  23.110  37.348   0.768
67622W        W40036   5.721  42.780   3.748
67623W        W40037  38.429  44.925  12.465
67624W        W40038  19.756   3.379   1.329
67625W        W40039  17.606   7.684   2.872
67626W        W40040   2.902   9.378   3.347
67627W        W40041  35.454  31.471   2.804
67628W        W40042  38.941  11.200  14.912
67629W        W40043   3.408  37.428   3.226
67630W        W40044  27.114  27.447  11.032
67631W        W40045  21.165  25.152   4.256
67632W        W40046  11.647  43.829  13.846
67633W        W40047  20.607  15.191   4.272
67634W        W40048  10.171  22.011   0.875
67635W        W40049  33.477  26.153  13.888
67636W        W40050  40.519  11.745  11.049
67637W        W40051  16.717  20.708   0.263
67638W        W40052  10.876  23.230   1.754
67639W        W40053  31.570   3.759  11.072
67640W        W40054  24.703  43.429  14.959
67641W        W40055  33.463  40.439   2.778
67642W        W40056   6.205  40.976  10.634
67643W        W40057  15.761  13.632  10.980
67644W        W40058  11.207   6.359  14.997
67645W        W40059  16.308  38.827   0.329
67646W        W40060  19.223  34.893   0.340
67647W        W40061  42.855  42.924  14.298
67648W        W40062  20.658  29.104  13.468
67649W        W40063   1.898  12.740  10.953
67650W        W40064  38.916   3.248   1.257
67651W        W40065  13.292  18.260   3.371
67652W        W40066   3.935  21.699   2.751
67653W        W40067  27.551  42.016  11.963
67654W        W40068   6.251  16.791  13.377
67655W        W40069  10.246   5.769  10.469
67656W        W40070  34.885  35.567   4.185
67657W        W40071  39.556  15.648   0.962
67658W        W40072  43.359  41.834  12.934
67659W        W40073  44.357   9.362   4.645
67660W        W40074   2.458  36.419   0.322
67661W        W40075   6.199  41.371   3.303
67662W        W40076  30.520  38.439   4.212
67663W        W40077  44.392  13.711   2.323
67664W        W40078  28.106  16.199  12.866
67665W        W40079  44.401   7.406   4.115
67666W        W40080  33.972  41.465  12.875
67667W        W40081  25.078  30.027   4.267
67668W        W40082  15.099  14.146  13.389
67669W        W40083  33.026  36.910   1.764
67670W        W40084  40.455  42.849  12.878
67671W        W40085  31.975   1.279   0.951
67672W        W40086  31.909  13.631   1.290
67673W        W40087   0.468  33.529  14.958
67674W        W40088  36.495  21.572  11.505
67675W        W40089  29.460   0.972  13.903
67676W        W40090  17.786  33.105  10.904
67677W        W40091   3.429  26.974  12.505
67678W        W40092  31.478   4.903  13.545
67679W        W40093  37.933  38.875   0.732
67680W        W40094  32.007  39.406  10.549
67681W        W40095   0.836  11.253  13.047
67682W        W40096  44.785   4.910  14.955
67683W        W40097  27.617  26.964   2.398
67684W        W40098  28.180   4.703   3.254
67685W        W40099  19.262  25.996   0.731
67686W        W40100   3.729  14.177  10.552
67687W        W40101  26.122  41.313   1.291
67688W        W40102  28.182   5.308  14.806
67689W        W40103  27.621  39.944   3.865
67690W        W40104  22.052  27.113   0.342
67691W        W40105   5.314  15.182  12.857
67692W        W40106   3.839   4.263  10.462
67693W        W40107   9.348   5.717  12.370
67694W        W40108  16.614  12.646   2.322
67695W        W40109  13.610  42.775   1.250
67696W        W40110  26.116  14.218   2.821
67697W        W40111  24.527  20.180   3.326
67698W        W40112   5.433  25.085   2.678
67699W        W40113  44.262  39.015  14.906
67700W        W40114   4.268   1.327  11.880
67701W        W40115  21.537   2.328  12.400
67702W        W40116  18.265  43.883   2.198
67703W        W40117   1.277   3.288  10.542
67704W        W40118  15.132  19.266   3.333
67705W        W40119  39.975  23.184   3.681
67706W        W40120  37.959  11.794  10.467
67707W        W40121  24.112  44.432   5.083
67708W        W40122  19.717  31.547   4.625
67709W        W40123  41.520  31.617   0.859
67710W        W40124  13.318  16.728   0.850
67711W        W40125  21.639  25.076   2.259
67712W        W40126  14.279  34.109   3.660
67713W        W40127   7.712   0.491   2.417
67714W        W40128  20.268  23.642   2.748
67715W        W40129  39.846  29.571   2.688
67716W        W40130  20.132  23.527   0.327
67717W        W40131  41.419  33.425   2.827
67718W        W40132   8.749  11.229   1.934
67719W        W40133  20.198   7.791   0.479
67720W        W40134  10.791  19.117  11.078
67721W        W40135  36.913   6.218   4.678
67722W        W40136  36.985  10.293   0.261
67723W        W40137  18.172   5.244   2.208
67724W        W40138  35.975  41.973   3.828
67725W        W40139   6.263  26.154  10.149
67726W        W40140  44.885   6.409   4.120
67727W        W40141  42.446  23.535  13.485
67728W        W40142  39.993  21.250   3.337
67729W        W40143   5.891   4.758   0.367
67730W        W40144  42.793  14.123   0.322
67731W        W40145  18.234  17.239  10.500
67732W        W40146  13.116  29.134   4.192
67733W        W40147  44.822   5.420  14.371
67734W        W40148  36.962  33.490   4.749
67735W        W40149  26.522   7.199  10.035
67736W        W40150  34.051  19.672   2.220
67737W        W40151  26.030  16.788   2.678
67738W        W40152  41.883  23.144  11.429
67739W        W40153  22.245  18.752   3.303
67740W        W40154  30.470  36.873  14.958
67741W        W40155  21.620  31.954  11.560
67742W        W40156  40.409  15.800   0.751
67743W        W40157  35.535  32.964  10.915
67744W        W40158   9.658   7.748   2.823
67745W        W40159  18.707  36.971  12.855
67746W        W40160  33.615  40.044  12.423
67747W        W40161  32.962  10.839  13.963
67748W        W40162  39.879   5.377  11.074
67749W        W40163  32.084  27.063  14.868
67750W        W40164  42.399  27.634  11.949
67751W        W40165  12.117  25.693   2.390
67752W        W40166  42.858  31.443  14.457
67753W        W40167  31.972  25.989  14.366
67754W        W40168  17.169  41.416  13.003
67755W        W40169  11.146  20.114   0.748
67756W        W40170  37.880  19.699  13.822
67757W        W40171  37.476   8.225   4.814
67758W        W40172  31.914  39.889   4.793
67759W        W40173  13.239  17.207   4.773
67760W        W40174   2.358  26.476   0.384
67761W        W40175   9.661   9.327   3.846
67762W        W40176  34.914  29.938   3.212
67763W        W40177  35.942   2.810  10.494
67764W        W40178  37.429  39.004   4.608
67765W        W40179   6.893  19.126   2.232
67766W        W40180  38.506  32.921  14.487
67767W        W40181  29.986  44.921   1.393
67768W        W40182  26.672  37.347   1.923
67769W        W40183  25.579  43.311   0.474
67770W        W40184   9.760  35.430   0.923
67771W        W40185  21.177  30.032  11.573
67772W        W40186   5.746  29.126   4.121
67773W        W40187  20.539  23.061  10.917
67774W        W40188  11.820  15.227  11.876
67775W        W40189   2.807  40.452  12.520
67776W        W40190  37.864  10.154  11.497
67777W        W40191  26.524  15.671   4.611
67778W        W40192   4.235  19.179   0.835
67779W        W40193  41.017  41.809   3.813
67780W        W40194  35.906   1.330   2.373
67781W        W40195  26.638  21.619   4.617
67782W        W40196   5.344  24.215  12.357
67783W        W40197   6.229   7.404  12.487
67784W        W40198  17.116  18.553  12.561
67785W        W40199   6.833  41.308   0.924
67786W        W40200  34.430  22.603   4.830
67787W        W40201  27.983  34.530   2.189
67788W        W40202  33.577   9.841  13.400
67789W        W40203   1.766  10.732   4.295
67790W        W40204  18.772  22.067  14.785
67791W        W40205  37.848  13.231  12.016
67792W        W40206  16.115  22.699  13.988
67793W        W40207  36.475  38.356  12.350
67794W        W40208   7.900  33.999   4.234
67795W        W40209  29.153  15.672   3.293
67796W        W40210  15.170  34.883  11.516
67797W        W40211  20.607  11.781  14.483
67798W        W40212  32.931  14.709  14.030
67799W        W40213  36.418   7.871  14.988
67800W        W40214  43.912  30.128  13.436
67801W        W40215  10.294  21.096   4.276
67802W        W40216  15.714  14.178  10.105
67803W        W40217  19.712   6.318  12.001
67804W        W40218  19.266  10.321  13.928
67805W        W40219  15.137   5.254  11.430
67806W        W40220   9.318  13.236  14.333
67807W        W40221  21.704  22.704   1.273
67808W        W40222  42.967  18.552   3.168
67809W        W40223  10.846  37.484  11.583
67810W        W40224  36.418   0.962  10.008
67811W        W40225  30.128  27.134   4.233
67812W        W40226  33.052  11.855  14.470
67813W        W40227   4.331  26.663  13.803
67814W        W40228  41.464  41.008   2.869
67815W        W40229  19.760  17.776  10.968
67816W        W40230  11.341  37.043  13.449
67817W        W40231   2.887  19.118   4.665
67818W        W40232  34.888   7.399  12.878
67819W        W40233  37.957  28.653  11.872
67820W        W40234  40.526   8.206   1.364
67821W        W40235  24.129   1.751  11.514
67822W        W40236  22.594   0.335   4.694
67823W        W40237  33.455  41.432   4.640
67824W        W40238  43.434   9.281   3.294
67825W        W40239  19.679  37.845  14.318
67826W        W40240  28.601  42.482  14.836
67827W        W40241  12.723  37.396   5.114
67828W        W40242  36.060  25.177   3.679
67829W        W40243  38.896  40.510  14.772
67830W        W40244  25.713  26.997  14.999
67831W        W40245  14.225  32.894   2.394
67832W        W40246  24.025  21.550   3.279
67833W        W40247   2.841  40.044   4.308
67834W        W40248   9.360   3.337  10.616
67835W        W40249  16.651  37.403  12.009
67836W        W40250   6.309   6.222   9.996
67837W        W40251  42.364  38.414  13.416
67838W        W40252  37.861   8.741  11.105
67839W        W40253  14.099  38.373   2.862
67840W        W40254  31.914  13.805  13.448
67841W        W40255  35.597  43.509  11.421
67842W        W40256  30.125  39.019  13.418
67843W        W40257  20.189   2.945   1.444
67844W        W40258  31.108  36.496  11.514
67845W        W40259  19.216  37.545   2.179
67846W        W40260  26.196  33.431  13.516
67847W        W40261   0.960   6.862  12.879
67848W        W40262  26.496  42.330  12.397
67849W        W40263  17.799  28.456   1.829
67850W        W40264  17.173  20.681   9.987
67851W        W40265  44.410   6.271   0.750
67852W        W40266  22.238  34.897   4.213
67853W        W40267  22.689   0.888   4.692
67854W        W40268   8.394  19.208   3.631
67855W        W40269  31.038  11.752  10.937
67856W        W40270  30.978  18.230   3.636
67857W        W40271  33.113  30.612  10.939
67858W        W40272  30.621   5.256  14.793
67859W        W40273  25.640   9.657  13.350
67860W        W40274  37.428  11.333  10.471
67861W        W40275  19.113  40.918   1.855
67862W        W40276  27.452  42.383  12.902
67863W        W40277   7.874  44.824  11.012
67864W        W40278   1.245  21.029   2.267
67865W        W40279  39.006   8.737   3.834
67866W        W40280  29.669  37.526  11.441
67867W        W40281  10.831  34.488   4.210
67868W        W40282  24.068  17.217   4.603
67869W        W40283  26.967  37.928  14.774
67870W        W40284  30.504  40.857  11.598
67871W        W40285  10.214   5.223   0.242
67872W        W40286  20.070  32.948  13.317
67873W        W40287  31.053  17.678  12.375
67874W        W40288  17.698   9.813  12.964
67875W        W40289  37.076  25.157  11.102
67876W        W40290  41.925   2.258  11.112
67877W        W40291  41.000  29.443  13.848
67878W        W40292  38.539  43.895   2.231
67879W        W40293  42.522   6.358   4.328
67880W        W40294   4.800  19.224   4.345
67881W        W40295  26.177  17.755   5.648
67882W        W40296  26.188   3.351  12.370
67883W        W40297   3.737  18.563   1.271
67884W        W40298   5.426  38.369  14.914
67885W        W40299  32.445  35.465   0.915
67886W        W40300  13.630  22.664   3.696
67887W        W40301   7.688   7.192   1.347
67888W        W40302  24.555  20.212  12.990
67889W        W40303  26.096  21.549  12.965
67890W        W40304  13.235  25.203   2.666
67891W        W40305  20.075  21.091  13.538
67892W        W40306  26.144  28.015  14.894
67893W        W40307  37.831   4.812  10.640
67894W        W40308  19.172  21.152  13.524
67895W        W40309   4.806  24.006  12.511
67896W        W40310  32.115  18.709  13.517
67897W        W40311   6.312   8.314  13.798
67898W        W40312  40.530   9.234  12.498
67899W        W40313   3.940  35.414  11.521
67900W        W40314  16.710  21.041  12.549
67901W        W40315  23.508  39.472  12.339
67902W        W40316  19.731  34.573   1.340
67903W        W40317  15.244  12.289   4.125
67904W        W40318  22.576  36.940   4.314
67905W        W40319   4.839  12.271   9.560
67906W        W40320  16.174   6.261  11.563
67907W        W40321  41.965   6.683  10.614
67908W        W40322  31.500  31.528   3.646
67909W        W40323   2.435   2.391  13.907
67910W        W40324  23.663  37.449  14.834
67911W        W40325   7.699  19.039   0.420
67912W        W40326  10.197  26.688  11.960
67913W        W40327   6.682  15.301  10.467
67914W        W40328  30.463  26.158  14.890
67915W        W40329  25.496  40.823   4.127
67916W        W40330  26.510  44.994   4.241
67917W        W40331  26.129  24.545  12.006
67918W        W40332  26.465  39.946   0.918
67919W        W40333  10.656  22.054   3.713
67920W        W40334  26.956  16.713   2.706
67921W        W40335  13.342  24.090   0.457
67922W        W40336  18.786   4.723   5.089
67923W        W40337  40.521  22.553  12.830
67924W        W40338  12.784  36.401  14.764
67925W        W40339   3.904  38.823  12.957
67926W        W40340  37.873  21.723  10.526
67927W        W40341  15.314  44.972   4.633
67928W        W40342  29.425  43.335  12.493
67929W        W40343  29.028  10.280   4.695
67930W        W40344   6.275  21.717   3.293
67931W        W40345  44.425  34.595   2.820
67932W        W40346  19.630  13.229   4.620
67933W        W40347  29.085  31.945  13.811
67934W        W40348  40.837  25.683  11.113
67935W        W40349  17.081   8.284  14.440
67936W        W40350  36.363   9.706  11.397
67937W        W40351  35.369  14.138   2.415
67938W        W40352  26.035   4.810  10.141
67939W        W40353  26.499   6.676  12.025
67940W        W40354  24.498  17.748  12.374
67941W        W40355   5.438  19.608   3.837
67942W        W40356  39.354  20.710   1.790
67943W        W40357   1.300  33.907   3.225
67944W        W40358  11.632  18.741  12.847
67945W        W40359  39.337  21.583   0.294
67946W        W40360  40.033  12.303  10.539
67947W        W40361  23.064  14.168  14.304
67948W        W40362  42.869  12.671   1.924
67949W        W40363   4.282  25.992   0.931
67950W        W40364  12.216  39.503  14.497
67951W        W40365  32.551   6.359   0.931
67952W        W40366  28.446   6.875  14.949
67953W        W40367  19.722   9.732  13.875
67954W        W40368  18.225  44.455   3.750
67955W        W40369  44.950  34.033   0.770
67956W        W40370  31.524  16.703  12.452
67957W        W40371   1.465  36.452   3.739
67958W        W40372  41.043  27.175  12.478
67959W        W40373   9.378  14.139   1.350
67960W        W40374  19.042  31.983   1.703
67961W        W40375  43.439  42.383  14.873
67962W        W40376  41.969  22.630  12.397
67963W        W40377  33.912  34.408   3.655
67964W        W40378  28.643   1.285  12.538
67965W        W40379  40.940  26.618  12.904
67966W        W40380  17.173  37.889   1.874
67967W        W40381   3.317   5.218  13.854
67968W        W40382   6.350  31.982  10.482
67969W        W40383   6.880   4.291   0.892
67970W        W40384  31.511  22.148  11.003
67971W        W40385  23.503   5.256  10.585
67972W        W40386  24.020  22.561  11.377
67973W        W40387  28.036  27.638  14.908
67974W        W40388  30.164   1.793  10.643
67975W        W40389  38.492   4.840  12.945
67976W        W40390   5.291   6.685  12.395
67977W        W40391   2.774  43.947   0.345
67978W        W40392  32.065  13.829  12.834
67979W        W40393  13.144  26.071   3.359
67980W        W40394   7.197  22.662  14.887
67981W        W40395  43.371  23.002  14.986
67982W        W40396  12.792  23.046  13.046
67983W        W40397   0.974   1.277   2.712
67984W        W40398  34.108  35.102  11.882
67985W        W40399  30.605  28.475  12.934
67986W        W40400  17.235  29.138  11.605
67987W        W40401  34.050  21.136  14.812
67988W        W40402   1.887  15.133   3.690
67989W        W40403  26.601  18.176  14.375
67990W        W40404   5.332  22.145  10.628
67991W        W40405  16.586  39.891  13.024
67992W        W40406  37.491   0.836   5.156
67993W        W40407  43.014   3.446   0.860
67994W        W40408  44.274  34.522   1.226
67995W        W40409  44.804   3.793  13.793
67996W        W40410  39.894   2.832   4.342
67997W        W40411  41.381   4.834  10.952
67998W        W40412  27.446  42.513   4.225
67999W        W40413  34.974  40.845  13.454
68000W        W40414  29.020  43.872   2.368
68001W        W40415  40.376  25.188   3.292
68002W        W40416  36.962  17.227   4.768
68003W        W40417  22.704   6.218  11.870
68004W        W40418   1.943   7.286  12.343
68005W        W40419  43.943  31.151  11.431
68006W        W40420  23.694   7.890  10.413
68007W        W40421  37.554  23.663  14.873
68008W        W40422  17.714  27.628   1.351
68009W        W40423   1.760  28.677   0.962
68010W        W40424   8.861   2.365  11.398
68011W        W40425  41.970   1.900  13.812
68012W        W40426   4.775  36.952  11.537
68013W        W40427   4.844  28.997  14.818
68014W        W40428   4.287  29.008  14.294
68015W        W40429   0.333  15.104  13.043
68016W        W40430  18.695  14.666   1.857
68017W        W40431   6.241  14.773   4.177
68018W        W40432  36.964   9.815  14.350
68019W        W40433  42.380   7.314   1.432
68020W        W40434   8.323  26.630  13.880
68021W        W40435  10.349  42.836   3.272
68022W        W40436   7.394  21.113  13.321
68023W        W40437  27.131   8.783   3.151
68024W        W40438  42.288  42.895   3.163
68025W        W40439  34.973  42.984   1.916
68026W        W40440  22.556  30.443   1.251
68027W        W40441  29.165  36.068   0.481
68028W        W40442  37.834  32.909  11.899
68029W        W40443  41.349  41.956   5.234
68030W        W40444  42.340  44.852   3.705
68031W        W40445   8.364  39.044   4.308
68032W        W40446  22.041  39.986  12.485
68033W        W40447  40.845  25.213   0.453
68034W        W40448  43.856   8.689  14.410
68035W        W40449   1.295  16.725   3.790
68036W        W40450  16.100  25.988  13.523
68037W        W40451  13.289  16.657   2.207
68038W        W40452  29.596  19.278   1.223
68039W        W40453  43.424  19.680  11.964
68040W        W40454  17.251   4.419   3.859
68041W        W40455   6.855  37.859   2.315
68042W        W40456   8.222   3.256  11.484
68043W        W40457  31.938  37.557  12.574
68044W        W40458   3.747  39.404  10.599
68045W        W40459  41.463  21.077  14.877
68046W        W40460  35.951  17.062   3.713
68047W        W40461  17.300  30.434  10.625
68048W        W40462  22.513  31.490  13.964
68049W        W40463  18.612  18.688  13.493
68050W        W40464  10.380  33.899   0.309
68051W        W40465  19.669   7.827  11.926
68052W        W40466  10.140  28.546   0.766
68053W        W40467   4.907  24.596   0.438
68054W        W40468  21.682  40.933  11.494
68055W        W40469   9.293   7.313  12.879
68056W        W40470  29.153  37.519   4.733
68057W        W40471   3.845  37.573  10.541
68058W        W40472  15.625   8.322  10.027
68059W        W40473   4.740  44.839  14.405
68060W        W40474  21.126   9.375  12.888
68061W        W40475  11.785  26.690   0.909
68062W        W40476  11.186  15.217  12.520
68063W        W40477  27.588  19.043  11.435
68064W        W40478   7.740  30.926  14.391
68065W        W40479  36.886  41.976  13.816
68066W        W40480  17.625  26.187  10.973
68067W        W40481  26.641  42.288  10.920
68068W        W40482  28.627  22.240  10.527
68069W        W40483  25.193   8.270  12.527
68070W        W40484  41.351  17.581   1.267
68071W        W40485  22.021  36.415   1.767
68072W        W40486  43.910  19.610   4.266
68073W        W40487   4.355   1.404  12.554
68074W        W40488  16.101   8.656  12.860
68075W        W40489  31.948  40.395  10.417
68076W        W40490  13.307   5.342  14.964
68077W        W40491  14.753  37.881  13.804
68078W        W40492  23.098   1.892   0.258
68079W        W40493  14.207  18.690  10.444
68080W        W40494  32.074  25.138  13.490
68081W        W40495  22.118   6.698   1.900
68082W        W40496  12.805  39.828  13.540
68083W        W40497  43.432   1.933   0.275
68084W        W40498  38.009  38.819  14.777
68085W        W40499   4.909   1.965   2.306
68086W        W40500  32.082  12.686  14.812
68087W        W40501   6.182  39.833   3.307
68088W        W40502  14.697  30.978  14.481
68089W        W40503  14.320   3.439   0.834
68090W        W40504  37.835  39.907   2.365
68091W        W40505  19.210   6.779   4.751
68092W        W40506  28.676   0.345   0.369
68093W        W40507  39.849   8.321  11.074
68094W        W40508  14.265  14.743  10.499
68095W        W40509   8.827  35.511   2.415
68096W        W40510   2.378  27.544  12.940
68097W        W40511  28.438  26.984  12.898
68098W        W40512  31.547  37.453  11.479
68099W        W40513  42.943  26.634   1.232
68100W        W40514  27.514   7.376  11.867
68101W        W40515  11.702  12.325   4.130
68102W        W40516  12.168   4.404  12.069
68103W        W40517  32.099  33.055   4.338
68104W        W40518  35.479  44.436   9.940
68105W        W40519   3.271   9.189  14.955
68106W        W40520   6.382   3.897  12.404
68107W        W40521  28.072   7.871  13.022
68108W        W40522   5.296   8.326   2.890
68109W        W40523  19.699  24.997   3.239
68110W        W40524   0.761   5.285  12.373
68111W        W40525   4.332  16.710   3.373
68112W        W40526  40.382   5.251   0.787
68113W        W40527  12.196  41.932   2.382
68114W        W40528  21.554   1.278   1.903
68115W        W40529  15.597   7.174   2.352
68116W        W40530   1.410  22.217  12.496
68117W        W40531   2.778   2.778   2.783
68118W        W40532  25.088  15.267  13.059
68119W        W40533   4.909  41.382   4.804
68120W        W40534  20.748  18.722   0.820
68121W        W40535  24.155  16.254  14.843
68122W        W40536  35.883  25.557  12.023
68123W        W40537  11.207  31.035  11.970
68124W        W40538  39.970  42.408  10.408
68125W        W40539   6.202  12.248   1.376
68126W        W40540  33.974  41.955   0.290
68127W        W40541  36.527  42.867  10.579
68128W        W40542   2.864  32.014   0.826
68129W        W40543  11.275   0.489   2.384
68130W        W40544   9.177  12.246   1.242
68131W        W40545  16.566  17.723   0.786
68132W        W40546  15.609  34.987   3.713
68133W        W40547  12.272  38.449   2.706
68134W        W40548  10.310  19.574   3.231
68135W        W40549   5.420  37.875   4.790
68136W        W40550  17.136   7.910   4.335
68137W        W40551  25.664  39.924  13.348
68138W        W40552  24.567  15.602   4.249
68139W        W40553  15.144   1.828  11.520
68140W        W40554  13.774   4.287   1.714
68141W        W40555  11.271  21.074   3.709
68142W        W40556  23.135  14.300  13.355
68143W        W40557   9.700   2.269   4.797
68144W        W40558   3.748  19.564  13.887
68145W        W40559  10.706  26.478   3.694
68146W        W40560  44.904  18.088  14.318
68147W        W40561  12.352  30.961  11.065
68148W        W40562  44.007  14.111  14.985
68149W        W40563   9.881  10.827  13.376
68150W        W40564  29.501  21.079   0.252
68151W        W40565  38.343  16.609   3.663
68152W        W40566  23.016   4.431   4.638
68153W        W40567  37.389  30.536  11.041
68154W        W40568  36.004  35.880   2.763
68155W        W40569  32.513   1.847  10.423
68156W        W40570  28.475  14.112  11.863
68157W        W40571  22.583  22.030   0.296
68158W        W40572  42.952  11.791   5.271
68159W        W40573  32.040  32.619   1.249
68160W        W40574  14.310  20.628   2.865
68161W        W40575   0.959  15.190  14.498
68162W        W40576  33.012   3.439   4.628
68163W        W40577   0.826  23.543  11.431
68164W        W40578  10.166  40.049   2.242
68165W        W40579   8.826  44.413  10.513
68166W        W40580  21.030   9.376  14.473
68167W        W40581  22.538  30.630  14.825
68168W        W40582  42.971   6.762  14.935
68169W        W40583  31.112  17.201  10.506
68170W        W40584  34.982  12.686  11.562
68171W        W40585  35.877  10.638  12.069
68172W        W40586  40.485  16.110  13.429
68173W        W40587  43.287  43.295   2.274
68174W        W40588  25.505   0.466   1.886
68175W        W40589  37.342  44.363   2.867
68176W        W40590  24.595  32.439   1.873
68177W        W40591  17.255  31.642   3.307
68178W        W40592  23.987   8.348   3.267
68179W        W40593   1.754  38.459   1.287
68180W        W40594  25.198   6.186   1.701
68181W        W40595  34.939  24.205   4.618
68182W        W40596  11.230  25.529   3.352
68183W        W40597  43.387  15.651  14.029
68184W        W40598  27.139  31.612   0.823
68185W        W40599  40.397  10.170  11.031
68186W        W40600  32.119  35.492   4.600
68187W        W40601  10.801  17.195  10.947
68188W        W40602  29.156  37.351  14.497
68189W        W40603  27.555  43.387  10.919
68190W        W40604  15.088  34.440   0.831
68191W        W40605  28.178  20.043   1.441
68192W        W40606  22.219  15.192  12.519
68193W        W40607   4.936   4.328  12.030
68194W        W40608  29.591  15.301  14.362
68195W        W40609  41.427  27.502   2.347
68196W        W40610  25.583  17.071   0.476
68197W        W40611  20.727  23.129   4.690
68198W        W40612  30.157  21.146   1.755
68199W        W40613   9.168  14.725  14.766
68200W        W40614   5.774  20.542  13.312
68201W        W40615  38.992  12.795   4.345
68202W        W40616  21.638  35.505  10.493
68203W        W40617  41.521  18.788  13.918
68204W        W40618   6.869  27.973  14.905
68205W        W40619  42.421  18.163   3.219
68206W        W40620   3.892  28.440  11.862
68207W        W40621   7.882  30.474  14.978
68208W        W40622  32.086  10.176   4.670
68209W        W40623  43.495  23.504  13.063
68210W        W40624  23.120  43.403  14.996
68211W        W40625  25.121  42.843   5.216
68212W        W40626  37.085  11.133   2.666
68213W        W40627  18.634  31.602   4.313
68214W        W40628  38.894  23.145   0.930
68215W        W40629  37.351  38.002  14.834
68216W        W40630  38.025  27.082   3.806
68217W        W40631  15.640  26.477  10.501
68218W        W40632  39.397  15.100   1.321
68219W        W40633  10.869  26.145   0.460
68220W        W40634  15.741  24.696   4.700
68221W        W40635  38.843  11.831   4.784
68222W        W40636  14.220  24.127   1.793
68223W        W40637  42.397  36.070   3.862
68224W        W40638  22.063  26.677   1.370
68225W        W40639  40.008  32.900   3.167
68226W        W40640   2.864  11.689   0.954
68227W        W40641  19.611  42.850  13.445
68228W        W40642   1.855   3.767   2.342
68229W        W40643  14.190  43.012  13.055
68230W        W40644   8.221  33.894   1.796
68231W        W40645  22.579  31.995  13.529
68232W        W40646  19.596  32.079  10.534
68233W        W40647   3.385  32.076  10.548
68234W        W40648   1.295  11.322   4.644
68235W        W40649  22.600  37.408   4.339
68236W        W40650  44.908  18.576  14.901
68237W        W40651  11.240  32.889  13.481
68238W        W40652  36.592   3.216  10.585
68239W        W40653  42.319  14.704  12.431
68240W        W40654  41.789  18.733   3.362
68241W        W40655  37.513  42.479  11.012
68242W        W40656  41.015   5.417  10.484
68243W        W40657  13.824  41.510   0.272
68244W        W40658  37.956  44.758   4.686
68245W        W40659   6.230  16.708   1.440
68246W        W40660  20.689  36.489  13.459
68247W        W40661  19.608  21.085   2.788
68248W        W40662   2.843  16.612  13.923
68249W        W40663  28.079  15.325  12.363
68250W        W40664  24.154  31.623  12.843
68251W        W40665  12.200   8.172  11.905
68252W        W40666  26.091   9.817  10.997
68253W        W40667  22.247   5.254   2.253
68254W        W40668   8.225  13.779  11.611
68255W        W40669  33.896  34.944  11.038
68256W        W40670   3.247  17.102  12.943
68257W        W40671  39.475  39.038   1.835
68258W        W40672  16.735  21.529  11.552
68259W        W40673  39.982   4.213   4.735
68260W        W40674  22.569   0.804   2.725
68261W        W40675   0.890  36.999  12.427
68262W        W40676  18.729   6.216   1.770
68263W        W40677  26.619  15.153  14.868
68264W        W40678  11.165  27.099   1.433
68265W        W40679   9.182  17.203   2.833
68266W        W40680  36.889  21.253  13.422
68267W        W40681  13.127  42.933   1.888
68268W        W40682  23.214   2.399  10.932
68269W        W40683   2.446  31.584   3.641
68270W        W40684  15.235   8.694   5.136
68271W        W40685  10.280  17.704   0.271
68272W        W40686  10.812  41.942  10.943
68273W        W40687  36.989  37.408   4.177
68274W        W40688   8.222  32.548   1.703
68275W        W40689  38.483  41.349   0.746
68276W        W40690  37.520  27.113   4.755
68277W        W40691   9.761  32.496   1.865
68278W        W40692  36.542  35.979   3.357
68279W        W40693  36.442  27.024  11.541
68280W        W40694  44.871  41.481   1.451
68281W        W40695  44.353  41.300   9.982
68282W        W40696  26.640  24.684   4.194
68283W        W40697  20.072   6.819  11.377
68284W        W40698  21.153  17.679   2.759
68285W        W40699  32.490  37.859   4.616
68286W        W40700  18.562  41.040  10.628
68287W        W40701  29.951  23.016  10.967
68288W        W40702  15.644  34.017   3.775
68289W        W40703   6.262  10.193   2.262
68290W        W40704   4.412  38.829   0.730
68291W        W40705  36.052  33.913  12.361
68292W        W40706  31.943  31.544   4.264
68293W        W40707  28.511  23.635  12.371
68294W        W40708   8.222  14.792   4.659
68295W        W40709   1.287  11.718   3.207
68296W        W40710   7.319  42.475   1.918
68297W        W40711  17.278   0.938   2.247
68298W        W40712  19.561  16.217   4.170
68299W        W40713  37.516  32.082  11.485
68300W        W40714   9.772   1.783  14.275
68301W        W40715  13.751  35.861   4.698
68302W        W40716   1.825  11.263   0.858
68303W        W40717  39.942   5.237   0.252
68304W        W40718  40.906  40.399  12.565
68305W        W40719  13.750   2.932   2.706
68306W        W40720  44.287  27.520   1.254
68307W        W40721   4.272  31.543  12.455
68308W        W40722  39.957   8.789  13.947
68309W        W40723   4.944  28.499  12.864
68310W        W40724  28.108  10.194  12.392
68311W        W40725  35.082  42.417  11.585
68312W        W40726  19.738  20.064   3.833
68313W        W40727  34.403  20.049  11.440
68314W        W40728  27.663   0.754  14.879
68315W        W40729  16.080  15.719   2.765
68316W        W40730  43.894  16.774   1.441
68317W        W40731  24.531  18.255  13.864
68318W        W40732   4.428  39.536  10.952
68319W        W40733   1.875   1.431   4.255
68320W        W40734  34.931  15.256  13.018
68321W        W40735  17.649  26.013  13.918
68322W        W40736  15.279  23.097  10.568
68323W        W40737  36.091  33.465   4.248
68324W        W40738   9.253  21.213  12.460
68325W        W40739  38.994  19.122  12.930
68326W        W40740  31.476  18.756  10.595
68327W        W40741  15.096  43.336   0.903
68328W        W40742  16.763  29.653  11.092
68329W        W40743  31.511   7.747  14.838
68330W        W40744   3.732  23.218  13.006
68331W        W40745  16.639  33.920  13.454
68332W        W40746  24.621  44.261  10.465
68333W        W40747  12.816  19.592   3.320
68334W        W40748  18.744  43.833   0.751
68335W        W40749   7.864   1.344   0.317
68336W        W40750   5.933   8.709   3.637
68337W        W40751  16.272  39.964   4.711
68338W        W40752  26.586  15.755   2.247
68339W        W40753   4.721  15.630  10.587
68340W        W40754   9.162   1.889   0.801
68341W        W40755   8.768  34.020   1.791
68342W        W40756  18.628  23.088   3.195
68343W        W40757  23.197  16.687   1.248
68344W        W40758  29.590  40.987  14.388
68345W        W40759   5.439   6.748   2.664
68346W        W40760  25.625   0.461  12.906
68347W        W40761  12.134   0.262  13.339
68348W        W40762   8.756  30.052   3.857
68349W        W40763  23.525   0.807   5.103
68350W        W40764  11.662   3.738  11.510
68351W        W40765   3.311  34.548  14.356
68352W        W40766  42.436  27.163   2.389
68353W        W40767   5.907   9.706   3.194
68354W        W40768  32.601  23.611   4.775
68355W        W40769  26.204  37.046  12.545
68356W        W40770  28.945  29.665  13.463
68357W        W40771  33.618   0.474  11.060
68358W        W40772   4.209  19.084  12.422
68359W        W40773   9.708   1.806   0.806
68360W        W40774   4.306  43.349  12.977
68361W        W40775  28.002  34.580  10.099
68362W        W40776  16.208   8.861   4.205
68363W        W40777  35.868  28.477  14.902
68364W        W40778  17.248  42.814  13.344
68365W        W40779  22.187   6.909   4.736
68366W        W40780  24.692  35.974  11.951
68367W        W40781  37.562  23.038  11.412
68368W        W40782   9.766  19.178   0.944
68369W        W40783  23.026  25.553   1.795
68370W        W40784   0.396  12.651  13.428
68371W        W40785  32.527  21.260   0.951
68372W        W40786  39.357  44.439   3.362
68373W        W40787  36.399  31.594   2.901
68374W        W40788  17.695  30.458  11.612
68375W        W40789   4.940  14.101  14.311
68376W        W40790   4.423  15.216   4.723
68377W        W40791   7.909  43.411  13.877
68378W        W40792  31.945  30.651  14.386
68379W        W40793  23.563   0.940  12.880
68380W        W40794   7.667  17.619  13.856
68381W        W40795  19.232   3.343   2.200
68382W        W40796  25.987  22.051  14.394
68383W        W40797  19.748  14.163  12.891
68384W        W40798  19.202  26.618   3.379
68385W        W40799  38.007  11.274  11.969
68386W        W40800  15.213  21.025   3.357
68387W        W40801  40.897  14.821  13.532
68388W        W40802  11.309  12.786   0.959
68389W        W40803  15.314  34.084   0.385
68390W        W40804  23.732  16.156  10.058
68391W        W40805  28.064   5.748  13.867
68392W        W40806  32.058  12.802   4.225
68393W        W40807  37.932   1.328  10.435
68394W        W40808  12.215  15.289   4.285
68395W        W40809  19.223  33.059  13.397
68396W        W40810  25.506  40.941  10.540
68397W        W40811  23.077  34.896  10.586
68398W        W40812  14.737  15.778  12.362
68399W        W40813  18.580  36.567   4.738
68400W        W40814  25.559  16.088  12.970
68401W        W40815  15.810  21.095   0.918
68402W        W40816  10.863   7.910  14.378
68403W        W40817  13.238  29.455   2.855
68404W        W40818  28.492   0.411  12.432
68405W        W40819  24.096   6.301  12.877
68406W        W40820  11.624  44.957   1.291
68407W        W40821  44.839   8.225  11.498
68408W        W40822  40.436  24.152  14.507
68409W        W40823   2.286   3.390  13.018
68410W        W40824  37.835  26.022  14.865
68411W        W40825  12.296  10.800  11.946
68412W        W40826   2.829   3.819   4.823
68413W        W40827  38.518  36.430   1.418
68414W        W40828  42.449  28.505   2.764
68415W        W40829  17.173  19.578   1.805
68416W        W40830  27.964  26.484   0.425
68417W        W40831  16.684   3.878  13.887
68418W        W40832  37.423  15.126   0.458
68419W        W40833  28.970   2.402  14.291
68420W        W40834  27.033   9.738  13.335
68421W        W40835  16.717   4.751  10.928
68422W        W40836  31.134  31.488   1.213
68423W        W40837   6.258  10.153  14.454
68424W        W40838  41.446   3.737  12.855
68425W        W40839  33.875  37.854  12.029
68426W        W40840  36.933  18.252  12.383
68427W        W40841  19.759  40.478  14.471
68428W        W40842  30.548  36.379  14.382
68429W        W40843  34.464  41.989   0.424
68430W        W40844  38.525  41.906   0.458
68431W        W40845  22.125  26.152  14.417
68432W        W40846  27.066  32.110   0.379
68433W        W40847  10.284  36.884  13.978
68434W        W40848  39.023  10.741  14.378
68435W        W40849  25.511  21.153   4.164
68436W        W40850   4.411  30.994   2.844
68437W        W40851  25.091  15.228   0.367
68438W        W40852  17.223  38.499   2.840
68439W        W40853  36.562   6.758  14.477
68440W        W40854  14.593  29.484  13.009
68441W        W40855  15.245  30.605   2.773
68442W        W40856  23.073  27.447  12.931
68443W        W40857  35.979  40.990  14.477
68444W        W40858   8.205  12.286   0.430
68445W        W40859  34.871   5.786   2.891
68446W        W40860   5.827  31.914  14.285
68447W        W40861  24.579  16.571  12.528
68448W        W40862  18.717   3.419   5.140
68449W        W40863  28.950   1.277  10.908
68450W        W40864  14.173  39.502  13.317
68451W        W40865  22.081  32.414   1.793
68452W        W40866  25.674  11.748  12.465
68453W        W40867  41.856  25.653  14.891
68454W        W40868  39.422  13.247  13.494
68455W        W40869  39.500  39.884   3.271
68456W        W40870   7.343  27.034   4.225
68457W        W40871   5.277  28.065  10.911
68458W        W40872  16.096  21.021  11.922
68459W        W40873  38.344   5.765   0.841
68460W        W40874   3.837  15.631  12.029
68461W        W40875   6.815  43.466   1.821
68462W        W40876  41.427   5.803  10.943
68463W        W40877  41.927   7.361  11.972
68464W        W40878  37.524  19.638  13.000
68465W        W40879  16.789  33.430  11.920
68466W        W40880  21.742  31.021   4.640
68467W        W40881  25.064  22.222   3.691
68468W        W40882  13.224  38.842   0.957
68469W        W40883   3.831  21.694   3.721
68470W        W40884  24.591  12.345  11.959
68471W        W40885  37.885   0.386   1.248
68472W        W40886  21.530   3.275  13.495
68473W        W40887  40.886  12.632   2.879
68474W        W40888  39.464  17.088  12.577
68475W        W40889  25.512  17.632  10.080
68476W        W40890  40.332  19.681   3.321
68477W        W40891  34.919   8.231   3.376
68478W        W40892  12.689   0.416   3.197
68479W        W40893   0.896  44.787   0.315
68480W        W40894  19.770  31.898   2.375
68481W        W40895  36.456  11.857  13.891
68482W        W40896   0.253  39.947   0.828
68483W        W40897  11.240  43.930  10.436
68484W        W40898  36.499  39.528  13.308
68485W        W40899  20.720  43.861   4.834
68486W        W40900  22.505  26.152  11.025
68487W        W40901   4.232  31.459  14.909
68488W        W40902  21.565  43.287   4.353
68489W        W40903  33.443  37.422  12.509
68490W        W40904  12.704   4.340  12.491
68491W        W40905  37.484  23.558   1.759
68492W        W40906  41.947  41.509  12.457
68493W        W40907  43.439  23.528  14.919
68494W        W40908  12.668  25.504   0.736
68495W        W40909  20.030  31.598  10.601
68496W        W40910  27.117  27.046   0.939
68497W        W40911  10.830  11.251  11.477
68498W        W40912  15.600  17.576  12.387
68499W        W40913  12.646  14.333  12.854
68500W        W40914  43.285  13.326  12.893
68501W        W40915  36.560   5.238  13.374
68502W        W40916  40.389  26.176   2.724
68503W        W40917  33.030   3.420   3.753
68504W        W40918  40.992  40.815   3.823
68505W        W40919  36.493  22.562   0.288
68506W        W40920  27.643  44.467  12.004
68507W        W40921  37.859  21.252  11.897
68508W        W40922  35.520  40.945  12.395
68509W        W40923  29.040   7.763  11.574
68510W        W40924  33.935  36.406   4.344
68511W        W40925   4.237  40.508   2.191
68512W        W40926  10.356  18.267  11.507
68513W        W40927   0.764  41.535  12.506
68514W        W40928  25.697  19.724  14.988
68515W        W40929   7.788  43.005  13.810
68516W        W40930   9.709   0.298   2.739
68517W        W40931  22.717  16.619  12.491
68518W        W40932   3.917  23.577   1.836
68519W        W40933  31.029  30.545   5.263
68520W        W40934  24.214   8.208  12.900
68521W        W40935  41.865   6.305  11.532
68522W        W40936  13.240  25.541   2.878
68523W        W40937  36.084   9.881  13.008
68524W        W40938  12.761  42.894   1.257
68525W        W40939  11.800   8.177   0.775
68526W        W40940  12.672  15.672  13.336
68527W        W40941  40.805   2.333  13.431
68528W        W40942  40.432  42.798   2.900
68529W        W40943  12.214   4.421  14.769
68530W        W40944  22.713  27.117   4.113
68531W        W40945  15.768  25.005   4.124
68532W        W40946  14.675   1.416  12.457
68533W        W40947  29.088  21.670  11.466
68534W        W40948  15.274  11.736   1.762
68535W        W40949  24.168  27.106  13.892
68536W        W40950   1.298   6.895  11.590
68537W        W40951  33.553  34.607   1.849
68538W        W40952   8.697   0.492  12.481
68539W        W40953  33.073   9.342  11.401
68540W        W40954  15.126  43.793  13.377
68541W        W40955  30.054  12.729   0.952
68542W        W40956  11.706  32.636   4.764
68543W        W40957   4.837  37.483  12.847
68544W        W40958  38.995   0.283  13.047
68545W        W40959  18.672  37.005  14.902
68546W        W40960  16.696  38.447  10.606
68547W        W40961  13.723  21.159   4.756
68548W        W40962  25.670  26.584   1.431
68549W        W40963  42.415  30.994   4.715
68550W        W40964  18.691  34.474   3.232
68551W        W40965  22.057  37.963   2.212
68552W        W40966  17.577  24.553   0.447
68553W        W40967   1.424  16.722   1.889
68554W        W40968   6.380  44.854   4.760
68555W        W40969  41.943  37.493   2.764
68556W        W40970   7.276  36.569  13.372
68557W        W40971  43.453   9.243   1.343
68558W        W40972  10.680   0.284   1.266
68559W        W40973  23.568  36.051  14.418
68560W        W40974   4.207  44.010   1.775
68561W        W40975  41.966  31.030   2.396
68562W        W40976  14.101  33.457   0.271
68563W        W40977   8.335  26.630  14.780
68564W        W40978  35.095  40.030  14.921
68565W        W40979  14.666  31.528  11.873
68566W        W40980  35.589  29.004  12.914
68567W        W40981   4.229  23.013   1.714
68568W        W40982   9.347   8.352  13.368
68569W        W40983  14.220  36.565   4.171
68570W        W40984  33.587  22.227   4.704
68571W        W40985  33.423  15.580   1.271
68572W        W40986  32.923  20.034  14.917
68573W        W40987   6.373   5.853   1.380
68574W        W40988  10.202  34.420  14.288
68575W        W40989  43.965   7.320  11.867
68576W        W40990   5.763   2.239   4.232
68577W        W40991  22.594  17.626  11.991
68578W        W40992  28.049  32.633   1.355
68579W        W40993  14.144  10.303   3.709
68580W        W40994   5.216  14.672   5.171
68581W        W40995   5.924  43.847   1.225
68582W        W40996  41.031  12.294  11.380
68583W        W40997  17.714  44.504   5.220
68584W        W40998  30.571   6.864   2.375
68585W        W40999   7.307  14.661  10.987
68586W        W41000  37.003  30.960  12.978
68587W        W41001  10.232  36.060   3.368
68588W        W41002   3.457  29.502   0.269
68589W        W41003  36.443  35.410   5.723
68590W        W41004   1.422  37.534  11.876
68591W        W41005  31.541  43.433   4.830
68592W        W41006   1.392  28.546   1.700
68593W        W41007   7.337   9.317  14.373
68594W        W41008   8.285  38.498  10.975
68595W        W41009   0.889   7.902  13.935
68596W        W41010  15.202  22.687   2.396
68597W        W41011  25.107   1.442   0.765
68598W        W41012  24.073   8.293  12.581
68599W        W41013  31.407   9.308   0.767
68600W        W41014  12.205   8.251  10.947
68601W        W41015  27.672  40.943   3.244
68602W        W41016  19.229  16.174  13.453
68603W        W41017   8.235  12.624   3.277
68604W        W41018   9.385  37.044   2.846
68605W        W41019  19.584  30.146  11.000
68606W        W41020  41.325  33.471   2.201
68607W        W41021  44.933  32.929  12.465
68608W        W41022  20.090  31.136   1.383
68609W        W41023   0.251   2.403   2.192
68610W        W41024  41.846  39.402  11.425
68611W        W41025  11.698  36.871   4.212
68612W        W41026  18.053  40.401   1.747
68613W        W41027  35.084  25.669  13.479
68614W        W41028  42.485  10.736  14.463
68615W        W41029  21.145  16.627  13.393
68616W        W41030  15.666   0.879   1.784
68617W        W41031  14.819  40.348   3.789
68618W        W41032  14.686  23.122   3.282
68619W        W41033  15.645   2.758   3.854
68620W        W41034  15.608  15.318   0.376
68621W        W41035  43.282  24.987   0.869
68622W        W41036  18.733  41.449  10.050
68623W        W41037  12.726  27.658  13.029
68624W        W41038  20.525  29.609  14.936
68625W        W41039  35.076  40.355  13.960
68626W        W41040  36.054  30.432  14.028
68627W        W41041  39.901   0.753  12.008
68628W        W41042  39.957   1.467   4.736
68629W        W41043  23.182   2.449  14.025
68630W        W41044   6.712  39.811  13.440
68631W        W41045  42.388  15.251   2.208
68632W        W41046  12.181  12.325   1.709
68633W        W41047  29.425  31.933  10.436
68634W        W41048  20.073   4.765   4.209
68635W        W41049  34.945   3.890   1.211
68636W        W41050  29.650   9.651  11.032
68637W        W41051  26.055  17.713   3.680
68638W        W41052  30.634  32.609  12.936
68639W        W41053   8.313   0.329   1.769
68640W        W41054  17.787  36.863   4.615
68641W        W41055  43.939  18.611   2.831
68642W        W41056   6.792  14.609   5.311
68643W        W41057  32.089  40.413   0.366
68644W        W41058   1.330   9.302   3.779
68645W        W41059  16.576   1.449   1.726
68646W        W41060  30.112  41.479   3.192
68647W        W41061  25.193   4.321  10.490
68648W        W41062   7.242  15.222   2.875
68649W        W41063   2.273   7.381  12.931
68650W        W41064  31.560  13.760   2.830
68651W        W41065  42.340  18.177   0.914
68652W        W41066  34.928  33.586   4.810
68653W        W41067  34.866  35.399  12.837
68654W        W41068  19.578  17.070  14.799
68655W        W41069   5.798   6.870  13.535
68656W        W41070  44.893   4.878   0.450
68657W        W41071  15.682  18.697   2.771
68658W        W41072  44.867  42.016  13.941
68659W        W41073  17.801  14.621  14.769
68660W        W41074   1.238  24.226  13.324
68661W        W41075  20.720  42.829  10.450
68662W        W41076  30.027  42.407  11.569
68663W        W41077  22.719  41.476   3.743
68664W        W41078  36.517  21.214  10.010
68665W        W41079  10.809   7.245   3.187
68666W        W41080  14.779   0.816   4.748
68667W        W41081   7.685  40.816   0.399
68668W        W41082  25.541  23.215   2.281
68669W        W41083   3.734  29.922  14.468
68670W        W41084  15.283  26.654   1.256
68671W        W41085  13.724  17.590  10.561
68672W        W41086  22.185  35.856   0.370
68673W        W41087  37.988   8.732   3.840
68674W        W41088  13.668  19.264  11.995
68675W        W41089  35.005   7.860   4.347
68676W        W41090  22.537  33.043  11.010
68677W        W41091  24.214  12.238   0.390
68678W        W41092   3.357  39.063   2.246
68679W        W41093  17.688   1.854  10.632
68680W        W41094  38.044   2.379   4.763
68681W        W41095  10.153  34.034  13.453
68682W        W41096  26.972  36.865   2.874
68683W        W41097  37.414  27.197  10.959
68684W        W41098  30.490  19.655   2.799
68685W        W41099  32.418  11.652  13.339
68686W        W41100   7.233  19.707   4.606
68687W        W41101  34.393  32.522   3.355
68688W        W41102   4.384  10.646   2.862
68689W        W41103  33.550  22.078   4.225
68690W        W41104  35.575  39.320  11.453
68691W        W41105  21.723  27.603  11.394
68692W        W41106  19.143  32.891   2.778
68693W        W41107  38.509   0.845  14.330
68694W        W41108   1.480  35.911  11.004
68695W        W41109  22.167   4.445   0.741
68696W        W41110  10.821  28.929  12.431
68697W        W41111  22.126  39.442   2.188
68698W        W41112   8.406   5.776   4.324
68699W        W41113  13.331  11.840  13.903
68700W        W41114  38.520  32.411   4.328
68701W        W41115  18.124  35.027  13.998
68702W        W41116   7.671   8.383   4.644
68703W        W41117   7.374   2.752  12.959
68704W        W41118  16.306   3.852   0.936
68705W        W41119  12.642   6.203   0.294
68706W        W41120  43.360   6.690  14.028
68707W        W41121  31.950  32.918   3.163
68708W        W41122  19.244  10.214  11.957
68709W        W41123  18.119  24.202   1.801
68710W        W41124  18.285  29.032   0.938
68711W        W41125   7.801  32.068  10.115
68712W        W41126  36.478  20.215  11.983
68713W        W41127   4.334  42.500   4.729
68714W        W41128   5.805  13.634  14.487
68715W        W41129  43.500  41.392   1.908
68716W        W41130  19.699  32.575  14.794
68717W        W41131  31.519   5.844   2.377
68718W        W41132  36.526  41.791  11.125
68719W        W41133  15.301  40.983   1.765
68720W        W41134  27.572  34.958  11.490
68721W        W41135  21.738  33.024   2.825
68722W        W41136  39.472  36.876  11.457
68723W        W41137   5.833  14.279  11.105
68724W        W41138  10.690  10.651   1.427
68725W        W41139   0.778  41.399  12.907
68726W        W41140  11.367   8.364  14.917
68727W        W41141  10.860   7.338   2.220
68728W        W41142   1.752   1.301  13.926
68729W        W41143   2.365   8.192   0.836
68730W        W41144  11.668   3.217  11.588
68731W        W41145  39.514  22.098  10.571
68732W        W41146  28.513  11.168   2.239
68733W        W41147   3.715  35.001   2.770
68734W        W41148  22.565   8.847   1.787
68735W        W41149  20.048  36.924   2.392
68736W        W41150  37.386   1.919  13.840
68737W        W41151  29.458  25.652  13.837
68738W        W41152  24.505  34.567  14.814
68739W        W41153   4.809  36.487  10.988
68740W        W41154  19.713  17.617  10.489
68741W        W41155   9.668   3.739   3.759
68742W        W41156   6.265   2.339  12.342
68743W        W41157   0.919  16.673   0.357
68744W        W41158  34.895  30.637   1.374
68745W        W41159   8.323  34.472   4.281
68746W        W41160   6.876  13.602  14.795
68747W        W41161  31.065  32.891   4.163
68748W        W41162  37.426  35.590  11.479
68749W        W41163   9.858  30.468  11.470
68750W        W41164  31.926  34.564   2.822
68751W        W41165  36.864  29.581  10.626
68752W        W41166  24.482  14.790   3.689
68753W        W41167  39.372  44.320   1.701
68754W        W41168   4.783   1.375  10.437
68755W        W41169  32.951  43.448  14.404
68756W        W41170  44.860  22.125   1.724
68757W        W41171   6.263   3.408   0.374
68758W        W41172  39.929  40.893  12.439
68759W        W41173  41.302  30.081  14.309
68760W        W41174  33.072  42.900   3.275
68761W        W41175  30.001  23.153   0.384
68762W        W41176   1.796  34.519   0.967
68763W        W41177   4.883   5.894   4.120
68764W        W41178  19.585  16.719   2.194
68765W        W41179   3.876  12.771   3.769
68766W        W41180   6.351  10.225  14.023
68767W        W41181  27.137  41.862   1.345
68768W        W41182  37.395  37.950  13.440
68769W        W41183  11.816   4.757   3.767
68770W        W41184  35.898   7.798  11.415
68771W        W41185   3.414  33.551  10.611
68772W        W41186   5.418  22.744  12.954
68773W        W41187  29.550  44.898  12.914
68774W        W41188  21.605  27.123   4.140
68775W        W41189  13.741   8.178  12.970
68776W        W41190  11.794   9.321   3.740
68777W        W41191  34.420  15.788  11.066
68778W        W41192  11.786  19.635   2.182
68779W        W41193  25.482  28.576   4.792
68780W        W41194  26.015  29.148   4.775
68781W        W41195  29.139  23.171  10.629
68782W        W41196  14.732  32.523  14.483
68783W        W41197  27.538  29.609   2.372
68784W        W41198  12.305  41.012  12.997
68785W        W41199  21.071  38.926  11.390
68786W        W41200  23.033  43.350   3.689
68787W        W41201  43.278  21.136  11.009
68788W        W41202  22.027   9.171  11.376
68789W        W41203  36.431  29.621  10.585
68790W        W41204  20.251  35.001  13.945
68791W        W41205  15.757  11.349   2.735
68792W        W41206  19.756  28.948  13.808
68793W        W41207   5.779  16.159  11.967
68794W        W41208  22.662   3.867   3.193
68795W        W41209  11.819  22.653  14.984
68796W        W41210   7.273  31.577  14.417
68797W        W41211  19.147  25.683  10.517
68798W        W41212  38.528  19.055  12.559
68799W        W41213  21.063  42.004   0.765
68800W        W41214  21.581  36.905   3.225
68801W        W41215   4.826  24.503  13.418
68802W        W41216  34.968  43.987   0.749
68803W        W41217  29.572   7.880   1.272
68804W        W41218   4.914   5.861   1.864
68805W        W41219  23.229  13.308  11.986
68806W        W41220   2.889  20.164   2.180
68807W        W41221   8.380  31.440   0.480
68808W        W41222  26.967  34.902   1.741
68809W        W41223  40.437  15.089  12.948
68810W        W41224  11.282  43.358  12.896
68811W        W41225  35.025  40.360   3.804
68812W        W41226  20.214  20.591  12.033
68813W        W41227  16.615   2.960  10.565
68814W        W41228  12.284  16.789   2.286
68815W        W41229  18.099   8.361  13.538
68816W        W41230   4.388  40.475   4.599
68817W        W41231  30.581  36.999   0.373
68818W        W41232  32.464  28.182   3.309
68819W        W41233   2.805  15.597  14.379
68820W        W41234  27.977  19.626  11.580
68821W        W41235  18.745  24.152   0.382
68822W        W41236  41.466  22.587   2.385
68823W        W41237  19.269   6.883  11.588
68824W        W41238  38.967  29.080   0.733
68825W        W41239  33.117   4.742  11.898
68826W        W41240  23.196  17.647  11.501
68827W        W41241  33.947   5.383  11.521
68828W        W41242  38.962  34.509   9.644
68829W        W41243  24.029  43.940   3.758
68830W        W41244  37.525  14.155   2.313
68831W        W41245  35.533  26.023  11.931
68832W        W41246  29.633  11.357   3.664
68833W        W41247  25.175  18.240   2.745
68834W        W41248   5.428   8.852  13.361
68835W        W41249   1.323  14.672  14.450
68836W        W41250  36.374  34.576   0.477
68837W        W41251  44.895  24.224   1.292
68838W        W41252  35.943  17.175  11.537
68839W        W41253  38.972  29.468  11.557
68840W        W41254   5.797  13.636   1.424
68841W        W41255   5.406  20.605  12.524
68842W        W41256   0.417  16.725  14.816
68843W        W41257  12.702  26.143  10.478
68844W        W41258  35.018  14.617   2.813
68845W        W41259  43.371  41.011  10.427
68846W        W41260  14.288  38.336   0.390
68847W        W41261   6.796  38.819   3.372
68848W        W41262  19.721  32.009  10.956
68849W        W41263  13.828  10.183  10.929
68850W        W41264   9.682  30.624  14.944
68851W        W41265   9.165  10.332  13.437
68852W        W41266   6.203  13.214  10.107
68853W        W41267  10.638   9.660   1.896
68854W        W41268  14.165  15.728  13.053
68855W        W41269  14.262   3.776  10.628
68856W        W41270  28.025  40.816   1.419
68857W        W41271   2.258  34.545  12.902
68858W        W41272  30.652   3.827   0.318
68859W        W41273  14.205  42.481   0.358
68860W        W41274   9.780  26.567  12.358
68861W        W41275  33.452   3.786   0.802
68862W        W41276  29.056  18.294   2.722
68863W        W41277  39.937   7.872   0.881
68864W        W41278  16.620  27.499  10.642
68865W        W41279  32.099  21.152  14.002
68866W        W41280  42.875  32.627   4.758
68867W        W41281  21.518   8.833   3.789
68868W        W41282  16.081   0.771  12.358
68869W        W41283  29.078  40.052   1.262
68870W        W41284   4.350   6.224   2.674
68871W        W41285  27.690  10.718   3.243
68872W        W41286  28.661  10.351  13.022
68873W        W41287   8.242   9.222   2.718
68874W        W41288   8.365  42.379  10.945
68875W        W41289  31.580  12.679  10.985
68876W        W41290  44.822  23.611  11.931
68877W        W41291   2.232  30.934  14.478
68878W        W41292  35.878   2.284   4.274
68879W        W41293  30.514  16.675   0.875
68880W        W41294  40.856  21.697   0.423
68881W        W41295   5.264  35.877   4.809
68882W        W41296  36.041  36.442  13.806
68883W        W41297  26.184  35.573  10.479
68884W        W41298  37.427   7.754  10.598
68885W        W41299   6.376  19.045  11.536
68886W        W41300   3.455  31.463  12.443
68887W        W41301   6.228  16.811   4.238
68888W        W41302  11.794   3.396   5.172
68889W        W41303  35.908  31.611  14.280
68890W        W41304  15.615  11.758  11.412
68891W        W41305  12.297  40.803   1.842
68892W        W41306  15.740  38.868   3.162
68893W        W41307   5.905  33.950  14.780
68894W        W41308  25.468  36.474   4.631
68895W        W41309  11.204   6.337   2.189
68896W        W41310  26.051  17.253  13.327
68897W        W41311   4.278  35.963   0.260
68898W        W41312  25.579  43.987   0.902
68899W        W41313  13.746   2.289   3.190
68900W        W41314  15.638  13.350  10.595
68901W        W41315  10.346   8.242   1.842
68902W        W41316  15.317  42.430  10.547
68903W        W41317   5.439  41.301  12.485
68904W        W41318  27.035  23.169   4.599
68905W        W41319  14.121  39.490  12.029
68906W        W41320   0.981  13.296   3.267
68907W        W41321  13.611  12.801  14.486
68908W        W41322   7.686   9.665  13.810
68909W        W41323  21.229  28.973   9.953
68910W        W41324  28.093  23.712  11.007
68911W        W41325   8.840  24.660  11.485
68912W        W41326  16.685   4.230  14.439
68913W        W41327   8.846  15.597  10.922
68914W        W41328  12.236   7.856   4.778
68915W        W41329  42.029  17.799   4.828
68916W        W41330  41.909  22.102   2.213
68917W        W41331  23.514  19.656  12.938
68918W        W41332  31.096  38.912   2.826
68919W        W41333  17.632  36.368  14.870
68920W        W41334  36.949   0.316  14.896
68921W        W41335  35.442  35.972   0.372
68922W        W41336  32.997  44.309  12.430
68923W        W41337  13.669  28.998  14.434
68924W        W41338  29.154  34.526   0.332
68925W        W41339  12.815  18.212   3.312
68926W        W41340  10.178  12.790   3.280
68927W        W41341  13.291  27.153   0.380
68928W        W41342   5.287  41.390  11.564
68929W        W41343  24.705   4.356   4.134
68930W        W41344  14.750  42.933  14.502
68931W        W41345  25.470   0.490  12.523
68932W        W41346   8.680  32.139   0.854
68933W        W41347  20.270  33.598  14.019
68934W        W41348  14.785  40.953  12.833
68935W        W41349  10.153  38.459   2.197
68936W        W41350  10.841   1.382   2.718
68937W        W41351  37.499  35.554   2.310
68938W        W41352   4.832  14.226   0.338
68939W        W41353  36.849   5.818   1.297
68940W        W41354   8.199  39.844  12.447
68941W        W41355  43.343  40.891  14.990
68942W        W41356  34.601   1.919   2.668
68943W        W41357  13.817  26.535   4.619
68944W        W41358   0.844  40.845  13.529
68945W        W41359  41.850  31.903   4.139
68946W        W41360  39.437   7.897  10.630
68947W        W41361   1.806  21.566  12.921
68948W        W41362  37.548  29.669  14.420
68949W        W41363  36.922  20.611  12.555
68950W        W41364   9.350  40.852   2.313
68951W        W41365  33.578  29.007   2.719
68952W        W41366  26.105   7.857  12.463
68953W        W41367  28.441  14.252  14.798
68954W        W41368   3.261   9.823   2.335
68955W        W41369   0.398  12.689   4.618
68956W        W41370   1.890   4.232  13.417
68957W        W41371  36.557  22.558  14.859
68958W        W41372  18.055  26.057  12.051
68959W        W41373  42.894  25.660   3.321
68960W        W41374  25.070  22.094   0.830
68961W        W41375  18.135  35.917  13.525
68962W        W41376  36.962  29.069  14.788
68963W        W41377  17.801  40.938  14.408
68964W        W41378  25.198  38.354   3.334
68965W        W41379  33.418  10.263   2.405
68966W        W41380  30.482  19.262  11.984
68967W        W41381  43.421  12.192  12.425
68968W        W41382  10.170  30.576   2.367
68969W        W41383   6.260  40.378  12.005
68970W        W41384  39.420  19.761  10.935
68971W        W41385  43.358  27.476  12.437
68972W        W41386  39.908  29.582   4.289
68973W        W41387  21.150  14.681   4.134
68974W        W41388   7.171   3.437   1.914
68975W        W41389  39.423  36.001  12.487
68976W        W41390  43.310  23.721   4.665
68977W        W41391  42.918  18.070  11.021
68978W        W41392  18.182  35.874   2.894
68979W        W41393   1.349  11.261   1.338
68980W        W41394  14.174  17.763  11.038
68981W        W41395  20.567  20.690   0.928
68982W        W41396  27.474   2.795  13.799
68983W        W41397  23.549  14.177  13.797
68984W        W41398  13.343  39.555   2.193
68985W        W41399  43.331  13.842   2.236
68986W        W41400  28.110  13.274  13.883
68987W        W41401  42.459  44.825  13.393
68988W        W41402  21.561  19.623   2.291
68989W        W41403  17.130  29.019  12.861
68990W        W41404   5.335  21.665  14.799
68991W        W41405  34.373  34.893  12.887
68992W        W41406  29.991   3.908   1.933
68993W        W41407  15.311  19.208  12.416
68994W        W41408  37.399  15.114   3.847
68995W        W41409  22.601  42.448  13.389
68996W        W41410  18.777  22.022   0.314
68997W        W41411   6.864   3.259   1.816
68998W        W41412   9.161  35.435  11.403
68999W        W41413  37.443  39.903  12.382
69000W        W41414  14.688  23.016   1.400
69001W        W41415  26.568  31.507   4.649
69002W        W41416  14.302   1.398  10.641
69003W        W41417   2.829  16.203   4.343
69004W        W41418  30.066  27.685   1.442
69005W        W41419  23.707   1.757   0.936
69006W        W41420  41.941   2.421  14.772
69007W        W41421   9.701  11.848   0.257
69008W        W41422  34.057  34.605   0.796
69009W        W41423  42.973  34.022  12.368
69010W        W41424  44.379  19.233  11.942
69011W        W41425   0.471  34.557  11.958
69012W        W41426  44.888  26.546   1.852
69013W        W41427  39.039  17.296   5.195
69014W        W41428  19.153  15.799  14.392
69015W        W41429  24.073  38.387  12.892
69016W        W41430   1.344   4.746   4.629
69017W        W41431  31.600  30.638   4.115
69018W        W41432  28.600   5.346  10.609
69019W        W41433  11.261  24.227   4.251
69020W        W41434  11.341  15.279   3.709
69021W        W41435  17.789   5.894   3.340
69022W        W41436  11.303  36.041  13.054
69023W        W41437   6.789   0.815   2.765
69024W        W41438  12.271   1.880  12.068
69025W        W41439  38.514  23.070  10.928
69026W        W41440  43.987   2.923   1.272
69027W        W41441   9.796  24.066  10.636
69028W        W41442  29.639  19.564   4.242
69029W        W41443   4.228   4.809   2.206
69030W        W41444  36.965  16.100  11.128
69031W        W41445  42.454  42.485  10.488
69032W        W41446  13.140   1.759   2.674
69033W        W41447   6.782   6.269  12.910
69034W        W41448  18.623  12.703   3.234
69035W        W41449   2.842   5.244  12.898
69036W        W41450  37.851  29.980   2.186
69037W        W41451   7.841   7.326   0.356
69038W        W41452  25.619  17.786  11.880
69039W        W41453  33.596   0.389  11.530
69040W        W41454  22.134  29.077   2.673
69041W        W41455   4.234   8.667   3.280
69042W        W41456   6.723  24.714   2.851
69043W        W41457  37.574  12.666  13.393
69044W        W41458  40.013  33.426  12.971
69045W        W41459   9.164   0.816  13.958
69046W        W41460   3.261  24.052   3.841
69047W        W41461   7.348  21.241   4.311
69048W        W41462   9.666  21.526   2.772
69049W        W41463   9.724  25.991  13.431
69050W        W41464  43.397  20.598   3.837
69051W        W41465  30.495  26.695   4.153
69052W        W41466  16.109  12.682  13.834
69053W        W41467  41.999  19.201  10.907
69054W        W41468   1.466  38.869   3.319
69055W        W41469  18.142  39.947  12.345
69056W        W41470  35.519  38.959  11.495
69057W        W41471  33.473  32.139  12.447
69058W        W41472   0.405  34.876  13.884
69059W        W41473  22.635  14.278  11.599
69060W        W41474  11.757   7.241   3.307
69061W        W41475   9.213  42.508  10.955
69062W        W41476  40.872  19.154  14.278
69063W        W41477   6.895  44.297  14.890
69064W        W41478  40.013  25.701   0.842
69065W        W41479  31.602   5.397   3.730
69066W        W41480  44.477  29.048   1.420
69067W        W41481  23.636  19.559  11.081
69068W        W41482   7.787  22.722   3.845
69069W        W41483   9.335  24.157   0.929
69070W        W41484  22.728  44.435   5.178
69071W        W41485   2.350  44.469  12.996
69072W        W41486   9.714  27.086  11.998
69073W        W41487  25.135   1.463   2.271
69074W        W41488   5.389  17.183   4.662
69075W        W41489  17.139  24.027  14.939
69076W        W41490   8.385   1.317  11.573
69077W        W41491  16.808  26.965   0.335
69078W        W41492   6.764  16.647   1.372
69079W        W41493  14.610  17.710  14.346
69080W        W41494  10.272  35.899  11.381
69081W        W41495  38.425  10.666   0.304
69082W        W41496   2.909  33.013  11.993
69083W        W41497  27.070  18.634   1.895
69084W        W41498  42.980  13.677  13.032
69085W        W41499  23.538  14.781   3.286
69086W        W41500  39.926   7.858   0.459
69087W        W41501  40.313   0.827  11.053
69088W        W41502  12.853  41.983  10.531
69089W        W41503   5.291  20.755  11.906
69090W        W41504   1.245  10.288  12.526
69091W        W41505  18.566  27.446   0.903
69092W        W41506  23.636  25.055   2.753
69093W        W41507  21.727  42.301  13.013
69094W        W41508   3.395  39.835   3.213
69095W        W41509   3.914  41.810  11.108
69096W        W41510  22.603  33.470   0.470
69097W        W41511   9.354   8.743  11.871
69098W        W41512  28.961  18.711   4.729
69099W        W41513  16.691   5.774  13.486
69100W        W41514  30.519  29.611   3.678
69101W        W41515   3.741  44.788   3.658
69102W        W41516  34.006   0.462   1.862
69103W        W41517  40.041  43.412  13.388
69104W        W41518  25.993   4.261   2.211
69105W        W41519  31.535  28.549  11.907
69106W        W41520  13.752  39.436   3.756
69107W        W41521   9.222  39.056   2.309
69108W        W41522  36.084  29.097  11.887
69109W        W41523  12.310  20.042  13.434
69110W        W41524   9.252   9.204  12.363
69111W        W41525  17.226   3.908  13.939
69112W        W41526   6.377  23.550  11.019
69113W        W41527  12.830   2.956  11.932
69114W        W41528  28.640  16.724  12.825
69115W        W41529  28.048  29.966  14.346
69116W        W41530  30.648   9.842   4.792
69117W        W41531  24.227   8.767  11.575
69118W        W41532  24.143  29.918  14.342
69119W        W41533  39.446  30.036  12.963
69120W        W41534  25.051  14.764   2.725
69121W        W41535   6.245  16.121   0.778
69122W        W41536  33.114   1.772  14.788
69123W        W41537   9.789   1.411   1.911
69124W        W41538  34.498  21.538   4.620
69125W        W41539   9.672  14.603   1.899
69126W        W41540  17.175  39.345   3.373
69127W        W41541  27.193   7.740  14.938
69128W        W41542  28.556  20.763  14.367
69129W        W41543  38.962  25.190   1.413
69130W        W41544  16.224  18.588  12.972
69131W        W41545  35.029   6.716   0.946
69132W        W41546  36.541   5.301   1.390
69133W        W41547  28.074  19.712   0.734
69134W        W41548  36.431  33.572  12.838
69135W        W41549  18.101   5.322   3.663
69136W        W41550  12.164  18.076  10.562
69137W        W41551   9.746  17.252  12.414
69138W        W41552  11.364  20.264  13.884
69139W        W41553  43.970  42.854  10.555
69140W        W41554   3.939   0.376  14.855
69141W        W41555  14.805  21.222  12.489
69142W        W41556   3.884  42.412  14.902
69143W        W41557   7.686   4.278  10.960
69144W        W41558   2.414  31.965  10.103
69145W        W41559  19.734  35.590   2.345
69146W        W41560  18.627  16.644  10.562
69147W        W41561  33.522   3.865  13.827
69148W        W41562  11.272  44.837   1.289
69149W        W41563  20.590  24.539  10.908
69150W        W41564  20.163  12.715   0.296
69151W        W41565  13.292   5.410  10.448
69152W        W41566  39.450  11.665   1.435
69153W        W41567  39.035  12.720   4.608
69154W        W41568  27.567  33.518   1.752
69155W        W41569  12.180  27.590   3.268
69156W        W41570  28.086  44.416   3.265
69157W        W41571  19.082   4.755  14.924
69158W        W41572  12.297  12.626   4.838
69159W        W41573  21.184  37.968   0.293
69160W        W41574  42.850  27.037  13.485
69161W        W41575  43.907  32.005  13.031
69162W        W41576  40.492  38.925  14.515
69163W        W41577   2.387  13.734   1.744
69164W        W41578  25.151   2.449   0.401
69165W        W41579  36.964  19.269  13.391
69166W        W41580  32.452  20.140  12.834
69167W        W41581  22.598  15.732  11.435
69168W        W41582   6.817  21.108   0.386
69169W        W41583  24.525  31.980  14.029
69170W        W41584  35.980  41.493  11.893
69171W        W41585   3.451   7.181  13.426
69172W        W41586  35.519  24.158  11.577
69173W        W41587  21.561  28.072  11.123
69174W        W41588  40.490   8.773   3.369
69175W        W41589  37.980   1.967   1.837
69176W        W41590  32.393   0.942   3.321
69177W        W41591  28.015  33.072  13.542
69178W        W41592  22.590   8.808   3.756
69179W        W41593  26.124  32.478   4.642
69180W        W41594  17.135   1.776  14.314
69181W        W41595  13.162  39.336   4.256
69182W        W41596  42.422  15.311   0.879
69183W        W41597  22.533  23.996   2.251
69184W        W41598   8.747  19.706   1.216
69185W        W41599  28.506  33.588   4.658
69186W        W41600  42.927  34.882   3.738
69187W        W41601  21.252  40.869   3.193
69188W        W41602  19.153  36.081   4.709
69189W        W41603   4.780  34.076  10.430
69190W        W41604  38.325  18.605   0.834
69191W        W41605  40.892   2.772  14.415
69192W        W41606   2.292  43.378  12.033
69193W        W41607   0.436  12.220   0.966
69194W        W41608  13.189   8.232   0.845
69195W        W41609   0.362  24.484   1.361
69196W        W41610  38.326  37.839  13.038
69197W        W41611  31.057   4.751  11.460
69198W        W41612   5.921  19.610   1.378
69199W        W41613  17.126  29.448  12.512
69200W        W41614  19.708  25.169  12.933
69201W        W41615   6.325  43.459  13.439
69202W        W41616  43.953  32.545   4.280
69203W        W41617  38.352   3.236  13.897
69204W        W41618  30.956  14.094  14.997
69205W        W41619  26.061  14.204  11.017
69206W        W41620   1.930  28.957  10.893
69207W        W41621  22.056  14.307  11.530
69208W        W41622  21.555   1.400  11.905
69209W        W41623  42.448  40.948   1.871
69210W        W41624  43.381  13.212  13.894
69211W        W41625  33.424  35.509   2.697
69212W        W41626  41.795  29.154   4.682
69213W        W41627   1.388  26.550  12.978
69214W        W41628  14.328  26.574   2.323
69215W        W41629  34.383  12.184  13.980
69216W        W41630  17.259  41.981  13.536
69217W        W41631   5.237  32.537  12.474
69218W        W41632  38.008  19.283   2.360
69219W        W41633   3.798  28.541   5.570
69220W        W41634   6.679   6.345   1.322
69221W        W41635  43.865  11.648   3.382
69222W        W41636   6.307  42.859   4.761
69223W        W41637   1.752  15.227  12.389
69224W        W41638   8.762   8.782  14.397
69225W        W41639  44.787   1.287   3.649
69226W        W41640  36.004  40.938  11.911
69227W        W41641   5.277  40.941  14.790
69228W        W41642   3.228  26.137  11.922
69229W        W41643  13.350  27.940  10.107
69230W        W41644  13.146  29.629   1.317
69231W        W41645  38.990   2.920   4.597
69232W        W41646  31.454  15.747  10.560
69233W        W41647  19.173  10.713  11.913
69234W        W41648   0.967  15.780   4.299
69235W        W41649  34.951  12.822  13.006
69236W        W41650  26.634   3.329  13.435
69237W        W41651  11.798  12.714   1.246
69238W        W41652   6.354   0.493  14.369
69239W        W41653  20.252  11.320   0.878
69240W        W41654  42.498  30.607   2.791
69241W        W41655  28.540  24.661  11.444
69242W        W41656  42.306   3.845  11.948
69243W        W41657  20.138   7.198   4.351
69244W        W41658  11.145  36.438   4.649
69245W        W41659  17.128  27.960  11.568
69246W        W41660  37.400   0.781   2.257
69247W        W41661  34.083   5.717   2.418
69248W        W41662  21.217   7.297   2.332
69249W        W41663  43.010   9.278   4.659
69250W        W41664  21.110  13.251  12.393
69251W        W41665  26.197  24.173   2.877
69252W        W41666  13.846  26.594  12.073
69253W        W41667  16.257   1.360   0.868
69254W        W41668  33.447  27.584   2.409
69255W        W41669  33.092  21.542  13.806
69256W        W41670  30.066  34.896  12.394
69257W        W41671   7.225  20.587  11.026
69258W        W41672  29.574   4.811  10.481
69259W        W41673  21.624  20.584   4.179
69260W        W41674  35.408  43.507   1.409
69261W        W41675  31.412  29.925  11.112
69262W        W41676  22.707   1.752  12.013
69263W        W41677   9.223  36.859  14.028
69264W        W41678   7.788  26.637   4.353
69265W        W41679  29.930  18.114   4.337
69266W        W41680  30.046  22.533  13.904
69267W        W41681  33.010  43.768  12.509
69268W        W41682  43.386  33.879  12.842
69269W        W41683  10.723  17.796   3.182
69270W        W41684  18.059   9.290   1.715
69271W        W41685  20.708  43.296  11.472
69272W        W41686  18.778  11.668   3.287
69273W        W41687  37.966  26.463  13.824
69274W        W41688  13.202  28.023  12.028
69275W        W41689   6.304  10.375   0.331
69276W        W41690  33.092  25.619  10.447
69277W        W41691  24.601  14.227   3.782
69278W        W41692  27.479  35.893  11.391
69279W        W41693   8.186  21.624   2.776
69280W        W41694   3.843  37.443  14.416
69281W        W41695  24.173  27.192   2.408
69282W        W41696   5.765  23.687  13.022
69283W        W41697  26.956  18.772  10.571
69284W        W41698  15.234  40.496  13.988
69285W        W41699  24.225  17.566  10.959
69286W        W41700  24.090  19.089   3.256
69287W        W41701  32.979   6.251   0.747
69288W        W41702  22.633   3.383   3.367
69289W        W41703  24.036   1.470  12.457
69290W        W41704   7.298  41.510  14.808
69291W        W41705  34.021  26.597   2.826
69292W        W41706   6.250  34.000  10.476
69293W        W41707  42.818   4.289   2.378
69294W        W41708  39.921  14.813   0.967
69295W        W41709  21.139  34.453   2.228
69296W        W41710  33.993  10.293  14.313
69297W        W41711  12.827  29.084  12.493
69298W        W41712  20.555  27.668   1.341
69299W        W41713   2.383  31.070  10.997
69300W        W41714  33.559   2.906  12.882
69301W        W41715  20.205  29.647   3.820
69302W        W41716  18.251   1.872  12.467
69303W        W41717  30.980  15.316   3.377
69304W        W41718   2.873  18.232  13.479
69305W        W41719  40.847  28.654   2.712
69306W        W41720   4.730  33.393  14.941
69307W        W41721  37.002   5.385   0.883
69308W        W41722  11.836  14.255   4.637
69309W        W41723  16.651  41.966  12.964
69310W        W41724  22.515  23.052   3.825
69311W        W41725  11.166  44.271  14.314
69312W        W41726  41.843  41.453  11.536
69313W        W41727  32.599  15.168  13.021
69314W        W41728  11.285  35.531   4.153
69315W        W41729  42.993  15.728   0.924
69316W        W41730   1.968  37.922   4.815
69317W        W41731  14.294   8.797  12.002
69318W        W41732  11.639  12.688   5.250
69319W        W41733  33.075  21.260  12.399
69320W        W41734  32.453  41.016   2.339
69321W        W41735  44.367   7.764   4.186
69322W        W41736  27.096  26.659  11.105
69323W        W41737   7.239  39.463  13.832
69324W        W41738  44.884  26.614   4.690
69325W        W41739  14.266  21.067  10.969
69326W        W41740  32.955  34.077  13.407
69327W        W41741  38.518   1.939  14.788
69328W        W41742   9.202  43.426  13.513
69329W        W41743  28.528   0.949   1.718
69330W        W41744  29.442  41.962   1.259
69331W        W41745  19.548  25.179   4.604
69332W        W41746  24.491  37.044   4.612
69333W        W41747  39.893  18.118  10.986
69334W        W41748  25.994  17.124   5.233
69335W        W41749  32.961  29.551  13.872
69336W        W41750  33.023  25.111   0.868
69337W        W41751  23.670  24.642  11.039
69338W        W41752   6.693  35.434  11.884
69339W        W41753   1.758   4.395   2.697
69340W        W41754  37.875  36.400   2.736
69341W        W41755   4.826  25.206   1.817
69342W        W41756  39.021  35.978   4.227
69343W        W41757  30.015  41.353   4.289
69344W        W41758  19.674   8.729   4.152
69345W        W41759  40.446  29.578   2.264
69346W        W41760  31.567  19.717   0.843
69347W        W41761  43.965  10.239   0.275
69348W        W41762  37.340  22.608  10.917
69349W        W41763  24.515  44.382   4.345
69350W        W41764  20.580  39.530  13.053
69351W        W41765   8.394  14.203  13.811
69352W        W41766  19.566  15.692   2.362
69353W        W41767  27.079  40.329  11.548
69354W        W41768   9.204   5.286  11.558
69355W        W41769   4.243  24.979  14.825
69356W        W41770   7.764  19.213  14.360
69357W        W41771   0.784  11.361   9.932
69358W        W41772   1.919  43.427  14.355
69359W        W41773   1.479  19.691  12.355
69360W        W41774  20.102  29.625   4.779
69361W        W41775  16.256  30.420   4.703
69362W        W41776  32.930  28.484  12.381
69363W        W41777  17.076   5.808  12.850
69364W        W41778  23.087  28.975   4.155
69365W        W41779  42.335  17.063  12.956
69366W        W41780  28.619  18.648  13.830
69367W        W41781  14.303  43.943  11.884
69368W        W41782  41.026  38.549  13.503
69369W        W41783  12.698  34.071  13.966
69370W        W41784  41.001  19.053   0.898
69371W        W41785  26.990  22.650   0.836
69372W        W41786  27.137  23.118  14.015
69373W        W41787  20.600  35.467   4.309
69374W        W41788  34.550  21.132  10.642
69375W        W41789  10.300  43.282   3.652
69376W        W41790  40.861   3.362   4.185
69377W        W41791   1.802  27.609   3.252
69378W        W41792   9.673  11.736  11.429
69379W        W41793   9.841  38.387   4.322
69380W        W41794  19.668  40.485   3.780
69381W        W41795   8.271  37.382  10.520
69382W        W41796  23.052   1.283  13.865
69383W        W41797  43.435   3.403   4.291
69384W        W41798  20.694   8.872   0.845
69385W        W41799  44.849  44.757  12.573
69386W        W41800  25.998  39.968   2.878
69387W        W41801   5.281  17.109  10.497
69388W        W41802  36.511  40.394   4.326
69389W        W41803  15.203  16.733  12.346
69390W        W41804  25.979  41.335  14.434
69391W        W41805  23.113   7.861  10.567
69392W        W41806   3.347  33.991   2.365
69393W        W41807   0.261   7.371   1.780
69394W        W41808  31.072  38.564   2.740
69395W        W41809  25.128   8.267   4.276
69396W        W41810  37.464   5.910   1.698
69397W        W41811   2.414  29.924   0.879
69398W        W41812  16.806  26.084  12.934
69399W        W41813  42.988  15.326   0.814
69400W        W41814  23.692  36.966   1.338
69401W        W41815  31.471  29.973   2.299
69402W        W41816  32.115  15.254  11.903
69403W        W41817  27.967  35.454   2.351
69404W        W41818  33.458  19.213   2.256
69405W        W41819  30.496   5.301  13.972
69406W        W41820  41.009  35.015   3.858
69407W        W41821   7.717  14.213  13.922
69408W        W41822  26.525  42.287   3.189
69409W        W41823   4.915  20.180   5.091
69410W        W41824  34.016   4.317  11.583
69411W        W41825  17.584  24.629  12.000
69412W        W41826  28.063   4.704  14.991
69413W        W41827   9.165  15.778   0.412
69414W        W41828  43.388  31.082  12.972
69415W        W41829  38.519  35.460  13.010
69416W        W41830  26.065   9.210   0.843
69417W        W41831   0.494  26.618  13.837
69418W        W41832   9.292  40.005   0.785
69419W        W41833  44.377  16.182   0.411
69420W        W41834  20.742   1.292   1.307
69421W        W41835   8.253  31.407   1.359
69422W        W41836  19.773   4.293   3.847
69423W        W41837  39.367   0.982  12.369
69424W        W41838  14.595  25.493   4.233
69425W        W41839  28.072   6.873   1.418
69426W        W41840  28.634  43.481  14.435
69427W        W41841  16.214  42.804  12.372
69428W        W41842  10.723  39.951  13.873
69429W        W41843  14.217  19.673  12.834
69430W        W41844  21.624  21.102  12.877
69431W        W41845  11.833  33.923  13.822
69432W        W41846  12.626   1.280   0.876
69433W        W41847  30.985  26.188   0.359
69434W        W41848   1.831  30.554  11.937
69435W        W41849  19.701   1.311  14.030
69436W        W41850   4.934  24.136   5.319
69437W        W41851  28.097  38.361  11.021
69438W        W41852  34.439  37.362  12.474
69439W        W41853  22.058  40.538  10.476
69440W        W41854   7.894  19.214   2.755
69441W        W41855  32.115  25.153   2.667
69442W        W41856  38.932  37.356   0.800
69443W        W41857  32.592  28.046  10.558
69444W        W41858  21.054  30.624  14.358
69445W        W41859   7.394  38.826   4.229
69446W        W41860  15.739  20.560  14.881
69447W        W41861  21.559  37.086  11.422
69448W        W41862  39.045  18.677  12.020
69449W        W41863   3.955  41.486   4.804
69450W        W41864  19.174  34.463  11.023
69451W        W41865  16.164   3.355   0.880
69452W        W41866  18.225   4.843   2.402
69453W        W41867  24.710  31.023   4.163
69454W        W41868  28.511  40.327   2.202
69455W        W41869   7.252  41.920  14.934
69456W        W41870  23.626   8.870   2.390
69457W        W41871  42.819  25.143  12.895
69458W        W41872  40.020  19.233  14.327
69459W        W41873   9.851   9.255  13.421
69460W        W41874  39.552  18.561   3.802
69461W        W41875  23.239  38.860  14.371
69462W        W41876  11.732  23.131   1.416
69463W        W41877  11.255  37.013  11.415
69464W        W41878  31.438  10.734   1.444
69465W        W41879  12.213   9.730   3.233
69466W        W41880  36.368   0.459   4.261
69467W        W41881  13.607  26.137  14.829
69468W        W41882  21.107  24.496   3.799
69469W        W41883  30.163   0.857   4.323
69470W        W41884  34.562   6.765  12.832
69471W        W41885  29.482  24.112   4.760
69472W        W41886  11.698  25.486   4.672
69473W        W41887   3.781  13.212  10.510
69474W        W41888  44.919  21.167  12.530
69475W        W41889  26.192   2.755  13.052
69476W        W41890  20.594  16.785  11.911
69477W        W41891   7.368  11.687   3.694
69478W        W41892   7.259  22.501   0.272
69479W        W41893  20.251  23.509  10.608
69480W        W41894  28.184  27.973   1.281
69481W        W41895  42.859  10.181  11.479
69482W        W41896  29.153  35.060  10.918
69483W        W41897  23.148  34.421   4.210
69484W        W41898  13.703  12.286   3.333
69485W        W41899  31.545  24.976  13.338
69486W        W41900   8.327  39.964   1.932
69487W        W41901   2.965  44.947   0.303
69488W        W41902  35.981   5.279  13.869
69489W        W41903  31.634  35.012   0.796
69490W        W41904  14.834  11.779   2.249
69491W        W41905   1.358  24.032  14.773
69492W        W41906  25.592  42.338  10.493
69493W        W41907  38.855  32.459  13.450
69494W        W41908   0.302  21.236  12.516
69495W        W41909  25.059  19.095  11.865
69496W        W41910  15.271  20.180  12.026
69497W        W41911  10.280   4.450   1.860
69498W        W41912  35.909  43.395   4.671
69499W        W41913   1.770   0.337  14.900
69500W        W41914  16.101  27.468  13.315
69501W        W41915   2.952   6.762   3.208
69502W        W41916  23.130  26.472   3.691
69503W        W41917  19.147  19.142   4.140
69504W        W41918  25.482  32.405  12.449
69505W        W41919  44.773  29.454  10.972
69506W        W41920  38.983   1.413  12.419
69507W        W41921  37.032  24.599  11.976
69508W        W41922  33.916   9.377  11.944
69509W        W41923  37.404  36.397  11.408
69510W        W41924  25.561   0.855   5.118
69511W        W41925   3.447   9.340   0.784
69512W        W41926   3.926   7.882  11.522
69513W        W41927  26.062   9.380  12.354
69514W        W41928  25.073  40.921   3.319
69515W        W41929  13.645   7.680   2.344
69516W        W41930  41.010   7.877   0.948
69517W        W41931   2.384  30.071   0.318
69518W        W41932  36.436   7.200  11.443
69519W        W41933  16.301  35.054   3.684
69520W        W41934  26.043  22.642  14.463
69521W        W41935  39.021  32.574   0.780
69522W        W41936  13.222  27.108  14.420
69523W        W41937  42.017  17.063   3.305
69524W        W41938  28.656   9.330   0.296
69525W        W41939  39.004  19.052  11.016
69526W        W41940   6.806  22.166  10.445
69527W        W41941  22.626  41.525  13.011
69528W        W41942  32.095  27.030   0.328
69529W        W41943  42.302  13.198  14.824
69530W        W41944  34.112  12.744  13.500
69531W        W41945  44.833  20.699   2.793
69532W        W41946   3.836  42.294  12.342
69533W        W41947  41.955   8.278   1.314
69534W        W41948  19.669  40.809   0.419
69535W        W41949  42.914   5.826   1.419
69536W        W41950  37.861  12.647   3.266
69537W        W41951  43.767   2.919  14.355
69538W        W41952  16.750   6.693   3.210
69539W        W41953  15.111  16.808   1.339
69540W        W41954   9.339   1.781  11.517
69541W        W41955  34.943   7.756  12.573
69542W        W41956  25.610   1.871  12.453
69543W        W41957  34.870  44.459   2.385
69544W        W41958  14.244  20.167   3.774
69545W        W41959   8.860  38.870  13.039
69546W        W41960  25.624  14.316   4.822
69547W        W41961  17.109  29.044  12.432
69548W        W41962  37.980  12.205   2.852
69549W        W41963  13.212   1.367  11.966
69550W        W41964  41.362  28.165   1.441
69551W        W41965  24.094  26.458  11.870
69552W        W41966   6.855  41.356   4.299
69553W        W41967  38.420  26.488   0.434
69554W        W41968  26.482  20.632  13.975
69555W        W41969  38.870   0.341   1.425
69556W        W41970   2.445   9.188  11.478
69557W        W41971  29.635   2.317   0.797
69558W        W41972  43.825  13.198   4.156
69559W        W41973  34.089   1.279  11.574
69560W        W41974  27.986  28.022   1.875
69561W        W41975  26.080  32.462   2.724
69562W        W41976  12.625  43.980   0.800
69563W        W41977  24.185  43.472   1.300
69564W        W41978   0.795  35.954   5.205
69565W        W41979   9.295  43.924   0.919
69566W        W41980  30.625  18.732   0.861
69567W        W41981  15.746  41.965   5.166
69568W        W41982  38.915  13.239   3.665
69569W        W41983  40.348   8.176   2.233
69570W        W41984  35.927   0.757  14.898
69571W        W41985  14.128  33.381  11.419
69572W        W41986  23.672  42.334   4.283
69573W        W41987  24.207  18.776   5.156
69574W        W41988  28.099  37.912  12.989
69575W        W41989  28.615  41.456  11.030
69576W        W41990   3.303  35.082  12.056
69577W        W41991   0.786   7.912   2.367
69578W        W41992   1.434   3.414  13.021
69579W        W41993  32.109  34.971   3.815
69580W        W41994   0.773  34.524  13.869
69581W        W41995   5.374  21.143   2.208
69582W        W41996   0.379   6.396  13.548
69583W        W41997  12.628  44.467  10.483
69584W        W41998  23.989   3.334   1.392
69585W        W41999  16.126   0.424  10.405
69586W        W42000  10.377  41.508  11.568
69587W        W42001   5.704  33.069   2.204
69588W        W42002  11.188  31.599   3.779
69589W        W42003  16.141  43.473  10.561
69590W        W42004  29.162  27.055   1.917
69591W        W42005   0.485  41.298   4.610
69592W        W42006   1.288   7.750   4.611
69593W        W42007  12.679  37.879   1.839
69594W        W42008   8.867   9.381  10.899
69595W        W42009  26.575  38.536  13.022
69596W        W42010  42.021  31.582  10.594
69597W        W42011  12.837   6.759   1.350
69598W        W42012  25.185   3.275   2.840
69599W        W42013  21.735  23.138   4.249
69600W        W42014  41.509   5.301   3.814
69601W        W42015  10.833   1.803  14.295
69602W        W42016   8.187   5.193   0.861
69603W        W42017  10.702  24.207   2.771
69604W        W42018  12.697   1.353  12.829
69605W        W42019  11.342  35.480  10.562
69606W        W42020  40.841  28.955   0.427
69607W        W42021  36.925  43.487   2.668
69608W        W42022  15.803   3.266   3.855
69609W        W42023  15.767  25.561   3.245
69610W        W42024  42.854   6.184   3.173
69611W        W42025  42.904  10.148   3.703
69612W        W42026  32.898   0.953  11.068
69613W        W42027  13.804  36.544   0.278
69614W        W42028  38.510  33.055  11.524
69615W        W42029  27.624  33.577   0.812
69616W        W42030  44.758   8.265   3.664
69617W        W42031  15.616   3.415   0.855
69618W        W42032  37.922  39.442  11.469
69619W        W42033  39.988  37.940  10.615
69620W        W42034  12.178  32.894   0.389
69621W        W42035  23.140  16.303  10.478
69622W        W42036  28.618   9.672   4.611
69623W        W42037  30.941  20.170  14.823
69624W        W42038  32.918   8.348  13.886
69625W        W42039  25.015  14.611   2.414
69626W        W42040   3.243  32.995   3.753
69627W        W42041  43.772  22.719   3.641
69628W        W42042  40.383  24.515  14.932
69629W        W42043  35.381  30.091  12.956
69630W        W42044  31.000  33.433  10.098
69631W        W42045   1.449  20.679  12.418
69632W        W42046  38.876  23.237  13.035
69633W        W42047  29.962   7.283   0.330
69634W        W42048  23.086  27.003  14.978
69635W        W42049   7.725  35.003  10.580
69636W        W42050  27.087   2.833  11.962
69637W        W42051   8.237  24.061   3.361
69638W        W42052  26.591  37.517   0.320
69639W        W42053  23.492  15.691   3.729
69640W        W42054  13.252  29.589  10.505
69641W        W42055  43.871  13.270   4.794
69642W        W42056   4.303  33.124   1.261
69643W        W42057  17.098  22.239   2.815
69644W        W42058  14.618  17.167   2.889
69645W        W42059   2.389  17.130  10.060
69646W        W42060  38.835  27.189  10.902
69647W        W42061  30.110   5.374  10.474
69648W        W42062  28.186  16.111  11.896
69649W        W42063  26.204   1.840   2.418
69650W        W42064  16.567  25.485  12.408
69651W        W42065  11.289  29.519   3.764
69652W        W42066  33.607  38.965  12.501
69653W        W42067  41.891  43.332   4.322
69654W        W42068  12.219  35.411  13.973
69655W        W42069  19.613   8.365  14.508
69656W        W42070  17.711   5.816  11.604
69657W        W42071  29.602  12.245  14.423
69658W        W42072   4.701  25.110  11.562
69659W        W42073  38.061   2.796  14.008
69660W        W42074  31.404  24.198   4.284
69661W        W42075  16.153   7.768   3.854
69662W        W42076  28.042   3.746   2.243
69663W        W42077   8.736  44.757  10.563
69664W        W42078  42.512  14.129  11.539
69665W        W42079  35.372  24.130  10.046
69666W        W42080  41.344  43.988  10.589
69667W        W42081  40.384  20.121  11.051
69668W        W42082  10.639  10.382  14.840
69669W        W42083  23.638   1.753  11.113
69670W        W42084  29.143  10.370  11.000
69671W        W42085  43.473  19.757   3.171
69672W        W42086   8.179  13.178   4.212
69673W        W42087  13.674  37.039   0.469
69674W        W42088   4.444  38.820  11.899
69675W        W42089  27.112  42.991  10.950
69676W        W42090   4.837  38.876   4.618
69677W        W42091   9.759  15.282   0.293
69678W        W42092  32.437   5.334  12.855
69679W        W42093  18.051   4.799   1.846
69680W        W42094  17.587  17.298   0.373
69681W        W42095  44.820  44.961   2.855
69682W        W42096  41.043  24.631   2.416
69683W        W42097  44.810   0.397  13.375
69684W        W42098  43.962  12.679   1.413
69685W        W42099  27.996  22.579   1.318
69686W        W42100   2.328  13.717  10.536
69687W        W42101   3.287  43.884   3.644
69688W        W42102  24.156  15.199  11.511
69689W        W42103  38.553  27.008  14.964
69690W        W42104  31.896  29.448  14.346
69691W        W42105   0.337  14.142   0.244
69692W        W42106  24.647  13.303   0.804
69693W        W42107   6.342  14.620  12.053
69694W        W42108  40.008  26.456   2.311
69695W        W42109  39.011  27.141  12.439
69696W        W42110  35.406  16.189   1.372
69697W        W42111   5.853   6.707  12.523
69698W        W42112  27.600   7.258   1.821
69699W        W42113  15.679   5.235   4.354
69700W        W42114   9.266   6.815  12.873
69701W        W42115  18.633   4.760  14.361
69702W        W42116   6.254  10.361   4.157
69703W        W42117  11.729  39.866   1.879
69704W        W42118  17.131  42.315  13.361
69705W        W42119  43.918  26.669   4.261
69706W        W42120   9.390  28.584   3.689
69707W        W42121  25.975  11.718  11.112
69708W        W42122  10.707  37.844  12.878
69709W        W42123  16.769  19.662   0.879
69710W        W42124  35.886  20.701   2.206
69711W        W42125  18.659   1.447  11.993
69712W        W42126   2.895  19.540  14.349
69713W        W42127  20.098  19.595  10.135
69714W        W42128  25.599  42.327   0.729
69715W        W42129  31.427  17.642   1.412
69716W        W42130  11.268  37.438  10.110
69717W        W42131   3.323  21.239   2.753
69718W        W42132  26.196  43.891   3.688
69719W        W42133  27.984  32.952  13.882
69720W        W42134   3.897   4.759  14.484
69721W        W42135  33.082  26.066   0.748
69722W        W42136  31.905  29.547  12.474
69723W        W42137  28.964  42.786   1.900
69724W        W42138  43.916  28.989  11.528
69725W        W42139  44.814   2.443  14.301
69726W        W42140  26.115  44.917  11.117
69727W        W42141  21.599  26.549   4.659
69728W        W42142  41.423   5.712  13.954
69729W        W42143  31.935  24.721  11.029
69730W        W42144   8.357   5.365   2.664
69731W        W42145  35.383  35.090  13.815
69732W        W42146   2.227  19.278  10.939
69733W        W42147  32.035   8.251   0.460
69734W        W42148  21.104  16.120   2.260
69735W        W42149  42.826  16.074  12.915
69736W        W42150  36.420  23.730   0.782
69737W        W42151  24.129  41.386  12.340
69738W        W42152  14.613   8.204  10.124
69739W        W42153  32.124  44.764  11.498
69740W        W42154   2.825  39.912  12.944
69741W        W42155  42.488  31.432  14.786
69742W        W42156  38.993  26.153  14.314
69743W        W42157  43.327  21.220   1.354
69744W        W42158  35.571  17.272  10.969
69745W        W42159  28.650  27.557  13.361
69746W        W42160  44.422   8.694  10.021
69747W        W42161  34.489  22.185  13.371
69748W        W42162  20.568  29.661  12.418
69749W        W42163   2.938  35.384  13.313
69750W        W42164  27.448  33.595   3.672
69751W        W42165  28.465   2.810  12.428
69752W        W42166  20.552   1.752  11.458
69753W        W42167  18.787  43.896  11.122
69754W        W42168  32.440  23.111   4.727
69755W        W42169  13.663  28.643   2.673
69756W        W42170  29.149   8.337  14.319
69757W        W42171   3.849   0.423  13.810
69758W        W42172  23.235  26.182   2.690
69759W        W42173  11.788  21.719   2.707
69760W        W42174  38.885  25.507  11.384
69761W        W42175   8.894  25.554   1.906
69762W        W42176   2.937  34.463   3.804
69763W        W42177  20.758  30.649   1.287
69764W        W42178  23.713  32.481  12.903
69765W        W42179   4.221  40.458   0.771
69766W        W42180  16.769  36.547   1.331
69767W        W42181  35.073  30.557   3.720
69768W        W42182  15.623  17.596   1.706
69769W        W42183   5.808  12.708  11.521
69770W        W42184  28.937   0.289   1.256
69771W        W42185  25.171  42.883   3.747
69772W        W42186  23.174  20.108   3.820
69773W        W42187  39.972  30.550  11.876
69774W        W42188  13.331  25.163  10.475
69775W        W42189  22.048  15.718  14.492
69776W        W42190  25.125  38.037  14.973
69777W        W42191  19.703  42.466  14.846
69778W        W42192  16.742  13.347   3.673
69779W        W42193   7.836   4.939   3.820
69780W        W42194   1.788  38.512  13.016
69781W        W42195  13.755  20.193  10.134
69782W        W42196   4.923  11.843  14.918
69783W        W42197  33.889  17.597   4.196
69784W        W42198  11.830  43.318  11.062
69785W        W42199  43.962  42.345   1.820
69786W        W42200  16.797  16.191   1.450
69787W        W42201  14.707  13.123   0.472
69788W        W42202  10.878   7.870   1.313
69789W        W42203   3.933  36.982  10.550
69790W        W42204   3.372   5.341   4.313
69791W        W42205  37.077  32.431   2.756
69792W        W42206   9.395  29.535  14.760
69793W        W42207  43.356  34.992   4.793
69794W        W42208  23.009  25.492   4.146
69795W        W42209  18.611  39.868   4.687
69796W        W42210  26.115  18.079  14.968
69797W        W42211  26.549  43.840  10.161
69798W        W42212  30.004  35.008   3.771
69799W        W42213  14.665  18.271  10.431
69800W        W42214  14.792  26.142  10.999
69801W        W42215  22.518  17.672   3.755
69802W        W42216  14.307  26.611  12.361
69803W        W42217   5.706  18.288   3.846
69804W        W42218   4.777  28.003   5.795
69805W        W42219  28.938  24.641  10.425
69806W        W42220  33.034  15.281   1.233
69807W        W42221   0.833  28.114   1.411
69808W        W42222  41.463  16.240   4.672
69809W        W42223   7.352  22.566   3.227
69810W        W42224  38.456   9.393  11.481
69811W        W42225   6.339  34.502   3.332
69812W        W42226  28.070  10.694  10.515
69813W        W42227  11.753  21.635  14.899
69814W        W42228  35.959  36.955  12.491
69815W        W42229   4.852  15.223   3.200
69816W        W42230  28.490   8.681  12.095
69817W        W42231  43.012  36.024   0.907
69818W        W42232  11.274   3.319   4.208
69819W        W42233  23.699   6.338   3.353
69820W        W42234  29.547  25.194   4.154
69821W        W42235   0.927   4.239  12.526
69822W        W42236   9.843  42.014  11.128
69823W        W42237  22.615  17.270  11.125
69824W        W42238  42.834   2.439  12.997
69825W        W42239  42.835  40.818   1.714
69826W        W42240  30.413  29.172  12.836
69827W        W42241  12.150   7.358   0.425
69828W        W42242  28.938  35.413   0.271
69829W        W42243  15.597   8.371   1.704
69830W        W42244  24.642  12.664  14.808
69831W        W42245  42.443  28.541  13.852
69832W        W42246  42.825  29.926   2.248
69833W        W42247   3.938  42.786   4.675
69834W        W42248  44.314   8.879  11.039
69835W        W42249   5.243   5.378   4.310
69836W        W42250   1.883   8.763   0.352
69837W        W42251   5.830   1.847  10.407
69838W        W42252  17.662  23.525   1.443
69839W        W42253  10.774  15.268   4.790
69840W        W42254  39.041  34.389   4.786
69841W        W42255  26.030  30.138   3.337
69842W        W42256  28.654  22.148   0.376
69843W        W42257  24.127  43.449   3.633
69844W        W42258  35.941  18.654  12.852
69845W        W42259  34.119  43.411   2.873
69846W        W42260  28.940  25.034  11.469
69847W        W42261  28.092  42.458   1.384
69848W        W42262  23.555  42.391  11.857
69849W        W42263  38.839  39.824  14.402
69850W        W42264   5.225   9.708  12.429
69851W        W42265  17.588  22.094  12.021
69852W        W42266  16.598  31.471   3.659
69853W        W42267  44.294  11.791  12.859
69854W        W42268  35.560  44.979   4.326
69855W        W42269  39.553  23.037   1.274
69856W        W42270  18.232  36.432   3.667
69857W        W42271  41.903  33.964   2.333
69858W        W42272  19.128  19.539  10.418
69859W        W42273  33.884   5.896   1.786
69860W        W42274  30.974  43.461  11.081
69861W        W42275   4.927  44.305   0.400
69862W        W42276  28.100  23.192  12.384
69863W        W42277  34.916  43.949   1.263
69864W        W42278  33.557  33.108   3.239
69865W        W42279  25.669   7.771   0.276
69866W        W42280  30.918  17.585   4.266
69867W        W42281  32.991  19.071   1.829
69868W        W42282   3.407  32.107  13.437
69869W        W42283  20.221  35.923   4.702
69870W        W42284  26.472  33.454  12.380
69871W        W42285  12.818   6.834   1.745
69872W        W42286  11.162   5.874   4.185
69873W        W42287  38.945  31.139   1.796
69874W        W42288  12.753  39.548   0.810
69875W        W42289   1.386  27.988   3.808
69876W        W42290  11.343   1.359   3.659
69877W        W42291   5.724  18.183   4.114
69878W        W42292  24.973  24.207   3.165
69879W        W42293  39.957  18.064   3.224
69880W        W42294  22.154   1.321  14.305
69881W        W42295  34.424  33.103   1.788
69882W        W42296  19.685  10.379   2.775
69883W        W42297   3.303  14.823   5.226
69884W        W42298  32.598  17.220   3.683
69885W        W42299   7.761  20.233  11.588
69886W        W42300  35.856   4.321   2.383
69887W        W42301  28.170  22.995  13.890
69888W        W42302  31.127  18.064   4.740
69889W        W42303   2.938   7.803   2.711
69890W        W42304  32.890  30.061  11.422
69891W        W42305   3.430  19.715  11.451
69892W        W42306  13.670  41.012   4.230
69893W        W42307  34.984  23.688  12.539
69894W        W42308  12.260   1.274   3.847
69895W        W42309  26.074   5.888  11.915
69896W        W42310   8.190  34.929   3.642
69897W        W42311   9.320  38.564  12.520
69898W        W42312  14.323  36.589   1.445
69899W        W42313   4.722  38.990   2.181
69900W        W42314  19.724  35.584   0.417
69901W        W42315  20.761  26.040  12.344
69902W        W42316  39.375  41.012   0.405
69903W        W42317   1.789  40.826   0.834
69904W        W42318  25.144   0.437   0.374
69905W        W42319  13.617   8.852  13.911
69906W        W42320   4.233  13.758   0.461
69907W        W42321  10.194  16.158   5.262
69908W        W42322  31.483  37.976  12.020
69909W        W42323  17.565   7.338  13.976
69910W        W42324  16.166  38.923   0.874
69911W        W42325   0.281  36.001  13.464
69912W        W42326   2.423   5.922  13.308
69913W        W42327  12.333  41.458   3.259
69914W        W42328  29.490  33.506   3.782
69915W        W42329  25.583  20.548   2.402
69916W        W42330  40.823  13.190  13.422
69917W        W42331  23.649  23.129   2.294
69918W        W42332  11.328  30.154   1.841
69919W        W42333   4.418  22.713   2.794
69920W        W42334  41.412  17.118  11.403
69921W        W42335  29.630   2.816  14.356
69922W        W42336  25.563  18.590  11.384
69923W        W42337  36.856  17.776   0.368
69924W        W42338  12.704  13.616  14.007
69925W        W42339  24.668  27.474  11.904
69926W        W42340  42.447   1.852  14.442
69927W        W42341   9.797  32.441  11.502
69928W        W42342   0.804  34.484   3.316
69929W        W42343  17.153  10.300  14.326
69930W        W42344   8.676  31.529  10.916
69931W        W42345  27.603  35.935  10.902
69932W        W42346  21.738  27.982   9.936
69933W        W42347  35.473  22.180  14.817
69934W        W42348  21.596  31.931   0.923
69935W        W42349  43.972  25.970   2.292
69936W        W42350  24.048  33.884  11.011
69937W        W42351   0.952  38.346  12.084
69938W        W42352   8.225  16.156  13.430
69939W        W42353  10.265  15.208  12.443
69940W        W42354  21.194  32.963  12.827
69941W        W42355  29.007  15.124  13.990
69942W        W42356  11.748   2.745  12.353
69943W        W42357  13.749  24.098  14.839
69944W        W42358  14.695  21.045   0.302
69945W        W42359  19.192  26.530   4.674
69946W        W42360  44.873  16.609  10.635
69947W        W42361  29.608  40.406   3.317
69948W        W42362  44.296  42.944  10.998
69949W        W42363  27.452  37.463   2.258
69950W        W42364   1.967  21.150   3.149
69951W        W42365  42.839   1.791   4.782
69952W        W42366  43.785  36.977   3.232
69953W        W42367  16.727  33.511   4.335
69954W        W42368  36.924   5.377  13.472
69955W        W42369  16.694  36.026   2.334
69956W        W42370  12.293  14.163  12.511
69957W        W42371  14.109  24.152  11.085
69958W        W42372  19.537  40.409   0.426
69959W        W42373   8.725  36.437  11.935
69960W        W42374  31.105  23.237  10.414
69961W        W42375  37.929  28.554   0.831
69962W        W42376  26.162   0.969   0.930
69963W        W42377  42.346  36.426  12.022
69964W        W42378  19.109  18.056   0.885
69965W        W42379  41.370  19.775  12.995
69966W        W42380   7.322   7.328  12.381
69967W        W42381  14.818  24.010  12.014
69968W        W42382  18.231   8.689  11.903
69969W        W42383  11.174  24.480   4.198
69970W        W42384  41.449  30.049   3.219
69971W        W42385  14.746  41.993   4.638
69972W        W42386   9.307  18.550   1.384
69973W        W42387  32.579  12.180  11.931
69974W        W42388  15.581  44.503  14.823
69975W        W42389  13.769  35.477  12.923
69976W        W42390  36.535   0.837  12.477
69977W        W42391  39.878  32.583   4.241
69978W        W42392  14.278   1.895   1.722
69979W        W42393  26.201   3.448   5.265
69980W        W42394   5.205  42.366   0.280
69981W        W42395   2.855  18.668   0.815
69982W        W42396  25.493  35.440   1.713
69983W        W42397  25.510   8.330  11.494
69984W        W42398  39.341  35.862  13.974
69985W        W42399  26.533   5.837  10.634
69986W        W42400  10.290  42.015  11.952
69987W        W42401   6.809  43.446  13.942
69988W        W42402  18.591  31.428   4.784
69989W        W42403  41.522  39.526  11.413
69990W        W42404  22.163  19.093  12.843
69991W        W42405  35.890  10.777   4.672
69992W        W42406  38.044  15.689  13.469
69993W        W42407  32.424   8.237  12.492
69994W        W42408   6.856  22.562  13.488
69995W        W42409  38.403   4.371  11.971
69996W        W42410  19.068  42.304  12.008
69997W        W42411  30.559  34.898   2.298
69998W        W42412  11.668  28.667  14.966
69999W        W42413   0.271  24.564  10.407
70000W        W42414  31.931  23.085   1.394
70001W        W42415  11.187   5.220   2.898
70002W        W42416  30.152  12.234   3.758
70003W        W42417  10.173  41.803  14.908
70004W        W42418  38.828  13.697   1.450
70005W        W42419   2.954  32.048  10.616
70006W        W42420  12.764  26.687  14.764
70007W        W42421  16.597   0.443  13.972
70008W        W42422  15.647  18.281  14.984
70009W        W42423  29.115  17.673  11.100
70010W        W42424  44.842  36.446   4.218
70011W        W42425  41.798  44.447   3.753
70012W        W42426  43.968  10.204  14.276
70013W        W42427   8.765  30.933   4.314
70014W        W42428  15.673   6.241   2.367
70015W        W42429   2.736   4.789  12.347
70016W        W42430   2.864   5.903  11.894
70017W        W42431  33.922  35.462  10.920
70018W        W42432  34.932  43.768  11.092
70019W        W42433  42.510  27.478  13.063
70020W        W42434  15.321  10.874  12.030
70021W        W42435  24.638  16.206   1.814
70022W        W42436  24.612  29.120   2.817
70023W        W42437  11.696  18.603  14.796
70024W        W42438  17.675  41.425  11.969
70025W        W42439   1.265  15.761   2.885
70026W        W42440  41.330  28.584   4.705
70027W        W42441  26.676  21.064  13.950
70028W        W42442  12.327  13.750  12.941
70029W        W42443  23.730  22.601  14.857
70030W        W42444  28.152  20.602  14.889
70031W        W42445  19.040   7.802  12.389
70032W        W42446  35.595  23.008   1.326
70033W        W42447  33.526   0.884  14.919
70034W        W42448  40.882   0.939   2.837
70035W        W42449  42.996   7.750  14.429
70036W        W42450  41.872  25.149   4.764
70037W        W42451  25.491  13.717  12.369
70038W        W42452  11.804  24.004  12.522
70039W        W42453  17.201  18.123  13.956
70040W        W42454  17.749  16.108  11.093
70041W        W42455  32.933   8.208   3.194
70042W        W42456  33.478  17.648  14.832
70043W        W42457  21.740  38.904   2.774
70044W        W42458  41.965  29.548  10.479
70045W        W42459  30.971  30.984  13.965
70046W        W42460  10.812  44.263  13.035
70047W        W42461  20.150  44.486   1.405
70048W        W42462   5.821  21.514  13.353
70049W        W42463   6.854  44.336  12.452
70050W        W42464  35.064  24.109   3.690
70051W        W42465  41.896  22.211   1.316
70052W        W42466  40.358  30.150   1.736
70053W        W42467  22.205   3.417  10.615
70054W        W42468  44.818  24.539   0.463
70055W        W42469  11.258   8.239   4.629
70056W        W42470  16.244   9.690  13.054
70057W        W42471   1.429  22.598  12.339
70058W        W42472   9.185  20.235  11.102
70059W        W42473  12.213  17.147   1.392
70060W        W42474   8.819  41.385  13.327
70061W        W42475  13.144  10.208   0.837
70062W        W42476  19.707  11.270  14.983
70063W        W42477  28.487  16.751   0.339
70064W        W42478  17.574  26.506  13.476
70065W        W42479  22.540  35.575  14.818
70066W        W42480  34.531  42.443  13.875
70067W        W42481  32.483  11.652  10.145
70068W        W42482   2.948  38.001   2.804
70069W        W42483  31.621   8.721  11.523
70070W        W42484  18.105  34.593  13.453
70071W        W42485  44.453  25.569  13.544
70072W        W42486  10.669  40.382   3.335
70073W        W42487  37.894   1.405  11.444
70074W        W42488  27.650   2.742   0.824
70075W        W42489  11.658  40.833   2.300
70076W        W42490  25.058  30.476  11.457
70077W        W42491  22.252   5.687  13.943
70078W        W42492  12.199  35.504  14.965
70079W        W42493  44.331   3.737   2.258
70080W        W42494   7.223  11.371   0.860
70081W        W42495  39.471  30.162   4.639
70082W        W42496   1.387  42.905   0.468
70083W        W42497   7.752  15.212   1.447
70084W        W42498  32.588  36.863  12.505
70085W        W42499  15.137  42.825   0.827
70086W        W42500  26.118  13.779   3.314
70087W        W42501  15.650   7.306  13.382
70088W        W42502  14.638  16.289   2.869
70089W        W42503   1.767   0.366  11.978
70090W        W42504   7.369  40.801   1.358
70091W        W42505   1.924  24.062   4.610
70092W        W42506  15.701  11.282   4.633
70093W        W42507   7.804  29.002  14.809
70094W        W42508   8.352  13.164  14.443
70095W        W42509   8.870   5.696   3.224
70096W        W42510  27.603  14.336   0.270
70097W        W42511  32.069  12.149  11.553
70098W        W42512  20.742  37.385  13.021
70099W        W42513  24.576  41.415  14.930
70100W        W42514  12.809  31.996  14.917
70101W        W42515  33.587  16.255   0.416
70102W        W42516  26.636  41.384   0.319
70103W        W42517  37.368   2.440   2.857
70104W        W42518  28.464   8.738   2.843
70105W        W42519   9.790  34.578  10.931
70106W        W42520   4.249   9.834   4.638
70107W        W42521  23.132  20.120  12.493
70108W        W42522  37.007  16.212   1.883
70109W        W42523  38.380  25.620  10.946
70110W        W42524  33.500   6.342  12.396
70111W        W42525  32.093   2.317  10.938
70112W        W42526   1.946  43.799  14.000
70113W        W42527  30.924  11.726   5.299
70114W        W42528  26.685  18.146   0.848
70115W        W42529  20.767   8.898  13.466
70116W        W42530  25.575  10.359   0.333
70117W        W42531  39.523  23.712  11.407
70118W        W42532   8.338  34.916  11.027
70119W        W42533  42.965   8.810  12.384
70120W        W42534  34.916   9.866  11.538
70121W        W42535  25.993   9.367  14.888
70122W        W42536   7.872   5.250  12.912
70123W        W42537  44.816  43.432  12.351
70124W        W42538  18.120  33.964   4.172
70125W        W42539  17.177  38.520   4.828
70126W        W42540  29.126  24.195   3.207
70127W        W42541  11.840  28.935  11.935
70128W        W42542  28.659  14.717  12.838
70129W        W42543   9.348  24.488  14.999
70130W        W42544  42.868  41.375   4.334
70131W        W42545  30.962  16.226   2.252
70132W        W42546  16.293  44.917  14.790
70133W        W42547  14.194  37.552   1.324
70134W        W42548  35.034   5.391   4.236
70135W        W42549  38.434  14.665  11.940
70136W        W42550  24.222   9.791  13.441
70137W        W42551   0.847  15.709   2.278
70138W        W42552  10.815  21.556   4.275
70139W        W42553  24.098  43.432   0.801
70140W        W42554  25.636  18.713   4.671
70141W        W42555   1.782  26.979  13.984
70142W        W42556  34.019  20.074  13.375
70143W        W42557   1.313  22.168   0.339
70144W        W42558  28.114   1.380   4.137
70145W        W42559  14.718  20.166  13.816
70146W        W42560  12.848  25.107  12.456
70147W        W42561   8.756  39.452  14.471
70148W        W42562  39.422  13.690  10.538
70149W        W42563   1.332  41.009  14.790
70150W        W42564  18.291  25.211  12.410
70151W        W42565  11.663   0.476   0.836
70152W        W42566  15.105  37.391  12.401
70153W        W42567  16.694  44.993   2.300
70154W        W42568   8.331  18.283  13.311
70155W        W42569   9.722  40.032   1.858
70156W        W42570  30.050  25.587  13.857
70157W        W42571  27.445  43.456   3.724
70158W        W42572   1.732  21.136  13.396
70159W        W42573  30.072  10.780  14.879
70160W        W42574  33.515  39.392  13.054
70161W        W42575  13.674  41.403  10.893
70162W        W42576   4.877  19.143  14.472
70163W        W42577  14.285  35.083   4.812
70164W        W42578   9.372  22.044   4.609
70165W        W42579   0.353   3.230   1.372
70166W        W42580  39.473  29.109   0.940
70167W        W42581  26.462  39.979  10.939
70168W        W42582  31.947  10.209  12.964
70169W        W42583  13.113  20.086   2.669
70170W        W42584  42.437  24.081  12.460
70171W        W42585  20.063  41.528   1.908
70172W        W42586  27.962   7.274   1.802
70173W        W42587  19.602  13.648  11.499
70174W        W42588  25.575  11.675   3.760
70175W        W42589  31.043  23.490   4.656
70176W        W42590  35.056   0.938  12.088
70177W        W42591  23.730  36.455  13.497
70178W        W42592  14.103  34.909   2.392
70179W        W42593  20.527   3.385   0.849
70180W        W42594  24.998  40.330   1.219
70181W        W42595  13.249  33.985   1.782
70182W        W42596   2.924   3.414   1.350
70183W        W42597  31.053   6.814  13.038
70184W        W42598  34.099  34.114  11.887
70185W        W42599  22.075  41.292  11.374
70186W        W42600   6.745   1.435   0.780
70187W        W42601   0.974  43.424  12.493
70188W        W42602  25.140  33.492  11.521
70189W        W42603   0.283  30.934  14.397
70190W        W42604  16.197  28.096   0.770
70191W        W42605  41.938  26.635   1.738
70192W        W42606  17.668  12.284   3.169
70193W        W42607  18.642   3.833   4.707
70194W        W42608  27.616   7.723  11.858
70195W        W42609  17.628  19.709   3.229
70196W        W42610  22.669   3.807   2.247
70197W        W42611  13.743  39.887   3.357
70198W        W42612  27.545   2.764  11.383
70199W        W42613  12.267  23.623  10.927
70200W        W42614  42.520   9.685   1.378
70201W        W42615   0.983   2.440  13.857
70202W        W42616   7.236  12.196   4.262
70203W        W42617   6.765  39.972  14.999
70204W        W42618  33.939  23.989   4.244
70205W        W42619  44.948   2.292  13.026
70206W        W42620  14.731  43.866  10.953
70207W        W42621  37.404  27.049  13.889
70208W        W42622  43.383  36.581   3.290
70209W        W42623   3.370  21.042   3.167
70210W        W42624  24.075   6.332   3.191
70211W        W42625  30.630  23.225   4.687
70212W        W42626  19.612   9.738  13.038
70213W        W42627  33.083  33.496  10.596
70214W        W42628  10.647  20.062   2.785
70215W        W42629   3.730  15.084   0.392
70216W        W42630  14.773  34.077   2.410
70217W        W42631  17.133  40.325  14.913
70218W        W42632   0.330  21.735   1.286
70219W        W42633  17.619  24.698   1.844
70220W        W42634  16.282  12.802   4.755
70221W        W42635  14.661  13.793   1.415
70222W        W42636  31.958  25.636  13.921
70223W        W42637  18.635  43.308   2.883
70224W        W42638   0.376  31.039   0.871
70225W        W42639  16.587   9.309   4.299
70226W        W42640   6.784  30.448  11.561
70227W        W42641  35.080   4.711   3.387
70228W        W42642  10.761  28.591  13.836
70229W        W42643  12.174  26.600   2.243
70230W        W42644  19.729  20.124   0.833
70231W        W42645  14.277  16.106  11.127
70232W        W42646  19.271   9.339  13.937
70233W        W42647  33.932  13.258  13.450
70234W        W42648   1.791  41.421  11.883
70235W        W42649  42.939  13.812  13.519
70236W        W42650   0.806  13.186  13.384
70237W        W42651  24.118   0.815   5.768
70238W        W42652   1.350  19.156   2.280
70239W        W42653  19.670  38.327  10.929
70240W        W42654   2.286  33.907  14.317
70241W        W42655   9.658  35.467   3.669
70242W        W42656  44.280   0.479  14.483
70243W        W42657  34.391   1.760   3.869
70244W        W42658  40.458  23.499  10.913
70245W        W42659  23.636  20.253  13.013
70246W        W42660  16.738  35.957   4.606
70247W        W42661  39.910  41.906   3.263
70248W        W42662   1.885  26.620   3.317
70249W        W42663  24.561  19.587  13.966
70250W        W42664  33.892  26.113   2.358
70251W        W42665  22.240  33.102  13.832
70252W        W42666   3.892  10.289   1.847
70253W        W42667   3.895   6.182   3.816
70254W        W42668  33.537   5.241  14.510
70255W        W42669  22.689  35.042   4.342
70256W        W42670  12.118  30.029   4.744
70257W        W42671   9.841  11.252  14.889
70258W        W42672  40.002  19.533   0.300
70259W        W42673  26.698  24.159  10.587
70260W        W42674   4.927   5.724   2.367
70261W        W42675  17.280   9.276   3.863
70262W        W42676  36.949  42.844   1.706
70263W        W42677   4.719  28.595   0.946
70264W        W42678  14.673  32.928  13.396
70265W        W42679  11.825   2.315  11.924
70266W        W42680  21.647  24.536   1.399
70267W        W42681  19.577   9.258   1.426
70268W        W42682   1.874  15.802  13.857
70269W        W42683  43.843  14.715  13.482
70270W        W42684  14.788  25.196   0.749
70271W        W42685  33.939  39.839   0.262
70272W        W42686  43.811  31.993   4.169
70273W        W42687  13.807   7.839   1.332
70274W        W42688  43.801  33.427  14.284
70275W        W42689  24.672   5.304  13.848
70276W        W42690  29.925  16.755   0.398
70277W        W42691  38.946   6.204   3.753
70278W        W42692  23.075  11.722  14.012
70279W        W42693   4.391  27.078   1.406
70280W        W42694  43.453  44.441   2.709
70281W        W42695  28.560  37.429   1.696
70282W        W42696  17.139  40.320  14.295
70283W        W42697  38.387   7.369   1.364
70284W        W42698  37.540  31.094  14.326
70285W        W42699  28.092   0.982  10.967
70286W        W42700  13.619  29.985  12.088
70287W        W42701  10.636  37.342   3.286
70288W        W42702  43.460  29.994   2.807
70289W        W42703  27.127  38.889   4.128
70290W        W42704  36.955  10.735  11.992
70291W        W42705  19.285  24.984  12.952
70292W        W42706   2.965  40.024  11.080
70293W        W42707  40.981  26.487  11.403
70294W        W42708   3.282  37.455  10.609
70295W        W42709  33.582  38.918   2.844
70296W        W42710  13.336  42.894   4.272
70297W        W42711  39.866  33.549   3.235
70298W        W42712  15.613  13.764   3.650
70299W        W42713  24.679   1.877  11.549
70300W        W42714   5.313  27.445   3.718
70301W        W42715  41.413  36.347  13.972
70302W        W42716  44.008  22.685  10.496
70303W        W42717   9.316  11.233  12.841
70304W        W42718   8.783  24.619  10.914
70305W        W42719  27.068  25.005  13.491
70306W        W42720   9.155   3.941   3.323
70307W        W42721  26.999  15.610  10.590
70308W        W42722   9.723  18.756   4.187
70309W        W42723   3.723  43.377   3.304
70310W        W42724  30.049  16.617  13.463
70311W        W42725  39.541  13.224  11.568
70312W        W42726  21.618  21.572  13.520
70313W        W42727  13.278  34.562   0.243
70314W        W42728  25.565  28.639  14.934
70315W        W42729  35.550  14.304  14.368
70316W        W42730  26.570  18.052  14.840
70317W        W42731  21.590  26.138   2.812
70318W        W42732  13.234   8.885  13.796
70319W        W42733   4.747  44.386  13.525
70320W        W42734  11.668  25.544   2.674
70321W        W42735  33.960  28.649   0.465
70322W        W42736  34.998  30.457   4.259
70323W        W42737  33.079  17.071  13.387
70324W        W42738   2.229  39.529   4.188
70325W        W42739  27.026  34.493   2.336
70326W        W42740   5.819  31.100  12.945
70327W        W42741  16.801  31.525  14.920
70328W        W42742  42.476  10.223  12.448
70329W        W42743  14.218  44.977  11.487
70330W        W42744  25.555  35.369  11.518
70331W        W42745  24.058  40.424   2.255
70332W        W42746  19.231   2.451   0.934
70333W        W42747   1.327  15.778  13.015
70334W        W42748  30.479  23.651   1.831
70335W        W42749  33.424  40.040   9.976
70336W        W42750  28.439  21.142  11.395
70337W        W42751  23.067  41.507   4.808
70338W        W42752  38.910  27.525  11.400
70339W        W42753  29.990  20.558   3.335
70340W        W42754   1.964   6.741   4.799
70341W        W42755  26.200  19.131  13.309
70342W        W42756  38.835   0.846   2.331
70343W        W42757  32.940  17.285  11.068
70344W        W42758  35.593  40.825   4.776
70345W        W42759   5.898   7.378   1.259
70346W        W42760  19.265  37.078   2.671
70347W        W42761  12.137  22.669  12.041
70348W        W42762   8.791  14.221   3.763
70349W        W42763  22.651  34.913   5.309
70350W        W42764  21.589   6.196  10.888
70351W        W42765  28.951  28.557  12.891
70352W        W42766   8.293  39.456  11.900
70353W        W42767  28.030  31.138   2.696
70354W        W42768  43.982  43.311  14.915
70355W        W42769  24.206  31.948  14.819
70356W        W42770  44.463   8.226  14.509
70357W        W42771   5.781  10.245  12.521
70358W        W42772  12.747  13.787   1.768
70359W        W42773   4.325  33.597   3.274
70360W        W42774  10.353  37.086  10.452
70361W        W42775   0.949  35.093  10.590
70362W        W42776  12.148   6.822   2.761
70363W        W42777  41.017  27.169  14.379
70364W        W42778  15.808  41.416   0.931
70365W        W42779  37.420  34.968   1.904
70366W        W42780  26.659  21.633  14.496
70367W        W42781  19.078  34.567  11.511
70368W        W42782  16.585  39.470  12.431
70369W        W42783  37.422   9.193  14.987
70370W        W42784  35.047   9.872   3.382
70371W        W42785  10.775  20.104   0.313
70372W        W42786  13.810  43.307   3.377
70373W        W42787  15.652   6.362   4.292
70374W        W42788   7.234  32.132  14.835
70375W        W42789  17.674  24.649  11.486
70376W        W42790  32.123  31.420   4.645
70377W        W42791  35.877  42.418   1.833
70378W        W42792   8.838  36.864  13.029
70379W        W42793  43.404  15.737   1.761
70380W        W42794  30.465  22.098   2.402
70381W        W42795  38.979  37.528   9.998
70382W        W42796   4.858  30.647   3.380
70383W        W42797  10.682  40.549   0.747
70384W        W42798  29.498  40.964  12.896
70385W        W42799  35.028  13.756   0.271
70386W        W42800  36.901  24.009  11.560
70387W        W42801  21.666  21.590   0.898
70388W        W42802  43.434  11.739   2.374
70389W        W42803  32.612   2.813  10.466
70390W        W42804  32.489  28.532   4.659
70391W        W42805  36.537  24.480   4.351
70392W        W42806  23.143  29.975   0.351
70393W        W42807  40.959   4.812   0.472
70394W        W42808   6.418  10.154   2.741
70395W        W42809   0.829  14.185   3.253
70396W        W42810   1.929  11.331  12.882
70397W        W42811  35.501  16.087  13.310
70398W        W42812  25.016   6.695  14.512
70399W        W42813  18.622  22.030   4.646
70400W        W42814  22.041   4.352  10.907
70401W        W42815  43.874  24.056   4.645
70402W        W42816  13.729  40.350  11.049
70403W        W42817   7.731  20.603   2.411
70404W        W42818  22.510  37.461   4.619
70405W        W42819   0.285  17.123   0.838
70406W        W42820  25.684  32.453   1.420
70407W        W42821   7.673  44.459   0.319
70408W        W42822  14.263  42.022   4.192
70409W        W42823  43.450  36.994  10.940
70410W        W42824  13.239   0.479   1.256
70411W        W42825  32.532   2.328  14.303
70412W        W42826  42.364  31.427   3.724
70413W        W42827   3.400  14.727  11.533
70414W        W42828  37.027  32.501  10.588
70415W        W42829  10.672  32.041  13.408
70416W        W42830  18.103  15.162  13.023
70417W        W42831  37.394   6.216   3.821
70418W        W42832  15.610  41.403  11.977
70419W        W42833  21.582  12.136  11.593
70420W        W42834   1.466   6.189   4.164
70421W        W42835  15.619  37.443  13.917
70422W        W42836  24.147   2.831  14.388
70423W        W42837  13.619  17.282   4.828
70424W        W42838  39.453  39.534  13.063
70425W        W42839  15.600  12.234  10.937
70426W        W42840  37.831  28.075  10.105
70427W        W42841  36.986   2.467   2.839
70428W        W42842  14.181   4.913   2.857
70429W        W42843   2.312  10.742  12.015
70430W        W42844   6.870  37.992  14.316
70431W        W42845  42.516  26.153  14.348
70432W        W42846  14.596   1.898   5.173
70433W        W42847  33.457  24.668  14.358
70434W        W42848  31.073  32.571   4.294
70435W        W42849  28.584  15.585   3.345
70436W        W42850   5.372   6.397  12.914
70437W        W42851  42.850  31.408  11.584
70438W        W42852  27.987  19.053  11.876
70439W        W42853   7.897   9.704   1.259
70440W        W42854   6.224  23.094  14.310
70441W        W42855  33.020  33.407   3.774
70442W        W42856  11.695   1.371  12.453
70443W        W42857  15.234  38.473  11.418
70444W        W42858   5.288   1.834   1.922
70445W        W42859  12.237  30.480  14.331
70446W        W42860  10.782  26.577  11.469
70447W        W42861   0.287  12.191   3.374
70448W        W42862  30.160  19.180   1.285
70449W        W42863  14.101  43.957   2.391
70450W        W42864  42.355  42.424  11.983
70451W        W42865  39.554  25.127  13.976
70452W        W42866   6.799  31.487  12.375
70453W        W42867  30.495  32.460  11.983
70454W        W42868  12.228  27.093  11.927
70455W        W42869  38.006   9.674  13.834
70456W        W42870  39.334  40.936   2.884
70457W        W42871  21.511  11.638  13.965
70458W        W42872  12.662   9.324   2.334
70459W        W42873  30.031  14.818   3.642
70460W        W42874  20.214  39.950  10.423
70461W        W42875  25.163  41.841  14.474
70462W        W42876  28.576  12.622   1.314
70463W        W42877  26.075   0.786   0.411
70464W        W42878  26.195  18.549   1.853
70465W        W42879   4.882  36.389  14.320
70466W        W42880  12.855   7.395   0.450
70467W        W42881  20.250  20.267   1.403
70468W        W42882  12.641   5.366  14.346
70469W        W42883  43.004  10.326   2.703
70470W        W42884  16.627   1.971   0.736
70471W        W42885  18.548  21.710  12.068
70472W        W42886  12.344   0.286   0.334
70473W        W42887  36.965  26.529   5.237
70474W        W42888   4.234  15.193   0.940
70475W        W42889  44.378   4.294   2.683
70476W        W42890  28.059  34.890   0.749
70477W        W42891  18.778  11.859   4.228
70478W        W42892  34.479   9.765  12.395
70479W        W42893  34.895  29.473   2.679
70480W        W42894  44.380  20.631   1.894
70481W        W42895  15.796  23.597   2.376
70482W        W42896  13.685  24.143   0.834
70483W        W42897  26.691  10.833   2.792
70484W        W42898   4.315  11.310   2.674
70485W        W42899  31.469  33.563  12.389
70486W        W42900  32.621  31.925  10.582
70487W        W42901  31.039  30.965  10.590
70488W        W42902   5.806  42.517   1.829
70489W        W42903  27.522  32.507   0.291
70490W        W42904  31.912  32.081   4.194
70491W        W42905  29.648  33.528   2.383
70492W        W42906  38.950  40.468   1.433
70493W        W42907   3.403  35.020  12.564
70494W        W42908  31.026  12.655   5.120
70495W        W42909  29.977  31.965  11.399
70496W        W42910  24.500  11.774  11.026
70497W        W42911  18.701  43.992   1.251
70498W        W42912  19.589  15.775  11.904
70499W        W42913   7.181  27.688   1.450
70500W        W42914  21.735  27.956   4.684
70501W        W42915  12.833  19.633  10.644
70502W        W42916  44.995  39.920  12.057
70503W        W42917   3.337   9.669  12.387
70504W        W42918  40.500  22.546   3.686
70505W        W42919  38.892  34.930   2.670
70506W        W42920   7.855  30.605   4.205
70507W        W42921  33.427  41.321   5.255
70508W        W42922   6.294  16.316  12.077
70509W        W42923   8.685  22.623   2.701
70510W        W42924   2.945  14.797  13.443
70511W        W42925  10.741  34.386   3.362
70512W        W42926  10.244  35.872  13.514
70513W        W42927   9.234  27.991  10.992
70514W        W42928  14.699  43.514  12.085
70515W        W42929  27.131  24.202   0.879
70516W        W42930  41.464  39.551   4.219
70517W        W42931  26.086   5.394   1.842
70518W        W42932  21.069   1.847  11.975
70519W        W42933  12.766  43.409  12.016
70520W        W42934  10.317  37.037  11.460
70521W        W42935  39.491   9.846  12.454
70522W        W42936  23.493  40.394  14.770
70523W        W42937  13.769  33.032   0.896
70524W        W42938  35.035  31.941   3.365
70525W        W42939   7.885  27.093   1.728
70526W        W42940  14.720   9.677   4.349
70527W        W42941  27.186  37.453  13.021
70528W        W42942  24.130  26.126  12.514
70529W        W42943   8.701   2.869  10.640
70530W        W42944  40.406   8.880  11.928
70531W        W42945  16.223  39.948   3.199
70532W        W42946  36.088  31.959  12.957
70533W        W42947  15.307  12.283  14.823
70534W        W42948  19.628   2.894   1.757
70535W        W42949  36.552  25.112   2.698
70536W        W42950  33.890  12.685  11.925
70537W        W42951   9.288   3.847  14.002
70538W        W42952  27.653   4.406   3.153
70539W        W42953   7.901  19.572  13.019
70540W        W42954  25.700   0.328  14.456
70541W        W42955  25.711  14.782  12.898
70542W        W42956  11.778  31.093  12.345
70543W        W42957   3.243  28.032   4.151
70544W        W42958  30.037   5.318  14.870
70545W        W42959   5.319  18.283   3.744
70546W        W42960  29.425   4.892   4.338
70547W        W42961   5.759  31.639  11.898
70548W        W42962  21.636  22.735   3.217
70549W        W42963  36.475  42.979  10.135
70550W        W42964   8.381   3.833   3.212
70551W        W42965  43.498   3.803   4.695
70552W        W42966  13.276  19.141   0.862
70553W        W42967  22.051  22.674  11.024
70554W        W42968  11.214   8.718  14.776
70555W        W42969   8.284  28.482   2.794
70556W        W42970  23.492  43.858   5.208
70557W        W42971  20.601  35.438  11.570
70558W        W42972  44.310  22.083  12.390
70559W        W42973  29.583   5.362   0.443
70560W        W42974  28.101  19.730  14.851
70561W        W42975  15.635  22.658  11.967
70562W        W42976  20.246  41.384   3.828
70563W        W42977   4.297  15.595  14.367
70564W        W42978   5.333  39.474   2.323
70565W        W42979   9.249  44.368  14.909
70566W        W42980   2.767  37.531   0.739
70567W        W42981  11.705  12.178  11.413
70568W        W42982  18.244   3.716   1.835
70569W        W42983  33.065  43.496   3.288
70570W        W42984   6.360  38.845  14.415
70571W        W42985  27.465  19.708   1.326
70572W        W42986   4.296  24.653   3.245
70573W        W42987  14.323   1.263  13.390
70574W        W42988  31.096   2.303  11.884
70575W        W42989  40.857  14.800   4.714
70576W        W42990  12.218  27.003   2.331
70577W        W42991  26.479  25.678  12.924
70578W        W42992  24.118  35.863   3.329
70579W        W42993  17.787   0.420   1.881
70580W        W42994  18.252   3.262   0.476
70581W        W42995   5.712  18.679  14.472
70582W        W42996  22.727  44.920  11.481
70583W        W42997  19.085  39.406  10.937
70584W        W42998  27.007  42.014   2.824
70585W        W42999  44.357  29.962   2.674
70586W        W43000  19.572  24.491   0.361
70587W        W43001   4.441  36.361  14.352
70588W        W43002   5.247  11.803  11.964
70589W        W43003  29.538  37.915  10.892
70590W        W43004  42.298  37.984  10.557
70591W        W43005  26.141   3.910   4.604
70592W        W43006  42.025  38.016  13.062
70593W        W43007  25.963   1.376   1.291
70594W        W43008  44.391  28.593   4.309
70595W        W43009  39.449  21.038  14.478
70596W        W43010   1.921   0.278   2.676
70597W        W43011   2.333  18.233   9.951
70598W        W43012  31.951  21.523  10.619
70599W        W43013   4.278  40.816  13.923
70600W        W43014  22.022  16.072   2.384
70601W        W43015  37.560  12.316  11.934
70602W        W43016  35.951  36.070   1.910
70603W        W43017  17.139   4.398   2.785
70604W        W43018  18.567  16.796  11.086
70605W        W43019  21.215  40.424  11.484
70606W        W43020  26.043   8.788   0.368
70607W        W43021   1.247  39.405  11.887
70608W        W43022  41.037   8.715   2.324
70609W        W43023   9.311  11.279  12.568
70610W        W43024  13.782  21.171  13.385
70611W        W43025  27.188  40.830  12.953
70612W        W43026  35.972  30.985   2.892
70613W        W43027  33.482  34.575  13.365
70614W        W43028  19.115  22.639  11.931
70615W        W43029  41.834  11.280  10.586
70616W        W43030  34.550   6.918   1.914
70617W        W43031  10.639  31.416  11.529
70618W        W43032  31.504   9.211  12.369
70619W        W43033  43.982  39.420   4.181
70620W        W43034  18.189  23.628   1.893
70621W        W43035  26.179  22.745  12.575
70622W        W43036  22.584   6.304   5.297
70623W        W43037  12.325  27.499   1.740
70624W        W43038  26.086  43.514  11.503
70625W        W43039  17.597  42.803  12.919
70626W        W43040  21.116  41.482  12.462
70627W        W43041  25.131  10.673   1.351
70628W        W43042  10.856  18.252   3.720
70629W        W43043  44.856   3.393  11.568
70630W        W43044  11.772  16.637  11.101
70631W        W43045  39.874   4.379   0.873
70632W        W43046   0.809  13.718   0.800
70633W        W43047  22.713   1.908  10.034
70634W        W43048   0.767   5.304  14.869
70635W        W43049  30.022  22.697   0.841
70636W        W43050  15.701   4.444  12.836
70637W        W43051   3.419   9.674  14.027
70638W        W43052  13.303  43.927  13.548
70639W        W43053  25.688  24.189   2.333
70640W        W43054  19.573  33.015  14.875
70641W        W43055  13.229  37.362  12.934
70642W        W43056  10.217  18.247   1.222
70643W        W43057  34.073  13.223   2.674
70644W        W43058  27.574   4.436   0.865
70645W        W43059   5.248  24.637   2.705
70646W        W43060   4.339   4.232  14.030
70647W        W43061  30.164  34.920   1.888
70648W        W43062   3.289  42.394   4.629
70649W        W43063  11.831  18.611  10.633
70650W        W43064  11.858  13.658  11.486
70651W        W43065   4.848  36.508   0.264
70652W        W43066  12.164  32.024   2.179
70653W        W43067  27.984  40.392   3.756
70654W        W43068  35.567   9.754  12.409
70655W        W43069  34.386  19.149   0.342
70656W        W43070   3.757  17.780  10.531
70657W        W43071  39.465  31.902  10.468
70658W        W43072  23.562   5.752   1.231
70659W        W43073  22.098  18.184  10.937
70660W        W43074   4.765  25.011   0.851
70661W        W43075  36.514   0.358  13.468
70662W        W43076  35.407  18.716  10.956
70663W        W43077  32.485   4.746  10.506
70664W        W43078  37.018  19.617   0.835
70665W        W43079  14.231  38.953  11.083
70666W        W43080   5.878  22.047   1.373
70667W        W43081   3.845  43.853  10.573
70668W        W43082  39.498  44.950   0.795
70669W        W43083  26.052  33.456   2.364
70670W        W43084   1.757  42.780  13.823
70671W        W43085  40.848  40.405   2.284
70672W        W43086  21.673   1.811   2.712
70673W        W43087   0.370  44.483   4.620
70674W        W43088  25.679  40.519  14.472
70675W        W43089  14.599  37.894  11.412
70676W        W43090   6.778  22.125   1.267
70677W        W43091  29.014  22.013  10.484
70678W        W43092   2.321  40.495   3.254
70679W        W43093  28.466  21.652   1.754
70680W        W43094  25.100  42.828  12.546
70681W        W43095  26.151  12.619   4.721
70682W        W43096  28.672  19.626  13.831
70683W        W43097   6.703  39.413   0.779
70684W        W43098  16.217   8.892   5.658
70685W        W43099  19.569  33.046  12.028
70686W        W43100  19.604   8.399  11.556
70687W        W43101  17.289  41.468  11.129
70688W        W43102  19.686   7.231   1.745
70689W        W43103   9.213   9.713   3.691
70690W        W43104  26.548  23.995  12.918
70691W        W43105  21.060   3.271  10.045
70692W        W43106  16.186  19.691  14.864
70693W        W43107  27.115   3.861   1.337
70694W        W43108  41.026  20.536   1.280
70695W        W43109  42.389  19.621   0.819
70696W        W43110  19.602  18.159   2.195
70697W        W43111  29.945  27.507  11.948
70698W        W43112  42.906  21.109   0.404
70699W        W43113  25.215   8.257  14.306
70700W        W43114   1.248  10.311  12.082
70701W        W43115  20.244  26.503  14.477
70702W        W43116   2.320  24.521  14.956
70703W        W43117  43.315   2.378   1.248
70704W        W43118  36.946  37.379  11.913
70705W        W43119  41.452   6.343   1.724
70706W        W43120   8.269  23.610   1.237
70707W        W43121  20.199   5.196   3.183
70708W        W43122  38.990  42.421   3.373
70709W        W43123  19.082  29.020  14.972
70710W        W43124  42.437  30.636  13.332
70711W        W43125  10.337  17.123  12.482
70712W        W43126  44.873  40.538  11.040
70713W        W43127  32.466  35.905  13.404
70714W        W43128  31.121   2.956   0.375
70715W        W43129  17.111  33.547   3.361
70716W        W43130   1.826  22.123  12.552
70717W        W43131  44.808   5.374  11.980
70718W        W43132  28.639  16.147  11.394
70719W        W43133  43.480   7.212   1.247
70720W        W43134   9.328   6.296  14.911
70721W        W43135  42.402  27.141  13.365
70722W        W43136  35.074  11.148   1.871
70723W        W43137  15.664   2.288   0.258
70724W        W43138   8.247  38.479  12.511
70725W        W43139  13.839  30.918   3.258
70726W        W43140  29.519  38.042   2.325
70727W        W43141   9.184  10.635  11.011
70728W        W43142   8.215  29.952   2.243
70729W        W43143   3.219  21.048  14.307
70730W        W43144   3.323  35.075  10.973
70731W        W43145  37.889  43.858   3.286
70732W        W43146  42.012  13.233  11.882
70733W        W43147  23.668  10.829  12.986
70734W        W43148  18.698   2.725   3.248
70735W        W43149  19.233  38.896   3.645
70736W        W43150  15.745  28.532  10.150
70737W        W43151  28.675  13.752   1.367
70738W        W43152  29.452  15.242  12.042
70739W        W43153   4.274  10.857  11.397
70740W        W43154  33.031  29.505  14.791
70741W        W43155  42.929  43.348   1.837
70742W        W43156  28.667  39.402  11.452
70743W        W43157  22.124  12.707  12.943
70744W        W43158  36.852  28.984   3.717
70745W        W43159  30.649  27.536   3.233
70746W        W43160  16.151  19.255  11.519
70747W        W43161  20.595  20.037  12.377
70748W        W43162   5.330  20.646  13.545
70749W        W43163  42.843   4.834   4.284
70750W        W43164  32.414  44.366   1.253
70751W        W43165  14.263   5.709   3.669
70752W        W43166  38.461  24.709  14.765
70753W        W43167  10.710  42.357   4.200
70754W        W43168  11.355  29.942  11.968
70755W        W43169  30.587  29.134   3.819
70756W        W43170  40.387  30.572   3.832
70757W        W43171  35.044  22.628   1.416
70758W        W43172   5.781  34.426  14.028
70759W        W43173  44.897  33.473   3.664
70760W        W43174   4.753  16.156  11.966
70761W        W43175  25.180  21.029   4.285
70762W        W43176   7.694  20.055   1.335
70763W        W43177  13.190   1.932  12.559
70764W        W43178   9.826  43.816  11.934
70765W        W43179   9.301  43.017   2.302
70766W        W43180  14.606  20.248   3.790
70767W        W43181  12.682  13.780  10.496
70768W        W43182  25.197   5.831  11.096
70769W        W43183   5.789   4.348   2.193
70770W        W43184  12.763  44.450   2.213
70771W        W43185  21.264  33.532   4.828
70772W        W43186   7.323  38.430  12.095
70773W        W43187   4.256  42.867   5.251
70774W        W43188   7.688  12.330  12.345
70775W        W43189   6.204  32.580   3.310
70776W        W43190  37.846   5.381   1.808
70777W        W43191  24.528  13.708   3.351
70778W        W43192  13.225  18.699   1.438
70779W        W43193  15.623  19.753   4.267
70780W        W43194   7.263  18.775   0.864
70781W        W43195  13.260  28.985   0.449
70782W        W43196  38.336   8.728   3.152
70783W        W43197  21.255  19.700  11.550
70784W        W43198  36.847   1.244  10.536
70785W        W43199  21.081  17.068  13.810
70786W        W43200  31.121   5.291  12.851
70787W        W43201  21.730  30.030   2.214
70788W        W43202  44.871  42.395   4.174
70789W        W43203  43.850  40.539   4.658
70790W        W43204  13.120  25.067  11.485
70791W        W43205   3.215   1.968   1.706
70792W        W43206   3.423  25.613  11.443
70793W        W43207  37.351  14.630   4.312
70794W        W43208  38.325  42.883   2.361
70795W        W43209  41.867  27.600  14.892
70796W        W43210  24.214  27.025  12.397
70797W        W43211   3.919  26.657   1.450
70798W        W43212  23.174  21.703   0.750
70799W        W43213   8.252   4.270   0.892
70800W        W43214  33.118  22.618  12.084
70801W        W43215   4.204  27.041   1.854
70802W        W43216  38.004  14.136  11.059
70803W        W43217  15.091  26.028  13.825
70804W        W43218  39.036  28.587   0.305
70805W        W43219  22.207  27.551  10.449
70806W        W43220   4.261   8.747  11.913
70807W        W43221   5.833  16.217   3.695
70808W        W43222  30.639  39.926   1.414
70809W        W43223  27.622  36.547  11.065
70810W        W43224   0.849   2.869   0.354
70811W        W43225   3.432  11.344  13.499
70812W        W43226  35.390   3.942  14.766
70813W        W43227  38.979   6.267   9.942
70814W        W43228  26.043  30.947  12.525
70815W        W43229  21.072   6.274   3.298
70816W        W43230  42.373   7.265  11.606
70817W        W43231  20.754  34.369  12.450
70818W        W43232  25.690   8.227   4.307
70819W        W43233  44.914   3.779   1.272
70820W        W43234   1.827  28.977  12.865
70821W        W43235  41.359  44.490  14.502
70822W        W43236  32.101  15.192   1.775
70823W        W43237   7.713   3.451  10.996
70824W        W43238  31.578  23.142  14.970
70825W        W43239   6.252  42.953   1.830
70826W        W43240  32.108  38.868  12.869
70827W        W43241  10.856  15.588  12.429
70828W        W43242  12.737   5.823   0.459
70829W        W43243  27.185  29.428  10.473
70830W        W43244  33.531  26.555   2.804
70831W        W43245  30.498  20.577   2.899
70832W        W43246  31.513  15.727  10.894
70833W        W43247  36.071  40.798   0.945
70834W        W43248  15.580  35.564   1.918
70835W        W43249  35.541  17.185  12.004
70836W        W43250   8.688  24.049   5.131
70837W        W43251  25.188  33.953   1.408
70838W        W43252   2.310  37.411   5.163
70839W        W43253  14.686  23.113  10.546
70840W        W43254  24.084  33.079  12.946
70841W        W43255   4.438  43.796  12.843
70842W        W43256   5.917  36.983  13.438
70843W        W43257  14.642  27.137  14.411
70844W        W43258  42.877  17.179  13.463
70845W        W43259  32.606   3.412   3.351
70846W        W43260  18.137  23.606   4.739
70847W        W43261  42.518  16.794  12.390
70848W        W43262  16.133  12.149   2.216
70849W        W43263  38.863  16.603   4.780
70850W        W43264  16.584  37.454  12.865
70851W        W43265  38.906  27.063   1.916
70852W        W43266   5.214  10.716  14.782
70853W        W43267  36.389  29.958   2.364
70854W        W43268  12.639  19.595  14.984
70855W        W43269  19.751   2.378   3.724
70856W        W43270   0.786  27.506  12.992
70857W        W43271   1.308  17.630   1.932
70858W        W43272  13.770   3.767   1.791
70859W        W43273  36.992   6.683  14.324
70860W        W43274  20.230  14.760  14.928
70861W        W43275  29.573  37.548  12.574
70862W        W43276  30.014  42.853  11.918
70863W        W43277  12.275  26.480  13.308
70864W        W43278  30.616  24.143   3.761
70865W        W43279  23.705  11.717  12.569
70866W        W43280  15.777  41.885  10.494
70867W        W43281  32.026  20.626   3.338
70868W        W43282  37.550  36.464  14.958
70869W        W43283   4.945   8.362   1.820
70870W        W43284  30.997  37.081  13.952
70871W        W43285  15.166  19.617  12.833
70872W        W43286  44.914  25.614  12.342
70873W        W43287  14.163  25.040   3.267
70874W        W43288  42.953  28.502  12.434
70875W        W43289  30.653   5.794  10.510
70876W        W43290  23.996  41.513  12.862
70877W        W43291   4.365  14.794  10.618
70878W        W43292  36.543  40.478  13.800
70879W        W43293  11.743   0.948  12.048
70880W        W43294   6.344  25.532   3.288
70881W        W43295   8.242  12.146  11.396
70882W        W43296   3.436  40.457   0.293
70883W        W43297  40.305  12.189  13.864
70884W        W43298  25.141  32.905   4.754
70885W        W43299  18.707  36.866  14.308
70886W        W43300   9.679  23.094   3.289
70887W        W43301  36.440  38.469  13.864
70888W        W43302  24.118   4.430   2.796
70889W        W43303  12.633   3.410  12.888
70890W        W43304   8.736  18.192   2.334
70891W        W43305  32.971  16.705  14.298
70892W        W43306  13.338   1.310   1.736
70893W        W43307  31.468  11.292  12.927
70894W        W43308  36.527  28.496   4.172
70895W        W43309   5.689  42.790  11.414
70896W        W43310  30.448  19.072   3.157
70897W        W43311   7.180  37.557  12.395
70898W        W43312  37.366  20.183  12.084
70899W        W43313  43.418   6.339   4.807
70900W        W43314  11.341  26.466  10.957
70901W        W43315   9.227  31.558  13.030
70902W        W43316   4.391  33.550  13.424
70903W        W43317  17.068   7.395  13.328
70904W        W43318  31.548  23.532   0.278
70905W        W43319  14.231   9.311   2.704
70906W        W43320  13.783  18.783   1.715
70907W        W43321  23.163  37.462   4.731
70908W        W43322  29.607  20.720  14.779
70909W        W43323  20.523  44.977   4.154
70910W        W43324   3.222  24.532  11.079
70911W        W43325   8.754  35.066   5.258
70912W        W43326  27.057  35.033  13.818
70913W        W43327  35.024  23.208   1.226
70914W        W43328  13.287   7.334  10.621
70915W        W43329  21.692  41.458   2.375
70916W        W43330  37.546  26.001   1.282
70917W        W43331  15.216  20.052   9.473
70918W        W43332  42.978  21.130  13.514
70919W        W43333   3.897  31.097  11.052
70920W        W43334  31.099  22.624   0.908
70921W        W43335  32.093  11.149  14.358
70922W        W43336  39.438   5.924  14.448
70923W        W43337  30.450  42.957  13.794
70924W        W43338  44.839  37.581   0.961
70925W        W43339  10.685  42.793  14.923
70926W        W43340  22.677  23.617   0.826
70927W        W43341  34.544  30.653   3.326
70928W        W43342  10.321  33.538  12.344
70929W        W43343  21.623  35.890  10.595
70930W        W43344  28.168  21.018   4.334
70931W        W43345   5.430  33.410  10.467
70932W        W43346   3.857  28.545   3.682
70933W        W43347  30.045  39.820   2.274
70934W        W43348   0.459   9.181   0.867
70935W        W43349  43.793  29.592   3.333
70936W        W43350  44.983   7.870   4.835
70937W        W43351   8.798  19.194  10.455
70938W        W43352  27.585  15.588   0.245
70939W        W43353  26.102   7.872  11.477
70940W        W43354  11.813   2.396   3.694
70941W        W43355  38.509  13.271   0.366
70942W        W43356  31.140  30.966  13.003
70943W        W43357   3.351  28.120  13.388
70944W        W43358  37.565   9.261  14.026
70945W        W43359  44.975  39.453   4.749
70946W        W43360   7.696  42.808   1.377
70947W        W43361   6.351  39.065   3.328
70948W        W43362  40.348  37.948  11.522
70949W        W43363  11.714  14.168   3.283
70950W        W43364  34.533   6.908   0.728
70951W        W43365  20.041  42.525   1.781
70952W        W43366   1.348  25.098  12.442
70953W        W43367  21.682  21.679  13.934
70954W        W43368   5.722  44.002  13.924
70955W        W43369  38.334   5.410  14.461
70956W        W43370  12.820   1.420  11.529
70957W        W43371   0.349  30.006  11.420
70958W        W43372  29.609  13.132   0.862
70959W        W43373  19.114   0.782  11.092
70960W        W43374  42.026   1.859   0.270
70961W        W43375  28.017  31.972   2.342
70962W        W43376  31.644   3.713  14.772
70963W        W43377  15.634  44.339   0.931
70964W        W43378   2.385  27.134  14.978
70965W        W43379  33.476  11.301  10.958
70966W        W43380  33.083  42.460  14.963
70967W        W43381  27.990  19.666   0.382
70968W        W43382  41.838  28.079  10.065
70969W        W43383  38.935   3.769  12.847
70970W        W43384  20.618  44.465  14.497
70971W        W43385   6.818  33.014   2.697
70972W        W43386   3.829  10.841  14.834
70973W        W43387  10.205  31.936   0.439
70974W        W43388  36.044  23.562  10.491
70975W        W43389  12.235  43.870   2.746
70976W        W43390  26.467  15.695   1.291
70977W        W43391  33.595  25.129   3.337
70978W        W43392  43.377  17.259  11.579
70979W        W43393  25.672  14.231   1.879
70980W        W43394  25.971  34.566   3.259
70981W        W43395   2.414  39.356   0.261
70982W        W43396   1.482   9.864   0.862
70983W        W43397   5.885  22.699  10.407
70984W        W43398  39.533   9.267   2.222
70985W        W43399  18.736  24.079   4.601
70986W        W43400  18.175  32.446   0.839
70987W        W43401  15.727  37.489   4.776
70988W        W43402   3.379  26.051   2.814
70989W        W43403  43.459  25.128  14.495
70990W        W43404  39.340  37.431   0.820
70991W        W43405   5.253  24.155  11.429
70992W        W43406  35.443   3.882  13.505
70993W        W43407   3.921  29.095  13.531
70994W        W43408  19.277  41.308  10.570
70995W        W43409   5.826  13.716   2.408
70996W        W43410  37.448  27.567   1.828
70997W        W43411  38.498   5.932  11.588
70998W        W43412  14.704   5.835   3.383
70999W        W43413  24.010  11.722  13.481
71000W        W43414  38.950  42.511   2.900
71001W        W43415  30.031  24.497  13.321
71002W        W43416  44.914  39.947   4.212
71003W        W43417  39.907  27.075  13.456
71004W        W43418  25.191   4.889  10.991
71005W        W43419  42.913  41.855  12.428
71006W        W43420  35.467   4.727  12.556
71007W        W43421  32.903   9.327  14.431
71008W        W43422  43.334  22.645  13.885
71009W        W43423   7.877  29.594  12.365
71010W        W43424  41.878  26.059  14.770
71011W        W43425  40.016  26.015   3.354
71012W        W43426  23.002   2.826  11.447
71013W        W43427  24.555  41.481   4.709
71014W        W43428  27.513  22.213   1.435
71015W        W43429   6.297  15.589  10.098
71016W        W43430  10.643  10.211   0.374
71017W        W43431   0.764  21.177  13.043
71018W        W43432   0.272  43.291  14.821
71019W        W43433  13.703   8.398   0.478
71020W        W43434  15.773   0.937   3.211
71021W        W43435   4.896  39.410  12.893
71022W        W43436   6.199  12.308   4.158
71023W        W43437  12.273  24.212   2.235
71024W        W43438  35.955  15.817   3.314
71025W        W43439   2.451  25.031   3.287
71026W        W43440  40.054  38.524   3.335
71027W        W43441  37.851  27.166  11.506
71028W        W43442  42.970   7.266  11.063
71029W        W43443   6.902  17.151   1.346
71030W        W43444  43.920  19.222  11.401
71031W        W43445  44.409  35.924   9.958
71032W        W43446  37.382   7.368   4.746
71033W        W43447  21.755  33.126   4.330
71034W        W43448  17.762  23.206   2.873
71035W        W43449  26.562  15.184  14.023
71036W        W43450   5.800   0.302  13.949
71037W        W43451   0.290  29.526  14.367
71038W        W43452   4.767  16.094  10.529
71039W        W43453  22.071  33.573  11.950
71040W        W43454  26.005   7.258  10.492
71041W        W43455  35.454  30.976   2.813
71042W        W43456  22.679  30.995  14.338
71043W        W43457   2.890   4.449  11.460
71044W        W43458  24.498  34.581  10.562
71045W        W43459  11.852  40.392  13.035
71046W        W43460   3.219   4.269   1.884
71047W        W43461  40.897  43.429  13.531
71048W        W43462  40.335   6.796  11.011
71049W        W43463  16.156  33.526  10.476
71050W        W43464  14.221  31.139  11.968
71051W        W43465  11.775  23.559  13.336
71052W        W43466  21.234  42.815  14.370
71053W        W43467  21.085  37.908   2.215
71054W        W43468   1.956   0.938   2.667
71055W        W43469  44.445   3.255   0.821
71056W        W43470  25.483   2.385   0.867
71057W        W43471  10.825  39.026  13.538
71058W        W43472  23.577  38.345   2.219
71059W        W43473  31.004  13.645   1.347
71060W        W43474  15.785  37.983  13.410
71061W        W43475   1.376  37.011   0.335
71062W        W43476   7.408  40.918  11.570
71063W        W43477   4.430  20.763  10.603
71064W        W43478  40.892  29.997  10.948
71065W        W43479  25.496  10.163   3.782
71066W        W43480   0.920  28.568   2.394
71067W        W43481  40.011  15.242   2.266
71068W        W43482   0.975   5.246   0.247
71069W        W43483  24.141  19.646  14.823
71070W        W43484  18.122  10.756  11.598
71071W        W43485  12.620  12.129  13.884
71072W        W43486  19.761  25.650   3.328
71073W        W43487  29.064  28.035   1.361
71074W        W43488  20.215   1.923  14.881
71075W        W43489   8.172  43.285   3.723
71076W        W43490  11.703  12.167   4.633
71077W        W43491  23.499  19.627   3.241
71078W        W43492  34.965  16.732  12.896
71079W        W43493  23.054  19.597  14.936
71080W        W43494   3.783   3.769  12.994
71081W        W43495  34.946  21.020  12.829
71082W        W43496  42.382  43.343   4.773
71083W        W43497  35.446   5.801  13.804
71084W        W43498   8.227   4.717  10.431
71085W        W43499  20.698  31.921   4.649
71086W        W43500  39.046   4.247   1.773
71087W        W43501  40.445  23.711   1.369
71088W        W43502  39.493  17.062   3.801
71089W        W43503  33.972  42.284  14.353
71090W        W43504   4.756   2.389   3.157
71091W        W43505  43.822  34.372   1.863
71092W        W43506  35.364  36.954  14.459
71093W        W43507  18.253   3.336  11.068
71094W        W43508  10.683  13.323  12.980
71095W        W43509  37.441   7.188   1.354
71096W        W43510   7.859  35.010   3.352
71097W        W43511  39.336   9.195  14.465
71098W        W43512  21.722  38.401  13.339
71099W        W43513  28.120  20.695  11.555
71100W        W43514   1.386  32.933  10.941
71101W        W43515  22.082  21.046   3.704
71102W        W43516   4.339  21.154   5.110
71103W        W43517  19.582  33.924  14.404
71104W        W43518  39.884  20.099   3.230
71105W        W43519  29.984   0.373   3.741
71106W        W43520  37.087   0.914   1.924
71107W        W43521  21.208   3.917   0.787
71108W        W43522  20.711  37.015  12.851
71109W        W43523  13.328  30.650   0.475
71110W        W43524  31.632  12.183  12.394
71111W        W43525  39.513  15.776   2.310
71112W        W43526  44.401  27.193  11.901
71113W        W43527  44.315  21.573   4.613
71114W        W43528  10.795  13.642  10.530
71115W        W43529  42.350   7.729  14.358
71116W        W43530  16.630  39.922   4.624
71117W        W43531  10.272   1.883  14.400
71118W        W43532  42.460  31.431   1.777
71119W        W43533  23.073  15.797   0.424
71120W        W43534  43.484  39.837   0.932
71121W        W43535   9.764  21.039   0.766
71122W        W43536   8.335  37.525   3.224
71123W        W43537   0.841  22.061   2.191
71124W        W43538  27.971  37.879   1.374
71125W        W43539  33.391  25.683   3.679
71126W        W43540  30.601  44.276  11.516
71127W        W43541   0.831  14.212   1.738
71128W        W43542  34.910   8.185  14.829
71129W        W43543  23.602   8.836   1.738
71130W        W43544  34.945  35.066   4.276
71131W        W43545  39.325  26.520  11.386
71132W        W43546  30.021  30.144   3.231
71133W        W43547  29.524  12.706   0.274
71134W        W43548  39.448  41.381   1.761
71135W        W43549   1.747  14.660  11.005
71136W        W43550  34.885  33.511   2.373
71137W        W43551  23.698  30.122  10.461
71138W        W43552  38.568  17.742  14.377
71139W        W43553   9.662  36.417  12.010
71140W        W43554   5.819  12.722  10.579
71141W        W43555   4.882  33.979   1.730
71142W        W43556  38.351  44.934   0.887
71143W        W43557  18.777  36.520  14.447
71144W        W43558   9.852  19.128  13.007
71145W        W43559  39.863  35.967  13.312
71146W        W43560  43.275  21.100   2.848
71147W        W43561  16.659   6.898   2.853
71148W        W43562  31.944  31.517   1.211
71149W        W43563  15.753   1.829   1.861
71150W        W43564  19.600  12.205  11.031
71151W        W43565  35.601  41.455  14.886
71152W        W43566  31.073  11.736  14.032
71153W        W43567   9.720  17.277   1.726
71154W        W43568  34.949  15.262  10.551
71155W        W43569  40.001  19.638   0.912
71156W        W43570  25.580  34.421  11.883
71157W        W43571  43.512   2.930  12.461
71158W        W43572  15.210  22.679   4.659
71159W        W43573  18.765  35.576   1.797
71160W        W43574  32.079   0.281  11.538
71161W        W43575  43.368  20.165  10.638
71162W        W43576  35.392   5.883   1.355
71163W        W43577  41.812   5.807  12.379
71164W        W43578   6.421  24.160  11.427
71165W        W43579  14.312   5.298  13.047
71166W        W43580  39.899  32.609   3.270
71167W        W43581  37.867  40.392  14.333
71168W        W43582  16.113  27.665   4.215
71169W        W43583   2.236  25.071   4.212
71170W        W43584   7.676  31.991  14.493
71171W        W43585  28.470  22.681  12.488
71172W        W43586  29.146  13.816  10.578
71173W        W43587   3.857  22.139  14.507
71174W        W43588  25.475  32.089   3.641
71175W        W43589  11.803  31.556   3.254
71176W        W43590   5.809  28.993   0.817
71177W        W43591  30.509  13.780  13.327
71178W        W43592  15.181  32.440  13.948
71179W        W43593  28.981  14.771   1.731
71180W        W43594  43.416  32.565   1.256
71181W        W43595  25.677  20.149   0.751
71182W        W43596   0.830  12.772  14.493
71183W        W43597  21.148  14.333  11.451
71184W        W43598  31.134  19.696  11.949
71185W        W43599  44.404  20.048   1.411
71186W        W43600  30.476  19.079   4.826
71187W        W43601  23.598   6.185  12.460
71188W        W43602  32.599  13.614  13.893
71189W        W43603  38.910  21.666  10.962
71190W        W43604  19.059  43.306   0.331
71191W        W43605   0.372  13.667  11.070
71192W        W43606   0.484  44.955  14.768
71193W        W43607  25.568  28.436   2.896
71194W        W43608  15.724  28.975   9.971
71195W        W43609  18.211  26.043   1.824
71196W        W43610  14.242  37.350  14.334
71197W        W43611  18.289  43.802   1.321
71198W        W43612  11.246  10.319   4.825
71199W        W43613  15.805  28.976  11.427
71200W        W43614   9.350  26.043   4.127
71201W        W43615  28.931  18.111   1.762
71202W        W43616  36.560  33.945   0.855
71203W        W43617  11.642  22.636  12.441
71204W        W43618  15.153  20.250  12.970
71205W        W43619   8.760  10.736  11.483
71206W        W43620  18.548  15.103   3.770
71207W        W43621  29.645  30.130   4.709
71208W        W43622  21.126  13.133   4.238
71209W        W43623   3.769  28.597  10.102
71210W        W43624  30.466  22.102   0.344
71211W        W43625  25.574  18.211   2.195
71212W        W43626   5.225  15.819  12.068
71213W        W43627  23.694  42.333   0.436
71214W        W43628  19.598  19.226   4.321
71215W        W43629  26.685  37.983   0.402
71216W        W43630  36.353  13.706   1.432
71217W        W43631   5.285   1.405   2.261
71218W        W43632   0.897  17.265   2.302
71219W        W43633   9.350   1.976   3.158
71220W        W43634   4.446  13.641   3.384
71221W        W43635   5.427   5.269   0.419
71222W        W43636  28.976  14.332  11.013
71223W        W43637   6.908  12.229  11.431
71224W        W43638  19.229  32.506   3.805
71225W        W43639  30.635  15.729   3.707
71226W        W43640   7.758  28.059   0.336
71227W        W43641   8.267  44.371   0.431
71228W        W43642  15.189  11.231   0.872
71229W        W43643  39.484  33.392   5.294
71230W        W43644  29.138  34.945   0.892
71231W        W43645  18.184  40.941  12.909
71232W        W43646  25.659   3.807  12.982
71233W        W43647  19.193  22.107   2.718
71234W        W43648   8.680  34.938   0.812
71235W        W43649  37.451  16.237   1.352
71236W        W43650  31.011  25.578   2.695
71237W        W43651  24.090   0.824   3.273
71238W        W43652  14.773   3.858   2.878
71239W        W43653   4.758   1.368  13.942
71240W        W43654  33.972   9.718   1.358
71241W        W43655   2.364  10.169  10.025
71242W        W43656   9.798  23.614   0.824
71243W        W43657   9.883   5.819  14.989
71244W        W43658  31.460  19.574  10.961
71245W        W43659   7.381  25.095  12.383
71246W        W43660   2.937  25.631   1.438
71247W        W43661   4.733  41.331   5.174
71248W        W43662  41.485  28.952   4.695
71249W        W43663   8.284  39.432   4.733
71250W        W43664  13.799   9.182  14.375
71251W        W43665  13.683   7.740   4.619
71252W        W43666  22.676  14.630  12.467
71253W        W43667  43.016  17.151   2.374
71254W        W43668  25.082   0.379  10.977
71255W        W43669  30.149   6.330   3.237
71256W        W43670  16.732  18.225   3.870
71257W        W43671   8.894  30.984  14.909
71258W        W43672  29.514  33.417  10.523
71259W        W43673  11.193  36.478  11.480
71260W        W43674  15.693  20.729  10.538
71261W        W43675  31.037   8.827   1.726
71262W        W43676  39.940  38.564  10.997
71263W        W43677  43.479   4.919   2.377
71264W        W43678   8.332   7.188   1.442
71265W        W43679  26.196   5.410   0.824
71266W        W43680   1.470   5.744  12.472
71267W        W43681  32.082  13.120   4.720
71268W        W43682   6.342  36.496  14.880
71269W        W43683   9.260  35.390  14.368
71270W        W43684  13.770  32.978  12.068
71271W        W43685   7.847   0.451   4.688
71272W        W43686  37.068  38.865  13.024
71273W        W43687  34.566  27.068   1.257
71274W        W43688  14.224  14.297   2.327
71275W        W43689  20.108  18.152  13.444
71276W        W43690   8.757  18.786   4.784
71277W        W43691  20.149  22.059   2.224
71278W        W43692  36.470  18.125  11.090
71279W        W43693  17.693  33.409  11.521
71280W        W43694  21.539  27.684  13.961
71281W        W43695  42.320  36.080  12.939
71282W        W43696   5.419  29.937   0.849
71283W        W43697  28.078  13.335  12.095
71284W        W43698  35.919  14.235  10.438
71285W        W43699  38.064  10.280  10.073
71286W        W43700   5.876  13.820   2.737
71287W        W43701  44.898  12.201   4.730
71288W        W43702  27.123   0.861  13.811
71289W        W43703  41.378  37.569   1.840
71290W        W43704  43.383  21.647  14.485
71291W        W43705  18.554  28.675  14.332
71292W        W43706  41.860  29.476   1.811
71293W        W43707  24.230  44.867  12.826
71294W        W43708  27.058  28.550   4.756
71295W        W43709  34.104  22.213  11.459
71296W        W43710  14.831  41.404   0.331
71297W        W43711  15.280  33.589  14.281
71298W        W43712   7.853  26.685  13.452
71299W        W43713  23.121  15.737   1.358
71300W        W43714  38.912   9.874  12.848
71301W        W43715  27.033  29.935  14.792
71302W        W43716  15.263  39.918  11.908
71303W        W43717  27.997  44.437   1.791
71304W        W43718   3.848  44.944   1.408
71305W        W43719   9.228   8.262  12.079
71306W        W43720  26.138  19.575  14.346
71307W        W43721  14.300  39.538   1.273
71308W        W43722   1.407  42.460  12.346
71309W        W43723  22.706  18.716  14.448
71310W        W43724  13.221  17.263  10.571
71311W        W43725  40.928  37.549  14.800
71312W        W43726  39.463  13.614   0.729
71313W        W43727  37.892  41.865  11.410
71314W        W43728  17.065  22.058   3.647
71315W        W43729  12.674  28.439  11.526
71316W        W43730  44.335   3.871  10.459
71317W        W43731   0.276  35.477   4.247
71318W        W43732  27.614  24.613  10.453
71319W        W43733  33.605  26.167   2.181
71320W        W43734  14.617  10.144  13.855
71321W        W43735  43.459  27.193   4.704
71322W        W43736   2.381  35.599   1.880
71323W        W43737  19.579  18.560   2.739
71324W        W43738   0.369   8.351  12.032
71325W        W43739  27.153   8.838   0.741
71326W        W43740  43.902  33.122   1.894
71327W        W43741  32.895   6.377   2.367
71328W        W43742   3.709   4.786  13.056
71329W        W43743  30.098   9.849   2.716
71330W        W43744   5.193  27.009   0.797
71331W        W43745   0.787  26.116   4.182
71332W        W43746  24.124  32.601   0.938
71333W        W43747  30.524   1.242   1.859
71334W        W43748  11.150  42.439  10.609
71335W        W43749  30.535   8.719  11.010
71336W        W43750  26.128  20.137   2.281
71337W        W43751  19.165  43.324   3.821
71338W        W43752  25.053  14.213  12.079
71339W        W43753  42.442  31.090   0.417
71340W        W43754  37.935  20.185  10.518
71341W        W43755  23.048  26.172   0.380
71342W        W43756  27.494  26.547   3.332
71343W        W43757  35.023   4.803   4.350
71344W        W43758  20.665  27.571  12.081
71345W        W43759  20.099  35.930   1.821
71346W        W43760  24.639  24.678  12.841
71347W        W43761  13.777  22.030   2.246
71348W        W43762  24.709  36.579   2.419
71349W        W43763  42.998  27.103  10.595
71350W        W43764  28.094  14.759   4.141
71351W        W43765   3.429  36.354   5.210
71352W        W43766  35.406  15.782  11.433
71353W        W43767  12.235   3.772   3.185
71354W        W43768  27.115  43.504  11.391
71355W        W43769  26.038  22.693  11.924
71356W        W43770  13.109   5.259  11.867
71357W        W43771   0.490   7.779   4.201
71358W        W43772  44.483   6.286   5.276
71359W        W43773  24.173  34.978  12.970
71360W        W43774  20.669  35.361   2.683
71361W        W43775  30.993  28.028   2.322
71362W        W43776  22.618  39.035  13.957
71363W        W43777  35.985   6.299  14.958
71364W        W43778  14.174  41.308  11.034
71365W        W43779   5.743  11.334  12.461
71366W        W43780  39.354  23.542   1.334
71367W        W43781   4.449  17.800  11.474
71368W        W43782  12.168  10.175   4.752
71369W        W43783  22.578  44.476   3.690
71370W        W43784  28.490  12.156  11.501
71371W        W43785   7.718  14.675   0.459
71372W        W43786  35.106   9.296  11.941
71373W        W43787   9.163  26.024   2.875
71374W        W43788  21.035  23.605   4.701
71375W        W43789   8.815  22.697  14.274
71376W        W43790  42.806   0.266  13.799
71377W        W43791  21.748  14.216   3.276
71378W        W43792   0.871  17.685  12.458
71379W        W43793  27.465  13.650   2.802
71380W        W43794  35.063  34.030   3.841
71381W        W43795  17.777  29.988   3.681
71382W        W43796  20.588  15.310   1.714
71383W        W43797  23.580  38.000  13.857
71384W        W43798  18.079  41.478  13.464
71385W        W43799  13.601  42.829   2.668
71386W        W43800  28.969  28.994  13.877
71387W        W43801  25.004  37.433   3.764
71388W        W43802  11.695  39.981   3.649
71389W        W43803   3.286   9.666  12.972
71390W        W43804  43.432  35.562   0.269
71391W        W43805  13.639  19.103   1.764
71392W        W43806  38.838   9.193  11.445
71393W        W43807  39.459   3.910  14.376
71394W        W43808  24.537  15.707   3.754
71395W        W43809   2.897  14.326  10.046
71396W        W43810  32.447  33.950   0.897
71397W        W43811   2.385  19.222   3.768
71398W        W43812  24.007  29.608  12.975
71399W        W43813  20.543  28.538   2.876
71400W        W43814  39.864  14.679   2.325
71401W        W43815  42.858  31.502  12.441
71402W        W43816  10.815  39.825  11.874
71403W        W43817  44.955  39.444   0.783
71404W        W43818  44.474  42.318   2.743
71405W        W43819  18.612  11.741   3.870
71406W        W43820  37.934   1.869   2.840
71407W        W43821   0.250   3.341   4.146
71408W        W43822  39.905  18.113  14.386
71409W        W43823  21.189   2.765  11.012
71410W        W43824  32.509   2.391   0.373
71411W        W43825  26.669  35.469  14.853
71412W        W43826  21.704   2.431   2.339
71413W        W43827   5.193   6.347   3.202
71414W        W43828  14.195  33.098   0.394
71415W        W43829  28.109  19.215   1.324
71416W        W43830  19.604  24.137  14.789
71417W        W43831  28.527  37.491  11.589
71418W        W43832  32.484  22.143   0.301
71419W        W43833  34.512  27.657  13.538
71420W        W43834  29.470  18.790   2.747
71421W        W43835  28.647  40.872   4.695
71422W        W43836  34.590  38.022  14.289
71423W        W43837  36.868  20.626   4.148
71424W        W43838  23.162  17.641  14.282
71425W        W43839   9.733  36.958   4.323
71426W        W43840  17.224   0.264   3.376
71427W        W43841  19.237   9.272  11.118
71428W        W43842  31.964  21.235   1.322
71429W        W43843  38.061  34.892   1.270
71430W        W43844   8.274  23.082   3.367
71431W        W43845  35.525  22.736   1.720
71432W        W43846  22.601  25.045   5.141
71433W        W43847  36.846  19.105  12.070
71434W        W43848   8.302  10.762   2.828
71435W        W43849  37.366  41.356  13.348
71436W        W43850   6.706   2.723  13.361
71437W        W43851   4.275   2.439   1.782
71438W        W43852  22.708  25.537  13.326
71439W        W43853   2.278  13.695   9.526
71440W        W43854  20.116  24.691  14.760
71441W        W43855  17.565  26.540   2.201
71442W        W43856  41.993  26.648  14.017
71443W        W43857  22.178  14.662  10.584
71444W        W43858  37.834  30.584  12.960
71445W        W43859  20.238  21.140  13.962
71446W        W43860  29.653  24.044   0.787
71447W        W43861   9.358   4.264   4.132
71448W        W43862  20.682  22.014  13.399
71449W        W43863  13.715  33.547   2.821
71450W        W43864   8.887  43.767  14.849
71451W        W43865   2.277   9.213  13.378
71452W        W43866  12.620   3.288   4.277
71453W        W43867   5.873  12.172  11.554
71454W        W43868  21.141   9.832  12.930
71455W        W43869  16.208   2.818   1.726
71456W        W43870   3.768  31.051  13.365
71457W        W43871  30.137  30.106   2.811
71458W        W43872  15.230  27.615  11.935
71459W        W43873  33.611  35.557   1.769
71460W        W43874  13.124  19.746  14.803
71461W        W43875   4.364  28.109   3.379
71462W        W43876  36.412   6.279   3.185
71463W        W43877  11.241  30.945  13.893
71464W        W43878  43.476  23.662  14.362
71465W        W43879  16.289  44.805  13.876
71466W        W43880   6.767  29.978  14.836
71467W        W43881  14.812  25.128  13.875
71468W        W43882  18.155  27.997  11.417
71469W        W43883  10.823   3.918  11.478
71470W        W43884  16.704  43.820   0.876
71471W        W43885  37.888  25.085   2.219
71472W        W43886  40.348   5.397  10.958
71473W        W43887  17.681  22.203  13.891
71474W        W43888  39.422   2.425  13.879
71475W        W43889   8.687   5.809  10.923
71476W        W43890   2.467  24.681  11.106
71477W        W43891  14.105  21.185  12.395
71478W        W43892  22.233  31.987   4.743
71479W        W43893  35.011   9.198   0.930
71480W        W43894   4.729  33.051  13.930
71481W        W43895  35.954  28.979   4.332
71482W        W43896  24.014   3.917  11.071
71483W        W43897  39.389   1.774  10.484
71484W        W43898  14.137  31.584   2.265
71485W        W43899  16.703  39.842  12.455
71486W        W43900   9.809  16.265   3.204
71487W        W43901  14.636  34.385   2.402
71488W        W43902  18.768  18.636   5.168
71489W        W43903  44.469  30.552  11.411
71490W        W43904  39.811  23.614  12.879
71491W        W43905  41.023  21.527  14.290
71492W        W43906  10.311  14.152  14.451
71493W        W43907  19.767  17.748   1.715
71494W        W43908  23.045   6.851   1.222
71495W        W43909  10.331  33.430  10.156
71496W        W43910   1.939   7.789  11.038
71497W        W43911  41.974  10.227  13.320
71498W        W43912  22.094  21.059   0.279
71499W        W43913  19.263  37.971   2.860
71500W        W43914  34.575  39.951   4.327
71501W        W43915  36.574  17.238   1.412
71502W        W43916  17.790  29.133   0.313
71503W        W43917  38.027  38.036   2.665
71504W        W43918   6.229  14.631  10.031
71505W        W43919  42.425  10.338   1.227
71506W        W43920  31.027   1.943  14.330
71507W        W43921   6.749  11.636  12.918
71508W        W43922   2.383  22.123   2.728
71509W        W43923   0.915  25.518  13.427
71510W        W43924   7.709   8.823   0.479
71511W        W43925  16.108  43.780   0.458
71512W        W43926  37.470  43.958  14.298
71513W        W43927  12.833   2.805  14.320
71514W        W43928  34.882  42.915   4.316
71515W        W43929  28.598  40.919  14.934
71516W        W43930  14.677   1.427  13.448
71517W        W43931  10.645  22.644  12.476
71518W        W43932  13.197  11.732   4.212
71519W        W43933  23.178  32.986  11.473
71520W        W43934  28.171  25.118  10.627
71521W        W43935  43.312  23.673  12.559
71522W        W43936  21.079  36.438   3.700
71523W        W43937  37.541   3.438   9.978
71524W        W43938   7.768   1.907   0.961
71525W        W43939   9.293   9.194   1.707
71526W        W43940   4.366  26.208  10.409
71527W        W43941  36.869   2.816  14.977
71528W        W43942  26.123  42.935   1.303
71529W        W43943  40.377  37.917   4.814
71530W        W43944  20.660  44.972   1.444
71531W        W43945  28.479  42.848  10.935
71532W        W43946  14.789  43.338  12.467
71533W        W43947  15.255  34.951   4.271
71534W        W43948  16.661  23.500  10.936
71535W        W43949  27.037  17.724  13.877
71536W        W43950   6.857   2.374   1.757
71537W        W43951  17.669  17.189  13.380
71538W        W43952   5.247  25.216   5.186
71539W        W43953  38.909  15.595   2.802
71540W        W43954   9.181  30.594   4.799
71541W        W43955  27.008  31.966  10.480
71542W        W43956  37.525  15.240  10.454
71543W        W43957  15.769  17.228   4.206
71544W        W43958   4.359  26.545   2.685
71545W        W43959  16.653  24.115   0.923
71546W        W43960  30.529  25.474  10.532
71547W        W43961  20.199  39.997  14.023
71548W        W43962  18.143   7.187  10.922
71549W        W43963   6.205  23.640   0.823
71550W        W43964  12.641  43.341  12.528
71551W        W43965   9.647  29.530  13.365
71552W        W43966  26.684   3.952  13.791
71553W        W43967  34.003  29.119  13.892
71554W        W43968  19.153   0.954   1.359
71555W        W43969  38.059  23.013  12.402
71556W        W43970  29.154   1.968  12.974
71557W        W43971  28.573   4.243  13.453
71558W        W43972  13.660  30.001  13.797
71559W        W43973  19.283  39.881   0.767
71560W        W43974  21.668  43.788   4.288
71561W        W43975  15.266  15.277   1.248
71562W        W43976   1.945  43.308  12.085
71563W        W43977   6.705  12.244   3.278
71564W        W43978  32.533  34.398  14.348
71565W        W43979  32.117  26.598  10.508
71566W        W43980  24.988   0.251  12.947
71567W        W43981  12.852   5.858  13.462
71568W        W43982  25.548  11.155   2.370
71569W        W43983  44.963   2.280   1.919
71570W        W43984  10.811  20.601  12.538
71571W        W43985  40.334  23.007   1.699
71572W        W43986  35.868  35.021   5.248
71573W        W43987   6.709   2.857   4.321
71574W        W43988  20.263  14.299   1.317
71575W        W43989  42.841  36.055  14.952
71576W        W43990  36.880  15.124  11.452
71577W        W43991   9.835  30.145   4.832
71578W        W43992   0.980   1.802   3.837
71579W        W43993  36.463  44.366  10.906
71580W        W43994  35.447  20.528   1.879
71581W        W43995  39.830   8.242   4.827
71582W        W43996  34.539  17.690   2.716
71583W        W43997  15.613  21.249   3.354
71584W        W43998   9.343   4.223   0.784
71585W        W43999  20.071  12.664  10.993
71586W        W44000  25.484  29.129   4.712
71587W        W44001   1.891  22.625  11.493
71588W        W44002  13.746  40.811   3.733
71589W        W44003  44.996  25.219   3.771
71590W        W44004  14.696  11.202   3.715
71591W        W44005  34.099  19.665  14.763
71592W        W44006  18.070   1.348  14.768
71593W        W44007  41.485   6.275   2.409
71594W        W44008   5.370  42.373   5.207
71595W        W44009  13.269  29.082   3.321
71596W        W44010  16.782  32.992  10.541
71597W        W44011   0.342  31.521   4.209
71598W        W44012  18.108  12.657   0.915
71599W        W44013  22.075   6.898   0.912
71600W        W44014  34.405  18.176  12.967
71601W        W44015   2.784  26.090  12.031
71602W        W44016  38.464  31.496   2.802
71603W        W44017  43.929  26.635   5.307
71604W        W44018   7.348  20.724   0.413
71605W        W44019  39.520  27.149  14.790
71606W        W44020  23.988  33.545   0.267
71607W        W44021  25.711  31.014  13.498
71608W        W44022  44.434   9.845  13.500
71609W        W44023  19.147  28.497   2.179
71610W        W44024  16.568  30.038  11.487
71611W        W44025   6.254   6.779   3.758
71612W        W44026  35.875  35.542  11.602
71613W        W44027   8.260  17.749   1.876
71614W        W44028  19.732  20.171   3.290
71615W        W44029  13.671  33.494  10.920
71616W        W44030  10.644   0.987   2.242
71617W        W44031  43.327  28.046   1.770
71618W        W44032  37.848  44.866   0.428
71619W        W44033  16.312   9.662   2.335
71620W        W44034  25.633  11.301   4.132
71621W        W44035  20.167  22.570  11.419
71622W        W44036  38.446   4.389   4.640
71623W        W44037   2.249  40.322  10.590
71624W        W44038  42.016  37.867   3.190
71625W        W44039  23.177   4.293  10.411
71626W        W44040  41.027  26.044  13.920
71627W        W44041  25.134  14.830  11.965
71628W        W44042  16.218  18.658   0.474
71629W        W44043  25.491  17.163   2.713
71630W        W44044  16.808   6.253  14.915
71631W        W44045  24.993  25.106   0.863
71632W        W44046   4.709  13.298  13.804
71633W        W44047  27.976  38.378  14.435
71634W        W44048  38.848   8.750  13.831
71635W        W44049  43.462  42.867   2.330
71636W        W44050  11.181  19.057   3.147
71637W        W44051  35.392  27.511  14.338
71638W        W44052   4.904  41.017  10.927
71639W        W44053  31.920  10.141  10.459
71640W        W44054  14.824  16.187  12.828
71641W        W44055  24.072  37.367  14.965
71642W        W44056  37.841  29.130   9.933
71643W        W44057  44.456  36.505   2.206
71644W        W44058   1.372  10.654  11.117
71645W        W44059   4.290   5.354   2.283
71646W        W44060  22.175  33.912   0.423
71647W        W44061  10.236  33.025   0.297
71648W        W44062   7.206  34.063  13.515
71649W        W44063  44.442   8.855   1.841
71650W        W44064   7.792  13.832  14.892
71651W        W44065   4.410  44.882  11.128
71652W        W44066   3.748  23.011  11.375
71653W        W44067   7.764  43.382   0.368
71654W        W44068   2.777  33.882  12.447
71655W        W44069  21.041  26.058   4.653
71656W        W44070   1.353  17.281  12.004
71657W        W44071  25.120  19.664   2.698
71658W        W44072  27.067  42.489  13.495
71659W        W44073  40.504   3.338  10.028
71660W        W44074  42.032  30.057  14.942
71661W        W44075  16.636  12.243  10.995
71662W        W44076  15.250  40.907  14.452
71663W        W44077  15.804  13.696  12.076
71664W        W44078  40.984  11.806   4.781
71665W        W44079   8.806  29.669   2.290
71666W        W44080  12.162  20.258   4.242
71667W        W44081  35.604  24.095   3.158
71668W        W44082  41.474  14.255  12.007
71669W        W44083  24.153  23.573  14.381
71670W        W44084  21.081  10.878  11.908
71671W        W44085   2.448   8.672   2.895
71672W        W44086  28.462   7.257   1.766
71673W        W44087  19.625  20.719  14.802
71674W        W44088   2.821  11.728  13.498
71675W        W44089  10.269  14.107   4.756
71676W        W44090  32.470  28.446  11.922
71677W        W44091  15.606   4.878  11.439
71678W        W44092  26.964  15.287   1.859
71679W        W44093  29.983   9.193   1.845
71680W        W44094  30.028  43.875  12.864
71681W        W44095   8.188  23.202  13.946
71682W        W44096  41.980  37.373  11.911
71683W        W44097  17.069   9.376   0.836
71684W        W44098   9.690   8.688  14.921
71685W        W44099  13.259  13.789   3.355
71686W        W44100   4.824   4.358   2.884
71687W        W44101   8.674   8.737   4.282
71688W        W44102  25.978  19.215   4.724
71689W        W44103  19.701  26.661  12.899
71690W        W44104   1.330  13.726  13.909
71691W        W44105  10.865  18.100   5.276
71692W        W44106  36.992  22.523   1.406
71693W        W44107   5.307  14.256   4.272
71694W        W44108   0.277  20.679   1.754
71695W        W44109  11.148  35.475  14.349
71696W        W44110  41.524  21.247  11.118
71697W        W44111  18.093  36.499   2.776
71698W        W44112  21.617  15.725   0.439
71699W        W44113   1.334  17.789   0.734
71700W        W44114  42.391  23.538  14.505
71701W        W44115   2.304  27.567  13.402
71702W        W44116  10.752  11.269  12.943
71703W        W44117  16.569   9.701   4.276
71704W        W44118  23.031  33.625  11.099
71705W        W44119  41.954   5.284  13.452
71706W        W44120   9.226  35.061  11.121
71707W        W44121  35.526   8.759  11.502
71708W        W44122   7.282   4.303   0.767
71709W        W44123   4.220  17.745  11.047
71710W        W44124  24.514   8.669  14.483
71711W        W44125  18.260  30.921   3.319
71712W        W44126  37.370  37.056  12.478
71713W        W44127  31.524  36.480   0.824
71714W        W44128  13.763  27.019   2.828
71715W        W44129   5.711  27.166   1.220
71716W        W44130   5.819  14.740  14.811
71717W        W44131  44.000  10.194  13.993
71718W        W44132  40.952  28.945  13.956
71719W        W44133   3.813  24.013   1.711
71720W        W44134  26.503  37.839   1.764
71721W        W44135  17.262  40.310  13.923
71722W        W44136   0.896   5.431  10.512
71723W        W44137  25.973  26.168   3.357
71724W        W44138  26.592  23.160  13.427
71725W        W44139  22.013   2.346  13.457
71726W        W44140   3.262   0.877  14.389
71727W        W44141  36.592  43.385   1.304
71728W        W44142  37.547  36.097   1.210
71729W        W44143  19.579  32.054   3.828
71730W        W44144  37.534   0.395  14.310
71731W        W44145  41.850   9.763   1.411
71732W        W44146  23.140  15.306  12.852
71733W        W44147  15.262  44.962  12.926
71734W        W44148  20.088  28.137   3.208
71735W        W44149  27.124  20.637   4.139
71736W        W44150  39.822  18.617   3.720
71737W        W44151  25.569  28.142  14.796
71738W        W44152  25.566   7.906   3.865
71739W        W44153  18.173  31.552  14.889
71740W        W44154  32.040  21.206  10.097
71741W        W44155  43.382  42.440  11.451
71742W        W44156  14.771  20.133  14.306
71743W        W44157  26.536  12.663   0.760
71744W        W44158  26.494  39.500  13.878
71745W        W44159  20.676  26.586   5.136
71746W        W44160   0.364  10.633   2.817
71747W        W44161  26.613   4.431   2.406
71748W        W44162  27.627  20.668   3.362
71749W        W44163  17.292   8.212   4.223
71750W        W44164   7.204   1.367  10.506
71751W        W44165   3.780  16.107  11.475
71752W        W44166  27.463  29.969  10.907
71753W        W44167   3.810  30.926  14.808
71754W        W44168  44.405  27.079  12.505
71755W        W44169  44.904   4.324  14.420
71756W        W44170  17.779  11.775   3.732
71757W        W44171  33.490  36.386  11.009
71758W        W44172  23.605   9.212  14.415
71759W        W44173  11.232  42.332   1.445
71760W        W44174  36.420  10.156   3.690
71761W        W44175   1.770   7.207   2.374
71762W        W44176  19.214   7.281  11.090
71763W        W44177  21.554  33.448   0.735
71764W        W44178  41.973  39.913   2.793
71765W        W44179  43.369  26.052  12.898
71766W        W44180  34.469  27.023   2.827
71767W        W44181  32.991   0.403   4.757
71768W        W44182  42.877   0.766   5.125
71769W        W44183  42.321  42.954   4.178
71770W        W44184  20.655  41.495  13.345
71771W        W44185  21.530  17.786   3.317
71772W        W44186  10.172  12.660  12.420
71773W        W44187  16.310   5.863  13.466
71774W        W44188  20.222  17.802  10.410
71775W        W44189  28.500  25.195   4.190
71776W        W44190   4.727  40.977  11.522
71777W        W44191  12.849   6.218  11.530
71778W        W44192  12.726  14.742   1.222
71779W        W44193  17.758   0.394   0.770
71780W        W44194   3.302  10.256   5.186
71781W        W44195  34.926  29.634   5.238
71782W        W44196   1.403  37.988   2.894
71783W        W44197  27.511  21.191  12.072
71784W        W44198  18.563  24.157  13.988
71785W        W44199  19.677  28.064   1.237
71786W        W44200   8.686  32.592  12.845
71787W        W44201   4.945  38.425  13.473
71788W        W44202  17.758   2.313  12.341
71789W        W44203  24.505  26.028  13.392
71790W        W44204   6.730   3.807   1.880
71791W        W44205  36.517  40.835  10.566
71792W        W44206  29.923  35.970   0.825
71793W        W44207  28.595   8.310   3.702
71794W        W44208  16.195  11.841  11.858
71795W        W44209   8.325  29.162   2.241
71796W        W44210  19.240  16.316  13.804
71797W        W44211   3.885   5.309   1.305
71798W        W44212  10.333  40.869   3.345
71799W        W44213  38.068  29.488  10.573
71800W        W44214  20.633  17.235  10.434
71801W        W44215   5.209  28.614  12.008
71802W        W44216   4.380   6.254  11.599
71803W        W44217  39.841   2.804  13.404
71804W        W44218  39.505  41.472   2.216
71805W        W44219   2.908   3.723  13.447
71806W        W44220  32.498   9.842  12.962
71807W        W44221  42.490  19.602   2.690
71808W        W44222  18.724   0.328   4.176
71809W        W44223   2.730  18.204   1.304
71810W        W44224  43.325   3.225  11.473
71811W        W44225  39.375   3.913   4.341
71812W        W44226  13.210  33.957  12.039
71813W        W44227  12.761  38.902  14.959
71814W        W44228   2.316  11.252   0.403
71815W        W44229  36.842  38.953   0.259
71816W        W44230   2.922  20.055   1.243
71817W        W44231   3.427  22.687  11.958
71818W        W44232  39.878  21.062  13.404
71819W        W44233   7.253  24.665   0.820
71820W        W44234   8.656   6.820  11.520
71821W        W44235   3.772   3.243   3.159
71822W        W44236  27.608  16.688   3.311
71823W        W44237  43.420  10.290   4.742
71824W        W44238  34.495   9.252  11.556
71825W        W44239   7.896  25.975   0.740
71826W        W44240  18.672  24.575   1.338
71827W        W44241  43.860  27.155  11.880
71828W        W44242  38.549   7.788  10.970
71829W        W44243  13.661   0.964  12.339
71830W        W44244  13.208  31.931  11.072
71831W        W44245   7.681   7.834   0.871
71832W        W44246  23.697  41.382  13.957
71833W        W44247  25.671  16.775  11.544
71834W        W44248  24.535  44.290   3.658
71835W        W44249  40.846  21.704  11.975
71836W        W44250  37.086   3.858   3.375
71837W        W44251  36.444   0.851  10.497
71838W        W44252   6.371   8.264  11.042
71839W        W44253  27.173  31.059   4.212
71840W        W44254   4.419  18.575  10.550
71841W        W44255  26.635  16.726  12.850
71842W        W44256  23.206  40.840  14.502
71843W        W44257  42.870  23.072  12.399
71844W        W44258  22.535  10.151  14.396
71845W        W44259  27.951  33.586  10.543
71846W        W44260  34.969  14.759  12.416
71847W        W44261  30.501  36.570  10.623
71848W        W44262  22.106   8.210  14.365
71849W        W44263  28.500  38.332  10.975
71850W        W44264  18.204  14.127  11.962
71851W        W44265  41.904  16.690  10.406
71852W        W44266   0.446   9.339   1.710
71853W        W44267  26.525  20.063  12.074
71854W        W44268  37.554  27.142  14.314
71855W        W44269   9.198  16.243  14.308
71856W        W44270  39.021  40.957  10.458
71857W        W44271   6.823   2.351  12.068
71858W        W44272  14.777  20.758   1.711
71859W        W44273   5.898   3.809  13.831
71860W        W44274  13.717  30.460   0.287
71861W        W44275   2.235  33.486  12.429
71862W        W44276  24.209  31.436   3.670
71863W        W44277   8.258   6.712   2.774
71864W        W44278  25.995  22.009   4.638
71865W        W44279   8.679   5.749   2.330
71866W        W44280  11.623  12.617   3.730
71867W        W44281  24.715   3.364  11.377
71868W        W44282   7.735  11.673  11.914
71869W        W44283  15.309  18.581   4.206
71870W        W44284  14.118  19.716  10.482
71871W        W44285  38.373  19.615   3.265
71872W        W44286  24.207   3.280   3.357
71873W        W44287  10.336  21.021   5.084
71874W        W44288  10.142  15.236   2.695
71875W        W44289  25.975  37.343  11.547
71876W        W44290  20.680  23.054  11.603
71877W        W44291  22.684  41.477   4.225
71878W        W44292  11.637  27.509   0.361
71879W        W44293   8.254   6.215  10.430
71880W        W44294  38.881   9.313  11.891
71881W        W44295  14.225  23.659  13.536
71882W        W44296   3.411  13.321  10.609
71883W        W44297  16.236   0.282  12.974
71884W        W44298  25.530   5.822  13.438
71885W        W44299   2.912  37.385  12.524
71886W        W44300  31.071  21.532  12.031
71887W        W44301  44.377   1.911   4.348
71888W        W44302   1.865   0.405   4.229
71889W        W44303  33.972  32.609   2.719
71890W        W44304   9.262  27.589  13.385
71891W        W44305  10.280  26.499  13.914
71892W        W44306  18.739   7.213  11.000
71893W        W44307  20.057   2.342  10.479
71894W        W44308  40.312  28.122   5.196
71895W        W44309  38.469  15.585   1.784
71896W        W44310  30.057   7.794   0.356
71897W        W44311  30.086  26.146   3.774
71898W        W44312  41.471  43.915  14.983
71899W        W44313  12.652  39.888  11.559
71900W        W44314  21.102  29.463   4.606
71901W        W44315  25.167  36.946  12.437
71902W        W44316  26.508  22.510   2.795
71903W        W44317  37.457  20.681   1.451
71904W        W44318  39.418  28.955   0.310
71905W        W44319  34.969  25.053  14.956
71906W        W44320  33.406   8.844  11.104
71907W        W44321  30.639  15.769  13.923
71908W        W44322  22.075  19.742   1.415
71909W        W44323   6.425  30.552  11.106
71910W        W44324  15.090  17.117   5.661
71911W        W44325  25.655  18.190   0.371
71912W        W44326  29.104  21.693  12.898
71913W        W44327  39.010  26.657  12.522
71914W        W44328  25.575  43.847  11.012
71915W        W44329  44.862  29.573  14.310
71916W        W44330  22.600  19.228   0.877
71917W        W44331  13.245  44.465   5.151
71918W        W44332  42.886  13.349  11.106
71919W        W44333  25.636  21.081  14.455
71920W        W44334   3.268  34.385  14.866
71921W        W44335  32.971  36.907  14.844
71922W        W44336  35.867  24.640  12.894
71923W        W44337  25.585  20.242  12.082
71924W        W44338  13.619  39.508   4.153
71925W        W44339  44.406  15.156   4.708
71926W        W44340  28.497  38.027   3.787
71927W        W44341  42.878  14.797  11.960
71928W        W44342   8.214  44.766  14.966
71929W        W44343  13.257  21.651   2.319
71930W        W44344  38.852  33.417   5.083
71931W        W44345  34.065  38.502   2.853
71932W        W44346  11.835  13.651  12.006
71933W        W44347   8.280  18.051  10.926
71934W        W44348   1.377   6.193   3.720
71935W        W44349  34.496  16.663  10.604
71936W        W44350  33.449  25.032   3.684
71937W        W44351   1.775  11.156   2.834
71938W        W44352  29.030   6.686   0.760
71939W        W44353   8.161  44.459   4.777
71940W        W44354  29.444  21.240   1.815
71941W        W44355   0.749  25.533   2.219
71942W        W44356  38.544  42.943  11.086
71943W        W44357  25.508  32.950   3.659
71944W        W44358  42.883  14.141  11.435
71945W        W44359  27.032  40.815   2.350
71946W        W44360  14.688  42.488  13.337
71947W        W44361  13.707   7.318   3.776
71948W        W44362  40.386  14.726  11.522
71949W        W44363  11.171  29.425  12.494
71950W        W44364  29.952  34.560  14.779
71951W        W44365  24.227  43.430  14.507
71952W        W44366  10.350  11.707  11.562
71953W        W44367  20.643  34.503  14.948
71954W        W44368  29.470  10.212   3.737
71955W        W44369  14.123  14.822   0.299
71956W        W44370  27.942  22.687   1.792
71957W        W44371  33.944   6.310  14.765
71958W        W44372  32.393  22.022  14.325
71959W        W44373  24.709  34.903   1.241
71960W        W44374  14.218  29.557  11.378
71961W        W44375  43.442  29.476   4.678
71962W        W44376  16.313  26.167   1.332
71963W        W44377  16.189  39.028   2.809
71964W        W44378  15.745   7.170  13.990
71965W        W44379  43.361  20.127  11.995
71966W        W44380  30.056  37.880   4.147
71967W        W44381  12.697  40.468  14.955
71968W        W44382   8.714  15.203  10.548
71969W        W44383   7.326  35.908   1.353
71970W        W44384   5.774  15.312   2.685
71971W        W44385  22.718  17.600   0.369
71972W        W44386  42.776  32.986  10.546
71973W        W44387  21.717   6.302  11.860
71974W        W44388  38.890   2.967  11.988
71975W        W44389  39.373   5.914   4.321
71976W        W44390  18.678  18.743  13.806
71977W        W44391  36.019  31.144  11.566
71978W        W44392  32.028  20.108  13.412
71979W        W44393  33.465  37.038   4.225
71980W        W44394  19.699   3.765   3.349
71981W        W44395  25.025  21.532   1.349
71982W        W44396  21.105  20.075  13.430
71983W        W44397  34.975  41.345  13.833
71984W        W44398   7.682  19.274  12.970
71985W        W44399  30.478  35.428  13.522
71986W        W44400  20.120  30.558   0.964
71987W        W44401  39.972  44.835   3.270
71988W        W44402  13.124  42.876  12.546
71989W        W44403  31.071  27.682  13.041
71990W        W44404  28.113  19.722   2.860
71991W        W44405  20.270   0.982   1.800
71992W        W44406   2.395   2.415  11.593
71993W        W44407  42.828  15.239   2.372
71994W        W44408  13.329  27.685   2.831
71995W        W44409  24.583  41.909  10.898
71996W        W44410  26.993  11.319  11.890
71997W        W44411  29.468  17.664   2.394
71998W        W44412  32.432   4.703  14.835
71999W        W44413  32.585  12.256  12.491
72000W        W44414  15.269  15.667   0.834
72001W        W44415  19.100  29.638  14.820
72002W        W44416   4.252  42.000  10.063
72003W        W44417  20.183  38.829  10.003
72004W        W44418   7.709  36.054  12.042
72005W        W44419  21.203  12.796   2.392
72006W        W44420  21.514  39.453  14.006
72007W        W44421   0.763  42.009  13.510
72008W        W44422   1.799  40.353  14.871
72009W        W44423  16.725  30.084   4.708
72010W        W44424  27.154  20.532  13.894
72011W        W44425  16.185  34.008   0.398
72012W        W44426  23.512  16.761   0.403
72013W        W44427  20.179  35.462  14.288
72014W        W44428  28.618  43.355   2.255
72015W        W44429  33.010  25.524  12.483
72016W        W44430  29.970   1.866   4.140
72017W        W44431  43.870  20.259   0.835
72018W        W44432  43.963   2.290  11.537
72019W        W44433   8.316  43.821   0.387
72020W        W44434   5.313   5.811   2.337
72021W        W44435  39.865  16.219  14.298
72022W        W44436   9.855  21.077  13.942
72023W        W44437  20.069  32.040   1.746
72024W        W44438  24.490  20.169   4.299
72025W        W44439  11.814  35.074   1.268
72026W        W44440  44.301  11.358   1.740
72027W        W44441  23.231  22.611   1.905
72028W        W44442  36.059  38.446  11.017
72029W        W44443  32.111  39.883  13.444
72030W        W44444   4.373   3.877  13.415
72031W        W44445  25.174  27.609   0.728
72032W        W44446  14.687  42.818  12.075
72033W        W44447   2.296  37.832  12.447
72034W        W44448  15.591  32.566   3.870
72035W        W44449  43.945  29.479   2.364
72036W        W44450  29.075  44.008   1.912
72037W        W44451  40.987  42.818   0.464
72038W        W44452  41.452   0.908  12.387
72039W        W44453   3.943  43.847  12.455
72040W        W44454   6.227  18.693  14.863
72041W        W44455  42.451  12.163   0.283
72042W        W44456  18.265  34.963  13.370
72043W        W44457   4.305  29.454  11.533
72044W        W44458   3.406  40.350   1.859
72045W        W44459  39.420  29.944   0.734
72046W        W44460  17.148  19.188   1.388
72047W        W44461  14.633  35.957  12.521
72048W        W44462  33.513   9.874   4.652
72049W        W44463  38.531  18.552  13.489
72050W        W44464  43.019  22.532   1.699
72051W        W44465  37.471   6.205  12.490
72052W        W44466   4.730  19.709  12.507
72053W        W44467   6.850  13.798   3.230
72054W        W44468   3.910  12.264   2.228
72055W        W44469  23.616  17.113   4.828
72056W        W44470  19.581  35.924   0.844
72057W        W44471   4.294  22.621  14.843
72058W        W44472   2.346  23.541   4.292
72059W        W44473  24.583  17.242   3.287
72060W        W44474  42.525  23.725  12.472
72061W        W44475  17.195   1.437   2.767
72062W        W44476  35.908  38.491   0.786
72063W        W44477  41.435  10.304  13.851
72064W        W44478  22.032  29.105   0.917
72065W        W44479  27.972  13.624  11.864
72066W        W44480  10.642  10.181  10.538
72067W        W44481  27.958   6.283   3.384
72068W        W44482  16.162  17.080  10.959
72069W        W44483  44.382  42.924   2.837
72070W        W44484  23.650  42.887  11.440
72071W        W44485  43.853   3.367   1.878
72072W        W44486  10.226   5.255   4.822
72073W        W44487  32.631  40.422  10.977
72074W        W44488  23.492   9.656   2.794
72075W        W44489   3.283  20.124  11.011
72076W        W44490  34.048  38.962   2.693
72077W        W44491  32.530  30.127  13.401
72078W        W44492  22.505  35.080   3.769
72079W        W44493   4.355   6.769  12.372
72080W        W44494  16.743  42.968  10.589
72081W        W44495  29.103  23.651   1.388
72082W        W44496   5.703  11.179  14.862
72083W        W44497  31.607  41.010  14.858
72084W        W44498  36.003  22.518   3.320
72085W        W44499  44.388  22.695   3.260
72086W        W44500   6.292  20.761   0.471
72087W        W44501   1.845  18.147   1.317
72088W        W44502  41.369  10.874  13.014
72089W        W44503   9.826  26.651  13.462
72090W        W44504  21.535  17.694   4.668
72091W        W44505  43.811  27.943  14.344
72092W        W44506  25.696  25.196   4.263
72093W        W44507  35.458  40.504   3.797
72094W        W44508  22.195  26.959   1.834
72095W        W44509   3.366  13.300   5.735
72096W        W44510  36.951  40.525  12.486
72097W        W44511   6.276  30.046   2.258
72098W        W44512  15.633  31.971   2.215
72099W        W44513  18.143  35.961   3.754
72100W        W44514  20.744  44.336  10.077
72101W        W44515  24.120  37.507  14.457
72102W        W44516  24.705  23.542  14.905
72103W        W44517  31.045   4.804   3.329
72104W        W44518   3.295  21.583   3.773
72105W        W44519   8.794  10.821  14.018
72106W        W44520  12.743  39.043   4.767
72107W        W44521  29.635  42.952  13.903
72108W        W44522  32.015  28.024  11.948
72109W        W44523  41.823  12.734   2.887
72110W        W44524   4.449  36.527   1.801
72111W        W44525  26.195   2.256   1.786
72112W        W44526  15.086  36.050   3.645
72113W        W44527  12.224  18.197  11.515
72114W        W44528  20.670  15.106  11.098
72115W        W44529  18.231  13.202  10.951
72116W        W44530   3.760  18.050   2.831
72117W        W44531  29.441  17.663   4.265
72118W        W44532   8.220  10.356   4.186
72119W        W44533   3.289  36.522   4.314
72120W        W44534  15.113   3.932   3.325
72121W        W44535  35.888  41.975   0.441
72122W        W44536  29.480  22.604   9.925
72123W        W44537  34.435  21.072   4.808
72124W        W44538   9.259  20.545  11.543
72125W        W44539   6.227  41.909  10.129
72126W        W44540  15.228  13.689   2.400
72127W        W44541   6.332  29.123  10.156
72128W        W44542  38.844   7.813   3.323
72129W        W44543  15.583  11.167  10.989
72130W        W44544  12.679   6.374   9.551
72131W        W44545  36.469  10.694  11.938
72132W        W44546  15.117   8.828  11.899
72133W        W44547  30.429  14.225  14.902
72134W        W44548  30.526   4.310   0.789
72135W        W44549   6.209  34.585   4.686
72136W        W44550  33.388  38.557  11.954
72137W        W44551  30.418   8.392   2.753
72138W        W44552  30.586  39.955  13.546
72139W        W44553  28.613   6.402   3.733
72140W        W44554  35.954  38.497  12.481
72141W        W44555   1.339  17.263  13.990
72142W        W44556   2.782  15.090  14.801
72143W        W44557  30.528  31.444   1.253
72144W        W44558  17.592  41.915   0.333
72145W        W44559  33.576   0.965  12.079
72146W        W44560  29.091  14.771  13.835
72147W        W44561  30.114  40.438  12.960
72148W        W44562   3.943  19.588  11.026
72149W        W44563  20.748  42.018  13.027
72150W        W44564  18.200  27.476   2.270
72151W        W44565  18.600  44.887  14.351
72152W        W44566  11.275   7.844   3.683
72153W        W44567  10.703   5.345   1.851
72154W        W44568  30.615  10.662  14.404
72155W        W44569   5.231  33.079   1.764
72156W        W44570  28.982  44.923   3.376
72157W        W44571  36.470  19.161   1.288
72158W        W44572  21.746  32.443   2.763
72159W        W44573  34.512  28.480  13.798
72160W        W44574  28.143  38.440   1.365
72161W        W44575  30.479   0.271  11.457
72162W        W44576  17.114   2.396  13.431
72163W        W44577   2.410  20.582   1.406
72164W        W44578  22.660  38.479  14.296
72165W        W44579   1.808  23.536  10.594
72166W        W44580  28.094  13.759  11.041
72167W        W44581  19.557  31.048  14.861
72168W        W44582  30.912  30.429  14.279
72169W        W44583  41.864  41.797   0.855
72170W        W44584  24.169  12.318  11.042
72171W        W44585  25.566  30.040  11.017
72172W        W44586   2.964  15.217  11.383
72173W        W44587  31.416  36.928   0.888
72174W        W44588  42.330  17.103   2.876
72175W        W44589  31.486  20.560   4.195
72176W        W44590  28.486  36.491  11.938
72177W        W44591   9.701  20.724  13.383
72178W        W44592  25.081  24.512  12.477
72179W        W44593  40.046  39.809  12.943
72180W        W44594   1.256  24.596  14.345
72181W        W44595  36.092  23.157   2.293
72182W        W44596  17.672  40.534   2.750
72183W        W44597  24.482   2.416  11.959
72184W        W44598  28.965  31.057   2.392
72185W        W44599  29.480  44.774   3.381
72186W        W44600   0.780  10.290  12.355
72187W        W44601  18.744  22.113   3.824
72188W        W44602  33.482   6.321   4.230
72189W        W44603  11.673  42.395  13.812
72190W        W44604  22.102  25.165   4.727
72191W        W44605  27.612  22.655   2.193
72192W        W44606   7.253  11.735   1.321
72193W        W44607  14.185   7.175  10.957
72194W        W44608  12.149  38.395   3.282
72195W        W44609  40.305  10.322   2.810
72196W        W44610  35.463  31.076   4.789
72197W        W44611  32.467  28.104  11.007
72198W        W44612  16.095  35.435   1.408
72199W        W44613  10.776   7.348   2.737
72200W        W44614  17.649  33.459   0.374
72201W        W44615   1.970  10.816  14.500
72202W        W44616  29.532  38.921  10.627
72203W        W44617  10.720  44.378  14.302
72204W        W44618  24.628  34.912   4.149
72205W        W44619   0.484  30.051  12.434
72206W        W44620  35.037  16.662  10.425
72207W        W44621  28.036  38.995  11.101
72208W        W44622  12.204  34.930   3.776
72209W        W44623  40.442  26.656   5.112
72210W        W44624   2.804  20.088   4.204
72211W        W44625  40.378  27.627   3.776
72212W        W44626   3.941  31.602  14.988
72213W        W44627  28.961  10.848   1.811
72214W        W44628   5.297  17.599   4.784
72215W        W44629  30.095   3.375   4.168
72216W        W44630  24.212  33.522   4.164
72217W        W44631   8.202   6.895  14.906
72218W        W44632   3.948  20.071  12.020
72219W        W44633  25.580   9.719   2.766
72220W        W44634  40.019   2.934   3.192
72221W        W44635  38.904  24.107  10.087
72222W        W44636   8.674   3.830   1.875
72223W        W44637  16.157  14.767   0.754
72224W        W44638  40.974   4.293   4.782
72225W        W44639  20.549  25.048  11.029
72226W        W44640  41.802  27.578  11.951
72227W        W44641  32.560  37.979   2.389
72228W        W44642  25.079  15.133  11.458
72229W        W44643  15.632  32.006  14.887
72230W        W44644  23.719  28.616   3.831
72231W        W44645  26.499  38.340   0.778
72232W        W44646  23.502  18.791  10.904
72233W        W44647  24.973  34.120   4.120
72234W        W44648  12.618  16.790  12.082
72235W        W44649   2.951   2.334  11.072
72236W        W44650  19.571  35.056   5.109
72237W        W44651  11.362  26.040  11.970
72238W        W44652  35.037  40.894  14.493
72239W        W44653  27.998  44.290   4.340
72240W        W44654  25.670  25.977   4.733
72241W        W44655  21.638  35.866  14.389
72242W        W44656  32.476  23.000  11.519
72243W        W44657  33.574  32.624   1.733
72244W        W44658  13.755  23.698  14.907
72245W        W44659   1.296   4.416  13.466
72246W        W44660  40.420  37.563  12.356
72247W        W44661  27.536  42.018  11.088
72248W        W44662  31.025  18.553   1.317
72249W        W44663  44.369  13.187  10.095
72250W        W44664  23.735  32.527   1.349
72251W        W44665  37.482  17.717   0.286
72252W        W44666  23.607  10.647   2.329
72253W        W44667   7.221  14.168   0.908
72254W        W44668   2.846  35.990   0.811
72255W        W44669  10.240   0.905   2.398
72256W        W44670  28.142   1.830   4.740
72257W        W44671  28.557  31.065   4.164
72258W        W44672  35.438  16.113   3.266
72259W        W44673  13.147  41.984   3.214
72260W        W44674   5.373  26.483   2.687
72261W        W44675  36.841  27.954   4.284
72262W        W44676  20.174  11.802  10.951
72263W        W44677   0.929  21.563  12.394
72264W        W44678  13.679  38.911   3.740
72265W        W44679  15.128  38.560   2.296
72266W        W44680  15.099  21.043  14.361
72267W        W44681   4.225  30.156  10.544
72268W        W44682  41.500  23.124   4.317
72269W        W44683  17.073  34.053   2.679
72270W        W44684   1.432   1.892  12.954
72271W        W44685  30.417  19.753   3.295
72272W        W44686  35.416  14.118  10.506
72273W        W44687  23.114  42.284   1.330
72274W        W44688  19.044   4.318  13.035
72275W        W44689  32.117  15.688   1.729
72276W        W44690  28.636   4.346  12.053
72277W        W44691  15.814  39.939   3.690
72278W        W44692   0.882  43.985   0.866
72279W        W44693   2.887  26.994  14.787
72280W        W44694  17.158  10.664   1.812
72281W        W44695  33.410   7.410   0.352
72282W        W44696   4.836  18.081   0.751
72283W        W44697  19.059  36.397  13.458
72284W        W44698  44.363  27.486  12.048
72285W        W44699  36.520  38.020  14.925
72286W        W44700   8.309   5.857  11.070
72287W        W44701  16.683   8.734   4.647
72288W        W44702  20.599  44.005  11.879
72289W        W44703  27.973  16.727   4.831
72290W        W44704  39.872  23.139  11.903
72291W        W44705  39.390  42.884  10.992
72292W        W44706  19.156  27.561   1.216
72293W        W44707  42.896  38.013   0.818
72294W        W44708  31.428  33.078  14.363
72295W        W44709  35.365  21.071  13.373
72296W        W44710  39.371  18.768   2.871
72297W        W44711  43.403  35.576   3.784
72298W        W44712   4.866  43.393  13.455
72299W        W44713  19.562  29.024   3.157
72300W        W44714  22.243  32.500   2.851
72301W        W44715   5.260  15.122   2.394
72302W        W44716  23.242   2.431   1.277
72303W        W44717  24.101  14.187  14.442
72304W        W44718  41.379   9.689   4.758
72305W        W44719  10.705  31.068  11.384
72306W        W44720   8.379  21.208   3.813
72307W        W44721   9.183   0.492   2.821
72308W        W44722  16.104  41.486  12.563
72309W        W44723  23.513  13.294   4.707
72310W        W44724  23.235  15.209  13.876
72311W        W44725   2.888  30.072  13.805
72312W        W44726  21.665  27.049  10.499
72313W        W44727  23.520   8.258  13.977
72314W        W44728  37.011  14.223   4.623
72315W        W44729  28.653  42.485  11.493
72316W        W44730   5.837  18.692  10.897
72317W        W44731  13.153  22.698  13.872
72318W        W44732  38.521  23.629  12.546
72319W        W44733   9.701  38.426  14.400
72320W        W44734  21.105   4.799   9.992
72321W        W44735   2.741   8.279  14.776
72322W        W44736  43.293  22.233   3.348
72323W        W44737  30.089  28.505   0.346
72324W        W44738  26.082  20.757   0.906
72325W        W44739  25.575  16.293  10.150
72326W        W44740   3.742  35.364   2.712
72327W        W44741   1.829  44.324  12.425
72328W        W44742   7.323  44.489   2.888
72329W        W44743  24.708   9.818   3.805
72330W        W44744  27.125  43.908  10.022
72331W        W44745  22.536   4.281  12.548
72332W        W44746  29.044  26.961   2.664
72333W        W44747  29.996  44.792  14.316
72334W        W44748  37.427   4.886  12.878
72335W        W44749  11.645   5.772   2.675
72336W        W44750  36.078  36.881   1.392
72337W        W44751  29.627  16.307  11.970
72338W        W44752  44.322  24.588  12.026
72339W        W44753  42.361  44.000   0.964
72340W        W44754  12.793  35.995  11.599
72341W        W44755  16.677   9.804  10.450
72342W        W44756  29.952  32.101   0.476
72343W        W44757  18.736  28.148   1.416
72344W        W44758   4.282   8.833  13.006
72345W        W44759  11.846   0.965  14.026
72346W        W44760  30.498  41.902   4.816
72347W        W44761  15.648  34.915   1.845
72348W        W44762   7.876  34.965  11.493
72349W        W44763  11.328  34.068  14.423
72350W        W44764  39.994   4.252  14.960
72351W        W44765  39.962  37.839   1.293
72352W        W44766  41.036  34.110  12.388
72353W        W44767  44.427  23.538   0.780
72354W        W44768  19.105   9.885  14.011
72355W        W44769  28.674  33.043  13.987
72356W        W44770  31.068  13.836  14.514
72357W        W44771  43.383  29.170  11.538
72358W        W44772  27.543  31.623  13.046
72359W        W44773  32.490  12.850   3.785
72360W        W44774  14.641   0.448   0.285
72361W        W44775  35.078  33.028   1.265
72362W        W44776  21.206  18.586   4.768
72363W        W44777  16.778  35.029  14.427
72364W        W44778  14.632  40.468   4.663
72365W        W44779  12.654   7.328   2.875
72366W        W44780  15.235  24.072   3.794
72367W        W44781   0.910  38.958   1.830
72368W        W44782  10.159  24.672   2.666
72369W        W44783  30.951   7.246  10.452
72370W        W44784  34.407  44.930  11.094
72371W        W44785   1.431   3.790   4.214
72372W        W44786  12.756   1.370   0.276
72373W        W44787  26.630  19.641   1.377
72374W        W44788  35.916  18.745  10.484
72375W        W44789   8.828  16.260  11.416
72376W        W44790  16.693  19.135   3.668
72377W        W44791   5.202  13.221   4.838
72378W        W44792   9.195  11.667   4.352
72379W        W44793   6.730  38.570   0.298
72380W        W44794   3.295  38.029  10.913
72381W        W44795   7.825  21.543   4.620
72382W        W44796   1.843  25.206   3.158
72383W        W44797  29.098  25.532   3.828
72384W        W44798  11.708   1.448  11.395
72385W        W44799  38.821   6.210   3.177
72386W        W44800  15.129   6.353  12.065
72387W        W44801  15.167  32.600   3.848
72388W        W44802   3.859   1.330   1.704
72389W        W44803  30.095   6.730  10.534
72390W        W44804  13.198   0.810  11.972
72391W        W44805  32.102  40.896   0.756
72392W        W44806  44.932   2.250  11.040
72393W        W44807  40.421  26.979  10.644
72394W        W44808  40.804  15.773  11.386
72395W        W44809   3.799  33.464  10.458
72396W        W44810  34.942  39.498   1.229
72397W        W44811  18.712  22.102   0.823
72398W        W44812  18.212  44.781   4.807
72399W        W44813  36.483  22.547  14.355
72400W        W44814   9.314  15.723   0.956
72401W        W44815   5.763  27.548   0.804
72402W        W44816  37.409   6.409  13.448
72403W        W44817  33.442  10.265   4.239
72404W        W44818  17.151  25.004  11.388
72405W        W44819  36.412   5.870   4.315
72406W        W44820  28.561  10.219  11.118
72407W        W44821  41.526  37.937   1.436
72408W        W44822  10.840   1.254   1.412
72409W        W44823  23.012  35.526  11.952
72410W        W44824  39.028   5.876  14.373
72411W        W44825  33.077  30.006  12.838
72412W        W44826  33.991  15.285  10.487
72413W        W44827  32.945  28.125  14.506
72414W        W44828  22.719  36.535   3.238
72415W        W44829   4.895   3.423   9.956
72416W        W44830  33.389  41.445   1.214
72417W        W44831   2.295  28.960  11.949
72418W        W44832  42.481  36.508  10.410
72419W        W44833   0.787  28.142   3.821
72420W        W44834  28.492  18.627   1.261
72421W        W44835  20.682  30.644   3.273
72422W        W44836  25.524  13.820  14.784
72423W        W44837  37.921  21.151  13.897
72424W        W44838  32.110  29.589   0.880
72425W        W44839  15.584  22.508   2.327
72426W        W44840  34.420   8.197   4.204
72427W        W44841  11.668   8.242   4.676
72428W        W44842   4.711  28.035  12.444
72429W        W44843  19.060   5.818   4.208
72430W        W44844  41.905   0.303  14.398
72431W        W44845  35.434  44.921  11.520
72432W        W44846  31.536  34.522  14.392
72433W        W44847  34.936  31.578   4.709
72434W        W44848  16.772   7.347   3.640
72435W        W44849  41.934   8.764  14.329
72436W        W44850  43.795  17.782   3.175
72437W        W44851  27.477  28.639   0.809
72438W        W44852  40.414  23.615   0.769
72439W        W44853  15.680   6.750  10.558
72440W        W44854  18.777  31.901   3.671
72441W        W44855  13.641  21.578   0.369
72442W        W44856  28.158  30.141  13.479
72443W        W44857   0.778  17.305  11.938
72444W        W44858  31.442  11.717  13.357
72445W        W44859   6.225  26.571   0.825
72446W        W44860  12.215  37.504   0.447
72447W        W44861  31.536  24.620   3.638
72448W        W44862  25.057  33.452   0.824
72449W        W44863  20.039  17.577   4.154
72450W        W44864  27.152  38.439  11.968
72451W        W44865  29.645   4.433  12.855
72452W        W44866  12.326  38.886  13.957
72453W        W44867  28.086   5.246  12.042
72454W        W44868   2.864  15.729   2.327
72455W        W44869  16.215  30.600   2.669
72456W        W44870  39.443  14.337  14.513
72457W        W44871  43.932  39.396  12.474
72458W        W44872  38.881  38.013  12.407
72459W        W44873  33.521  21.744   3.365
72460W        W44874  28.604  24.605   1.331
72461W        W44875  43.765  23.993   4.200
72462W        W44876  32.439  10.217   4.640
72463W        W44877   6.787  25.032  14.830
72464W        W44878   5.319  26.973  14.760
72465W        W44879  19.679  20.629   0.439
72466W        W44880  17.078  19.091   2.876
72467W        W44881  32.507  44.990   3.285
72468W        W44882  41.974  28.646  13.442
72469W        W44883   5.286  28.575   5.273
72470W        W44884  24.077  38.410  11.023
72471W        W44885  19.580  23.596   2.692
72472W        W44886  19.065   6.744   2.409
72473W        W44887  12.630  31.570  10.918
72474W        W44888  27.639  27.075  12.999
72475W        W44889  14.774   1.768  10.977
72476W        W44890  22.641  26.191   4.182
72477W        W44891  44.416   4.879  10.894
72478W        W44892  30.506   2.740   0.862
72479W        W44893  30.030  31.108   1.822
72480W        W44894   5.297  13.803  13.811
72481W        W44895  34.906  26.049  10.631
72482W        W44896  30.634  12.842   1.850
72483W        W44897   3.890  24.479   3.223
72484W        W44898  36.518  37.459   3.290
72485W        W44899  14.335  44.960   1.731
72486W        W44900  16.801  27.105   0.858
72487W        W44901   3.265  21.181  13.487
72488W        W44902  21.743  43.961  12.982
72489W        W44903  30.967  10.803   3.696
72490W        W44904  10.669  26.034  13.961
72491W        W44905  24.691  22.730  11.583
72492W        W44906   2.943  36.465  10.933
72493W        W44907  31.981  43.449   1.785
72494W        W44908  25.141  18.637   0.845
72495W        W44909  23.672  12.220   2.737
72496W        W44910  16.176  18.786  14.938
72497W        W44911  33.389  26.169   4.333
72498W        W44912  42.898  20.094  12.037
72499W        W44913  37.078  18.153   4.135
72500W        W44914  29.658  17.594  14.909
72501W        W44915  18.692  10.327   0.846
72502W        W44916  14.778  19.094   4.766
72503W        W44917   5.808   3.342  10.969
72504W        W44918  17.189   9.797   2.736
72505W        W44919  41.372  31.050  13.324
72506W        W44920  27.951  32.447  12.888
72507W        W44921   2.451  17.576  14.504
72508W        W44922  24.641  40.827  13.546
72509W        W44923  25.079  37.354   5.171
72510W        W44924  16.755  13.699  14.024
72511W        W44925  39.374  32.117  11.448
72512W        W44926  19.255   0.284   0.450
72513W        W44927  40.375  42.940   1.223
72514W        W44928  27.156   1.259  14.854
72515W        W44929  20.182  24.172  13.524
72516W        W44930  11.653  37.914  12.088
72517W        W44931  29.536  36.437   1.787
72518W        W44932  34.513   0.889  11.395
72519W        W44933   3.876  29.039   5.182
72520W        W44934  37.392   8.711   4.660
72521W        W44935  37.401   5.933   3.191
72522W        W44936  37.440  25.980   0.425
72523W        W44937  11.817  34.051   1.748
72524W        W44938  17.268  10.775   3.243
72525W        W44939  18.555   0.431   2.716
72526W        W44940  28.948  40.466   1.847
72527W        W44941  42.944  11.286   2.727
72528W        W44942  18.148  34.119   3.226
72529W        W44943  16.245  23.018  14.425
72530W        W44944   8.726   5.701  12.008
72531W        W44945   7.263  38.893  11.425
72532W        W44946  43.018  31.642  12.881
72533W        W44947  31.974  21.203  11.537
72534W        W44948  39.856  18.195   4.803
72535W        W44949  29.518   7.824  13.545
72536W        W44950   3.813  41.421  14.878
72537W        W44951   0.468   2.231   4.783
72538W        W44952  34.480  40.914  11.434
72539W        W44953   2.821  33.578   3.783
72540W        W44954  18.684  11.211   3.253
72541W        W44955   3.804  44.871  13.412
72542W        W44956   5.399  41.805   2.250
72543W        W44957  23.129  40.890   3.792
72544W        W44958  22.247  18.207  13.484
72545W        W44959  34.607   1.896  13.361
72546W        W44960  41.816  25.205  12.972
72547W        W44961  33.572  12.847  12.552
72548W        W44962  38.006   5.416   3.230
72549W        W44963  13.802  25.034  13.870
72550W        W44964   1.249   9.340  13.311
72551W        W44965   6.914  42.815  11.893
72552W        W44966  25.636  29.090   3.839
72553W        W44967  21.126  39.933   3.763
72554W        W44968  30.975  22.134  14.387
72555W        W44969  16.679  10.817   4.162
72556W        W44970  43.276   0.764  12.353
72557W        W44971  23.692  34.421   1.326
72558W        W44972  12.295  20.626  11.886
72559W        W44973   6.302  14.218  13.323
72560W        W44974  26.670  19.073  11.563
72561W        W44975  29.076  21.223   3.657
72562W        W44976  22.652  15.296  14.451
72563W        W44977   6.802  26.987  14.972
72564W        W44978  27.620  26.027  11.100
72565W        W44979   1.886   5.264   2.321
72566W        W44980  16.074   1.856  11.502
72567W        W44981   3.802   5.892  11.420
72568W        W44982   5.382   5.217  11.574
72569W        W44983  26.037  33.548   0.436
72570W        W44984  15.690  41.403   3.158
72571W        W44985   6.221   4.355  13.036
72572W        W44986  22.617  32.489   1.241
72573W        W44987  25.583  18.564  10.030
72574W        W44988  11.863  42.491   0.850
72575W        W44989  37.951  31.499  14.012
72576W        W44990  19.625  36.854  14.909
72577W        W44991  38.989   5.246  12.024
72578W        W44992   7.730  19.246   1.344
72579W        W44993   7.763  23.222  13.995
72580W        W44994  36.490  41.373  14.960
72581W        W44995  16.306   4.842   3.816
72582W        W44996  37.964  32.129   2.394
72583W        W44997  34.944  16.211  14.815
72584W        W44998  41.809  35.078  12.060
72585W        W44999  16.225  13.777  12.052
72586W        W45000   3.455  37.385  10.098
72587W        W45001  39.318  15.259  11.064
72588W        W45002  41.828  29.001  10.031
72589W        W45003  41.465  22.581   0.310
72590W        W45004  26.040  39.918   3.814
72591W        W45005  26.978  27.610   3.816
72592W        W45006   5.257  20.049   4.645
72593W        W45007  32.133  30.538   4.805
72594W        W45008  30.953  38.516  14.887
72595W        W45009  15.218   4.255   1.851
72596W        W45010  23.139   0.950  11.484
72597W        W45011  34.396   7.224   2.696
72598W        W45012   2.294  30.151  10.640
72599W        W45013  35.870  31.974   2.234
72600W        W45014  38.523  16.675  12.483
72601W        W45015  39.332  35.466  14.514
72602W        W45016  23.062  44.268  13.460
72603W        W45017  22.022  25.050   1.416
72604W        W45018   8.696  31.640  11.886
72605W        W45019   8.276   0.381  11.877
72606W        W45020   5.412  14.696  10.510
72607W        W45021  19.668   1.947  10.911
72608W        W45022  20.524   6.828   4.669
72609W        W45023  34.462  14.153  13.980
72610W        W45024  13.693  33.385   4.765
72611W        W45025  44.407  39.481   2.729
72612W        W45026  15.128  20.232  10.091
72613W        W45027  27.447  17.665   4.681
72614W        W45028  29.458  38.899   0.885
72615W        W45029  36.582  32.890  12.477
72616W        W45030  12.296  37.881  12.348
72617W        W45031   8.236  20.133   3.823
72618W        W45032  27.090  25.545   4.276
72619W        W45033  29.118  33.036  12.079
72620W        W45034  40.354  40.815  11.080
72621W        W45035  32.443  38.409   2.262
72622W        W45036  28.000   6.331  10.983
72623W        W45037   3.301   2.754   0.325
72624W        W45038   5.257   9.286  12.957
72625W        W45039  41.391  11.240   3.709
72626W        W45040  11.311   7.198   1.860
72627W        W45041  43.456   0.807   1.922
72628W        W45042  42.777  39.993  14.455
72629W        W45043  29.498  17.273  10.611
72630W        W45044  20.195   1.419  14.509
72631W        W45045  19.238  42.342  14.907
72632W        W45046  25.193  24.629   1.855
72633W        W45047  32.401   1.809  13.896
72634W        W45048  25.484  16.149  12.410
72635W        W45049  28.080  11.700   0.326
72636W        W45050  44.781  27.951   3.709
72637W        W45051   3.825   9.350   2.663
72638W        W45052  35.416   5.715   0.728
72639W        W45053   8.319  30.480   4.731
72640W        W45054  41.446  30.464  13.967
72641W        W45055   3.839  34.930   4.729
72642W        W45056  10.252   6.696   4.207
72643W        W45057  15.600   7.774  14.469
72644W        W45058   1.328  15.760  10.470
72645W        W45059  25.574   3.830  14.394
72646W        W45060  21.756  42.490   4.327
72647W        W45061  22.059  19.273  11.504
72648W        W45062  31.968  14.112  11.909
72649W        W45063  43.862  17.637   4.162
72650W        W45064  37.336  11.708  13.841
72651W        W45065  37.508  18.676   0.929
72652W        W45066  19.113  14.329  14.332
72653W        W45067   4.441  35.528   1.331
72654W        W45068   5.410  19.208  12.533
72655W        W45069  17.628   3.847   4.661
72656W        W45070  35.514   5.803  12.870
72657W        W45071  12.304  39.322   1.304
72658W        W45072  31.124  17.118  12.464
72659W        W45073  18.610   9.785   4.625
72660W        W45074   3.306  28.660  13.499
72661W        W45075  28.603  41.386  10.577
72662W        W45076  37.863   6.211  14.405
72663W        W45077  38.988   4.314  10.456
72664W        W45078   3.339   9.184  11.987
72665W        W45079  37.911  20.590   2.274
72666W        W45080  35.943   7.810   2.246
72667W        W45081  36.060   1.772   1.284
72668W        W45082  14.202   9.669  10.050
72669W        W45083  34.060  27.181  14.320
72670W        W45084  33.593  18.250   3.345
72671W        W45085   1.946  10.287   4.303
72672W        W45086   3.380  24.545   1.426
72673W        W45087  15.579  40.987   4.723
72674W        W45088  29.166  38.373  11.579
72675W        W45089  38.378  36.940  12.574
72676W        W45090  35.426  26.586  12.389
72677W        W45091  24.207   3.908   4.160
72678W        W45092   3.792  21.072   2.773
72679W        W45093  40.527   4.250  14.031
72680W        W45094  37.024   3.736   2.675
72681W        W45095  28.966  38.477  14.844
72682W        W45096   2.815   7.711  14.319
72683W        W45097   8.816  39.947   0.363
72684W        W45098  26.521   7.330  13.990
72685W        W45099   3.801  11.161   2.240
72686W        W45100  14.626   2.860   1.212
72687W        W45101  10.778  20.567  13.525
72688W        W45102  37.973  35.369  10.427
72689W        W45103   5.898  19.623  12.529
72690W        W45104  12.687  23.701   3.376
72691W        W45105  19.210  25.707  12.408
72692W        W45106   8.660  14.108   2.679
72693W        W45107   2.242  12.362  10.627
72694W        W45108  29.624  35.513  12.920
72695W        W45109  35.011  34.495   4.278
72696W        W45110  38.478  38.503  14.334
72697W        W45111  43.399  17.143  14.998
72698W        W45112  34.035  41.887  11.911
72699W        W45113  36.372  37.016   1.872
72700W        W45114  11.667  13.209   3.781
72701W        W45115  35.472  34.065  12.007
72702W        W45116  40.490  24.185   1.254
72703W        W45117  27.598  41.469   4.197
72704W        W45118   2.365  37.959   3.729
72705W        W45119  24.709   9.702   4.731
72706NA+    NA+45120  20.577  44.375  11.955
72707NA+    NA+45121  14.181   6.218   2.674
72708NA+    NA+45122  18.624  38.334   0.802
72709NA+    NA+45123  24.101   4.337   4.734
72710NA+    NA+45124  23.026  17.138   1.338
72711NA+    NA+45125  21.080  21.178  13.543
72712NA+    NA+45126   2.232  20.745   3.672
72713NA+    NA+45127  39.022  32.908  12.424
72714NA+    NA+45128  26.540  12.243  14.837
72715NA+    NA+45129   1.972  26.588  12.966
72716NA+    NA+45130  16.112  25.622  11.003
72717NA+    NA+45131  17.697  13.235   4.133
72718NA+    NA+45132  21.527  13.273  13.513
72719NA+    NA+45133   7.712  33.080  12.988
72720NA+    NA+45134  12.288  29.109  14.376
72721NA+    NA+45135  41.851  38.877  11.464
72722NA+    NA+45136  41.480  44.478   2.809
72723NA+    NA+45137  22.071  20.532  14.302
72724NA+    NA+45138  15.717  22.056  13.877
72725NA+    NA+45139  24.695  24.164   2.693
72726NA+    NA+45140  29.665  30.113   3.726
72727NA+    NA+45141  44.764  22.564   4.803
72728NA+    NA+45142   2.411  12.648  10.533
72729NA+    NA+45143  25.990  10.344   2.714
72730NA+    NA+45144   7.740  41.490   2.819
72731NA+    NA+45145  24.591  44.478   4.668
72732NA+    NA+45146  22.058  41.900  14.027
72733NA+    NA+45147  31.406   6.742   1.808
72734NA+    NA+45148  13.287  23.158  14.819
72735NA+    NA+45149  38.874   0.966  10.414
72736NA+    NA+45150  40.411  37.889   2.313
72737NA+    NA+45151  44.963  44.310  14.971
72738NA+    NA+45152  25.694   2.277   3.147
72739NA+    NA+45153   1.830  40.501  12.031
72740NA+    NA+45154   7.718  10.188   4.628
72741NA+    NA+45155  31.618  26.115   0.267
72742NA+    NA+45156  22.178  26.700   3.192
72743NA+    NA+45157  34.959  39.047   0.947
72744NA+    NA+45158  30.068  21.036  11.511
72745NA+    NA+45159  41.517  35.437  14.904
72746NA+    NA+45160  12.666  29.666   4.692
72747NA+    NA+45161  12.822  19.649  12.055
72748NA+    NA+45162  35.907  25.536  12.843
72749NA+    NA+45163  44.777  39.942   1.265
72750NA+    NA+45164  33.050  41.510   2.743
72751NA+    NA+45165  40.378  29.961   3.738
72752NA+    NA+45166  17.639  30.031  12.971
72753NA+    NA+45167  35.419  15.648   2.680
72754NA+    NA+45168  41.469  13.836   2.875
72755NA+    NA+45169  41.378  32.536  11.475
72756NA+    NA+45170  33.416  32.952  10.492
72757NA+    NA+45171   0.400  17.067  10.893
72758NA+    NA+45172  40.999  15.785  14.837
72759NA+    NA+45173  36.401  17.724  12.413
72760NA+    NA+45174  42.450  16.665  13.482
72761NA+    NA+45175   5.224  36.513  11.401
72762NA+    NA+45176  42.394  32.634  10.469
72763NA+    NA+45177  42.016  44.487   9.971
72764NA+    NA+45178  30.141  29.062  13.804
72765NA+    NA+45179  41.866   3.277  10.898
72766NA+    NA+45180  23.103  36.873   4.269
72767NA+    NA+45181  11.693  16.317  14.499
72768NA+    NA+45182  10.174  33.564  12.863
72769NA+    NA+45183  11.139  23.659   0.953
72770NA+    NA+45184  44.345  31.022   1.818
72771NA+    NA+45185  19.641   1.310  13.439
72772NA+    NA+45186   1.906  20.083  12.014
72773NA+    NA+45187  11.303   8.776  10.903
72774NA+    NA+45188  16.770   9.284   2.763
72775NA+    NA+45189  40.042  13.699   2.192
72776NA+    NA+45190  25.531  15.130   4.117
72777NA+    NA+45191   7.798  36.963  10.637
72778NA+    NA+45192  43.513   9.847   4.681
72779NA+    NA+45193  27.118  43.455   1.903
72780NA+    NA+45194  10.719   1.936   3.867
72781NA+    NA+45195   7.793   7.298   3.767
72782NA+    NA+45196  41.448  10.380  10.061
72783NA+    NA+45197   3.873  36.917   3.188
72784NA+    NA+45198  28.058  28.077  10.001
72785NA+    NA+45199  18.140  11.664   2.887
72786NA+    NA+45200  13.142   3.283  12.561
72787NA+    NA+45201  22.169  29.468   0.398
72788NA+    NA+45202  30.032  27.126   2.402
72789NA+    NA+45203  32.632  29.065  11.076
72790NA+    NA+45204   7.248  42.485   1.314
72791NA+    NA+45205  26.507  14.174  11.941
72792NA+    NA+45206  12.651  10.735   4.624
72793NA+    NA+45207   2.778   8.711  13.940
72794NA+    NA+45208   3.930  13.692  12.536
72795NA+    NA+45209  21.142  19.251  14.001
72796NA+    NA+45210  26.016  10.139   2.264
72797NA+    NA+45211  14.604   6.262  11.486
72798NA+    NA+45212  21.579  19.585  11.013
72799NA+    NA+45213  36.024  44.758   4.613
72800NA+    NA+45214  11.234  25.014  11.973
72801NA+    NA+45215  14.817   9.322  13.463
72802NA+    NA+45216   1.908  32.532  13.955
72803NA+    NA+45217  41.022   0.803   3.793
72804NA+    NA+45218  14.687  22.117  13.809
72805NA+    NA+45219  35.963  14.698  14.404
72806NA+    NA+45220  21.603  10.358   1.793
72807NA+    NA+45221  21.682   1.239   2.236
72808NA+    NA+45222   1.479   6.874  14.286
72809NA+    NA+45223  37.580  32.971   4.206
72810NA+    NA+45224  21.137  20.688  13.328
72811NA+    NA+45225  35.964  26.095  12.522
72812NA+    NA+45226  32.002  28.584   2.868
72813NA+    NA+45227  21.099  23.127   1.807
72814NA+    NA+45228  26.682   4.887   2.732
72815NA+    NA+45229  22.012  13.211   2.733
72816NA+    NA+45230  17.564   3.451  14.787
72817NA+    NA+45231  14.613   2.471   3.687
72818NA+    NA+45232  33.986  39.360  10.629
72819NA+    NA+45233  24.035  18.619  14.878
72820NA+    NA+45234  25.139  42.497  14.425
72821NA+    NA+45235  43.334  33.073  11.866
72822NA+    NA+45236  23.714   2.937   0.373
72823NA+    NA+45237  11.648  42.002  13.017
72824NA+    NA+45238  28.118  10.328   3.235
72825NA+    NA+45239  14.704  37.958   3.349
72826NA+    NA+45240  32.547  36.459   4.838
72827NA+    NA+45241  26.065   2.833   3.233
72828NA+    NA+45242  13.722   1.807   0.879
72829NA+    NA+45243  20.075   8.195   4.660
72830NA+    NA+45244  25.039  12.761  14.820
72831NA+    NA+45245  16.711  27.169   3.853
72832NA+    NA+45246  24.096  14.164   2.289
72833NA+    NA+45247  36.023  33.020  14.773
72834NA+    NA+45248  35.099  37.428   1.786
72835NA+    NA+45249  39.868  10.789   2.411
72836NA+    NA+45250  30.912  23.671   0.745
72837NA+    NA+45251  17.294  27.135  14.436
72838NA+    NA+45252  28.068   2.231  12.081
72839NA+    NA+45253  44.373  12.770   4.777
72840NA+    NA+45254   7.830   5.874   0.821
72841NA+    NA+45255   0.855  26.462  14.888
72842NA+    NA+45256  13.317  10.343  11.534
72843NA+    NA+45257  23.063  37.405   2.734
72844NA+    NA+45258  38.567  28.092  10.440
72845NA+    NA+45259  14.303   2.733  13.429
72846NA+    NA+45260  34.440  16.769  11.991
72847NA+    NA+45261  44.802  27.185   4.726
72848NA+    NA+45262   7.802   5.301   1.427
72849NA+    NA+45263  21.117   7.796  13.839
72850NA+    NA+45264  10.307  28.157  10.409
72851NA+    NA+45265  29.450  19.665  14.410
72852NA+    NA+45266  24.555  29.994   2.885
72853NA+    NA+45267  10.747  43.983  11.379
72854NA+    NA+45268   4.242  43.510  11.997
72855NA+    NA+45269  26.091  40.877  10.958
72856NA+    NA+45270  41.935  19.605  14.858
72857NA+    NA+45271   6.771  12.772  14.294
72858NA+    NA+45272  26.581   2.742  10.540
72859NA+    NA+45273  39.037  18.259   4.314
72860NA+    NA+45274   0.294  37.364   3.158
72861NA+    NA+45275   0.487  17.695   2.795
72862NA+    NA+45276   1.425  38.406   0.773
72863NA+    NA+45277  33.542  28.603  11.101
72864NA+    NA+45278   4.359  37.447   1.764
72865NA+    NA+45279  13.131  30.090   3.680
72866NA+    NA+45280  32.544   8.790  14.282
72867NA+    NA+45281  11.284  28.570   3.322
72868NA+    NA+45282  31.096  35.493  12.072
72869NA+    NA+45283   9.289  35.367  13.377
72870NA+    NA+45284   9.774   8.193   1.297
72871NA+    NA+45285  43.934  21.721   4.352
72872NA+    NA+45286   6.757  33.453   0.961
72873NA+    NA+45287  23.710  41.418  11.910
72874NA+    NA+45288  40.459  11.195   3.216
72875NA+    NA+45289  17.272  34.949   3.251
72876NA+    NA+45290  31.071   5.342  11.082
72877NA+    NA+45291   0.346   6.803  12.418
72878NA+    NA+45292  42.833  37.910   2.367
72879NA+    NA+45293  40.953  12.351   4.276
72880NA+    NA+45294  20.098  23.702   1.703
72881NA+    NA+45295  13.234  34.054  10.468
72882NA+    NA+45296  20.733  24.695  11.388
72883NA+    NA+45297  11.264  33.036  12.354
72884NA+    NA+45298  28.661   6.401   2.356
72885NA+    NA+45299   8.215   0.879  12.362
72886NA+    NA+45300  13.606  33.535   3.361
72887NA+    NA+45301  13.667  30.998   2.369
72888NA+    NA+45302  43.981  41.513  14.287
72889NA+    NA+45303  13.695  13.143  13.865
72890NA+    NA+45304  26.670  40.307   2.720
72891NA+    NA+45305  42.350  14.740  13.402
72892NA+    NA+45306  10.348  30.639   3.228
72893NA+    NA+45307   2.759  25.679   5.175
72894NA+    NA+45308  31.574   2.877  14.397
72895NA+    NA+45309   9.684  25.045  11.579
72896NA+    NA+45310  10.866   9.391  14.411
72897NA+    NA+45311  37.379  26.604  10.529
72898NA+    NA+45312  43.776  29.516  13.838
72899NA+    NA+45313  21.228   2.723   1.749
72900NA+    NA+45314  38.940  25.611   3.821
72901NA+    NA+45315  42.384  37.429   0.923
72902NA+    NA+45316  22.165  38.482   4.794
72903NA+    NA+45317  40.332  24.656   1.300
72904NA+    NA+45318   5.283   2.326  11.498
72905NA+    NA+45319  13.815  17.726  10.078
72906NA+    NA+45320  43.285  33.021  14.329
72907NA+    NA+45321  30.607  35.903  14.426
72908NA+    NA+45322  14.778  37.056   3.659
72909NA+    NA+45323  16.799  41.487   2.302
72910NA+    NA+45324  36.353  21.073  11.428
72911NA+    NA+45325  25.613  10.233  11.467
72912NA+    NA+45326   9.192  36.513   2.728
72913NA+    NA+45327  43.486  31.002   4.628
72914NA+    NA+45328  31.560  42.801  10.579
72915NA+    NA+45329  18.585  42.480   3.778
72916NA+    NA+45330  38.044  14.118   4.688
72917NA+    NA+45331  12.737   5.383  13.405
72918NA+    NA+45332  14.692  15.282   2.755
72919NA+    NA+45333   8.795  21.587  12.932
72920NA+    NA+45334  38.047   9.698  12.471
72921NA+    NA+45335  33.987  15.726   4.830
72922NA+    NA+45336  17.117  31.526  13.312
72923NA+    NA+45337  21.123  41.395  10.493
72924NA+    NA+45338  24.171   9.787   0.928
72925NA+    NA+45339  30.056  23.126   0.730
72926NA+    NA+45340  32.460  27.175   0.306
72927NA+    NA+45341  42.008  18.593  14.007
72928NA+    NA+45342  26.654   8.218  10.493
72929NA+    NA+45343  16.088  31.150  11.380
72930NA+    NA+45344  31.054  32.939  11.076
72931NA+    NA+45345  31.960  39.975   0.424
72932NA+    NA+45346  39.888   8.820   3.733
72933NA+    NA+45347  10.831  32.896  13.795
72934NA+    NA+45348  39.006  28.550  10.604
72935NA+    NA+45349  44.467  37.354   2.248
72936NA+    NA+45350  30.059  44.003   1.903
72937NA+    NA+45351   3.904  23.602  13.802
72938NA+    NA+45352  12.857  12.276  10.529
72939NA+    NA+45353  28.006   8.716   0.257
72940NA+    NA+45354   0.281   1.932  12.541
72941NA+    NA+45355  43.936  33.999   2.400
72942NA+    NA+45356  27.624  24.603  11.091
72943NA+    NA+45357  15.733  15.597   2.277
72944NA+    NA+45358  27.100   0.372   0.440
72945NA+    NA+45359  23.710  35.603  11.501
72946NA+    NA+45360  11.241   4.261   4.673
72947NA+    NA+45361  12.188  33.072  12.073
72948NA+    NA+45362  33.968  27.684  10.975
72949NA+    NA+45363  22.537  32.916  14.300
72950NA+    NA+45364  20.122  16.137  11.064
72951NA+    NA+45365  22.230  10.813  12.396
72952NA+    NA+45366  42.983  20.155   0.302
72953NA+    NA+45367   7.672  15.662  11.500
72954NA+    NA+45368  42.315   4.896   3.315
72955NA+    NA+45369  32.562  28.967  14.394
72956NA+    NA+45370  41.394   9.383   2.228
72957NA+    NA+45371  37.897  41.859  12.857
72958NA+    NA+45372   7.696  21.066   1.450
72959NA+    NA+45373  33.053  41.885  11.460
72960NA+    NA+45374  13.737  25.197   5.125
72961NA+    NA+45375  33.553  26.204   4.793
72962NA+    NA+45376   6.220  28.930   1.420
72963NA+    NA+45377  37.958  19.563   3.809
72964NA+    NA+45378  20.099   5.349   2.780
72965NA+    NA+45379  33.457  27.638   2.793
72966NA+    NA+45380  10.708  15.757   2.419
72967NA+    NA+45381   8.722  20.178   3.176
72968NA+    NA+45382  13.127   1.400   1.219
72969NA+    NA+45383  29.627  35.997   0.306
72970NA+    NA+45384  20.258   6.702  14.800
72971NA+    NA+45385   9.683  33.878  13.317
72972NA+    NA+45386  38.392  25.137  10.564
72973NA+    NA+45387  10.872   4.211  14.996
72974NA+    NA+45388  11.337  28.623  13.360
72975NA+    NA+45389  29.044   8.769  11.612
72976NA+    NA+45390  34.482  34.571   3.754
72977NA+    NA+45391   3.449  38.463  11.060
72978NA+    NA+45392  37.520  14.744   2.393
72979NA+    NA+45393  35.071  34.895  14.422
72980NA+    NA+45394   6.768  41.371   4.669
72981NA+    NA+45395  10.353  23.077   2.758
72982NA+    NA+45396  28.160  25.206   4.604
72983NA+    NA+45397  36.358  40.838   3.356
72984NA+    NA+45398  25.676  10.324   1.420
72985NA+    NA+45399  27.121  44.897  11.878
72986NA+    NA+45400  19.180  18.696   0.461
72987NA+    NA+45401  11.300  43.993  12.856
72988NA+    NA+45402  44.318   5.866  13.329
72989NA+    NA+45403  23.222  34.412   0.342
72990NA+    NA+45404  38.413   0.848  12.068
72991NA+    NA+45405  40.816  35.964  12.847
72992NA+    NA+45406  13.195  29.567  13.018
72993NA+    NA+45407  19.766  28.517   2.712
72994NA+    NA+45408   2.352  18.228  12.070
72995NA+    NA+45409  36.843   0.264   1.451
72996NA+    NA+45410  28.673  38.965   2.670
72997NA+    NA+45411  25.542  25.128  14.937
72998NA+    NA+45412  15.797  24.672  12.403
72999NA+    NA+45413  19.231  42.817  12.057
73000NA+    NA+45414  12.782  29.013  11.553
73001NA+    NA+45415  13.783  15.728  14.984
73002NA+    NA+45416  31.483   2.734   1.706
73003NA+    NA+45417  23.092  12.203   3.304
73004NA+    NA+45418  10.677  18.603   1.768
73005NA+    NA+45419  33.451  33.890   4.766
73006NA+    NA+45420  24.199  18.193  12.998
73007NA+    NA+45421   9.281  24.078  12.497
73008NA+    NA+45422  11.848  22.095  10.548
73009NA+    NA+45423  28.074  12.654  11.467
73010NA+    NA+45424  11.171  31.131   0.922
73011NA+    NA+45425  18.626  16.659  13.059
73012NA+    NA+45426   2.872  39.376  13.826
73013NA+    NA+45427  40.934   9.282  11.439
73014NA+    NA+45428  25.467   7.189  11.566
73015NA+    NA+45429  41.996   9.160   3.276
73016NA+    NA+45430  38.571   2.319   3.204
73017NA+    NA+45431  42.452  44.988  12.371
73018NA+    NA+45432  34.477   2.956   1.238
73019NA+    NA+45433  33.392  41.517  14.493
73020NA+    NA+45434  12.245  15.184  13.351
73021NA+    NA+45435  25.090  22.020   2.808
73022NA+    NA+45436  39.044  16.804  14.025
73023NA+    NA+45437  10.833  44.994  14.276
73024NA+    NA+45438  12.612   3.418   1.731
73025NA+    NA+45439   1.472  37.846   0.830
73026NA+    NA+45440  30.083  19.580  10.952
73027NA+    NA+45441  25.162   8.202   3.687
73028NA+    NA+45442  14.634  30.618   2.378
73029NA+    NA+45443  13.773  16.636  12.046
73030NA+    NA+45444  20.746  30.525   0.868
73031NA+    NA+45445  32.030  38.497  12.425
73032NA+    NA+45446   7.704  17.631   1.835
73033NA+    NA+45447  14.171  35.414   0.374
73034NA+    NA+45448  35.527  24.137   5.105
73035NA+    NA+45449  30.996  29.566  10.997
73036NA+    NA+45450  13.605  36.468   2.414
73037NA+    NA+45451  12.788  32.977  14.992
73038NA+    NA+45452  31.533  15.674  12.539
73039NA+    NA+45453  21.635  20.532  10.617
73040NA+    NA+45454  31.004  22.205   3.356
73041NA+    NA+45455  36.069  25.164   2.256
73042NA+    NA+45456   4.779  26.093  11.949
73043NA+    NA+45457  26.025  29.990   4.641
73044NA+    NA+45458  43.392   9.180  14.312
73045NA+    NA+45459  43.766  42.372  11.076
73046NA+    NA+45460  15.605  18.282  13.922
73047NA+    NA+45461  27.564  16.206   1.758
73048NA+    NA+45462  18.586  11.720   5.194
73049NA+    NA+45463  38.035  24.602   0.446
73050NA+    NA+45464  38.501  21.709  12.872
73051NA+    NA+45465  34.505  35.959   4.303
73052NA+    NA+45466   7.876  24.053  10.965
73053NA+    NA+45467  19.667  34.063   0.295
73054NA+    NA+45468  37.406  18.253   1.866
73055NA+    NA+45469  26.591   4.433  10.977
73056NA+    NA+45470  26.506   8.766  12.421
73057NA+    NA+45471   6.699  14.705  14.950
73058NA+    NA+45472   8.667  19.179   3.667
73059NA+    NA+45473  11.733   4.829   3.227
73060NA+    NA+45474  33.014  43.814  14.400
73061NA+    NA+45475   3.348   3.269   3.235
73062NA+    NA+45476   5.837  43.810   0.819
73063NA+    NA+45477   0.956   5.296  11.570
73064NA+    NA+45478   2.853  29.570   2.257
73065NA+    NA+45479   8.758  36.574  11.433
73066NA+    NA+45480  43.475  30.542   0.453
73067NA+    NA+45481  26.122  44.897   4.791
73068NA+    NA+45482  23.103  15.735   3.291
73069NA+    NA+45483   7.887  36.353   3.643
73070NA+    NA+45484  13.828   5.894   2.766
73071NA+    NA+45485  16.080  17.620   3.725
73072NA+    NA+45486  39.907  41.831  10.413
73073NA+    NA+45487  29.034   2.304  13.416
73074NA+    NA+45488  41.371   3.847  13.907
73075NA+    NA+45489  25.050  24.998  11.487
73076NA+    NA+45490  23.046  38.550   3.340
73077NA+    NA+45491  21.557   5.697  13.848
73078NA+    NA+45492  32.520  36.497  11.031
73079NA+    NA+45493  11.690   2.363   1.403
73080NA+    NA+45494  32.888   9.656   0.960
73081NA+    NA+45495   2.781  42.494  11.517
73082NA+    NA+45496   8.343  22.145   0.396
73083NA+    NA+45497  39.861  20.686  14.782
73084NA+    NA+45498  41.453  20.060   0.243
73085NA+    NA+45499  43.315   2.469  12.831
73086NA+    NA+45500  24.183  18.783   2.242
73087NA+    NA+45501  41.003   5.284  11.922
73088NA+    NA+45502   1.878  40.331   0.741
73089NA+    NA+45503  23.075  42.801   3.730
73090NA+    NA+45504  15.100   2.911  13.450
73091NA+    NA+45505  25.149  32.605  11.026
73092NA+    NA+45506   6.354  29.046  12.402
73093NA+    NA+45507   1.319  23.038   4.275
73094NA+    NA+45508  39.362   9.802   4.722
73095NA+    NA+45509  24.487  23.497  11.493
73096NA+    NA+45510  26.983  43.841   2.718
73097NA+    NA+45511  18.651  20.268  12.916
73098NA+    NA+45512  41.520  18.558   4.635
73099NA+    NA+45513   7.818  14.220   0.275
73100NA+    NA+45514  24.071   6.322  10.072
73101NA+    NA+45515   4.828  44.395   3.636
73102NA+    NA+45516  36.473  27.157  12.412
73103NA+    NA+45517  24.615   3.350  13.870
73104NA+    NA+45518  23.727  13.250  11.919
73105NA+    NA+45519   9.700  16.644  10.528
73106NA+    NA+45520  26.999   4.393   3.268
73107NA+    NA+45521  14.699  39.468  11.075
73108NA+    NA+45522   1.315  12.757   4.192
73109NA+    NA+45523   5.386   5.416   4.798
73110NA+    NA+45524   0.836  12.790   2.406
73111NA+    NA+45525  20.573  35.521  11.119
73112NA+    NA+45526  44.950   6.759  14.918
73113NA+    NA+45527  36.524  32.929   2.748
73114NA+    NA+45528  13.728  14.680   2.837
73115NA+    NA+45529  12.687  16.737   1.715
73116NA+    NA+45530  40.448  22.120  12.450
73117NA+    NA+45531  11.720   4.835   0.959
73118NA+    NA+45532  35.572  15.087  11.027
73119NA+    NA+45533  27.529   0.937  11.471
73120NA+    NA+45534  27.097  33.022   2.764
73121NA+    NA+45535  23.242  21.189  14.835
73122NA+    NA+45536  10.332  43.836  13.350
73123NA+    NA+45537   3.948  37.077  12.370
73124NA+    NA+45538  21.740  26.467   4.148
73125NA+    NA+45539  38.990  15.818  14.317
73126NA+    NA+45540  28.158  38.550   2.779
73127NA+    NA+45541  19.650   7.706   5.113
73128NA+    NA+45542  18.715  41.448   1.722
73129NA+    NA+45543  23.495  40.942   2.188
73130NA+    NA+45544  37.998  22.237   0.766
73131NA+    NA+45545  38.860  22.999   3.856
73132NA+    NA+45546  35.072  19.161  14.956
73133NA+    NA+45547   9.781  22.613  10.549
73134NA+    NA+45548  33.985   6.678   2.809
73135NA+    NA+45549  34.578  32.972   1.415
73136NA+    NA+45550  15.650   7.412  12.489
73137NA+    NA+45551  26.629  13.835  10.498
73138NA+    NA+45552  40.039   6.276  11.963
73139NA+    NA+45553   1.960  36.893  11.126
73140NA+    NA+45554  26.479   3.794  14.415
73141NA+    NA+45555  10.202  17.287   2.815
73142NA+    NA+45556  25.514  17.121  13.316
73143NA+    NA+45557  28.987  27.564   2.822
73144NA+    NA+45558  29.577  33.411   3.191
73145NA+    NA+45559  30.055   0.359  12.003
73146NA+    NA+45560  36.095  26.529  14.791
73147NA+    NA+45561   7.401   9.391  13.813
73148NA+    NA+45562  21.699  24.590  12.022
73149NA+    NA+45563   6.374  42.437  10.514
73150NA+    NA+45564  38.928   3.384   3.196
73151NA+    NA+45565  38.987  20.609  11.894
73152NA+    NA+45566  42.884  38.567  11.560
73153NA+    NA+45567  21.700  12.332   2.828
73154NA+    NA+45568  37.030  25.513  14.458
73155NA+    NA+45569  35.363  43.880  14.835
73156NA+    NA+45570  42.012  15.601   4.661
73157NA+    NA+45571   9.389  36.581   4.655
73158NA+    NA+45572  23.234  36.942  11.600
73159NA+    NA+45573  15.177  32.091   3.307
73160NA+    NA+45574  14.831  42.960  10.553
73161NA+    NA+45575  10.173   6.812  10.602
73162NA+    NA+45576  17.800  24.226  12.034
73163NA+    NA+45577   5.818  24.133   3.864
73164NA+    NA+45578  27.993  40.940   4.278
73165NA+    NA+45579  10.268  27.052  14.804
73166NA+    NA+45580  37.965  35.953  14.372
73167NA+    NA+45581  35.012  20.069   2.852
73168NA+    NA+45582  34.405  31.109   2.294
73169NA+    NA+45583  34.490  34.601  14.806
73170NA+    NA+45584  25.072   3.735   4.690
73171NA+    NA+45585  24.672  12.698   2.688
73172NA+    NA+45586  39.042   1.742   0.434
73173NA+    NA+45587  21.556  28.550   2.717
73174NA+    NA+45588  37.888  30.560   5.256
73175NA+    NA+45589  22.246  17.613   0.731
73176NA+    NA+45590  43.363  38.519   3.153
73177NA+    NA+45591  24.011  43.435  10.986
73178NA+    NA+45592  39.809  29.474  14.381
73179NA+    NA+45593  39.358  42.833   0.802
73180NA+    NA+45594  30.967  34.436   0.908
73181NA+    NA+45595  12.355  11.650   4.688
73182NA+    NA+45596   2.464  26.497   1.448
73183NA+    NA+45597  12.757  21.623   0.800
73184NA+    NA+45598  13.281  26.088  11.391
73185NA+    NA+45599  43.925  15.289   1.440
73186NA+    NA+45600  36.033   7.309   3.351
73187NA+    NA+45601  21.589  10.289  14.991
73188NA+    NA+45602  28.172  20.690   4.675
73189NA+    NA+45603  16.733  30.481  14.412
73190NA+    NA+45604  42.296  16.284  11.054
73191NA+    NA+45605  37.392  27.515  13.943
73192NA+    NA+45606  33.469  27.471  12.043
73193NA+    NA+45607   5.701  37.033   2.271
73194NA+    NA+45608  26.182  16.602  10.536
73195NA+    NA+45609  42.874  21.557   0.855
73196NA+    NA+45610  22.614   9.196  13.411
73197NA+    NA+45611   6.226   1.444  12.925
73198NA+    NA+45612  32.507  38.820   3.682
73199NA+    NA+45613  42.801  20.066   2.866
73200NA+    NA+45614   7.813   5.316  11.969
73201NA+    NA+45615  42.871  15.323   1.816
73202NA+    NA+45616   9.231   1.377  14.510
73203NA+    NA+45617  44.484  42.810  12.944
73204NA+    NA+45618   9.287  26.478   2.294
73205NA+    NA+45619  43.869  22.096   1.809
73206NA+    NA+45620  37.933  40.401   4.249
73207NA+    NA+45621  26.069  28.156  12.867
73208NA+    NA+45622  13.261  37.959  13.416
73209NA+    NA+45623  30.964  30.503   0.347
73210NA+    NA+45624  39.371  33.039   9.582
73211NA+    NA+45625  44.457  41.947  13.405
73212NA+    NA+45626  44.396   6.223  14.379
73213NA+    NA+45627  25.672  24.988  13.388
73214NA+    NA+45628  44.412   5.386   2.900
73215NA+    NA+45629  18.267  11.809  14.902
73216NA+    NA+45630  35.500   1.247   1.237
73217NA+    NA+45631  26.079   1.943  14.284
73218NA+    NA+45632  26.201   5.254   3.235
73219NA+    NA+45633  43.960  18.102   3.848
73220NA+    NA+45634  36.058  32.570  14.027
73221NA+    NA+45635  42.842  19.069  12.387
73222NA+    NA+45636  39.834  26.589  14.848
73223NA+    NA+45637  43.940  14.655  14.326
73224NA+    NA+45638   2.380  18.548   2.707
73225NA+    NA+45639  28.064  24.719   0.401
73226NA+    NA+45640  17.730  22.676  13.925
73227NA+    NA+45641  32.008   3.423   1.277
73228NA+    NA+45642  35.878  41.510   0.379
73229NA+    NA+45643  31.038   1.330  11.474
73230NA+    NA+45644  26.099  18.075   4.815
73231NA+    NA+45645  22.054  13.287  14.379
73232NA+    NA+45646  22.630  39.418  14.369
73233NA+    NA+45647  28.940  25.109  14.293
73234NA+    NA+45648   1.238  38.448  13.977
73235NA+    NA+45649  30.655  15.582  11.408
73236NA+    NA+45650  44.941  15.706  12.391
73237NA+    NA+45651  22.583  41.376   0.959
73238NA+    NA+45652  41.929   3.457   5.189
73239NA+    NA+45653  34.063   1.799   3.822
73240NA+    NA+45654  15.753  41.434   2.733
73241NA+    NA+45655  39.333  26.676   2.786
73242NA+    NA+45656  37.339  26.696  12.363
73243NA+    NA+45657   7.808   6.213  13.023
73244NA+    NA+45658  22.048  32.930  10.980
73245NA+    NA+45659   8.873  12.157   3.711
73246NA+    NA+45660  13.240  35.930  13.457
73247NA+    NA+45661  31.091   5.729  14.973
73248NA+    NA+45662  17.683  11.760   2.401
73249NA+    NA+45663   6.762   8.844   0.917
73250NA+    NA+45664  16.744  38.057  11.573
73251NA+    NA+45665  29.554   5.341   3.320
73252NA+    NA+45666  24.703  11.641   2.335
73253NA+    NA+45667  41.892  29.651   4.784
73254NA+    NA+45668  40.434  30.448   4.209
73255NA+    NA+45669  10.165  38.347  14.826
73256NA+    NA+45670  31.639  33.595  10.537
73257NA+    NA+45671  32.916  23.558   1.413
73258NA+    NA+45672   4.225  35.105   4.163
73259NA+    NA+45673  32.894  26.137  14.983
73260NA+    NA+45674  27.586   6.215  13.058
73261NA+    NA+45675  22.244   0.805   3.350
73262NA+    NA+45676   3.235   9.833   4.692
73263NA+    NA+45677  44.343   4.427   4.782
73264NA+    NA+45678  43.501  10.145  10.095
73265NA+    NA+45679  33.918  10.650  13.493
73266NA+    NA+45680  36.093  21.626  12.904
73267NA+    NA+45681  17.737   9.678  10.980
73268NA+    NA+45682  31.915  27.458  12.535
73269NA+    NA+45683  35.410  43.406   0.867
73270NA+    NA+45684  20.677  28.644   0.836
73271NA+    NA+45685  25.193  41.324  12.548
73272NA+    NA+45686  22.122   3.320   4.240
73273NA+    NA+45687  40.442  22.523  14.974
73274NA+    NA+45688  44.769   2.246  11.418
73275NA+    NA+45689  44.929  11.152  14.985
73276NA+    NA+45690  41.518  42.498  10.503
73277NA+    NA+45691  22.681   7.204   3.305
73278NA+    NA+45692  37.942  15.662  11.609
73279NA+    NA+45693   9.168  40.435   2.222
73280NA+    NA+45694  36.849  42.889   0.313
73281NA+    NA+45695  36.353  26.663   1.283
73282NA+    NA+45696  42.880  19.189   2.725
73283NA+    NA+45697  15.734  25.636  13.547
73284NA+    NA+45698  23.099   5.790  12.340
73285NA+    NA+45699  28.536  11.138  14.829
73286NA+    NA+45700  12.694  39.010  13.404
73287NA+    NA+45701  35.547  43.851   2.725
73288NA+    NA+45702  23.140  41.406  14.836
73289NA+    NA+45703  42.375  41.035   2.392
73290NA+    NA+45704  23.116  15.242   2.207
73291NA+    NA+45705  12.800  42.336   0.852
73292NA+    NA+45706   1.308  12.244  10.461
73293NA+    NA+45707  42.303  30.637   4.682
73294NA+    NA+45708  41.846  30.532   1.440
73295NA+    NA+45709   0.473  30.020  10.496
73296NA+    NA+45710  14.272  21.261   0.407
73297NA+    NA+45711  30.084   6.186   0.481
73298NA+    NA+45712   8.788   7.771   2.235
73299NA+    NA+45713  18.725  24.179  10.901
73300NA+    NA+45714  23.560   4.223   1.723
73301NA+    NA+45715  20.179  30.555   1.803
73302NA+    NA+45716  29.438  21.088   0.779
73303NA+    NA+45717  44.344   9.183   1.807
73304NA+    NA+45718  37.967  31.000   1.317
73305NA+    NA+45719  24.984   9.791  11.973
73306NA+    NA+45720  38.335   6.425  14.022
73307NA+    NA+45721  25.180  43.410   1.761
73308NA+    NA+45722   4.246  29.153  10.416
73309NA+    NA+45723  43.926  30.421  13.023
73310NA+    NA+45724  19.080  17.586   3.239
73311NA+    NA+45725  10.715  13.828  13.378
73312NA+    NA+45726   2.892   0.880   1.705
73313NA+    NA+45727  10.309  42.455  12.526
73314NA+    NA+45728  33.929   2.378  11.900
73315NA+    NA+45729  40.851  26.070   1.281
73316NA+    NA+45730  21.585  30.094   2.667
73317NA+    NA+45731  42.404  18.152   1.224
73318NA+    NA+45732   6.681   3.297   2.256
73319NA+    NA+45733  16.293  11.362  11.477
73320NA+    NA+45734  21.154  35.998  10.607
73321NA+    NA+45735  38.483  39.520  12.422
73322NA+    NA+45736  13.734  24.580   4.250
73323NA+    NA+45737  31.585  13.756  12.004
73324NA+    NA+45738  23.578  41.452  13.508
73325NA+    NA+45739   3.815  15.316  10.645
73326NA+    NA+45740  28.156  21.081  12.458
73327NA+    NA+45741  16.787   0.780   2.214
73328NA+    NA+45742  18.104  13.122  13.920
73329NA+    NA+45743  38.349  44.965   3.209
73330NA+    NA+45744  10.338  14.640  12.340
73331NA+    NA+45745  35.057  18.607   0.919
73332NA+    NA+45746  15.301  26.482   2.896
73333NA+    NA+45747   3.233  10.365   0.252
73334NA+    NA+45748  37.859  38.891  12.403
73335NA+    NA+45749   9.382  15.294  11.009
73336NA+    NA+45750   9.867  18.172   1.737
73337NA+    NA+45751  40.540  36.028  14.767
73338NA+    NA+45752   4.383  36.553   2.893
73339NA+    NA+45753  35.393  21.710   2.209
73340NA+    NA+45754  44.383  38.385   9.931
73341NA+    NA+45755  43.766  25.609   2.331
73342NA+    NA+45756  16.178  27.126  13.485
73343NA+    NA+45757  20.183  37.404   4.613
73344NA+    NA+45758  16.286  12.823   3.365
73345NA+    NA+45759  13.306  20.251   3.689
73346NA+    NA+45760  39.010   1.971   2.825
73347NA+    NA+45761  22.062   2.444   1.246
73348NA+    NA+45762  24.090  41.950   1.299
73349NA+    NA+45763  19.756  27.054  13.845
73350NA+    NA+45764  31.530  43.882  10.926
73351NA+    NA+45765  12.154  40.526  10.934
73352NA+    NA+45766   5.810  34.475  14.328
73353NA+    NA+45767  42.889  34.451   2.266
73354NA+    NA+45768  30.029   3.390  14.760
73355NA+    NA+45769  15.168  16.748  14.871
73356NA+    NA+45770   2.750  18.644  12.547
73357NA+    NA+45771   7.707   3.273   4.640
73358NA+    NA+45772  33.624  29.163   0.826
73359NA+    NA+45773  32.624   6.832   2.281
73360NA+    NA+45774  27.111  20.077   0.319
73361NA+    NA+45775  35.026  14.201   2.782
73362NA+    NA+45776   1.483   3.424   4.125
73363NA+    NA+45777   2.456  26.515  10.911
73364NA+    NA+45778  10.246  20.155  13.022
73365NA+    NA+45779  42.287  16.126   3.792
73366NA+    NA+45780  37.011  42.404   2.744
73367NA+    NA+45781  19.687  27.195   1.417
73368NA+    NA+45782  22.658  32.636  11.937
73369NA+    NA+45783  40.917  20.178  12.957
73370NA+    NA+45784  12.615  44.872  12.441
73371NA+    NA+45785  11.300  35.103  10.992
73372NA+    NA+45786   0.750   8.160   1.777
73373NA+    NA+45787   0.905   7.676  10.447
73374NA+    NA+45788  31.413  42.806  12.488
73375NA+    NA+45789  12.188  33.581   4.649
73376NA+    NA+45790   0.256  23.085  12.856
73377NA+    NA+45791  25.508  19.243   0.741
73378NA+    NA+45792  11.274  14.623   1.872
73379NA+    NA+45793   1.812   2.307  10.436
73380NA+    NA+45794   3.320  35.950   2.210
73381NA+    NA+45795   1.888  24.099   1.432
73382NA+    NA+45796  36.483  21.538   1.222
73383NA+    NA+45797  20.100  19.128  10.497
73384NA+    NA+45798  41.484   4.234  13.528
73385NA+    NA+45799  25.987  11.836  14.326
73386NA+    NA+45800  17.658  24.688   4.703
73387NA+    NA+45801  13.603  18.687   3.773
73388NA+    NA+45802  24.641  34.870  11.917
73389NA+    NA+45803  41.329  31.409  13.805
73390NA+    NA+45804  21.534  14.118  14.999
73391NA+    NA+45805  37.392  43.466  12.560
73392NA+    NA+45806  23.545  24.220  13.033
73393NA+    NA+45807   0.790  41.953   0.399
73394NA+    NA+45808  26.019  44.805   3.720
73395NA+    NA+45809  39.324  31.423  12.469
73396NA+    NA+45810  28.938  20.639   3.267
73397NA+    NA+45811  36.588  27.581  14.502
73398NA+    NA+45812   6.369  42.840   5.317
73399NA+    NA+45813  18.145  13.130  14.814
73400NA+    NA+45814  15.808  40.855   3.237
73401NA+    NA+45815  34.441  20.556  14.816
73402NA+    NA+45816  15.740  35.067   4.213
73403NA+    NA+45817  18.189  16.804   3.842
73404NA+    NA+45818  41.315   1.882   4.154
73405NA+    NA+45819  10.814  32.020   1.706
73406NA+    NA+45820  18.123   3.829  13.315
73407NA+    NA+45821  25.641  28.543  10.945
73408NA+    NA+45822  14.822   1.806  12.560
73409NA+    NA+45823  36.855   7.742  13.833
73410NA+    NA+45824  33.603   7.331   5.121
73411NA+    NA+45825  21.219   0.454   4.828
73412NA+    NA+45826  14.153  28.019  12.986
73413NA+    NA+45827  26.458  36.917   4.612
73414NA+    NA+45828  19.703  28.976   4.667
73415NA+    NA+45829  15.747   8.367   4.285
73416NA+    NA+45830   0.252   4.919  10.933
73417NA+    NA+45831  17.272  39.435  12.437
73418NA+    NA+45832  24.492  30.499  10.467
73419NA+    NA+45833   2.258  24.083  13.973
73420NA+    NA+45834   5.822  20.166   4.627
73421NA+    NA+45835  22.663   1.938   3.178
73422NA+    NA+45836  22.020  25.156   1.761
73423NA+    NA+45837  25.028  39.498  12.880
73424NA+    NA+45838  37.521  23.010   0.479
73425NA+    NA+45839  31.999  36.360   4.118
73426NA+    NA+45840  42.439  26.110  13.324
73427NA+    NA+45841   0.428  44.854   2.288
73428NA+    NA+45842  21.037  35.530  10.910
73429NA+    NA+45843  10.279   0.391   2.316
73430NA+    NA+45844  11.301  10.859  11.920
73431NA+    NA+45845   2.904  16.618   4.253
73432NA+    NA+45846   6.213  17.128  12.859
73433NA+    NA+45847   5.436  31.939  12.958
73434NA+    NA+45848  34.936  14.182  10.610
73435NA+    NA+45849   9.341  29.019   4.724
73436NA+    NA+45850  37.510  21.125  13.887
73437NA+    NA+45851  32.987  44.912  10.934
73438NA+    NA+45852  36.848  26.460   2.251
73439NA+    NA+45853  13.837  19.779   4.742
73440NA+    NA+45854  26.635  16.304   5.306
73441NA+    NA+45855  19.081  35.528   2.823
73442NA+    NA+45856   9.824  22.195   2.887
73443NA+    NA+45857  10.724  38.431   0.871
73444NA+    NA+45858  43.270  31.585  12.995
73445NA+    NA+45859  11.841  41.323  12.851
73446NA+    NA+45860   5.879  15.815  10.557
73447NA+    NA+45861  21.606  38.938   1.869
73448NA+    NA+45862  33.540   1.268  10.929
73449NA+    NA+45863  44.291   3.280   3.385
73450NA+    NA+45864  18.639   2.774   1.930
73451NA+    NA+45865  35.453  21.567  10.991
73452NA+    NA+45866  26.102  13.108  14.981
73453NA+    NA+45867   5.378  28.592  14.909
73454NA+    NA+45868  23.511  43.020   1.789
73455NA+    NA+45869  36.954  28.516  13.844
73456NA+    NA+45870  26.171  13.227   4.713
73457NA+    NA+45871  43.003  21.134  12.349
73458NA+    NA+45872  39.493  37.372   4.805
73459NA+    NA+45873  33.530  18.213   4.601
73460NA+    NA+45874  32.421  13.229   2.263
73461NA+    NA+45875   4.337  36.867   1.934
73462NA+    NA+45876  30.613  31.435   4.175
73463NA+    NA+45877   3.733  43.877   1.289
73464NA+    NA+45878  10.372  40.452   0.338
73465NA+    NA+45879  36.551   8.791   3.191
73466NA+    NA+45880  42.524  24.045   0.776
73467NA+    NA+45881  19.760  10.637  12.951
73468NA+    NA+45882   4.391  25.036   3.805
73469NA+    NA+45883  28.542  39.352   3.156
73470NA+    NA+45884   1.387  44.973   1.312
73471NA+    NA+45885  29.524  39.821  13.334
73472NA+    NA+45886  26.640  38.425  12.024
73473NA+    NA+45887  14.773  28.008  11.923
73474NA+    NA+45888   9.248  11.690   3.274
73475NA+    NA+45889   2.368   9.735   2.204
73476NA+    NA+45890   9.170  39.340  12.444
73477NA+    NA+45891  33.061  22.086  13.870
73478NA+    NA+45892  29.529  36.456  11.542
73479NA+    NA+45893  21.098  39.403   1.935
73480NA+    NA+45894  17.124  27.165   4.793
73481NA+    NA+45895  43.869  30.921   3.195
73482NA+    NA+45896  35.364  36.434  12.902
73483NA+    NA+45897  32.479  30.988  11.511
73484NA+    NA+45898  39.873   5.424   4.351
73485NA+    NA+45899  19.657  42.923   4.641
73486NA+    NA+45900  12.743  26.055  14.919
73487NA+    NA+45901   7.788   6.863   0.914
73488NA+    NA+45902  14.786  30.637  12.425
73489NA+    NA+45903  32.580  42.345   3.716
73490NA+    NA+45904  37.997  42.297   1.251
73491NA+    NA+45905  22.064   5.866  14.391
73492NA+    NA+45906  12.209  17.704   0.257
73493NA+    NA+45907  21.079   6.425   2.756
73494NA+    NA+45908   3.336   4.923   3.226
73495NA+    NA+45909   3.279  35.019  11.517
73496NA+    NA+45910   8.348  44.887  10.605
73497NA+    NA+45911  44.843   3.793   1.910
73498NA+    NA+45912  28.096  22.604  13.907
73499NA+    NA+45913   3.834  15.232   0.798
73500NA+    NA+45914  39.419  32.958   3.347
73501NA+    NA+45915  16.273  24.704  14.447
73502NA+    NA+45916   5.789  21.210   3.196
73503NA+    NA+45917  29.132   9.263  13.008
73504NA+    NA+45918  29.996   4.400  13.485
73505NA+    NA+45919   4.889   6.382   2.255
73506NA+    NA+45920  12.291  12.650   0.414
73507NA+    NA+45921  37.565   8.677  13.965
73508NA+    NA+45922  36.419  16.742  14.858
73509NA+    NA+45923  22.720   9.204   2.724
73510NA+    NA+45924  23.591  43.459  12.911
73511NA+    NA+45925  22.540   6.836  11.857
73512NA+    NA+45926  21.169  30.129  11.038
73513NA+    NA+45927  11.737  44.496   2.737
73514NA+    NA+45928  16.808  23.713  10.625
73515NA+    NA+45929  39.544  19.090   4.333
73516NA+    NA+45930   3.769  37.392   3.706
73517NA+    NA+45931   7.339  44.396  10.482
73518NA+    NA+45932  20.089   2.470  11.428
73519NA+    NA+45933  24.068   1.264   1.212
73520NA+    NA+45934  33.451  30.622  14.343
73521NA+    NA+45935   5.757  26.118   1.414
73522NA+    NA+45936  35.051  26.173   4.748
73523NA+    NA+45937   2.234  36.486   1.837
73524NA+    NA+45938   6.424   5.817  13.547
73525NA+    NA+45939  24.631  17.616   4.289
73526NA+    NA+45940  10.863  10.272   1.774
73527NA+    NA+45941   9.214  32.974   1.764
73528NA+    NA+45942  24.041   1.361  13.439
73529NA+    NA+45943  27.100  26.121   4.305
73530NA+    NA+45944  26.495  30.065   3.328
73531NA+    NA+45945  30.161   2.903   0.891
73532NA+    NA+45946  35.101  42.377  14.398
73533NA+    NA+45947   1.482   1.311  10.637
73534NA+    NA+45948  41.449  40.007   1.315
73535NA+    NA+45949  42.450   8.666  11.412
73536NA+    NA+45950   3.419  23.065  11.502
73537NA+    NA+45951  29.516   8.258   4.272
73538NA+    NA+45952  35.898  32.112  14.978
73539NA+    NA+45953  13.138  34.931  10.634
73540NA+    NA+45954  31.096  31.050  14.965
73541NA+    NA+45955  19.081   2.885  11.937
73542NA+    NA+45956  19.638  38.504  14.827
73543NA+    NA+45957  33.429  33.620   1.246
73544NA+    NA+45958   9.319  31.003  12.994
73545NA+    NA+45959  12.344   0.874   0.929
73546NA+    NA+45960  40.309  18.137   2.293
73547NA+    NA+45961  38.458  19.201   1.887
73548NA+    NA+45962  17.789   6.234   4.681
73549NA+    NA+45963  28.523  24.651   3.247
73550NA+    NA+45964  41.978  12.346   4.291
73551NA+    NA+45965   1.301  34.967  11.023
73552NA+    NA+45966   0.303  42.009   0.273
73553NA+    NA+45967  20.724   8.379  12.850
73554NA+    NA+45968  44.373   2.791  13.451
73555NA+    NA+45969  23.689   4.205   0.285
73556NA+    NA+45970  15.590  32.013   1.427
73557NA+    NA+45971  41.444  14.707   1.800
73558NA+    NA+45972  37.388  27.009  14.925
73559NA+    NA+45973  19.155  17.162  13.990
73560NA+    NA+45974  34.945  34.008  13.809
73561NA+    NA+45975  34.424  17.215  13.323
73562NA+    NA+45976  42.810   9.338   2.850
73563NA+    NA+45977  37.359  36.455  12.579
73564NA+    NA+45978   3.931  24.978   0.875
73565NA+    NA+45979   2.442  35.386   1.297
73566NA+    NA+45980  38.377  35.381   1.378
73567NA+    NA+45981  32.632  13.619   4.820
73568NA+    NA+45982  10.692  23.032  13.506
73569NA+    NA+45983  40.544  31.005  10.970
73570NA+    NA+45984   6.429  34.977   5.169
73571NA+    NA+45985  18.250  43.870  10.592
73572NA+    NA+45986  24.045  23.575  12.094
73573NA+    NA+45987   2.346   4.205   3.145
73574NA+    NA+45988   0.251  23.563  12.491
73575NA+    NA+45989  37.408  41.351   3.195
73576NA+    NA+45990  13.740   8.169   1.426
73577NA+    NA+45991   4.370  37.967   2.243
73578NA+    NA+45992  14.631   5.326   4.194
73579NA+    NA+45993  29.006  17.278   2.373
73580NA+    NA+45994  13.738   2.759   1.838
73581NA+    NA+45995  31.054  28.164   3.294
73582NA+    NA+45996  34.082  19.626  12.513
73583NA+    NA+45997  12.179  17.286  10.634
73584NA+    NA+45998  10.140  27.663   2.676
73585NA+    NA+45999  25.193   9.215   0.752
73586NA+    NA+46000  18.229  32.635   4.164
73587NA+    NA+46001  30.578   7.330   2.746
73588NA+    NA+46002  16.278  13.776  14.356
73589NA+    NA+46003  11.676  14.107   0.914
73590NA+    NA+46004  16.299  33.537   0.438
73591NA+    NA+46005   8.205   2.778  12.074
73592NA+    NA+46006   4.796  14.185  10.607
73593NA+    NA+46007  18.277  19.105  10.461
73594NA+    NA+46008  28.063  41.361  10.479
73595NA+    NA+46009  15.593  38.858  11.954
73596NA+    NA+46010   7.398  34.932  13.842
73597NA+    NA+46011   4.244  42.025  11.427
73598NA+    NA+46012  38.049  43.887  10.425
73599NA+    NA+46013  11.237  29.070   3.722
73600NA+    NA+46014  36.926   8.824  14.927
73601NA+    NA+46015  29.562  34.560  14.303
73602NA+    NA+46016  29.441  36.472   2.817
73603NA+    NA+46017  17.150  30.482  11.583
73604NA+    NA+46018  33.879  33.031  10.503
73605NA+    NA+46019  14.620  28.507   0.315
73606NA+    NA+46020   2.944  23.033   2.355
73607NA+    NA+46021  15.718  22.625   1.392
73608NA+    NA+46022  11.332  25.157  11.611
73609NA+    NA+46023  19.690  31.509   3.283
73610NA+    NA+46024  44.853   8.702  11.909
73611NA+    NA+46025  10.369  21.562  10.921
73612NA+    NA+46026  16.616  32.000   1.723
73613NA+    NA+46027  33.042  39.923   0.813
73614NA+    NA+46028  36.968  32.491   9.443
73615NA+    NA+46029  36.563  24.642   2.874
73616NA+    NA+46030  28.574  29.634   2.386
73617NA+    NA+46031  28.020  13.191   4.836
73618NA+    NA+46032  32.914  29.130   1.826
73619NA+    NA+46033   0.944  32.550  13.831
73620NA+    NA+46034  44.804  14.716  13.313
73621NA+    NA+46035  30.067  10.352  10.487
73622NA+    NA+46036  10.725  19.604  13.866
73623NA+    NA+46037  28.128  24.062  10.489
73624NA+    NA+46038  16.586  43.322   1.754
73625NA+    NA+46039  22.217  15.088   0.332
73626NA+    NA+46040  12.708  30.505   0.945
73627NA+    NA+46041  42.910  17.756  12.907
73628NA+    NA+46042   1.914  28.143  14.444
73629NA+    NA+46043  39.351  16.596  13.012
73630NA+    NA+46044  43.300  41.796  12.033
73631NA+    NA+46045  44.270  14.732  12.491
73632NA+    NA+46046   6.712  41.948  15.000
73633NA+    NA+46047   1.438   9.313   0.482
73634NA+    NA+46048   2.924  22.116   3.823
73635NA+    NA+46049   9.161   5.754  11.476
73636NA+    NA+46050   1.399  33.980   3.808
73637NA+    NA+46051  43.515  16.601  12.374
73638NA+    NA+46052  18.080  23.143  13.505
73639NA+    NA+46053   9.856  14.206   4.147
73640NA+    NA+46054  12.130  19.699  14.430
73641NA+    NA+46055  43.454  15.122  12.923
73642NA+    NA+46056  22.607  13.696  14.317
73643NA+    NA+46057   9.829  28.171  11.111
73644NA+    NA+46058  12.292  26.018   0.946
73645NA+    NA+46059  42.942  43.008   1.719
73646NA+    NA+46060  10.827  21.689  14.861
73647NA+    NA+46061  18.699  17.653   4.153
73648NA+    NA+46062  44.434   3.294  11.373
73649NA+    NA+46063   7.747  44.814   3.313
73650NA+    NA+46064   1.276  36.861  13.965
73651NA+    NA+46065  23.712   6.201  10.955
73652NA+    NA+46066   7.829  22.227  11.441
73653NA+    NA+46067  27.970  30.431  12.073
73654NA+    NA+46068  44.295   1.731   4.726
73655NA+    NA+46069  42.334  18.590   1.819
73656NA+    NA+46070  28.625  14.287   0.295
73657NA+    NA+46071  43.927  37.459  13.906
73658NA+    NA+46072  24.644   6.394   0.838
73659NA+    NA+46073  14.702  39.446  12.420
73660NA+    NA+46074  42.830  26.076  13.957
73661NA+    NA+46075  42.949  17.273  11.491
73662NA+    NA+46076  39.052  30.451   5.081
73663NA+    NA+46077  20.570  20.727  14.796
73664NA+    NA+46078  35.408  27.584   2.359
73665NA+    NA+46079  21.098   0.832  11.373
73666NA+    NA+46080  30.424  32.554   1.265
73667NA+    NA+46081  30.019   2.948   4.759
73668NA+    NA+46082  41.990  19.733   4.158
73669NA+    NA+46083   8.322  36.584   0.472
73670NA+    NA+46084  42.991   3.865   1.245
73671NA+    NA+46085  14.607   0.903  12.365
73672NA+    NA+46086   4.328   0.985  13.342
73673NA+    NA+46087  43.798  28.156  13.964
73674NA+    NA+46088  35.465  34.011   5.678
73675NA+    NA+46089  39.521  26.979   2.679
73676NA+    NA+46090  19.277   6.369   1.933
73677NA+    NA+46091   8.181   7.799  11.017
73678NA+    NA+46092   4.450  23.078   0.309
73679NA+    NA+46093  35.857  44.310   4.162
73680NA+    NA+46094  19.246  43.969   1.439
73681NA+    NA+46095  18.183  12.328   3.678
73682NA+    NA+46096   2.325   1.863  14.989
73683NA+    NA+46097  17.748  21.598   2.812
73684NA+    NA+46098  33.917  33.017   1.438
73685NA+    NA+46099  12.306  29.614   0.325
73686NA+    NA+46100  12.236   0.480  14.013
73687NA+    NA+46101  17.151  16.584   3.159
73688NA+    NA+46102  44.979  42.023   2.319
73689NA+    NA+46103  32.451  22.208   1.393
73690NA+    NA+46104  29.564  43.977   1.727
73691NA+    NA+46105  10.353   0.327   0.451
73692NA+    NA+46106  22.094   0.325  14.867
73693NA+    NA+46107  37.399  28.495  14.918
73694NA+    NA+46108  40.990  23.565  12.899
73695NA+    NA+46109   8.170  42.326  11.924
73696NA+    NA+46110   3.832  13.600  14.361
73697NA+    NA+46111  28.085  14.119   2.257
73698NA+    NA+46112   7.905  40.033   3.801
73699NA+    NA+46113  31.487  17.214  12.437
73700NA+    NA+46114   4.726  31.434   1.712
73701NA+    NA+46115   2.836  17.767  11.022
73702NA+    NA+46116  18.059  20.065   2.804
73703NA+    NA+46117  19.142  24.139  12.406
73704NA+    NA+46118  33.576  34.921   3.217
73705NA+    NA+46119  33.016  31.901  10.968
73706NA+    NA+46120  28.524  33.105   2.872
73707NA+    NA+46121  22.567  38.396   2.834
73708NA+    NA+46122  33.949  12.333  12.936
73709NA+    NA+46123   3.786  36.066  12.968
73710NA+    NA+46124  10.336  24.573  10.614
73711NA+    NA+46125   8.767  39.998   2.739
73712NA+    NA+46126  30.108  38.040  13.352
73713NA+    NA+46127  23.202  34.994   4.725
73714NA+    NA+46128  11.250  28.554  13.872
73715NA+    NA+46129  23.630  20.693  14.364
73716NA+    NA+46130  15.637  25.528   1.746
73717NA+    NA+46131  33.514  28.066  14.441
73718NA+    NA+46132  14.229  25.671   4.194
73719NA+    NA+46133  41.508  33.903  10.525
73720NA+    NA+46134  28.049  29.108   4.167
73721NA+    NA+46135  31.626  19.694  10.482
73722NA+    NA+46136   9.841  39.437   0.840
73723NA+    NA+46137  42.443   5.313  10.418
73724NA+    NA+46138  13.301   2.762   3.337
73725NA+    NA+46139   3.385  15.660  12.553
73726NA+    NA+46140   2.231  33.585   1.262
73727NA+    NA+46141  33.403   8.824   1.249
73728NA+    NA+46142  23.177   8.190  14.893
73729NA+    NA+46143  22.710  17.632   1.214
73730NA+    NA+46144   6.399  31.485  12.895
73731NA+    NA+46145   2.808  10.296  11.393
73732NA+    NA+46146  31.106   1.267  11.931
73733NA+    NA+46147  18.654  28.089   4.315
73734NA+    NA+46148  11.728  43.999  10.455
73735NA+    NA+46149  36.054  11.778   3.768
73736NA+    NA+46150  37.363  40.361   3.164
73737NA+    NA+46151  11.654  40.475   2.821
73738NA+    NA+46152  42.346  22.114  12.870
73739NA+    NA+46153  18.088   2.225   4.347
73740NA+    NA+46154  15.696  35.909   3.713
73741NA+    NA+46155  25.512  22.633  14.291
73742NA+    NA+46156  15.084  19.107   4.625
73743NA+    NA+46157  36.371  28.477   2.745
73744NA+    NA+46158  10.205  35.494   1.404
73745NA+    NA+46159  21.051  36.087  14.910
73746NA+    NA+46160  24.063  16.616  11.601
73747NA+    NA+46161  26.560  15.695   1.849
73748NA+    NA+46162  18.645  33.584   5.170
73749NA+    NA+46163  42.953  15.715   3.307
73750NA+    NA+46164  27.057   2.335   0.459
73751NA+    NA+46165  19.150  22.153   0.890
73752NA+    NA+46166  13.178  20.030   1.257
73753NA+    NA+46167  28.094  38.943   1.237
73754NA+    NA+46168  31.535   9.228  13.980
73755NA+    NA+46169  32.494  21.153  14.971
73756NA+    NA+46170  29.619  25.047   9.977
73757NA+    NA+46171  15.087  23.734  11.459
73758NA+    NA+46172  19.613   2.350   1.881
73759NA+    NA+46173  26.521  16.728  13.873
73760NA+    NA+46174   3.320  32.393   3.861
73761NA+    NA+46175   4.298   1.389  14.898
73762NA+    NA+46176  42.389   8.669   0.959
73763NA+    NA+46177  31.411  36.400  14.328
73764NA+    NA+46178  41.904  30.128   4.611
73765NA+    NA+46179   0.471  30.443   3.154
73766NA+    NA+46180  14.743  35.504  14.017
73767NA+    NA+46181   8.184   6.294  11.509
73768NA+    NA+46182  30.529  23.729  11.919
73769NA+    NA+46183   1.382  43.921   3.670
73770NA+    NA+46184  10.794   2.745  12.540
73771NA+    NA+46185   1.302   3.260   0.850
73772NA+    NA+46186  43.354  18.570  14.452
73773NA+    NA+46187  22.569  34.879  11.462
73774NA+    NA+46188  28.006  36.351   9.965
73775NA+    NA+46189  27.959  27.593   1.878
73776NA+    NA+46190  42.956  29.045  10.038
73777NA+    NA+46191  39.458  31.579   0.967
73778NA+    NA+46192  19.594  20.173  12.579
73779NA+    NA+46193  25.514  29.634  14.308
73780NA+    NA+46194  19.093  37.856   3.859
73781NA+    NA+46195  27.497   5.382  13.868
73782NA+    NA+46196  39.814   1.926  11.464
73783NA+    NA+46197  22.729   8.287  11.439
73784NA+    NA+46198  29.031  32.616   1.877
73785NA+    NA+46199   7.415  28.667   0.439
73786NA+    NA+46200   7.344  24.637   0.269
73787NA+    NA+46201   6.226  32.100  11.584
73788NA+    NA+46202  17.119  21.714   0.387
73789NA+    NA+46203  42.815  14.173   1.348
73790NA+    NA+46204   5.412  28.011   5.765
73791NA+    NA+46205  15.192  36.983   0.441
73792NA+    NA+46206  21.227  39.053   2.796
73793NA+    NA+46207   0.827   0.782  11.039
73794NA+    NA+46208  25.643  16.747   2.663
73795NA+    NA+46209  35.557  42.928   0.901
73796NA+    NA+46210   5.704   0.256  13.477
73797NA+    NA+46211  34.000  17.649   3.666
73798NA+    NA+46212  24.179   8.315   2.835
73799NA+    NA+46213  23.231  22.555  11.117
73800NA+    NA+46214  15.673  20.092  12.901
73801NA+    NA+46215  35.576  39.505   2.346
73802NA+    NA+46216  19.570  17.718  13.867
73803NA+    NA+46217  34.915  25.011   4.171
73804NA+    NA+46218  23.039  26.590   2.387
73805NA+    NA+46219  14.744  32.600   3.374
73806NA+    NA+46220  28.138  33.624  11.592
73807NA+    NA+46221  34.084  40.336   2.315
73808NA+    NA+46222   8.406  44.467  13.513
73809NA+    NA+46223  12.836  33.113   3.316
73810NA+    NA+46224   0.767  19.691   5.168
73811NA+    NA+46225  32.423  27.670  10.970
73812NA+    NA+46226  13.787   0.289  11.864
73813NA+    NA+46227   2.815   0.448   3.785
73814NA+    NA+46228  26.040   7.402   3.673
73815NA+    NA+46229  21.164  16.671  10.917
73816NA+    NA+46230  16.702   3.380  12.948
73817NA+    NA+46231  36.911   8.804  13.834
73818NA+    NA+46232   1.411  26.613  11.889
73819NA+    NA+46233  17.173  10.873  12.990
73820NA+    NA+46234  10.654   6.877   3.305
73821NA+    NA+46235  11.632  15.679   4.192
73822NA+    NA+46236  41.537   4.438   4.180
73823NA+    NA+46237  43.378   3.361   3.764
73824NA+    NA+46238  44.279   4.780   3.845
73825NA+    NA+46239  35.899  40.993   3.779
73826NA+    NA+46240  42.380  15.289   4.758
73827NA+    NA+46241  31.072   3.232   5.311
73828NA+    NA+46242  12.781  20.109  10.450
73829NA+    NA+46243  12.310  40.980   1.349
73830NA+    NA+46244  39.945   7.322   0.753
73831NA+    NA+46245  25.089  37.060  12.896
73832NA+    NA+46246  36.561  41.980  14.910
73833NA+    NA+46247  26.604  27.011   1.333
73834NA+    NA+46248  23.183   6.354   2.868
73835NA+    NA+46249   9.769  29.583  14.427
73836NA+    NA+46250  28.049   1.312   2.318
73837NA+    NA+46251   8.712  17.595  14.952
73838NA+    NA+46252  14.775  12.700  13.006
73839NA+    NA+46253  11.801  25.577  14.935
73840NA+    NA+46254  11.807  25.602  13.053
73841NA+    NA+46255  17.071  42.011  13.028
73842NA+    NA+46256  15.627  21.042  14.439
73843NA+    NA+46257  26.476  38.010  10.447
73844NA+    NA+46258  39.998  39.422  14.940
73845NA+    NA+46259  33.123   0.412  13.005
73846NA+    NA+46260  16.146  16.106   3.778
73847NA+    NA+46261  12.758  10.196  12.517
73848NA+    NA+46262  30.118   7.850   1.255
73849NA+    NA+46263  17.292  30.105  10.475
73850NA+    NA+46264  16.800  25.535  10.538
73851NA+    NA+46265  31.517  39.378   3.772
73852NA+    NA+46266  17.753  16.220   2.400
73853NA+    NA+46267   5.264  44.767  12.000
73854NA+    NA+46268  18.265  29.015  14.002
73855NA+    NA+46269  30.025  42.295   4.240
73856NA+    NA+46270  35.367   5.737  10.899
73857NA+    NA+46271  28.108  32.133  10.617
73858NA+    NA+46272  40.354  37.494  13.308
73859NA+    NA+46273  27.619  41.798  12.853
73860NA+    NA+46274  13.723  23.024  12.532
73861NA+    NA+46275   8.663   7.778  13.962
73862NA+    NA+46276  19.136  19.716   5.290
73863NA+    NA+46277  12.783  41.369   4.295
73864NA+    NA+46278   9.749   9.325  14.512
73865NA+    NA+46279  38.020   0.493   0.927
73866NA+    NA+46280  29.146  25.514  10.899
73867NA+    NA+46281  34.512  16.165  12.026
73868NA+    NA+46282  27.075  10.303  13.882
73869NA+    NA+46283  13.655  31.924  11.544
73870NA+    NA+46284  17.693   8.787  13.321
73871NA+    NA+46285  31.568  29.037  13.922
73872NA+    NA+46286  19.158  24.699  13.013
73873NA+    NA+46287  33.607  14.203   2.274
73874NA+    NA+46288  30.591  28.101   3.841
73875NA+    NA+46289   0.877   8.720  14.885
73876NA+    NA+46290  15.622  11.177  10.618
73877NA+    NA+46291  39.809   1.803  10.983
73878NA+    NA+46292   7.674  29.499  14.969
73879NA+    NA+46293  12.685  26.152   2.309
73880NA+    NA+46294   9.705  38.332   0.829
73881NA+    NA+46295  38.524  41.023   1.765
73882NA+    NA+46296  17.188  43.273   3.733
73883NA+    NA+46297  35.050  40.362  14.974
73884NA+    NA+46298  20.031  30.618   3.298
73885NA+    NA+46299  12.306  39.383   0.910
73886NA+    NA+46300   4.308  13.147  10.089
73887NA+    NA+46301  34.005   5.265   2.786
73888NA+    NA+46302  10.357  10.324  13.387
73889NA+    NA+46303  37.969   9.774  11.439
73890NA+    NA+46304  12.265  13.735   0.406
73891NA+    NA+46305  12.774  21.171   3.734
73892NA+    NA+46306  16.087  28.070   2.277
73893NA+    NA+46307   3.798  26.026   0.822
73894NA+    NA+46308  42.789  28.140   0.881
73895NA+    NA+46309   8.772  15.779  11.905
73896NA+    NA+46310  23.716   0.352  14.889
73897NA+    NA+46311  36.048  34.393   4.722
73898NA+    NA+46312  35.899  10.658  13.487
73899NA+    NA+46313   1.412  40.855  10.904
73900NA+    NA+46314  17.667  13.778  12.469
73901NA+    NA+46315  27.984  31.125  14.483
73902NA+    NA+46316  33.916  36.495  12.077
73903NA+    NA+46317  38.499   6.828  13.308
73904NA+    NA+46318  15.760   5.385   0.467
73905NA+    NA+46319  43.783  13.643  13.547
73906NA+    NA+46320  30.458  37.982  12.974
73907NA+    NA+46321   8.346  40.540   1.906
73908NA+    NA+46322   5.741  25.479   2.709
73909NA+    NA+46323  28.998  37.839  12.516
73910NA+    NA+46324   9.745  30.616   2.366
73911NA+    NA+46325   8.784  17.770   0.785
73912NA+    NA+46326  11.748  41.875   2.234
73913NA+    NA+46327  16.235  35.561  10.411
73914NA+    NA+46328  37.435  39.420   2.777
73915NA+    NA+46329  15.778  10.651   3.809
73916NA+    NA+46330  12.806  31.013  12.948
73917NA+    NA+46331  24.110  21.670   3.800
73918NA+    NA+46332  42.023   5.784  14.280
73919NA+    NA+46333  18.790  29.476   0.846
73920NA+    NA+46334  41.861  17.228   4.688
73921NA+    NA+46335  42.299   0.398   2.311
73922NA+    NA+46336  35.855  27.663   3.706
73923NA+    NA+46337  37.038  35.862   3.795
73924NA+    NA+46338  18.210   1.893   4.132
73925NA+    NA+46339  33.096   3.434   0.398
73926NA+    NA+46340  10.788  38.911   2.728
73927NA+    NA+46341  13.620  27.644   2.266
73928NA+    NA+46342  42.853  37.404  11.565
73929NA+    NA+46343  24.086  13.304  11.072
73930NA+    NA+46344  24.021   4.316   4.116
73931NA+    NA+46345   4.938   5.381   0.949
73932NA+    NA+46346  22.708  16.121   0.928
73933NA+    NA+46347  36.509  32.990   3.312
73934NA+    NA+46348  18.596  21.162  11.382
73935NA+    NA+46349  17.080   4.388  11.466
73936NA+    NA+46350  17.652  17.231  13.062
73937NA+    NA+46351  32.470   1.315   1.697
73938NA+    NA+46352   5.296   1.466   3.317
73939NA+    NA+46353  39.016  10.848   4.131
73940NA+    NA+46354   6.692  26.177  11.041
73941NA+    NA+46355   0.867  39.441   2.280
73942NA+    NA+46356   8.199   1.416  12.920
73943NA+    NA+46357  12.738  30.606  14.409
73944NA+    NA+46358  26.672  20.165  13.911
73945NA+    NA+46359  30.108  24.110  13.990
73946NA+    NA+46360  25.992  38.821   0.443
73947NA+    NA+46361  25.985  38.035   2.700
73948NA+    NA+46362  29.021   0.806   0.414
73949NA+    NA+46363  37.511  42.895  11.114
73950NA+    NA+46364  13.841  25.996   0.478
73951NA+    NA+46365  31.456  27.609  14.911
73952NA+    NA+46366  44.845  26.515   3.330
73953NA+    NA+46367   8.374  41.004   1.307
73954NA+    NA+46368  32.957   2.794   1.783
73955NA+    NA+46369  37.550  12.266  10.575
73956NA+    NA+46370   8.306   9.684   0.324
73957NA+    NA+46371  33.982  43.345   4.776
73958NA+    NA+46372  18.064  30.955  13.974
73959NA+    NA+46373  29.032  29.118   0.246
73960NA+    NA+46374  36.404  33.974  13.354
73961NA+    NA+46375   4.388  33.986  11.425
73962NA+    NA+46376  24.567   3.443   3.198
73963NA+    NA+46377   8.202  44.875   2.836
73964NA+    NA+46378  22.243   6.836  10.438
73965NA+    NA+46379  39.866   3.805   1.825
73966NA+    NA+46380   5.821  13.714   0.778
73967NA+    NA+46381  24.649  38.517   1.749
73968NA+    NA+46382  20.034  21.542  11.505
73969NA+    NA+46383   3.729  43.771   3.807
73970NA+    NA+46384  21.039  30.493   2.348
73971NA+    NA+46385  22.636  23.160   1.778
73972NA+    NA+46386  38.864  39.997  12.990
73973NA+    NA+46387  17.705  35.520   0.962
73974NA+    NA+46388  43.021  37.487  12.972
73975NA+    NA+46389  38.498   5.305   1.788
73976NA+    NA+46390   0.387   6.363  12.942
73977NA+    NA+46391  43.317  20.096   2.260
73978NA+    NA+46392  26.591  18.668  14.426
73979NA+    NA+46393  27.026  43.468   2.816
73980NA+    NA+46394  18.287  37.416  11.535
73981NA+    NA+46395  27.977   5.931  10.622
73982NA+    NA+46396   2.374   0.368   4.233
73983NA+    NA+46397  16.258   1.357   4.220
73984NA+    NA+46398  26.617  16.277  11.013
73985NA+    NA+46399  18.287  14.661  10.622
73986NA+    NA+46400   0.753  38.837   4.273
73987NA+    NA+46401  39.317   7.747  12.908
73988NA+    NA+46402  25.650  22.006   0.886
73989NA+    NA+46403  44.886   6.743  13.844
73990NA+    NA+46404  36.867  41.515  12.936
73991NA+    NA+46405   2.753  23.612  12.491
73992NA+    NA+46406  37.387  22.528   4.663
73993NA+    NA+46407  18.067  10.645   2.193
73994NA+    NA+46408  16.202  35.538   3.218
73995NA+    NA+46409  37.538  34.417   9.573
73996NA+    NA+46410  10.816  34.542   2.872
73997NA+    NA+46411  15.325  10.189  10.617
73998NA+    NA+46412  21.657  43.371   1.738
73999NA+    NA+46413  44.486  36.592  12.005
74000NA+    NA+46414   9.195   2.318   1.888
74001NA+    NA+46415  28.946   4.770  12.410
74002NA+    NA+46416  12.178  15.179  12.523
74003NA+    NA+46417  44.923  32.615  11.120
74004NA+    NA+46418   3.455   6.255  10.601
74005NA+    NA+46419  39.058  14.752   1.320
74006NA+    NA+46420  17.750  25.969   4.288
74007NA+    NA+46421  35.480  10.219   4.144
74008NA+    NA+46422   8.840  40.949  11.009
74009NA+    NA+46423  36.850   1.886  13.955
74010NA+    NA+46424   3.309   1.961   2.897
74011NA+    NA+46425  25.514  25.091   5.267
74012NA+    NA+46426  26.176  18.202   4.348
74013NA+    NA+46427  39.923   8.205   0.767
74014NA+    NA+46428  44.319  17.080  10.510
74015NA+    NA+46429  44.471  19.070   4.350
74016NA+    NA+46430  41.792  35.018  13.042
74017NA+    NA+46431   9.182   8.868   1.377
74018NA+    NA+46432  41.906  36.909   0.251
74019NA+    NA+46433   0.906  13.751  10.523
74020NA+    NA+46434  23.134  27.611  10.518
74021NA+    NA+46435  22.058  29.458   3.672
74022NA+    NA+46436  24.041   8.773   4.238
74023NA+    NA+46437  22.575  42.525   0.883
74024NA+    NA+46438  38.359   5.325   0.809
74025NA+    NA+46439   4.280  18.745   0.379
74026NA+    NA+46440  35.529  18.713  10.433
74027NA+    NA+46441   3.425  34.963   4.808
74028NA+    NA+46442  42.451  19.198  13.362
74029NA+    NA+46443   8.266   9.390  14.450
74030NA+    NA+46444  36.910  37.339  12.935
74031NA+    NA+46445  32.944   0.486  14.445
74032NA+    NA+46446  19.571  11.360  12.344
74033NA+    NA+46447  30.426  20.206  10.504
74034NA+    NA+46448  37.924  28.122   1.812
74035NA+    NA+46449  26.551   7.903   4.219
74036NA+    NA+46450  13.705  38.979   0.475
74037NA+    NA+46451   0.786  44.282   4.822
74038NA+    NA+46452  43.445   8.211   4.140
74039NA+    NA+46453  42.947   8.895  11.918
74040NA+    NA+46454  44.897   0.856  11.396
74041NA+    NA+46455  23.218  44.839   3.750
74042NA+    NA+46456   0.447  22.028   4.266
74043NA+    NA+46457  20.193   2.305  14.893
74044NA+    NA+46458  16.624  42.962  11.084
74045NA+    NA+46459   9.885  27.188   3.299
74046NA+    NA+46460  43.299   4.743   4.339
74047NA+    NA+46461  10.837  15.632   1.695
74048NA+    NA+46462  12.737  18.733  10.465
74049NA+    NA+46463   5.850  19.173  12.439
74050NA+    NA+46464   3.710  17.196  13.907
74051NA+    NA+46465   5.250  20.269  12.558
74052NA+    NA+46466  17.658  17.643  13.540
74053NA+    NA+46467  21.729  29.939   0.919
74054NA+    NA+46468   0.839  31.061  13.829
74055NA+    NA+46469   0.488  18.078   3.828
74056NA+    NA+46470  13.613  31.146  14.029
74057NA+    NA+46471  27.197  17.291  10.470
74058NA+    NA+46472  44.352   1.766  11.023
74059NA+    NA+46473  41.958  35.079  14.804
74060NA+    NA+46474   3.310  21.134   4.791
74061NA+    NA+46475  15.807   6.809   2.687
74062NA+    NA+46476  32.550  16.621   1.721
74063NA+    NA+46477   6.693  18.644  11.872
74064NA+    NA+46478   0.762  29.483   3.378
74065NA+    NA+46479  39.997  40.304  14.342
74066NA+    NA+46480  29.129   7.182  13.798
74067NA+    NA+46481  12.270  19.269  11.974
74068NA+    NA+46482  42.461   7.700  12.550
74069NA+    NA+46483  10.759  30.640   2.783
74070NA+    NA+46484  37.460  28.626   0.393
74071NA+    NA+46485  16.682  39.421  13.819
74072NA+    NA+46486  29.113  35.396   4.674
74073NA+    NA+46487  39.410  13.185  13.034
74074NA+    NA+46488   2.226  39.036   9.973
74075NA+    NA+46489  10.351  37.077  14.439
74076NA+    NA+46490  29.145   6.872   4.308
74077NA+    NA+46491  35.528  43.959   4.638
74078NA+    NA+46492  16.710  33.503  14.957
74079NA+    NA+46493  16.136  23.574   3.161
74080NA+    NA+46494  41.350  44.913  13.892
74081NA+    NA+46495  28.165   4.763   1.303
74082NA+    NA+46496  35.409  30.649   4.756
74083NA+    NA+46497  14.133  44.769   3.266
74084NA+    NA+46498  36.016   4.834   0.884
74085NA+    NA+46499  42.784  44.943  14.470
74086NA+    NA+46500   9.298  33.119   2.199
74087NA+    NA+46501  16.717  32.435  14.011
74088NA+    NA+46502  38.871  35.450   0.254
74089NA+    NA+46503   1.867  33.021   1.402
74090NA+    NA+46504  36.376  20.097  11.399
74091NA+    NA+46505  35.549  16.755   2.303
74092NA+    NA+46506  33.622  17.581   1.931
74093NA+    NA+46507   9.304   6.400   3.167
74094NA+    NA+46508  36.913  12.324  11.611
74095NA+    NA+46509  13.721   6.771   0.245
74096NA+    NA+46510  17.265   1.795  10.926
74097NA+    NA+46511  12.276  27.582   3.781
74098NA+    NA+46512  24.145  14.777  14.763
74099NA+    NA+46513  14.639  42.928  12.474
74100NA+    NA+46514   9.685  36.439  10.515
74101NA+    NA+46515  21.538  31.014  12.446
74102NA+    NA+46516  13.134   2.285  12.093
74103NA+    NA+46517  23.151  28.562   3.702
74104NA+    NA+46518   9.304  15.643   1.329
74105NA+    NA+46519  17.238  31.433   1.251
74106NA+    NA+46520  37.072  24.495   1.902
74107NA+    NA+46521  43.912  17.164  12.425
74108NA+    NA+46522  30.531  38.917  14.502
74109NA+    NA+46523  40.946  37.375  10.639
74110NA+    NA+46524   7.670  15.657   4.612
74111NA+    NA+46525  11.843  39.964   2.762
74112NA+    NA+46526   0.405  15.710  13.984
74113NA+    NA+46527   5.379   3.290  12.371
74114NA+    NA+46528   7.668  30.044  14.987
74115NA+    NA+46529  39.938   0.884  12.404
74116NA+    NA+46530  14.283  42.295  12.879
74117NA+    NA+46531  34.596  24.719   4.148
74118NA+    NA+46532  36.377  27.039   4.639
74119NA+    NA+46533  34.023  19.736  11.097
74120NA+    NA+46534  37.019  21.683   0.905
74121NA+    NA+46535   0.331  36.044   4.690
74122NA+    NA+46536  28.171   2.254  14.905
74123NA+    NA+46537  20.702  40.805  14.443
74124NA+    NA+46538   6.311  40.405   3.707
74125NA+    NA+46539   3.219   4.814  14.787
74126NA+    NA+46540  25.531  40.407  14.906
74127NA+    NA+46541   8.655   6.398   4.231
74128NA+    NA+46542  39.399  22.585   3.243
74129NA+    NA+46543  42.807   2.865   1.264
74130NA+    NA+46544  30.567  25.710   2.356
74131NA+    NA+46545  35.359   5.213  11.924
74132NA+    NA+46546  39.990  30.555   2.717
74133NA+    NA+46547  39.900  23.011  12.883
74134NA+    NA+46548  36.026   1.405  12.846
74135NA+    NA+46549  21.598  19.225  10.545
74136NA+    NA+46550  31.146  37.491  12.891
74137NA+    NA+46551  19.212   6.427  10.509
74138NA+    NA+46552   5.281  16.732  14.326
74139NA+    NA+46553   9.299  40.994  10.535
74140NA+    NA+46554  39.010   5.761  13.532
74141NA+    NA+46555   9.858  36.921   1.859
74142NA+    NA+46556  16.770   0.759   1.423
74143NA+    NA+46557  26.608   0.964  12.016
74144NA+    NA+46558  19.261  27.689   1.747
74145NA+    NA+46559  43.287  19.742   1.713
74146NA+    NA+46560  39.360   6.266   4.607
74147NA+    NA+46561   6.335  31.934   2.418
74148NA+    NA+46562  20.533  33.045   4.162
74149NA+    NA+46563  17.595  40.406   3.856
74150NA+    NA+46564  18.279   5.206   4.321
74151NA+    NA+46565  21.187  31.428   0.910
74152NA+    NA+46566  38.493  10.247  10.568
74153NA+    NA+46567  36.852   2.443   3.322
74154NA+    NA+46568  32.914   5.241   3.850
74155NA+    NA+46569  16.627  42.525  12.039
74156NA+    NA+46570  38.044  22.713   2.396
74157NA+    NA+46571  42.835   1.323   4.773
74158NA+    NA+46572  18.101  40.462  14.816
74159NA+    NA+46573  33.468  27.463  10.537
74160NA+    NA+46574  16.186   5.265  14.292
74161NA+    NA+46575  14.153  13.341   5.092
74162NA+    NA+46576  10.676  19.780   2.374
74163NA+    NA+46577  19.080  14.697   4.305
74164NA+    NA+46578  18.232  31.114   3.769
74165NA+    NA+46579  30.908   3.917   0.946
74166NA+    NA+46580  42.012  40.445  11.539
74167NA+    NA+46581   0.284  10.180   1.389
74168NA+    NA+46582   8.191   5.756  11.944
74169NA+    NA+46583  13.128  41.307  13.927
74170NA+    NA+46584  35.407  35.449  11.581
74171NA+    NA+46585   4.941  26.118   3.860
74172NA+    NA+46586   6.690  31.042  14.350
74173NA+    NA+46587   2.415  40.435  11.999
74174NA+    NA+46588  23.142  15.175   3.314
74175NA+    NA+46589  32.452  24.141   3.188
74176NA+    NA+46590   4.337  40.333   3.633
74177NA+    NA+46591  28.000   0.988  14.763
74178NA+    NA+46592  24.986  31.431   3.386
74179NA+    NA+46593  15.614  33.495   2.313
74180NA+    NA+46594  24.702  42.431   0.284
74181NA+    NA+46595  26.687   9.379   2.756
74182NA+    NA+46596   5.243  38.359   0.327
74183NA+    NA+46597  39.942  15.627   2.847
74184NA+    NA+46598  10.838  14.295  11.539
74185NA+    NA+46599  12.793  17.769   4.646
74186NA+    NA+46600  27.515   7.282   0.875
74187NA+    NA+46601   0.331  12.225   2.187
74188NA+    NA+46602  15.798  42.470   4.633
74189NA+    NA+46603  43.986  31.534   0.942
74190NA+    NA+46604  42.899  26.684  11.949
74191NA+    NA+46605  43.312  27.066   3.732
74192NA+    NA+46606  27.030  44.480   2.401
74193NA+    NA+46607  13.665  14.337  14.875
74194NA+    NA+46608  40.502  35.448   0.728
74195NA+    NA+46609  16.291  43.502  14.463
74196NA+    NA+46610  10.874   9.883   3.355
74197NA+    NA+46611  38.023  10.189   1.256
74198NA+    NA+46612  41.794  24.198   0.739
74199NA+    NA+46613  43.393  34.899   0.958
74200NA+    NA+46614  15.261   8.367   1.822
74201NA+    NA+46615  26.581  28.081  13.461
74202NA+    NA+46616  35.044  29.552  11.463
74203NA+    NA+46617  27.134  22.144   4.240
74204NA+    NA+46618  17.092  44.303  13.438
74205NA+    NA+46619   4.396  41.495   3.788
74206NA+    NA+46620  34.421  13.170  11.099
74207NA+    NA+46621  32.424  13.691   4.293
74208NA+    NA+46622  21.017   1.292   4.751
74209NA+    NA+46623  13.330  12.336  10.620
74210NA+    NA+46624  11.699  28.933  11.475
74211NA+    NA+46625  21.148   7.376  11.984
74212NA+    NA+46626  44.347   8.224  13.830
74213NA+    NA+46627   1.349  17.229   2.825
74214NA+    NA+46628  14.666  14.245   1.879
74215NA+    NA+46629  13.781  24.659  12.910
74216NA+    NA+46630  36.902  10.710  14.299
74217NA+    NA+46631  23.640  17.298   2.870
74218NA+    NA+46632  37.037   6.357  12.912
74219NA+    NA+46633  17.237  22.048   1.804
74220NA+    NA+46634  36.020   9.175  13.432
74221NA+    NA+46635  24.589  34.533   2.316
74222NA+    NA+46636  34.454  24.549   2.347
74223NA+    NA+46637  13.794  38.345   4.287
74224NA+    NA+46638  10.381  27.644   0.789
74225NA+    NA+46639  32.398  44.888  12.516
74226NA+    NA+46640  40.470  25.979  12.960
74227NA+    NA+46641  30.043  24.113   1.407
74228NA+    NA+46642   1.950  15.303   0.422
74229NA+    NA+46643  11.716  35.531   3.382
74230NA+    NA+46644  39.896   4.440  13.971
74231NA+    NA+46645  25.150   5.776   9.927
74232NA+    NA+46646  20.626  41.842  10.436
74233NA+    NA+46647  13.286   2.324   0.437
74234NA+    NA+46648  38.896  32.514  12.886
74235NA+    NA+46649  32.587   9.681   2.359
74236NA+    NA+46650  36.415  34.542  11.903
74237NA+    NA+46651  10.260  11.729   0.319
74238NA+    NA+46652  43.465  12.834   2.797
74239NA+    NA+46653  29.481  41.484  10.577
74240NA+    NA+46654  10.338  39.826  14.366
74241NA+    NA+46655   2.755   0.864   3.686
74242NA+    NA+46656  11.645   1.946  14.879
74243NA+    NA+46657  37.423  35.414  13.939
74244NA+    NA+46658  39.824  37.526  13.367
74245NA+    NA+46659   9.732   6.704  14.912
74246NA+    NA+46660  35.554  14.282  10.901
74247NA+    NA+46661   5.431  40.977   5.622
74248NA+    NA+46662   1.839  11.661   4.609
74249NA+    NA+46663   5.853  39.540  10.942
74250NA+    NA+46664   5.785  34.413   3.714
74251NA+    NA+46665  20.712  23.031   3.258
74252NA+    NA+46666   2.790  42.846   3.220
74253NA+    NA+46667  31.096   7.221   4.665
74254NA+    NA+46668   0.813  33.057   2.793
74255NA+    NA+46669  15.206  41.960   2.794
74256NA+    NA+46670  40.355  19.270  14.444
74257NA+    NA+46671  10.849  42.305   3.243
74258NA+    NA+46672  41.527  23.001  10.527
74259NA+    NA+46673   7.259  32.437   0.415
74260NA+    NA+46674   2.787  40.517  12.975
74261NA+    NA+46675  21.606   4.336   1.435
74262NA+    NA+46676  20.767   9.283  10.436
74263NA+    NA+46677  40.857  33.053   1.305
74264NA+    NA+46678  36.000  23.118   9.649
74265NA+    NA+46679   4.431  40.475   5.246
74266NA+    NA+46680  36.884   5.734  12.347
74267NA+    NA+46681  24.008  38.925  11.894
74268NA+    NA+46682   8.738  20.614   4.691
74269NA+    NA+46683   0.773  42.008   1.322
74270NA+    NA+46684  12.734  21.204  12.045
74271NA+    NA+46685   5.243  44.759   0.458
74272NA+    NA+46686  43.356  27.009  12.418
74273NA+    NA+46687  28.594  12.829  12.939
74274NA+    NA+46688   1.461  34.102  12.060
74275NA+    NA+46689  24.642  37.905  13.889
74276NA+    NA+46690  20.248  21.719  14.415
74277NA+    NA+46691  44.860  29.961   3.306
74278NA+    NA+46692   0.813  20.675   1.868
74279NA+    NA+46693  44.830  27.091   3.835
74280NA+    NA+46694  26.104  20.166  14.343
74281NA+    NA+46695  43.778   5.714   3.720
74282NA+    NA+46696  11.695  38.987   4.177
74283NA+    NA+46697   1.380   6.233  11.935
74284NA+    NA+46698  24.630  43.778   0.268
74285NA+    NA+46699  22.595   4.434  14.404
74286NA+    NA+46700  33.404  35.444  12.978
74287NA+    NA+46701  38.836  43.018  13.485
74288NA+    NA+46702   2.956  12.845   2.839
74289NA+    NA+46703  26.041  22.650   2.667
74290NA+    NA+46704   6.414  25.554  12.997
74291NA+    NA+46705  44.823  34.530   4.282
74292NA+    NA+46706   6.818  37.493   0.290
74293NA+    NA+46707  17.145   4.413  12.354
74294NA+    NA+46708  37.458  15.798   4.607
74295NA+    NA+46709  29.485  37.074   4.623
74296NA+    NA+46710   1.417  36.894  14.857
74297NA+    NA+46711  15.648  28.585  14.884
74298NA+    NA+46712  28.012  22.092   2.698
74299NA+    NA+46713  16.116  27.096   0.270
74300NA+    NA+46714   6.411  10.728  14.401
74301NA+    NA+46715   2.838  17.193   2.669
74302NA+    NA+46716  21.134  13.180   1.774
74303NA+    NA+46717  42.826  27.149   0.443
74304NA+    NA+46718  22.634   3.885  12.934
74305NA+    NA+46719  37.471  18.601   5.290
74306NA+    NA+46720  21.553  27.035   0.435
74307NA+    NA+46721   8.405   8.233  12.551
74308NA+    NA+46722  11.184  36.481   4.171
74309NA+    NA+46723  27.624   4.213   4.606
74310NA+    NA+46724  35.370  13.324   0.382
74311NA+    NA+46725  30.554  41.431   3.713
74312NA+    NA+46726  43.983  30.068  12.932
74313NA+    NA+46727  21.086  31.470  12.463
74314NA+    NA+46728  15.232  21.620  14.956
74315NA+    NA+46729  35.896  33.076   2.776
74316NA+    NA+46730  19.167  12.706  14.284
74317NA+    NA+46731  31.897  39.424   1.378
74318NA+    NA+46732  36.921  30.598  10.930
74319NA+    NA+46733   0.290  25.709   2.689
74320NA+    NA+46734   4.315   0.480   1.847
74321NA+    NA+46735  36.934   4.857  10.492
74322NA+    NA+46736  22.620  11.232   4.126
74323NA+    NA+46737  31.919  40.911  14.881
74324NA+    NA+46738  32.994   2.947  14.875
74325NA+    NA+46739   4.401  12.807  11.005
74326NA+    NA+46740   2.253  20.089  12.891
74327NA+    NA+46741  44.410   6.899  10.610
74328NA+    NA+46742   4.798  21.252   0.752
74329NA+    NA+46743  30.979  41.007   3.157
74330NA+    NA+46744  42.948   6.819   2.279
74331NA+    NA+46745  22.682  16.772   3.241
74332NA+    NA+46746   9.753   8.382   4.336
74333NA+    NA+46747  20.662  27.082  13.980
74334NA+    NA+46748  16.756  42.019   2.751
74335NA+    NA+46749  30.113   4.840  10.516
74336NA+    NA+46750  33.393  38.854  12.069
74337NA+    NA+46751  15.211  44.398   4.818
74338NA+    NA+46752  34.024  10.275  12.353
74339NA+    NA+46753  34.071  17.154   1.370
74340NA+    NA+46754  14.593  38.042  12.081
74341NA+    NA+46755  37.423  21.087  14.796
74342NA+    NA+46756  41.373  16.577   3.739
74343NA+    NA+46757  30.484  20.083   1.332
74344NA+    NA+46758  25.691  23.735   3.785
74345NA+    NA+46759  12.149  27.993  12.475
74346NA+    NA+46760   3.953   9.746   4.183
74347NA+    NA+46761  27.025  15.186  10.508
74348NA+    NA+46762  38.948  37.565   2.350
74349NA+    NA+46763   7.374   6.267   1.724
74350NA+    NA+46764  29.062   6.677  11.372
74351NA+    NA+46765  21.661  40.869  12.349
74352NA+    NA+46766  12.178  23.053  11.545
74353NA+    NA+46767  32.560  32.020  14.436
74354NA+    NA+46768   3.761  19.273   1.795
74355NA+    NA+46769  40.026  32.898  10.975
74356NA+    NA+46770  43.426   1.882   2.744
74357NA+    NA+46771   4.769  26.031  14.960
74358NA+    NA+46772  38.040  12.211   4.321
74359NA+    NA+46773   1.773  32.957  14.846
74360NA+    NA+46774  11.248  40.045  11.445
74361NA+    NA+46775  19.718  20.202   2.201
74362NA+    NA+46776  37.569  21.736  13.543
74363NA+    NA+46777  27.994  13.674   4.135
74364NA+    NA+46778   4.736  14.320   1.845
74365NA+    NA+46779  42.814  12.794   3.238
74366NA+    NA+46780  44.389  26.687   4.708
74367NA+    NA+46781  21.111  32.118  14.791
74368NA+    NA+46782  10.333   4.770   1.284
74369NA+    NA+46783  34.072  44.496  10.520
74370NA+    NA+46784   3.715  37.454   5.170
74371NA+    NA+46785  19.716   8.726   5.102
74372NA+    NA+46786  39.459  19.248   1.394
74373NA+    NA+46787  15.311   9.220  12.399
74374NA+    NA+46788  23.147   6.888   0.946
74375NA+    NA+46789   6.776  19.672   1.381
74376NA+    NA+46790  27.164  30.996  13.361
74377NA+    NA+46791  42.412  16.696   4.606
74378NA+    NA+46792   9.191   7.898  14.490
74379NA+    NA+46793  18.662  36.559   4.330
74380NA+    NA+46794   6.249  16.172  13.517
74381NA+    NA+46795  44.270  21.037  14.409
74382NA+    NA+46796   3.392  15.197   4.250
74383NA+    NA+46797   5.309  39.551  10.990
74384NA+    NA+46798   9.841  12.300  14.923
74385NA+    NA+46799   4.436  27.621   3.777
74386NA+    NA+46800   0.327   3.397   3.249
74387NA+    NA+46801  23.596  15.260  14.921
74388NA+    NA+46802  10.239   2.795   3.778
74389NA+    NA+46803  20.667   5.872   0.949
74390NA+    NA+46804   7.795  16.801   2.790
74391NA+    NA+46805   7.292  12.792  10.528
74392NA+    NA+46806  43.822   5.245  12.879
74393NA+    NA+46807   2.231  17.652  11.891
74394NA+    NA+46808   2.866  11.334   4.274
74395NA+    NA+46809  20.602  28.651  13.039
74396NA+    NA+46810   0.329  21.203  11.530
74397NA+    NA+46811  23.517   3.337  13.537
74398NA+    NA+46812  12.718  43.446  11.484
74399NA+    NA+46813  39.343  27.476   2.269
74400NA+    NA+46814   7.846  36.061  11.115
74401NA+    NA+46815   9.264   4.939   4.817
74402NA+    NA+46816  10.315   6.199   2.799
74403NA+    NA+46817  17.251  43.874   3.755
74404NA+    NA+46818   6.219  39.866   2.190
74405NA+    NA+46819  27.998   2.330   0.280
74406NA+    NA+46820  34.583  19.676  12.886
74407NA+    NA+46821  33.070  20.629   4.782
74408NA+    NA+46822  19.137  41.959  12.421
74409NA+    NA+46823  40.044  44.923  12.554
74410NA+    NA+46824  23.500  24.579   0.299
74411NA+    NA+46825  16.749  25.051   4.816
74412NA+    NA+46826  18.687   8.314   2.780
74413NA+    NA+46827  30.594   4.366   2.386
74414NA+    NA+46828  23.526  38.839  12.434
74415NA+    NA+46829  40.501  15.252  12.412
74416NA+    NA+46830  13.793  32.621   3.710
74417NA+    NA+46831  22.047  24.973  11.111
74418NA+    NA+46832  20.062  36.475   1.401
74419NA+    NA+46833  23.706  13.274   1.752
74420NA+    NA+46834   0.963  26.978   3.771
74421NA+    NA+46835  40.380   1.945   4.810
74422NA+    NA+46836  30.498  23.684   4.196
74423NA+    NA+46837  24.119  41.344   3.759
74424NA+    NA+46838   5.856  16.304   0.757
74425NA+    NA+46839  36.555   9.298  13.395
74426NA+    NA+46840  27.170  23.663  14.438
74427NA+    NA+46841  20.230  30.515   1.422
74428NA+    NA+46842  40.307  41.372  10.575
74429NA+    NA+46843  29.515  37.565  10.477
74430NA+    NA+46844  37.398  24.187   1.727
74431NA+    NA+46845   8.289  43.787   2.889
74432NA+    NA+46846   7.377  14.189  10.405
74433NA+    NA+46847  24.981  22.667   0.268
74434NA+    NA+46848   6.717   5.378  13.062
74435NA+    NA+46849  44.942  14.778   2.303
74436NA+    NA+46850   1.869   4.816  12.451
74437NA+    NA+46851  20.223   9.174   1.782
74438NA+    NA+46852  19.724  40.815   1.235
74439NA+    NA+46853  23.084   3.250   0.880
74440NA+    NA+46854  40.410  42.342   4.613
74441NA+    NA+46855   7.826   7.406   5.194
74442NA+    NA+46856  30.441  20.758  11.094
74443NA+    NA+46857  37.999  32.574   1.863
74444NA+    NA+46858   9.205  30.028   0.373
74445NA+    NA+46859   5.765   9.149  13.444
74446NA+    NA+46860  22.092  14.237  12.980
74447NA+    NA+46861  14.190  19.655  12.480
74448NA+    NA+46862   8.300  13.632   0.811
74449NA+    NA+46863  43.347  33.034  14.878
74450NA+    NA+46864  18.730   7.824  14.448
74451NA+    NA+46865  32.934   7.847  10.594
74452NA+    NA+46866  28.606  13.703   1.828
74453NA+    NA+46867  41.824   1.848   1.821
74454NA+    NA+46868  11.652  31.927  10.950
74455NA+    NA+46869  20.191   7.290   1.427
74456NA+    NA+46870   5.750  22.048   3.186
74457NA+    NA+46871   0.909  41.927  14.934
74458NA+    NA+46872  39.527  27.686  13.378
74459NA+    NA+46873  23.026  25.627   0.867
74460NA+    NA+46874  20.666  24.087  12.930
74461NA+    NA+46875   2.307   4.735  14.315
74462NA+    NA+46876   3.713  11.658   4.816
74463NA+    NA+46877  40.012  39.005  14.508
74464NA+    NA+46878  12.164   2.374   2.320
74465NA+    NA+46879  44.887  43.933   1.303
74466NA+    NA+46880  33.409  32.093   0.814
74467NA+    NA+46881  17.183  38.975   0.309
74468NA+    NA+46882  24.491  23.003  13.888
74469NA+    NA+46883  18.571   7.683   2.381
74470NA+    NA+46884  21.176  41.322   9.955
74471NA+    NA+46885  30.459  28.478  10.411
74472NA+    NA+46886  29.634  22.738   3.806
74473NA+    NA+46887  24.528  19.709  11.599
74474NA+    NA+46888  30.585   8.855   1.752
74475NA+    NA+46889  14.264   4.355   4.711
74476NA+    NA+46890   6.784   0.481   3.718
74477NA+    NA+46891  44.392  36.985  14.854
74478NA+    NA+46892  14.269  20.143   0.938
74479NA+    NA+46893  40.360  44.794  11.586
74480NA+    NA+46894   0.309  27.960   2.367
74481NA+    NA+46895  11.365  25.580   4.794
74482NA+    NA+46896  34.376  24.482   1.863
74483NA+    NA+46897  33.461  13.654   4.733
74484NA+    NA+46898  31.540  39.824  14.803
74485NA+    NA+46899  25.713  37.358  12.501
74486NA+    NA+46900   0.798  26.056   0.812
74487NA+    NA+46901  13.139   1.291  13.315
74488NA+    NA+46902   1.458  21.587  13.404
74489NA+    NA+46903  38.356  26.117   4.814
74490NA+    NA+46904  21.660  38.010  13.876
74491NA+    NA+46905  42.373  40.979   3.665
74492NA+    NA+46906   2.278  36.508   0.860
74493NA+    NA+46907   4.420   8.278   3.207
74494NA+    NA+46908  44.951  22.610  14.315
74495NA+    NA+46909  38.008  23.539  13.817
74496NA+    NA+46910  38.415   4.765  13.886
74497NA+    NA+46911  14.733  36.497   3.253
74498NA+    NA+46912  13.329  21.688  11.870
74499NA+    NA+46913  11.357  27.166  13.528
74500NA+    NA+46914  36.444  42.030  12.519
74501NA+    NA+46915  34.571   4.355  13.897
74502NA+    NA+46916  36.514  24.586  11.862
74503NA+    NA+46917  40.833  24.680   4.270
74504NA+    NA+46918  32.953  41.315   3.201
74505NA+    NA+46919   7.248   2.891  10.453
74506NA+    NA+46920  38.350  43.360   4.625
74507NA+    NA+46921  14.279  27.552  14.768
74508NA+    NA+46922   5.380  42.931   3.185
74509NA+    NA+46923  38.826  33.496  10.466
74510NA+    NA+46924  29.607  15.180   2.283
74511NA+    NA+46925  43.871  32.612   0.776
74512NA+    NA+46926  41.435  38.975   1.385
74513NA+    NA+46927  19.147   2.893   1.448
74514NA+    NA+46928  39.432  34.579  12.830
74515NA+    NA+46929  19.561  17.708   2.748
74516NA+    NA+46930  41.422  38.825  14.792
74517NA+    NA+46931   2.848  18.172   3.750
74518NA+    NA+46932  27.600   4.867   3.707
74519NA+    NA+46933  40.401  15.085  13.940
74520NA+    NA+46934  31.531  40.394   1.822
74521NA+    NA+46935  17.668  21.092  12.881
74522NA+    NA+46936  44.975  16.280  10.607
74523NA+    NA+46937  18.569  44.821   2.886
74524NA+    NA+46938  10.343  41.877  14.460
74525NA+    NA+46939  21.517  33.561  14.809
74526NA+    NA+46940  16.131  29.112  11.101
74527NA+    NA+46941  16.764   9.246   0.319
74528NA+    NA+46942  12.839  24.537  10.996
74529NA+    NA+46943  34.057  27.542   1.407
74530NA+    NA+46944  37.438  39.895  13.894
74531NA+    NA+46945  26.005  20.527   1.825
74532NA+    NA+46946  12.638  18.581  13.868
74533NA+    NA+46947   7.857  16.147  10.473
74534NA+    NA+46948  14.708  41.463  13.467
74535NA+    NA+46949   9.861  12.264  14.435
74536NA+    NA+46950  24.153   3.897   0.795
74537NA+    NA+46951  42.350  33.427   1.300
74538NA+    NA+46952  44.327  19.614   2.262
74539CL-    CL-46953  16.676  43.777  14.818
74540CL-    CL-46954  31.620  12.680   1.906
74541CL-    CL-46955  20.066  37.881  11.073
74542CL-    CL-46956   6.400  11.227   3.252
74543CL-    CL-46957   4.355  40.054  11.549
74544CL-    CL-46958  33.593   8.895  14.834
74545CL-    CL-46959  43.993  30.125  12.081
74546CL-    CL-46960  24.561  32.068  11.393
74547CL-    CL-46961  40.450  25.515   3.659
74548CL-    CL-46962  34.077  11.652   1.844
74549CL-    CL-46963   2.735  43.857   4.688
74550CL-    CL-46964  42.308  30.011   4.116
74551CL-    CL-46965  40.965   2.725  11.441
74552CL-    CL-46966   7.211  41.924   2.250
74553CL-    CL-46967  27.165  32.508   3.863
74554CL-    CL-46968   6.184   8.768   3.816
74555CL-    CL-46969   8.325  39.451   0.268
74556CL-    CL-46970  19.696  25.198  10.611
74557CL-    CL-46971  43.996  15.170   3.370
74558CL-    CL-46972  15.176  14.817   3.381
74559CL-    CL-46973   2.801  14.710   1.836
74560CL-    CL-46974   3.405  36.573  11.952
74561CL-    CL-46975   2.337  38.539  10.558
74562CL-    CL-46976   4.436  10.274  14.867
74563CL-    CL-46977  12.645  34.482  12.076
74564CL-    CL-46978  37.455  34.937   2.258
74565CL-    CL-46979   7.287  39.018   0.276
74566CL-    CL-46980  21.517   2.867  12.854
74567CL-    CL-46981  13.311  14.815   0.761
74568CL-    CL-46982  21.530  44.286  10.030
74569CL-    CL-46983  41.535   3.420  12.414
74570CL-    CL-46984  22.581   7.805  13.453
74571CL-    CL-46985  24.023  17.071  10.023
74572CL-    CL-46986  16.661   5.858  10.600
74573CL-    CL-46987  19.070  31.981  14.481
74574CL-    CL-46988  30.117  37.406   2.283
74575CL-    CL-46989  24.632  20.553  13.528
74576CL-    CL-46990   4.893   8.793  12.094
74577CL-    CL-46991  32.461  38.889   2.827
74578CL-    CL-46992   6.193  13.306  13.036
74579CL-    CL-46993   3.909  14.122  12.347
74580CL-    CL-46994  39.447  31.537  13.915
74581CL-    CL-46995  40.406  27.656  12.003
74582CL-    CL-46996  33.008   1.241   3.229
74583CL-    CL-46997   5.273  35.062   2.374
74584CL-    CL-46998  37.369  35.914   3.682
74585CL-    CL-46999  31.009  31.080  11.603
74586CL-    CL-47000   0.920  36.074   0.914
74587CL-    CL-47001  22.586  39.991   2.826
74588CL-    CL-47002  17.556  23.724  10.426
74589CL-    CL-47003  38.466  38.832  14.421
74590CL-    CL-47004  16.133  19.099  13.310
74591CL-    CL-47005  43.993  40.009   3.736
74592CL-    CL-47006  36.043  28.491   4.335
74593CL-    CL-47007  20.650   9.266   1.247
74594CL-    CL-47008  27.946   2.940   4.261
74595CL-    CL-47009   0.491  27.671   0.729
74596CL-    CL-47010  37.368  10.191  14.848
74597CL-    CL-47011   2.730  17.141   1.929
74598CL-    CL-47012  24.672  31.063   2.886
74599CL-    CL-47013  28.486   1.780  11.125
74600CL-    CL-47014  41.345  30.650  14.367
74601CL-    CL-47015  39.380  25.025  13.365
74602CL-    CL-47016  24.530   6.790   4.346
74603CL-    CL-47017  44.767  12.232  10.472
74604CL-    CL-47018  20.632  28.989   1.431
74605CL-    CL-47019  28.974  27.529  14.834
74606CL-    CL-47020  41.494  30.483   0.805
74607CL-    CL-47021  25.122  11.328   3.864
74608CL-    CL-47022   3.739  14.628   0.812
74609CL-    CL-47023  31.604  43.425  10.892
74610CL-    CL-47024  22.595  26.497  12.564
74611CL-    CL-47025  44.456  30.998   0.791
74612CL-    CL-47026   5.701   4.207  10.599
74613CL-    CL-47027  27.603  42.424   3.696
74614CL-    CL-47028  32.418  32.931  13.984
74615CL-    CL-47029   0.943   9.229   4.221
74616CL-    CL-47030  44.463  36.356  14.305
74617CL-    CL-47031   1.273  23.695  11.886
74618CL-    CL-47032   8.326  37.544  13.939
74619CL-    CL-47033  15.264  21.194  12.838
74620CL-    CL-47034  33.921  33.896   4.143
74621CL-    CL-47035  31.487  26.567   0.366
74622CL-    CL-47036  14.636  15.255  14.030
74623CL-    CL-47037   2.775  28.166   3.238
74624CL-    CL-47038   6.289  10.179  13.522
74625CL-    CL-47039   6.264  26.700  10.538
74626CL-    CL-47040  28.648  38.479  13.938
74627CL-    CL-47041   5.838  27.516   4.279
74628CL-    CL-47042  12.806  28.103  13.380
74629CL-    CL-47043  35.569  14.731   0.254
74630CL-    CL-47044   1.312   8.295  11.918
74631CL-    CL-47045   0.825  25.540   3.671
74632CL-    CL-47046   7.311  17.630  13.440
74633CL-    CL-47047   9.829  33.600  12.886
74634CL-    CL-47048  23.134  37.464   3.780
74635CL-    CL-47049  35.529  38.859   4.291
74636CL-    CL-47050  42.361  35.076   2.294
74637CL-    CL-47051  20.685  10.768  13.902
74638CL-    CL-47052  21.038   1.758   4.631
74639CL-    CL-47053  41.508   9.339  13.539
74640CL-    CL-47054   8.700  10.761  14.333
74641CL-    CL-47055  33.511  27.633  13.461
74642CL-    CL-47056  38.329  34.449   2.720
74643CL-    CL-47057  13.198  44.000  14.295
74644CL-    CL-47058  21.570  20.749  13.450
74645CL-    CL-47059  19.156   0.349  12.378
74646CL-    CL-47060  36.452  20.631  13.487
74647CL-    CL-47061  20.661  29.437  10.936
74648CL-    CL-47062  11.373  20.657  13.987
74649CL-    CL-47063  29.918  43.357  11.464
74650CL-    CL-47064  11.652  36.891  12.403
74651CL-    CL-47065  31.610  19.633  11.576
74652CL-    CL-47066  36.952   5.799   0.936
74653CL-    CL-47067  32.492  33.566   0.483
74654CL-    CL-47068  18.144  13.241  12.578
74655CL-    CL-47069  37.934  23.205   1.858
74656CL-    CL-47070  36.516  17.702  13.377
74657CL-    CL-47071   1.446  24.704   0.254
74658CL-    CL-47072  19.253  14.622  11.030
74659CL-    CL-47073  13.141  32.974   0.399
74660CL-    CL-47074  23.648  36.085   4.282
74661CL-    CL-47075   8.225  24.099   1.251
74662CL-    CL-47076  42.024  14.655   4.116
74663CL-    CL-47077  26.197   8.265  13.061
74664CL-    CL-47078  37.956   2.394  11.483
74665CL-    CL-47079  44.776   0.954  11.030
74666CL-    CL-47080  25.027  34.432   1.358
74667CL-    CL-47081   6.812  35.046   2.325
74668CL-    CL-47082  21.242  41.882  11.869
74669CL-    CL-47083  40.498  35.371  14.465
74670CL-    CL-47084  10.720  26.690  13.404
74671CL-    CL-47085  11.336   5.923   0.951
74672CL-    CL-47086  19.159  36.589  13.983
74673CL-    CL-47087  27.576  20.097   4.187
74674CL-    CL-47088  35.477  14.232   4.743
74675CL-    CL-47089  25.162   3.382  11.062
74676CL-    CL-47090  22.732  43.792  10.496
74677CL-    CL-47091  17.605  12.196  11.592
74678CL-    CL-47092  28.498  28.935  11.031
74679CL-    CL-47093  43.325  19.047   2.179
74680CL-    CL-47094  39.810  31.549  14.493
74681CL-    CL-47095   2.734  44.360   0.940
74682CL-    CL-47096   1.947  44.862  11.438
74683CL-    CL-47097  39.053  21.180   0.779
74684CL-    CL-47098  15.779  23.511  12.545
74685CL-    CL-47099  13.143   6.838  11.052
74686CL-    CL-47100  41.887   8.708   0.378
74687CL-    CL-47101  10.368  16.684  11.063
74688CL-    CL-47102  12.765  28.974  13.405
74689CL-    CL-47103  40.958  10.711  12.554
74690CL-    CL-47104  10.712  32.903   3.761
74691CL-    CL-47105   0.988  22.061   0.795
74692CL-    CL-47106  20.222  39.460  13.844
74693CL-    CL-47107   9.181  20.641   0.390
74694CL-    CL-47108   6.689   6.233  13.529
74695CL-    CL-47109   1.869   0.913  12.425
74696CL-    CL-47110  41.982  10.664   4.719
74697CL-    CL-47111  21.665  20.726  10.957
74698CL-    CL-47112  16.694   4.863  13.450
74699CL-    CL-47113  13.319   8.765   4.665
74700CL-    CL-47114  24.481   1.946   2.748
74701CL-    CL-47115  40.456  43.373   4.303
74702CL-    CL-47116   7.820  27.940  10.561
74703CL-    CL-47117   0.422  18.638   2.717
74704CL-    CL-47118  25.711  12.706  11.452
74705CL-    CL-47119  36.478  26.535  13.534
74706CL-    CL-47120  19.235   9.315  14.306
74707CL-    CL-47121  17.730  11.853  14.432
74708CL-    CL-47122   7.758  36.971   2.679
74709CL-    CL-47123  23.676  19.181   1.337
74710CL-    CL-47124  39.380  34.425   5.187
74711CL-    CL-47125  44.817   9.310  12.355
74712CL-    CL-47126  10.366  35.567  13.451
74713CL-    CL-47127  34.044  24.694   1.409
74714CL-    CL-47128  17.558  14.290   3.853
74715CL-    CL-47129   7.775   3.952   1.718
74716CL-    CL-47130  13.653  16.574   2.213
74717CL-    CL-47131  15.269  12.190  14.375
74718CL-    CL-47132  43.456  24.706  13.976
74719CL-    CL-47133  35.054  29.996  10.926
74720CL-    CL-47134  15.098  39.375   0.464
74721CL-    CL-47135  30.574  42.319   3.344
74722CL-    CL-47136  40.045  37.526  11.549
74723CL-    CL-47137   3.879  17.599   0.754
74724CL-    CL-47138  11.709  26.980   1.231
74725CL-    CL-47139  18.744  26.046   4.679
74726CL-    CL-47140  26.591   1.893   9.986
74727CL-    CL-47141  14.094  33.907  11.567
74728CL-    CL-47142  11.783  28.138  13.989
74729CL-    CL-47143  40.967   8.785   1.285
74730CL-    CL-47144  34.977   9.188   2.345
74731CL-    CL-47145  21.599  21.545   4.268
74732CL-    CL-47146  42.395  39.962   0.281
74733CL-    CL-47147  36.889  13.739  13.457
74734CL-    CL-47148  29.589  13.727  14.510
74735CL-    CL-47149   2.396   3.860   2.806
74736CL-    CL-47150  30.918   8.188  12.026
74737CL-    CL-47151   5.422  16.172   3.695
74738CL-    CL-47152  25.694  33.587  14.481
74739CL-    CL-47153   1.819  18.701   0.936
74740CL-    CL-47154   2.839  23.168   3.680
74741CL-    CL-47155  24.168  43.293   3.160
74742CL-    CL-47156   4.314  35.978   2.403
74743CL-    CL-47157  43.510  15.156  11.921
74744CL-    CL-47158  43.868   6.714   4.190
74745CL-    CL-47159  21.611  18.232   3.641
74746CL-    CL-47160  43.492   7.233  11.576
74747CL-    CL-47161  41.837  19.247   0.269
74748CL-    CL-47162  19.272  17.724   1.279
74749CL-    CL-47163  35.921   9.200  14.007
74750CL-    CL-47164  42.337   9.153   2.384
74751CL-    CL-47165  41.887  22.696  11.465
74752CL-    CL-47166  39.933  26.020   1.919
74753CL-    CL-47167  14.249  38.959   2.790
74754CL-    CL-47168  18.230  35.420   1.791
74755CL-    CL-47169   5.837  14.332   3.220
74756CL-    CL-47170  27.973  41.440  13.056
74757CL-    CL-47171  11.198  18.781   0.735
74758CL-    CL-47172  32.138   1.242   5.139
74759CL-    CL-47173  10.729  36.397   4.838
74760CL-    CL-47174  14.705  42.858  13.968
74761CL-    CL-47175  24.570  38.387  14.426
74762CL-    CL-47176  28.143  31.980   3.829
74763CL-    CL-47177  41.506  20.119  13.921
74764CL-    CL-47178  13.192  37.020  12.482
74765CL-    CL-47179  30.930  16.174   3.338
74766CL-    CL-47180  12.181  42.476   0.811
74767CL-    CL-47181   0.305  20.743   0.316
74768CL-    CL-47182  13.627  26.519  13.914
74769CL-    CL-47183  42.290  43.836  14.510
74770CL-    CL-47184  13.763  12.848  12.858
74771CL-    CL-47185  42.488  39.385  10.946
74772CL-    CL-47186  38.551   7.883  14.971
74773CL-    CL-47187   2.258   9.789   0.295
74774CL-    CL-47188  36.066  30.081   2.840
74775CL-    CL-47189  20.575  21.214  12.536
74776CL-    CL-47190  27.016   0.408  12.393
74777CL-    CL-47191  24.143  14.250  13.791
74778CL-    CL-47192  25.032  22.160  11.566
74779CL-    CL-47193   8.815   8.370  10.422
74780CL-    CL-47194  17.282   5.282   3.326
74781CL-    CL-47195  19.548   1.907   2.236
74782CL-    CL-47196  11.337   7.384   2.690
74783CL-    CL-47197  35.913  38.373  13.389
74784CL-    CL-47198   5.841  43.435  14.890
74785CL-    CL-47199  40.883   0.886   1.432
74786CL-    CL-47200   8.668  26.959  13.317
74787CL-    CL-47201  40.045  23.020   2.852
74788CL-    CL-47202   5.735  36.971  12.999
74789CL-    CL-47203  41.987  25.613   3.355
74790CL-    CL-47204  34.082   9.685   4.744
74791CL-    CL-47205   4.758  33.410  11.057
74792CL-    CL-47206  25.144  39.001  11.098
74793CL-    CL-47207   4.910  15.213   0.798
74794CL-    CL-47208  23.181  22.624  11.456
74795CL-    CL-47209  14.756  40.420  10.137
74796CL-    CL-47210  28.064  40.338   4.330
74797CL-    CL-47211  15.593   7.224   5.186
74798CL-    CL-47212  44.977  18.573  10.893
74799CL-    CL-47213  38.498   6.218  12.915
74800CL-    CL-47214  13.275   1.477   2.391
74801CL-    CL-47215  24.478  30.545  14.385
74802CL-    CL-47216   4.910  35.103   0.445
74803CL-    CL-47217  10.156  18.791   3.649
74804CL-    CL-47218  23.228  25.190   2.319
74805CL-    CL-47219   4.767  30.637  12.366
74806CL-    CL-47220  39.372  38.366  10.488
74807CL-    CL-47221   1.390  19.217   3.695
74808CL-    CL-47222   1.817  27.578  12.549
74809CL-    CL-47223  31.072   1.342  10.409
74810CL-    CL-47224   3.297  24.085  11.929
74811CL-    CL-47225  32.455   0.361  11.920
74812CL-    CL-47226  32.472  29.920  14.833
74813CL-    CL-47227  17.185   9.170  12.075
74814CL-    CL-47228  36.430  43.890   4.196
74815CL-    CL-47229  24.582  13.157  12.860
74816CL-    CL-47230  14.107  19.100  14.851
74817CL-    CL-47231  14.190   7.850   2.820
74818CL-    CL-47232  28.930  37.003  14.853
74819CL-    CL-47233   8.745  17.219  12.078
74820CL-    CL-47234  33.078  18.251  13.991
74821CL-    CL-47235   7.281  32.968   4.327
74822CL-    CL-47236  20.763  19.127   2.881
74823CL-    CL-47237  34.068  44.964   2.903
74824CL-    CL-47238  27.025  34.952  14.875
74825CL-    CL-47239  14.659  19.577   5.178
74826CL-    CL-47240   3.755  40.421  12.554
74827CL-    CL-47241  10.762  33.031   3.306
74828CL-    CL-47242  15.243  14.819   1.910
74829CL-    CL-47243  39.467  36.056   3.807
74830CL-    CL-47244  32.055  43.445  10.607
74831CL-    CL-47245  21.152  37.882   3.762
74832CL-    CL-47246  29.467   4.810   1.865
74833CL-    CL-47247  12.828   9.654   1.285
74834CL-    CL-47248  12.207  39.339  12.499
74835CL-    CL-47249  18.249   1.480  14.301
74836CL-    CL-47250  16.793  16.751  13.876
74837CL-    CL-47251  29.052   8.191  13.911
74838CL-    CL-47252   3.404  28.048  14.348
74839CL-    CL-47253  30.428  28.640   2.379
74840CL-    CL-47254   1.276  19.589  14.289
74841CL-    CL-47255   5.778   6.286  12.947
74842CL-    CL-47256  26.953  12.773  11.488
74843CL-    CL-47257  11.730  32.472  14.366
74844CL-    CL-47258   4.247   0.406  11.076
74845CL-    CL-47259   2.748  31.136   2.745
74846CL-    CL-47260  18.610  24.511  13.062
74847CL-    CL-47261  26.692  42.966  10.049
74848CL-    CL-47262  44.794  36.960   4.141
74849CL-    CL-47263  34.941  13.163  14.509
74850CL-    CL-47264   9.293  43.927  12.097
74851CL-    CL-47265  15.083  44.010   3.733
74852CL-    CL-47266  36.901  15.115   0.439
74853CL-    CL-47267   1.244  21.616   4.238
74854CL-    CL-47268  11.278   7.702   3.239
74855CL-    CL-47269  14.235   1.395  12.432
74856CL-    CL-47270   7.367  25.604  12.487
74857CL-    CL-47271  27.468   4.821   0.870
74858CL-    CL-47272   0.406  28.560   2.396
74859CL-    CL-47273  36.952   3.225  14.980
74860CL-    CL-47274  26.464  40.423  14.986
74861CL-    CL-47275   1.770  42.365  14.400
74862CL-    CL-47276   4.225  19.253   4.140
74863CL-    CL-47277  20.756   3.446  12.397
74864CL-    CL-47278  30.075  42.873  13.975
74865CL-    CL-47279  34.370  33.895  11.915
74866CL-    CL-47280  19.070  23.642  13.834
74867CL-    CL-47281  17.754  39.976   4.806
74868CL-    CL-47282  32.975  13.151   0.892
74869CL-    CL-47283  12.731  19.229   3.673
74870CL-    CL-47284   2.859  39.038  11.079
74871CL-    CL-47285  17.130  30.024  13.315
74872CL-    CL-47286  39.977  32.548   1.718
74873CL-    CL-47287  12.352  22.241   1.375
74874CL-    CL-47288  14.203  16.197  11.529
74875CL-    CL-47289   5.323   4.447  12.535
74876CL-    CL-47290  27.536   4.310  14.329
74877CL-    CL-47291  15.758  42.943  10.617
74878CL-    CL-47292  28.626  31.531   1.429
74879CL-    CL-47293  37.846  28.156   1.446
74880CL-    CL-47294   5.388   2.805   3.177
74881CL-    CL-47295  29.934  15.637   0.282
74882CL-    CL-47296  25.009  19.681  14.494
74883CL-    CL-47297  38.073  34.386   4.154
74884CL-    CL-47298   4.254  19.737   4.691
74885CL-    CL-47299  12.714  13.664   1.254
74886CL-    CL-47300  38.982  44.865  14.461
74887CL-    CL-47301  34.502  13.106   1.237
74888CL-    CL-47302   1.941  21.099   9.948
74889CL-    CL-47303  20.098  10.769  11.518
74890CL-    CL-47304  16.081  25.523  14.355
74891CL-    CL-47305   1.383  30.430  14.969
74892CL-    CL-47306  27.125  38.326  13.914
74893CL-    CL-47307  29.576  39.812   4.179
74894CL-    CL-47308  42.473   3.783  14.912
74895CL-    CL-47309  31.151   8.789  12.567
74896CL-    CL-47310  11.137   9.272   3.743
74897CL-    CL-47311  33.521  13.829   3.712
74898CL-    CL-47312  28.463  11.685   3.701
74899CL-    CL-47313  30.620  22.665  11.425
74900CL-    CL-47314   7.805  42.285   3.716
74901CL-    CL-47315   6.801  44.995  13.851
74902CL-    CL-47316  18.161  22.081  12.353
74903CL-    CL-47317  41.309   0.843   3.207
74904CL-    CL-47318  31.587  12.692   3.366
74905CL-    CL-47319   2.738  29.983   4.652
74906CL-    CL-47320  20.756  20.629  12.843
74907CL-    CL-47321  18.075   5.823   2.332
74908CL-    CL-47322   3.780   8.675  11.594
74909CL-    CL-47323  37.517  37.854   1.798
74910CL-    CL-47324  37.086  17.136  13.494
74911CL-    CL-47325  20.194  20.242  10.922
74912CL-    CL-47326  35.448  29.537  13.356
74913CL-    CL-47327  28.117  16.235   0.794
74914CL-    CL-47328  35.480  30.513  12.422
74915CL-    CL-47329  20.259   6.272  12.879
74916CL-    CL-47330   2.332  18.214   3.869
74917CL-    CL-47331  43.965  31.439   0.375
74918CL-    CL-47332  42.808  23.673  13.495
74919CL-    CL-47333   0.424  32.589   2.822
74920CL-    CL-47334  21.019  33.034  10.901
74921CL-    CL-47335  20.534  26.136  12.066
74922CL-    CL-47336  24.633  40.319   0.306
74923CL-    CL-47337  44.317  32.406  14.402
74924CL-    CL-47338   7.194  39.986   2.282
74925CL-    CL-47339  23.710   2.277  14.820
74926CL-    CL-47340  30.468  35.935  13.525
74927CL-    CL-47341  36.017  42.807   3.369
74928CL-    CL-47342  17.093   6.385   4.299
74929CL-    CL-47343  27.686  19.651   4.814
74930CL-    CL-47344  32.991   0.374   0.432
74931CL-    CL-47345   4.272  41.853  10.598
74932CL-    CL-47346  33.874  22.092   4.821
74933CL-    CL-47347  16.575   5.320   2.328
74934CL-    CL-47348  13.633  41.474   2.690
74935CL-    CL-47349  42.782   7.331   2.892
74936CL-    CL-47350   2.343  43.374  13.895
74937CL-    CL-47351  37.053  15.752  12.947
74938CL-    CL-47352   1.240  27.172  12.341
74939CL-    CL-47353   6.403  26.516  11.955
74940CL-    CL-47354  23.118  41.496   1.325
74941CL-    CL-47355  18.684  44.009   3.700
74942CL-    CL-47356  31.088  36.985  12.025
74943CL-    CL-47357   6.338   4.853  11.901
74944CL-    CL-47358  12.120  44.939   2.327
74945CL-    CL-47359  31.949  14.690  12.409
74946CL-    CL-47360  30.021  44.776   0.849
74947CL-    CL-47361  12.354  26.514  11.609
74948CL-    CL-47362  31.930   4.367   1.351
74949CL-    CL-47363  36.842  14.593   2.707
74950CL-    CL-47364  19.696  16.596  13.970
74951CL-    CL-47365  43.986  39.441  13.859
74952CL-    CL-47366  21.732  16.130  13.991
74953CL-    CL-47367  44.887  40.037  13.324
74954CL-    CL-47368  40.942  34.068  11.057
74955CL-    CL-47369  18.236   1.819   1.246
74956CL-    CL-47370  27.948   3.812  13.439
74957CL-    CL-47371  39.545   9.377  12.526
74958CL-    CL-47372  34.377  32.048  13.411
74959CL-    CL-47373  38.821  42.921   0.897
74960CL-    CL-47374   4.904  16.621  13.954
74961CL-    CL-47375  32.994   9.213  11.879
74962CL-    CL-47376  20.546  36.020  11.886
74963CL-    CL-47377  41.026  27.649  14.818
74964CL-    CL-47378   2.784  30.538  12.072
74965CL-    CL-47379  39.044  33.048   2.837
74966CL-    CL-47380  17.064  12.331   3.231
74967CL-    CL-47381  34.424   6.727  11.500
74968CL-    CL-47382   7.806   9.326   0.780
74969CL-    CL-47383   0.363   8.381   0.419
74970CL-    CL-47384  21.021   3.946   4.708
74971CL-    CL-47385   1.372  28.673  14.377
74972CL-    CL-47386  30.976  31.014   4.223
74973CL-    CL-47387  16.215  15.244  10.968
74974CL-    CL-47388   8.214   7.750   3.148
74975CL-    CL-47389  41.497   5.870   3.759
74976CL-    CL-47390  35.543  20.030  12.879
74977CL-    CL-47391  20.104  21.175   2.239
74978CL-    CL-47392   4.764   9.787  13.490
74979CL-    CL-47393  18.284  30.498   4.603
74980CL-    CL-47394   0.940  34.944   1.825
74981CL-    CL-47395  32.408  33.966   4.193
74982CL-    CL-47396   8.280  36.449   4.294
74983CL-    CL-47397  20.551  14.722   4.723
74984CL-    CL-47398  38.841  27.491   1.438
74985CL-    CL-47399  26.185   9.866   3.223
74986CL-    CL-47400   7.708   2.244  10.926
74987CL-    CL-47401  14.811  26.960  12.566
74988CL-    CL-47402  19.154   8.198   3.704
74989CL-    CL-47403  26.668  13.803   4.170
74990CL-    CL-47404   8.405  33.913   3.847
74991CL-    CL-47405  10.243   4.218  11.546
74992CL-    CL-47406  31.059  24.203   5.213
74993CL-    CL-47407  29.616  40.036  12.002
74994CL-    CL-47408  30.617  33.954  13.971
74995CL-    CL-47409   7.183  43.338   3.370
74996CL-    CL-47410  44.763  35.859  10.616
74997CL-    CL-47411  44.835   9.172  14.989
74998CL-    CL-47412   5.752  20.158  10.502
74999CL-    CL-47413  29.018  44.791  13.543
75000CL-    CL-47414  30.500  11.830  11.126
75001CL-    CL-47415  11.824   4.306   3.740
75002CL-    CL-47416   6.200  17.222   1.818
75003CL-    CL-47417   1.848  23.099   1.295
75004CL-    CL-47418  35.881  12.252   3.223
75005CL-    CL-47419  39.515   2.826   2.835
75006CL-    CL-47420  11.771  40.506  11.414
75007CL-    CL-47421   3.412  41.012  13.814
75008CL-    CL-47422  37.428  16.132   4.770
75009CL-    CL-47423  36.450  12.653   4.327
75010CL-    CL-47424  42.290  21.715  14.297
75011CL-    CL-47425  16.766  12.132   1.875
75012CL-    CL-47426  13.207  30.472  11.077
75013CL-    CL-47427  18.239   2.358   3.146
75014CL-    CL-47428  38.385   4.758  10.408
75015CL-    CL-47429  29.079   7.704   3.254
75016CL-    CL-47430  32.487  21.113  10.625
75017CL-    CL-47431   5.696   7.229   2.697
75018CL-    CL-47432   3.259  40.523   5.306
75019CL-    CL-47433   3.296  38.075   1.749
75020CL-    CL-47434  33.446  30.446  13.801
75021CL-    CL-47435  27.678  29.657  14.440
75022CL-    CL-47436  22.512   0.469   2.215
75023CL-    CL-47437  39.832   1.337  12.067
75024CL-    CL-47438  34.118   4.705  11.914
75025CL-    CL-47439  16.315  36.415   3.259
75026CL-    CL-47440  25.498  26.481  10.135
75027CL-    CL-47441  33.050  12.684   3.694
75028CL-    CL-47442  13.218   5.832   1.852
75029CL-    CL-47443  20.641   6.901   1.394
75030CL-    CL-47444   4.715  35.012   1.795
75031CL-    CL-47445  37.010  29.606  12.851
75032CL-    CL-47446  33.456  30.976   0.883
75033CL-    CL-47447  15.674  34.867   2.691
75034CL-    CL-47448  34.529  40.461   3.163
75035CL-    CL-47449   5.862  25.980  13.962
75036CL-    CL-47450  20.244   1.881   9.934
75037CL-    CL-47451   3.754  15.695   0.253
75038CL-    CL-47452  15.306  36.956   1.432
75039CL-    CL-47453  10.773  14.268   1.738
75040CL-    CL-47454  44.757  13.818   4.204
75041CL-    CL-47455  34.456  14.225  14.425
75042CL-    CL-47456  36.928  13.236  11.489
75043CL-    CL-47457  34.066  38.870  13.983
75044CL-    CL-47458  30.535  21.528   4.657
75045CL-    CL-47459  23.165  12.210  14.765
75046CL-    CL-47460  11.844  41.430   4.615
75047CL-    CL-47461  16.648   1.407   2.822
75048CL-    CL-47462  43.452  25.709   4.800
75049CL-    CL-47463  24.158  29.069   3.342
75050CL-    CL-47464  38.428   0.467  10.921
75051CL-    CL-47465   5.780  30.413  10.593
75052CL-    CL-47466  36.550  25.023  10.530
75053CL-    CL-47467  23.103  10.686   0.451
75054CL-    CL-47468  44.935  21.602  11.560
75055CL-    CL-47469   4.733  15.142  12.031
75056CL-    CL-47470  18.560  13.759  11.943
75057CL-    CL-47471  31.146   2.410  12.339
75058CL-    CL-47472   8.187  43.338   2.873
75059CL-    CL-47473  30.084  41.874  13.995
75060CL-    CL-47474  34.883   0.474  13.817
75061CL-    CL-47475   6.343  22.154   2.812
75062CL-    CL-47476  38.984  15.279  11.508
75063CL-    CL-47477  15.721  14.142  12.524
75064CL-    CL-47478  44.290   2.841  11.108
75065CL-    CL-47479  24.667  23.132   1.729
75066CL-    CL-47480  28.482  26.648  11.927
75067CL-    CL-47481   4.918  44.906   4.754
75068CL-    CL-47482  36.500  40.385  14.774
75069CL-    CL-47483  17.301  24.032  11.544
75070CL-    CL-47484   3.372   2.922  13.505
75071CL-    CL-47485  16.190  35.085   4.833
75072CL-    CL-47486  28.573   0.254  13.401
75073CL-    CL-47487  24.083  20.168  10.613
75074CL-    CL-47488   2.760  20.637   3.363
75075CL-    CL-47489  14.709  20.602  13.407
75076CL-    CL-47490  41.298  31.973   1.303
75077CL-    CL-47491   7.814  21.188   3.232
75078CL-    CL-47492  17.176   0.400  13.797
75079CL-    CL-47493   2.398  26.993  13.051
75080CL-    CL-47494   3.372  15.668   0.385
75081CL-    CL-47495  40.029  20.737   0.261
75082CL-    CL-47496  40.924  15.796  11.058
75083CL-    CL-47497  19.737  40.917  10.946
75084CL-    CL-47498   4.719  37.555  12.554
75085CL-    CL-47499  19.045  20.123  12.869
75086CL-    CL-47500  34.994  18.115   0.895
75087CL-    CL-47501   6.190  13.815   2.286
75088CL-    CL-47502  21.203   9.357   3.653
75089CL-    CL-47503  15.311   6.352  11.395
75090CL-    CL-47504  38.387  32.621  10.606
75091CL-    CL-47505  23.682  10.872   1.831
75092CL-    CL-47506  33.528  12.195  14.296
75093CL-    CL-47507  24.682   8.821   4.208
75094CL-    CL-47508  14.814   5.776  12.886
75095CL-    CL-47509  28.625   8.836   3.211
75096CL-    CL-47510   9.762  33.428  12.093
75097CL-    CL-47511   5.768   9.741  13.951
75098CL-    CL-47512  41.019  11.252   1.360
75099CL-    CL-47513  19.669  15.194   0.336
75100CL-    CL-47514  19.772   8.711  10.578
75101CL-    CL-47515  35.006  11.807  14.508
75102CL-    CL-47516  39.343  20.647  10.570
75103CL-    CL-47517  14.687   8.167  12.422
75104CL-    CL-47518   1.453   3.351   1.914
75105CL-    CL-47519   1.967   2.457   0.853
75106CL-    CL-47520  25.495   6.292  13.350
75107CL-    CL-47521  12.810   7.795  12.890
75108CL-    CL-47522  26.166   3.254   0.276
75109CL-    CL-47523  40.385  42.026   4.141
75110CL-    CL-47524   0.337  27.098  13.316
75111CL-    CL-47525   6.683   9.294  14.778
75112CL-    CL-47526  20.736   8.782   2.854
75113CL-    CL-47527  42.944  37.054  13.343
75114CL-    CL-47528  44.322  19.182   1.339
75115CL-    CL-47529  15.324  28.656   0.832
75116CL-    CL-47530  20.194  41.355   0.304
75117CL-    CL-47531  35.377   6.839   1.921
75118CL-    CL-47532  34.433  43.363  14.934
75119CL-    CL-47533  14.591  27.196   1.367
75120CL-    CL-47534  27.023  43.916   3.702
75121CL-    CL-47535  13.118  25.089  13.342
75122CL-    CL-47536   6.416  41.530  14.413
75123CL-    CL-47537  37.977  20.700  10.535
75124CL-    CL-47538  23.994  26.117   3.698
75125CL-    CL-47539  30.586   0.828  10.899
75126CL-    CL-47540  16.316   9.863   4.707
75127CL-    CL-47541  10.673   5.794   3.732
75128CL-    CL-47542  22.697  28.632  14.974
75129CL-    CL-47543   9.177  15.147  13.344
75130CL-    CL-47544  16.610  34.890  10.464
75131CL-    CL-47545  42.446   7.870   2.318
75132CL-    CL-47546  18.586   8.841  12.025
75133CL-    CL-47547  25.490  25.567  14.311
75134CL-    CL-47548  13.108  14.668  12.484
75135CL-    CL-47549  40.454  43.928  14.418
75136CL-    CL-47550  11.798  35.858   4.344
75137CL-    CL-47551  20.636  26.066   1.749
75138CL-    CL-47552  27.515  14.650  11.427
75139CL-    CL-47553   6.255  13.341   1.322
75140CL-    CL-47554  34.973  34.057   3.180
75141CL-    CL-47555  13.625  37.964  12.018
75142CL-    CL-47556  15.684  37.946   0.967
75143CL-    CL-47557   1.326   0.960   2.774
75144CL-    CL-47558  14.316  30.987   2.206
75145CL-    CL-47559   9.791   5.693  12.374
75146CL-    CL-47560  28.945   8.383   2.771
75147CL-    CL-47561   8.337  15.120  12.081
75148CL-    CL-47562  23.214  24.003  14.791
75149CL-    CL-47563  25.993  25.660   2.698
75150CL-    CL-47564  17.699  37.020  12.022
75151CL-    CL-47565  20.158  18.780   4.180
75152CL-    CL-47566  27.650  10.755   0.299
75153CL-    CL-47567   1.334  25.471  12.006
75154CL-    CL-47568  21.100  17.230   2.327
75155CL-    CL-47569   2.911  14.282   1.231
75156CL-    CL-47570  20.533  16.180   2.764
75157CL-    CL-47571   2.893  21.632   1.437
75158CL-    CL-47572   9.246  16.643  11.517
75159CL-    CL-47573  23.045  34.938  11.460
75160CL-    CL-47574  42.454  39.321   0.277
75161CL-    CL-47575  43.404   4.290  13.952
75162CL-    CL-47576   2.785  26.602   2.237
75163CL-    CL-47577   6.876  14.153  13.342
75164CL-    CL-47578  42.286  20.684   0.872
75165CL-    CL-47579  28.144  39.481   4.338
75166CL-    CL-47580  14.132  37.575  11.955
75167CL-    CL-47581  24.620   1.329  12.080
75168CL-    CL-47582  38.960   2.235  14.891
75169CL-    CL-47583  10.813   0.919  11.880
75170CL-    CL-47584  40.415  11.260   3.816
75171CL-    CL-47585  26.030  28.576   2.672
75172CL-    CL-47586  32.566  13.125  14.784
75173CL-    CL-47587  24.031  14.693  11.999
75174CL-    CL-47588  33.121  18.567   4.264
75175CL-    CL-47589  14.687  10.144   3.174
75176CL-    CL-47590   3.880  24.519   1.888
75177CL-    CL-47591  41.434  40.010   2.224
75178CL-    CL-47592  16.287  27.509  13.912
75179CL-    CL-47593  14.796  21.756   0.775
75180CL-    CL-47594  44.260  22.232  11.485
75181CL-    CL-47595  15.814  26.967   3.866
75182CL-    CL-47596  14.683  19.200   2.270
75183CL-    CL-47597  28.578  30.588  13.478
75184CL-    CL-47598  24.627   9.172   3.642
75185CL-    CL-47599   7.371  24.133  13.952
75186CL-    CL-47600  16.567  26.161   0.811
75187CL-    CL-47601  29.500   9.882   0.910
75188CL-    CL-47602  37.914  24.694   3.756
75189CL-    CL-47603  32.610  26.204   3.339
75190CL-    CL-47604  39.426  36.919  12.352
75191CL-    CL-47605  27.650  40.943  12.006
75192CL-    CL-47606  41.958  33.480   3.352
75193CL-    CL-47607  22.524  26.490   0.361
75194CL-    CL-47608   0.935  41.489  13.545
75195CL-    CL-47609  15.109  17.647  13.833
75196CL-    CL-47610  20.716  24.183   2.682
75197CL-    CL-47611  34.974  10.856   2.754
75198CL-    CL-47612   2.401  32.045  10.432
75199CL-    CL-47613  20.532  15.083   2.221
75200CL-    CL-47614   8.247  28.496   4.623
75201CL-    CL-47615   6.356  44.873  14.954
75202CL-    CL-47616  35.378  25.633   4.132
75203CL-    CL-47617  24.128  36.369   4.299
75204CL-    CL-47618   3.300  27.525  13.461
75205CL-    CL-47619  28.094  12.629  10.492
75206CL-    CL-47620  40.043  40.827   2.869
75207CL-    CL-47621   5.315  32.540  14.973
75208CL-    CL-47622  42.281  10.843  11.461
75209CL-    CL-47623   0.446  21.135   4.619
75210CL-    CL-47624  33.461  24.654  12.943
75211CL-    CL-47625  43.957  32.531   3.846
75212CL-    CL-47626  11.366   9.697   0.785
75213CL-    CL-47627   8.171   7.323  14.389
75214CL-    CL-47628  32.953   1.286   2.874
75215CL-    CL-47629  21.131  30.970  11.964
75216CL-    CL-47630  39.821  18.264  13.949
75217CL-    CL-47631  25.993  43.442  11.024
75218CL-    CL-47632  12.361  40.357   3.215
75219CL-    CL-47633  28.584  28.517   1.827
75220CL-    CL-47634  33.489  33.928   9.924
75221CL-    CL-47635   6.862  21.070   3.375
75222CL-    CL-47636  14.639  27.084   0.952
75223CL-    CL-47637  29.128  15.802  11.570
75224CL-    CL-47638  41.035  39.914   2.204
75225CL-    CL-47639  19.209  17.728   4.750
75226CL-    CL-47640  15.777  21.678  14.485
75227CL-    CL-47641  21.573  17.253  10.054
75228CL-    CL-47642  30.977  13.267  12.076
75229CL-    CL-47643  35.074  10.732   3.319
75230CL-    CL-47644  37.340  14.154  11.436
75231CL-    CL-47645  15.238  20.162  14.317
75232CL-    CL-47646  26.198  26.966   3.693
75233CL-    CL-47647   9.332  30.933  11.090
75234CL-    CL-47648  20.182  22.052  14.966
75235CL-    CL-47649  25.510   5.391   0.260
75236CL-    CL-47650   0.975  34.609  13.362
75237CL-    CL-47651   0.391   2.356  11.582
75238CL-    CL-47652  37.954   9.208  11.046
75239CL-    CL-47653  25.074  31.013  12.440
75240CL-    CL-47654  16.284   3.400   1.397
75241CL-    CL-47655  31.633  42.398   1.289
75242CL-    CL-47656  19.225  43.502   2.342
75243CL-    CL-47657  37.882  32.411   9.619
75244CL-    CL-47658  36.878  39.839  13.413
75245CL-    CL-47659  13.664  25.505   3.208
75246CL-    CL-47660  44.320  43.887  13.821
75247CL-    CL-47661  41.428  25.584   0.246
75248CL-    CL-47662  12.837  40.878   1.769
75249CL-    CL-47663  36.971  21.538  11.489
75250CL-    CL-47664  14.199  28.525   3.718
75251CL-    CL-47665  31.925   0.464   0.855
75252CL-    CL-47666  34.981   1.806   3.799
75253CL-    CL-47667  26.077  40.840   0.459
75254CL-    CL-47668   8.713  20.585   1.838
75255CL-    CL-47669   2.899  25.592   3.719
75256CL-    CL-47670   0.347  20.175  12.387
75257CL-    CL-47671   6.290   8.272   2.803
75258CL-    CL-47672  42.838  31.046   0.299
75259CL-    CL-47673  26.547  10.198  13.487
75260CL-    CL-47674  35.922  21.218  11.951
75261CL-    CL-47675  31.503  41.384   0.829
75262CL-    CL-47676  34.522  14.738   1.791
75263CL-    CL-47677   0.928  33.626  14.946
75264CL-    CL-47678  34.397   8.730  11.593
75265CL-    CL-47679   4.922  20.564   3.840
75266CL-    CL-47680  36.363  41.470  12.882
75267CL-    CL-47681  24.619  34.006   2.708
75268CL-    CL-47682  42.337   5.806   3.300
75269CL-    CL-47683  21.214  40.884   2.683
75270CL-    CL-47684  44.837  25.573   1.802
75271CL-    CL-47685  40.381  13.113  11.856
75272CL-    CL-47686   3.322  22.176  13.005
75273CL-    CL-47687   4.256  43.992  11.964
75274CL-    CL-47688  29.998  29.511  14.402
75275CL-    CL-47689   0.335  42.896  14.457
75276CL-    CL-47690  35.513  40.469  12.009
75277CL-    CL-47691  41.466  33.109   4.250
75278CL-    CL-47692   1.381  44.790  14.866
75279CL-    CL-47693   6.715  27.059   4.830
75280CL-    CL-47694  12.621  44.923  13.026
75281CL-    CL-47695  31.440  25.965   4.135
75282CL-    CL-47696   8.304   9.821   2.275
75283CL-    CL-47697  18.634  23.120   4.766
75284CL-    CL-47698  23.101  33.399   2.411
75285CL-    CL-47699   4.797  32.093  12.442
75286CL-    CL-47700  41.313  38.943  13.869
75287CL-    CL-47701   5.321  22.635  12.551
75288CL-    CL-47702  15.738  41.329  14.828
75289CL-    CL-47703   0.371   5.225   3.184
75290CL-    CL-47704  13.722   2.836  14.342
75291CL-    CL-47705  13.223  42.828   0.962
75292CL-    CL-47706  37.021  18.062   3.825
75293CL-    CL-47707   4.825  33.622  11.443
75294CL-    CL-47708  26.491  13.816   2.223
75295CL-    CL-47709  16.124  16.157  11.523
75296CL-    CL-47710  28.574  28.680   0.314
75297CL-    CL-47711  16.149  17.292  12.873
75298CL-    CL-47712  24.110   9.269   3.672
75299CL-    CL-47713  34.582  37.993   3.650
75300CL-    CL-47714   5.849  30.563   4.603
75301CL-    CL-47715  26.182  28.046  13.447
75302CL-    CL-47716  33.029  31.941  14.959
75303CL-    CL-47717  19.697  42.970  12.410
75304CL-    CL-47718  19.604  25.979   0.880
75305CL-    CL-47719  44.844   9.778   3.368
75306CL-    CL-47720  44.888  29.465   4.815
75307CL-    CL-47721  14.822  33.045   0.765
75308CL-    CL-47722  19.607   0.799  13.961
75309CL-    CL-47723  29.144  34.013  13.948
75310CL-    CL-47724  17.603   6.810   1.853
75311CL-    CL-47725  28.940  22.006   4.347
75312CL-    CL-47726  39.537  28.564   0.465
75313CL-    CL-47727   6.204  42.863  11.527
75314CL-    CL-47728  14.110  23.041   4.263
75315CL-    CL-47729  38.406   0.315   2.401
75316CL-    CL-47730  34.457  26.458   2.184
75317CL-    CL-47731  29.516   8.178  11.024
75318CL-    CL-47732  22.098   3.291   3.650
75319CL-    CL-47733   9.283   4.758  11.530
75320CL-    CL-47734  43.020  32.089  12.341
75321CL-    CL-47735   7.687  34.541   4.628
75322CL-    CL-47736   7.191  43.861   2.396
75323CL-    CL-47737  21.625   3.950   4.799
75324CL-    CL-47738  28.611   4.699   3.295
75325CL-    CL-47739  19.589  43.928   3.797
75326CL-    CL-47740  19.648  28.932   0.400
75327CL-    CL-47741  13.801  21.152   1.707
75328CL-    CL-47742  25.620  11.846  13.514
75329CL-    CL-47743   5.430  39.401   1.311
75330CL-    CL-47744  19.061  39.837   2.690
75331CL-    CL-47745   2.276   1.480   2.275
75332CL-    CL-47746  27.115  14.115   3.322
75333CL-    CL-47747  41.400  36.057  12.366
75334CL-    CL-47748  33.929  19.655  12.985
75335CL-    CL-47749   2.412  18.130   0.958
75336CL-    CL-47750  31.479  27.487  12.387
75337CL-    CL-47751  20.645  43.461  14.382
75338CL-    CL-47752   0.986  19.535   9.993
75339CL-    CL-47753  20.161  29.936  11.461
75340CL-    CL-47754  32.064   1.838   2.267
75341CL-    CL-47755  42.440  24.190   3.228
75342CL-    CL-47756   4.289  32.559   0.960
75343CL-    CL-47757  43.772   5.246   4.129
75344CL-    CL-47758  22.038  36.883   0.402
75345CL-    CL-47759  32.524  33.948   3.793
75346CL-    CL-47760  22.172  31.970  11.451
75347CL-    CL-47761  33.502  19.698  10.098
75348CL-    CL-47762  15.213  16.285  14.767
75349CL-    CL-47763   0.394  28.666  11.432
75350CL-    CL-47764  42.898  30.564  13.474
75351CL-    CL-47765  26.521  18.168  11.564
75352CL-    CL-47766   6.836  36.980   1.450
75353CL-    CL-47767  18.279  37.833   0.437
75354CL-    CL-47768  29.011  39.410  13.348
75355CL-    CL-47769  16.597  17.672  12.968
75356CL-    CL-47770   6.871  10.754  11.085
75357CL-    CL-47771  15.590   7.790   1.287
75358CL-    CL-47772  22.194  25.176  13.406
75359CL-    CL-47773  19.141  22.570  10.909
75360CL-    CL-47774   9.310   9.737  13.877
75361CL-    CL-47775  12.125  43.812  11.451
75362CL-    CL-47776   8.839  27.628   3.147
75363CL-    CL-47777  24.211  17.624  10.569
75364CL-    CL-47778  25.990   9.848  13.848
75365CL-    CL-47779  42.379   2.402   4.239
75366CL-    CL-47780  20.040  28.674   1.280
75367CL-    CL-47781  21.190  36.357  10.909
75368CL-    CL-47782  39.392  17.287  10.963
75369CL-    CL-47783   0.456  33.130   2.813
75370CL-    CL-47784   9.813   7.875  14.003
75371CL-    CL-47785  38.383  14.693  11.518
75372CL-    CL-47786  37.962  15.188   0.744
75373CL-    CL-47787  10.175  41.401  10.018
75374CL-    CL-47788   1.245  24.118   3.704
75375CL-    CL-47789  44.433  26.628   4.333
75376CL-    CL-47790   5.846  21.087  14.772
75377CL-    CL-47791  16.217  41.431  11.110
75378CL-    CL-47792   2.852  33.975   2.730
75379CL-    CL-47793  28.950   1.371  13.026
75380CL-    CL-47794   3.942   9.726   4.725
75381CL-    CL-47795   3.847   3.940   2.200
75382CL-    CL-47796  23.638   7.335   4.285
75383CL-    CL-47797  29.582   4.763   0.743
75384CL-    CL-47798  38.820  41.462  14.450
75385CL-    CL-47799   7.322  23.614   1.813
75386CL-    CL-47800  33.881  22.081  10.965
75387CL-    CL-47801   1.871  11.350  14.855
75388CL-    CL-47802  29.654  21.746  10.940
75389CL-    CL-47803  20.734  32.900   4.651
75390CL-    CL-47804  25.030   0.266  14.496
75391CL-    CL-47805  18.127   9.302  14.509
75392CL-    CL-47806  28.998   7.352  12.369
75393CL-    CL-47807  32.916   0.450   1.741
75394CL-    CL-47808   0.438  15.765  11.415
75395CL-    CL-47809  33.012  40.347   2.401
75396CL-    CL-47810  31.903  43.003  13.907
75397CL-    CL-47811  26.673  31.012   2.252
75398CL-    CL-47812  24.123   7.403  12.027
75399CL-    CL-47813  19.048  36.949  14.029
75400CL-    CL-47814  43.472  32.520  12.876
75401CL-    CL-47815   8.716  36.892  13.329
75402CL-    CL-47816  10.857  39.416  14.885
75403CL-    CL-47817  12.157   4.275  13.807
75404CL-    CL-47818   0.394  17.704  11.893
75405CL-    CL-47819  14.695  17.163   9.571
75406CL-    CL-47820   2.468  39.855  11.909
75407CL-    CL-47821  13.243  21.044   3.202
75408CL-    CL-47822  42.838  33.456   3.699
75409CL-    CL-47823   8.738  36.426  14.390
75410CL-    CL-47824  14.609  34.382   0.245
75411CL-    CL-47825  10.202   7.861  13.058
75412CL-    CL-47826  37.575  24.485   3.757
75413CL-    CL-47827  42.795  28.948  14.333
75414CL-    CL-47828  33.019  31.559   2.873
75415CL-    CL-47829  43.490  44.989   3.232
75416CL-    CL-47830  44.319   0.852  14.318
75417CL-    CL-47831  32.545  13.248   3.336
75418CL-    CL-47832  24.096  32.565  11.450
75419CL-    CL-47833  43.482  17.154  13.960
75420CL-    CL-47834  15.305   2.851   0.308
75421CL-    CL-47835  19.548   7.386  14.310
75422CL-    CL-47836  42.993  41.979  11.108
75423CL-    CL-47837   9.199   8.852  14.796
75424CL-    CL-47838  27.157  30.979   1.807
75425CL-    CL-47839  33.400  19.129   1.377
75426CL-    CL-47840  26.629  17.306  12.507
75427CL-    CL-47841  43.423   5.920   2.233
75428CL-    CL-47842  17.717  22.241   3.371
75429CL-    CL-47843  19.205   9.661   3.706
75430CL-    CL-47844   1.960  26.612   2.729
75431CL-    CL-47845  44.382  17.079   4.826
75432CL-    CL-47846  16.276  32.613  10.564
75433CL-    CL-47847  21.524  39.910  11.448
75434CL-    CL-47848   2.310   0.890   5.097
75435CL-    CL-47849  11.242   8.669   0.893
75436CL-    CL-47850   3.219  38.331   1.392
75437CL-    CL-47851  36.435  18.665   1.756
75438CL-    CL-47852   0.876  34.101   2.784
75439CL-    CL-47853  41.876  43.366  10.971
75440CL-    CL-47854  16.094  29.967   3.734
75441CL-    CL-47855   6.775  16.102  11.987
75442CL-    CL-47856  41.364  10.202  10.981
75443CL-    CL-47857   6.195   4.225  14.843
75444CL-    CL-47858  11.264  32.402  11.423
75445CL-    CL-47859  20.688   8.323  14.977
75446CL-    CL-47860   0.811   8.353  13.993
75447CL-    CL-47861   8.398  42.899   3.259
75448CL-    CL-47862  23.713   3.234  10.944
75449CL-    CL-47863  40.971  26.165  14.316
75450CL-    CL-47864   7.849   8.838  12.445
75451CL-    CL-47865  26.136  11.693  12.342
75452CL-    CL-47866  20.127   3.362  13.817
75453CL-    CL-47867  35.591  38.344   2.862
75454CL-    CL-47868  43.016  35.500   3.358
75455CL-    CL-47869  22.087  40.426   0.461
75456CL-    CL-47870  35.387   1.909  12.992
75457CL-    CL-47871  31.473  19.226  13.384
75458CL-    CL-47872  29.608   9.805  13.913
75459CL-    CL-47873  25.140  31.610   4.322
75460CL-    CL-47874  27.149  30.088  10.435
75461CL-    CL-47875   0.758  31.064   2.386
75462CL-    CL-47876  11.326   2.948  11.075
75463CL-    CL-47877  26.633  18.168   0.336
75464CL-    CL-47878  10.708  27.143   2.217
75465CL-    CL-47879  30.023  43.366  13.987
75466CL-    CL-47880  25.549  12.162  11.427
75467CL-    CL-47881  38.424  28.636   3.214
75468CL-    CL-47882  12.807  44.335   1.414
75469CL-    CL-47883   7.781   9.243  11.577
75470CL-    CL-47884   7.668  30.641  11.985
75471CL-    CL-47885   4.873  12.322  14.000
75472CL-    CL-47886  42.482  26.629  11.391
75473CL-    CL-47887   7.183  26.025   1.735
75474CL-    CL-47888  12.649  43.922   2.364
75475CL-    CL-47889  13.742   6.708  13.839
75476CL-    CL-47890  27.669  41.364  14.966
75477CL-    CL-47891  43.902  14.138  12.580
75478CL-    CL-47892  38.942  10.176  10.473
75479CL-    CL-47893   3.218   0.291   1.743
75480CL-    CL-47894  34.025   4.309   1.736
75481CL-    CL-47895  25.101  22.144   1.774
75482CL-    CL-47896  21.240  26.514   4.761
75483CL-    CL-47897  20.620  43.773  12.398
75484CL-    CL-47898  39.063   0.369   1.917
75485CL-    CL-47899  30.044  41.347   4.777
75486CL-    CL-47900   1.890  12.737  11.582
75487CL-    CL-47901   1.303  15.158   3.640
75488CL-    CL-47902  25.146  25.472  13.018
75489CL-    CL-47903  41.320  43.280   1.258
75490CL-    CL-47904  20.564  39.457   4.193
75491CL-    CL-47905  21.692   0.785   1.876
75492CL-    CL-47906  28.069  41.960  12.459
75493CL-    CL-47907   2.865  17.602   0.922
75494CL-    CL-47908  32.445  31.592  14.798
75495CL-    CL-47909   5.195  18.093  13.915
75496CL-    CL-47910   7.671  28.606   2.211
75497CL-    CL-47911  33.516  30.574  12.018
75498CL-    CL-47912  29.146  34.116   0.852
75499CL-    CL-47913   6.807  28.147  12.370
75500CL-    CL-47914   6.236  34.445   0.439
75501CL-    CL-47915  37.419  32.526  10.948
75502CL-    CL-47916  42.998  18.112  14.424
75503CL-    CL-47917  28.642   3.885   1.232
75504CL-    CL-47918  11.288  37.027   2.325
75505CL-    CL-47919  30.444  43.005   1.830
75506CL-    CL-47920  30.099   1.882   4.784
75507CL-    CL-47921  43.828  18.137  12.879
75508CL-    CL-47922  18.593   4.337   4.775
75509CL-    CL-47923  32.423  38.896   1.328
75510CL-    CL-47924  17.795   1.827  14.019
75511CL-    CL-47925  40.512  31.517   1.314
75512CL-    CL-47926  43.999  19.760   2.260
75513CL-    CL-47927   8.830  27.567  10.975
75514CL-    CL-47928   4.219   2.743   3.751
75515CL-    CL-47929  37.909  17.594   3.774
75516CL-    CL-47930  30.151  29.432   0.464
75517CL-    CL-47931  41.438  34.924   3.192
75518CL-    CL-47932  29.549  23.108  11.093
75519CL-    CL-47933  30.086  31.055   2.223
75520CL-    CL-47934  44.388  10.638  12.064
75521CL-    CL-47935  22.043  21.707  12.973
75522CL-    CL-47936   2.256   9.278   2.859
75523CL-    CL-47937  35.959  28.608  12.009
75524CL-    CL-47938  35.973  39.005  13.435
75525CL-    CL-47939   3.930   4.908   2.820
75526CL-    CL-47940  26.175  15.303  10.540
75527CL-    CL-47941   5.431  37.872   0.374
75528CL-    CL-47942  31.577  32.482  11.610
75529CL-    CL-47943   0.783  23.227  13.974
75530CL-    CL-47944  39.329  24.982   1.881
75531CL-    CL-47945  19.269  37.997  14.971
75532CL-    CL-47946  11.344  15.118  14.968
75533CL-    CL-47947   0.369  37.507   1.262
75534CL-    CL-47948  14.766   3.448  14.796
75535CL-    CL-47949  24.064  40.859  10.413
75536CL-    CL-47950  37.447  26.486   3.296
75537CL-    CL-47951  12.697  29.988   0.901
75538CL-    CL-47952  10.159  40.409  10.914
75539CL-    CL-47953   8.405  36.863   4.678
75540CL-    CL-47954   5.278  20.056   1.241
75541CL-    CL-47955   8.700  39.557   2.798
75542CL-    CL-47956  27.141  42.849   1.281
75543CL-    CL-47957  26.034  38.027   0.255
75544CL-    CL-47958  41.939  12.772   4.306
75545CL-    CL-47959  38.527  12.152   1.314
75546CL-    CL-47960   1.431  26.637  10.437
75547CL-    CL-47961  14.323  31.982   2.257
75548CL-    CL-47962   8.790  13.344  10.440
75549CL-    CL-47963  20.211   4.363   0.928
75550CL-    CL-47964  20.646   0.758  10.964
75551CL-    CL-47965   5.243   9.863   4.225
75552CL-    CL-47966  33.028  33.095   4.214
75553CL-    CL-47967  30.443  16.086   1.928
75554CL-    CL-47968  38.331  33.113  14.839
75555CL-    CL-47969  13.246  35.604  11.086
75556CL-    CL-47970  25.071  26.047  12.876
75557CL-    CL-47971  16.283   2.858  12.467
75558CL-    CL-47972   1.329  20.719   3.218
75559CL-    CL-47973   1.949  10.861  12.400
75560CL-    CL-47974  23.584  42.983   1.412
75561CL-    CL-47975   2.408  28.140  14.777
75562CL-    CL-47976   1.866  15.681   1.858
75563CL-    CL-47977   7.855  32.450  10.592
75564CL-    CL-47978  39.496  43.000   5.121
75565CL-    CL-47979  29.647   8.672   3.315
75566CL-    CL-47980  36.569  44.762   4.328
75567CL-    CL-47981  43.785  20.716  13.958
75568CL-    CL-47982  41.475  24.100  12.472
75569CL-    CL-47983   1.969  30.458  13.889
75570CL-    CL-47984  31.929  19.710  13.400
75571CL-    CL-47985   4.933  13.684  11.087
75572CL-    CL-47986   4.446  18.769   2.683
75573CL-    CL-47987   8.267  37.579  11.928
75574CL-    CL-47988   0.436   2.241  12.869
75575CL-    CL-47989  24.214  43.371   2.262
75576CL-    CL-47990  26.012  24.542   0.888
75577CL-    CL-47991  20.218  40.026   2.334
75578CL-    CL-47992  29.569   2.383   1.451
75579CL-    CL-47993  36.978   1.842   4.660
75580CL-    CL-47994  24.196  13.170   3.823
75581CL-    CL-47995  43.831  26.002  11.528
75582CL-    CL-47996  10.688  18.230   1.262
75583CL-    CL-47997  32.590   1.288   0.763
75584CL-    CL-47998  28.147  21.511   0.868
75585CL-    CL-47999  19.612  34.523  10.915
75586CL-    CL-48000  24.549  12.144  10.409
75587CL-    CL-48001  41.910  35.908   3.662
75588CL-    CL-48002  12.780  16.242  14.997
75589CL-    CL-48003  41.876  18.273  14.856
75590CL-    CL-48004  39.332   0.327  14.459
75591CL-    CL-48005  29.051  14.807  13.358
75592CL-    CL-48006  39.408   8.168   3.737
75593CL-    CL-48007   3.926  38.372   2.220
75594CL-    CL-48008  11.322  30.651   4.719
75595CL-    CL-48009  22.145  37.379   2.831
75596CL-    CL-48010   3.774  10.821  11.428
75597CL-    CL-48011  20.639  16.290   3.723
75598CL-    CL-48012   7.888  40.992   0.946
75599CL-    CL-48013  35.429   6.321   4.167
75600CL-    CL-48014   7.739  44.375  13.001
75601CL-    CL-48015  16.303   8.715   4.615
75602CL-    CL-48016  21.072  10.213   3.825
75603CL-    CL-48017  14.113   1.341   1.776
75604CL-    CL-48018  42.476  41.032   0.824
75605CL-    CL-48019  29.471  11.306  14.030
75606CL-    CL-48020  22.101  20.180   4.249
75607CL-    CL-48021  36.020  37.839  12.346
75608CL-    CL-48022  21.229   8.302  13.348
75609CL-    CL-48023  25.529  30.051   0.746
75610CL-    CL-48024  42.854   3.949  11.394
75611CL-    CL-48025   0.985  43.834  10.543
75612CL-    CL-48026   1.395  13.722   2.202
75613CL-    CL-48027  37.503  40.961  11.063
75614CL-    CL-48028  24.599  32.410   3.255
75615CL-    CL-48029  35.883   3.720  12.507
75616CL-    CL-48030  30.073   0.358   4.774
75617CL-    CL-48031  18.655  39.024   2.747
75618CL-    CL-48032  42.785   2.936  12.539
75619CL-    CL-48033  38.918  27.067  12.031
75620CL-    CL-48034  27.113  12.689   2.771
75621CL-    CL-48035  20.713   4.785  12.065
75622CL-    CL-48036  44.936  42.776  12.017
75623CL-    CL-48037  42.966  35.500  14.935
75624CL-    CL-48038  24.987  41.921  10.947
75625CL-    CL-48039  27.689   2.803   1.233
75626CL-    CL-48040   2.276  29.975  14.879
75627CL-    CL-48041  26.144   6.867  10.545
75628CL-    CL-48042  35.080  27.478   3.276
75629CL-    CL-48043  37.944  22.738  11.489
75630CL-    CL-48044  35.511  20.533   4.335
75631CL-    CL-48045  41.512  12.795  14.013
75632CL-    CL-48046  39.337  17.792   4.271
75633CL-    CL-48047  14.261  20.034   4.184
75634CL-    CL-48048  21.752  44.337   4.204
75635CL-    CL-48049   8.837  22.572   5.267
75636CL-    CL-48050  22.587  25.093  13.881
75637CL-    CL-48051  37.431  16.140   1.907
75638CL-    CL-48052   2.905  21.230   1.743
75639CL-    CL-48053  18.561   7.903   3.842
75640CL-    CL-48054  23.666  28.012   2.799
75641CL-    CL-48055  15.674  17.181  10.558
75642CL-    CL-48056  38.043   3.770  13.917
75643CL-    CL-48057  18.638   8.756   4.616
75644CL-    CL-48058  22.667   2.752   4.744
75645CL-    CL-48059  17.771  35.998   0.437
75646CL-    CL-48060  33.028   2.887  11.008
75647CL-    CL-48061  16.244  11.841  14.494
75648CL-    CL-48062   2.908  31.018   4.221
75649CL-    CL-48063   3.744  42.903  10.124
75650CL-    CL-48064  16.142  27.073  11.417
75651CL-    CL-48065   8.367  31.620  11.553
75652CL-    CL-48066  27.671  24.547  11.896
75653CL-    CL-48067   8.674  36.387  13.396
75654CL-    CL-48068  35.013  18.637  10.625
75655CL-    CL-48069  40.848  10.632  11.474
75656CL-    CL-48070  18.568  36.911   4.825
75657CL-    CL-48071  13.679   8.856   4.793
75658CL-    CL-48072  24.530  38.413  11.897
75659CL-    CL-48073  41.294  26.552   3.313
75660CL-    CL-48074  36.050  24.061   3.851
75661CL-    CL-48075  13.131  17.689   0.427
75662CL-    CL-48076  34.370   7.229   3.840
75663CL-    CL-48077  20.646  35.026   1.313
75664CL-    CL-48078  31.538  27.181   3.199
75665CL-    CL-48079  36.842  44.353   4.743
75666CL-    CL-48080   6.340  28.564   4.803
75667CL-    CL-48081  37.420  12.179   1.289
75668CL-    CL-48082  41.489  19.139   1.240
75669CL-    CL-48083  31.083  38.885  12.078
75670CL-    CL-48084  25.516  24.030  11.506
75671CL-    CL-48085  29.131  28.011  10.903
75672CL-    CL-48086  11.695  24.168  11.008
75673CL-    CL-48087  42.947  39.490  13.053
75674CL-    CL-48088  32.092   7.346   0.799
75675CL-    CL-48089  11.173  38.443  13.856
75676CL-    CL-48090  26.138  39.514  13.940
75677CL-    CL-48091  43.487  16.123  10.642
75678CL-    CL-48092   0.256  38.347  11.464
75679CL-    CL-48093  20.086  29.941   0.862
75680CL-    CL-48094  34.938  12.777  13.313
75681CL-    CL-48095   9.693  33.481  11.054
75682CL-    CL-48096  10.221  36.877   0.419
75683CL-    CL-48097  29.091  13.289  11.532
75684CL-    CL-48098  27.953  12.169   3.694
75685CL-    CL-48099   0.312  30.970   2.903
75686CL-    CL-48100  11.312  30.651  13.997
75687CL-    CL-48101  26.486   3.367   1.344
75688CL-    CL-48102  29.076   5.256   4.786
75689CL-    CL-48103  21.020  15.152  13.430
75690CL-    CL-48104   9.306  26.555   3.789
75691CL-    CL-48105  39.831  35.473  14.943
75692CL-    CL-48106  27.971  35.430  10.546
75693CL-    CL-48107  13.127  30.473   1.863
75694CL-    CL-48108  43.865  19.209   4.818
75695CL-    CL-48109   5.250  19.541   4.340
75696CL-    CL-48110  36.031  43.339  14.895
75697CL-    CL-48111  23.716  37.949   0.376
75698CL-    CL-48112  31.510  21.736   1.400
75699CL-    CL-48113  23.003   6.861  12.424
75700CL-    CL-48114  38.855  23.986   0.415
75701CL-    CL-48115  37.491   8.677  13.446
75702CL-    CL-48116  18.260  36.560  10.598
75703CL-    CL-48117  16.738  24.600   4.633
75704CL-    CL-48118  10.720  31.045  10.417
75705CL-    CL-48119  28.567  39.868  14.894
75706CL-    CL-48120   3.943  31.985  14.966
75707CL-    CL-48121  10.194  40.422   3.166
75708CL-    CL-48122  35.474   3.379   3.220
75709CL-    CL-48123  12.200  41.899  12.929
75710CL-    CL-48124  19.171  10.849   3.704
75711CL-    CL-48125  44.324  38.361  12.956
75712CL-    CL-48126  28.521  37.989   2.731
75713CL-    CL-48127  16.266  31.117  10.635
75714CL-    CL-48128   3.760  39.533   9.940
75715CL-    CL-48129  34.528  24.569   1.310
75716CL-    CL-48130  19.119  20.670  11.601
75717CL-    CL-48131  18.762  17.718  13.321
75718CL-    CL-48132  18.616  22.527  14.788
75719CL-    CL-48133  27.089  44.421  13.877
75720CL-    CL-48134  18.180  11.723  10.416
75721CL-    CL-48135  28.632  23.071  11.081
75722CL-    CL-48136   5.289  10.723  12.519
75723CL-    CL-48137  43.012  32.105  10.508
75724CL-    CL-48138  10.315  33.420   0.929
75725CL-    CL-48139  18.255  29.450  12.915
75726CL-    CL-48140  32.994   3.397  10.442
75727CL-    CL-48141  20.712   1.407   0.772
75728CL-    CL-48142  11.363  32.114   2.718
75729CL-    CL-48143  12.180  34.559  14.023
75730CL-    CL-48144  20.528  40.988  11.918
75731CL-    CL-48145  23.075  37.375  11.385
75732CL-    CL-48146   4.915  28.581   1.449
75733CL-    CL-48147  10.167  11.305  10.136
75734CL-    CL-48148  13.344  40.004   2.676
75735CL-    CL-48149  38.502  27.098   3.779
75736CL-    CL-48150  44.372  28.179  14.903
75737CL-    CL-48151  24.005  29.034  10.028
75738CL-    CL-48152  25.552  12.732   4.802
75739CL-    CL-48153   9.822   3.384   0.298
75740CL-    CL-48154  37.504  26.629  11.076
75741CL-    CL-48155  24.643  14.279  11.029
75742CL-    CL-48156  13.282  40.509   3.855
75743CL-    CL-48157  23.613  22.189  12.848
75744CL-    CL-48158  31.132  22.230  14.842
75745CL-    CL-48159  24.212  25.563   2.809
75746CL-    CL-48160   3.450  34.381   3.748
75747CL-    CL-48161   9.270  10.183   4.800
75748CL-    CL-48162  24.054   8.256   3.761
75749CL-    CL-48163  11.774  10.358   1.712
75750CL-    CL-48164  21.651  25.481   4.145
75751CL-    CL-48165  27.099   3.454   3.261
75752CL-    CL-48166   6.232  21.683  11.891
75753CL-    CL-48167  44.968  31.504  14.848
75754CL-    CL-48168  36.572   8.304   4.335
75755CL-    CL-48169   7.672  15.755   4.126
75756CL-    CL-48170   2.295   4.914  14.967
75757CL-    CL-48171  26.187   3.715  14.847
75758CL-    CL-48172   8.217   3.339   0.453
75759CL-    CL-48173  16.244  39.015   2.350
75760CL-    CL-48174  26.518  43.952   0.881
75761CL-    CL-48175  35.603  33.007   5.742
75762CL-    CL-48176  41.519   6.338  14.953
75763CL-    CL-48177  25.654  44.920   1.219
75764CL-    CL-48178   7.329  30.935   1.760
75765CL-    CL-48179  26.087  27.058   0.276
75766CL-    CL-48180  34.613  28.444   4.202
75767CL-    CL-48181  17.149   2.400   2.765
75768CL-    CL-48182  39.813   0.900   4.675
75769CL-    CL-48183  36.939  10.802  12.574
75770CL-    CL-48184   5.357  30.147   3.243
75771CL-    CL-48185   6.911  40.936   0.468
75772CL-    CL-48186  38.352  12.295  10.907
75773CL-    CL-48187  30.569  29.624   2.858
75774CL-    CL-48188   9.759  38.526  10.599
75775CL-    CL-48189  28.665  33.392   4.250
75776CL-    CL-48190   2.324   1.759   4.195
75777CL-    CL-48191   7.394  33.596   4.765
75778CL-    CL-48192  36.454  42.466  14.910
75779CL-    CL-48193  23.661   9.721   0.789
75780CL-    CL-48194   1.736  27.968   4.781
75781CL-    CL-48195  11.790  24.599  14.502
75782CL-    CL-48196  31.591  19.593   3.221
75783CL-    CL-48197  31.523  15.162  13.866
75784CL-    CL-48198   4.818  25.514   2.828
75785CL-    CL-48199  41.524   9.378  11.533
75786CL-    CL-48200  35.036  42.382  12.882
75787CL-    CL-48201  40.460  24.601  12.352
75788CL-    CL-48202   3.334  12.707   1.761
75789CL-    CL-48203  23.192  32.588  11.022
75790CL-    CL-48204  13.196   8.381   5.163
75791CL-    CL-48205  13.786   7.370  13.527
75792CL-    CL-48206   9.741  29.665  12.062
75793CL-    CL-48207   4.241  11.641  10.576
75794CL-    CL-48208  36.023  40.835  12.973
75795CL-    CL-48209  14.834   2.850   0.728
75796CL-    CL-48210  40.524  14.739  10.533
75797CL-    CL-48211  18.184  37.364   4.739
75798CL-    CL-48212  16.663  23.129   0.415
75799CL-    CL-48213  17.305   9.648   1.833
75800CL-    CL-48214   5.301  12.342   5.684
75801CL-    CL-48215  21.584  43.815   2.282
75802CL-    CL-48216  14.121   1.312  12.969
75803CL-    CL-48217  20.544  31.430  13.517
75804CL-    CL-48218  27.675  20.146  12.931
75805CL-    CL-48219  10.262  36.440   2.282
75806CL-    CL-48220  39.441  34.089  13.351
75807CL-    CL-48221  28.131  35.362  12.491
75808CL-    CL-48222  16.101   5.284   3.316
75809CL-    CL-48223  33.464  37.434  10.024
75810CL-    CL-48224  28.937   4.334   2.892
75811CL-    CL-48225  12.826  33.906   3.158
75812CL-    CL-48226  10.826  34.528  11.984
75813CL-    CL-48227  26.699  12.772  13.377
75814CL-    CL-48228  18.784  29.124  10.985
75815CL-    CL-48229   6.923  16.663  13.966
75816CL-    CL-48230  21.621  14.702   0.917
75817CL-    CL-48231  23.711  35.459   1.837
75818CL-    CL-48232  26.143   8.321  11.417
75819CL-    CL-48233  25.656  30.654  12.537
75820CL-    CL-48234  43.486  18.093   4.162
75821CL-    CL-48235  34.523   2.248  13.832
75822CL-    CL-48236  30.987  15.729  13.896
75823CL-    CL-48237  43.813  28.667  14.408
75824CL-    CL-48238  26.558  25.523  12.068
75825CL-    CL-48239  17.589   1.333  11.098
75826CL-    CL-48240  10.206  31.074   3.665
75827CL-    CL-48241  38.431  40.012  10.513
75828CL-    CL-48242  27.521   1.940  12.567
75829CL-    CL-48243  36.909  12.821  11.992
75830CL-    CL-48244   4.240  24.138   2.309
75831CL-    CL-48245  22.168  21.135  11.064
75832CL-    CL-48246  25.634   3.326  14.309
75833CL-    CL-48247  30.098   6.800  11.382
75834CL-    CL-48248  31.016  11.193   0.424
75835CL-    CL-48249  22.172   0.752  14.884
75836CL-    CL-48250  43.429  20.091   4.765
75837CL-    CL-48251   0.330  26.611   2.718
75838CL-    CL-48252  13.159  31.406  13.453
75839CL-    CL-48253  32.061  15.769   2.875
75840CL-    CL-48254   6.311  15.240   0.871
75841CL-    CL-48255   8.848  15.239   0.900
75842CL-    CL-48256  39.033  21.576   4.293
75843CL-    CL-48257   1.280  12.736   1.733
75844CL-    CL-48258  11.231  31.962   3.777
75845CL-    CL-48259  21.556  35.061  14.007
75846CL-    CL-48260   0.485  36.852   0.867
75847CL-    CL-48261  36.486  34.583   1.425
75848CL-    CL-48262   1.887   7.746   2.884
75849CL-    CL-48263   9.298  39.884  10.900
75850CL-    CL-48264  16.751  10.210   2.319
75851CL-    CL-48265  36.069   1.254   2.704
75852CL-    CL-48266   6.319  24.483  14.982
75853CL-    CL-48267  26.610  44.444  13.897
75854CL-    CL-48268  38.984  12.749  13.792
75855CL-    CL-48269  43.504  43.989   4.273
75856CL-    CL-48270  37.907   8.835  14.983
75857CL-    CL-48271   5.371  31.083  13.472
75858CL-    CL-48272  23.648  32.562   2.311
75859CL-    CL-48273   4.711  18.679  11.505
75860CL-    CL-48274  19.565  42.010   0.349
75861CL-    CL-48275   0.786   4.409   0.475
75862CL-    CL-48276  32.934  37.343   3.352
75863CL-    CL-48277   2.822  10.220  13.332
75864CL-    CL-48278  26.686  20.658  11.966
75865CL-    CL-48279  19.736  42.920   4.327
75866CL-    CL-48280  21.648  15.318  13.954
75867CL-    CL-48281  28.050   9.370  10.630
75868CL-    CL-48282  35.445  11.256  12.958
75869CL-    CL-48283  22.693  30.988   4.758
75870CL-    CL-48284  27.564  44.479   1.762
75871CL-    CL-48285  30.919  19.256  14.514
75872CL-    CL-48286  13.214  15.689   1.362
75873CL-    CL-48287  36.991  40.948   0.447
75874CL-    CL-48288  10.381  30.628   4.250
75875CL-    CL-48289   6.895   5.899  12.383
75876CL-    CL-48290  38.371  14.595  12.481
75877CL-    CL-48291  36.527   5.726   0.262
75878CL-    CL-48292  40.513  29.068   2.289
75879CL-    CL-48293  34.519  39.317  10.456
75880CL-    CL-48294  38.952  41.403  13.472
75881CL-    CL-48295  10.707  30.083   0.344
75882CL-    CL-48296  28.076  44.459  10.437
75883CL-    CL-48297  17.178  39.518  13.932
75884CL-    CL-48298  36.841  26.584  14.798
75885CL-    CL-48299   4.289  43.871  13.418
75886CL-    CL-48300   8.848  26.664  14.293
75887CL-    CL-48301  34.959  43.394  10.928
75888CL-    CL-48302  44.826  24.526  12.357
75889CL-    CL-48303  41.380   6.867   2.888
75890CL-    CL-48304  34.937  18.272  11.064
75891CL-    CL-48305  36.495  31.424   4.633
75892CL-    CL-48306  21.735  30.644   4.656
75893CL-    CL-48307  42.919   6.301   1.253
75894CL-    CL-48308  27.524  17.576  14.486
75895CL-    CL-48309   3.434  39.991   0.290
75896CL-    CL-48310  28.584   8.738   0.771
75897CL-    CL-48311  25.596  41.306  12.493
75898CL-    CL-48312  31.597  40.543   2.786
75899CL-    CL-48313  19.270  36.568   0.923
75900CL-    CL-48314  22.226   5.934   3.721
75901CL-    CL-48315   7.247  31.581  13.941
75902CL-    CL-48316  13.213  41.019  12.886
75903CL-    CL-48317   3.905  16.155   3.279
75904CL-    CL-48318  19.668  30.048   2.707
75905CL-    CL-48319  23.645  11.228  14.800
75906CL-    CL-48320   7.710  34.406   4.209
75907CL-    CL-48321  42.798  38.538  11.979
75908CL-    CL-48322  36.942  36.523   1.268
75909CL-    CL-48323   5.390  37.980  11.580
75910CL-    CL-48324  22.554  33.973   4.294
75911CL-    CL-48325  17.162  32.498   4.667
75912CL-    CL-48326  19.105   4.424  12.022
75913CL-    CL-48327  33.581  12.746   1.333
75914CL-    CL-48328   2.274  13.661   5.750
75915CL-    CL-48329   4.721  35.092  12.949
75916CL-    CL-48330   2.865  43.471  12.463
75917CL-    CL-48331  15.592   3.887  14.333
75918CL-    CL-48332  39.462  20.659   1.284
75919CL-    CL-48333  10.777  39.440   3.385
75920CL-    CL-48334  14.613  44.330   0.741
75921CL-    CL-48335   4.377  30.480   1.918
75922CL-    CL-48336   4.857  15.198  10.999
75923CL-    CL-48337  12.730  36.479   4.830
75924CL-    CL-48338  29.003  21.548   3.702
75925CL-    CL-48339  13.793   0.772   0.777
75926CL-    CL-48340  22.736   8.178  12.910
75927CL-    CL-48341  18.734  35.884   2.783
75928CL-    CL-48342  14.152   9.254   0.318
75929CL-    CL-48343  31.548  32.624   3.238
75930CL-    CL-48344  34.005  44.495  14.819
75931CL-    CL-48345   9.657  37.833  11.868
75932CL-    CL-48346  19.763  19.104  14.872
75933CL-    CL-48347  40.456  44.893   1.412
75934CL-    CL-48348  35.971   6.695   2.790
75935CL-    CL-48349  33.598  26.672  12.923
75936CL-    CL-48350  30.118  23.575  10.531
75937CL-    CL-48351  37.448  40.895   0.946
75938CL-    CL-48352  20.262  31.141  10.438
75939CL-    CL-48353  32.502  21.030   3.180
75940CL-    CL-48354  30.115   6.219   2.369
75941CL-    CL-48355  34.584  39.058   0.388
75942CL-    CL-48356   6.899   4.344   3.692
75943CL-    CL-48357  28.185  33.620   3.283
75944CL-    CL-48358  35.856   2.439  13.452
75945CL-    CL-48359  10.208  43.385  11.503
75946CL-    CL-48360  21.728  11.709   4.698
75947CL-    CL-48361  32.404  27.993   2.670
75948CL-    CL-48362  41.294  34.986   0.455
75949CL-    CL-48363   5.833  28.446  13.417
75950CL-    CL-48364  25.100  36.416  14.498
75951CL-    CL-48365  25.591  31.134  14.940
75952CL-    CL-48366  44.265  42.513  10.126
75953CL-    CL-48367  34.913  28.007   1.385
75954CL-    CL-48368  15.144  37.040  13.823
75955CL-    CL-48369  25.964   5.840   4.657
75956CL-    CL-48370  38.428  21.182  11.377
75957CL-    CL-48371  22.553  17.627   9.456
75958CL-    CL-48372  25.583  21.059  13.528
75959CL-    CL-48373   0.442  11.635   2.276
75960CL-    CL-48374  19.149   9.852  12.882
75961CL-    CL-48375  17.173  28.083   4.809
75962CL-    CL-48376  27.039  37.447  14.319
75963CL-    CL-48377   0.760  16.261   4.624
75964CL-    CL-48378  22.655  11.795  14.771
75965CL-    CL-48379  31.556  18.715   3.259
75966CL-    CL-48380  11.335  18.692   2.213
75967CL-    CL-48381  18.750  19.639   2.681
75968CL-    CL-48382  31.977  42.821   3.731
75969CL-    CL-48383  37.006  13.233   1.340
75970CL-    CL-48384  35.454   4.811   2.268
75971CL-    CL-48385  28.494   5.227  14.322
75972CL-    CL-48386  18.263  16.579   4.629
75973CL-    CL-48387  29.101   2.958   2.250
75974CL-    CL-48388  35.537   4.256   4.296
75975CL-    CL-48389  19.188  27.595  11.490
75976CL-    CL-48390  32.040  29.485   3.655
75977CL-    CL-48391   5.323  31.117  14.507
75978CL-    CL-48392  22.704  22.741   4.745
75979CL-    CL-48393  17.665  30.607  10.638
75980CL-    CL-48394   6.248  22.158  13.463
75981CL-    CL-48395  44.461   2.257  13.856
75982CL-    CL-48396  22.225  35.051   3.253
75983CL-    CL-48397  34.888  29.173   1.315
75984CL-    CL-48398  19.590  14.170  10.432
75985CL-    CL-48399  31.999  40.910   4.340
75986CL-    CL-48400  18.269   3.846   0.948
75987CL-    CL-48401  17.625   3.433   0.277
75988CL-    CL-48402  14.312  44.872   4.333
75989CL-    CL-48403   8.732   7.408   1.922
75990CL-    CL-48404  11.779   1.840   2.750
75991CL-    CL-48405  10.696  12.653  13.850
75992CL-    CL-48406  29.592  42.427   4.350
75993CL-    CL-48407  44.765  20.260   3.366
75994CL-    CL-48408   3.430  34.909   2.667
75995CL-    CL-48409  41.011   3.355   3.758
75996CL-    CL-48410  14.691  20.541   3.834
75997CL-    CL-48411  12.135   0.918  11.059
75998CL-    CL-48412  27.499  15.133   0.307
75999CL-    CL-48413  37.841  43.456  13.038
76000CL-    CL-48414  18.248   2.740  10.991
76001CL-    CL-48415   8.751  39.520   2.270
76002CL-    CL-48416  22.085  39.334   2.687
76003CL-    CL-48417  44.781   2.310   4.342
76004CL-    CL-48418  12.287  42.287  11.020
76005CL-    CL-48419  36.492  39.828   4.209
76006CL-    CL-48420  36.908  15.803  11.979
76007CL-    CL-48421   3.874  44.471   3.307
76008CL-    CL-48422  33.475  43.006  13.529
76009CL-    CL-48423  16.086   2.910   4.807
76010CL-    CL-48424  43.292  28.523  14.015
76011CL-    CL-48425  16.705  21.110   0.308
76012CL-    CL-48426  30.655  37.570   2.667
76013CL-    CL-48427   0.261  36.842  11.612
76014CL-    CL-48428  32.402  17.800   2.828
76015CL-    CL-48429   6.792  43.328  14.762
76016CL-    CL-48430   7.859  42.870   2.190
76017CL-    CL-48431  18.191  21.587   3.254
76018CL-    CL-48432  22.116   8.330  12.500
76019CL-    CL-48433   9.198  25.190  13.863
76020CL-    CL-48434   0.917   1.818  12.541
76021CL-    CL-48435  11.711  26.628   4.263
76022CL-    CL-48436  27.072  40.438   2.894
76023CL-    CL-48437  21.544  14.612   0.288
76024CL-    CL-48438  15.154  24.046  12.515
76025CL-    CL-48439   5.194  41.328   2.241
76026CL-    CL-48440  34.115   4.382   0.483
76027CL-    CL-48441   6.747  13.766  11.504
76028CL-    CL-48442  18.725   1.780  11.613
76029CL-    CL-48443  31.414   7.199   2.703
76030CL-    CL-48444  25.037  25.973   2.677
76031CL-    CL-48445  35.428  15.119   3.672
76032CL-    CL-48446   6.210  14.780   2.831
76033CL-    CL-48447  44.897  37.384  12.406
76034CL-    CL-48448  34.545   5.432   1.911
76035CL-    CL-48449  43.859  34.069  13.316
76036CL-    CL-48450  38.001   0.938   2.749
76037CL-    CL-48451  22.508  10.833   1.703
76038CL-    CL-48452   4.782  19.547  13.977
76039CL-    CL-48453  18.772  20.729   3.368
76040CL-    CL-48454  21.630  16.231   3.255
76041CL-    CL-48455  23.146  11.297  12.545
76042CL-    CL-48456  43.294   6.409   3.352
76043CL-    CL-48457  12.187  20.590  14.468
76044CL-    CL-48458  41.819  15.143   4.713
76045CL-    CL-48459   8.333  33.379  12.423
76046CL-    CL-48460   6.826   4.736   4.202
76047CL-    CL-48461  13.196  16.110  11.593
76048CL-    CL-48462  43.880   9.791  10.600
76049CL-    CL-48463   9.276  11.674  10.471
76050CL-    CL-48464   4.313  14.675   9.600
76051CL-    CL-48465  15.689  40.395   2.412
76052CL-    CL-48466  44.262   8.340  13.008
76053CL-    CL-48467  15.753  40.940  14.481
76054CL-    CL-48468   5.761  37.339   0.447
76055CL-    CL-48469  41.317  13.117  13.797
76056CL-    CL-48470  39.827  10.204   2.221
76057CL-    CL-48471  18.235   6.267  13.893
76058CL-    CL-48472  43.821  41.300  12.436
76059CL-    CL-48473  28.547  43.859  14.834
76060CL-    CL-48474  37.424   8.884   1.811
76061CL-    CL-48475  26.132   2.906  12.414
76062CL-    CL-48476  36.916   0.352  12.826
76063CL-    CL-48477  40.851  16.742  14.940
76064CL-    CL-48478  18.759   0.787  10.593
76065CL-    CL-48479   5.228  35.594   2.846
76066CL-    CL-48480  32.892  28.562   1.394
76067CL-    CL-48481  41.966  16.612  13.384
76068CL-    CL-48482  27.601  24.503   3.263
76069CL-    CL-48483  36.387  34.009   2.263
76070CL-    CL-48484   4.417  35.897  13.519
76071CL-    CL-48485  15.801  29.464  11.030
76072CL-    CL-48486  34.103  42.951   0.319
76073CL-    CL-48487  24.041  10.807   2.902
76074CL-    CL-48488  44.986  40.445  11.540
76075CL-    CL-48489  42.805   9.769  12.513
76076CL-    CL-48490   3.351  27.596   4.715
76077CL-    CL-48491  14.123  40.036  11.942
76078CL-    CL-48492  13.679   6.896  10.630
76079CL-    CL-48493  38.410  40.378   4.324
76080CL-    CL-48494  20.713   7.268   3.630
76081CL-    CL-48495  16.206  13.784   4.152
76082CL-    CL-48496  21.544   2.466   0.956
76083CL-    CL-48497   2.739  41.822  14.392
76084CL-    CL-48498  24.116  15.633   1.848
76085CL-    CL-48499  11.780  19.062  14.025
76086CL-    CL-48500   9.174  31.484  10.969
76087CL-    CL-48501  25.663  33.932   2.412
76088CL-    CL-48502  26.076  23.622  13.848
76089CL-    CL-48503  28.581   2.761  14.942
76090CL-    CL-48504  13.739  43.465  14.307
76091CL-    CL-48505   5.361  10.877  10.522
76092CL-    CL-48506  28.646  44.958  14.997
76093CL-    CL-48507   5.242  30.599   3.778
76094CL-    CL-48508   0.805  13.156  13.926
76095CL-    CL-48509  13.157  29.930   0.385
76096CL-    CL-48510   1.480   3.834  14.418
76097CL-    CL-48511  17.632  11.163   2.803
76098CL-    CL-48512  42.880  36.437   0.753
76099CL-    CL-48513   7.349  29.074   3.839
76100CL-    CL-48514  32.582  37.014  11.979
76101CL-    CL-48515  23.510  29.157   1.382
76102CL-    CL-48516  31.525   6.868  11.986
76103CL-    CL-48517  12.611  27.630   2.736
76104CL-    CL-48518  37.385  32.564   2.826
76105CL-    CL-48519   7.707   7.362  12.826
76106CL-    CL-48520  32.471  37.478   0.949
76107CL-    CL-48521  34.946  25.999  12.987
76108CL-    CL-48522  26.062  21.147   4.654
76109CL-    CL-48523  10.316   0.869   4.661
76110CL-    CL-48524  26.671   6.729   3.286
76111CL-    CL-48525  26.545  35.562   4.224
76112CL-    CL-48526   2.891   6.324  10.459
76113CL-    CL-48527   4.703  28.162  10.143
76114CL-    CL-48528  40.001  15.167  13.342
76115CL-    CL-48529   2.338  32.995   2.872
76116CL-    CL-48530  13.120  26.652  12.486
76117CL-    CL-48531  18.577  37.380   0.472
76118CL-    CL-48532   3.380  11.216  13.971
76119CL-    CL-48533  29.438  33.418   0.798
76120CL-    CL-48534  22.018  40.449   1.411
76121CL-    CL-48535  35.523  39.862   0.748
76122CL-    CL-48536  19.071   9.747   1.705
76123CL-    CL-48537  36.904  12.288   2.385
76124CL-    CL-48538  34.509  25.601  11.604
76125CL-    CL-48539  43.949  23.044  13.347
76126CL-    CL-48540  24.983  35.416   0.373
76127CL-    CL-48541  36.454  20.715   0.482
76128CL-    CL-48542  13.128  18.264  13.897
76129CL-    CL-48543  12.136  27.036  13.376
76130CL-    CL-48544  34.100  33.432  11.922
76131CL-    CL-48545  41.948  27.998   3.797
76132CL-    CL-48546   4.444   8.834   3.635
76133CL-    CL-48547   2.902  42.932   2.210
76134CL-    CL-48548   2.740  37.902  13.949
76135CL-    CL-48549  27.097  28.568  13.319
76136CL-    CL-48550  19.743  43.449   0.830
76137CL-    CL-48551  20.134   6.322  14.923
76138CL-    CL-48552  25.631   5.193   4.838
76139CL-    CL-48553   8.672  12.844   1.384
76140CL-    CL-48554  41.451  22.192   0.300
76141CL-    CL-48555  27.090  26.464   2.323
76142CL-    CL-48556  21.087  19.250   1.342
76143CL-    CL-48557  38.459  25.078  13.947
76144CL-    CL-48558  42.907  17.627   4.813
76145CL-    CL-48559  32.091  24.140   4.328
76146CL-    CL-48560   0.471  19.547   1.919
76147CL-    CL-48561  18.692  11.217   4.795
76148CL-    CL-48562   5.856   9.164  11.951
76149CL-    CL-48563   3.861  21.519  12.840
76150CL-    CL-48564   3.323  26.178  13.978
76151CL-    CL-48565  10.671  15.598   9.956
76152CL-    CL-48566  29.170   9.388  14.390
76153CL-    CL-48567  21.641  12.126   0.479
76154CL-    CL-48568   9.304  26.192  11.574
76155CL-    CL-48569   4.292  43.515   1.277
76156CL-    CL-48570  33.454  40.903   0.748
76157CL-    CL-48571  29.000  43.801  11.097
76158CL-    CL-48572  24.569  24.631  11.025
76159CL-    CL-48573   9.237  35.087  13.510
76160CL-    CL-48574  20.170  42.517   4.300
76161CL-    CL-48575   3.783  28.053  12.058
76162CL-    CL-48576  13.770   7.341  13.867
76163CL-    CL-48577  17.196  33.621   2.192
76164CL-    CL-48578   4.859  34.506  14.902
76165CL-    CL-48579  10.271   8.328  13.400
76166CL-    CL-48580  36.966  38.854  11.493
76167CL-    CL-48581  31.141  17.268   3.744
76168CL-    CL-48582  26.007  33.005  12.947
76169CL-    CL-48583   3.237  12.742   2.794
76170CL-    CL-48584  37.893  27.679  12.383
76171CL-    CL-48585  14.656  17.584   9.625
76172CL-    CL-48586   2.832  30.648  14.922
76173CL-    CL-48587  34.432  42.973   2.351
76174CL-    CL-48588  27.066  25.518   3.166
76175CL-    CL-48589   7.685   7.211   3.332
76176CL-    CL-48590  22.151  16.650   3.757
76177CL-    CL-48591  34.867   2.270  11.466
76178CL-    CL-48592  20.615  26.533  13.367
76179CL-    CL-48593   9.158  18.768   3.307
76180CL-    CL-48594   4.719  43.771   3.238
76181CL-    CL-48595  24.195  16.087   5.744
76182CL-    CL-48596  40.872  34.031   4.208
76183CL-    CL-48597  11.369   7.702  10.503
76184CL-    CL-48598   3.928  25.505   4.717
76185CL-    CL-48599  13.255  43.378   2.314
76186CL-    CL-48600  24.492  36.946   1.383
76187CL-    CL-48601  33.045   5.425   4.727
76188CL-    CL-48602  38.860  19.157  12.073
76189CL-    CL-48603  43.817  10.248   3.290
76190CL-    CL-48604  31.087   0.980   1.312
76191CL-    CL-48605   1.731  42.851  13.053
76192CL-    CL-48606  24.092  41.438   1.886
76193CL-    CL-48607  13.209  13.657   0.834
76194CL-    CL-48608   0.416   5.401  14.846
76195CL-    CL-48609  44.833  40.432   4.350
76196CL-    CL-48610  12.205  39.032  10.530
76197CL-    CL-48611  44.336  24.103   4.694
76198CL-    CL-48612  42.450   7.820  14.844
76199CL-    CL-48613  14.772  21.651  11.885
76200CL-    CL-48614  22.032  30.098   1.299
76201CL-    CL-48615  19.773  34.004  11.881
76202CL-    CL-48616  42.782  20.200   1.436
76203CL-    CL-48617  32.091  25.172   9.970
76204CL-    CL-48618  28.109  43.958   1.323
76205CL-    CL-48619  35.579  11.706  13.388
76206CL-    CL-48620   4.375  15.750  11.874
76207CL-    CL-48621  44.880  24.087  13.883
76208CL-    CL-48622  16.256  21.092   2.830
76209CL-    CL-48623  43.797  17.146  11.086
76210CL-    CL-48624   0.447  16.237  11.581
76211CL-    CL-48625  23.011   5.749   0.371
76212CL-    CL-48626  14.802  21.143  11.011
76213CL-    CL-48627  34.099   4.278  13.484
76214CL-    CL-48628  37.489  24.600  10.592
76215CL-    CL-48629  11.686  38.541  11.868
76216CL-    CL-48630  24.191  19.731  10.587
76217CL-    CL-48631   3.231   3.756   1.911
76218CL-    CL-48632  44.466   5.688   1.242
76219CL-    CL-48633  38.491  22.229   4.639
76220CL-    CL-48634   2.401  15.194  14.787
76221CL-    CL-48635  38.444  21.076   4.127
76222CL-    CL-48636  20.119  24.709  12.462
76223CL-    CL-48637  34.948  27.131   0.394
76224CL-    CL-48638   9.716  17.305  14.014
76225CL-    CL-48639  42.324   6.208  11.042
76226CL-    CL-48640   9.833  33.891  13.843
76227CL-    CL-48641  23.662  14.181  13.358
76228CL-    CL-48642  33.435   7.741   3.210
76229CL-    CL-48643   5.871   8.317   3.849
76230CL-    CL-48644  44.978  19.758   4.786
76231CL-    CL-48645  40.001  24.522  10.459
76232CL-    CL-48646  15.783  36.043  14.871
76233CL-    CL-48647  41.347  34.478  12.963
76234CL-    CL-48648  31.473  25.053  13.037
76235CL-    CL-48649  38.999  35.431  10.946
76236CL-    CL-48650  26.196  25.668  12.457
76237CL-    CL-48651  17.770   0.419   2.866
76238CL-    CL-48652  11.863  20.732   2.333
76239CL-    CL-48653  31.951   8.820   4.141
76240CL-    CL-48654  17.102   6.904  13.939
76241CL-    CL-48655  26.619  29.557  13.979
76242CL-    CL-48656   2.760   7.822  12.918
76243CL-    CL-48657  20.221  29.987  12.383
76244CL-    CL-48658  34.483  19.752  12.455
76245CL-    CL-48659  11.778  44.277   3.813
76246CL-    CL-48660  10.143  18.089  10.455
76247CL-    CL-48661   1.913  21.086   2.896
76248CL-    CL-48662  33.876  20.537  14.893
76249CL-    CL-48663  31.533  27.187  11.091
76250CL-    CL-48664  14.258   7.304   2.799
76251CL-    CL-48665  38.940  18.213   1.800
76252CL-    CL-48666   6.920  33.499  14.448
76253CL-    CL-48667   6.293  44.974   2.729
76254CL-    CL-48668  26.054  39.926  13.472
76255CL-    CL-48669  41.823   1.860  10.439
76256CL-    CL-48670  26.092   5.393  10.519
76257CL-    CL-48671  39.032  11.225   4.600
76258CL-    CL-48672   4.245   5.328  14.339
76259CL-    CL-48673   6.792  36.490  11.503
76260CL-    CL-48674  15.222  36.096  11.602
76261CL-    CL-48675  31.992  19.249   3.812
76262CL-    CL-48676  16.671   1.327   0.461
76263CL-    CL-48677  29.466   1.362  13.923
76264CL-    CL-48678   3.710  34.906  14.378
76265CL-    CL-48679  26.536  23.176  10.969
76266CL-    CL-48680  11.229   4.932   2.190
76267CL-    CL-48681  13.806   3.311  13.470
76268CL-    CL-48682  38.480  40.054   1.711
76269CL-    CL-48683  27.522  10.684  14.482
76270CL-    CL-48684   7.844  34.959  10.006
76271CL-    CL-48685   8.210  21.585   2.271
76272CL-    CL-48686  36.953  28.168  13.488
76273CL-    CL-48687  30.453  37.394   1.290
76274CL-    CL-48688  21.731  38.899  14.302
76275CL-    CL-48689  29.157  37.999   0.772
76276CL-    CL-48690  11.347   2.735  12.910
76277CL-    CL-48691   2.946  44.274  11.499
76278CL-    CL-48692  13.602  40.019   4.207
76279CL-    CL-48693   1.268  26.202   3.830
76280CL-    CL-48694   7.330  22.016   3.348
76281CL-    CL-48695  35.997  12.138   1.814
76282CL-    CL-48696  31.589   8.857   1.927
76283CL-    CL-48697  12.647  23.083   0.269
76284CL-    CL-48698   3.313  41.847   1.377
76285CL-    CL-48699  21.251   2.938   4.262
76286CL-    CL-48700  23.119  43.988   0.904
76287CL-    CL-48701  39.515  15.325   3.678
76288CL-    CL-48702   7.215  34.015  10.996
76289CL-    CL-48703  26.643  13.748   1.921
76290CL-    CL-48704  20.586  19.258  11.938
76291CL-    CL-48705  11.847  20.608   1.861
76292CL-    CL-48706  33.009  27.045  14.961
76293CL-    CL-48707  42.777  19.258  11.926
76294CL-    CL-48708  17.240  34.420   2.863
76295CL-    CL-48709  34.077  43.422   3.222
76296CL-    CL-48710  40.939  11.174   0.823
76297CL-    CL-48711  44.886  17.203  10.568
76298CL-    CL-48712  43.022  44.997  10.899
76299CL-    CL-48713  29.996  43.442  11.944
76300CL-    CL-48714   2.267  42.327  14.772
76301CL-    CL-48715  36.982  39.914  14.354
76302CL-    CL-48716   5.251   0.967  12.980
76303CL-    CL-48717  25.479  37.405  11.873
76304CL-    CL-48718  29.452  30.641   0.382
76305CL-    CL-48719  42.890  40.466   0.820
76306CL-    CL-48720  21.701  17.302  12.035
76307CL-    CL-48721  22.550   2.864   0.936
76308CL-    CL-48722  19.239  38.382  11.540
76309CL-    CL-48723  10.846  35.506  11.385
76310CL-    CL-48724   7.811  15.732  10.446
76311CL-    CL-48725  15.261  34.992   4.783
76312CL-    CL-48726  39.388  13.797   4.687
76313CL-    CL-48727  33.532   6.917   4.788
76314CL-    CL-48728  26.701  26.679  12.887
76315CL-    CL-48729  38.470  22.706   2.669
76316CL-    CL-48730  18.655  26.491  11.997
76317CL-    CL-48731  18.733   6.307  14.464
76318CL-    CL-48732  40.812  10.206   4.692
76319CL-    CL-48733  32.031  28.095   2.833
76320CL-    CL-48734  30.598  36.458   1.849
76321CL-    CL-48735   0.471  28.053   1.838
76322CL-    CL-48736  19.554  17.259   3.829
76323CL-    CL-48737  33.114  38.516  11.931
76324CL-    CL-48738  44.307  35.008   5.140
76325CL-    CL-48739  10.213  42.905  14.434
76326CL-    CL-48740  43.289  34.005   1.743
76327CL-    CL-48741  39.851   6.409   0.313
76328CL-    CL-48742  26.698   4.433   1.407
76329CL-    CL-48743   4.208  16.165   3.314
76330CL-    CL-48744  33.892  22.705  11.475
76331CL-    CL-48745   2.381  39.817  11.440
76332CL-    CL-48746  28.127  39.961   0.748
76333CL-    CL-48747  36.860  14.196   4.167
76334CL-    CL-48748  24.548  37.907  14.431
76335CL-    CL-48749  43.949  12.155  13.820
76336CL-    CL-48750  28.025  22.028  11.412
76337CL-    CL-48751  39.053  11.809  12.956
76338CL-    CL-48752  42.869  33.032  13.854
76339CL-    CL-48753  19.660   8.810  13.803
76340CL-    CL-48754   9.886   6.755  14.283
76341CL-    CL-48755  14.640  31.571   3.326
76342CL-    CL-48756  24.095  33.929  12.487
76343CL-    CL-48757   3.269  19.779   3.786
76344CL-    CL-48758  19.229   2.337  12.407
76345CL-    CL-48759  28.466   1.399   3.675
76346CL-    CL-48760  28.460  14.781   3.652
76347CL-    CL-48761  11.802  10.710  11.479
76348CL-    CL-48762  10.190  22.073   4.646
76349CL-    CL-48763  15.626  20.646  12.868
76350CL-    CL-48764  31.545  24.687  14.502
76351CL-    CL-48765   7.245  21.141  12.444
76352CL-    CL-48766  40.835  31.075   4.638
76353CL-    CL-48767   2.405  16.124  11.581
76354CL-    CL-48768  22.059  16.234   3.814
76355CL-    CL-48769  22.722  39.375   2.352
76356CL-    CL-48770  12.279   4.314  11.055
76357CL-    CL-48771  14.765  38.406  14.005
76358CL-    CL-48772  29.445  18.720   4.268
76359CL-    CL-48773  37.558   1.861  12.938
76360CL-    CL-48774  18.552  14.338   1.716
76361CL-    CL-48775  16.583  43.507   3.253
76362CL-    CL-48776   6.740  35.418   3.326
76363CL-    CL-48777  44.757   3.871  12.443
76364CL-    CL-48778  15.821  18.266  11.869
76365CL-    CL-48779   5.326   6.868   2.322
76366CL-    CL-48780  29.486   4.868  11.875
76367CL-    CL-48781  27.596  13.169   2.255
76368CL-    CL-48782   5.432  42.418  13.856
76369CL-    CL-48783  29.994  13.783  12.905
76370CL-    CL-48784  12.342  39.995  14.797
76371CL-    CL-48785  37.013   3.927   1.866
  45.00000  45.00000  15.00000   0.00000   0.00000   0.00000   0.00000   0.00000   0.00000

